Built with Packmol
22236
    1LIG      O    1   1.977   1.970   0.066
    1LIG      C    2   2.042   2.020   0.217
    1LIG     C1    3   1.971   1.967   0.377
    1LIG     O1    4   2.035   2.017   0.530
    1LIG     C2    5   1.970   1.968   0.681
    1LIG     C3    6   2.041   2.023   0.839
    1LIG     O2    7   1.977   1.975   0.990
    1LIG     C4    8   2.040   2.025   1.142
    1LIG     C5    9   1.968   1.971   1.300
    1LIG     O3   10   2.031   2.020   1.452
    1LIG     C6   11   1.966   1.971   1.603
    1LIG     C7   12   2.038   2.027   1.761
    1LIG     O4   13   1.974   1.979   1.913
    1LIG     C8   14   2.038   2.029   2.065
    1LIG     C9   15   1.965   1.973   2.221
    1LIG     O5   16   2.029   2.023   2.373
    1LIG    C10   17   1.965   1.974   2.525
    1LIG    C11   18   2.037   2.030   2.682
    1LIG     O6   19   1.973   1.981   2.833
    1LIG    C12   20   2.036   2.030   2.986
    1LIG    C13   21   1.963   1.975   3.142
    1LIG     O7   22   2.027   2.024   3.294
    1LIG    C14   23   1.963   1.975   3.446
    1LIG    C15   24   2.035   2.030   3.604
    1LIG     O8   25   1.971   1.982   3.757
    1LIG    C16   26   2.035   2.031   3.908
    1LIG    C17   27   1.964   1.976   4.066
    1LIG     O9   28   2.027   2.025   4.219
    1LIG    C18   29   1.962   1.976   4.369
    1LIG    C19   30   2.034   2.031   4.526
    1LIG    O10   31   1.971   1.982   4.679
    1LIG    C20   32   2.035   2.032   4.830
    1LIG    C21   33   1.962   1.976   4.986
    1LIG    O11   34   2.026   2.025   5.138
    1LIG    C22   35   1.962   1.976   5.290
    1LIG    C23   36   2.034   2.032   5.447
    1LIG    O12   37   1.970   1.983   5.598
    1LIG    C24   38   2.034   2.032   5.751
    1LIG    C25   39   1.962   1.977   5.909
    1LIG    O13   40   2.025   2.026   6.062
    1LIG    C26   41   1.961   1.977   6.213
    1LIG    C27   42   2.033   2.032   6.369
    1LIG    O14   43   1.969   1.983   6.521
    1LIG    C28   44   2.034   2.032   6.674
    1LIG    C29   45   1.962   1.976   6.831
    1LIG    O15   46   2.026   2.026   6.984
    1LIG    C30   47   1.962   1.976   7.134
    1LIG    C31   48   2.034   2.031   7.291
    1LIG    O16   49   1.970   1.982   7.442
    1LIG    C32   50   2.034   2.031   7.595
    1LIG    C33   51   1.962   1.976   7.752
    1LIG    O17   52   2.026   2.025   7.904
    1LIG    C34   53   1.962   1.975   8.056
    1LIG    C35   54   2.034   2.030   8.213
    1LIG    O18   55   1.970   1.981   8.365
    1LIG    C36   56   2.034   2.031   8.517
    1LIG    C37   57   1.963   1.975   8.674
    1LIG    O19   58   2.027   2.024   8.827
    1LIG    C38   59   1.963   1.974   8.978
    1LIG    C39   60   2.034   2.029   9.136
    1LIG    O20   61   1.971   1.980   9.288
    1LIG    C40   62   2.035   2.029   9.439
    1LIG    C41   63   1.964   1.974   9.597
    1LIG    O21   64   2.027   2.023   9.749
    1LIG    C42   65   1.963   1.973   9.900
    1LIG    C43   66   2.035   2.028  10.057
    1LIG    O22   67   1.972   1.979  10.209
    1LIG    C44   68   2.036   2.028  10.361
    1LIG    C45   69   1.964   1.972  10.518
    1LIG    O23   70   2.028   2.021  10.670
    1LIG    C46   71   1.964   1.972  10.822
    1LIG    C47   72   2.037   2.028  10.979
    1LIG    O24   73   1.973   1.978  11.130
    1LIG    C48   74   2.036   2.027  11.283
    1LIG    C49   75   1.964   1.971  11.439
    1LIG    O25   76   2.028   2.020  11.591
    1LIG    C50   77   1.965   1.971  11.743
    1LIG    C51   78   2.037   2.027  11.900
    1LIG    O26   79   1.974   1.977  12.052
    1LIG    C52   80   2.037   2.026  12.204
    1LIG    C53   81   1.965   1.970  12.360
    1LIG    O27   82   2.029   2.019  12.512
    1LIG    C54   83   1.966   1.969  12.664
    1LIG    C55   84   2.038   2.025  12.823
    1LIG    O28   85   1.974   1.975  12.975
    1LIG    C56   86   2.038   2.024  13.127
    1LIG    C57   87   1.967   1.968  13.285
    1LIG    O29   88   2.031   2.017  13.438
    1LIG    C58   89   1.967   1.967  13.589
    1LIG    C59   90   2.038   2.022  13.747
    1LIG      H   91   2.039   2.130   0.214
    1LIG     H1   92   2.147   1.989   0.215
    1LIG     H2   93   1.974   1.858   0.377
    1LIG     H3   94   1.866   1.998   0.376
    1LIG     H4   95   1.973   1.858   0.683
    1LIG     H5   96   1.865   1.999   0.682
    1LIG     H6   97   2.039   2.133   0.836
    1LIG     H7   98   2.147   1.992   0.838
    1LIG     H8   99   2.038   2.134   1.143
    1LIG     H9  100   2.145   1.994   1.145
    1LIG    H10  101   1.971   1.861   1.299
    1LIG    H11  102   1.863   2.001   1.297
    1LIG    H12  103   1.969   1.862   1.606
    1LIG    H13  104   1.861   2.002   1.604
    1LIG    H14  105   2.035   2.137   1.758
    1LIG    H15  106   2.143   1.997   1.759
    1LIG    H16  107   2.035   2.138   2.066
    1LIG    H17  108   2.143   1.998   2.067
    1LIG    H18  109   1.968   1.864   2.220
    1LIG    H19  110   1.860   2.005   2.219
    1LIG    H20  111   1.967   1.865   2.527
    1LIG    H21  112   1.859   2.005   2.527
    1LIG    H22  113   2.034   2.139   2.680
    1LIG    H23  114   2.142   1.999   2.680
    1LIG    H24  115   2.033   2.140   2.987
    1LIG    H25  116   2.141   1.999   2.988
    1LIG    H26  117   1.966   1.865   3.141
    1LIG    H27  118   1.858   2.006   3.140
    1LIG    H28  119   1.966   1.865   3.448
    1LIG    H29  120   1.858   2.006   3.448
    1LIG    H30  121   2.032   2.140   3.602
    1LIG    H31  122   2.140   1.999   3.603
    1LIG    H32  123   2.032   2.141   3.909
    1LIG    H33  124   2.140   2.000   3.910
    1LIG    H34  125   1.966   1.867   4.064
    1LIG    H35  126   1.858   2.007   4.064
    1LIG    H36  127   1.965   1.866   4.371
    1LIG    H37  128   1.857   2.007   4.371
    1LIG    H38  129   2.031   2.141   4.524
    1LIG    H39  130   2.139   2.000   4.524
    1LIG    H40  131   2.032   2.141   4.832
    1LIG    H41  132   2.140   2.001   4.832
    1LIG    H42  133   1.965   1.867   4.985
    1LIG    H43  134   1.857   2.007   4.984
    1LIG    H44  135   1.965   1.867   5.292
    1LIG    H45  136   1.857   2.007   5.292
    1LIG    H46  137   2.031   2.142   5.445
    1LIG    H47  138   2.140   2.001   5.445
    1LIG    H48  139   2.031   2.142   5.753
    1LIG    H49  140   2.139   2.001   5.753
    1LIG    H50  141   1.965   1.867   5.908
    1LIG    H51  142   1.857   2.008   5.907
    1LIG    H52  143   1.964   1.867   6.215
    1LIG    H53  144   1.856   2.008   6.215
    1LIG    H54  145   2.030   2.142   6.368
    1LIG    H55  146   2.138   2.001   6.368
    1LIG    H56  147   2.031   2.141   6.675
    1LIG    H57  148   2.139   2.001   6.675
    1LIG    H58  149   1.965   1.867   6.829
    1LIG    H59  150   1.857   2.007   6.830
    1LIG    H60  151   1.965   1.866   7.136
    1LIG    H61  152   1.857   2.007   7.136
    1LIG    H62  153   2.031   2.141   7.289
    1LIG    H63  154   2.139   2.001   7.289
    1LIG    H64  155   2.031   2.141   7.597
    1LIG    H65  156   2.139   2.000   7.596
    1LIG    H66  157   1.965   1.866   7.750
    1LIG    H67  158   1.857   2.007   7.751
    1LIG    H68  159   1.965   1.866   8.057
    1LIG    H69  160   1.857   2.006   8.057
    1LIG    H70  161   2.031   2.140   8.212
    1LIG    H71  162   2.139   2.000   8.212
    1LIG    H72  163   2.031   2.140   8.518
    1LIG    H73  164   2.140   2.000   8.518
    1LIG    H74  165   1.966   1.866   8.673
    1LIG    H75  166   1.858   2.006   8.673
    1LIG    H76  167   1.966   1.865   8.979
    1LIG    H77  168   1.858   2.005   8.979
    1LIG    H78  169   2.031   2.139   9.134
    1LIG    H79  170   2.140   1.998   9.134
    1LIG    H80  171   2.032   2.139   9.441
    1LIG    H81  172   2.140   1.999   9.441
    1LIG    H82  173   1.967   1.864   9.595
    1LIG    H83  174   1.858   2.004   9.596
    1LIG    H84  175   1.967   1.863   9.902
    1LIG    H85  176   1.858   2.004   9.902
    1LIG    H86  177   2.032   2.138  10.055
    1LIG    H87  178   2.141   1.998  10.055
    1LIG    H88  179   2.033   2.138  10.363
    1LIG    H89  180   2.141   1.998  10.363
    1LIG    H90  181   1.967   1.863  10.516
    1LIG    H91  182   1.859   2.003  10.516
    1LIG    H92  183   1.968   1.862  10.824
    1LIG    H93  184   1.859   2.002  10.824
    1LIG    H94  185   2.033   2.137  10.977
    1LIG    H95  186   2.142   1.997  10.977
    1LIG    H96  187   2.033   2.136  11.285
    1LIG    H97  188   2.141   1.996  11.285
    1LIG    H98  189   1.968   1.861  11.437
    1LIG    H99  190   1.859   2.001  11.438
    1LIG   H100  191   1.968   1.861  11.745
    1LIG   H101  192   1.860   2.001  11.746
    1LIG   H102  193   2.034   2.136  11.898
    1LIG   H103  194   2.142   1.996  11.898
    1LIG   H104  195   2.034   2.135  12.206
    1LIG   H105  196   2.142   1.995  12.206
    1LIG   H106  197   1.969   1.860  12.359
    1LIG   H107  198   1.860   2.000  12.359
    1LIG   H108  199   1.970   1.860  12.666
    1LIG   H109  200   1.861   2.000  12.667
    1LIG   H110  201   2.034   2.134  12.821
    1LIG   H111  202   2.143   1.994  12.820
    1LIG   H112  203   2.035   2.134  13.129
    1LIG   H113  204   2.144   1.994  13.128
    1LIG   H114  205   1.971   1.859  13.283
    1LIG   H115  206   1.862   1.999  13.284
    1LIG   H116  207   1.971   1.858  13.589
    1LIG   H117  208   1.862   1.999  13.590
    1LIG   H118  209   2.143   1.992  13.747
    1LIG   H119  210   1.991   1.985  13.866
    1MOL     C1  211   2.553   1.997   6.438
    1MOL     H1  212   2.642   2.057   6.459
    1MOL     O1  213   2.527   1.924   6.556
    1MOL     C2  214   2.406   1.845   6.550
    1MOL     H2  215   2.321   1.909   6.525
    1MOL     C3  216   2.382   1.789   6.691
    1MOL     H3  217   2.478   1.786   6.744
    1MOL     H4  218   2.342   1.687   6.686
    1MOL     O2  219   2.293   1.871   6.766
    1MOL     H5  220   2.206   1.827   6.765
    1MOL     C4  221   2.575   1.901   6.320
    1MOL     H6  222   2.664   1.841   6.341
    1MOL     O3  223   2.600   1.969   6.198
    1MOL     H7  224   2.546   2.051   6.197
    1MOL     C5  225   2.454   1.809   6.307
    1MOL     H8  226   2.367   1.870   6.278
    1MOL     O4  227   2.476   1.708   6.208
    1MOL     H9  228   2.511   1.754   6.130
    1MOL     C6  229   2.420   1.740   6.438
    1MOL    H10  230   2.497   1.666   6.463
    1MOL     O5  231   2.294   1.675   6.416
    1MOL     C7  232   2.274   1.542   6.456
    1MOL    H11  233   2.369   1.493   6.481
    1MOL     O6  234   2.195   1.533   6.573
    1MOL     C8  235   2.066   1.598   6.562
    1MOL    H12  236   2.080   1.703   6.534
    1MOL     C9  237   2.003   1.593   6.699
    1MOL    H13  238   2.019   1.494   6.743
    1MOL    H14  239   1.895   1.612   6.691
    1MOL     O7  240   2.065   1.694   6.780
    1MOL    H15  241   2.042   1.679   6.873
    1MOL    C10  242   2.204   1.471   6.339
    1MOL    H16  243   2.193   1.365   6.365
    1MOL     O8  244   2.277   1.477   6.219
    1MOL    H17  245   2.323   1.563   6.213
    1MOL    C11  246   2.064   1.531   6.321
    1MOL    H18  247   2.075   1.635   6.290
    1MOL     O9  248   1.991   1.458   6.222
    1MOL    H19  249   2.052   1.448   6.147
    1MOL    C12  250   1.983   1.530   6.451
    1MOL    H20  251   1.960   1.426   6.479
    1MOL    O10  252   1.864   1.603   6.427
    1MOL    C13  253   1.736   1.543   6.446
    1MOL    H21  254   1.748   1.436   6.467
    1MOL    O11  255   1.670   1.597   6.558
    1MOL    C14  256   1.644   1.738   6.553
    1MOL    H22  257   1.740   1.793   6.554
    1MOL    C15  258   1.567   1.775   6.679
    1MOL    H23  259   1.563   1.885   6.685
    1MOL    H24  260   1.623   1.737   6.766
    1MOL    O12  261   1.437   1.719   6.672
    1MOL    H25  262   1.383   1.761   6.740
    1MOL    C16  263   1.654   1.567   6.319
    1MOL    H26  264   1.556   1.520   6.334
    1MOL    O13  265   1.709   1.509   6.203
    1MOL    H27  266   1.807   1.512   6.207
    1MOL    C17  267   1.634   1.717   6.301
    1MOL    H28  268   1.732   1.764   6.287
    1MOL    O14  269   1.551   1.744   6.188
    1MOL    H29  270   1.584   1.687   6.117
    1MOL    C18  271   1.568   1.778   6.424
    1MOL    H30  272   1.464   1.744   6.431
    1MOL    O15  273   1.574   1.920   6.409
    1MOL    C19  274   1.458   1.999   6.424
    1MOL    H31  275   1.369   1.936   6.438
    1MOL    O16  276   1.466   2.080   6.540
    1MOL    C20  277   1.581   2.167   6.544
    1MOL    H32  278   1.672   2.106   6.546
    1MOL    C21  279   1.574   2.246   6.674
    1MOL    H33  280   1.671   2.295   6.689
    1MOL    H34  281   1.557   2.175   6.756
    1MOL    O17  282   1.468   2.341   6.666
    1MOL    H35  283   1.476   2.400   6.742
    1MOL    C22  284   1.446   2.087   6.299
    1MOL    H36  285   1.357   2.150   6.309
    1MOL    O18  286   1.431   2.013   6.179
    1MOL    H37  287   1.488   1.934   6.182
    1MOL    C23  288   1.569   2.178   6.291
    1MOL    H38  289   1.658   2.115   6.277
    1MOL    O19  290   1.558   2.270   6.183
    1MOL    H39  291   1.529   2.218   6.107
    1MOL    C24  292   1.588   2.258   6.420
    1MOL    H40  293   1.511   2.335   6.426
    1MOL    O20  294   1.718   2.317   6.410
    1MOL    C25  295   1.740   2.450   6.451
    1MOL    H41  296   1.645   2.498   6.478
    1MOL    O21  297   1.821   2.456   6.566
    1MOL    C26  298   1.950   2.391   6.551
    1MOL    H42  299   1.932   2.287   6.522
    1MOL    C27  300   2.021   2.393   6.687
    1MOL    H43  301   2.078   2.301   6.700
    1MOL    H44  302   1.943   2.394   6.764
    1MOL    O22  303   2.104   2.507   6.708
    1MOL    H45  304   2.195   2.476   6.690
    1MOL    C28  305   1.807   2.522   6.333
    1MOL    H46  306   1.819   2.628   6.358
    1MOL    O23  307   1.730   2.518   6.214
    1MOL    H47  308   1.692   2.428   6.204
    1MOL    C29  309   1.946   2.461   6.310
    1MOL    H48  310   1.934   2.357   6.277
    1MOL    O24  311   2.018   2.535   6.211
    1MOL    H49  312   1.955   2.548   6.137
    1MOL    C30  313   2.027   2.462   6.438
    1MOL    H50  314   2.049   2.565   6.469
    1MOL    O25  315   2.149   2.393   6.409
    1MOL    C31  316   2.272   2.452   6.443
    1MOL    H51  317   2.259   2.558   6.468
    1MOL    O26  318   2.329   2.392   6.559
    1MOL    C32  319   2.350   2.249   6.549
    1MOL    H52  320   2.254   2.200   6.528
    1MOL    C33  321   2.400   2.201   6.686
    1MOL    H53  322   2.455   2.284   6.732
    1MOL    H54  323   2.470   2.118   6.672
    1MOL    O27  324   2.293   2.164   6.771
    1MOL    H55  325   2.288   2.066   6.771
    1MOL    C34  326   2.366   2.434   6.323
    1MOL    H56  327   2.461   2.485   6.346
    1MOL    O28  328   2.316   2.493   6.205
    1MOL    H57  329   2.218   2.485   6.204
    1MOL    C35  330   2.394   2.285   6.303
    1MOL    H58  331   2.299   2.237   6.276
    1MOL    O29  332   2.490   2.264   6.200
    1MOL    H59  333   2.462   2.321   6.126
    1MOL    C36  334   2.444   2.219   6.431
    1MOL    H60  335   2.547   2.254   6.452
    1MOL    O30  336   2.445   2.079   6.402
    1MOL     C1  337   2.553   1.997   7.438
    1MOL     H1  338   2.642   2.057   7.459
    1MOL     O1  339   2.527   1.924   7.556
    1MOL     C2  340   2.406   1.845   7.550
    1MOL     H2  341   2.321   1.909   7.525
    1MOL     C3  342   2.382   1.789   7.691
    1MOL     H3  343   2.478   1.786   7.744
    1MOL     H4  344   2.342   1.687   7.686
    1MOL     O2  345   2.293   1.871   7.766
    1MOL     H5  346   2.206   1.827   7.765
    1MOL     C4  347   2.575   1.901   7.320
    1MOL     H6  348   2.664   1.841   7.341
    1MOL     O3  349   2.600   1.969   7.198
    1MOL     H7  350   2.546   2.051   7.197
    1MOL     C5  351   2.454   1.809   7.307
    1MOL     H8  352   2.367   1.870   7.278
    1MOL     O4  353   2.476   1.708   7.208
    1MOL     H9  354   2.511   1.754   7.130
    1MOL     C6  355   2.420   1.740   7.438
    1MOL    H10  356   2.497   1.666   7.463
    1MOL     O5  357   2.294   1.675   7.416
    1MOL     C7  358   2.274   1.542   7.456
    1MOL    H11  359   2.369   1.493   7.481
    1MOL     O6  360   2.195   1.533   7.573
    1MOL     C8  361   2.066   1.598   7.562
    1MOL    H12  362   2.080   1.703   7.534
    1MOL     C9  363   2.003   1.593   7.699
    1MOL    H13  364   2.019   1.494   7.743
    1MOL    H14  365   1.895   1.612   7.691
    1MOL     O7  366   2.065   1.694   7.780
    1MOL    H15  367   2.042   1.679   7.873
    1MOL    C10  368   2.204   1.471   7.339
    1MOL    H16  369   2.193   1.365   7.365
    1MOL     O8  370   2.277   1.477   7.219
    1MOL    H17  371   2.323   1.563   7.213
    1MOL    C11  372   2.064   1.531   7.321
    1MOL    H18  373   2.075   1.635   7.290
    1MOL     O9  374   1.991   1.458   7.222
    1MOL    H19  375   2.052   1.448   7.147
    1MOL    C12  376   1.983   1.530   7.451
    1MOL    H20  377   1.960   1.426   7.479
    1MOL    O10  378   1.864   1.603   7.427
    1MOL    C13  379   1.736   1.543   7.446
    1MOL    H21  380   1.748   1.436   7.467
    1MOL    O11  381   1.670   1.597   7.558
    1MOL    C14  382   1.644   1.738   7.553
    1MOL    H22  383   1.740   1.793   7.554
    1MOL    C15  384   1.567   1.775   7.679
    1MOL    H23  385   1.563   1.885   7.685
    1MOL    H24  386   1.623   1.737   7.766
    1MOL    O12  387   1.437   1.719   7.672
    1MOL    H25  388   1.383   1.761   7.740
    1MOL    C16  389   1.654   1.567   7.319
    1MOL    H26  390   1.556   1.520   7.334
    1MOL    O13  391   1.709   1.509   7.203
    1MOL    H27  392   1.807   1.512   7.207
    1MOL    C17  393   1.634   1.717   7.301
    1MOL    H28  394   1.732   1.764   7.287
    1MOL    O14  395   1.551   1.744   7.188
    1MOL    H29  396   1.584   1.687   7.117
    1MOL    C18  397   1.568   1.778   7.424
    1MOL    H30  398   1.464   1.744   7.431
    1MOL    O15  399   1.574   1.920   7.409
    1MOL    C19  400   1.458   1.999   7.424
    1MOL    H31  401   1.369   1.936   7.438
    1MOL    O16  402   1.466   2.080   7.540
    1MOL    C20  403   1.581   2.167   7.544
    1MOL    H32  404   1.672   2.106   7.546
    1MOL    C21  405   1.574   2.246   7.674
    1MOL    H33  406   1.671   2.295   7.689
    1MOL    H34  407   1.557   2.175   7.756
    1MOL    O17  408   1.468   2.341   7.666
    1MOL    H35  409   1.476   2.400   7.742
    1MOL    C22  410   1.446   2.087   7.299
    1MOL    H36  411   1.357   2.150   7.309
    1MOL    O18  412   1.431   2.013   7.179
    1MOL    H37  413   1.488   1.934   7.182
    1MOL    C23  414   1.569   2.178   7.291
    1MOL    H38  415   1.658   2.115   7.277
    1MOL    O19  416   1.558   2.270   7.183
    1MOL    H39  417   1.529   2.218   7.107
    1MOL    C24  418   1.588   2.258   7.420
    1MOL    H40  419   1.511   2.335   7.426
    1MOL    O20  420   1.718   2.317   7.410
    1MOL    C25  421   1.740   2.450   7.451
    1MOL    H41  422   1.645   2.498   7.478
    1MOL    O21  423   1.821   2.456   7.566
    1MOL    C26  424   1.950   2.391   7.551
    1MOL    H42  425   1.932   2.287   7.522
    1MOL    C27  426   2.021   2.393   7.687
    1MOL    H43  427   2.078   2.301   7.700
    1MOL    H44  428   1.943   2.394   7.764
    1MOL    O22  429   2.104   2.507   7.708
    1MOL    H45  430   2.195   2.476   7.690
    1MOL    C28  431   1.807   2.522   7.333
    1MOL    H46  432   1.819   2.628   7.358
    1MOL    O23  433   1.730   2.518   7.214
    1MOL    H47  434   1.692   2.428   7.204
    1MOL    C29  435   1.946   2.461   7.310
    1MOL    H48  436   1.934   2.357   7.277
    1MOL    O24  437   2.018   2.535   7.211
    1MOL    H49  438   1.955   2.548   7.137
    1MOL    C30  439   2.027   2.462   7.438
    1MOL    H50  440   2.049   2.565   7.469
    1MOL    O25  441   2.149   2.393   7.409
    1MOL    C31  442   2.272   2.452   7.443
    1MOL    H51  443   2.259   2.558   7.468
    1MOL    O26  444   2.329   2.392   7.559
    1MOL    C32  445   2.350   2.249   7.549
    1MOL    H52  446   2.254   2.200   7.528
    1MOL    C33  447   2.400   2.201   7.686
    1MOL    H53  448   2.455   2.284   7.732
    1MOL    H54  449   2.470   2.118   7.672
    1MOL    O27  450   2.293   2.164   7.771
    1MOL    H55  451   2.288   2.066   7.771
    1MOL    C34  452   2.366   2.434   7.323
    1MOL    H56  453   2.461   2.485   7.346
    1MOL    O28  454   2.316   2.493   7.205
    1MOL    H57  455   2.218   2.485   7.204
    1MOL    C35  456   2.394   2.285   7.303
    1MOL    H58  457   2.299   2.237   7.276
    1MOL    O29  458   2.490   2.264   7.200
    1MOL    H59  459   2.462   2.321   7.126
    1MOL    C36  460   2.444   2.219   7.431
    1MOL    H60  461   2.547   2.254   7.452
    1MOL    O30  462   2.445   2.079   7.402
    2SOL     OW  463   0.230   0.628   0.113
    2SOL    HW1  464   0.137   0.626   0.150
    2SOL    HW2  465   0.231   0.589   0.021
    3SOL     OW  466   0.225   0.275   0.996
    3SOL    HW1  467   0.260   0.258   1.088
    3SOL    HW2  468   0.137   0.230   0.984
    4SOL     OW  469   0.019   0.368   0.647
    4SOL    HW1  470  -0.063   0.411   0.686
    4SOL    HW2  471  -0.009   0.295   0.584
    5SOL     OW  472   0.569   1.275   1.165
    5SOL    HW1  473   0.476   1.268   1.128
    5SOL    HW2  474   0.580   1.364   1.209
    6SOL     OW  475   1.555   1.511   0.703
    6SOL    HW1  476   1.498   1.495   0.784
    6SOL    HW2  477   1.496   1.521   0.623
    7SOL     OW  478   1.135   0.703   0.717
    7SOL    HW1  479   1.192   0.781   0.692
    7SOL    HW2  480   1.075   0.729   0.793
    8SOL     OW  481   1.755   0.607   0.231
    8SOL    HW1  482   1.743   0.594   0.132
    8SOL    HW2  483   1.725   0.526   0.280
    9SOL     OW  484   0.768   1.144   1.023
    9SOL    HW1  485   0.690   1.161   1.083
    9SOL    HW2  486   0.802   1.231   0.987
   10SOL     OW  487   0.850   0.798   1.823
   10SOL    HW1  488   0.846   0.874   1.888
   10SOL    HW2  489   0.872   0.834   1.732
   11SOL     OW  490   0.685   1.012   0.665
   11SOL    HW1  491   0.754   0.996   0.735
   11SOL    HW2  492   0.612   1.069   0.703
   12SOL     OW  493   0.686   1.161   1.803
   12SOL    HW1  494   0.746   1.240   1.817
   12SOL    HW2  495   0.600   1.192   1.762
   13SOL     OW  496   0.335   1.435   1.061
   13SOL    HW1  497   0.257   1.404   1.008
   13SOL    HW2  498   0.393   1.493   1.004
   14SOL     OW  499   1.460   1.505   1.339
   14SOL    HW1  500   1.484   1.599   1.365
   14SOL    HW2  501   1.444   1.451   1.421
   15SOL     OW  502   0.438   0.392   1.499
   15SOL    HW1  503   0.520   0.336   1.508
   15SOL    HW2  504   0.357   0.334   1.503
   16SOL     OW  505   1.603   0.447   0.737
   16SOL    HW1  506   1.529   0.493   0.687
   16SOL    HW2  507   1.654   0.515   0.790
   17SOL     OW  508   0.231   1.713   0.483
   17SOL    HW1  509   0.265   1.790   0.537
   17SOL    HW2  510   0.275   1.713   0.393
   18SOL     OW  511   1.127   1.341   1.690
   18SOL    HW1  512   1.174   1.341   1.778
   18SOL    HW2  513   1.079   1.254   1.679
   19SOL     OW  514   0.230   1.434   0.538
   19SOL    HW1  515   0.204   1.530   0.538
   19SOL    HW2  516   0.159   1.380   0.583
   20SOL     OW  517   0.240   1.091   0.886
   20SOL    HW1  518   0.254   1.007   0.938
   20SOL    HW2  519   0.185   1.155   0.941
   21SOL     OW  520   0.620   1.786   1.439
   21SOL    HW1  521   0.528   1.769   1.474
   21SOL    HW2  522   0.648   1.878   1.465
   22SOL     OW  523   0.606   0.964   0.123
   22SOL    HW1  524   0.613   1.048   0.069
   22SOL    HW2  525   0.652   0.977   0.211
   23SOL     OW  526   1.594   0.114   1.480
   23SOL    HW1  527   1.576   0.181   1.408
   23SOL    HW2  528   1.591   0.160   1.569
   24SOL     OW  529   0.122   0.643   0.563
   24SOL    HW1  530   0.077   0.555   0.580
   24SOL    HW2  531   0.121   0.697   0.647
   25SOL     OW  532   0.027   1.596   0.117
   25SOL    HW1  533   0.008   1.500   0.138
   25SOL    HW2  534  -0.006   1.654   0.192
   26SOL     OW  535   1.689   0.922   0.612
   26SOL    HW1  536   1.784   0.893   0.620
   26SOL    HW2  537   1.681   0.987   0.537
   27SOL     OW  538   1.641   1.108   0.432
   27SOL    HW1  539   1.727   1.110   0.380
   27SOL    HW2  540   1.655   1.155   0.520
   28SOL     OW  541   0.113   0.737   1.597
   28SOL    HW1  542   0.201   0.724   1.642
   28SOL    HW2  543   0.100   0.834   1.575
   29SOL     OW  544   0.613   1.365   0.726
   29SOL    HW1  545   0.564   1.278   0.735
   29SOL    HW2  546   0.590   1.408   0.639
   30SOL     OW  547   1.293   1.228   1.423
   30SOL    HW1  548   1.330   1.155   1.365
   30SOL    HW2  549   1.345   1.233   1.508
   31SOL     OW  550   0.809   0.004   0.502
   31SOL    HW1  551   0.849   0.095   0.493
   31SOL    HW2  552   0.709   0.012   0.508
   32SOL     OW  553   0.197   0.976   1.264
   32SOL    HW1  554   0.286   0.931   1.250
   32SOL    HW2  555   0.124   0.911   1.245
   33SOL     OW  556   1.525   0.999   0.190
   33SOL    HW1  557   1.462   0.923   0.203
   33SOL    HW2  558   1.573   1.017   0.276
   34SOL     OW  559   1.187   1.792   1.616
   34SOL    HW1  560   1.211   1.852   1.540
   34SOL    HW2  561   1.194   1.697   1.586
   35SOL     OW  562   0.317   0.251   1.801
   35SOL    HW1  563   0.388   0.322   1.807
   35SOL    HW2  564   0.229   0.290   1.829
   36SOL     OW  565   1.466   1.417   0.953
   36SOL    HW1  566   1.407   1.423   1.033
   36SOL    HW2  567   1.451   1.329   0.907
   37SOL     OW  568   1.667   1.714   0.572
   37SOL    HW1  569   1.626   1.691   0.484
   37SOL    HW2  570   1.649   1.640   0.637
   38SOL     OW  571   0.598   0.729   0.270
   38SOL    HW1  572   0.622   0.798   0.202
   38SOL    HW2  573   0.520   0.762   0.324
   39SOL     OW  574   1.281   0.345   0.944
   39SOL    HW1  575   1.195   0.295   0.931
   39SOL    HW2  576   1.343   0.291   1.000
   40SOL     OW  577   1.576   1.662   0.307
   40SOL    HW1  578   1.665   1.708   0.310
   40SOL    HW2  579   1.555   1.638   0.212
   41SOL     OW  580   0.807   0.605   1.465
   41SOL    HW1  581   0.760   0.602   1.554
   41SOL    HW2  582   0.756   0.550   1.399
   42SOL     OW  583   1.394   0.469   1.674
   42SOL    HW1  584   1.374   0.512   1.762
   42SOL    HW2  585   1.472   0.407   1.683
   43SOL     OW  586   0.973   0.890   1.572
   43SOL    HW1  587   1.019   0.806   1.543
   43SOL    HW2  588   0.917   0.924   1.497
   44SOL     OW  589   0.991   0.410   1.242
   44SOL    HW1  590   0.914   0.444   1.296
   44SOL    HW2  591   0.957   0.359   1.163
   45SOL     OW  592   1.041   0.701   0.429
   45SOL    HW1  593   1.067   0.697   0.525
   45SOL    HW2  594   0.956   0.650   0.415
   46SOL     OW  595   0.076   0.811   0.789
   46SOL    HW1  596   0.175   0.799   0.798
   46SOL    HW2  597   0.052   0.906   0.810
   47SOL     OW  598   0.130   1.821   1.571
   47SOL    HW1  599   0.120   1.806   1.670
   47SOL    HW2  600   0.044   1.857   1.535
   48SOL     OW  601   0.865   0.348   0.195
   48SOL    HW1  602   0.924   0.411   0.146
   48SOL    HW2  603   0.884   0.254   0.166
   49SOL     OW  604   1.719   0.585   1.831
   49SOL    HW1  605   1.693   0.674   1.795
   49SOL    HW2  606   1.717   0.517   1.758
   50SOL     OW  607   1.362   1.144   0.545
   50SOL    HW1  608   1.445   1.115   0.497
   50SOL    HW2  609   1.313   1.211   0.489
   51SOL     OW  610   0.550   0.196   0.885
   51SOL    HW1  611   0.545   0.191   0.985
   51SOL    HW2  612   0.552   0.292   0.856
   52SOL     OW  613   1.008   1.456   0.477
   52SOL    HW1  614   0.962   1.528   0.425
   52SOL    HW2  615   1.004   1.476   0.575
   53SOL     OW  616   0.351   1.801   0.853
   53SOL    HW1  617   0.401   1.715   0.859
   53SOL    HW2  618   0.416   1.878   0.850
   54SOL     OW  619   1.795   1.066   0.873
   54SOL    HW1  620   1.733   1.051   0.797
   54SOL    HW2  621   1.743   1.077   0.958
   55SOL     OW  622   1.227   1.550   1.506
   55SOL    HW1  623   1.233   1.473   1.570
   55SOL    HW2  624   1.175   1.524   1.426
   56SOL     OW  625   0.321   0.943   0.242
   56SOL    HW1  626   0.403   0.982   0.200
   56SOL    HW2  627   0.294   0.861   0.193
   57SOL     OW  628   1.458   0.735   0.728
   57SOL    HW1  629   1.453   0.670   0.803
   57SOL    HW2  630   1.538   0.794   0.741
   58SOL     OW  631   0.461   1.266   1.727
   58SOL    HW1  632   0.411   1.267   1.641
   58SOL    HW2  633   0.398   1.248   1.803
   59SOL     OW  634   1.111   1.776   0.237
   59SOL    HW1  635   1.051   1.714   0.287
   59SOL    HW2  636   1.142   1.732   0.152
   60SOL     OW  637   0.202   0.285   1.498
   60SOL    HW1  638   0.122   0.345   1.485
   60SOL    HW2  639   0.192   0.236   1.584
   61SOL     OW  640   1.632   1.377   0.081
   61SOL    HW1  641   1.600   1.471   0.071
   61SOL    HW2  642   1.556   1.314   0.069
   62SOL     OW  643   0.464   1.743   0.323
   62SOL    HW1  644   0.497   1.782   0.409
   62SOL    HW2  645   0.540   1.736   0.258
   63SOL     OW  646   1.400   0.107   0.426
   63SOL    HW1  647   1.376   0.070   0.336
   63SOL    HW2  648   1.499   0.123   0.430
   64SOL     OW  649   0.249   1.785   1.241
   64SOL    HW1  650   0.306   1.720   1.291
   64SOL    HW2  651   0.233   1.752   1.148
   65SOL     OW  652   0.940   1.698   0.904
   65SOL    HW1  653   1.020   1.641   0.925
   65SOL    HW2  654   0.891   1.658   0.827
   66SOL     OW  655   0.382   0.700   0.480
   66SOL    HW1  656   0.427   0.610   0.477
   66SOL    HW2  657   0.288   0.689   0.513
   67SOL     OW  658   1.547   0.222   1.729
   67SOL    HW1  659   1.542   0.259   1.821
   67SOL    HW2  660   1.475   0.153   1.717
   68SOL     OW  661   0.614   0.122   0.117
   68SOL    HW1  662   0.712   0.100   0.124
   68SOL    HW2  663   0.583   0.105   0.024
   69SOL     OW  664   0.781   0.264   1.749
   69SOL    HW1  665   0.848   0.203   1.792
   69SOL    HW2  666   0.708   0.283   1.814
   70SOL     OW  667   0.888   1.514   1.195
   70SOL    HW1  668   0.865   1.489   1.101
   70SOL    HW2  669   0.949   1.445   1.234
   71SOL     OW  670   1.351   0.590   1.433
   71SOL    HW1  671   1.379   0.547   1.518
   71SOL    HW2  672   1.376   0.686   1.434
   72SOL     OW  673   0.803   1.402   0.924
   72SOL    HW1  674   0.893   1.416   0.882
   72SOL    HW2  675   0.732   1.404   0.853
   73SOL     OW  676   0.922   0.503   0.899
   73SOL    HW1  677   0.897   0.494   0.803
   73SOL    HW2  678   0.970   0.421   0.930
   74SOL     OW  679   0.539   0.064   0.512
   74SOL    HW1  680   0.458   0.065   0.570
   74SOL    HW2  681   0.542   0.147   0.457
   75SOL     OW  682   1.434   1.188   0.041
   75SOL    HW1  683   1.466   1.112   0.098
   75SOL    HW2  684   1.342   1.215   0.071
   76SOL     OW  685   0.297   0.035   0.171
   76SOL    HW1  686   0.346   0.119   0.150
   76SOL    HW2  687   0.359  -0.030   0.216
   77SOL     OW  688   0.935   0.236   0.480
   77SOL    HW1  689   0.887   0.277   0.402
   77SOL    HW2  690   1.034   0.234   0.461
   78SOL     OW  691   1.076   0.683   1.464
   78SOL    HW1  692   0.996   0.622   1.467
   78SOL    HW2  693   1.157   0.630   1.440
   79SOL     OW  694   1.227   1.570   0.793
   79SOL    HW1  695   1.248   1.644   0.728
   79SOL    HW2  696   1.295   1.570   0.866
   80SOL     OW  697   0.459   1.152   0.741
   80SOL    HW1  698   0.388   1.125   0.806
   80SOL    HW2  699   0.433   1.124   0.648
   81SOL     OW  700   1.271   1.797   0.591
   81SOL    HW1  701   1.315   1.861   0.527
   81SOL    HW2  702   1.221   1.849   0.661
   82SOL     OW  703   1.032   0.549   0.016
   82SOL    HW1  704   0.991   0.631  -0.023
   82SOL    HW2  705   1.096   0.575   0.089
   83SOL     OW  706   0.078   0.556   1.386
   83SOL    HW1  707   0.170   0.555   1.345
   83SOL    HW2  708   0.072   0.630   1.453
   84SOL     OW  709   0.561   0.222   1.147
   84SOL    HW1  710   0.599   0.138   1.184
   84SOL    HW2  711   0.473   0.241   1.191
   85SOL     OW  712   0.866   0.454   0.642
   85SOL    HW1  713   0.834   0.526   0.580
   85SOL    HW2  714   0.890   0.373   0.589
   86SOL     OW  715   1.017   0.039   0.753
   86SOL    HW1  716   0.945   0.044   0.684
   86SOL    HW2  717   0.993  -0.030   0.822
   87SOL     OW  718   1.429   1.173   0.867
   87SOL    HW1  719   1.374   1.089   0.860
   87SOL    HW2  720   1.455   1.202   0.775
   88SOL     OW  721   1.466   0.590   0.992
   88SOL    HW1  722   1.436   0.495   0.999
   88SOL    HW2  723   1.539   0.606   1.058
   89SOL     OW  724   1.857   0.833   0.377
   89SOL    HW1  725   1.899   0.769   0.441
   89SOL    HW2  726   1.819   0.782   0.299
   90SOL     OW  727   0.488   1.385   0.174
   90SOL    HW1  728   0.401   1.370   0.221
   90SOL    HW2  729   0.471   1.411   0.079
   91SOL     OW  730   1.664   1.280   0.657
   91SOL    HW1  731   1.763   1.288   0.671
   91SOL    HW2  732   1.619   1.364   0.688
   92SOL     OW  733   1.390   0.575   0.078
   92SOL    HW1  734   1.336   0.554   0.159
   92SOL    HW2  735   1.481   0.534   0.087
   93SOL     OW  736   0.527   0.256   0.328
   93SOL    HW1  737   0.554   0.197   0.253
   93SOL    HW2  738   0.527   0.351   0.297
   94SOL     OW  739   1.754   1.223   1.588
   94SOL    HW1  740   1.845   1.184   1.575
   94SOL    HW2  741   1.762   1.319   1.612
   95SOL     OW  742   1.064   1.347   1.340
   95SOL    HW1  743   0.984   1.324   1.395
   95SOL    HW2  744   1.147   1.321   1.389
   96SOL     OW  745   1.592   1.629   1.625
   96SOL    HW1  746   1.619   1.663   1.535
   96SOL    HW2  747   1.671   1.591   1.671
   97SOL     OW  748   1.111   1.195   1.100
   97SOL    HW1  749   1.071   1.239   1.181
   97SOL    HW2  750   1.070   1.232   1.017
   98SOL     OW  751   1.638   1.099   1.079
   98SOL    HW1  752   1.643   1.180   1.138
   98SOL    HW2  753   1.552   1.101   1.028
   99SOL     OW  754   0.915   0.089   1.402
   99SOL    HW1  755   0.940   0.069   1.307
   99SOL    HW2  756   0.987   0.145   1.444
  100SOL     OW  757   0.980   1.116   1.719
  100SOL    HW1  758   0.881   1.122   1.729
  100SOL    HW2  759   1.003   1.036   1.663
  101SOL     OW  760   0.705   1.050   0.368
  101SOL    HW1  761   0.691   1.057   0.467
  101SOL    HW2  762   0.789   0.999   0.350
  102SOL     OW  763   0.410   0.813   1.251
  102SOL    HW1  764   0.496   0.825   1.301
  102SOL    HW2  765   0.368   0.726   1.278
  103SOL     OW  766   1.274   0.386   1.262
  103SOL    HW1  767   1.295   0.460   1.326
  103SOL    HW2  768   1.185   0.403   1.219
  104SOL     OW  769   0.064   1.564   1.331
  104SOL    HW1  770   0.018   1.646   1.297
  104SOL    HW2  771   0.162   1.583   1.340
  105SOL     OW  772   0.367   1.100   0.501
  105SOL    HW1  773   0.360   1.183   0.445
  105SOL    HW2  774   0.371   1.020   0.441
  106SOL     OW  775   0.566   0.537   0.865
  106SOL    HW1  776   0.578   0.603   0.791
  106SOL    HW2  777   0.612   0.571   0.948
  107SOL     OW  778   1.252   1.348   0.388
  107SOL    HW1  779   1.302   1.425   0.428
  107SOL    HW2  780   1.157   1.350   0.420
  108SOL     OW  781   1.272   1.445   1.142
  108SOL    HW1  782   1.319   1.458   1.229
  108SOL    HW2  783   1.206   1.371   1.151
  109SOL     OW  784   1.582   0.639   0.472
  109SOL    HW1  785   1.551   0.700   0.545
  109SOL    HW2  786   1.632   0.691   0.403
  110SOL     OW  787   0.354   1.510   1.329
  110SOL    HW1  788   0.333   1.466   1.242
  110SOL    HW2  789   0.451   1.536   1.332
  111SOL     OW  790   0.402   0.751   1.598
  111SOL    HW1  791   0.470   0.806   1.551
  111SOL    HW2  792   0.442   0.663   1.625
  112SOL     OW  793   1.587   0.779   1.670
  112SOL    HW1  794   1.495   0.817   1.665
  112SOL    HW2  795   1.647   0.826   1.605
  113SOL     OW  796   1.013   0.105   1.770
  113SOL    HW1  797   1.019   0.190   1.718
  113SOL    HW2  798   1.045   0.029   1.713
  114SOL     OW  799   0.504   0.050   1.740
  114SOL    HW1  800   0.462  -0.007   1.670
  114SOL    HW2  801   0.438   0.119   1.772
  115SOL     OW  802   0.573   0.870   1.029
  115SOL    HW1  803   0.617   0.959   1.020
  115SOL    HW2  804   0.510   0.870   1.106
  116SOL     OW  805   1.360   0.862   1.045
  116SOL    HW1  806   1.285   0.862   0.979
  116SOL    HW2  807   1.397   0.770   1.054
  117SOL     OW  808   1.209   0.525   0.275
  117SOL    HW1  809   1.222   0.441   0.329
  117SOL    HW2  810   1.180   0.599   0.335
  118SOL     OW  811   0.307   0.213   1.231
  118SOL    HW1  812   0.284   0.250   1.321
  118SOL    HW2  813   0.277   0.118   1.225
  119SOL     OW  814   0.037   1.310   1.282
  119SOL    HW1  815   0.090   1.261   1.350
  119SOL    HW2  816   0.059   1.408   1.287
  120SOL     OW  817   0.732   0.634   1.064
  120SOL    HW1  818   0.791   0.608   0.988
  120SOL    HW2  819   0.704   0.730   1.053
  121SOL     OW  820   1.728   0.935   1.854
  121SOL    HW1  821   1.682   0.928   1.765
  121SOL    HW2  822   1.666   0.979   1.920
  122SOL     OW  823   0.307   0.063   0.618
  122SOL    HW1  824   0.296   0.157   0.651
  122SOL    HW2  825   0.302   0.000   0.695
  123SOL     OW  826   1.622   0.367   0.374
  123SOL    HW1  827   1.624   0.291   0.438
  123SOL    HW2  828   1.574   0.444   0.414
  124SOL     OW  829   1.023   0.766   0.966
  124SOL    HW1  830   1.038   0.787   1.062
  124SOL    HW2  831   0.993   0.671   0.957
  125SOL     OW  832   0.980   1.573   1.700
  125SOL    HW1  833   0.960   1.617   1.612
  125SOL    HW2  834   1.019   1.482   1.684
  126SOL     OW  835   1.859   1.518   1.605
  126SOL    HW1  836   1.873   1.545   1.510
  126SOL    HW2  837   1.942   1.540   1.658
  127SOL     OW  838   0.350   0.898   1.804
  127SOL    HW1  839   0.426   0.942   1.852
  127SOL    HW2  840   0.385   0.851   1.722
  128SOL     OW  841   1.540   0.274   0.125
  128SOL    HW1  842   1.479   0.199   0.148
  128SOL    HW2  843   1.562   0.326   0.208
  129SOL     OW  844   1.303   0.838   0.042
  129SOL    HW1  845   1.337   0.745   0.057
  129SOL    HW2  846   1.321   0.865  -0.053
  130SOL     OW  847   1.068   1.333   0.849
  130SOL    HW1  848   1.075   1.249   0.794
  130SOL    HW2  849   1.130   1.402   0.813
  131SOL     OW  850   0.319   0.810   0.949
  131SOL    HW1  851   0.412   0.846   0.954
  131SOL    HW2  852   0.313   0.725   1.001
  132SOL     OW  853   0.339   0.509   1.006
  132SOL    HW1  854   0.287   0.426   0.989
  132SOL    HW2  855   0.416   0.514   0.942
  133SOL     OW  856   1.138   0.380   1.678
  133SOL    HW1  857   1.093   0.443   1.742
  133SOL    HW2  858   1.231   0.411   1.661
  134SOL     OW  859   1.160   0.207   1.477
  134SOL    HW1  860   1.160   0.271   1.554
  134SOL    HW2  861   1.188   0.255   1.394
  135SOL     OW  862   0.008   1.326   0.200
  135SOL    HW1  863  -0.085   1.347   0.169
  135SOL    HW2  864   0.018   1.227   0.213
  136SOL     OW  865   0.088   1.801   0.927
  136SOL    HW1  866   0.046   1.715   0.900
  136SOL    HW2  867   0.182   1.804   0.893
  137SOL     OW  868   0.504   1.568   0.910
  137SOL    HW1  869   0.570   1.642   0.919
  137SOL    HW2  870   0.548   1.489   0.868
  138SOL     OW  871   1.002   0.796   1.238
  138SOL    HW1  872   1.043   0.764   1.324
  138SOL    HW2  873   0.906   0.769   1.235
  139SOL     OW  874   0.040   0.544   1.114
  139SOL    HW1  875   0.125   0.511   1.073
  139SOL    HW2  876   0.053   0.559   1.212
  140SOL     OW  877   0.189   0.520   1.722
  140SOL    HW1  878   0.248   0.480   1.652
  140SOL    HW2  879   0.131   0.591   1.681
  141SOL     OW  880   1.369   0.950   1.660
  141SOL    HW1  881   1.408   1.039   1.680
  141SOL    HW2  882   1.379   0.930   1.563
  142SOL     OW  883   0.815   0.572   0.325
  142SOL    HW1  884   0.822   0.483   0.279
  142SOL    HW2  885   0.721   0.606   0.317
  143SOL     OW  886   1.657   0.604   1.206
  143SOL    HW1  887   1.619   0.535   1.268
  143SOL    HW2  888   1.739   0.568   1.162
  144SOL     OW  889   0.252   1.564   1.744
  144SOL    HW1  890   0.222   1.621   1.820
  144SOL    HW2  891   0.245   1.467   1.770
  145SOL     OW  892   0.671   0.464   1.269
  145SOL    HW1  893   0.637   0.375   1.239
  145SOL    HW2  894   0.697   0.518   1.189
  146SOL     OW  895   0.930   1.678   1.465
  146SOL    HW1  896   0.906   1.660   1.370
  146SOL    HW2  897   0.960   1.772   1.475
  147SOL     OW  898   0.473   0.500   0.191
  147SOL    HW1  899   0.534   0.580   0.195
  147SOL    HW2  900   0.378   0.531   0.198
  148SOL     OW  901   0.159   1.137   1.466
  148SOL    HW1  902   0.181   1.076   1.542
  148SOL    HW2  903   0.169   1.088   1.380
  149SOL     OW  904   1.347   1.059   1.234
  149SOL    HW1  905   1.371   0.996   1.160
  149SOL    HW2  906   1.257   1.099   1.216
  150SOL     OW  907   1.302   0.855   0.309
  150SOL    HW1  908   1.216   0.824   0.351
  150SOL    HW2  909   1.298   0.841   0.210
  151SOL     OW  910   1.759   1.747   1.154
  151SOL    HW1  911   1.820   1.777   1.081
  151SOL    HW2  912   1.721   1.658   1.132
  152SOL     OW  913   1.252   1.731   1.128
  152SOL    HW1  914   1.336   1.736   1.074
  152SOL    HW2  915   1.229   1.635   1.146
  153SOL     OW  916   0.083   1.258   1.022
  153SOL    HW1  917   0.078   1.257   1.122
  153SOL    HW2  918   0.000   1.217   0.984
  154SOL     OW  919   0.688   1.662   1.716
  154SOL    HW1  920   0.632   1.743   1.725
  154SOL    HW2  921   0.740   1.666   1.630
  155SOL     OW  922   0.903   0.086   0.133
  155SOL    HW1  923   0.954   0.087   0.047
  155SOL    HW2  924   0.959   0.044   0.204
  156SOL     OW  925   1.726   0.135   0.523
  156SOL    HW1  926   1.799   0.118   0.456
  156SOL    HW2  927   1.695   0.048   0.561
  157SOL     OW  928   1.388   1.573   0.477
  157SOL    HW1  929   1.455   1.585   0.403
  157SOL    HW2  930   1.348   1.662   0.500
  158SOL     OW  931   0.130   1.794   1.851
  158SOL    HW1  932   0.089   1.720   1.904
  158SOL    HW2  933   0.194   1.845   1.909
  159SOL     OW  934   1.280   0.927   0.672
  159SOL    HW1  935   1.340   0.846   0.674
  159SOL    HW2  936   1.320   0.996   0.612
  160SOL     OW  937   0.830   1.273   1.422
  160SOL    HW1  938   0.825   1.306   1.517
  160SOL    HW2  939   0.744   1.292   1.376
  161SOL     OW  940   0.672   1.616   0.154
  161SOL    HW1  941   0.681   1.626   0.055
  161SOL    HW2  942   0.632   1.527   0.175
  162SOL     OW  943   1.650   1.720   1.394
  162SOL    HW1  944   1.703   1.730   1.310
  162SOL    HW2  945   1.623   1.810   1.428
  163SOL     OW  946   1.841   0.175   0.963
  163SOL    HW1  947   1.880   0.090   0.927
  163SOL    HW2  948   1.743   0.177   0.944
  164SOL     OW  949   0.263   0.326   0.720
  164SOL    HW1  950   0.184   0.377   0.686
  164SOL    HW2  951   0.254   0.311   0.818
  165SOL     OW  952   1.194   1.612   0.031
  165SOL    HW1  953   1.200   1.519   0.068
  165SOL    HW2  954   1.135   1.612  -0.049
  166SOL     OW  955   0.822   1.002   1.372
  166SOL    HW1  956   0.862   1.001   1.280
  166SOL    HW2  957   0.832   1.094   1.412
  167SOL     OW  958   0.916   0.910   0.291
  167SOL    HW1  959   0.979   0.948   0.223
  167SOL    HW2  960   0.956   0.827   0.330
  168SOL     OW  961   1.504   1.607   0.044
  168SOL    HW1  962   1.412   1.644   0.051
  168SOL    HW2  963   1.542   1.627  -0.046
  169SOL     OW  964   0.372   1.288   1.490
  169SOL    HW1  965   0.359   1.381   1.456
  169SOL    HW2  966   0.288   1.236   1.477
  170SOL     OW  967   1.614   1.292   1.289
  170SOL    HW1  968   1.674   1.295   1.369
  170SOL    HW2  969   1.539   1.356   1.302
  171SOL     OW  970   1.039   1.098   0.696
  171SOL    HW1  971   0.969   1.051   0.750
  171SOL    HW2  972   1.098   1.030   0.653
  172SOL     OW  973   1.014   0.236   0.971
  172SOL    HW1  974   1.006   0.200   0.878
  172SOL    HW2  975   1.012   0.160   1.036
  173SOL     OW  976   0.590   1.487   0.491
  173SOL    HW1  977   0.632   1.429   0.421
  173SOL    HW2  978   0.546   1.566   0.447
  174SOL     OW  979   1.709   0.385   1.381
  174SOL    HW1  980   1.782   0.454   1.385
  174SOL    HW2  981   1.737   0.310   1.322
  175SOL     OW  982   0.255   1.348   0.290
  175SOL    HW1  983   0.159   1.349   0.263
  175SOL    HW2  984   0.267   1.401   0.374
  176SOL     OW  985   0.105   1.013   1.726
  176SOL    HW1  986   0.028   0.980   1.780
  176SOL    HW2  987   0.190   0.983   1.768
  177SOL     OW  988   0.672   0.203   1.489
  177SOL    HW1  989   0.762   0.187   1.449
  177SOL    HW2  990   0.680   0.208   1.588
  178SOL     OW  991   0.075   0.345   0.033
  178SOL    HW1  992  -0.017   0.317   0.004
  178SOL    HW2  993   0.106   0.422  -0.023
  179SOL     OW  994   1.440   0.856   1.398
  179SOL    HW1  995   1.383   0.908   1.335
  179SOL    HW2  996   1.536   0.868   1.374
  180SOL     OW  997   0.072   0.166   0.318
  180SOL    HW1  998   0.055   0.249   0.264
  180SOL    HW2  999   0.162   0.129   0.296
  181SOL     OW 1000   1.183   1.335   0.119
  181SOL    HW1 1001   1.084   1.324   0.121
  181SOL    HW2 1002   1.217   1.350   0.212
  182SOL     OW 1003   0.613   0.842   1.431
  182SOL    HW1 1004   0.669   0.923   1.414
  182SOL    HW2 1005   0.672   0.762   1.434
  183SOL     OW 1006   1.493   1.767   0.959
  183SOL    HW1 1007   1.526   1.831   0.890
  183SOL    HW2 1008   1.559   1.761   1.034
  184SOL     OW 1009   0.716   0.565   1.708
  184SOL    HW1 1010   0.735   0.630   1.782
  184SOL    HW2 1011   0.776   0.485   1.717
  185SOL     OW 1012   1.450   1.220   1.633
  185SOL    HW1 1013   1.441   1.210   1.732
  185SOL    HW2 1014   1.546   1.213   1.607
  186SOL     OW 1015   0.390   1.741   1.560
  186SOL    HW1 1016   0.299   1.782   1.558
  186SOL    HW2 1017   0.383   1.647   1.592
  187SOL     OW 1018   1.674   0.883   1.254
  187SOL    HW1 1019   1.647   0.794   1.217
  187SOL    HW2 1020   1.675   0.951   1.181
  188SOL     OW 1021   1.225   0.325   0.449
  188SOL    HW1 1022   1.290   0.251   0.438
  188SOL    HW2 1023   1.245   0.375   0.533
  189SOL     OW 1024   0.594   0.745   0.652
  189SOL    HW1 1025   0.644   0.830   0.633
  189SOL    HW2 1026   0.506   0.747   0.604
  190SOL     OW 1027   1.777   0.342   1.642
  190SOL    HW1 1028   1.760   0.373   1.548
  190SOL    HW2 1029   1.693   0.305   1.680
  191SOL     OW 1030   1.730   0.934   1.517
  191SOL    HW1 1031   1.768   1.025   1.532
  191SOL    HW2 1032   1.722   0.917   1.418
  192SOL     OW 1033   0.859   1.374   0.016
  192SOL    HW1 1034   0.813   1.389   0.104
  192SOL    HW2 1035   0.903   1.459  -0.014
  193SOL     OW 1036   0.661   1.790   0.953
  193SOL    HW1 1037   0.615   1.878   0.940
  193SOL    HW2 1038   0.760   1.802   0.946
  194SOL     OW 1039   0.859   0.956   0.861
  194SOL    HW1 1040   0.913   0.887   0.909
  194SOL    HW2 1041   0.827   1.025   0.927
  195SOL     OW 1042   1.083   0.984   0.087
  195SOL    HW1 1043   1.060   1.037   0.005
  195SOL    HW2 1044   1.164   0.928   0.068
  196SOL     OW 1045   1.861   1.569   0.851
  196SOL    HW1 1046   1.790   1.557   0.781
  196SOL    HW2 1047   1.862   1.490   0.911
  197SOL     OW 1048   0.221   1.314   1.844
  197SOL    HW1 1049   0.156   1.241   1.823
  197SOL    HW2 1050   0.225   1.328   1.942
  198SOL     OW 1051   0.079   1.240   0.653
  198SOL    HW1 1052   0.078   1.193   0.741
  198SOL    HW2 1053   0.161   1.212   0.602
  199SOL     OW 1054   0.672   1.391   1.624
  199SOL    HW1 1055   0.594   1.341   1.662
  199SOL    HW2 1056   0.669   1.486   1.655
  200SOL     OW 1057   1.824   0.192   1.227
  200SOL    HW1 1058   1.820   0.102   1.271
  200SOL    HW2 1059   1.827   0.181   1.128
  201SOL     OW 1060   0.428   0.424   0.520
  201SOL    HW1 1061   0.458   0.352   0.458
  201SOL    HW2 1062   0.389   0.384   0.603
  202SOL     OW 1063   1.705   1.487   1.104
  202SOL    HW1 1064   1.612   1.462   1.077
  202SOL    HW2 1065   1.731   1.437   1.186
  203SOL     OW 1066   0.317   0.547   1.280
  203SOL    HW1 1067   0.355   0.488   1.352
  203SOL    HW2 1068   0.357   0.521   1.192
  204SOL     OW 1069   0.812   1.586   0.687
  204SOL    HW1 1070   0.844   1.596   0.593
  204SOL    HW2 1071   0.733   1.524   0.689
  205SOL     OW 1072   1.424   0.214   1.112
  205SOL    HW1 1073   1.476   0.149   1.167
  205SOL    HW2 1074   1.375   0.277   1.173
  206SOL     OW 1075   1.001   0.034   1.154
  206SOL    HW1 1076   0.938  -0.038   1.123
  206SOL    HW2 1077   1.094  -0.002   1.154
  207SOL     OW 1078   0.770   1.330   0.301
  207SOL    HW1 1079   0.724   1.243   0.318
  207SOL    HW2 1080   0.861   1.327   0.342
  208SOL     OW 1081   0.618   1.567   1.284
  208SOL    HW1 1082   0.613   1.649   1.341
  208SOL    HW2 1083   0.707   1.564   1.239
  209SOL     OW 1084   1.352   0.052   0.168
  209SOL    HW1 1085   1.387   0.011   0.084
  209SOL    HW2 1086   1.262   0.014   0.188
  210SOL     OW 1087   1.300   0.453   0.691
  210SOL    HW1 1088   1.241   0.533   0.695
  210SOL    HW2 1089   1.315   0.418   0.784
  211SOL     OW 1090   1.593   0.221   0.882
  211SOL    HW1 1091   1.509   0.220   0.936
  211SOL    HW2 1092   1.595   0.304   0.826
  212SOL     OW 1093   0.039   1.077   0.300
  212SOL    HW1 1094   0.138   1.066   0.291
  212SOL    HW2 1095  -0.001   0.991   0.332
  213SOL     OW 1096   0.875   1.646   0.337
  213SOL    HW1 1097   0.798   1.611   0.283
  213SOL    HW2 1098   0.843   1.717   0.399
  214SOL     OW 1099   0.230   0.628   1.975
  214SOL    HW1 1100   0.137   0.626   2.012
  214SOL    HW2 1101   0.231   0.589   1.883
  215SOL     OW 1102   0.225   0.275   2.858
  215SOL    HW1 1103   0.260   0.258   2.950
  215SOL    HW2 1104   0.137   0.230   2.846
  216SOL     OW 1105   0.019   0.368   2.509
  216SOL    HW1 1106  -0.063   0.411   2.548
  216SOL    HW2 1107  -0.009   0.295   2.446
  217SOL     OW 1108   0.569   1.275   3.027
  217SOL    HW1 1109   0.476   1.268   2.990
  217SOL    HW2 1110   0.580   1.364   3.071
  218SOL     OW 1111   1.555   1.511   2.565
  218SOL    HW1 1112   1.498   1.495   2.646
  218SOL    HW2 1113   1.496   1.521   2.485
  219SOL     OW 1114   1.135   0.703   2.579
  219SOL    HW1 1115   1.192   0.781   2.554
  219SOL    HW2 1116   1.075   0.729   2.655
  220SOL     OW 1117   1.755   0.607   2.093
  220SOL    HW1 1118   1.743   0.594   1.994
  220SOL    HW2 1119   1.725   0.526   2.142
  221SOL     OW 1120   0.768   1.144   2.885
  221SOL    HW1 1121   0.690   1.161   2.945
  221SOL    HW2 1122   0.802   1.231   2.849
  222SOL     OW 1123   0.850   0.798   3.685
  222SOL    HW1 1124   0.846   0.874   3.750
  222SOL    HW2 1125   0.872   0.834   3.594
  223SOL     OW 1126   0.685   1.012   2.527
  223SOL    HW1 1127   0.754   0.996   2.597
  223SOL    HW2 1128   0.612   1.069   2.565
  224SOL     OW 1129   0.686   1.161   3.665
  224SOL    HW1 1130   0.746   1.240   3.679
  224SOL    HW2 1131   0.600   1.192   3.624
  225SOL     OW 1132   0.335   1.435   2.923
  225SOL    HW1 1133   0.257   1.404   2.870
  225SOL    HW2 1134   0.393   1.493   2.866
  226SOL     OW 1135   1.460   1.505   3.201
  226SOL    HW1 1136   1.484   1.599   3.227
  226SOL    HW2 1137   1.444   1.451   3.283
  227SOL     OW 1138   0.438   0.392   3.361
  227SOL    HW1 1139   0.520   0.336   3.370
  227SOL    HW2 1140   0.357   0.334   3.365
  228SOL     OW 1141   1.603   0.447   2.599
  228SOL    HW1 1142   1.529   0.493   2.549
  228SOL    HW2 1143   1.654   0.515   2.652
  229SOL     OW 1144   0.231   1.713   2.345
  229SOL    HW1 1145   0.265   1.790   2.399
  229SOL    HW2 1146   0.275   1.713   2.255
  230SOL     OW 1147   1.127   1.341   3.552
  230SOL    HW1 1148   1.174   1.341   3.640
  230SOL    HW2 1149   1.079   1.254   3.541
  231SOL     OW 1150   0.230   1.434   2.400
  231SOL    HW1 1151   0.204   1.530   2.400
  231SOL    HW2 1152   0.159   1.380   2.445
  232SOL     OW 1153   0.240   1.091   2.748
  232SOL    HW1 1154   0.254   1.007   2.800
  232SOL    HW2 1155   0.185   1.155   2.803
  233SOL     OW 1156   0.620   1.786   3.301
  233SOL    HW1 1157   0.528   1.769   3.336
  233SOL    HW2 1158   0.648   1.878   3.327
  234SOL     OW 1159   0.606   0.964   1.985
  234SOL    HW1 1160   0.613   1.048   1.931
  234SOL    HW2 1161   0.652   0.977   2.073
  235SOL     OW 1162   1.594   0.114   3.342
  235SOL    HW1 1163   1.576   0.181   3.270
  235SOL    HW2 1164   1.591   0.160   3.431
  236SOL     OW 1165   0.122   0.643   2.425
  236SOL    HW1 1166   0.077   0.555   2.442
  236SOL    HW2 1167   0.121   0.697   2.509
  237SOL     OW 1168   0.027   1.596   1.979
  237SOL    HW1 1169   0.008   1.500   2.000
  237SOL    HW2 1170  -0.006   1.654   2.054
  238SOL     OW 1171   1.689   0.922   2.474
  238SOL    HW1 1172   1.784   0.893   2.482
  238SOL    HW2 1173   1.681   0.987   2.399
  239SOL     OW 1174   1.641   1.108   2.294
  239SOL    HW1 1175   1.727   1.110   2.242
  239SOL    HW2 1176   1.655   1.155   2.382
  240SOL     OW 1177   0.113   0.737   3.459
  240SOL    HW1 1178   0.201   0.724   3.504
  240SOL    HW2 1179   0.100   0.834   3.437
  241SOL     OW 1180   0.613   1.365   2.588
  241SOL    HW1 1181   0.564   1.278   2.597
  241SOL    HW2 1182   0.590   1.408   2.501
  242SOL     OW 1183   1.293   1.228   3.285
  242SOL    HW1 1184   1.330   1.155   3.227
  242SOL    HW2 1185   1.345   1.233   3.370
  243SOL     OW 1186   0.809   0.004   2.364
  243SOL    HW1 1187   0.849   0.095   2.355
  243SOL    HW2 1188   0.709   0.012   2.370
  244SOL     OW 1189   0.197   0.976   3.126
  244SOL    HW1 1190   0.286   0.931   3.112
  244SOL    HW2 1191   0.124   0.911   3.107
  245SOL     OW 1192   1.525   0.999   2.052
  245SOL    HW1 1193   1.462   0.923   2.065
  245SOL    HW2 1194   1.573   1.017   2.138
  246SOL     OW 1195   1.187   1.792   3.478
  246SOL    HW1 1196   1.211   1.852   3.402
  246SOL    HW2 1197   1.194   1.697   3.448
  247SOL     OW 1198   0.317   0.251   3.663
  247SOL    HW1 1199   0.388   0.322   3.669
  247SOL    HW2 1200   0.229   0.290   3.691
  248SOL     OW 1201   1.466   1.417   2.815
  248SOL    HW1 1202   1.407   1.423   2.895
  248SOL    HW2 1203   1.451   1.329   2.769
  249SOL     OW 1204   1.667   1.714   2.434
  249SOL    HW1 1205   1.626   1.691   2.346
  249SOL    HW2 1206   1.649   1.640   2.499
  250SOL     OW 1207   0.598   0.729   2.132
  250SOL    HW1 1208   0.622   0.798   2.064
  250SOL    HW2 1209   0.520   0.762   2.186
  251SOL     OW 1210   1.281   0.345   2.806
  251SOL    HW1 1211   1.195   0.295   2.793
  251SOL    HW2 1212   1.343   0.291   2.862
  252SOL     OW 1213   1.576   1.662   2.169
  252SOL    HW1 1214   1.665   1.708   2.172
  252SOL    HW2 1215   1.555   1.638   2.074
  253SOL     OW 1216   0.807   0.605   3.327
  253SOL    HW1 1217   0.760   0.602   3.416
  253SOL    HW2 1218   0.756   0.550   3.261
  254SOL     OW 1219   1.394   0.469   3.536
  254SOL    HW1 1220   1.374   0.512   3.624
  254SOL    HW2 1221   1.472   0.407   3.545
  255SOL     OW 1222   0.973   0.890   3.434
  255SOL    HW1 1223   1.019   0.806   3.405
  255SOL    HW2 1224   0.917   0.924   3.359
  256SOL     OW 1225   0.991   0.410   3.104
  256SOL    HW1 1226   0.914   0.444   3.158
  256SOL    HW2 1227   0.957   0.359   3.025
  257SOL     OW 1228   1.041   0.701   2.291
  257SOL    HW1 1229   1.067   0.697   2.387
  257SOL    HW2 1230   0.956   0.650   2.277
  258SOL     OW 1231   0.076   0.811   2.651
  258SOL    HW1 1232   0.175   0.799   2.660
  258SOL    HW2 1233   0.052   0.906   2.672
  259SOL     OW 1234   0.130   1.821   3.433
  259SOL    HW1 1235   0.120   1.806   3.532
  259SOL    HW2 1236   0.044   1.857   3.397
  260SOL     OW 1237   0.865   0.348   2.057
  260SOL    HW1 1238   0.924   0.411   2.008
  260SOL    HW2 1239   0.884   0.254   2.028
  261SOL     OW 1240   1.719   0.585   3.693
  261SOL    HW1 1241   1.693   0.674   3.657
  261SOL    HW2 1242   1.717   0.517   3.620
  262SOL     OW 1243   1.362   1.144   2.407
  262SOL    HW1 1244   1.445   1.115   2.359
  262SOL    HW2 1245   1.313   1.211   2.351
  263SOL     OW 1246   0.550   0.196   2.747
  263SOL    HW1 1247   0.545   0.191   2.847
  263SOL    HW2 1248   0.552   0.292   2.718
  264SOL     OW 1249   1.008   1.456   2.339
  264SOL    HW1 1250   0.962   1.528   2.287
  264SOL    HW2 1251   1.004   1.476   2.437
  265SOL     OW 1252   0.351   1.801   2.715
  265SOL    HW1 1253   0.401   1.715   2.721
  265SOL    HW2 1254   0.416   1.878   2.712
  266SOL     OW 1255   1.795   1.066   2.735
  266SOL    HW1 1256   1.733   1.051   2.659
  266SOL    HW2 1257   1.743   1.077   2.820
  267SOL     OW 1258   1.227   1.550   3.368
  267SOL    HW1 1259   1.233   1.473   3.432
  267SOL    HW2 1260   1.175   1.524   3.288
  268SOL     OW 1261   0.321   0.943   2.104
  268SOL    HW1 1262   0.403   0.982   2.062
  268SOL    HW2 1263   0.294   0.861   2.055
  269SOL     OW 1264   1.458   0.735   2.590
  269SOL    HW1 1265   1.453   0.670   2.665
  269SOL    HW2 1266   1.538   0.794   2.603
  270SOL     OW 1267   0.461   1.266   3.589
  270SOL    HW1 1268   0.411   1.267   3.503
  270SOL    HW2 1269   0.398   1.248   3.665
  271SOL     OW 1270   1.111   1.776   2.099
  271SOL    HW1 1271   1.051   1.714   2.149
  271SOL    HW2 1272   1.142   1.732   2.014
  272SOL     OW 1273   0.202   0.285   3.360
  272SOL    HW1 1274   0.122   0.345   3.347
  272SOL    HW2 1275   0.192   0.236   3.446
  273SOL     OW 1276   1.632   1.377   1.943
  273SOL    HW1 1277   1.600   1.471   1.933
  273SOL    HW2 1278   1.556   1.314   1.931
  274SOL     OW 1279   0.464   1.743   2.185
  274SOL    HW1 1280   0.497   1.782   2.271
  274SOL    HW2 1281   0.540   1.736   2.120
  275SOL     OW 1282   1.400   0.107   2.288
  275SOL    HW1 1283   1.376   0.070   2.198
  275SOL    HW2 1284   1.499   0.123   2.292
  276SOL     OW 1285   0.249   1.785   3.103
  276SOL    HW1 1286   0.306   1.720   3.153
  276SOL    HW2 1287   0.233   1.752   3.010
  277SOL     OW 1288   0.940   1.698   2.766
  277SOL    HW1 1289   1.020   1.641   2.787
  277SOL    HW2 1290   0.891   1.658   2.689
  278SOL     OW 1291   0.382   0.700   2.342
  278SOL    HW1 1292   0.427   0.610   2.339
  278SOL    HW2 1293   0.288   0.689   2.375
  279SOL     OW 1294   1.547   0.222   3.591
  279SOL    HW1 1295   1.542   0.259   3.683
  279SOL    HW2 1296   1.475   0.153   3.579
  280SOL     OW 1297   0.614   0.122   1.979
  280SOL    HW1 1298   0.712   0.100   1.986
  280SOL    HW2 1299   0.583   0.105   1.886
  281SOL     OW 1300   0.781   0.264   3.611
  281SOL    HW1 1301   0.848   0.203   3.654
  281SOL    HW2 1302   0.708   0.283   3.676
  282SOL     OW 1303   0.888   1.514   3.057
  282SOL    HW1 1304   0.865   1.489   2.963
  282SOL    HW2 1305   0.949   1.445   3.096
  283SOL     OW 1306   1.351   0.590   3.295
  283SOL    HW1 1307   1.379   0.547   3.380
  283SOL    HW2 1308   1.376   0.686   3.296
  284SOL     OW 1309   0.803   1.402   2.786
  284SOL    HW1 1310   0.893   1.416   2.744
  284SOL    HW2 1311   0.732   1.404   2.715
  285SOL     OW 1312   0.922   0.503   2.761
  285SOL    HW1 1313   0.897   0.494   2.665
  285SOL    HW2 1314   0.970   0.421   2.792
  286SOL     OW 1315   0.539   0.064   2.374
  286SOL    HW1 1316   0.458   0.065   2.432
  286SOL    HW2 1317   0.542   0.147   2.319
  287SOL     OW 1318   1.434   1.188   1.903
  287SOL    HW1 1319   1.466   1.112   1.960
  287SOL    HW2 1320   1.342   1.215   1.933
  288SOL     OW 1321   0.297   0.035   2.033
  288SOL    HW1 1322   0.346   0.119   2.012
  288SOL    HW2 1323   0.359  -0.030   2.078
  289SOL     OW 1324   0.935   0.236   2.342
  289SOL    HW1 1325   0.887   0.277   2.264
  289SOL    HW2 1326   1.034   0.234   2.323
  290SOL     OW 1327   1.076   0.683   3.326
  290SOL    HW1 1328   0.996   0.622   3.329
  290SOL    HW2 1329   1.157   0.630   3.302
  291SOL     OW 1330   1.227   1.570   2.655
  291SOL    HW1 1331   1.248   1.644   2.590
  291SOL    HW2 1332   1.295   1.570   2.728
  292SOL     OW 1333   0.459   1.152   2.603
  292SOL    HW1 1334   0.388   1.125   2.668
  292SOL    HW2 1335   0.433   1.124   2.510
  293SOL     OW 1336   1.271   1.797   2.453
  293SOL    HW1 1337   1.315   1.861   2.389
  293SOL    HW2 1338   1.221   1.849   2.523
  294SOL     OW 1339   1.032   0.549   1.878
  294SOL    HW1 1340   0.991   0.631   1.839
  294SOL    HW2 1341   1.096   0.575   1.951
  295SOL     OW 1342   0.078   0.556   3.248
  295SOL    HW1 1343   0.170   0.555   3.207
  295SOL    HW2 1344   0.072   0.630   3.315
  296SOL     OW 1345   0.561   0.222   3.009
  296SOL    HW1 1346   0.599   0.138   3.046
  296SOL    HW2 1347   0.473   0.241   3.053
  297SOL     OW 1348   0.866   0.454   2.504
  297SOL    HW1 1349   0.834   0.526   2.442
  297SOL    HW2 1350   0.890   0.373   2.451
  298SOL     OW 1351   1.017   0.039   2.615
  298SOL    HW1 1352   0.945   0.044   2.546
  298SOL    HW2 1353   0.993  -0.030   2.684
  299SOL     OW 1354   1.429   1.173   2.729
  299SOL    HW1 1355   1.374   1.089   2.722
  299SOL    HW2 1356   1.455   1.202   2.637
  300SOL     OW 1357   1.466   0.590   2.854
  300SOL    HW1 1358   1.436   0.495   2.861
  300SOL    HW2 1359   1.539   0.606   2.920
  301SOL     OW 1360   1.857   0.833   2.239
  301SOL    HW1 1361   1.899   0.769   2.303
  301SOL    HW2 1362   1.819   0.782   2.161
  302SOL     OW 1363   0.488   1.385   2.036
  302SOL    HW1 1364   0.401   1.370   2.083
  302SOL    HW2 1365   0.471   1.411   1.941
  303SOL     OW 1366   1.664   1.280   2.519
  303SOL    HW1 1367   1.763   1.288   2.533
  303SOL    HW2 1368   1.619   1.364   2.550
  304SOL     OW 1369   1.390   0.575   1.940
  304SOL    HW1 1370   1.336   0.554   2.021
  304SOL    HW2 1371   1.481   0.534   1.949
  305SOL     OW 1372   0.527   0.256   2.190
  305SOL    HW1 1373   0.554   0.197   2.115
  305SOL    HW2 1374   0.527   0.351   2.159
  306SOL     OW 1375   1.754   1.223   3.450
  306SOL    HW1 1376   1.845   1.184   3.437
  306SOL    HW2 1377   1.762   1.319   3.474
  307SOL     OW 1378   1.064   1.347   3.202
  307SOL    HW1 1379   0.984   1.324   3.257
  307SOL    HW2 1380   1.147   1.321   3.251
  308SOL     OW 1381   1.592   1.629   3.487
  308SOL    HW1 1382   1.619   1.663   3.397
  308SOL    HW2 1383   1.671   1.591   3.533
  309SOL     OW 1384   1.111   1.195   2.962
  309SOL    HW1 1385   1.071   1.239   3.043
  309SOL    HW2 1386   1.070   1.232   2.879
  310SOL     OW 1387   1.638   1.099   2.941
  310SOL    HW1 1388   1.643   1.180   3.000
  310SOL    HW2 1389   1.552   1.101   2.890
  311SOL     OW 1390   0.915   0.089   3.264
  311SOL    HW1 1391   0.940   0.069   3.169
  311SOL    HW2 1392   0.987   0.145   3.306
  312SOL     OW 1393   0.980   1.116   3.581
  312SOL    HW1 1394   0.881   1.122   3.591
  312SOL    HW2 1395   1.003   1.036   3.525
  313SOL     OW 1396   0.705   1.050   2.230
  313SOL    HW1 1397   0.691   1.057   2.329
  313SOL    HW2 1398   0.789   0.999   2.212
  314SOL     OW 1399   0.410   0.813   3.113
  314SOL    HW1 1400   0.496   0.825   3.163
  314SOL    HW2 1401   0.368   0.726   3.140
  315SOL     OW 1402   1.274   0.386   3.124
  315SOL    HW1 1403   1.295   0.460   3.188
  315SOL    HW2 1404   1.185   0.403   3.081
  316SOL     OW 1405   0.064   1.564   3.193
  316SOL    HW1 1406   0.018   1.646   3.159
  316SOL    HW2 1407   0.162   1.583   3.202
  317SOL     OW 1408   0.367   1.100   2.363
  317SOL    HW1 1409   0.360   1.183   2.307
  317SOL    HW2 1410   0.371   1.020   2.303
  318SOL     OW 1411   0.566   0.537   2.727
  318SOL    HW1 1412   0.578   0.603   2.653
  318SOL    HW2 1413   0.612   0.571   2.810
  319SOL     OW 1414   1.252   1.348   2.250
  319SOL    HW1 1415   1.302   1.425   2.290
  319SOL    HW2 1416   1.157   1.350   2.282
  320SOL     OW 1417   1.272   1.445   3.004
  320SOL    HW1 1418   1.319   1.458   3.091
  320SOL    HW2 1419   1.206   1.371   3.013
  321SOL     OW 1420   1.582   0.639   2.334
  321SOL    HW1 1421   1.551   0.700   2.407
  321SOL    HW2 1422   1.632   0.691   2.265
  322SOL     OW 1423   0.354   1.510   3.191
  322SOL    HW1 1424   0.333   1.466   3.104
  322SOL    HW2 1425   0.451   1.536   3.194
  323SOL     OW 1426   0.402   0.751   3.460
  323SOL    HW1 1427   0.470   0.806   3.413
  323SOL    HW2 1428   0.442   0.663   3.487
  324SOL     OW 1429   1.587   0.779   3.532
  324SOL    HW1 1430   1.495   0.817   3.527
  324SOL    HW2 1431   1.647   0.826   3.467
  325SOL     OW 1432   1.013   0.105   3.632
  325SOL    HW1 1433   1.019   0.190   3.580
  325SOL    HW2 1434   1.045   0.029   3.575
  326SOL     OW 1435   0.504   0.050   3.602
  326SOL    HW1 1436   0.462  -0.007   3.532
  326SOL    HW2 1437   0.438   0.119   3.634
  327SOL     OW 1438   0.573   0.870   2.891
  327SOL    HW1 1439   0.617   0.959   2.882
  327SOL    HW2 1440   0.510   0.870   2.968
  328SOL     OW 1441   1.360   0.862   2.907
  328SOL    HW1 1442   1.285   0.862   2.841
  328SOL    HW2 1443   1.397   0.770   2.916
  329SOL     OW 1444   1.209   0.525   2.137
  329SOL    HW1 1445   1.222   0.441   2.191
  329SOL    HW2 1446   1.180   0.599   2.197
  330SOL     OW 1447   0.307   0.213   3.093
  330SOL    HW1 1448   0.284   0.250   3.183
  330SOL    HW2 1449   0.277   0.118   3.087
  331SOL     OW 1450   0.037   1.310   3.144
  331SOL    HW1 1451   0.090   1.261   3.212
  331SOL    HW2 1452   0.059   1.408   3.149
  332SOL     OW 1453   0.732   0.634   2.926
  332SOL    HW1 1454   0.791   0.608   2.850
  332SOL    HW2 1455   0.704   0.730   2.915
  333SOL     OW 1456   1.728   0.935   3.716
  333SOL    HW1 1457   1.682   0.928   3.627
  333SOL    HW2 1458   1.666   0.979   3.782
  334SOL     OW 1459   0.307   0.063   2.480
  334SOL    HW1 1460   0.296   0.157   2.513
  334SOL    HW2 1461   0.302   0.000   2.557
  335SOL     OW 1462   1.622   0.367   2.236
  335SOL    HW1 1463   1.624   0.291   2.300
  335SOL    HW2 1464   1.574   0.444   2.276
  336SOL     OW 1465   1.023   0.766   2.828
  336SOL    HW1 1466   1.038   0.787   2.924
  336SOL    HW2 1467   0.993   0.671   2.819
  337SOL     OW 1468   0.980   1.573   3.562
  337SOL    HW1 1469   0.960   1.617   3.474
  337SOL    HW2 1470   1.019   1.482   3.546
  338SOL     OW 1471   1.859   1.518   3.467
  338SOL    HW1 1472   1.873   1.545   3.372
  338SOL    HW2 1473   1.942   1.540   3.520
  339SOL     OW 1474   0.350   0.898   3.666
  339SOL    HW1 1475   0.426   0.942   3.714
  339SOL    HW2 1476   0.385   0.851   3.584
  340SOL     OW 1477   1.540   0.274   1.987
  340SOL    HW1 1478   1.479   0.199   2.010
  340SOL    HW2 1479   1.562   0.326   2.070
  341SOL     OW 1480   1.303   0.838   1.904
  341SOL    HW1 1481   1.337   0.745   1.919
  341SOL    HW2 1482   1.321   0.865   1.809
  342SOL     OW 1483   1.068   1.333   2.711
  342SOL    HW1 1484   1.075   1.249   2.656
  342SOL    HW2 1485   1.130   1.402   2.675
  343SOL     OW 1486   0.319   0.810   2.811
  343SOL    HW1 1487   0.412   0.846   2.816
  343SOL    HW2 1488   0.313   0.725   2.863
  344SOL     OW 1489   0.339   0.509   2.868
  344SOL    HW1 1490   0.287   0.426   2.851
  344SOL    HW2 1491   0.416   0.514   2.804
  345SOL     OW 1492   1.138   0.380   3.540
  345SOL    HW1 1493   1.093   0.443   3.604
  345SOL    HW2 1494   1.231   0.411   3.523
  346SOL     OW 1495   1.160   0.207   3.339
  346SOL    HW1 1496   1.160   0.271   3.416
  346SOL    HW2 1497   1.188   0.255   3.256
  347SOL     OW 1498   0.008   1.326   2.062
  347SOL    HW1 1499  -0.085   1.347   2.031
  347SOL    HW2 1500   0.018   1.227   2.075
  348SOL     OW 1501   0.088   1.801   2.789
  348SOL    HW1 1502   0.046   1.715   2.762
  348SOL    HW2 1503   0.182   1.804   2.755
  349SOL     OW 1504   0.504   1.568   2.772
  349SOL    HW1 1505   0.570   1.642   2.781
  349SOL    HW2 1506   0.548   1.489   2.730
  350SOL     OW 1507   1.002   0.796   3.100
  350SOL    HW1 1508   1.043   0.764   3.186
  350SOL    HW2 1509   0.906   0.769   3.097
  351SOL     OW 1510   0.040   0.544   2.976
  351SOL    HW1 1511   0.125   0.511   2.935
  351SOL    HW2 1512   0.053   0.559   3.074
  352SOL     OW 1513   0.189   0.520   3.584
  352SOL    HW1 1514   0.248   0.480   3.514
  352SOL    HW2 1515   0.131   0.591   3.543
  353SOL     OW 1516   1.369   0.950   3.522
  353SOL    HW1 1517   1.408   1.039   3.542
  353SOL    HW2 1518   1.379   0.930   3.425
  354SOL     OW 1519   0.815   0.572   2.187
  354SOL    HW1 1520   0.822   0.483   2.141
  354SOL    HW2 1521   0.721   0.606   2.179
  355SOL     OW 1522   1.657   0.604   3.068
  355SOL    HW1 1523   1.619   0.535   3.130
  355SOL    HW2 1524   1.739   0.568   3.024
  356SOL     OW 1525   0.252   1.564   3.606
  356SOL    HW1 1526   0.222   1.621   3.682
  356SOL    HW2 1527   0.245   1.467   3.632
  357SOL     OW 1528   0.671   0.464   3.131
  357SOL    HW1 1529   0.637   0.375   3.101
  357SOL    HW2 1530   0.697   0.518   3.051
  358SOL     OW 1531   0.930   1.678   3.327
  358SOL    HW1 1532   0.906   1.660   3.232
  358SOL    HW2 1533   0.960   1.772   3.337
  359SOL     OW 1534   0.473   0.500   2.053
  359SOL    HW1 1535   0.534   0.580   2.057
  359SOL    HW2 1536   0.378   0.531   2.060
  360SOL     OW 1537   0.159   1.137   3.328
  360SOL    HW1 1538   0.181   1.076   3.404
  360SOL    HW2 1539   0.169   1.088   3.242
  361SOL     OW 1540   1.347   1.059   3.096
  361SOL    HW1 1541   1.371   0.996   3.022
  361SOL    HW2 1542   1.257   1.099   3.078
  362SOL     OW 1543   1.302   0.855   2.171
  362SOL    HW1 1544   1.216   0.824   2.213
  362SOL    HW2 1545   1.298   0.841   2.072
  363SOL     OW 1546   1.759   1.747   3.016
  363SOL    HW1 1547   1.820   1.777   2.943
  363SOL    HW2 1548   1.721   1.658   2.994
  364SOL     OW 1549   1.252   1.731   2.990
  364SOL    HW1 1550   1.336   1.736   2.936
  364SOL    HW2 1551   1.229   1.635   3.008
  365SOL     OW 1552   0.083   1.258   2.884
  365SOL    HW1 1553   0.078   1.257   2.984
  365SOL    HW2 1554   0.000   1.217   2.846
  366SOL     OW 1555   0.688   1.662   3.578
  366SOL    HW1 1556   0.632   1.743   3.587
  366SOL    HW2 1557   0.740   1.666   3.492
  367SOL     OW 1558   1.726   0.135   2.385
  367SOL    HW1 1559   1.799   0.118   2.318
  367SOL    HW2 1560   1.695   0.048   2.423
  368SOL     OW 1561   1.388   1.573   2.339
  368SOL    HW1 1562   1.455   1.585   2.265
  368SOL    HW2 1563   1.348   1.662   2.362
  369SOL     OW 1564   0.130   1.794   3.713
  369SOL    HW1 1565   0.089   1.720   3.766
  369SOL    HW2 1566   0.194   1.845   3.771
  370SOL     OW 1567   1.280   0.927   2.534
  370SOL    HW1 1568   1.340   0.846   2.536
  370SOL    HW2 1569   1.320   0.996   2.474
  371SOL     OW 1570   0.830   1.273   3.284
  371SOL    HW1 1571   0.825   1.306   3.379
  371SOL    HW2 1572   0.744   1.292   3.238
  372SOL     OW 1573   0.672   1.616   2.016
  372SOL    HW1 1574   0.681   1.626   1.917
  372SOL    HW2 1575   0.632   1.527   2.037
  373SOL     OW 1576   1.650   1.720   3.256
  373SOL    HW1 1577   1.703   1.730   3.172
  373SOL    HW2 1578   1.623   1.810   3.290
  374SOL     OW 1579   1.841   0.175   2.825
  374SOL    HW1 1580   1.880   0.090   2.789
  374SOL    HW2 1581   1.743   0.177   2.806
  375SOL     OW 1582   0.263   0.326   2.582
  375SOL    HW1 1583   0.184   0.377   2.548
  375SOL    HW2 1584   0.254   0.311   2.680
  376SOL     OW 1585   1.194   1.612   1.893
  376SOL    HW1 1586   1.200   1.519   1.930
  376SOL    HW2 1587   1.135   1.612   1.813
  377SOL     OW 1588   0.822   1.002   3.234
  377SOL    HW1 1589   0.862   1.001   3.142
  377SOL    HW2 1590   0.832   1.094   3.274
  378SOL     OW 1591   0.916   0.910   2.153
  378SOL    HW1 1592   0.979   0.948   2.085
  378SOL    HW2 1593   0.956   0.827   2.192
  379SOL     OW 1594   1.504   1.607   1.906
  379SOL    HW1 1595   1.412   1.644   1.913
  379SOL    HW2 1596   1.542   1.627   1.816
  380SOL     OW 1597   0.372   1.288   3.352
  380SOL    HW1 1598   0.359   1.381   3.318
  380SOL    HW2 1599   0.288   1.236   3.339
  381SOL     OW 1600   1.614   1.292   3.151
  381SOL    HW1 1601   1.674   1.295   3.231
  381SOL    HW2 1602   1.539   1.356   3.164
  382SOL     OW 1603   1.039   1.098   2.558
  382SOL    HW1 1604   0.969   1.051   2.612
  382SOL    HW2 1605   1.098   1.030   2.515
  383SOL     OW 1606   1.014   0.236   2.833
  383SOL    HW1 1607   1.006   0.200   2.740
  383SOL    HW2 1608   1.012   0.160   2.898
  384SOL     OW 1609   0.590   1.487   2.353
  384SOL    HW1 1610   0.632   1.429   2.283
  384SOL    HW2 1611   0.546   1.566   2.309
  385SOL     OW 1612   1.709   0.385   3.243
  385SOL    HW1 1613   1.782   0.454   3.247
  385SOL    HW2 1614   1.737   0.310   3.184
  386SOL     OW 1615   0.255   1.348   2.152
  386SOL    HW1 1616   0.159   1.349   2.125
  386SOL    HW2 1617   0.267   1.401   2.236
  387SOL     OW 1618   0.105   1.013   3.588
  387SOL    HW1 1619   0.028   0.980   3.642
  387SOL    HW2 1620   0.190   0.983   3.630
  388SOL     OW 1621   0.672   0.203   3.351
  388SOL    HW1 1622   0.762   0.187   3.311
  388SOL    HW2 1623   0.680   0.208   3.450
  389SOL     OW 1624   0.075   0.345   1.895
  389SOL    HW1 1625  -0.017   0.317   1.866
  389SOL    HW2 1626   0.106   0.422   1.839
  390SOL     OW 1627   1.440   0.856   3.260
  390SOL    HW1 1628   1.383   0.908   3.197
  390SOL    HW2 1629   1.536   0.868   3.236
  391SOL     OW 1630   0.072   0.166   2.180
  391SOL    HW1 1631   0.055   0.249   2.126
  391SOL    HW2 1632   0.162   0.129   2.158
  392SOL     OW 1633   1.183   1.335   1.981
  392SOL    HW1 1634   1.084   1.324   1.983
  392SOL    HW2 1635   1.217   1.350   2.074
  393SOL     OW 1636   0.613   0.842   3.293
  393SOL    HW1 1637   0.669   0.923   3.276
  393SOL    HW2 1638   0.672   0.762   3.296
  394SOL     OW 1639   1.493   1.767   2.821
  394SOL    HW1 1640   1.526   1.831   2.752
  394SOL    HW2 1641   1.559   1.761   2.896
  395SOL     OW 1642   0.716   0.565   3.570
  395SOL    HW1 1643   0.735   0.630   3.644
  395SOL    HW2 1644   0.776   0.485   3.579
  396SOL     OW 1645   1.450   1.220   3.495
  396SOL    HW1 1646   1.441   1.210   3.594
  396SOL    HW2 1647   1.546   1.213   3.469
  397SOL     OW 1648   0.390   1.741   3.422
  397SOL    HW1 1649   0.299   1.782   3.420
  397SOL    HW2 1650   0.383   1.647   3.454
  398SOL     OW 1651   1.674   0.883   3.116
  398SOL    HW1 1652   1.647   0.794   3.079
  398SOL    HW2 1653   1.675   0.951   3.043
  399SOL     OW 1654   1.225   0.325   2.311
  399SOL    HW1 1655   1.290   0.251   2.300
  399SOL    HW2 1656   1.245   0.375   2.395
  400SOL     OW 1657   0.594   0.745   2.514
  400SOL    HW1 1658   0.644   0.830   2.495
  400SOL    HW2 1659   0.506   0.747   2.466
  401SOL     OW 1660   1.777   0.342   3.504
  401SOL    HW1 1661   1.760   0.373   3.410
  401SOL    HW2 1662   1.693   0.305   3.542
  402SOL     OW 1663   1.730   0.934   3.379
  402SOL    HW1 1664   1.768   1.025   3.394
  402SOL    HW2 1665   1.722   0.917   3.280
  403SOL     OW 1666   0.859   1.374   1.878
  403SOL    HW1 1667   0.813   1.389   1.966
  403SOL    HW2 1668   0.903   1.459   1.848
  404SOL     OW 1669   0.661   1.790   2.815
  404SOL    HW1 1670   0.615   1.878   2.802
  404SOL    HW2 1671   0.760   1.802   2.808
  405SOL     OW 1672   0.859   0.956   2.723
  405SOL    HW1 1673   0.913   0.887   2.771
  405SOL    HW2 1674   0.827   1.025   2.789
  406SOL     OW 1675   1.083   0.984   1.949
  406SOL    HW1 1676   1.060   1.037   1.867
  406SOL    HW2 1677   1.164   0.928   1.930
  407SOL     OW 1678   1.861   1.569   2.713
  407SOL    HW1 1679   1.790   1.557   2.643
  407SOL    HW2 1680   1.862   1.490   2.773
  408SOL     OW 1681   0.221   1.314   3.706
  408SOL    HW1 1682   0.156   1.241   3.685
  408SOL    HW2 1683   0.225   1.328   3.804
  409SOL     OW 1684   0.079   1.240   2.515
  409SOL    HW1 1685   0.078   1.193   2.603
  409SOL    HW2 1686   0.161   1.212   2.464
  410SOL     OW 1687   0.672   1.391   3.486
  410SOL    HW1 1688   0.594   1.341   3.524
  410SOL    HW2 1689   0.669   1.486   3.517
  411SOL     OW 1690   1.824   0.192   3.089
  411SOL    HW1 1691   1.820   0.102   3.133
  411SOL    HW2 1692   1.827   0.181   2.990
  412SOL     OW 1693   0.428   0.424   2.382
  412SOL    HW1 1694   0.458   0.352   2.320
  412SOL    HW2 1695   0.389   0.384   2.465
  413SOL     OW 1696   1.705   1.487   2.966
  413SOL    HW1 1697   1.612   1.462   2.939
  413SOL    HW2 1698   1.731   1.437   3.048
  414SOL     OW 1699   0.317   0.547   3.142
  414SOL    HW1 1700   0.355   0.488   3.214
  414SOL    HW2 1701   0.357   0.521   3.054
  415SOL     OW 1702   0.812   1.586   2.549
  415SOL    HW1 1703   0.844   1.596   2.455
  415SOL    HW2 1704   0.733   1.524   2.551
  416SOL     OW 1705   1.424   0.214   2.974
  416SOL    HW1 1706   1.476   0.149   3.029
  416SOL    HW2 1707   1.375   0.277   3.035
  417SOL     OW 1708   1.001   0.034   3.016
  417SOL    HW1 1709   0.938  -0.038   2.985
  417SOL    HW2 1710   1.094  -0.002   3.016
  418SOL     OW 1711   0.770   1.330   2.163
  418SOL    HW1 1712   0.724   1.243   2.180
  418SOL    HW2 1713   0.861   1.327   2.204
  419SOL     OW 1714   0.618   1.567   3.146
  419SOL    HW1 1715   0.613   1.649   3.203
  419SOL    HW2 1716   0.707   1.564   3.101
  420SOL     OW 1717   1.352   0.052   2.030
  420SOL    HW1 1718   1.387   0.011   1.946
  420SOL    HW2 1719   1.262   0.014   2.050
  421SOL     OW 1720   1.300   0.453   2.553
  421SOL    HW1 1721   1.241   0.533   2.557
  421SOL    HW2 1722   1.315   0.418   2.646
  422SOL     OW 1723   1.593   0.221   2.744
  422SOL    HW1 1724   1.509   0.220   2.798
  422SOL    HW2 1725   1.595   0.304   2.688
  423SOL     OW 1726   0.039   1.077   2.162
  423SOL    HW1 1727   0.138   1.066   2.153
  423SOL    HW2 1728  -0.001   0.991   2.194
  424SOL     OW 1729   0.875   1.646   2.199
  424SOL    HW1 1730   0.798   1.611   2.145
  424SOL    HW2 1731   0.843   1.717   2.261
  425SOL     OW 1732   0.230   0.628   3.837
  425SOL    HW1 1733   0.137   0.626   3.874
  425SOL    HW2 1734   0.231   0.589   3.745
  426SOL     OW 1735   0.225   0.275   4.720
  426SOL    HW1 1736   0.260   0.258   4.812
  426SOL    HW2 1737   0.137   0.230   4.708
  427SOL     OW 1738   0.019   0.368   4.371
  427SOL    HW1 1739  -0.063   0.411   4.410
  427SOL    HW2 1740  -0.009   0.295   4.308
  428SOL     OW 1741   0.569   1.275   4.889
  428SOL    HW1 1742   0.476   1.268   4.852
  428SOL    HW2 1743   0.580   1.364   4.933
  429SOL     OW 1744   1.555   1.511   4.427
  429SOL    HW1 1745   1.498   1.495   4.508
  429SOL    HW2 1746   1.496   1.521   4.347
  430SOL     OW 1747   1.135   0.703   4.441
  430SOL    HW1 1748   1.192   0.781   4.416
  430SOL    HW2 1749   1.075   0.729   4.517
  431SOL     OW 1750   1.755   0.607   3.955
  431SOL    HW1 1751   1.743   0.594   3.856
  431SOL    HW2 1752   1.725   0.526   4.004
  432SOL     OW 1753   0.768   1.144   4.747
  432SOL    HW1 1754   0.690   1.161   4.807
  432SOL    HW2 1755   0.802   1.231   4.711
  433SOL     OW 1756   0.850   0.798   5.547
  433SOL    HW1 1757   0.846   0.874   5.612
  433SOL    HW2 1758   0.872   0.834   5.456
  434SOL     OW 1759   0.685   1.012   4.389
  434SOL    HW1 1760   0.754   0.996   4.459
  434SOL    HW2 1761   0.612   1.069   4.427
  435SOL     OW 1762   0.686   1.161   5.527
  435SOL    HW1 1763   0.746   1.240   5.541
  435SOL    HW2 1764   0.600   1.192   5.486
  436SOL     OW 1765   0.335   1.435   4.785
  436SOL    HW1 1766   0.257   1.404   4.732
  436SOL    HW2 1767   0.393   1.493   4.728
  437SOL     OW 1768   1.460   1.505   5.063
  437SOL    HW1 1769   1.484   1.599   5.089
  437SOL    HW2 1770   1.444   1.451   5.145
  438SOL     OW 1771   0.438   0.392   5.223
  438SOL    HW1 1772   0.520   0.336   5.232
  438SOL    HW2 1773   0.357   0.334   5.227
  439SOL     OW 1774   1.603   0.447   4.461
  439SOL    HW1 1775   1.529   0.493   4.411
  439SOL    HW2 1776   1.654   0.515   4.514
  440SOL     OW 1777   0.231   1.713   4.207
  440SOL    HW1 1778   0.265   1.790   4.261
  440SOL    HW2 1779   0.275   1.713   4.117
  441SOL     OW 1780   1.127   1.341   5.414
  441SOL    HW1 1781   1.174   1.341   5.502
  441SOL    HW2 1782   1.079   1.254   5.403
  442SOL     OW 1783   0.230   1.434   4.262
  442SOL    HW1 1784   0.204   1.530   4.262
  442SOL    HW2 1785   0.159   1.380   4.307
  443SOL     OW 1786   0.240   1.091   4.610
  443SOL    HW1 1787   0.254   1.007   4.662
  443SOL    HW2 1788   0.185   1.155   4.665
  444SOL     OW 1789   0.620   1.786   5.163
  444SOL    HW1 1790   0.528   1.769   5.198
  444SOL    HW2 1791   0.648   1.878   5.189
  445SOL     OW 1792   0.606   0.964   3.847
  445SOL    HW1 1793   0.613   1.048   3.793
  445SOL    HW2 1794   0.652   0.977   3.935
  446SOL     OW 1795   1.594   0.114   5.204
  446SOL    HW1 1796   1.576   0.181   5.132
  446SOL    HW2 1797   1.591   0.160   5.293
  447SOL     OW 1798   0.122   0.643   4.287
  447SOL    HW1 1799   0.077   0.555   4.304
  447SOL    HW2 1800   0.121   0.697   4.371
  448SOL     OW 1801   0.027   1.596   3.841
  448SOL    HW1 1802   0.008   1.500   3.862
  448SOL    HW2 1803  -0.006   1.654   3.916
  449SOL     OW 1804   1.689   0.922   4.336
  449SOL    HW1 1805   1.784   0.893   4.344
  449SOL    HW2 1806   1.681   0.987   4.261
  450SOL     OW 1807   1.641   1.108   4.156
  450SOL    HW1 1808   1.727   1.110   4.104
  450SOL    HW2 1809   1.655   1.155   4.244
  451SOL     OW 1810   0.113   0.737   5.321
  451SOL    HW1 1811   0.201   0.724   5.366
  451SOL    HW2 1812   0.100   0.834   5.299
  452SOL     OW 1813   0.613   1.365   4.450
  452SOL    HW1 1814   0.564   1.278   4.459
  452SOL    HW2 1815   0.590   1.408   4.363
  453SOL     OW 1816   1.293   1.228   5.147
  453SOL    HW1 1817   1.330   1.155   5.089
  453SOL    HW2 1818   1.345   1.233   5.232
  454SOL     OW 1819   0.809   0.004   4.226
  454SOL    HW1 1820   0.849   0.095   4.217
  454SOL    HW2 1821   0.709   0.012   4.232
  455SOL     OW 1822   0.197   0.976   4.988
  455SOL    HW1 1823   0.286   0.931   4.974
  455SOL    HW2 1824   0.124   0.911   4.969
  456SOL     OW 1825   1.525   0.999   3.914
  456SOL    HW1 1826   1.462   0.923   3.927
  456SOL    HW2 1827   1.573   1.017   4.000
  457SOL     OW 1828   1.187   1.792   5.340
  457SOL    HW1 1829   1.211   1.852   5.264
  457SOL    HW2 1830   1.194   1.697   5.310
  458SOL     OW 1831   0.317   0.251   5.525
  458SOL    HW1 1832   0.388   0.322   5.531
  458SOL    HW2 1833   0.229   0.290   5.553
  459SOL     OW 1834   1.466   1.417   4.677
  459SOL    HW1 1835   1.407   1.423   4.757
  459SOL    HW2 1836   1.451   1.329   4.631
  460SOL     OW 1837   1.667   1.714   4.296
  460SOL    HW1 1838   1.626   1.691   4.208
  460SOL    HW2 1839   1.649   1.640   4.361
  461SOL     OW 1840   0.598   0.729   3.994
  461SOL    HW1 1841   0.622   0.798   3.926
  461SOL    HW2 1842   0.520   0.762   4.048
  462SOL     OW 1843   1.281   0.345   4.668
  462SOL    HW1 1844   1.195   0.295   4.655
  462SOL    HW2 1845   1.343   0.291   4.724
  463SOL     OW 1846   1.576   1.662   4.031
  463SOL    HW1 1847   1.665   1.708   4.034
  463SOL    HW2 1848   1.555   1.638   3.936
  464SOL     OW 1849   0.807   0.605   5.189
  464SOL    HW1 1850   0.760   0.602   5.278
  464SOL    HW2 1851   0.756   0.550   5.123
  465SOL     OW 1852   1.394   0.469   5.398
  465SOL    HW1 1853   1.374   0.512   5.486
  465SOL    HW2 1854   1.472   0.407   5.407
  466SOL     OW 1855   0.973   0.890   5.296
  466SOL    HW1 1856   1.019   0.806   5.267
  466SOL    HW2 1857   0.917   0.924   5.221
  467SOL     OW 1858   0.991   0.410   4.966
  467SOL    HW1 1859   0.914   0.444   5.020
  467SOL    HW2 1860   0.957   0.359   4.887
  468SOL     OW 1861   1.041   0.701   4.153
  468SOL    HW1 1862   1.067   0.697   4.249
  468SOL    HW2 1863   0.956   0.650   4.139
  469SOL     OW 1864   0.076   0.811   4.513
  469SOL    HW1 1865   0.175   0.799   4.522
  469SOL    HW2 1866   0.052   0.906   4.534
  470SOL     OW 1867   0.130   1.821   5.295
  470SOL    HW1 1868   0.120   1.806   5.394
  470SOL    HW2 1869   0.044   1.857   5.259
  471SOL     OW 1870   0.865   0.348   3.919
  471SOL    HW1 1871   0.924   0.411   3.870
  471SOL    HW2 1872   0.884   0.254   3.890
  472SOL     OW 1873   1.719   0.585   5.555
  472SOL    HW1 1874   1.693   0.674   5.519
  472SOL    HW2 1875   1.717   0.517   5.482
  473SOL     OW 1876   1.362   1.144   4.269
  473SOL    HW1 1877   1.445   1.115   4.221
  473SOL    HW2 1878   1.313   1.211   4.213
  474SOL     OW 1879   0.550   0.196   4.609
  474SOL    HW1 1880   0.545   0.191   4.709
  474SOL    HW2 1881   0.552   0.292   4.580
  475SOL     OW 1882   1.008   1.456   4.201
  475SOL    HW1 1883   0.962   1.528   4.149
  475SOL    HW2 1884   1.004   1.476   4.299
  476SOL     OW 1885   0.351   1.801   4.577
  476SOL    HW1 1886   0.401   1.715   4.583
  476SOL    HW2 1887   0.416   1.878   4.574
  477SOL     OW 1888   1.795   1.066   4.597
  477SOL    HW1 1889   1.733   1.051   4.521
  477SOL    HW2 1890   1.743   1.077   4.682
  478SOL     OW 1891   1.227   1.550   5.230
  478SOL    HW1 1892   1.233   1.473   5.294
  478SOL    HW2 1893   1.175   1.524   5.150
  479SOL     OW 1894   0.321   0.943   3.966
  479SOL    HW1 1895   0.403   0.982   3.924
  479SOL    HW2 1896   0.294   0.861   3.917
  480SOL     OW 1897   1.458   0.735   4.452
  480SOL    HW1 1898   1.453   0.670   4.527
  480SOL    HW2 1899   1.538   0.794   4.465
  481SOL     OW 1900   0.461   1.266   5.451
  481SOL    HW1 1901   0.411   1.267   5.365
  481SOL    HW2 1902   0.398   1.248   5.527
  482SOL     OW 1903   1.111   1.776   3.961
  482SOL    HW1 1904   1.051   1.714   4.011
  482SOL    HW2 1905   1.142   1.732   3.876
  483SOL     OW 1906   0.202   0.285   5.222
  483SOL    HW1 1907   0.122   0.345   5.209
  483SOL    HW2 1908   0.192   0.236   5.308
  484SOL     OW 1909   1.632   1.377   3.805
  484SOL    HW1 1910   1.600   1.471   3.795
  484SOL    HW2 1911   1.556   1.314   3.793
  485SOL     OW 1912   0.464   1.743   4.047
  485SOL    HW1 1913   0.497   1.782   4.133
  485SOL    HW2 1914   0.540   1.736   3.982
  486SOL     OW 1915   1.400   0.107   4.150
  486SOL    HW1 1916   1.376   0.070   4.060
  486SOL    HW2 1917   1.499   0.123   4.154
  487SOL     OW 1918   0.249   1.785   4.965
  487SOL    HW1 1919   0.306   1.720   5.015
  487SOL    HW2 1920   0.233   1.752   4.872
  488SOL     OW 1921   0.940   1.698   4.628
  488SOL    HW1 1922   1.020   1.641   4.649
  488SOL    HW2 1923   0.891   1.658   4.551
  489SOL     OW 1924   0.382   0.700   4.204
  489SOL    HW1 1925   0.427   0.610   4.201
  489SOL    HW2 1926   0.288   0.689   4.237
  490SOL     OW 1927   1.547   0.222   5.453
  490SOL    HW1 1928   1.542   0.259   5.545
  490SOL    HW2 1929   1.475   0.153   5.441
  491SOL     OW 1930   0.614   0.122   3.841
  491SOL    HW1 1931   0.712   0.100   3.848
  491SOL    HW2 1932   0.583   0.105   3.748
  492SOL     OW 1933   0.781   0.264   5.473
  492SOL    HW1 1934   0.848   0.203   5.516
  492SOL    HW2 1935   0.708   0.283   5.538
  493SOL     OW 1936   0.888   1.514   4.919
  493SOL    HW1 1937   0.865   1.489   4.825
  493SOL    HW2 1938   0.949   1.445   4.958
  494SOL     OW 1939   1.351   0.590   5.157
  494SOL    HW1 1940   1.379   0.547   5.242
  494SOL    HW2 1941   1.376   0.686   5.158
  495SOL     OW 1942   0.803   1.402   4.648
  495SOL    HW1 1943   0.893   1.416   4.606
  495SOL    HW2 1944   0.732   1.404   4.577
  496SOL     OW 1945   0.922   0.503   4.623
  496SOL    HW1 1946   0.897   0.494   4.527
  496SOL    HW2 1947   0.970   0.421   4.654
  497SOL     OW 1948   0.539   0.064   4.236
  497SOL    HW1 1949   0.458   0.065   4.294
  497SOL    HW2 1950   0.542   0.147   4.181
  498SOL     OW 1951   1.434   1.188   3.765
  498SOL    HW1 1952   1.466   1.112   3.822
  498SOL    HW2 1953   1.342   1.215   3.795
  499SOL     OW 1954   0.297   0.035   3.895
  499SOL    HW1 1955   0.346   0.119   3.874
  499SOL    HW2 1956   0.359  -0.030   3.940
  500SOL     OW 1957   0.935   0.236   4.204
  500SOL    HW1 1958   0.887   0.277   4.126
  500SOL    HW2 1959   1.034   0.234   4.185
  501SOL     OW 1960   1.076   0.683   5.188
  501SOL    HW1 1961   0.996   0.622   5.191
  501SOL    HW2 1962   1.157   0.630   5.164
  502SOL     OW 1963   1.227   1.570   4.517
  502SOL    HW1 1964   1.248   1.644   4.452
  502SOL    HW2 1965   1.295   1.570   4.590
  503SOL     OW 1966   0.459   1.152   4.465
  503SOL    HW1 1967   0.388   1.125   4.530
  503SOL    HW2 1968   0.433   1.124   4.372
  504SOL     OW 1969   1.271   1.797   4.315
  504SOL    HW1 1970   1.315   1.861   4.251
  504SOL    HW2 1971   1.221   1.849   4.385
  505SOL     OW 1972   1.032   0.549   3.740
  505SOL    HW1 1973   0.991   0.631   3.701
  505SOL    HW2 1974   1.096   0.575   3.813
  506SOL     OW 1975   0.078   0.556   5.110
  506SOL    HW1 1976   0.170   0.555   5.069
  506SOL    HW2 1977   0.072   0.630   5.177
  507SOL     OW 1978   0.561   0.222   4.871
  507SOL    HW1 1979   0.599   0.138   4.908
  507SOL    HW2 1980   0.473   0.241   4.915
  508SOL     OW 1981   0.866   0.454   4.366
  508SOL    HW1 1982   0.834   0.526   4.304
  508SOL    HW2 1983   0.890   0.373   4.313
  509SOL     OW 1984   1.017   0.039   4.477
  509SOL    HW1 1985   0.945   0.044   4.408
  509SOL    HW2 1986   0.993  -0.030   4.546
  510SOL     OW 1987   1.429   1.173   4.591
  510SOL    HW1 1988   1.374   1.089   4.584
  510SOL    HW2 1989   1.455   1.202   4.499
  511SOL     OW 1990   1.466   0.590   4.716
  511SOL    HW1 1991   1.436   0.495   4.723
  511SOL    HW2 1992   1.539   0.606   4.782
  512SOL     OW 1993   1.857   0.833   4.101
  512SOL    HW1 1994   1.899   0.769   4.165
  512SOL    HW2 1995   1.819   0.782   4.023
  513SOL     OW 1996   0.488   1.385   3.898
  513SOL    HW1 1997   0.401   1.370   3.945
  513SOL    HW2 1998   0.471   1.411   3.803
  514SOL     OW 1999   1.664   1.280   4.381
  514SOL    HW1 2000   1.763   1.288   4.395
  514SOL    HW2 2001   1.619   1.364   4.412
  515SOL     OW 2002   1.390   0.575   3.802
  515SOL    HW1 2003   1.336   0.554   3.883
  515SOL    HW2 2004   1.481   0.534   3.811
  516SOL     OW 2005   0.527   0.256   4.052
  516SOL    HW1 2006   0.554   0.197   3.977
  516SOL    HW2 2007   0.527   0.351   4.021
  517SOL     OW 2008   1.754   1.223   5.312
  517SOL    HW1 2009   1.845   1.184   5.299
  517SOL    HW2 2010   1.762   1.319   5.336
  518SOL     OW 2011   1.064   1.347   5.064
  518SOL    HW1 2012   0.984   1.324   5.119
  518SOL    HW2 2013   1.147   1.321   5.113
  519SOL     OW 2014   1.592   1.629   5.349
  519SOL    HW1 2015   1.619   1.663   5.259
  519SOL    HW2 2016   1.671   1.591   5.395
  520SOL     OW 2017   1.111   1.195   4.824
  520SOL    HW1 2018   1.071   1.239   4.905
  520SOL    HW2 2019   1.070   1.232   4.741
  521SOL     OW 2020   1.638   1.099   4.803
  521SOL    HW1 2021   1.643   1.180   4.862
  521SOL    HW2 2022   1.552   1.101   4.752
  522SOL     OW 2023   0.915   0.089   5.126
  522SOL    HW1 2024   0.940   0.069   5.031
  522SOL    HW2 2025   0.987   0.145   5.168
  523SOL     OW 2026   0.980   1.116   5.443
  523SOL    HW1 2027   0.881   1.122   5.453
  523SOL    HW2 2028   1.003   1.036   5.387
  524SOL     OW 2029   0.705   1.050   4.092
  524SOL    HW1 2030   0.691   1.057   4.191
  524SOL    HW2 2031   0.789   0.999   4.074
  525SOL     OW 2032   0.410   0.813   4.975
  525SOL    HW1 2033   0.496   0.825   5.025
  525SOL    HW2 2034   0.368   0.726   5.002
  526SOL     OW 2035   1.274   0.386   4.986
  526SOL    HW1 2036   1.295   0.460   5.050
  526SOL    HW2 2037   1.185   0.403   4.943
  527SOL     OW 2038   0.064   1.564   5.055
  527SOL    HW1 2039   0.018   1.646   5.021
  527SOL    HW2 2040   0.162   1.583   5.064
  528SOL     OW 2041   0.367   1.100   4.225
  528SOL    HW1 2042   0.360   1.183   4.169
  528SOL    HW2 2043   0.371   1.020   4.165
  529SOL     OW 2044   0.566   0.537   4.589
  529SOL    HW1 2045   0.578   0.603   4.515
  529SOL    HW2 2046   0.612   0.571   4.672
  530SOL     OW 2047   1.252   1.348   4.112
  530SOL    HW1 2048   1.302   1.425   4.152
  530SOL    HW2 2049   1.157   1.350   4.144
  531SOL     OW 2050   1.272   1.445   4.866
  531SOL    HW1 2051   1.319   1.458   4.953
  531SOL    HW2 2052   1.206   1.371   4.875
  532SOL     OW 2053   1.582   0.639   4.196
  532SOL    HW1 2054   1.551   0.700   4.269
  532SOL    HW2 2055   1.632   0.691   4.127
  533SOL     OW 2056   0.354   1.510   5.053
  533SOL    HW1 2057   0.333   1.466   4.966
  533SOL    HW2 2058   0.451   1.536   5.056
  534SOL     OW 2059   0.402   0.751   5.322
  534SOL    HW1 2060   0.470   0.806   5.275
  534SOL    HW2 2061   0.442   0.663   5.349
  535SOL     OW 2062   1.587   0.779   5.394
  535SOL    HW1 2063   1.495   0.817   5.389
  535SOL    HW2 2064   1.647   0.826   5.329
  536SOL     OW 2065   1.013   0.105   5.494
  536SOL    HW1 2066   1.019   0.190   5.442
  536SOL    HW2 2067   1.045   0.029   5.437
  537SOL     OW 2068   0.504   0.050   5.464
  537SOL    HW1 2069   0.462  -0.007   5.394
  537SOL    HW2 2070   0.438   0.119   5.496
  538SOL     OW 2071   0.573   0.870   4.753
  538SOL    HW1 2072   0.617   0.959   4.744
  538SOL    HW2 2073   0.510   0.870   4.830
  539SOL     OW 2074   1.360   0.862   4.769
  539SOL    HW1 2075   1.285   0.862   4.703
  539SOL    HW2 2076   1.397   0.770   4.778
  540SOL     OW 2077   1.209   0.525   3.999
  540SOL    HW1 2078   1.222   0.441   4.053
  540SOL    HW2 2079   1.180   0.599   4.059
  541SOL     OW 2080   0.307   0.213   4.955
  541SOL    HW1 2081   0.284   0.250   5.045
  541SOL    HW2 2082   0.277   0.118   4.949
  542SOL     OW 2083   0.037   1.310   5.006
  542SOL    HW1 2084   0.090   1.261   5.074
  542SOL    HW2 2085   0.059   1.408   5.011
  543SOL     OW 2086   0.732   0.634   4.788
  543SOL    HW1 2087   0.791   0.608   4.712
  543SOL    HW2 2088   0.704   0.730   4.777
  544SOL     OW 2089   1.728   0.935   5.578
  544SOL    HW1 2090   1.682   0.928   5.489
  544SOL    HW2 2091   1.666   0.979   5.644
  545SOL     OW 2092   0.307   0.063   4.342
  545SOL    HW1 2093   0.296   0.157   4.375
  545SOL    HW2 2094   0.302   0.000   4.419
  546SOL     OW 2095   1.622   0.367   4.098
  546SOL    HW1 2096   1.624   0.291   4.162
  546SOL    HW2 2097   1.574   0.444   4.138
  547SOL     OW 2098   1.023   0.766   4.690
  547SOL    HW1 2099   1.038   0.787   4.786
  547SOL    HW2 2100   0.993   0.671   4.681
  548SOL     OW 2101   0.980   1.573   5.424
  548SOL    HW1 2102   0.960   1.617   5.336
  548SOL    HW2 2103   1.019   1.482   5.408
  549SOL     OW 2104   1.859   1.518   5.329
  549SOL    HW1 2105   1.873   1.545   5.234
  549SOL    HW2 2106   1.942   1.540   5.382
  550SOL     OW 2107   0.350   0.898   5.528
  550SOL    HW1 2108   0.426   0.942   5.576
  550SOL    HW2 2109   0.385   0.851   5.446
  551SOL     OW 2110   1.540   0.274   3.849
  551SOL    HW1 2111   1.479   0.199   3.872
  551SOL    HW2 2112   1.562   0.326   3.932
  552SOL     OW 2113   1.303   0.838   3.766
  552SOL    HW1 2114   1.337   0.745   3.781
  552SOL    HW2 2115   1.321   0.865   3.671
  553SOL     OW 2116   1.068   1.333   4.573
  553SOL    HW1 2117   1.075   1.249   4.518
  553SOL    HW2 2118   1.130   1.402   4.537
  554SOL     OW 2119   0.319   0.810   4.673
  554SOL    HW1 2120   0.412   0.846   4.678
  554SOL    HW2 2121   0.313   0.725   4.725
  555SOL     OW 2122   0.339   0.509   4.730
  555SOL    HW1 2123   0.287   0.426   4.713
  555SOL    HW2 2124   0.416   0.514   4.666
  556SOL     OW 2125   1.138   0.380   5.402
  556SOL    HW1 2126   1.093   0.443   5.466
  556SOL    HW2 2127   1.231   0.411   5.385
  557SOL     OW 2128   1.160   0.207   5.201
  557SOL    HW1 2129   1.160   0.271   5.278
  557SOL    HW2 2130   1.188   0.255   5.118
  558SOL     OW 2131   0.008   1.326   3.924
  558SOL    HW1 2132  -0.085   1.347   3.893
  558SOL    HW2 2133   0.018   1.227   3.937
  559SOL     OW 2134   0.088   1.801   4.651
  559SOL    HW1 2135   0.046   1.715   4.624
  559SOL    HW2 2136   0.182   1.804   4.617
  560SOL     OW 2137   0.504   1.568   4.634
  560SOL    HW1 2138   0.570   1.642   4.643
  560SOL    HW2 2139   0.548   1.489   4.592
  561SOL     OW 2140   1.002   0.796   4.962
  561SOL    HW1 2141   1.043   0.764   5.048
  561SOL    HW2 2142   0.906   0.769   4.959
  562SOL     OW 2143   0.040   0.544   4.838
  562SOL    HW1 2144   0.125   0.511   4.797
  562SOL    HW2 2145   0.053   0.559   4.936
  563SOL     OW 2146   0.189   0.520   5.446
  563SOL    HW1 2147   0.248   0.480   5.376
  563SOL    HW2 2148   0.131   0.591   5.405
  564SOL     OW 2149   1.369   0.950   5.384
  564SOL    HW1 2150   1.408   1.039   5.404
  564SOL    HW2 2151   1.379   0.930   5.287
  565SOL     OW 2152   0.815   0.572   4.049
  565SOL    HW1 2153   0.822   0.483   4.003
  565SOL    HW2 2154   0.721   0.606   4.041
  566SOL     OW 2155   1.657   0.604   4.930
  566SOL    HW1 2156   1.619   0.535   4.992
  566SOL    HW2 2157   1.739   0.568   4.886
  567SOL     OW 2158   0.252   1.564   5.468
  567SOL    HW1 2159   0.222   1.621   5.544
  567SOL    HW2 2160   0.245   1.467   5.494
  568SOL     OW 2161   0.671   0.464   4.993
  568SOL    HW1 2162   0.637   0.375   4.963
  568SOL    HW2 2163   0.697   0.518   4.913
  569SOL     OW 2164   0.930   1.678   5.189
  569SOL    HW1 2165   0.906   1.660   5.094
  569SOL    HW2 2166   0.960   1.772   5.199
  570SOL     OW 2167   0.473   0.500   3.915
  570SOL    HW1 2168   0.534   0.580   3.919
  570SOL    HW2 2169   0.378   0.531   3.922
  571SOL     OW 2170   0.159   1.137   5.190
  571SOL    HW1 2171   0.181   1.076   5.266
  571SOL    HW2 2172   0.169   1.088   5.104
  572SOL     OW 2173   1.347   1.059   4.958
  572SOL    HW1 2174   1.371   0.996   4.884
  572SOL    HW2 2175   1.257   1.099   4.940
  573SOL     OW 2176   1.302   0.855   4.033
  573SOL    HW1 2177   1.216   0.824   4.075
  573SOL    HW2 2178   1.298   0.841   3.934
  574SOL     OW 2179   1.759   1.747   4.878
  574SOL    HW1 2180   1.820   1.777   4.805
  574SOL    HW2 2181   1.721   1.658   4.856
  575SOL     OW 2182   1.252   1.731   4.852
  575SOL    HW1 2183   1.336   1.736   4.798
  575SOL    HW2 2184   1.229   1.635   4.870
  576SOL     OW 2185   0.083   1.258   4.746
  576SOL    HW1 2186   0.078   1.257   4.846
  576SOL    HW2 2187   0.000   1.217   4.708
  577SOL     OW 2188   0.688   1.662   5.440
  577SOL    HW1 2189   0.632   1.743   5.449
  577SOL    HW2 2190   0.740   1.666   5.354
  578SOL     OW 2191   1.726   0.135   4.247
  578SOL    HW1 2192   1.799   0.118   4.180
  578SOL    HW2 2193   1.695   0.048   4.285
  579SOL     OW 2194   1.388   1.573   4.201
  579SOL    HW1 2195   1.455   1.585   4.127
  579SOL    HW2 2196   1.348   1.662   4.224
  580SOL     OW 2197   0.130   1.794   5.575
  580SOL    HW1 2198   0.089   1.720   5.628
  580SOL    HW2 2199   0.194   1.845   5.633
  581SOL     OW 2200   1.280   0.927   4.396
  581SOL    HW1 2201   1.340   0.846   4.398
  581SOL    HW2 2202   1.320   0.996   4.336
  582SOL     OW 2203   0.830   1.273   5.146
  582SOL    HW1 2204   0.825   1.306   5.241
  582SOL    HW2 2205   0.744   1.292   5.100
  583SOL     OW 2206   0.672   1.616   3.878
  583SOL    HW1 2207   0.681   1.626   3.779
  583SOL    HW2 2208   0.632   1.527   3.899
  584SOL     OW 2209   1.650   1.720   5.118
  584SOL    HW1 2210   1.703   1.730   5.034
  584SOL    HW2 2211   1.623   1.810   5.152
  585SOL     OW 2212   1.841   0.175   4.687
  585SOL    HW1 2213   1.880   0.090   4.651
  585SOL    HW2 2214   1.743   0.177   4.668
  586SOL     OW 2215   0.263   0.326   4.444
  586SOL    HW1 2216   0.184   0.377   4.410
  586SOL    HW2 2217   0.254   0.311   4.542
  587SOL     OW 2218   1.194   1.612   3.755
  587SOL    HW1 2219   1.200   1.519   3.792
  587SOL    HW2 2220   1.135   1.612   3.675
  588SOL     OW 2221   0.822   1.002   5.096
  588SOL    HW1 2222   0.862   1.001   5.004
  588SOL    HW2 2223   0.832   1.094   5.136
  589SOL     OW 2224   0.916   0.910   4.015
  589SOL    HW1 2225   0.979   0.948   3.947
  589SOL    HW2 2226   0.956   0.827   4.054
  590SOL     OW 2227   1.504   1.607   3.768
  590SOL    HW1 2228   1.412   1.644   3.775
  590SOL    HW2 2229   1.542   1.627   3.678
  591SOL     OW 2230   0.372   1.288   5.214
  591SOL    HW1 2231   0.359   1.381   5.180
  591SOL    HW2 2232   0.288   1.236   5.201
  592SOL     OW 2233   1.614   1.292   5.013
  592SOL    HW1 2234   1.674   1.295   5.093
  592SOL    HW2 2235   1.539   1.356   5.026
  593SOL     OW 2236   1.039   1.098   4.420
  593SOL    HW1 2237   0.969   1.051   4.474
  593SOL    HW2 2238   1.098   1.030   4.377
  594SOL     OW 2239   1.014   0.236   4.695
  594SOL    HW1 2240   1.006   0.200   4.602
  594SOL    HW2 2241   1.012   0.160   4.760
  595SOL     OW 2242   0.590   1.487   4.215
  595SOL    HW1 2243   0.632   1.429   4.145
  595SOL    HW2 2244   0.546   1.566   4.171
  596SOL     OW 2245   1.709   0.385   5.105
  596SOL    HW1 2246   1.782   0.454   5.109
  596SOL    HW2 2247   1.737   0.310   5.046
  597SOL     OW 2248   0.255   1.348   4.014
  597SOL    HW1 2249   0.159   1.349   3.987
  597SOL    HW2 2250   0.267   1.401   4.098
  598SOL     OW 2251   0.105   1.013   5.450
  598SOL    HW1 2252   0.028   0.980   5.504
  598SOL    HW2 2253   0.190   0.983   5.492
  599SOL     OW 2254   0.672   0.203   5.213
  599SOL    HW1 2255   0.762   0.187   5.173
  599SOL    HW2 2256   0.680   0.208   5.312
  600SOL     OW 2257   0.075   0.345   3.757
  600SOL    HW1 2258  -0.017   0.317   3.728
  600SOL    HW2 2259   0.106   0.422   3.701
  601SOL     OW 2260   1.440   0.856   5.122
  601SOL    HW1 2261   1.383   0.908   5.059
  601SOL    HW2 2262   1.536   0.868   5.098
  602SOL     OW 2263   0.072   0.166   4.042
  602SOL    HW1 2264   0.055   0.249   3.988
  602SOL    HW2 2265   0.162   0.129   4.020
  603SOL     OW 2266   1.183   1.335   3.843
  603SOL    HW1 2267   1.084   1.324   3.845
  603SOL    HW2 2268   1.217   1.350   3.936
  604SOL     OW 2269   0.613   0.842   5.155
  604SOL    HW1 2270   0.669   0.923   5.138
  604SOL    HW2 2271   0.672   0.762   5.158
  605SOL     OW 2272   1.493   1.767   4.683
  605SOL    HW1 2273   1.526   1.831   4.614
  605SOL    HW2 2274   1.559   1.761   4.758
  606SOL     OW 2275   0.716   0.565   5.432
  606SOL    HW1 2276   0.735   0.630   5.506
  606SOL    HW2 2277   0.776   0.485   5.441
  607SOL     OW 2278   1.450   1.220   5.357
  607SOL    HW1 2279   1.441   1.210   5.456
  607SOL    HW2 2280   1.546   1.213   5.331
  608SOL     OW 2281   0.390   1.741   5.284
  608SOL    HW1 2282   0.299   1.782   5.282
  608SOL    HW2 2283   0.383   1.647   5.316
  609SOL     OW 2284   1.674   0.883   4.978
  609SOL    HW1 2285   1.647   0.794   4.941
  609SOL    HW2 2286   1.675   0.951   4.905
  610SOL     OW 2287   1.225   0.325   4.173
  610SOL    HW1 2288   1.290   0.251   4.162
  610SOL    HW2 2289   1.245   0.375   4.257
  611SOL     OW 2290   0.594   0.745   4.376
  611SOL    HW1 2291   0.644   0.830   4.357
  611SOL    HW2 2292   0.506   0.747   4.328
  612SOL     OW 2293   1.777   0.342   5.366
  612SOL    HW1 2294   1.760   0.373   5.272
  612SOL    HW2 2295   1.693   0.305   5.404
  613SOL     OW 2296   1.730   0.934   5.241
  613SOL    HW1 2297   1.768   1.025   5.256
  613SOL    HW2 2298   1.722   0.917   5.142
  614SOL     OW 2299   0.859   1.374   3.740
  614SOL    HW1 2300   0.813   1.389   3.828
  614SOL    HW2 2301   0.903   1.459   3.710
  615SOL     OW 2302   0.661   1.790   4.677
  615SOL    HW1 2303   0.615   1.878   4.664
  615SOL    HW2 2304   0.760   1.802   4.670
  616SOL     OW 2305   0.859   0.956   4.585
  616SOL    HW1 2306   0.913   0.887   4.633
  616SOL    HW2 2307   0.827   1.025   4.651
  617SOL     OW 2308   1.083   0.984   3.811
  617SOL    HW1 2309   1.060   1.037   3.729
  617SOL    HW2 2310   1.164   0.928   3.792
  618SOL     OW 2311   1.861   1.569   4.575
  618SOL    HW1 2312   1.790   1.557   4.505
  618SOL    HW2 2313   1.862   1.490   4.635
  619SOL     OW 2314   0.221   1.314   5.568
  619SOL    HW1 2315   0.156   1.241   5.547
  619SOL    HW2 2316   0.225   1.328   5.666
  620SOL     OW 2317   0.079   1.240   4.377
  620SOL    HW1 2318   0.078   1.193   4.465
  620SOL    HW2 2319   0.161   1.212   4.326
  621SOL     OW 2320   0.672   1.391   5.348
  621SOL    HW1 2321   0.594   1.341   5.386
  621SOL    HW2 2322   0.669   1.486   5.379
  622SOL     OW 2323   1.824   0.192   4.951
  622SOL    HW1 2324   1.820   0.102   4.995
  622SOL    HW2 2325   1.827   0.181   4.852
  623SOL     OW 2326   0.428   0.424   4.244
  623SOL    HW1 2327   0.458   0.352   4.182
  623SOL    HW2 2328   0.389   0.384   4.327
  624SOL     OW 2329   1.705   1.487   4.828
  624SOL    HW1 2330   1.612   1.462   4.801
  624SOL    HW2 2331   1.731   1.437   4.910
  625SOL     OW 2332   0.317   0.547   5.004
  625SOL    HW1 2333   0.355   0.488   5.076
  625SOL    HW2 2334   0.357   0.521   4.916
  626SOL     OW 2335   0.812   1.586   4.411
  626SOL    HW1 2336   0.844   1.596   4.317
  626SOL    HW2 2337   0.733   1.524   4.413
  627SOL     OW 2338   1.424   0.214   4.836
  627SOL    HW1 2339   1.476   0.149   4.891
  627SOL    HW2 2340   1.375   0.277   4.897
  628SOL     OW 2341   1.001   0.034   4.878
  628SOL    HW1 2342   0.938  -0.038   4.847
  628SOL    HW2 2343   1.094  -0.002   4.878
  629SOL     OW 2344   0.770   1.330   4.025
  629SOL    HW1 2345   0.724   1.243   4.042
  629SOL    HW2 2346   0.861   1.327   4.066
  630SOL     OW 2347   0.618   1.567   5.008
  630SOL    HW1 2348   0.613   1.649   5.065
  630SOL    HW2 2349   0.707   1.564   4.963
  631SOL     OW 2350   1.352   0.052   3.892
  631SOL    HW1 2351   1.387   0.011   3.808
  631SOL    HW2 2352   1.262   0.014   3.912
  632SOL     OW 2353   1.300   0.453   4.415
  632SOL    HW1 2354   1.241   0.533   4.419
  632SOL    HW2 2355   1.315   0.418   4.508
  633SOL     OW 2356   1.593   0.221   4.606
  633SOL    HW1 2357   1.509   0.220   4.660
  633SOL    HW2 2358   1.595   0.304   4.550
  634SOL     OW 2359   0.039   1.077   4.024
  634SOL    HW1 2360   0.138   1.066   4.015
  634SOL    HW2 2361  -0.001   0.991   4.056
  635SOL     OW 2362   0.875   1.646   4.061
  635SOL    HW1 2363   0.798   1.611   4.007
  635SOL    HW2 2364   0.843   1.717   4.123
  636SOL     OW 2365   0.230   0.628   5.699
  636SOL    HW1 2366   0.137   0.626   5.736
  636SOL    HW2 2367   0.231   0.589   5.607
  637SOL     OW 2368   0.225   0.275   6.582
  637SOL    HW1 2369   0.260   0.258   6.674
  637SOL    HW2 2370   0.137   0.230   6.570
  638SOL     OW 2371   0.019   0.368   6.233
  638SOL    HW1 2372  -0.063   0.411   6.272
  638SOL    HW2 2373  -0.009   0.295   6.170
  639SOL     OW 2374   0.569   1.275   6.751
  639SOL    HW1 2375   0.476   1.268   6.714
  639SOL    HW2 2376   0.580   1.364   6.795
  640SOL     OW 2377   1.135   0.703   6.303
  640SOL    HW1 2378   1.192   0.781   6.278
  640SOL    HW2 2379   1.075   0.729   6.379
  641SOL     OW 2380   1.755   0.607   5.817
  641SOL    HW1 2381   1.743   0.594   5.718
  641SOL    HW2 2382   1.725   0.526   5.866
  642SOL     OW 2383   0.768   1.144   6.609
  642SOL    HW1 2384   0.690   1.161   6.669
  642SOL    HW2 2385   0.802   1.231   6.573
  643SOL     OW 2386   0.850   0.798   7.409
  643SOL    HW1 2387   0.846   0.874   7.474
  643SOL    HW2 2388   0.872   0.834   7.318
  644SOL     OW 2389   0.685   1.012   6.251
  644SOL    HW1 2390   0.754   0.996   6.321
  644SOL    HW2 2391   0.612   1.069   6.289
  645SOL     OW 2392   0.686   1.161   7.389
  645SOL    HW1 2393   0.746   1.240   7.403
  645SOL    HW2 2394   0.600   1.192   7.348
  646SOL     OW 2395   0.335   1.435   6.647
  646SOL    HW1 2396   0.257   1.404   6.594
  646SOL    HW2 2397   0.393   1.493   6.590
  647SOL     OW 2398   1.460   1.505   6.925
  647SOL    HW1 2399   1.484   1.599   6.951
  647SOL    HW2 2400   1.444   1.451   7.007
  648SOL     OW 2401   0.438   0.392   7.085
  648SOL    HW1 2402   0.520   0.336   7.094
  648SOL    HW2 2403   0.357   0.334   7.089
  649SOL     OW 2404   1.603   0.447   6.323
  649SOL    HW1 2405   1.529   0.493   6.273
  649SOL    HW2 2406   1.654   0.515   6.376
  650SOL     OW 2407   0.231   1.713   6.069
  650SOL    HW1 2408   0.265   1.790   6.123
  650SOL    HW2 2409   0.275   1.713   5.979
  651SOL     OW 2410   1.127   1.341   7.276
  651SOL    HW1 2411   1.174   1.341   7.364
  651SOL    HW2 2412   1.079   1.254   7.265
  652SOL     OW 2413   0.230   1.434   6.124
  652SOL    HW1 2414   0.204   1.530   6.124
  652SOL    HW2 2415   0.159   1.380   6.169
  653SOL     OW 2416   0.240   1.091   6.472
  653SOL    HW1 2417   0.254   1.007   6.524
  653SOL    HW2 2418   0.185   1.155   6.527
  654SOL     OW 2419   0.620   1.786   7.025
  654SOL    HW1 2420   0.528   1.769   7.060
  654SOL    HW2 2421   0.648   1.878   7.051
  655SOL     OW 2422   0.606   0.964   5.709
  655SOL    HW1 2423   0.613   1.048   5.655
  655SOL    HW2 2424   0.652   0.977   5.797
  656SOL     OW 2425   1.594   0.114   7.066
  656SOL    HW1 2426   1.576   0.181   6.994
  656SOL    HW2 2427   1.591   0.160   7.155
  657SOL     OW 2428   0.122   0.643   6.149
  657SOL    HW1 2429   0.077   0.555   6.166
  657SOL    HW2 2430   0.121   0.697   6.233
  658SOL     OW 2431   0.027   1.596   5.703
  658SOL    HW1 2432   0.008   1.500   5.724
  658SOL    HW2 2433  -0.006   1.654   5.778
  659SOL     OW 2434   1.689   0.922   6.198
  659SOL    HW1 2435   1.784   0.893   6.206
  659SOL    HW2 2436   1.681   0.987   6.123
  660SOL     OW 2437   1.641   1.108   6.018
  660SOL    HW1 2438   1.727   1.110   5.966
  660SOL    HW2 2439   1.655   1.155   6.106
  661SOL     OW 2440   0.113   0.737   7.183
  661SOL    HW1 2441   0.201   0.724   7.228
  661SOL    HW2 2442   0.100   0.834   7.161
  662SOL     OW 2443   0.613   1.365   6.312
  662SOL    HW1 2444   0.564   1.278   6.321
  662SOL    HW2 2445   0.590   1.408   6.225
  663SOL     OW 2446   1.293   1.228   7.009
  663SOL    HW1 2447   1.330   1.155   6.951
  663SOL    HW2 2448   1.345   1.233   7.094
  664SOL     OW 2449   0.809   0.004   6.088
  664SOL    HW1 2450   0.849   0.095   6.079
  664SOL    HW2 2451   0.709   0.012   6.094
  665SOL     OW 2452   0.197   0.976   6.850
  665SOL    HW1 2453   0.286   0.931   6.836
  665SOL    HW2 2454   0.124   0.911   6.831
  666SOL     OW 2455   1.525   0.999   5.776
  666SOL    HW1 2456   1.462   0.923   5.789
  666SOL    HW2 2457   1.573   1.017   5.862
  667SOL     OW 2458   1.187   1.792   7.202
  667SOL    HW1 2459   1.211   1.852   7.126
  667SOL    HW2 2460   1.194   1.697   7.172
  668SOL     OW 2461   0.317   0.251   7.387
  668SOL    HW1 2462   0.388   0.322   7.393
  668SOL    HW2 2463   0.229   0.290   7.415
  669SOL     OW 2464   1.466   1.417   6.539
  669SOL    HW1 2465   1.407   1.423   6.619
  669SOL    HW2 2466   1.451   1.329   6.493
  670SOL     OW 2467   0.598   0.729   5.856
  670SOL    HW1 2468   0.622   0.798   5.788
  670SOL    HW2 2469   0.520   0.762   5.910
  671SOL     OW 2470   1.281   0.345   6.530
  671SOL    HW1 2471   1.195   0.295   6.517
  671SOL    HW2 2472   1.343   0.291   6.586
  672SOL     OW 2473   1.576   1.662   5.893
  672SOL    HW1 2474   1.665   1.708   5.896
  672SOL    HW2 2475   1.555   1.638   5.798
  673SOL     OW 2476   0.807   0.605   7.051
  673SOL    HW1 2477   0.760   0.602   7.140
  673SOL    HW2 2478   0.756   0.550   6.985
  674SOL     OW 2479   1.394   0.469   7.260
  674SOL    HW1 2480   1.374   0.512   7.348
  674SOL    HW2 2481   1.472   0.407   7.269
  675SOL     OW 2482   0.973   0.890   7.158
  675SOL    HW1 2483   1.019   0.806   7.129
  675SOL    HW2 2484   0.917   0.924   7.083
  676SOL     OW 2485   0.991   0.410   6.828
  676SOL    HW1 2486   0.914   0.444   6.882
  676SOL    HW2 2487   0.957   0.359   6.749
  677SOL     OW 2488   1.041   0.701   6.015
  677SOL    HW1 2489   1.067   0.697   6.111
  677SOL    HW2 2490   0.956   0.650   6.001
  678SOL     OW 2491   0.076   0.811   6.375
  678SOL    HW1 2492   0.175   0.799   6.384
  678SOL    HW2 2493   0.052   0.906   6.396
  679SOL     OW 2494   0.130   1.821   7.157
  679SOL    HW1 2495   0.120   1.806   7.256
  679SOL    HW2 2496   0.044   1.857   7.121
  680SOL     OW 2497   0.865   0.348   5.781
  680SOL    HW1 2498   0.924   0.411   5.732
  680SOL    HW2 2499   0.884   0.254   5.752
  681SOL     OW 2500   1.719   0.585   7.417
  681SOL    HW1 2501   1.693   0.674   7.381
  681SOL    HW2 2502   1.717   0.517   7.344
  682SOL     OW 2503   1.362   1.144   6.131
  682SOL    HW1 2504   1.445   1.115   6.083
  682SOL    HW2 2505   1.313   1.211   6.075
  683SOL     OW 2506   0.550   0.196   6.471
  683SOL    HW1 2507   0.545   0.191   6.571
  683SOL    HW2 2508   0.552   0.292   6.442
  684SOL     OW 2509   1.008   1.456   6.063
  684SOL    HW1 2510   0.962   1.528   6.011
  684SOL    HW2 2511   1.004   1.476   6.161
  685SOL     OW 2512   0.351   1.801   6.439
  685SOL    HW1 2513   0.401   1.715   6.445
  685SOL    HW2 2514   0.416   1.878   6.436
  686SOL     OW 2515   1.795   1.066   6.459
  686SOL    HW1 2516   1.733   1.051   6.383
  686SOL    HW2 2517   1.743   1.077   6.544
  687SOL     OW 2518   1.227   1.550   7.092
  687SOL    HW1 2519   1.233   1.473   7.156
  687SOL    HW2 2520   1.175   1.524   7.012
  688SOL     OW 2521   0.321   0.943   5.828
  688SOL    HW1 2522   0.403   0.982   5.786
  688SOL    HW2 2523   0.294   0.861   5.779
  689SOL     OW 2524   1.458   0.735   6.314
  689SOL    HW1 2525   1.453   0.670   6.389
  689SOL    HW2 2526   1.538   0.794   6.327
  690SOL     OW 2527   0.461   1.266   7.313
  690SOL    HW1 2528   0.411   1.267   7.227
  690SOL    HW2 2529   0.398   1.248   7.389
  691SOL     OW 2530   1.111   1.776   5.823
  691SOL    HW1 2531   1.051   1.714   5.873
  691SOL    HW2 2532   1.142   1.732   5.738
  692SOL     OW 2533   0.202   0.285   7.084
  692SOL    HW1 2534   0.122   0.345   7.071
  692SOL    HW2 2535   0.192   0.236   7.170
  693SOL     OW 2536   1.632   1.377   5.667
  693SOL    HW1 2537   1.600   1.471   5.657
  693SOL    HW2 2538   1.556   1.314   5.655
  694SOL     OW 2539   0.464   1.743   5.909
  694SOL    HW1 2540   0.497   1.782   5.995
  694SOL    HW2 2541   0.540   1.736   5.844
  695SOL     OW 2542   1.400   0.107   6.012
  695SOL    HW1 2543   1.376   0.070   5.922
  695SOL    HW2 2544   1.499   0.123   6.016
  696SOL     OW 2545   0.249   1.785   6.827
  696SOL    HW1 2546   0.306   1.720   6.877
  696SOL    HW2 2547   0.233   1.752   6.734
  697SOL     OW 2548   0.940   1.698   6.490
  697SOL    HW1 2549   1.020   1.641   6.511
  697SOL    HW2 2550   0.891   1.658   6.413
  698SOL     OW 2551   0.382   0.700   6.066
  698SOL    HW1 2552   0.427   0.610   6.063
  698SOL    HW2 2553   0.288   0.689   6.099
  699SOL     OW 2554   1.547   0.222   7.315
  699SOL    HW1 2555   1.542   0.259   7.407
  699SOL    HW2 2556   1.475   0.153   7.303
  700SOL     OW 2557   0.614   0.122   5.703
  700SOL    HW1 2558   0.712   0.100   5.710
  700SOL    HW2 2559   0.583   0.105   5.610
  701SOL     OW 2560   0.781   0.264   7.335
  701SOL    HW1 2561   0.848   0.203   7.378
  701SOL    HW2 2562   0.708   0.283   7.400
  702SOL     OW 2563   0.888   1.514   6.781
  702SOL    HW1 2564   0.865   1.489   6.687
  702SOL    HW2 2565   0.949   1.445   6.820
  703SOL     OW 2566   1.351   0.590   7.019
  703SOL    HW1 2567   1.379   0.547   7.104
  703SOL    HW2 2568   1.376   0.686   7.020
  704SOL     OW 2569   0.803   1.402   6.510
  704SOL    HW1 2570   0.893   1.416   6.468
  704SOL    HW2 2571   0.732   1.404   6.439
  705SOL     OW 2572   0.922   0.503   6.485
  705SOL    HW1 2573   0.897   0.494   6.389
  705SOL    HW2 2574   0.970   0.421   6.516
  706SOL     OW 2575   0.539   0.064   6.098
  706SOL    HW1 2576   0.458   0.065   6.156
  706SOL    HW2 2577   0.542   0.147   6.043
  707SOL     OW 2578   1.434   1.188   5.627
  707SOL    HW1 2579   1.466   1.112   5.684
  707SOL    HW2 2580   1.342   1.215   5.657
  708SOL     OW 2581   0.297   0.035   5.757
  708SOL    HW1 2582   0.346   0.119   5.736
  708SOL    HW2 2583   0.359  -0.030   5.802
  709SOL     OW 2584   0.935   0.236   6.066
  709SOL    HW1 2585   0.887   0.277   5.988
  709SOL    HW2 2586   1.034   0.234   6.047
  710SOL     OW 2587   1.076   0.683   7.050
  710SOL    HW1 2588   0.996   0.622   7.053
  710SOL    HW2 2589   1.157   0.630   7.026
  711SOL     OW 2590   1.227   1.570   6.379
  711SOL    HW1 2591   1.248   1.644   6.314
  711SOL    HW2 2592   1.295   1.570   6.452
  712SOL     OW 2593   0.459   1.152   6.327
  712SOL    HW1 2594   0.388   1.125   6.392
  712SOL    HW2 2595   0.433   1.124   6.234
  713SOL     OW 2596   1.271   1.797   6.177
  713SOL    HW1 2597   1.315   1.861   6.113
  713SOL    HW2 2598   1.221   1.849   6.247
  714SOL     OW 2599   1.032   0.549   5.602
  714SOL    HW1 2600   0.991   0.631   5.563
  714SOL    HW2 2601   1.096   0.575   5.675
  715SOL     OW 2602   0.078   0.556   6.972
  715SOL    HW1 2603   0.170   0.555   6.931
  715SOL    HW2 2604   0.072   0.630   7.039
  716SOL     OW 2605   0.561   0.222   6.733
  716SOL    HW1 2606   0.599   0.138   6.770
  716SOL    HW2 2607   0.473   0.241   6.777
  717SOL     OW 2608   0.866   0.454   6.228
  717SOL    HW1 2609   0.834   0.526   6.166
  717SOL    HW2 2610   0.890   0.373   6.175
  718SOL     OW 2611   1.017   0.039   6.339
  718SOL    HW1 2612   0.945   0.044   6.270
  718SOL    HW2 2613   0.993  -0.030   6.408
  719SOL     OW 2614   1.429   1.173   6.453
  719SOL    HW1 2615   1.374   1.089   6.446
  719SOL    HW2 2616   1.455   1.202   6.361
  720SOL     OW 2617   1.466   0.590   6.578
  720SOL    HW1 2618   1.436   0.495   6.585
  720SOL    HW2 2619   1.539   0.606   6.644
  721SOL     OW 2620   1.857   0.833   5.963
  721SOL    HW1 2621   1.899   0.769   6.027
  721SOL    HW2 2622   1.819   0.782   5.885
  722SOL     OW 2623   0.488   1.385   5.760
  722SOL    HW1 2624   0.401   1.370   5.807
  722SOL    HW2 2625   0.471   1.411   5.665
  723SOL     OW 2626   1.664   1.280   6.243
  723SOL    HW1 2627   1.763   1.288   6.257
  723SOL    HW2 2628   1.619   1.364   6.274
  724SOL     OW 2629   1.390   0.575   5.664
  724SOL    HW1 2630   1.336   0.554   5.745
  724SOL    HW2 2631   1.481   0.534   5.673
  725SOL     OW 2632   0.527   0.256   5.914
  725SOL    HW1 2633   0.554   0.197   5.839
  725SOL    HW2 2634   0.527   0.351   5.883
  726SOL     OW 2635   1.754   1.223   7.174
  726SOL    HW1 2636   1.845   1.184   7.161
  726SOL    HW2 2637   1.762   1.319   7.198
  727SOL     OW 2638   1.064   1.347   6.926
  727SOL    HW1 2639   0.984   1.324   6.981
  727SOL    HW2 2640   1.147   1.321   6.975
  728SOL     OW 2641   1.111   1.195   6.686
  728SOL    HW1 2642   1.071   1.239   6.767
  728SOL    HW2 2643   1.070   1.232   6.603
  729SOL     OW 2644   1.638   1.099   6.665
  729SOL    HW1 2645   1.643   1.180   6.724
  729SOL    HW2 2646   1.552   1.101   6.614
  730SOL     OW 2647   0.915   0.089   6.988
  730SOL    HW1 2648   0.940   0.069   6.893
  730SOL    HW2 2649   0.987   0.145   7.030
  731SOL     OW 2650   0.980   1.116   7.305
  731SOL    HW1 2651   0.881   1.122   7.315
  731SOL    HW2 2652   1.003   1.036   7.249
  732SOL     OW 2653   0.705   1.050   5.954
  732SOL    HW1 2654   0.691   1.057   6.053
  732SOL    HW2 2655   0.789   0.999   5.936
  733SOL     OW 2656   0.410   0.813   6.837
  733SOL    HW1 2657   0.496   0.825   6.887
  733SOL    HW2 2658   0.368   0.726   6.864
  734SOL     OW 2659   1.274   0.386   6.848
  734SOL    HW1 2660   1.295   0.460   6.912
  734SOL    HW2 2661   1.185   0.403   6.805
  735SOL     OW 2662   0.064   1.564   6.917
  735SOL    HW1 2663   0.018   1.646   6.883
  735SOL    HW2 2664   0.162   1.583   6.926
  736SOL     OW 2665   0.367   1.100   6.087
  736SOL    HW1 2666   0.360   1.183   6.031
  736SOL    HW2 2667   0.371   1.020   6.027
  737SOL     OW 2668   0.566   0.537   6.451
  737SOL    HW1 2669   0.578   0.603   6.377
  737SOL    HW2 2670   0.612   0.571   6.534
  738SOL     OW 2671   1.252   1.348   5.974
  738SOL    HW1 2672   1.302   1.425   6.014
  738SOL    HW2 2673   1.157   1.350   6.006
  739SOL     OW 2674   1.272   1.445   6.728
  739SOL    HW1 2675   1.319   1.458   6.815
  739SOL    HW2 2676   1.206   1.371   6.737
  740SOL     OW 2677   1.582   0.639   6.058
  740SOL    HW1 2678   1.551   0.700   6.131
  740SOL    HW2 2679   1.632   0.691   5.989
  741SOL     OW 2680   0.354   1.510   6.915
  741SOL    HW1 2681   0.333   1.466   6.828
  741SOL    HW2 2682   0.451   1.536   6.918
  742SOL     OW 2683   0.402   0.751   7.184
  742SOL    HW1 2684   0.470   0.806   7.137
  742SOL    HW2 2685   0.442   0.663   7.211
  743SOL     OW 2686   1.587   0.779   7.256
  743SOL    HW1 2687   1.495   0.817   7.251
  743SOL    HW2 2688   1.647   0.826   7.191
  744SOL     OW 2689   1.013   0.105   7.356
  744SOL    HW1 2690   1.019   0.190   7.304
  744SOL    HW2 2691   1.045   0.029   7.299
  745SOL     OW 2692   0.504   0.050   7.326
  745SOL    HW1 2693   0.462  -0.007   7.256
  745SOL    HW2 2694   0.438   0.119   7.358
  746SOL     OW 2695   0.573   0.870   6.615
  746SOL    HW1 2696   0.617   0.959   6.606
  746SOL    HW2 2697   0.510   0.870   6.692
  747SOL     OW 2698   1.360   0.862   6.631
  747SOL    HW1 2699   1.285   0.862   6.565
  747SOL    HW2 2700   1.397   0.770   6.640
  748SOL     OW 2701   1.209   0.525   5.861
  748SOL    HW1 2702   1.222   0.441   5.915
  748SOL    HW2 2703   1.180   0.599   5.921
  749SOL     OW 2704   0.307   0.213   6.817
  749SOL    HW1 2705   0.284   0.250   6.907
  749SOL    HW2 2706   0.277   0.118   6.811
  750SOL     OW 2707   0.037   1.310   6.868
  750SOL    HW1 2708   0.090   1.261   6.936
  750SOL    HW2 2709   0.059   1.408   6.873
  751SOL     OW 2710   0.732   0.634   6.650
  751SOL    HW1 2711   0.791   0.608   6.574
  751SOL    HW2 2712   0.704   0.730   6.639
  752SOL     OW 2713   1.728   0.935   7.440
  752SOL    HW1 2714   1.682   0.928   7.351
  752SOL    HW2 2715   1.666   0.979   7.506
  753SOL     OW 2716   0.307   0.063   6.204
  753SOL    HW1 2717   0.296   0.157   6.237
  753SOL    HW2 2718   0.302   0.000   6.281
  754SOL     OW 2719   1.622   0.367   5.960
  754SOL    HW1 2720   1.624   0.291   6.024
  754SOL    HW2 2721   1.574   0.444   6.000
  755SOL     OW 2722   1.023   0.766   6.552
  755SOL    HW1 2723   1.038   0.787   6.648
  755SOL    HW2 2724   0.993   0.671   6.543
  756SOL     OW 2725   0.980   1.573   7.286
  756SOL    HW1 2726   0.960   1.617   7.198
  756SOL    HW2 2727   1.019   1.482   7.270
  757SOL     OW 2728   0.350   0.898   7.390
  757SOL    HW1 2729   0.426   0.942   7.438
  757SOL    HW2 2730   0.385   0.851   7.308
  758SOL     OW 2731   1.540   0.274   5.711
  758SOL    HW1 2732   1.479   0.199   5.734
  758SOL    HW2 2733   1.562   0.326   5.794
  759SOL     OW 2734   1.303   0.838   5.628
  759SOL    HW1 2735   1.337   0.745   5.643
  759SOL    HW2 2736   1.321   0.865   5.533
  760SOL     OW 2737   1.068   1.333   6.435
  760SOL    HW1 2738   1.075   1.249   6.380
  760SOL    HW2 2739   1.130   1.402   6.399
  761SOL     OW 2740   0.319   0.810   6.535
  761SOL    HW1 2741   0.412   0.846   6.540
  761SOL    HW2 2742   0.313   0.725   6.587
  762SOL     OW 2743   0.339   0.509   6.592
  762SOL    HW1 2744   0.287   0.426   6.575
  762SOL    HW2 2745   0.416   0.514   6.528
  763SOL     OW 2746   1.138   0.380   7.264
  763SOL    HW1 2747   1.093   0.443   7.328
  763SOL    HW2 2748   1.231   0.411   7.247
  764SOL     OW 2749   1.160   0.207   7.063
  764SOL    HW1 2750   1.160   0.271   7.140
  764SOL    HW2 2751   1.188   0.255   6.980
  765SOL     OW 2752   0.008   1.326   5.786
  765SOL    HW1 2753  -0.085   1.347   5.755
  765SOL    HW2 2754   0.018   1.227   5.799
  766SOL     OW 2755   0.088   1.801   6.513
  766SOL    HW1 2756   0.046   1.715   6.486
  766SOL    HW2 2757   0.182   1.804   6.479
  767SOL     OW 2758   0.504   1.568   6.496
  767SOL    HW1 2759   0.570   1.642   6.505
  767SOL    HW2 2760   0.548   1.489   6.454
  768SOL     OW 2761   1.002   0.796   6.824
  768SOL    HW1 2762   1.043   0.764   6.910
  768SOL    HW2 2763   0.906   0.769   6.821
  769SOL     OW 2764   0.040   0.544   6.700
  769SOL    HW1 2765   0.125   0.511   6.659
  769SOL    HW2 2766   0.053   0.559   6.798
  770SOL     OW 2767   0.189   0.520   7.308
  770SOL    HW1 2768   0.248   0.480   7.238
  770SOL    HW2 2769   0.131   0.591   7.267
  771SOL     OW 2770   1.369   0.950   7.246
  771SOL    HW1 2771   1.408   1.039   7.266
  771SOL    HW2 2772   1.379   0.930   7.149
  772SOL     OW 2773   0.815   0.572   5.911
  772SOL    HW1 2774   0.822   0.483   5.865
  772SOL    HW2 2775   0.721   0.606   5.903
  773SOL     OW 2776   1.657   0.604   6.792
  773SOL    HW1 2777   1.619   0.535   6.854
  773SOL    HW2 2778   1.739   0.568   6.748
  774SOL     OW 2779   0.252   1.564   7.330
  774SOL    HW1 2780   0.222   1.621   7.406
  774SOL    HW2 2781   0.245   1.467   7.356
  775SOL     OW 2782   0.671   0.464   6.855
  775SOL    HW1 2783   0.637   0.375   6.825
  775SOL    HW2 2784   0.697   0.518   6.775
  776SOL     OW 2785   0.930   1.678   7.051
  776SOL    HW1 2786   0.906   1.660   6.956
  776SOL    HW2 2787   0.960   1.772   7.061
  777SOL     OW 2788   0.473   0.500   5.777
  777SOL    HW1 2789   0.534   0.580   5.781
  777SOL    HW2 2790   0.378   0.531   5.784
  778SOL     OW 2791   0.159   1.137   7.052
  778SOL    HW1 2792   0.181   1.076   7.128
  778SOL    HW2 2793   0.169   1.088   6.966
  779SOL     OW 2794   1.347   1.059   6.820
  779SOL    HW1 2795   1.371   0.996   6.746
  779SOL    HW2 2796   1.257   1.099   6.802
  780SOL     OW 2797   1.302   0.855   5.895
  780SOL    HW1 2798   1.216   0.824   5.937
  780SOL    HW2 2799   1.298   0.841   5.796
  781SOL     OW 2800   0.083   1.258   6.608
  781SOL    HW1 2801   0.078   1.257   6.708
  781SOL    HW2 2802   0.000   1.217   6.570
  782SOL     OW 2803   0.688   1.662   7.302
  782SOL    HW1 2804   0.632   1.743   7.311
  782SOL    HW2 2805   0.740   1.666   7.216
  783SOL     OW 2806   1.726   0.135   6.109
  783SOL    HW1 2807   1.799   0.118   6.042
  783SOL    HW2 2808   1.695   0.048   6.147
  784SOL     OW 2809   1.388   1.573   6.063
  784SOL    HW1 2810   1.455   1.585   5.989
  784SOL    HW2 2811   1.348   1.662   6.086
  785SOL     OW 2812   0.130   1.794   7.437
  785SOL    HW1 2813   0.089   1.720   7.490
  785SOL    HW2 2814   0.194   1.845   7.495
  786SOL     OW 2815   1.280   0.927   6.258
  786SOL    HW1 2816   1.340   0.846   6.260
  786SOL    HW2 2817   1.320   0.996   6.198
  787SOL     OW 2818   0.830   1.273   7.008
  787SOL    HW1 2819   0.825   1.306   7.103
  787SOL    HW2 2820   0.744   1.292   6.962
  788SOL     OW 2821   0.672   1.616   5.740
  788SOL    HW1 2822   0.681   1.626   5.641
  788SOL    HW2 2823   0.632   1.527   5.761
  789SOL     OW 2824   1.650   1.720   6.980
  789SOL    HW1 2825   1.703   1.730   6.896
  789SOL    HW2 2826   1.623   1.810   7.014
  790SOL     OW 2827   1.841   0.175   6.549
  790SOL    HW1 2828   1.880   0.090   6.513
  790SOL    HW2 2829   1.743   0.177   6.530
  791SOL     OW 2830   0.263   0.326   6.306
  791SOL    HW1 2831   0.184   0.377   6.272
  791SOL    HW2 2832   0.254   0.311   6.404
  792SOL     OW 2833   1.194   1.612   5.617
  792SOL    HW1 2834   1.200   1.519   5.654
  792SOL    HW2 2835   1.135   1.612   5.537
  793SOL     OW 2836   0.822   1.002   6.958
  793SOL    HW1 2837   0.862   1.001   6.866
  793SOL    HW2 2838   0.832   1.094   6.998
  794SOL     OW 2839   0.916   0.910   5.877
  794SOL    HW1 2840   0.979   0.948   5.809
  794SOL    HW2 2841   0.956   0.827   5.916
  795SOL     OW 2842   1.504   1.607   5.630
  795SOL    HW1 2843   1.412   1.644   5.637
  795SOL    HW2 2844   1.542   1.627   5.540
  796SOL     OW 2845   0.372   1.288   7.076
  796SOL    HW1 2846   0.359   1.381   7.042
  796SOL    HW2 2847   0.288   1.236   7.063
  797SOL     OW 2848   1.614   1.292   6.875
  797SOL    HW1 2849   1.674   1.295   6.955
  797SOL    HW2 2850   1.539   1.356   6.888
  798SOL     OW 2851   1.039   1.098   6.282
  798SOL    HW1 2852   0.969   1.051   6.336
  798SOL    HW2 2853   1.098   1.030   6.239
  799SOL     OW 2854   1.014   0.236   6.557
  799SOL    HW1 2855   1.006   0.200   6.464
  799SOL    HW2 2856   1.012   0.160   6.622
  800SOL     OW 2857   0.590   1.487   6.077
  800SOL    HW1 2858   0.632   1.429   6.007
  800SOL    HW2 2859   0.546   1.566   6.033
  801SOL     OW 2860   1.709   0.385   6.967
  801SOL    HW1 2861   1.782   0.454   6.971
  801SOL    HW2 2862   1.737   0.310   6.908
  802SOL     OW 2863   0.255   1.348   5.876
  802SOL    HW1 2864   0.159   1.349   5.849
  802SOL    HW2 2865   0.267   1.401   5.960
  803SOL     OW 2866   0.105   1.013   7.312
  803SOL    HW1 2867   0.028   0.980   7.366
  803SOL    HW2 2868   0.190   0.983   7.354
  804SOL     OW 2869   0.672   0.203   7.075
  804SOL    HW1 2870   0.762   0.187   7.035
  804SOL    HW2 2871   0.680   0.208   7.174
  805SOL     OW 2872   0.075   0.345   5.619
  805SOL    HW1 2873  -0.017   0.317   5.590
  805SOL    HW2 2874   0.106   0.422   5.563
  806SOL     OW 2875   1.440   0.856   6.984
  806SOL    HW1 2876   1.383   0.908   6.921
  806SOL    HW2 2877   1.536   0.868   6.960
  807SOL     OW 2878   0.072   0.166   5.904
  807SOL    HW1 2879   0.055   0.249   5.850
  807SOL    HW2 2880   0.162   0.129   5.882
  808SOL     OW 2881   1.183   1.335   5.705
  808SOL    HW1 2882   1.084   1.324   5.707
  808SOL    HW2 2883   1.217   1.350   5.798
  809SOL     OW 2884   0.613   0.842   7.017
  809SOL    HW1 2885   0.669   0.923   7.000
  809SOL    HW2 2886   0.672   0.762   7.020
  810SOL     OW 2887   0.716   0.565   7.294
  810SOL    HW1 2888   0.735   0.630   7.368
  810SOL    HW2 2889   0.776   0.485   7.303
  811SOL     OW 2890   1.450   1.220   7.219
  811SOL    HW1 2891   1.441   1.210   7.318
  811SOL    HW2 2892   1.546   1.213   7.193
  812SOL     OW 2893   0.390   1.741   7.146
  812SOL    HW1 2894   0.299   1.782   7.144
  812SOL    HW2 2895   0.383   1.647   7.178
  813SOL     OW 2896   1.674   0.883   6.840
  813SOL    HW1 2897   1.647   0.794   6.803
  813SOL    HW2 2898   1.675   0.951   6.767
  814SOL     OW 2899   1.225   0.325   6.035
  814SOL    HW1 2900   1.290   0.251   6.024
  814SOL    HW2 2901   1.245   0.375   6.119
  815SOL     OW 2902   0.594   0.745   6.238
  815SOL    HW1 2903   0.644   0.830   6.219
  815SOL    HW2 2904   0.506   0.747   6.190
  816SOL     OW 2905   1.777   0.342   7.228
  816SOL    HW1 2906   1.760   0.373   7.134
  816SOL    HW2 2907   1.693   0.305   7.266
  817SOL     OW 2908   1.730   0.934   7.103
  817SOL    HW1 2909   1.768   1.025   7.118
  817SOL    HW2 2910   1.722   0.917   7.004
  818SOL     OW 2911   0.859   1.374   5.602
  818SOL    HW1 2912   0.813   1.389   5.690
  818SOL    HW2 2913   0.903   1.459   5.572
  819SOL     OW 2914   0.661   1.790   6.539
  819SOL    HW1 2915   0.615   1.878   6.526
  819SOL    HW2 2916   0.760   1.802   6.532
  820SOL     OW 2917   0.859   0.956   6.447
  820SOL    HW1 2918   0.913   0.887   6.495
  820SOL    HW2 2919   0.827   1.025   6.513
  821SOL     OW 2920   1.083   0.984   5.673
  821SOL    HW1 2921   1.060   1.037   5.591
  821SOL    HW2 2922   1.164   0.928   5.654
  822SOL     OW 2923   0.221   1.314   7.430
  822SOL    HW1 2924   0.156   1.241   7.409
  822SOL    HW2 2925   0.225   1.328   7.528
  823SOL     OW 2926   0.079   1.240   6.239
  823SOL    HW1 2927   0.078   1.193   6.327
  823SOL    HW2 2928   0.161   1.212   6.188
  824SOL     OW 2929   0.672   1.391   7.210
  824SOL    HW1 2930   0.594   1.341   7.248
  824SOL    HW2 2931   0.669   1.486   7.241
  825SOL     OW 2932   1.824   0.192   6.813
  825SOL    HW1 2933   1.820   0.102   6.857
  825SOL    HW2 2934   1.827   0.181   6.714
  826SOL     OW 2935   0.428   0.424   6.106
  826SOL    HW1 2936   0.458   0.352   6.044
  826SOL    HW2 2937   0.389   0.384   6.189
  827SOL     OW 2938   1.705   1.487   6.690
  827SOL    HW1 2939   1.612   1.462   6.663
  827SOL    HW2 2940   1.731   1.437   6.772
  828SOL     OW 2941   0.317   0.547   6.866
  828SOL    HW1 2942   0.355   0.488   6.938
  828SOL    HW2 2943   0.357   0.521   6.778
  829SOL     OW 2944   0.812   1.586   6.273
  829SOL    HW1 2945   0.844   1.596   6.179
  829SOL    HW2 2946   0.733   1.524   6.275
  830SOL     OW 2947   1.424   0.214   6.698
  830SOL    HW1 2948   1.476   0.149   6.753
  830SOL    HW2 2949   1.375   0.277   6.759
  831SOL     OW 2950   1.001   0.034   6.740
  831SOL    HW1 2951   0.938  -0.038   6.709
  831SOL    HW2 2952   1.094  -0.002   6.740
  832SOL     OW 2953   0.770   1.330   5.887
  832SOL    HW1 2954   0.724   1.243   5.904
  832SOL    HW2 2955   0.861   1.327   5.928
  833SOL     OW 2956   0.618   1.567   6.870
  833SOL    HW1 2957   0.613   1.649   6.927
  833SOL    HW2 2958   0.707   1.564   6.825
  834SOL     OW 2959   1.352   0.052   5.754
  834SOL    HW1 2960   1.387   0.011   5.670
  834SOL    HW2 2961   1.262   0.014   5.774
  835SOL     OW 2962   1.300   0.453   6.277
  835SOL    HW1 2963   1.241   0.533   6.281
  835SOL    HW2 2964   1.315   0.418   6.370
  836SOL     OW 2965   1.593   0.221   6.468
  836SOL    HW1 2966   1.509   0.220   6.522
  836SOL    HW2 2967   1.595   0.304   6.412
  837SOL     OW 2968   0.039   1.077   5.886
  837SOL    HW1 2969   0.138   1.066   5.877
  837SOL    HW2 2970  -0.001   0.991   5.918
  838SOL     OW 2971   0.875   1.646   5.923
  838SOL    HW1 2972   0.798   1.611   5.869
  838SOL    HW2 2973   0.843   1.717   5.985
  839SOL     OW 2974   0.230   0.628   7.561
  839SOL    HW1 2975   0.137   0.626   7.598
  839SOL    HW2 2976   0.231   0.589   7.469
  840SOL     OW 2977   0.225   0.275   8.444
  840SOL    HW1 2978   0.260   0.258   8.536
  840SOL    HW2 2979   0.137   0.230   8.432
  841SOL     OW 2980   0.019   0.368   8.095
  841SOL    HW1 2981  -0.063   0.411   8.134
  841SOL    HW2 2982  -0.009   0.295   8.032
  842SOL     OW 2983   0.569   1.275   8.613
  842SOL    HW1 2984   0.476   1.268   8.576
  842SOL    HW2 2985   0.580   1.364   8.657
  843SOL     OW 2986   1.555   1.511   8.151
  843SOL    HW1 2987   1.498   1.495   8.232
  843SOL    HW2 2988   1.496   1.521   8.071
  844SOL     OW 2989   1.135   0.703   8.165
  844SOL    HW1 2990   1.192   0.781   8.140
  844SOL    HW2 2991   1.075   0.729   8.241
  845SOL     OW 2992   1.755   0.607   7.679
  845SOL    HW1 2993   1.743   0.594   7.580
  845SOL    HW2 2994   1.725   0.526   7.728
  846SOL     OW 2995   0.768   1.144   8.471
  846SOL    HW1 2996   0.690   1.161   8.531
  846SOL    HW2 2997   0.802   1.231   8.435
  847SOL     OW 2998   0.850   0.798   9.271
  847SOL    HW1 2999   0.846   0.874   9.336
  847SOL    HW2 3000   0.872   0.834   9.180
  848SOL     OW 3001   0.685   1.012   8.113
  848SOL    HW1 3002   0.754   0.996   8.183
  848SOL    HW2 3003   0.612   1.069   8.151
  849SOL     OW 3004   0.686   1.161   9.251
  849SOL    HW1 3005   0.746   1.240   9.265
  849SOL    HW2 3006   0.600   1.192   9.210
  850SOL     OW 3007   0.335   1.435   8.509
  850SOL    HW1 3008   0.257   1.404   8.456
  850SOL    HW2 3009   0.393   1.493   8.452
  851SOL     OW 3010   1.460   1.505   8.787
  851SOL    HW1 3011   1.484   1.599   8.813
  851SOL    HW2 3012   1.444   1.451   8.869
  852SOL     OW 3013   0.438   0.392   8.947
  852SOL    HW1 3014   0.520   0.336   8.956
  852SOL    HW2 3015   0.357   0.334   8.951
  853SOL     OW 3016   1.603   0.447   8.185
  853SOL    HW1 3017   1.529   0.493   8.135
  853SOL    HW2 3018   1.654   0.515   8.238
  854SOL     OW 3019   0.231   1.713   7.931
  854SOL    HW1 3020   0.265   1.790   7.985
  854SOL    HW2 3021   0.275   1.713   7.841
  855SOL     OW 3022   1.127   1.341   9.138
  855SOL    HW1 3023   1.174   1.341   9.226
  855SOL    HW2 3024   1.079   1.254   9.127
  856SOL     OW 3025   0.230   1.434   7.986
  856SOL    HW1 3026   0.204   1.530   7.986
  856SOL    HW2 3027   0.159   1.380   8.031
  857SOL     OW 3028   0.240   1.091   8.334
  857SOL    HW1 3029   0.254   1.007   8.386
  857SOL    HW2 3030   0.185   1.155   8.389
  858SOL     OW 3031   0.620   1.786   8.887
  858SOL    HW1 3032   0.528   1.769   8.922
  858SOL    HW2 3033   0.648   1.878   8.913
  859SOL     OW 3034   0.606   0.964   7.571
  859SOL    HW1 3035   0.613   1.048   7.517
  859SOL    HW2 3036   0.652   0.977   7.659
  860SOL     OW 3037   1.594   0.114   8.928
  860SOL    HW1 3038   1.576   0.181   8.856
  860SOL    HW2 3039   1.591   0.160   9.017
  861SOL     OW 3040   0.122   0.643   8.011
  861SOL    HW1 3041   0.077   0.555   8.028
  861SOL    HW2 3042   0.121   0.697   8.095
  862SOL     OW 3043   0.027   1.596   7.565
  862SOL    HW1 3044   0.008   1.500   7.586
  862SOL    HW2 3045  -0.006   1.654   7.640
  863SOL     OW 3046   1.689   0.922   8.060
  863SOL    HW1 3047   1.784   0.893   8.068
  863SOL    HW2 3048   1.681   0.987   7.985
  864SOL     OW 3049   1.641   1.108   7.880
  864SOL    HW1 3050   1.727   1.110   7.828
  864SOL    HW2 3051   1.655   1.155   7.968
  865SOL     OW 3052   0.113   0.737   9.045
  865SOL    HW1 3053   0.201   0.724   9.090
  865SOL    HW2 3054   0.100   0.834   9.023
  866SOL     OW 3055   0.613   1.365   8.174
  866SOL    HW1 3056   0.564   1.278   8.183
  866SOL    HW2 3057   0.590   1.408   8.087
  867SOL     OW 3058   1.293   1.228   8.871
  867SOL    HW1 3059   1.330   1.155   8.813
  867SOL    HW2 3060   1.345   1.233   8.956
  868SOL     OW 3061   0.809   0.004   7.950
  868SOL    HW1 3062   0.849   0.095   7.941
  868SOL    HW2 3063   0.709   0.012   7.956
  869SOL     OW 3064   0.197   0.976   8.712
  869SOL    HW1 3065   0.286   0.931   8.698
  869SOL    HW2 3066   0.124   0.911   8.693
  870SOL     OW 3067   1.525   0.999   7.638
  870SOL    HW1 3068   1.462   0.923   7.651
  870SOL    HW2 3069   1.573   1.017   7.724
  871SOL     OW 3070   1.187   1.792   9.064
  871SOL    HW1 3071   1.211   1.852   8.988
  871SOL    HW2 3072   1.194   1.697   9.034
  872SOL     OW 3073   0.317   0.251   9.249
  872SOL    HW1 3074   0.388   0.322   9.255
  872SOL    HW2 3075   0.229   0.290   9.277
  873SOL     OW 3076   1.466   1.417   8.401
  873SOL    HW1 3077   1.407   1.423   8.481
  873SOL    HW2 3078   1.451   1.329   8.355
  874SOL     OW 3079   1.667   1.714   8.020
  874SOL    HW1 3080   1.626   1.691   7.932
  874SOL    HW2 3081   1.649   1.640   8.085
  875SOL     OW 3082   0.598   0.729   7.718
  875SOL    HW1 3083   0.622   0.798   7.650
  875SOL    HW2 3084   0.520   0.762   7.772
  876SOL     OW 3085   1.281   0.345   8.392
  876SOL    HW1 3086   1.195   0.295   8.379
  876SOL    HW2 3087   1.343   0.291   8.448
  877SOL     OW 3088   0.807   0.605   8.913
  877SOL    HW1 3089   0.760   0.602   9.002
  877SOL    HW2 3090   0.756   0.550   8.847
  878SOL     OW 3091   1.394   0.469   9.122
  878SOL    HW1 3092   1.374   0.512   9.210
  878SOL    HW2 3093   1.472   0.407   9.131
  879SOL     OW 3094   0.973   0.890   9.020
  879SOL    HW1 3095   1.019   0.806   8.991
  879SOL    HW2 3096   0.917   0.924   8.945
  880SOL     OW 3097   0.991   0.410   8.690
  880SOL    HW1 3098   0.914   0.444   8.744
  880SOL    HW2 3099   0.957   0.359   8.611
  881SOL     OW 3100   1.041   0.701   7.877
  881SOL    HW1 3101   1.067   0.697   7.973
  881SOL    HW2 3102   0.956   0.650   7.863
  882SOL     OW 3103   0.076   0.811   8.237
  882SOL    HW1 3104   0.175   0.799   8.246
  882SOL    HW2 3105   0.052   0.906   8.258
  883SOL     OW 3106   0.130   1.821   9.019
  883SOL    HW1 3107   0.120   1.806   9.118
  883SOL    HW2 3108   0.044   1.857   8.983
  884SOL     OW 3109   0.865   0.348   7.643
  884SOL    HW1 3110   0.924   0.411   7.594
  884SOL    HW2 3111   0.884   0.254   7.614
  885SOL     OW 3112   1.719   0.585   9.279
  885SOL    HW1 3113   1.693   0.674   9.243
  885SOL    HW2 3114   1.717   0.517   9.206
  886SOL     OW 3115   1.362   1.144   7.993
  886SOL    HW1 3116   1.445   1.115   7.945
  886SOL    HW2 3117   1.313   1.211   7.937
  887SOL     OW 3118   0.550   0.196   8.333
  887SOL    HW1 3119   0.545   0.191   8.433
  887SOL    HW2 3120   0.552   0.292   8.304
  888SOL     OW 3121   1.008   1.456   7.925
  888SOL    HW1 3122   0.962   1.528   7.873
  888SOL    HW2 3123   1.004   1.476   8.023
  889SOL     OW 3124   0.351   1.801   8.301
  889SOL    HW1 3125   0.401   1.715   8.307
  889SOL    HW2 3126   0.416   1.878   8.298
  890SOL     OW 3127   1.795   1.066   8.321
  890SOL    HW1 3128   1.733   1.051   8.245
  890SOL    HW2 3129   1.743   1.077   8.406
  891SOL     OW 3130   1.227   1.550   8.954
  891SOL    HW1 3131   1.233   1.473   9.018
  891SOL    HW2 3132   1.175   1.524   8.874
  892SOL     OW 3133   0.321   0.943   7.690
  892SOL    HW1 3134   0.403   0.982   7.648
  892SOL    HW2 3135   0.294   0.861   7.641
  893SOL     OW 3136   1.458   0.735   8.176
  893SOL    HW1 3137   1.453   0.670   8.251
  893SOL    HW2 3138   1.538   0.794   8.189
  894SOL     OW 3139   0.461   1.266   9.175
  894SOL    HW1 3140   0.411   1.267   9.089
  894SOL    HW2 3141   0.398   1.248   9.251
  895SOL     OW 3142   1.111   1.776   7.685
  895SOL    HW1 3143   1.051   1.714   7.735
  895SOL    HW2 3144   1.142   1.732   7.600
  896SOL     OW 3145   0.202   0.285   8.946
  896SOL    HW1 3146   0.122   0.345   8.933
  896SOL    HW2 3147   0.192   0.236   9.032
  897SOL     OW 3148   0.464   1.743   7.771
  897SOL    HW1 3149   0.497   1.782   7.857
  897SOL    HW2 3150   0.540   1.736   7.706
  898SOL     OW 3151   1.400   0.107   7.874
  898SOL    HW1 3152   1.376   0.070   7.784
  898SOL    HW2 3153   1.499   0.123   7.878
  899SOL     OW 3154   0.249   1.785   8.689
  899SOL    HW1 3155   0.306   1.720   8.739
  899SOL    HW2 3156   0.233   1.752   8.596
  900SOL     OW 3157   0.940   1.698   8.352
  900SOL    HW1 3158   1.020   1.641   8.373
  900SOL    HW2 3159   0.891   1.658   8.275
  901SOL     OW 3160   0.382   0.700   7.928
  901SOL    HW1 3161   0.427   0.610   7.925
  901SOL    HW2 3162   0.288   0.689   7.961
  902SOL     OW 3163   1.547   0.222   9.177
  902SOL    HW1 3164   1.542   0.259   9.269
  902SOL    HW2 3165   1.475   0.153   9.165
  903SOL     OW 3166   0.614   0.122   7.565
  903SOL    HW1 3167   0.712   0.100   7.572
  903SOL    HW2 3168   0.583   0.105   7.472
  904SOL     OW 3169   0.781   0.264   9.197
  904SOL    HW1 3170   0.848   0.203   9.240
  904SOL    HW2 3171   0.708   0.283   9.262
  905SOL     OW 3172   0.888   1.514   8.643
  905SOL    HW1 3173   0.865   1.489   8.549
  905SOL    HW2 3174   0.949   1.445   8.682
  906SOL     OW 3175   1.351   0.590   8.881
  906SOL    HW1 3176   1.379   0.547   8.966
  906SOL    HW2 3177   1.376   0.686   8.882
  907SOL     OW 3178   0.803   1.402   8.372
  907SOL    HW1 3179   0.893   1.416   8.330
  907SOL    HW2 3180   0.732   1.404   8.301
  908SOL     OW 3181   0.922   0.503   8.347
  908SOL    HW1 3182   0.897   0.494   8.251
  908SOL    HW2 3183   0.970   0.421   8.378
  909SOL     OW 3184   0.539   0.064   7.960
  909SOL    HW1 3185   0.458   0.065   8.018
  909SOL    HW2 3186   0.542   0.147   7.905
  910SOL     OW 3187   1.434   1.188   7.489
  910SOL    HW1 3188   1.466   1.112   7.546
  910SOL    HW2 3189   1.342   1.215   7.519
  911SOL     OW 3190   0.297   0.035   7.619
  911SOL    HW1 3191   0.346   0.119   7.598
  911SOL    HW2 3192   0.359  -0.030   7.664
  912SOL     OW 3193   0.935   0.236   7.928
  912SOL    HW1 3194   0.887   0.277   7.850
  912SOL    HW2 3195   1.034   0.234   7.909
  913SOL     OW 3196   1.076   0.683   8.912
  913SOL    HW1 3197   0.996   0.622   8.915
  913SOL    HW2 3198   1.157   0.630   8.888
  914SOL     OW 3199   1.227   1.570   8.241
  914SOL    HW1 3200   1.248   1.644   8.176
  914SOL    HW2 3201   1.295   1.570   8.314
  915SOL     OW 3202   0.459   1.152   8.189
  915SOL    HW1 3203   0.388   1.125   8.254
  915SOL    HW2 3204   0.433   1.124   8.096
  916SOL     OW 3205   1.271   1.797   8.039
  916SOL    HW1 3206   1.315   1.861   7.975
  916SOL    HW2 3207   1.221   1.849   8.109
  917SOL     OW 3208   1.032   0.549   7.464
  917SOL    HW1 3209   0.991   0.631   7.425
  917SOL    HW2 3210   1.096   0.575   7.537
  918SOL     OW 3211   0.078   0.556   8.834
  918SOL    HW1 3212   0.170   0.555   8.793
  918SOL    HW2 3213   0.072   0.630   8.901
  919SOL     OW 3214   0.561   0.222   8.595
  919SOL    HW1 3215   0.599   0.138   8.632
  919SOL    HW2 3216   0.473   0.241   8.639
  920SOL     OW 3217   0.866   0.454   8.090
  920SOL    HW1 3218   0.834   0.526   8.028
  920SOL    HW2 3219   0.890   0.373   8.037
  921SOL     OW 3220   1.017   0.039   8.201
  921SOL    HW1 3221   0.945   0.044   8.132
  921SOL    HW2 3222   0.993  -0.030   8.270
  922SOL     OW 3223   1.429   1.173   8.315
  922SOL    HW1 3224   1.374   1.089   8.308
  922SOL    HW2 3225   1.455   1.202   8.223
  923SOL     OW 3226   1.466   0.590   8.440
  923SOL    HW1 3227   1.436   0.495   8.447
  923SOL    HW2 3228   1.539   0.606   8.506
  924SOL     OW 3229   1.857   0.833   7.825
  924SOL    HW1 3230   1.899   0.769   7.889
  924SOL    HW2 3231   1.819   0.782   7.747
  925SOL     OW 3232   0.488   1.385   7.622
  925SOL    HW1 3233   0.401   1.370   7.669
  925SOL    HW2 3234   0.471   1.411   7.527
  926SOL     OW 3235   1.664   1.280   8.105
  926SOL    HW1 3236   1.763   1.288   8.119
  926SOL    HW2 3237   1.619   1.364   8.136
  927SOL     OW 3238   1.390   0.575   7.526
  927SOL    HW1 3239   1.336   0.554   7.607
  927SOL    HW2 3240   1.481   0.534   7.535
  928SOL     OW 3241   0.527   0.256   7.776
  928SOL    HW1 3242   0.554   0.197   7.701
  928SOL    HW2 3243   0.527   0.351   7.745
  929SOL     OW 3244   1.754   1.223   9.036
  929SOL    HW1 3245   1.845   1.184   9.023
  929SOL    HW2 3246   1.762   1.319   9.060
  930SOL     OW 3247   1.064   1.347   8.788
  930SOL    HW1 3248   0.984   1.324   8.843
  930SOL    HW2 3249   1.147   1.321   8.837
  931SOL     OW 3250   1.592   1.629   9.073
  931SOL    HW1 3251   1.619   1.663   8.983
  931SOL    HW2 3252   1.671   1.591   9.119
  932SOL     OW 3253   1.111   1.195   8.548
  932SOL    HW1 3254   1.071   1.239   8.629
  932SOL    HW2 3255   1.070   1.232   8.465
  933SOL     OW 3256   1.638   1.099   8.527
  933SOL    HW1 3257   1.643   1.180   8.586
  933SOL    HW2 3258   1.552   1.101   8.476
  934SOL     OW 3259   0.915   0.089   8.850
  934SOL    HW1 3260   0.940   0.069   8.755
  934SOL    HW2 3261   0.987   0.145   8.892
  935SOL     OW 3262   0.980   1.116   9.167
  935SOL    HW1 3263   0.881   1.122   9.177
  935SOL    HW2 3264   1.003   1.036   9.111
  936SOL     OW 3265   0.705   1.050   7.816
  936SOL    HW1 3266   0.691   1.057   7.915
  936SOL    HW2 3267   0.789   0.999   7.798
  937SOL     OW 3268   0.410   0.813   8.699
  937SOL    HW1 3269   0.496   0.825   8.749
  937SOL    HW2 3270   0.368   0.726   8.726
  938SOL     OW 3271   1.274   0.386   8.710
  938SOL    HW1 3272   1.295   0.460   8.774
  938SOL    HW2 3273   1.185   0.403   8.667
  939SOL     OW 3274   0.064   1.564   8.779
  939SOL    HW1 3275   0.018   1.646   8.745
  939SOL    HW2 3276   0.162   1.583   8.788
  940SOL     OW 3277   0.367   1.100   7.949
  940SOL    HW1 3278   0.360   1.183   7.893
  940SOL    HW2 3279   0.371   1.020   7.889
  941SOL     OW 3280   0.566   0.537   8.313
  941SOL    HW1 3281   0.578   0.603   8.239
  941SOL    HW2 3282   0.612   0.571   8.396
  942SOL     OW 3283   1.252   1.348   7.836
  942SOL    HW1 3284   1.302   1.425   7.876
  942SOL    HW2 3285   1.157   1.350   7.868
  943SOL     OW 3286   1.272   1.445   8.590
  943SOL    HW1 3287   1.319   1.458   8.677
  943SOL    HW2 3288   1.206   1.371   8.599
  944SOL     OW 3289   1.582   0.639   7.920
  944SOL    HW1 3290   1.551   0.700   7.993
  944SOL    HW2 3291   1.632   0.691   7.851
  945SOL     OW 3292   0.354   1.510   8.777
  945SOL    HW1 3293   0.333   1.466   8.690
  945SOL    HW2 3294   0.451   1.536   8.780
  946SOL     OW 3295   0.402   0.751   9.046
  946SOL    HW1 3296   0.470   0.806   8.999
  946SOL    HW2 3297   0.442   0.663   9.073
  947SOL     OW 3298   1.587   0.779   9.118
  947SOL    HW1 3299   1.495   0.817   9.113
  947SOL    HW2 3300   1.647   0.826   9.053
  948SOL     OW 3301   1.013   0.105   9.218
  948SOL    HW1 3302   1.019   0.190   9.166
  948SOL    HW2 3303   1.045   0.029   9.161
  949SOL     OW 3304   0.504   0.050   9.188
  949SOL    HW1 3305   0.462  -0.007   9.118
  949SOL    HW2 3306   0.438   0.119   9.220
  950SOL     OW 3307   0.573   0.870   8.477
  950SOL    HW1 3308   0.617   0.959   8.468
  950SOL    HW2 3309   0.510   0.870   8.554
  951SOL     OW 3310   1.360   0.862   8.493
  951SOL    HW1 3311   1.285   0.862   8.427
  951SOL    HW2 3312   1.397   0.770   8.502
  952SOL     OW 3313   1.209   0.525   7.723
  952SOL    HW1 3314   1.222   0.441   7.777
  952SOL    HW2 3315   1.180   0.599   7.783
  953SOL     OW 3316   0.307   0.213   8.679
  953SOL    HW1 3317   0.284   0.250   8.769
  953SOL    HW2 3318   0.277   0.118   8.673
  954SOL     OW 3319   0.037   1.310   8.730
  954SOL    HW1 3320   0.090   1.261   8.798
  954SOL    HW2 3321   0.059   1.408   8.735
  955SOL     OW 3322   0.732   0.634   8.512
  955SOL    HW1 3323   0.791   0.608   8.436
  955SOL    HW2 3324   0.704   0.730   8.501
  956SOL     OW 3325   1.728   0.935   9.302
  956SOL    HW1 3326   1.682   0.928   9.213
  956SOL    HW2 3327   1.666   0.979   9.368
  957SOL     OW 3328   0.307   0.063   8.066
  957SOL    HW1 3329   0.296   0.157   8.099
  957SOL    HW2 3330   0.302   0.000   8.143
  958SOL     OW 3331   1.622   0.367   7.822
  958SOL    HW1 3332   1.624   0.291   7.886
  958SOL    HW2 3333   1.574   0.444   7.862
  959SOL     OW 3334   1.023   0.766   8.414
  959SOL    HW1 3335   1.038   0.787   8.510
  959SOL    HW2 3336   0.993   0.671   8.405
  960SOL     OW 3337   0.980   1.573   9.148
  960SOL    HW1 3338   0.960   1.617   9.060
  960SOL    HW2 3339   1.019   1.482   9.132
  961SOL     OW 3340   1.859   1.518   9.053
  961SOL    HW1 3341   1.873   1.545   8.958
  961SOL    HW2 3342   1.942   1.540   9.106
  962SOL     OW 3343   0.350   0.898   9.252
  962SOL    HW1 3344   0.426   0.942   9.300
  962SOL    HW2 3345   0.385   0.851   9.170
  963SOL     OW 3346   1.540   0.274   7.573
  963SOL    HW1 3347   1.479   0.199   7.596
  963SOL    HW2 3348   1.562   0.326   7.656
  964SOL     OW 3349   1.303   0.838   7.490
  964SOL    HW1 3350   1.337   0.745   7.505
  964SOL    HW2 3351   1.321   0.865   7.395
  965SOL     OW 3352   1.068   1.333   8.297
  965SOL    HW1 3353   1.075   1.249   8.242
  965SOL    HW2 3354   1.130   1.402   8.261
  966SOL     OW 3355   0.319   0.810   8.397
  966SOL    HW1 3356   0.412   0.846   8.402
  966SOL    HW2 3357   0.313   0.725   8.449
  967SOL     OW 3358   0.339   0.509   8.454
  967SOL    HW1 3359   0.287   0.426   8.437
  967SOL    HW2 3360   0.416   0.514   8.390
  968SOL     OW 3361   1.138   0.380   9.126
  968SOL    HW1 3362   1.093   0.443   9.190
  968SOL    HW2 3363   1.231   0.411   9.109
  969SOL     OW 3364   1.160   0.207   8.925
  969SOL    HW1 3365   1.160   0.271   9.002
  969SOL    HW2 3366   1.188   0.255   8.842
  970SOL     OW 3367   0.008   1.326   7.648
  970SOL    HW1 3368  -0.085   1.347   7.617
  970SOL    HW2 3369   0.018   1.227   7.661
  971SOL     OW 3370   0.088   1.801   8.375
  971SOL    HW1 3371   0.046   1.715   8.348
  971SOL    HW2 3372   0.182   1.804   8.341
  972SOL     OW 3373   0.504   1.568   8.358
  972SOL    HW1 3374   0.570   1.642   8.367
  972SOL    HW2 3375   0.548   1.489   8.316
  973SOL     OW 3376   1.002   0.796   8.686
  973SOL    HW1 3377   1.043   0.764   8.772
  973SOL    HW2 3378   0.906   0.769   8.683
  974SOL     OW 3379   0.040   0.544   8.562
  974SOL    HW1 3380   0.125   0.511   8.521
  974SOL    HW2 3381   0.053   0.559   8.660
  975SOL     OW 3382   0.189   0.520   9.170
  975SOL    HW1 3383   0.248   0.480   9.100
  975SOL    HW2 3384   0.131   0.591   9.129
  976SOL     OW 3385   1.369   0.950   9.108
  976SOL    HW1 3386   1.408   1.039   9.128
  976SOL    HW2 3387   1.379   0.930   9.011
  977SOL     OW 3388   0.815   0.572   7.773
  977SOL    HW1 3389   0.822   0.483   7.727
  977SOL    HW2 3390   0.721   0.606   7.765
  978SOL     OW 3391   1.657   0.604   8.654
  978SOL    HW1 3392   1.619   0.535   8.716
  978SOL    HW2 3393   1.739   0.568   8.610
  979SOL     OW 3394   0.252   1.564   9.192
  979SOL    HW1 3395   0.222   1.621   9.268
  979SOL    HW2 3396   0.245   1.467   9.218
  980SOL     OW 3397   0.671   0.464   8.717
  980SOL    HW1 3398   0.637   0.375   8.687
  980SOL    HW2 3399   0.697   0.518   8.637
  981SOL     OW 3400   0.930   1.678   8.913
  981SOL    HW1 3401   0.906   1.660   8.818
  981SOL    HW2 3402   0.960   1.772   8.923
  982SOL     OW 3403   0.473   0.500   7.639
  982SOL    HW1 3404   0.534   0.580   7.643
  982SOL    HW2 3405   0.378   0.531   7.646
  983SOL     OW 3406   0.159   1.137   8.914
  983SOL    HW1 3407   0.181   1.076   8.990
  983SOL    HW2 3408   0.169   1.088   8.828
  984SOL     OW 3409   1.347   1.059   8.682
  984SOL    HW1 3410   1.371   0.996   8.608
  984SOL    HW2 3411   1.257   1.099   8.664
  985SOL     OW 3412   1.302   0.855   7.757
  985SOL    HW1 3413   1.216   0.824   7.799
  985SOL    HW2 3414   1.298   0.841   7.658
  986SOL     OW 3415   1.759   1.747   8.602
  986SOL    HW1 3416   1.820   1.777   8.529
  986SOL    HW2 3417   1.721   1.658   8.580
  987SOL     OW 3418   1.252   1.731   8.576
  987SOL    HW1 3419   1.336   1.736   8.522
  987SOL    HW2 3420   1.229   1.635   8.594
  988SOL     OW 3421   0.083   1.258   8.470
  988SOL    HW1 3422   0.078   1.257   8.570
  988SOL    HW2 3423   0.000   1.217   8.432
  989SOL     OW 3424   0.688   1.662   9.164
  989SOL    HW1 3425   0.632   1.743   9.173
  989SOL    HW2 3426   0.740   1.666   9.078
  990SOL     OW 3427   1.726   0.135   7.971
  990SOL    HW1 3428   1.799   0.118   7.904
  990SOL    HW2 3429   1.695   0.048   8.009
  991SOL     OW 3430   1.388   1.573   7.925
  991SOL    HW1 3431   1.455   1.585   7.851
  991SOL    HW2 3432   1.348   1.662   7.948
  992SOL     OW 3433   0.130   1.794   9.299
  992SOL    HW1 3434   0.089   1.720   9.352
  992SOL    HW2 3435   0.194   1.845   9.357
  993SOL     OW 3436   1.280   0.927   8.120
  993SOL    HW1 3437   1.340   0.846   8.122
  993SOL    HW2 3438   1.320   0.996   8.060
  994SOL     OW 3439   0.830   1.273   8.870
  994SOL    HW1 3440   0.825   1.306   8.965
  994SOL    HW2 3441   0.744   1.292   8.824
  995SOL     OW 3442   0.672   1.616   7.602
  995SOL    HW1 3443   0.681   1.626   7.503
  995SOL    HW2 3444   0.632   1.527   7.623
  996SOL     OW 3445   1.650   1.720   8.842
  996SOL    HW1 3446   1.703   1.730   8.758
  996SOL    HW2 3447   1.623   1.810   8.876
  997SOL     OW 3448   1.841   0.175   8.411
  997SOL    HW1 3449   1.880   0.090   8.375
  997SOL    HW2 3450   1.743   0.177   8.392
  998SOL     OW 3451   0.263   0.326   8.168
  998SOL    HW1 3452   0.184   0.377   8.134
  998SOL    HW2 3453   0.254   0.311   8.266
  999SOL     OW 3454   1.194   1.612   7.479
  999SOL    HW1 3455   1.200   1.519   7.516
  999SOL    HW2 3456   1.135   1.612   7.399
 1000SOL     OW 3457   0.822   1.002   8.820
 1000SOL    HW1 3458   0.862   1.001   8.728
 1000SOL    HW2 3459   0.832   1.094   8.860
 1001SOL     OW 3460   0.916   0.910   7.739
 1001SOL    HW1 3461   0.979   0.948   7.671
 1001SOL    HW2 3462   0.956   0.827   7.778
 1002SOL     OW 3463   0.372   1.288   8.938
 1002SOL    HW1 3464   0.359   1.381   8.904
 1002SOL    HW2 3465   0.288   1.236   8.925
 1003SOL     OW 3466   1.614   1.292   8.737
 1003SOL    HW1 3467   1.674   1.295   8.817
 1003SOL    HW2 3468   1.539   1.356   8.750
 1004SOL     OW 3469   1.039   1.098   8.144
 1004SOL    HW1 3470   0.969   1.051   8.198
 1004SOL    HW2 3471   1.098   1.030   8.101
 1005SOL     OW 3472   1.014   0.236   8.419
 1005SOL    HW1 3473   1.006   0.200   8.326
 1005SOL    HW2 3474   1.012   0.160   8.484
 1006SOL     OW 3475   0.590   1.487   7.939
 1006SOL    HW1 3476   0.632   1.429   7.869
 1006SOL    HW2 3477   0.546   1.566   7.895
 1007SOL     OW 3478   1.709   0.385   8.829
 1007SOL    HW1 3479   1.782   0.454   8.833
 1007SOL    HW2 3480   1.737   0.310   8.770
 1008SOL     OW 3481   0.255   1.348   7.738
 1008SOL    HW1 3482   0.159   1.349   7.711
 1008SOL    HW2 3483   0.267   1.401   7.822
 1009SOL     OW 3484   0.105   1.013   9.174
 1009SOL    HW1 3485   0.028   0.980   9.228
 1009SOL    HW2 3486   0.190   0.983   9.216
 1010SOL     OW 3487   0.672   0.203   8.937
 1010SOL    HW1 3488   0.762   0.187   8.897
 1010SOL    HW2 3489   0.680   0.208   9.036
 1011SOL     OW 3490   0.075   0.345   7.481
 1011SOL    HW1 3491  -0.017   0.317   7.452
 1011SOL    HW2 3492   0.106   0.422   7.425
 1012SOL     OW 3493   1.440   0.856   8.846
 1012SOL    HW1 3494   1.383   0.908   8.783
 1012SOL    HW2 3495   1.536   0.868   8.822
 1013SOL     OW 3496   0.072   0.166   7.766
 1013SOL    HW1 3497   0.055   0.249   7.712
 1013SOL    HW2 3498   0.162   0.129   7.744
 1014SOL     OW 3499   1.183   1.335   7.567
 1014SOL    HW1 3500   1.084   1.324   7.569
 1014SOL    HW2 3501   1.217   1.350   7.660
 1015SOL     OW 3502   0.613   0.842   8.879
 1015SOL    HW1 3503   0.669   0.923   8.862
 1015SOL    HW2 3504   0.672   0.762   8.882
 1016SOL     OW 3505   1.493   1.767   8.407
 1016SOL    HW1 3506   1.526   1.831   8.338
 1016SOL    HW2 3507   1.559   1.761   8.482
 1017SOL     OW 3508   0.716   0.565   9.156
 1017SOL    HW1 3509   0.735   0.630   9.230
 1017SOL    HW2 3510   0.776   0.485   9.165
 1018SOL     OW 3511   1.450   1.220   9.081
 1018SOL    HW1 3512   1.441   1.210   9.180
 1018SOL    HW2 3513   1.546   1.213   9.055
 1019SOL     OW 3514   0.390   1.741   9.008
 1019SOL    HW1 3515   0.299   1.782   9.006
 1019SOL    HW2 3516   0.383   1.647   9.040
 1020SOL     OW 3517   1.674   0.883   8.702
 1020SOL    HW1 3518   1.647   0.794   8.665
 1020SOL    HW2 3519   1.675   0.951   8.629
 1021SOL     OW 3520   1.225   0.325   7.897
 1021SOL    HW1 3521   1.290   0.251   7.886
 1021SOL    HW2 3522   1.245   0.375   7.981
 1022SOL     OW 3523   0.594   0.745   8.100
 1022SOL    HW1 3524   0.644   0.830   8.081
 1022SOL    HW2 3525   0.506   0.747   8.052
 1023SOL     OW 3526   1.777   0.342   9.090
 1023SOL    HW1 3527   1.760   0.373   8.996
 1023SOL    HW2 3528   1.693   0.305   9.128
 1024SOL     OW 3529   1.730   0.934   8.965
 1024SOL    HW1 3530   1.768   1.025   8.980
 1024SOL    HW2 3531   1.722   0.917   8.866
 1025SOL     OW 3532   0.859   1.374   7.464
 1025SOL    HW1 3533   0.813   1.389   7.552
 1025SOL    HW2 3534   0.903   1.459   7.434
 1026SOL     OW 3535   0.661   1.790   8.401
 1026SOL    HW1 3536   0.615   1.878   8.388
 1026SOL    HW2 3537   0.760   1.802   8.394
 1027SOL     OW 3538   0.859   0.956   8.309
 1027SOL    HW1 3539   0.913   0.887   8.357
 1027SOL    HW2 3540   0.827   1.025   8.375
 1028SOL     OW 3541   1.083   0.984   7.535
 1028SOL    HW1 3542   1.060   1.037   7.453
 1028SOL    HW2 3543   1.164   0.928   7.516
 1029SOL     OW 3544   1.861   1.569   8.299
 1029SOL    HW1 3545   1.790   1.557   8.229
 1029SOL    HW2 3546   1.862   1.490   8.359
 1030SOL     OW 3547   0.221   1.314   9.292
 1030SOL    HW1 3548   0.156   1.241   9.271
 1030SOL    HW2 3549   0.225   1.328   9.390
 1031SOL     OW 3550   0.079   1.240   8.101
 1031SOL    HW1 3551   0.078   1.193   8.189
 1031SOL    HW2 3552   0.161   1.212   8.050
 1032SOL     OW 3553   0.672   1.391   9.072
 1032SOL    HW1 3554   0.594   1.341   9.110
 1032SOL    HW2 3555   0.669   1.486   9.103
 1033SOL     OW 3556   1.824   0.192   8.675
 1033SOL    HW1 3557   1.820   0.102   8.719
 1033SOL    HW2 3558   1.827   0.181   8.576
 1034SOL     OW 3559   0.428   0.424   7.968
 1034SOL    HW1 3560   0.458   0.352   7.906
 1034SOL    HW2 3561   0.389   0.384   8.051
 1035SOL     OW 3562   1.705   1.487   8.552
 1035SOL    HW1 3563   1.612   1.462   8.525
 1035SOL    HW2 3564   1.731   1.437   8.634
 1036SOL     OW 3565   0.317   0.547   8.728
 1036SOL    HW1 3566   0.355   0.488   8.800
 1036SOL    HW2 3567   0.357   0.521   8.640
 1037SOL     OW 3568   0.812   1.586   8.135
 1037SOL    HW1 3569   0.844   1.596   8.041
 1037SOL    HW2 3570   0.733   1.524   8.137
 1038SOL     OW 3571   1.424   0.214   8.560
 1038SOL    HW1 3572   1.476   0.149   8.615
 1038SOL    HW2 3573   1.375   0.277   8.621
 1039SOL     OW 3574   1.001   0.034   8.602
 1039SOL    HW1 3575   0.938  -0.038   8.571
 1039SOL    HW2 3576   1.094  -0.002   8.602
 1040SOL     OW 3577   0.770   1.330   7.749
 1040SOL    HW1 3578   0.724   1.243   7.766
 1040SOL    HW2 3579   0.861   1.327   7.790
 1041SOL     OW 3580   0.618   1.567   8.732
 1041SOL    HW1 3581   0.613   1.649   8.789
 1041SOL    HW2 3582   0.707   1.564   8.687
 1042SOL     OW 3583   1.352   0.052   7.616
 1042SOL    HW1 3584   1.387   0.011   7.532
 1042SOL    HW2 3585   1.262   0.014   7.636
 1043SOL     OW 3586   1.300   0.453   8.139
 1043SOL    HW1 3587   1.241   0.533   8.143
 1043SOL    HW2 3588   1.315   0.418   8.232
 1044SOL     OW 3589   1.593   0.221   8.330
 1044SOL    HW1 3590   1.509   0.220   8.384
 1044SOL    HW2 3591   1.595   0.304   8.274
 1045SOL     OW 3592   0.039   1.077   7.748
 1045SOL    HW1 3593   0.138   1.066   7.739
 1045SOL    HW2 3594  -0.001   0.991   7.780
 1046SOL     OW 3595   0.875   1.646   7.785
 1046SOL    HW1 3596   0.798   1.611   7.731
 1046SOL    HW2 3597   0.843   1.717   7.847
 1047SOL     OW 3598   0.230   0.628   9.423
 1047SOL    HW1 3599   0.137   0.626   9.460
 1047SOL    HW2 3600   0.231   0.589   9.331
 1048SOL     OW 3601   0.225   0.275  10.306
 1048SOL    HW1 3602   0.260   0.258  10.398
 1048SOL    HW2 3603   0.137   0.230  10.294
 1049SOL     OW 3604   0.019   0.368   9.957
 1049SOL    HW1 3605  -0.063   0.411   9.996
 1049SOL    HW2 3606  -0.009   0.295   9.894
 1050SOL     OW 3607   0.569   1.275  10.475
 1050SOL    HW1 3608   0.476   1.268  10.438
 1050SOL    HW2 3609   0.580   1.364  10.519
 1051SOL     OW 3610   1.555   1.511  10.013
 1051SOL    HW1 3611   1.498   1.495  10.094
 1051SOL    HW2 3612   1.496   1.521   9.933
 1052SOL     OW 3613   1.135   0.703  10.027
 1052SOL    HW1 3614   1.192   0.781  10.002
 1052SOL    HW2 3615   1.075   0.729  10.103
 1053SOL     OW 3616   1.755   0.607   9.541
 1053SOL    HW1 3617   1.743   0.594   9.442
 1053SOL    HW2 3618   1.725   0.526   9.590
 1054SOL     OW 3619   0.768   1.144  10.333
 1054SOL    HW1 3620   0.690   1.161  10.393
 1054SOL    HW2 3621   0.802   1.231  10.297
 1055SOL     OW 3622   0.850   0.798  11.133
 1055SOL    HW1 3623   0.846   0.874  11.198
 1055SOL    HW2 3624   0.872   0.834  11.042
 1056SOL     OW 3625   0.685   1.012   9.975
 1056SOL    HW1 3626   0.754   0.996  10.045
 1056SOL    HW2 3627   0.612   1.069  10.013
 1057SOL     OW 3628   0.686   1.161  11.113
 1057SOL    HW1 3629   0.746   1.240  11.127
 1057SOL    HW2 3630   0.600   1.192  11.072
 1058SOL     OW 3631   0.335   1.435  10.371
 1058SOL    HW1 3632   0.257   1.404  10.318
 1058SOL    HW2 3633   0.393   1.493  10.314
 1059SOL     OW 3634   1.460   1.505  10.649
 1059SOL    HW1 3635   1.484   1.599  10.675
 1059SOL    HW2 3636   1.444   1.451  10.731
 1060SOL     OW 3637   0.438   0.392  10.809
 1060SOL    HW1 3638   0.520   0.336  10.818
 1060SOL    HW2 3639   0.357   0.334  10.813
 1061SOL     OW 3640   1.603   0.447  10.047
 1061SOL    HW1 3641   1.529   0.493   9.997
 1061SOL    HW2 3642   1.654   0.515  10.100
 1062SOL     OW 3643   0.231   1.713   9.793
 1062SOL    HW1 3644   0.265   1.790   9.847
 1062SOL    HW2 3645   0.275   1.713   9.703
 1063SOL     OW 3646   1.127   1.341  11.000
 1063SOL    HW1 3647   1.174   1.341  11.088
 1063SOL    HW2 3648   1.079   1.254  10.989
 1064SOL     OW 3649   0.230   1.434   9.848
 1064SOL    HW1 3650   0.204   1.530   9.848
 1064SOL    HW2 3651   0.159   1.380   9.893
 1065SOL     OW 3652   0.240   1.091  10.196
 1065SOL    HW1 3653   0.254   1.007  10.248
 1065SOL    HW2 3654   0.185   1.155  10.251
 1066SOL     OW 3655   0.620   1.786  10.749
 1066SOL    HW1 3656   0.528   1.769  10.784
 1066SOL    HW2 3657   0.648   1.878  10.775
 1067SOL     OW 3658   0.606   0.964   9.433
 1067SOL    HW1 3659   0.613   1.048   9.379
 1067SOL    HW2 3660   0.652   0.977   9.521
 1068SOL     OW 3661   1.594   0.114  10.790
 1068SOL    HW1 3662   1.576   0.181  10.718
 1068SOL    HW2 3663   1.591   0.160  10.879
 1069SOL     OW 3664   0.122   0.643   9.873
 1069SOL    HW1 3665   0.077   0.555   9.890
 1069SOL    HW2 3666   0.121   0.697   9.957
 1070SOL     OW 3667   0.027   1.596   9.427
 1070SOL    HW1 3668   0.008   1.500   9.448
 1070SOL    HW2 3669  -0.006   1.654   9.502
 1071SOL     OW 3670   1.689   0.922   9.922
 1071SOL    HW1 3671   1.784   0.893   9.930
 1071SOL    HW2 3672   1.681   0.987   9.847
 1072SOL     OW 3673   1.641   1.108   9.742
 1072SOL    HW1 3674   1.727   1.110   9.690
 1072SOL    HW2 3675   1.655   1.155   9.830
 1073SOL     OW 3676   0.113   0.737  10.907
 1073SOL    HW1 3677   0.201   0.724  10.952
 1073SOL    HW2 3678   0.100   0.834  10.885
 1074SOL     OW 3679   0.613   1.365  10.036
 1074SOL    HW1 3680   0.564   1.278  10.045
 1074SOL    HW2 3681   0.590   1.408   9.949
 1075SOL     OW 3682   1.293   1.228  10.733
 1075SOL    HW1 3683   1.330   1.155  10.675
 1075SOL    HW2 3684   1.345   1.233  10.818
 1076SOL     OW 3685   0.809   0.004   9.812
 1076SOL    HW1 3686   0.849   0.095   9.803
 1076SOL    HW2 3687   0.709   0.012   9.818
 1077SOL     OW 3688   0.197   0.976  10.574
 1077SOL    HW1 3689   0.286   0.931  10.560
 1077SOL    HW2 3690   0.124   0.911  10.555
 1078SOL     OW 3691   1.525   0.999   9.500
 1078SOL    HW1 3692   1.462   0.923   9.513
 1078SOL    HW2 3693   1.573   1.017   9.586
 1079SOL     OW 3694   1.187   1.792  10.926
 1079SOL    HW1 3695   1.211   1.852  10.850
 1079SOL    HW2 3696   1.194   1.697  10.896
 1080SOL     OW 3697   0.317   0.251  11.111
 1080SOL    HW1 3698   0.388   0.322  11.117
 1080SOL    HW2 3699   0.229   0.290  11.139
 1081SOL     OW 3700   1.466   1.417  10.263
 1081SOL    HW1 3701   1.407   1.423  10.343
 1081SOL    HW2 3702   1.451   1.329  10.217
 1082SOL     OW 3703   1.667   1.714   9.882
 1082SOL    HW1 3704   1.626   1.691   9.794
 1082SOL    HW2 3705   1.649   1.640   9.947
 1083SOL     OW 3706   0.598   0.729   9.580
 1083SOL    HW1 3707   0.622   0.798   9.512
 1083SOL    HW2 3708   0.520   0.762   9.634
 1084SOL     OW 3709   1.281   0.345  10.254
 1084SOL    HW1 3710   1.195   0.295  10.241
 1084SOL    HW2 3711   1.343   0.291  10.310
 1085SOL     OW 3712   1.576   1.662   9.617
 1085SOL    HW1 3713   1.665   1.708   9.620
 1085SOL    HW2 3714   1.555   1.638   9.522
 1086SOL     OW 3715   0.807   0.605  10.775
 1086SOL    HW1 3716   0.760   0.602  10.864
 1086SOL    HW2 3717   0.756   0.550  10.709
 1087SOL     OW 3718   1.394   0.469  10.984
 1087SOL    HW1 3719   1.374   0.512  11.072
 1087SOL    HW2 3720   1.472   0.407  10.993
 1088SOL     OW 3721   0.973   0.890  10.882
 1088SOL    HW1 3722   1.019   0.806  10.853
 1088SOL    HW2 3723   0.917   0.924  10.807
 1089SOL     OW 3724   0.991   0.410  10.552
 1089SOL    HW1 3725   0.914   0.444  10.606
 1089SOL    HW2 3726   0.957   0.359  10.473
 1090SOL     OW 3727   1.041   0.701   9.739
 1090SOL    HW1 3728   1.067   0.697   9.835
 1090SOL    HW2 3729   0.956   0.650   9.725
 1091SOL     OW 3730   0.076   0.811  10.099
 1091SOL    HW1 3731   0.175   0.799  10.108
 1091SOL    HW2 3732   0.052   0.906  10.120
 1092SOL     OW 3733   0.130   1.821  10.881
 1092SOL    HW1 3734   0.120   1.806  10.980
 1092SOL    HW2 3735   0.044   1.857  10.845
 1093SOL     OW 3736   0.865   0.348   9.505
 1093SOL    HW1 3737   0.924   0.411   9.456
 1093SOL    HW2 3738   0.884   0.254   9.476
 1094SOL     OW 3739   1.719   0.585  11.141
 1094SOL    HW1 3740   1.693   0.674  11.105
 1094SOL    HW2 3741   1.717   0.517  11.068
 1095SOL     OW 3742   1.362   1.144   9.855
 1095SOL    HW1 3743   1.445   1.115   9.807
 1095SOL    HW2 3744   1.313   1.211   9.799
 1096SOL     OW 3745   0.550   0.196  10.195
 1096SOL    HW1 3746   0.545   0.191  10.295
 1096SOL    HW2 3747   0.552   0.292  10.166
 1097SOL     OW 3748   1.008   1.456   9.787
 1097SOL    HW1 3749   0.962   1.528   9.735
 1097SOL    HW2 3750   1.004   1.476   9.885
 1098SOL     OW 3751   0.351   1.801  10.163
 1098SOL    HW1 3752   0.401   1.715  10.169
 1098SOL    HW2 3753   0.416   1.878  10.160
 1099SOL     OW 3754   1.795   1.066  10.183
 1099SOL    HW1 3755   1.733   1.051  10.107
 1099SOL    HW2 3756   1.743   1.077  10.268
 1100SOL     OW 3757   1.227   1.550  10.816
 1100SOL    HW1 3758   1.233   1.473  10.880
 1100SOL    HW2 3759   1.175   1.524  10.736
 1101SOL     OW 3760   0.321   0.943   9.552
 1101SOL    HW1 3761   0.403   0.982   9.510
 1101SOL    HW2 3762   0.294   0.861   9.503
 1102SOL     OW 3763   1.458   0.735  10.038
 1102SOL    HW1 3764   1.453   0.670  10.113
 1102SOL    HW2 3765   1.538   0.794  10.051
 1103SOL     OW 3766   0.461   1.266  11.037
 1103SOL    HW1 3767   0.411   1.267  10.951
 1103SOL    HW2 3768   0.398   1.248  11.113
 1104SOL     OW 3769   1.111   1.776   9.547
 1104SOL    HW1 3770   1.051   1.714   9.597
 1104SOL    HW2 3771   1.142   1.732   9.462
 1105SOL     OW 3772   0.202   0.285  10.808
 1105SOL    HW1 3773   0.122   0.345  10.795
 1105SOL    HW2 3774   0.192   0.236  10.894
 1106SOL     OW 3775   1.632   1.377   9.391
 1106SOL    HW1 3776   1.600   1.471   9.381
 1106SOL    HW2 3777   1.556   1.314   9.379
 1107SOL     OW 3778   0.464   1.743   9.633
 1107SOL    HW1 3779   0.497   1.782   9.719
 1107SOL    HW2 3780   0.540   1.736   9.568
 1108SOL     OW 3781   1.400   0.107   9.736
 1108SOL    HW1 3782   1.376   0.070   9.646
 1108SOL    HW2 3783   1.499   0.123   9.740
 1109SOL     OW 3784   0.249   1.785  10.551
 1109SOL    HW1 3785   0.306   1.720  10.601
 1109SOL    HW2 3786   0.233   1.752  10.458
 1110SOL     OW 3787   0.940   1.698  10.214
 1110SOL    HW1 3788   1.020   1.641  10.235
 1110SOL    HW2 3789   0.891   1.658  10.137
 1111SOL     OW 3790   0.382   0.700   9.790
 1111SOL    HW1 3791   0.427   0.610   9.787
 1111SOL    HW2 3792   0.288   0.689   9.823
 1112SOL     OW 3793   1.547   0.222  11.039
 1112SOL    HW1 3794   1.542   0.259  11.131
 1112SOL    HW2 3795   1.475   0.153  11.027
 1113SOL     OW 3796   0.614   0.122   9.427
 1113SOL    HW1 3797   0.712   0.100   9.434
 1113SOL    HW2 3798   0.583   0.105   9.334
 1114SOL     OW 3799   0.781   0.264  11.059
 1114SOL    HW1 3800   0.848   0.203  11.102
 1114SOL    HW2 3801   0.708   0.283  11.124
 1115SOL     OW 3802   0.888   1.514  10.505
 1115SOL    HW1 3803   0.865   1.489  10.411
 1115SOL    HW2 3804   0.949   1.445  10.544
 1116SOL     OW 3805   1.351   0.590  10.743
 1116SOL    HW1 3806   1.379   0.547  10.828
 1116SOL    HW2 3807   1.376   0.686  10.744
 1117SOL     OW 3808   0.803   1.402  10.234
 1117SOL    HW1 3809   0.893   1.416  10.192
 1117SOL    HW2 3810   0.732   1.404  10.163
 1118SOL     OW 3811   0.922   0.503  10.209
 1118SOL    HW1 3812   0.897   0.494  10.113
 1118SOL    HW2 3813   0.970   0.421  10.240
 1119SOL     OW 3814   0.539   0.064   9.822
 1119SOL    HW1 3815   0.458   0.065   9.880
 1119SOL    HW2 3816   0.542   0.147   9.767
 1120SOL     OW 3817   1.434   1.188   9.351
 1120SOL    HW1 3818   1.466   1.112   9.408
 1120SOL    HW2 3819   1.342   1.215   9.381
 1121SOL     OW 3820   0.297   0.035   9.481
 1121SOL    HW1 3821   0.346   0.119   9.460
 1121SOL    HW2 3822   0.359  -0.030   9.526
 1122SOL     OW 3823   0.935   0.236   9.790
 1122SOL    HW1 3824   0.887   0.277   9.712
 1122SOL    HW2 3825   1.034   0.234   9.771
 1123SOL     OW 3826   1.076   0.683  10.774
 1123SOL    HW1 3827   0.996   0.622  10.777
 1123SOL    HW2 3828   1.157   0.630  10.750
 1124SOL     OW 3829   1.227   1.570  10.103
 1124SOL    HW1 3830   1.248   1.644  10.038
 1124SOL    HW2 3831   1.295   1.570  10.176
 1125SOL     OW 3832   0.459   1.152  10.051
 1125SOL    HW1 3833   0.388   1.125  10.116
 1125SOL    HW2 3834   0.433   1.124   9.958
 1126SOL     OW 3835   1.271   1.797   9.901
 1126SOL    HW1 3836   1.315   1.861   9.837
 1126SOL    HW2 3837   1.221   1.849   9.971
 1127SOL     OW 3838   1.032   0.549   9.326
 1127SOL    HW1 3839   0.991   0.631   9.287
 1127SOL    HW2 3840   1.096   0.575   9.399
 1128SOL     OW 3841   0.078   0.556  10.696
 1128SOL    HW1 3842   0.170   0.555  10.655
 1128SOL    HW2 3843   0.072   0.630  10.763
 1129SOL     OW 3844   0.561   0.222  10.457
 1129SOL    HW1 3845   0.599   0.138  10.494
 1129SOL    HW2 3846   0.473   0.241  10.501
 1130SOL     OW 3847   0.866   0.454   9.952
 1130SOL    HW1 3848   0.834   0.526   9.890
 1130SOL    HW2 3849   0.890   0.373   9.899
 1131SOL     OW 3850   1.017   0.039  10.063
 1131SOL    HW1 3851   0.945   0.044   9.994
 1131SOL    HW2 3852   0.993  -0.030  10.132
 1132SOL     OW 3853   1.429   1.173  10.177
 1132SOL    HW1 3854   1.374   1.089  10.170
 1132SOL    HW2 3855   1.455   1.202  10.085
 1133SOL     OW 3856   1.466   0.590  10.302
 1133SOL    HW1 3857   1.436   0.495  10.309
 1133SOL    HW2 3858   1.539   0.606  10.368
 1134SOL     OW 3859   1.857   0.833   9.687
 1134SOL    HW1 3860   1.899   0.769   9.751
 1134SOL    HW2 3861   1.819   0.782   9.609
 1135SOL     OW 3862   0.488   1.385   9.484
 1135SOL    HW1 3863   0.401   1.370   9.531
 1135SOL    HW2 3864   0.471   1.411   9.389
 1136SOL     OW 3865   1.664   1.280   9.967
 1136SOL    HW1 3866   1.763   1.288   9.981
 1136SOL    HW2 3867   1.619   1.364   9.998
 1137SOL     OW 3868   1.390   0.575   9.388
 1137SOL    HW1 3869   1.336   0.554   9.469
 1137SOL    HW2 3870   1.481   0.534   9.397
 1138SOL     OW 3871   0.527   0.256   9.638
 1138SOL    HW1 3872   0.554   0.197   9.563
 1138SOL    HW2 3873   0.527   0.351   9.607
 1139SOL     OW 3874   1.754   1.223  10.898
 1139SOL    HW1 3875   1.845   1.184  10.885
 1139SOL    HW2 3876   1.762   1.319  10.922
 1140SOL     OW 3877   1.064   1.347  10.650
 1140SOL    HW1 3878   0.984   1.324  10.705
 1140SOL    HW2 3879   1.147   1.321  10.699
 1141SOL     OW 3880   1.592   1.629  10.935
 1141SOL    HW1 3881   1.619   1.663  10.845
 1141SOL    HW2 3882   1.671   1.591  10.981
 1142SOL     OW 3883   1.111   1.195  10.410
 1142SOL    HW1 3884   1.071   1.239  10.491
 1142SOL    HW2 3885   1.070   1.232  10.327
 1143SOL     OW 3886   1.638   1.099  10.389
 1143SOL    HW1 3887   1.643   1.180  10.448
 1143SOL    HW2 3888   1.552   1.101  10.338
 1144SOL     OW 3889   0.915   0.089  10.712
 1144SOL    HW1 3890   0.940   0.069  10.617
 1144SOL    HW2 3891   0.987   0.145  10.754
 1145SOL     OW 3892   0.980   1.116  11.029
 1145SOL    HW1 3893   0.881   1.122  11.039
 1145SOL    HW2 3894   1.003   1.036  10.973
 1146SOL     OW 3895   0.705   1.050   9.678
 1146SOL    HW1 3896   0.691   1.057   9.777
 1146SOL    HW2 3897   0.789   0.999   9.660
 1147SOL     OW 3898   0.410   0.813  10.561
 1147SOL    HW1 3899   0.496   0.825  10.611
 1147SOL    HW2 3900   0.368   0.726  10.588
 1148SOL     OW 3901   1.274   0.386  10.572
 1148SOL    HW1 3902   1.295   0.460  10.636
 1148SOL    HW2 3903   1.185   0.403  10.529
 1149SOL     OW 3904   0.064   1.564  10.641
 1149SOL    HW1 3905   0.018   1.646  10.607
 1149SOL    HW2 3906   0.162   1.583  10.650
 1150SOL     OW 3907   0.367   1.100   9.811
 1150SOL    HW1 3908   0.360   1.183   9.755
 1150SOL    HW2 3909   0.371   1.020   9.751
 1151SOL     OW 3910   0.566   0.537  10.175
 1151SOL    HW1 3911   0.578   0.603  10.101
 1151SOL    HW2 3912   0.612   0.571  10.258
 1152SOL     OW 3913   1.252   1.348   9.698
 1152SOL    HW1 3914   1.302   1.425   9.738
 1152SOL    HW2 3915   1.157   1.350   9.730
 1153SOL     OW 3916   1.272   1.445  10.452
 1153SOL    HW1 3917   1.319   1.458  10.539
 1153SOL    HW2 3918   1.206   1.371  10.461
 1154SOL     OW 3919   1.582   0.639   9.782
 1154SOL    HW1 3920   1.551   0.700   9.855
 1154SOL    HW2 3921   1.632   0.691   9.713
 1155SOL     OW 3922   0.354   1.510  10.639
 1155SOL    HW1 3923   0.333   1.466  10.552
 1155SOL    HW2 3924   0.451   1.536  10.642
 1156SOL     OW 3925   0.402   0.751  10.908
 1156SOL    HW1 3926   0.470   0.806  10.861
 1156SOL    HW2 3927   0.442   0.663  10.935
 1157SOL     OW 3928   1.587   0.779  10.980
 1157SOL    HW1 3929   1.495   0.817  10.975
 1157SOL    HW2 3930   1.647   0.826  10.915
 1158SOL     OW 3931   1.013   0.105  11.080
 1158SOL    HW1 3932   1.019   0.190  11.028
 1158SOL    HW2 3933   1.045   0.029  11.023
 1159SOL     OW 3934   0.504   0.050  11.050
 1159SOL    HW1 3935   0.462  -0.007  10.980
 1159SOL    HW2 3936   0.438   0.119  11.082
 1160SOL     OW 3937   0.573   0.870  10.339
 1160SOL    HW1 3938   0.617   0.959  10.330
 1160SOL    HW2 3939   0.510   0.870  10.416
 1161SOL     OW 3940   1.360   0.862  10.355
 1161SOL    HW1 3941   1.285   0.862  10.289
 1161SOL    HW2 3942   1.397   0.770  10.364
 1162SOL     OW 3943   1.209   0.525   9.585
 1162SOL    HW1 3944   1.222   0.441   9.639
 1162SOL    HW2 3945   1.180   0.599   9.645
 1163SOL     OW 3946   0.307   0.213  10.541
 1163SOL    HW1 3947   0.284   0.250  10.631
 1163SOL    HW2 3948   0.277   0.118  10.535
 1164SOL     OW 3949   0.037   1.310  10.592
 1164SOL    HW1 3950   0.090   1.261  10.660
 1164SOL    HW2 3951   0.059   1.408  10.597
 1165SOL     OW 3952   0.732   0.634  10.374
 1165SOL    HW1 3953   0.791   0.608  10.298
 1165SOL    HW2 3954   0.704   0.730  10.363
 1166SOL     OW 3955   1.728   0.935  11.164
 1166SOL    HW1 3956   1.682   0.928  11.075
 1166SOL    HW2 3957   1.666   0.979  11.230
 1167SOL     OW 3958   0.307   0.063   9.928
 1167SOL    HW1 3959   0.296   0.157   9.961
 1167SOL    HW2 3960   0.302   0.000  10.005
 1168SOL     OW 3961   1.622   0.367   9.684
 1168SOL    HW1 3962   1.624   0.291   9.748
 1168SOL    HW2 3963   1.574   0.444   9.724
 1169SOL     OW 3964   1.023   0.766  10.276
 1169SOL    HW1 3965   1.038   0.787  10.372
 1169SOL    HW2 3966   0.993   0.671  10.267
 1170SOL     OW 3967   0.980   1.573  11.010
 1170SOL    HW1 3968   0.960   1.617  10.922
 1170SOL    HW2 3969   1.019   1.482  10.994
 1171SOL     OW 3970   1.859   1.518  10.915
 1171SOL    HW1 3971   1.873   1.545  10.820
 1171SOL    HW2 3972   1.942   1.540  10.968
 1172SOL     OW 3973   0.350   0.898  11.114
 1172SOL    HW1 3974   0.426   0.942  11.162
 1172SOL    HW2 3975   0.385   0.851  11.032
 1173SOL     OW 3976   1.540   0.274   9.435
 1173SOL    HW1 3977   1.479   0.199   9.458
 1173SOL    HW2 3978   1.562   0.326   9.518
 1174SOL     OW 3979   1.303   0.838   9.352
 1174SOL    HW1 3980   1.337   0.745   9.367
 1174SOL    HW2 3981   1.321   0.865   9.257
 1175SOL     OW 3982   1.068   1.333  10.159
 1175SOL    HW1 3983   1.075   1.249  10.104
 1175SOL    HW2 3984   1.130   1.402  10.123
 1176SOL     OW 3985   0.319   0.810  10.259
 1176SOL    HW1 3986   0.412   0.846  10.264
 1176SOL    HW2 3987   0.313   0.725  10.311
 1177SOL     OW 3988   0.339   0.509  10.316
 1177SOL    HW1 3989   0.287   0.426  10.299
 1177SOL    HW2 3990   0.416   0.514  10.252
 1178SOL     OW 3991   1.138   0.380  10.988
 1178SOL    HW1 3992   1.093   0.443  11.052
 1178SOL    HW2 3993   1.231   0.411  10.971
 1179SOL     OW 3994   1.160   0.207  10.787
 1179SOL    HW1 3995   1.160   0.271  10.864
 1179SOL    HW2 3996   1.188   0.255  10.704
 1180SOL     OW 3997   0.008   1.326   9.510
 1180SOL    HW1 3998  -0.085   1.347   9.479
 1180SOL    HW2 3999   0.018   1.227   9.523
 1181SOL     OW 4000   0.088   1.801  10.237
 1181SOL    HW1 4001   0.046   1.715  10.210
 1181SOL    HW2 4002   0.182   1.804  10.203
 1182SOL     OW 4003   0.504   1.568  10.220
 1182SOL    HW1 4004   0.570   1.642  10.229
 1182SOL    HW2 4005   0.548   1.489  10.178
 1183SOL     OW 4006   1.002   0.796  10.548
 1183SOL    HW1 4007   1.043   0.764  10.634
 1183SOL    HW2 4008   0.906   0.769  10.545
 1184SOL     OW 4009   0.040   0.544  10.424
 1184SOL    HW1 4010   0.125   0.511  10.383
 1184SOL    HW2 4011   0.053   0.559  10.522
 1185SOL     OW 4012   0.189   0.520  11.032
 1185SOL    HW1 4013   0.248   0.480  10.962
 1185SOL    HW2 4014   0.131   0.591  10.991
 1186SOL     OW 4015   1.369   0.950  10.970
 1186SOL    HW1 4016   1.408   1.039  10.990
 1186SOL    HW2 4017   1.379   0.930  10.873
 1187SOL     OW 4018   0.815   0.572   9.635
 1187SOL    HW1 4019   0.822   0.483   9.589
 1187SOL    HW2 4020   0.721   0.606   9.627
 1188SOL     OW 4021   1.657   0.604  10.516
 1188SOL    HW1 4022   1.619   0.535  10.578
 1188SOL    HW2 4023   1.739   0.568  10.472
 1189SOL     OW 4024   0.252   1.564  11.054
 1189SOL    HW1 4025   0.222   1.621  11.130
 1189SOL    HW2 4026   0.245   1.467  11.080
 1190SOL     OW 4027   0.671   0.464  10.579
 1190SOL    HW1 4028   0.637   0.375  10.549
 1190SOL    HW2 4029   0.697   0.518  10.499
 1191SOL     OW 4030   0.930   1.678  10.775
 1191SOL    HW1 4031   0.906   1.660  10.680
 1191SOL    HW2 4032   0.960   1.772  10.785
 1192SOL     OW 4033   0.473   0.500   9.501
 1192SOL    HW1 4034   0.534   0.580   9.505
 1192SOL    HW2 4035   0.378   0.531   9.508
 1193SOL     OW 4036   0.159   1.137  10.776
 1193SOL    HW1 4037   0.181   1.076  10.852
 1193SOL    HW2 4038   0.169   1.088  10.690
 1194SOL     OW 4039   1.347   1.059  10.544
 1194SOL    HW1 4040   1.371   0.996  10.470
 1194SOL    HW2 4041   1.257   1.099  10.526
 1195SOL     OW 4042   1.302   0.855   9.619
 1195SOL    HW1 4043   1.216   0.824   9.661
 1195SOL    HW2 4044   1.298   0.841   9.520
 1196SOL     OW 4045   1.759   1.747  10.464
 1196SOL    HW1 4046   1.820   1.777  10.391
 1196SOL    HW2 4047   1.721   1.658  10.442
 1197SOL     OW 4048   1.252   1.731  10.438
 1197SOL    HW1 4049   1.336   1.736  10.384
 1197SOL    HW2 4050   1.229   1.635  10.456
 1198SOL     OW 4051   0.083   1.258  10.332
 1198SOL    HW1 4052   0.078   1.257  10.432
 1198SOL    HW2 4053   0.000   1.217  10.294
 1199SOL     OW 4054   0.688   1.662  11.026
 1199SOL    HW1 4055   0.632   1.743  11.035
 1199SOL    HW2 4056   0.740   1.666  10.940
 1200SOL     OW 4057   1.726   0.135   9.833
 1200SOL    HW1 4058   1.799   0.118   9.766
 1200SOL    HW2 4059   1.695   0.048   9.871
 1201SOL     OW 4060   1.388   1.573   9.787
 1201SOL    HW1 4061   1.455   1.585   9.713
 1201SOL    HW2 4062   1.348   1.662   9.810
 1202SOL     OW 4063   0.130   1.794  11.161
 1202SOL    HW1 4064   0.089   1.720  11.214
 1202SOL    HW2 4065   0.194   1.845  11.219
 1203SOL     OW 4066   1.280   0.927   9.982
 1203SOL    HW1 4067   1.340   0.846   9.984
 1203SOL    HW2 4068   1.320   0.996   9.922
 1204SOL     OW 4069   0.830   1.273  10.732
 1204SOL    HW1 4070   0.825   1.306  10.827
 1204SOL    HW2 4071   0.744   1.292  10.686
 1205SOL     OW 4072   0.672   1.616   9.464
 1205SOL    HW1 4073   0.681   1.626   9.365
 1205SOL    HW2 4074   0.632   1.527   9.485
 1206SOL     OW 4075   1.650   1.720  10.704
 1206SOL    HW1 4076   1.703   1.730  10.620
 1206SOL    HW2 4077   1.623   1.810  10.738
 1207SOL     OW 4078   1.841   0.175  10.273
 1207SOL    HW1 4079   1.880   0.090  10.237
 1207SOL    HW2 4080   1.743   0.177  10.254
 1208SOL     OW 4081   0.263   0.326  10.030
 1208SOL    HW1 4082   0.184   0.377   9.996
 1208SOL    HW2 4083   0.254   0.311  10.128
 1209SOL     OW 4084   1.194   1.612   9.341
 1209SOL    HW1 4085   1.200   1.519   9.378
 1209SOL    HW2 4086   1.135   1.612   9.261
 1210SOL     OW 4087   0.822   1.002  10.682
 1210SOL    HW1 4088   0.862   1.001  10.590
 1210SOL    HW2 4089   0.832   1.094  10.722
 1211SOL     OW 4090   0.916   0.910   9.601
 1211SOL    HW1 4091   0.979   0.948   9.533
 1211SOL    HW2 4092   0.956   0.827   9.640
 1212SOL     OW 4093   1.504   1.607   9.354
 1212SOL    HW1 4094   1.412   1.644   9.361
 1212SOL    HW2 4095   1.542   1.627   9.264
 1213SOL     OW 4096   0.372   1.288  10.800
 1213SOL    HW1 4097   0.359   1.381  10.766
 1213SOL    HW2 4098   0.288   1.236  10.787
 1214SOL     OW 4099   1.614   1.292  10.599
 1214SOL    HW1 4100   1.674   1.295  10.679
 1214SOL    HW2 4101   1.539   1.356  10.612
 1215SOL     OW 4102   1.039   1.098  10.006
 1215SOL    HW1 4103   0.969   1.051  10.060
 1215SOL    HW2 4104   1.098   1.030   9.963
 1216SOL     OW 4105   1.014   0.236  10.281
 1216SOL    HW1 4106   1.006   0.200  10.188
 1216SOL    HW2 4107   1.012   0.160  10.346
 1217SOL     OW 4108   0.590   1.487   9.801
 1217SOL    HW1 4109   0.632   1.429   9.731
 1217SOL    HW2 4110   0.546   1.566   9.757
 1218SOL     OW 4111   1.709   0.385  10.691
 1218SOL    HW1 4112   1.782   0.454  10.695
 1218SOL    HW2 4113   1.737   0.310  10.632
 1219SOL     OW 4114   0.255   1.348   9.600
 1219SOL    HW1 4115   0.159   1.349   9.573
 1219SOL    HW2 4116   0.267   1.401   9.684
 1220SOL     OW 4117   0.105   1.013  11.036
 1220SOL    HW1 4118   0.028   0.980  11.090
 1220SOL    HW2 4119   0.190   0.983  11.078
 1221SOL     OW 4120   0.672   0.203  10.799
 1221SOL    HW1 4121   0.762   0.187  10.759
 1221SOL    HW2 4122   0.680   0.208  10.898
 1222SOL     OW 4123   0.075   0.345   9.343
 1222SOL    HW1 4124  -0.017   0.317   9.314
 1222SOL    HW2 4125   0.106   0.422   9.287
 1223SOL     OW 4126   1.440   0.856  10.708
 1223SOL    HW1 4127   1.383   0.908  10.645
 1223SOL    HW2 4128   1.536   0.868  10.684
 1224SOL     OW 4129   0.072   0.166   9.628
 1224SOL    HW1 4130   0.055   0.249   9.574
 1224SOL    HW2 4131   0.162   0.129   9.606
 1225SOL     OW 4132   1.183   1.335   9.429
 1225SOL    HW1 4133   1.084   1.324   9.431
 1225SOL    HW2 4134   1.217   1.350   9.522
 1226SOL     OW 4135   0.613   0.842  10.741
 1226SOL    HW1 4136   0.669   0.923  10.724
 1226SOL    HW2 4137   0.672   0.762  10.744
 1227SOL     OW 4138   1.493   1.767  10.269
 1227SOL    HW1 4139   1.526   1.831  10.200
 1227SOL    HW2 4140   1.559   1.761  10.344
 1228SOL     OW 4141   0.716   0.565  11.018
 1228SOL    HW1 4142   0.735   0.630  11.092
 1228SOL    HW2 4143   0.776   0.485  11.027
 1229SOL     OW 4144   1.450   1.220  10.943
 1229SOL    HW1 4145   1.441   1.210  11.042
 1229SOL    HW2 4146   1.546   1.213  10.917
 1230SOL     OW 4147   0.390   1.741  10.870
 1230SOL    HW1 4148   0.299   1.782  10.868
 1230SOL    HW2 4149   0.383   1.647  10.902
 1231SOL     OW 4150   1.674   0.883  10.564
 1231SOL    HW1 4151   1.647   0.794  10.527
 1231SOL    HW2 4152   1.675   0.951  10.491
 1232SOL     OW 4153   1.225   0.325   9.759
 1232SOL    HW1 4154   1.290   0.251   9.748
 1232SOL    HW2 4155   1.245   0.375   9.843
 1233SOL     OW 4156   0.594   0.745   9.962
 1233SOL    HW1 4157   0.644   0.830   9.943
 1233SOL    HW2 4158   0.506   0.747   9.914
 1234SOL     OW 4159   1.777   0.342  10.952
 1234SOL    HW1 4160   1.760   0.373  10.858
 1234SOL    HW2 4161   1.693   0.305  10.990
 1235SOL     OW 4162   1.730   0.934  10.827
 1235SOL    HW1 4163   1.768   1.025  10.842
 1235SOL    HW2 4164   1.722   0.917  10.728
 1236SOL     OW 4165   0.859   1.374   9.326
 1236SOL    HW1 4166   0.813   1.389   9.414
 1236SOL    HW2 4167   0.903   1.459   9.296
 1237SOL     OW 4168   0.661   1.790  10.263
 1237SOL    HW1 4169   0.615   1.878  10.250
 1237SOL    HW2 4170   0.760   1.802  10.256
 1238SOL     OW 4171   0.859   0.956  10.171
 1238SOL    HW1 4172   0.913   0.887  10.219
 1238SOL    HW2 4173   0.827   1.025  10.237
 1239SOL     OW 4174   1.083   0.984   9.397
 1239SOL    HW1 4175   1.060   1.037   9.315
 1239SOL    HW2 4176   1.164   0.928   9.378
 1240SOL     OW 4177   1.861   1.569  10.161
 1240SOL    HW1 4178   1.790   1.557  10.091
 1240SOL    HW2 4179   1.862   1.490  10.221
 1241SOL     OW 4180   0.221   1.314  11.154
 1241SOL    HW1 4181   0.156   1.241  11.133
 1241SOL    HW2 4182   0.225   1.328  11.252
 1242SOL     OW 4183   0.079   1.240   9.963
 1242SOL    HW1 4184   0.078   1.193  10.051
 1242SOL    HW2 4185   0.161   1.212   9.912
 1243SOL     OW 4186   0.672   1.391  10.934
 1243SOL    HW1 4187   0.594   1.341  10.972
 1243SOL    HW2 4188   0.669   1.486  10.965
 1244SOL     OW 4189   1.824   0.192  10.537
 1244SOL    HW1 4190   1.820   0.102  10.581
 1244SOL    HW2 4191   1.827   0.181  10.438
 1245SOL     OW 4192   0.428   0.424   9.830
 1245SOL    HW1 4193   0.458   0.352   9.768
 1245SOL    HW2 4194   0.389   0.384   9.913
 1246SOL     OW 4195   1.705   1.487  10.414
 1246SOL    HW1 4196   1.612   1.462  10.387
 1246SOL    HW2 4197   1.731   1.437  10.496
 1247SOL     OW 4198   0.317   0.547  10.590
 1247SOL    HW1 4199   0.355   0.488  10.662
 1247SOL    HW2 4200   0.357   0.521  10.502
 1248SOL     OW 4201   0.812   1.586   9.997
 1248SOL    HW1 4202   0.844   1.596   9.903
 1248SOL    HW2 4203   0.733   1.524   9.999
 1249SOL     OW 4204   1.424   0.214  10.422
 1249SOL    HW1 4205   1.476   0.149  10.477
 1249SOL    HW2 4206   1.375   0.277  10.483
 1250SOL     OW 4207   1.001   0.034  10.464
 1250SOL    HW1 4208   0.938  -0.038  10.433
 1250SOL    HW2 4209   1.094  -0.002  10.464
 1251SOL     OW 4210   0.770   1.330   9.611
 1251SOL    HW1 4211   0.724   1.243   9.628
 1251SOL    HW2 4212   0.861   1.327   9.652
 1252SOL     OW 4213   0.618   1.567  10.594
 1252SOL    HW1 4214   0.613   1.649  10.651
 1252SOL    HW2 4215   0.707   1.564  10.549
 1253SOL     OW 4216   1.352   0.052   9.478
 1253SOL    HW1 4217   1.387   0.011   9.394
 1253SOL    HW2 4218   1.262   0.014   9.498
 1254SOL     OW 4219   1.300   0.453  10.001
 1254SOL    HW1 4220   1.241   0.533  10.005
 1254SOL    HW2 4221   1.315   0.418  10.094
 1255SOL     OW 4222   1.593   0.221  10.192
 1255SOL    HW1 4223   1.509   0.220  10.246
 1255SOL    HW2 4224   1.595   0.304  10.136
 1256SOL     OW 4225   0.039   1.077   9.610
 1256SOL    HW1 4226   0.138   1.066   9.601
 1256SOL    HW2 4227  -0.001   0.991   9.642
 1257SOL     OW 4228   0.875   1.646   9.647
 1257SOL    HW1 4229   0.798   1.611   9.593
 1257SOL    HW2 4230   0.843   1.717   9.709
 1258SOL     OW 4231   0.230   0.628  11.285
 1258SOL    HW1 4232   0.137   0.626  11.322
 1258SOL    HW2 4233   0.231   0.589  11.193
 1259SOL     OW 4234   0.225   0.275  12.168
 1259SOL    HW1 4235   0.260   0.258  12.260
 1259SOL    HW2 4236   0.137   0.230  12.156
 1260SOL     OW 4237   0.019   0.368  11.819
 1260SOL    HW1 4238  -0.063   0.411  11.858
 1260SOL    HW2 4239  -0.009   0.295  11.756
 1261SOL     OW 4240   0.569   1.275  12.337
 1261SOL    HW1 4241   0.476   1.268  12.300
 1261SOL    HW2 4242   0.580   1.364  12.381
 1262SOL     OW 4243   1.555   1.511  11.875
 1262SOL    HW1 4244   1.498   1.495  11.956
 1262SOL    HW2 4245   1.496   1.521  11.795
 1263SOL     OW 4246   1.135   0.703  11.889
 1263SOL    HW1 4247   1.192   0.781  11.864
 1263SOL    HW2 4248   1.075   0.729  11.965
 1264SOL     OW 4249   1.755   0.607  11.403
 1264SOL    HW1 4250   1.743   0.594  11.304
 1264SOL    HW2 4251   1.725   0.526  11.452
 1265SOL     OW 4252   0.768   1.144  12.195
 1265SOL    HW1 4253   0.690   1.161  12.255
 1265SOL    HW2 4254   0.802   1.231  12.159
 1266SOL     OW 4255   0.850   0.798  12.995
 1266SOL    HW1 4256   0.846   0.874  13.060
 1266SOL    HW2 4257   0.872   0.834  12.904
 1267SOL     OW 4258   0.685   1.012  11.837
 1267SOL    HW1 4259   0.754   0.996  11.907
 1267SOL    HW2 4260   0.612   1.069  11.875
 1268SOL     OW 4261   0.686   1.161  12.975
 1268SOL    HW1 4262   0.746   1.240  12.989
 1268SOL    HW2 4263   0.600   1.192  12.934
 1269SOL     OW 4264   0.335   1.435  12.233
 1269SOL    HW1 4265   0.257   1.404  12.180
 1269SOL    HW2 4266   0.393   1.493  12.176
 1270SOL     OW 4267   1.460   1.505  12.511
 1270SOL    HW1 4268   1.484   1.599  12.537
 1270SOL    HW2 4269   1.444   1.451  12.593
 1271SOL     OW 4270   0.438   0.392  12.671
 1271SOL    HW1 4271   0.520   0.336  12.680
 1271SOL    HW2 4272   0.357   0.334  12.675
 1272SOL     OW 4273   1.603   0.447  11.909
 1272SOL    HW1 4274   1.529   0.493  11.859
 1272SOL    HW2 4275   1.654   0.515  11.962
 1273SOL     OW 4276   0.231   1.713  11.655
 1273SOL    HW1 4277   0.265   1.790  11.709
 1273SOL    HW2 4278   0.275   1.713  11.565
 1274SOL     OW 4279   1.127   1.341  12.862
 1274SOL    HW1 4280   1.174   1.341  12.950
 1274SOL    HW2 4281   1.079   1.254  12.851
 1275SOL     OW 4282   0.230   1.434  11.710
 1275SOL    HW1 4283   0.204   1.530  11.710
 1275SOL    HW2 4284   0.159   1.380  11.755
 1276SOL     OW 4285   0.240   1.091  12.058
 1276SOL    HW1 4286   0.254   1.007  12.110
 1276SOL    HW2 4287   0.185   1.155  12.113
 1277SOL     OW 4288   0.620   1.786  12.611
 1277SOL    HW1 4289   0.528   1.769  12.646
 1277SOL    HW2 4290   0.648   1.878  12.637
 1278SOL     OW 4291   0.606   0.964  11.295
 1278SOL    HW1 4292   0.613   1.048  11.241
 1278SOL    HW2 4293   0.652   0.977  11.383
 1279SOL     OW 4294   1.594   0.114  12.652
 1279SOL    HW1 4295   1.576   0.181  12.580
 1279SOL    HW2 4296   1.591   0.160  12.741
 1280SOL     OW 4297   0.122   0.643  11.735
 1280SOL    HW1 4298   0.077   0.555  11.752
 1280SOL    HW2 4299   0.121   0.697  11.819
 1281SOL     OW 4300   0.027   1.596  11.289
 1281SOL    HW1 4301   0.008   1.500  11.310
 1281SOL    HW2 4302  -0.006   1.654  11.364
 1282SOL     OW 4303   1.689   0.922  11.784
 1282SOL    HW1 4304   1.784   0.893  11.792
 1282SOL    HW2 4305   1.681   0.987  11.709
 1283SOL     OW 4306   1.641   1.108  11.604
 1283SOL    HW1 4307   1.727   1.110  11.552
 1283SOL    HW2 4308   1.655   1.155  11.692
 1284SOL     OW 4309   0.113   0.737  12.769
 1284SOL    HW1 4310   0.201   0.724  12.814
 1284SOL    HW2 4311   0.100   0.834  12.747
 1285SOL     OW 4312   0.613   1.365  11.898
 1285SOL    HW1 4313   0.564   1.278  11.907
 1285SOL    HW2 4314   0.590   1.408  11.811
 1286SOL     OW 4315   1.293   1.228  12.595
 1286SOL    HW1 4316   1.330   1.155  12.537
 1286SOL    HW2 4317   1.345   1.233  12.680
 1287SOL     OW 4318   0.809   0.004  11.674
 1287SOL    HW1 4319   0.849   0.095  11.665
 1287SOL    HW2 4320   0.709   0.012  11.680
 1288SOL     OW 4321   0.197   0.976  12.436
 1288SOL    HW1 4322   0.286   0.931  12.422
 1288SOL    HW2 4323   0.124   0.911  12.417
 1289SOL     OW 4324   1.525   0.999  11.362
 1289SOL    HW1 4325   1.462   0.923  11.375
 1289SOL    HW2 4326   1.573   1.017  11.448
 1290SOL     OW 4327   1.187   1.792  12.788
 1290SOL    HW1 4328   1.211   1.852  12.712
 1290SOL    HW2 4329   1.194   1.697  12.758
 1291SOL     OW 4330   0.317   0.251  12.973
 1291SOL    HW1 4331   0.388   0.322  12.979
 1291SOL    HW2 4332   0.229   0.290  13.001
 1292SOL     OW 4333   1.466   1.417  12.125
 1292SOL    HW1 4334   1.407   1.423  12.205
 1292SOL    HW2 4335   1.451   1.329  12.079
 1293SOL     OW 4336   1.667   1.714  11.744
 1293SOL    HW1 4337   1.626   1.691  11.656
 1293SOL    HW2 4338   1.649   1.640  11.809
 1294SOL     OW 4339   0.598   0.729  11.442
 1294SOL    HW1 4340   0.622   0.798  11.374
 1294SOL    HW2 4341   0.520   0.762  11.496
 1295SOL     OW 4342   1.281   0.345  12.116
 1295SOL    HW1 4343   1.195   0.295  12.103
 1295SOL    HW2 4344   1.343   0.291  12.172
 1296SOL     OW 4345   1.576   1.662  11.479
 1296SOL    HW1 4346   1.665   1.708  11.482
 1296SOL    HW2 4347   1.555   1.638  11.384
 1297SOL     OW 4348   0.807   0.605  12.637
 1297SOL    HW1 4349   0.760   0.602  12.726
 1297SOL    HW2 4350   0.756   0.550  12.571
 1298SOL     OW 4351   1.394   0.469  12.846
 1298SOL    HW1 4352   1.374   0.512  12.934
 1298SOL    HW2 4353   1.472   0.407  12.855
 1299SOL     OW 4354   0.973   0.890  12.744
 1299SOL    HW1 4355   1.019   0.806  12.715
 1299SOL    HW2 4356   0.917   0.924  12.669
 1300SOL     OW 4357   0.991   0.410  12.414
 1300SOL    HW1 4358   0.914   0.444  12.468
 1300SOL    HW2 4359   0.957   0.359  12.335
 1301SOL     OW 4360   1.041   0.701  11.601
 1301SOL    HW1 4361   1.067   0.697  11.697
 1301SOL    HW2 4362   0.956   0.650  11.587
 1302SOL     OW 4363   0.076   0.811  11.961
 1302SOL    HW1 4364   0.175   0.799  11.970
 1302SOL    HW2 4365   0.052   0.906  11.982
 1303SOL     OW 4366   0.130   1.821  12.743
 1303SOL    HW1 4367   0.120   1.806  12.842
 1303SOL    HW2 4368   0.044   1.857  12.707
 1304SOL     OW 4369   0.865   0.348  11.367
 1304SOL    HW1 4370   0.924   0.411  11.318
 1304SOL    HW2 4371   0.884   0.254  11.338
 1305SOL     OW 4372   1.719   0.585  13.003
 1305SOL    HW1 4373   1.693   0.674  12.967
 1305SOL    HW2 4374   1.717   0.517  12.930
 1306SOL     OW 4375   1.362   1.144  11.717
 1306SOL    HW1 4376   1.445   1.115  11.669
 1306SOL    HW2 4377   1.313   1.211  11.661
 1307SOL     OW 4378   0.550   0.196  12.057
 1307SOL    HW1 4379   0.545   0.191  12.157
 1307SOL    HW2 4380   0.552   0.292  12.028
 1308SOL     OW 4381   1.008   1.456  11.649
 1308SOL    HW1 4382   0.962   1.528  11.597
 1308SOL    HW2 4383   1.004   1.476  11.747
 1309SOL     OW 4384   0.351   1.801  12.025
 1309SOL    HW1 4385   0.401   1.715  12.031
 1309SOL    HW2 4386   0.416   1.878  12.022
 1310SOL     OW 4387   1.795   1.066  12.045
 1310SOL    HW1 4388   1.733   1.051  11.969
 1310SOL    HW2 4389   1.743   1.077  12.130
 1311SOL     OW 4390   1.227   1.550  12.678
 1311SOL    HW1 4391   1.233   1.473  12.742
 1311SOL    HW2 4392   1.175   1.524  12.598
 1312SOL     OW 4393   0.321   0.943  11.414
 1312SOL    HW1 4394   0.403   0.982  11.372
 1312SOL    HW2 4395   0.294   0.861  11.365
 1313SOL     OW 4396   1.458   0.735  11.900
 1313SOL    HW1 4397   1.453   0.670  11.975
 1313SOL    HW2 4398   1.538   0.794  11.913
 1314SOL     OW 4399   0.461   1.266  12.899
 1314SOL    HW1 4400   0.411   1.267  12.813
 1314SOL    HW2 4401   0.398   1.248  12.975
 1315SOL     OW 4402   1.111   1.776  11.409
 1315SOL    HW1 4403   1.051   1.714  11.459
 1315SOL    HW2 4404   1.142   1.732  11.324
 1316SOL     OW 4405   0.202   0.285  12.670
 1316SOL    HW1 4406   0.122   0.345  12.657
 1316SOL    HW2 4407   0.192   0.236  12.756
 1317SOL     OW 4408   1.632   1.377  11.253
 1317SOL    HW1 4409   1.600   1.471  11.243
 1317SOL    HW2 4410   1.556   1.314  11.241
 1318SOL     OW 4411   0.464   1.743  11.495
 1318SOL    HW1 4412   0.497   1.782  11.581
 1318SOL    HW2 4413   0.540   1.736  11.430
 1319SOL     OW 4414   1.400   0.107  11.598
 1319SOL    HW1 4415   1.376   0.070  11.508
 1319SOL    HW2 4416   1.499   0.123  11.602
 1320SOL     OW 4417   0.249   1.785  12.413
 1320SOL    HW1 4418   0.306   1.720  12.463
 1320SOL    HW2 4419   0.233   1.752  12.320
 1321SOL     OW 4420   0.940   1.698  12.076
 1321SOL    HW1 4421   1.020   1.641  12.097
 1321SOL    HW2 4422   0.891   1.658  11.999
 1322SOL     OW 4423   0.382   0.700  11.652
 1322SOL    HW1 4424   0.427   0.610  11.649
 1322SOL    HW2 4425   0.288   0.689  11.685
 1323SOL     OW 4426   1.547   0.222  12.901
 1323SOL    HW1 4427   1.542   0.259  12.993
 1323SOL    HW2 4428   1.475   0.153  12.889
 1324SOL     OW 4429   0.614   0.122  11.289
 1324SOL    HW1 4430   0.712   0.100  11.296
 1324SOL    HW2 4431   0.583   0.105  11.196
 1325SOL     OW 4432   0.781   0.264  12.921
 1325SOL    HW1 4433   0.848   0.203  12.964
 1325SOL    HW2 4434   0.708   0.283  12.986
 1326SOL     OW 4435   0.888   1.514  12.367
 1326SOL    HW1 4436   0.865   1.489  12.273
 1326SOL    HW2 4437   0.949   1.445  12.406
 1327SOL     OW 4438   1.351   0.590  12.605
 1327SOL    HW1 4439   1.379   0.547  12.690
 1327SOL    HW2 4440   1.376   0.686  12.606
 1328SOL     OW 4441   0.803   1.402  12.096
 1328SOL    HW1 4442   0.893   1.416  12.054
 1328SOL    HW2 4443   0.732   1.404  12.025
 1329SOL     OW 4444   0.922   0.503  12.071
 1329SOL    HW1 4445   0.897   0.494  11.975
 1329SOL    HW2 4446   0.970   0.421  12.102
 1330SOL     OW 4447   0.539   0.064  11.684
 1330SOL    HW1 4448   0.458   0.065  11.742
 1330SOL    HW2 4449   0.542   0.147  11.629
 1331SOL     OW 4450   1.434   1.188  11.213
 1331SOL    HW1 4451   1.466   1.112  11.270
 1331SOL    HW2 4452   1.342   1.215  11.243
 1332SOL     OW 4453   0.297   0.035  11.343
 1332SOL    HW1 4454   0.346   0.119  11.322
 1332SOL    HW2 4455   0.359  -0.030  11.388
 1333SOL     OW 4456   0.935   0.236  11.652
 1333SOL    HW1 4457   0.887   0.277  11.574
 1333SOL    HW2 4458   1.034   0.234  11.633
 1334SOL     OW 4459   1.076   0.683  12.636
 1334SOL    HW1 4460   0.996   0.622  12.639
 1334SOL    HW2 4461   1.157   0.630  12.612
 1335SOL     OW 4462   1.227   1.570  11.965
 1335SOL    HW1 4463   1.248   1.644  11.900
 1335SOL    HW2 4464   1.295   1.570  12.038
 1336SOL     OW 4465   0.459   1.152  11.913
 1336SOL    HW1 4466   0.388   1.125  11.978
 1336SOL    HW2 4467   0.433   1.124  11.820
 1337SOL     OW 4468   1.271   1.797  11.763
 1337SOL    HW1 4469   1.315   1.861  11.699
 1337SOL    HW2 4470   1.221   1.849  11.833
 1338SOL     OW 4471   1.032   0.549  11.188
 1338SOL    HW1 4472   0.991   0.631  11.149
 1338SOL    HW2 4473   1.096   0.575  11.261
 1339SOL     OW 4474   0.078   0.556  12.558
 1339SOL    HW1 4475   0.170   0.555  12.517
 1339SOL    HW2 4476   0.072   0.630  12.625
 1340SOL     OW 4477   0.561   0.222  12.319
 1340SOL    HW1 4478   0.599   0.138  12.356
 1340SOL    HW2 4479   0.473   0.241  12.363
 1341SOL     OW 4480   0.866   0.454  11.814
 1341SOL    HW1 4481   0.834   0.526  11.752
 1341SOL    HW2 4482   0.890   0.373  11.761
 1342SOL     OW 4483   1.017   0.039  11.925
 1342SOL    HW1 4484   0.945   0.044  11.856
 1342SOL    HW2 4485   0.993  -0.030  11.994
 1343SOL     OW 4486   1.429   1.173  12.039
 1343SOL    HW1 4487   1.374   1.089  12.032
 1343SOL    HW2 4488   1.455   1.202  11.947
 1344SOL     OW 4489   1.466   0.590  12.164
 1344SOL    HW1 4490   1.436   0.495  12.171
 1344SOL    HW2 4491   1.539   0.606  12.230
 1345SOL     OW 4492   1.857   0.833  11.549
 1345SOL    HW1 4493   1.899   0.769  11.613
 1345SOL    HW2 4494   1.819   0.782  11.471
 1346SOL     OW 4495   0.488   1.385  11.346
 1346SOL    HW1 4496   0.401   1.370  11.393
 1346SOL    HW2 4497   0.471   1.411  11.251
 1347SOL     OW 4498   1.664   1.280  11.829
 1347SOL    HW1 4499   1.763   1.288  11.843
 1347SOL    HW2 4500   1.619   1.364  11.860
 1348SOL     OW 4501   1.390   0.575  11.250
 1348SOL    HW1 4502   1.336   0.554  11.331
 1348SOL    HW2 4503   1.481   0.534  11.259
 1349SOL     OW 4504   0.527   0.256  11.500
 1349SOL    HW1 4505   0.554   0.197  11.425
 1349SOL    HW2 4506   0.527   0.351  11.469
 1350SOL     OW 4507   1.754   1.223  12.760
 1350SOL    HW1 4508   1.845   1.184  12.747
 1350SOL    HW2 4509   1.762   1.319  12.784
 1351SOL     OW 4510   1.064   1.347  12.512
 1351SOL    HW1 4511   0.984   1.324  12.567
 1351SOL    HW2 4512   1.147   1.321  12.561
 1352SOL     OW 4513   1.592   1.629  12.797
 1352SOL    HW1 4514   1.619   1.663  12.707
 1352SOL    HW2 4515   1.671   1.591  12.843
 1353SOL     OW 4516   1.111   1.195  12.272
 1353SOL    HW1 4517   1.071   1.239  12.353
 1353SOL    HW2 4518   1.070   1.232  12.189
 1354SOL     OW 4519   1.638   1.099  12.251
 1354SOL    HW1 4520   1.643   1.180  12.310
 1354SOL    HW2 4521   1.552   1.101  12.200
 1355SOL     OW 4522   0.915   0.089  12.574
 1355SOL    HW1 4523   0.940   0.069  12.479
 1355SOL    HW2 4524   0.987   0.145  12.616
 1356SOL     OW 4525   0.980   1.116  12.891
 1356SOL    HW1 4526   0.881   1.122  12.901
 1356SOL    HW2 4527   1.003   1.036  12.835
 1357SOL     OW 4528   0.705   1.050  11.540
 1357SOL    HW1 4529   0.691   1.057  11.639
 1357SOL    HW2 4530   0.789   0.999  11.522
 1358SOL     OW 4531   0.410   0.813  12.423
 1358SOL    HW1 4532   0.496   0.825  12.473
 1358SOL    HW2 4533   0.368   0.726  12.450
 1359SOL     OW 4534   1.274   0.386  12.434
 1359SOL    HW1 4535   1.295   0.460  12.498
 1359SOL    HW2 4536   1.185   0.403  12.391
 1360SOL     OW 4537   0.064   1.564  12.503
 1360SOL    HW1 4538   0.018   1.646  12.469
 1360SOL    HW2 4539   0.162   1.583  12.512
 1361SOL     OW 4540   0.367   1.100  11.673
 1361SOL    HW1 4541   0.360   1.183  11.617
 1361SOL    HW2 4542   0.371   1.020  11.613
 1362SOL     OW 4543   0.566   0.537  12.037
 1362SOL    HW1 4544   0.578   0.603  11.963
 1362SOL    HW2 4545   0.612   0.571  12.120
 1363SOL     OW 4546   1.252   1.348  11.560
 1363SOL    HW1 4547   1.302   1.425  11.600
 1363SOL    HW2 4548   1.157   1.350  11.592
 1364SOL     OW 4549   1.272   1.445  12.314
 1364SOL    HW1 4550   1.319   1.458  12.401
 1364SOL    HW2 4551   1.206   1.371  12.323
 1365SOL     OW 4552   1.582   0.639  11.644
 1365SOL    HW1 4553   1.551   0.700  11.717
 1365SOL    HW2 4554   1.632   0.691  11.575
 1366SOL     OW 4555   0.354   1.510  12.501
 1366SOL    HW1 4556   0.333   1.466  12.414
 1366SOL    HW2 4557   0.451   1.536  12.504
 1367SOL     OW 4558   0.402   0.751  12.770
 1367SOL    HW1 4559   0.470   0.806  12.723
 1367SOL    HW2 4560   0.442   0.663  12.797
 1368SOL     OW 4561   1.587   0.779  12.842
 1368SOL    HW1 4562   1.495   0.817  12.837
 1368SOL    HW2 4563   1.647   0.826  12.777
 1369SOL     OW 4564   1.013   0.105  12.942
 1369SOL    HW1 4565   1.019   0.190  12.890
 1369SOL    HW2 4566   1.045   0.029  12.885
 1370SOL     OW 4567   0.504   0.050  12.912
 1370SOL    HW1 4568   0.462  -0.007  12.842
 1370SOL    HW2 4569   0.438   0.119  12.944
 1371SOL     OW 4570   0.573   0.870  12.201
 1371SOL    HW1 4571   0.617   0.959  12.192
 1371SOL    HW2 4572   0.510   0.870  12.278
 1372SOL     OW 4573   1.360   0.862  12.217
 1372SOL    HW1 4574   1.285   0.862  12.151
 1372SOL    HW2 4575   1.397   0.770  12.226
 1373SOL     OW 4576   1.209   0.525  11.447
 1373SOL    HW1 4577   1.222   0.441  11.501
 1373SOL    HW2 4578   1.180   0.599  11.507
 1374SOL     OW 4579   0.307   0.213  12.403
 1374SOL    HW1 4580   0.284   0.250  12.493
 1374SOL    HW2 4581   0.277   0.118  12.397
 1375SOL     OW 4582   0.037   1.310  12.454
 1375SOL    HW1 4583   0.090   1.261  12.522
 1375SOL    HW2 4584   0.059   1.408  12.459
 1376SOL     OW 4585   0.732   0.634  12.236
 1376SOL    HW1 4586   0.791   0.608  12.160
 1376SOL    HW2 4587   0.704   0.730  12.225
 1377SOL     OW 4588   1.728   0.935  13.026
 1377SOL    HW1 4589   1.682   0.928  12.937
 1377SOL    HW2 4590   1.666   0.979  13.092
 1378SOL     OW 4591   0.307   0.063  11.790
 1378SOL    HW1 4592   0.296   0.157  11.823
 1378SOL    HW2 4593   0.302   0.000  11.867
 1379SOL     OW 4594   1.622   0.367  11.546
 1379SOL    HW1 4595   1.624   0.291  11.610
 1379SOL    HW2 4596   1.574   0.444  11.586
 1380SOL     OW 4597   1.023   0.766  12.138
 1380SOL    HW1 4598   1.038   0.787  12.234
 1380SOL    HW2 4599   0.993   0.671  12.129
 1381SOL     OW 4600   0.980   1.573  12.872
 1381SOL    HW1 4601   0.960   1.617  12.784
 1381SOL    HW2 4602   1.019   1.482  12.856
 1382SOL     OW 4603   1.859   1.518  12.777
 1382SOL    HW1 4604   1.873   1.545  12.682
 1382SOL    HW2 4605   1.942   1.540  12.830
 1383SOL     OW 4606   0.350   0.898  12.976
 1383SOL    HW1 4607   0.426   0.942  13.024
 1383SOL    HW2 4608   0.385   0.851  12.894
 1384SOL     OW 4609   1.540   0.274  11.297
 1384SOL    HW1 4610   1.479   0.199  11.320
 1384SOL    HW2 4611   1.562   0.326  11.380
 1385SOL     OW 4612   1.303   0.838  11.214
 1385SOL    HW1 4613   1.337   0.745  11.229
 1385SOL    HW2 4614   1.321   0.865  11.119
 1386SOL     OW 4615   1.068   1.333  12.021
 1386SOL    HW1 4616   1.075   1.249  11.966
 1386SOL    HW2 4617   1.130   1.402  11.985
 1387SOL     OW 4618   0.319   0.810  12.121
 1387SOL    HW1 4619   0.412   0.846  12.126
 1387SOL    HW2 4620   0.313   0.725  12.173
 1388SOL     OW 4621   0.339   0.509  12.178
 1388SOL    HW1 4622   0.287   0.426  12.161
 1388SOL    HW2 4623   0.416   0.514  12.114
 1389SOL     OW 4624   1.138   0.380  12.850
 1389SOL    HW1 4625   1.093   0.443  12.914
 1389SOL    HW2 4626   1.231   0.411  12.833
 1390SOL     OW 4627   1.160   0.207  12.649
 1390SOL    HW1 4628   1.160   0.271  12.726
 1390SOL    HW2 4629   1.188   0.255  12.566
 1391SOL     OW 4630   0.008   1.326  11.372
 1391SOL    HW1 4631  -0.085   1.347  11.341
 1391SOL    HW2 4632   0.018   1.227  11.385
 1392SOL     OW 4633   0.088   1.801  12.099
 1392SOL    HW1 4634   0.046   1.715  12.072
 1392SOL    HW2 4635   0.182   1.804  12.065
 1393SOL     OW 4636   0.504   1.568  12.082
 1393SOL    HW1 4637   0.570   1.642  12.091
 1393SOL    HW2 4638   0.548   1.489  12.040
 1394SOL     OW 4639   1.002   0.796  12.410
 1394SOL    HW1 4640   1.043   0.764  12.496
 1394SOL    HW2 4641   0.906   0.769  12.407
 1395SOL     OW 4642   0.040   0.544  12.286
 1395SOL    HW1 4643   0.125   0.511  12.245
 1395SOL    HW2 4644   0.053   0.559  12.384
 1396SOL     OW 4645   0.189   0.520  12.894
 1396SOL    HW1 4646   0.248   0.480  12.824
 1396SOL    HW2 4647   0.131   0.591  12.853
 1397SOL     OW 4648   1.369   0.950  12.832
 1397SOL    HW1 4649   1.408   1.039  12.852
 1397SOL    HW2 4650   1.379   0.930  12.735
 1398SOL     OW 4651   0.815   0.572  11.497
 1398SOL    HW1 4652   0.822   0.483  11.451
 1398SOL    HW2 4653   0.721   0.606  11.489
 1399SOL     OW 4654   1.657   0.604  12.378
 1399SOL    HW1 4655   1.619   0.535  12.440
 1399SOL    HW2 4656   1.739   0.568  12.334
 1400SOL     OW 4657   0.252   1.564  12.916
 1400SOL    HW1 4658   0.222   1.621  12.992
 1400SOL    HW2 4659   0.245   1.467  12.942
 1401SOL     OW 4660   0.671   0.464  12.441
 1401SOL    HW1 4661   0.637   0.375  12.411
 1401SOL    HW2 4662   0.697   0.518  12.361
 1402SOL     OW 4663   0.930   1.678  12.637
 1402SOL    HW1 4664   0.906   1.660  12.542
 1402SOL    HW2 4665   0.960   1.772  12.647
 1403SOL     OW 4666   0.473   0.500  11.363
 1403SOL    HW1 4667   0.534   0.580  11.367
 1403SOL    HW2 4668   0.378   0.531  11.370
 1404SOL     OW 4669   0.159   1.137  12.638
 1404SOL    HW1 4670   0.181   1.076  12.714
 1404SOL    HW2 4671   0.169   1.088  12.552
 1405SOL     OW 4672   1.347   1.059  12.406
 1405SOL    HW1 4673   1.371   0.996  12.332
 1405SOL    HW2 4674   1.257   1.099  12.388
 1406SOL     OW 4675   1.302   0.855  11.481
 1406SOL    HW1 4676   1.216   0.824  11.523
 1406SOL    HW2 4677   1.298   0.841  11.382
 1407SOL     OW 4678   1.759   1.747  12.326
 1407SOL    HW1 4679   1.820   1.777  12.253
 1407SOL    HW2 4680   1.721   1.658  12.304
 1408SOL     OW 4681   1.252   1.731  12.300
 1408SOL    HW1 4682   1.336   1.736  12.246
 1408SOL    HW2 4683   1.229   1.635  12.318
 1409SOL     OW 4684   0.083   1.258  12.194
 1409SOL    HW1 4685   0.078   1.257  12.294
 1409SOL    HW2 4686   0.000   1.217  12.156
 1410SOL     OW 4687   0.688   1.662  12.888
 1410SOL    HW1 4688   0.632   1.743  12.897
 1410SOL    HW2 4689   0.740   1.666  12.802
 1411SOL     OW 4690   1.726   0.135  11.695
 1411SOL    HW1 4691   1.799   0.118  11.628
 1411SOL    HW2 4692   1.695   0.048  11.733
 1412SOL     OW 4693   1.388   1.573  11.649
 1412SOL    HW1 4694   1.455   1.585  11.575
 1412SOL    HW2 4695   1.348   1.662  11.672
 1413SOL     OW 4696   0.130   1.794  13.023
 1413SOL    HW1 4697   0.089   1.720  13.076
 1413SOL    HW2 4698   0.194   1.845  13.081
 1414SOL     OW 4699   1.280   0.927  11.844
 1414SOL    HW1 4700   1.340   0.846  11.846
 1414SOL    HW2 4701   1.320   0.996  11.784
 1415SOL     OW 4702   0.830   1.273  12.594
 1415SOL    HW1 4703   0.825   1.306  12.689
 1415SOL    HW2 4704   0.744   1.292  12.548
 1416SOL     OW 4705   0.672   1.616  11.326
 1416SOL    HW1 4706   0.681   1.626  11.227
 1416SOL    HW2 4707   0.632   1.527  11.347
 1417SOL     OW 4708   1.650   1.720  12.566
 1417SOL    HW1 4709   1.703   1.730  12.482
 1417SOL    HW2 4710   1.623   1.810  12.600
 1418SOL     OW 4711   1.841   0.175  12.135
 1418SOL    HW1 4712   1.880   0.090  12.099
 1418SOL    HW2 4713   1.743   0.177  12.116
 1419SOL     OW 4714   0.263   0.326  11.892
 1419SOL    HW1 4715   0.184   0.377  11.858
 1419SOL    HW2 4716   0.254   0.311  11.990
 1420SOL     OW 4717   1.194   1.612  11.203
 1420SOL    HW1 4718   1.200   1.519  11.240
 1420SOL    HW2 4719   1.135   1.612  11.123
 1421SOL     OW 4720   0.822   1.002  12.544
 1421SOL    HW1 4721   0.862   1.001  12.452
 1421SOL    HW2 4722   0.832   1.094  12.584
 1422SOL     OW 4723   0.916   0.910  11.463
 1422SOL    HW1 4724   0.979   0.948  11.395
 1422SOL    HW2 4725   0.956   0.827  11.502
 1423SOL     OW 4726   1.504   1.607  11.216
 1423SOL    HW1 4727   1.412   1.644  11.223
 1423SOL    HW2 4728   1.542   1.627  11.126
 1424SOL     OW 4729   0.372   1.288  12.662
 1424SOL    HW1 4730   0.359   1.381  12.628
 1424SOL    HW2 4731   0.288   1.236  12.649
 1425SOL     OW 4732   1.614   1.292  12.461
 1425SOL    HW1 4733   1.674   1.295  12.541
 1425SOL    HW2 4734   1.539   1.356  12.474
 1426SOL     OW 4735   1.039   1.098  11.868
 1426SOL    HW1 4736   0.969   1.051  11.922
 1426SOL    HW2 4737   1.098   1.030  11.825
 1427SOL     OW 4738   1.014   0.236  12.143
 1427SOL    HW1 4739   1.006   0.200  12.050
 1427SOL    HW2 4740   1.012   0.160  12.208
 1428SOL     OW 4741   0.590   1.487  11.663
 1428SOL    HW1 4742   0.632   1.429  11.593
 1428SOL    HW2 4743   0.546   1.566  11.619
 1429SOL     OW 4744   1.709   0.385  12.553
 1429SOL    HW1 4745   1.782   0.454  12.557
 1429SOL    HW2 4746   1.737   0.310  12.494
 1430SOL     OW 4747   0.255   1.348  11.462
 1430SOL    HW1 4748   0.159   1.349  11.435
 1430SOL    HW2 4749   0.267   1.401  11.546
 1431SOL     OW 4750   0.105   1.013  12.898
 1431SOL    HW1 4751   0.028   0.980  12.952
 1431SOL    HW2 4752   0.190   0.983  12.940
 1432SOL     OW 4753   0.672   0.203  12.661
 1432SOL    HW1 4754   0.762   0.187  12.621
 1432SOL    HW2 4755   0.680   0.208  12.760
 1433SOL     OW 4756   0.075   0.345  11.205
 1433SOL    HW1 4757  -0.017   0.317  11.176
 1433SOL    HW2 4758   0.106   0.422  11.149
 1434SOL     OW 4759   1.440   0.856  12.570
 1434SOL    HW1 4760   1.383   0.908  12.507
 1434SOL    HW2 4761   1.536   0.868  12.546
 1435SOL     OW 4762   0.072   0.166  11.490
 1435SOL    HW1 4763   0.055   0.249  11.436
 1435SOL    HW2 4764   0.162   0.129  11.468
 1436SOL     OW 4765   1.183   1.335  11.291
 1436SOL    HW1 4766   1.084   1.324  11.293
 1436SOL    HW2 4767   1.217   1.350  11.384
 1437SOL     OW 4768   0.613   0.842  12.603
 1437SOL    HW1 4769   0.669   0.923  12.586
 1437SOL    HW2 4770   0.672   0.762  12.606
 1438SOL     OW 4771   1.493   1.767  12.131
 1438SOL    HW1 4772   1.526   1.831  12.062
 1438SOL    HW2 4773   1.559   1.761  12.206
 1439SOL     OW 4774   0.716   0.565  12.880
 1439SOL    HW1 4775   0.735   0.630  12.954
 1439SOL    HW2 4776   0.776   0.485  12.889
 1440SOL     OW 4777   1.450   1.220  12.805
 1440SOL    HW1 4778   1.441   1.210  12.904
 1440SOL    HW2 4779   1.546   1.213  12.779
 1441SOL     OW 4780   0.390   1.741  12.732
 1441SOL    HW1 4781   0.299   1.782  12.730
 1441SOL    HW2 4782   0.383   1.647  12.764
 1442SOL     OW 4783   1.674   0.883  12.426
 1442SOL    HW1 4784   1.647   0.794  12.389
 1442SOL    HW2 4785   1.675   0.951  12.353
 1443SOL     OW 4786   1.225   0.325  11.621
 1443SOL    HW1 4787   1.290   0.251  11.610
 1443SOL    HW2 4788   1.245   0.375  11.705
 1444SOL     OW 4789   0.594   0.745  11.824
 1444SOL    HW1 4790   0.644   0.830  11.805
 1444SOL    HW2 4791   0.506   0.747  11.776
 1445SOL     OW 4792   1.777   0.342  12.814
 1445SOL    HW1 4793   1.760   0.373  12.720
 1445SOL    HW2 4794   1.693   0.305  12.852
 1446SOL     OW 4795   1.730   0.934  12.689
 1446SOL    HW1 4796   1.768   1.025  12.704
 1446SOL    HW2 4797   1.722   0.917  12.590
 1447SOL     OW 4798   0.859   1.374  11.188
 1447SOL    HW1 4799   0.813   1.389  11.276
 1447SOL    HW2 4800   0.903   1.459  11.158
 1448SOL     OW 4801   0.661   1.790  12.125
 1448SOL    HW1 4802   0.615   1.878  12.112
 1448SOL    HW2 4803   0.760   1.802  12.118
 1449SOL     OW 4804   0.859   0.956  12.033
 1449SOL    HW1 4805   0.913   0.887  12.081
 1449SOL    HW2 4806   0.827   1.025  12.099
 1450SOL     OW 4807   1.083   0.984  11.259
 1450SOL    HW1 4808   1.060   1.037  11.177
 1450SOL    HW2 4809   1.164   0.928  11.240
 1451SOL     OW 4810   1.861   1.569  12.023
 1451SOL    HW1 4811   1.790   1.557  11.953
 1451SOL    HW2 4812   1.862   1.490  12.083
 1452SOL     OW 4813   0.221   1.314  13.016
 1452SOL    HW1 4814   0.156   1.241  12.995
 1452SOL    HW2 4815   0.225   1.328  13.114
 1453SOL     OW 4816   0.079   1.240  11.825
 1453SOL    HW1 4817   0.078   1.193  11.913
 1453SOL    HW2 4818   0.161   1.212  11.774
 1454SOL     OW 4819   0.672   1.391  12.796
 1454SOL    HW1 4820   0.594   1.341  12.834
 1454SOL    HW2 4821   0.669   1.486  12.827
 1455SOL     OW 4822   1.824   0.192  12.399
 1455SOL    HW1 4823   1.820   0.102  12.443
 1455SOL    HW2 4824   1.827   0.181  12.300
 1456SOL     OW 4825   0.428   0.424  11.692
 1456SOL    HW1 4826   0.458   0.352  11.630
 1456SOL    HW2 4827   0.389   0.384  11.775
 1457SOL     OW 4828   1.705   1.487  12.276
 1457SOL    HW1 4829   1.612   1.462  12.249
 1457SOL    HW2 4830   1.731   1.437  12.358
 1458SOL     OW 4831   0.317   0.547  12.452
 1458SOL    HW1 4832   0.355   0.488  12.524
 1458SOL    HW2 4833   0.357   0.521  12.364
 1459SOL     OW 4834   0.812   1.586  11.859
 1459SOL    HW1 4835   0.844   1.596  11.765
 1459SOL    HW2 4836   0.733   1.524  11.861
 1460SOL     OW 4837   1.424   0.214  12.284
 1460SOL    HW1 4838   1.476   0.149  12.339
 1460SOL    HW2 4839   1.375   0.277  12.345
 1461SOL     OW 4840   1.001   0.034  12.326
 1461SOL    HW1 4841   0.938  -0.038  12.295
 1461SOL    HW2 4842   1.094  -0.002  12.326
 1462SOL     OW 4843   0.770   1.330  11.473
 1462SOL    HW1 4844   0.724   1.243  11.490
 1462SOL    HW2 4845   0.861   1.327  11.514
 1463SOL     OW 4846   0.618   1.567  12.456
 1463SOL    HW1 4847   0.613   1.649  12.513
 1463SOL    HW2 4848   0.707   1.564  12.411
 1464SOL     OW 4849   1.352   0.052  11.340
 1464SOL    HW1 4850   1.387   0.011  11.256
 1464SOL    HW2 4851   1.262   0.014  11.360
 1465SOL     OW 4852   1.300   0.453  11.863
 1465SOL    HW1 4853   1.241   0.533  11.867
 1465SOL    HW2 4854   1.315   0.418  11.956
 1466SOL     OW 4855   1.593   0.221  12.054
 1466SOL    HW1 4856   1.509   0.220  12.108
 1466SOL    HW2 4857   1.595   0.304  11.998
 1467SOL     OW 4858   0.039   1.077  11.472
 1467SOL    HW1 4859   0.138   1.066  11.463
 1467SOL    HW2 4860  -0.001   0.991  11.504
 1468SOL     OW 4861   0.875   1.646  11.509
 1468SOL    HW1 4862   0.798   1.611  11.455
 1468SOL    HW2 4863   0.843   1.717  11.571
 1469SOL     OW 4864   0.230   0.628  13.147
 1469SOL    HW1 4865   0.137   0.626  13.184
 1469SOL    HW2 4866   0.231   0.589  13.055
 1470SOL     OW 4867   0.225   0.275  14.030
 1470SOL    HW1 4868   0.260   0.258  14.122
 1470SOL    HW2 4869   0.137   0.230  14.018
 1471SOL     OW 4870   0.019   0.368  13.681
 1471SOL    HW1 4871  -0.063   0.411  13.720
 1471SOL    HW2 4872  -0.009   0.295  13.618
 1472SOL     OW 4873   1.555   1.511  13.737
 1472SOL    HW1 4874   1.498   1.495  13.818
 1472SOL    HW2 4875   1.496   1.521  13.657
 1473SOL     OW 4876   1.135   0.703  13.751
 1473SOL    HW1 4877   1.192   0.781  13.726
 1473SOL    HW2 4878   1.075   0.729  13.827
 1474SOL     OW 4879   1.755   0.607  13.265
 1474SOL    HW1 4880   1.743   0.594  13.166
 1474SOL    HW2 4881   1.725   0.526  13.314
 1475SOL     OW 4882   0.685   1.012  13.699
 1475SOL    HW1 4883   0.754   0.996  13.769
 1475SOL    HW2 4884   0.612   1.069  13.737
 1476SOL     OW 4885   1.603   0.447  13.771
 1476SOL    HW1 4886   1.529   0.493  13.721
 1476SOL    HW2 4887   1.654   0.515  13.824
 1477SOL     OW 4888   0.231   1.713  13.517
 1477SOL    HW1 4889   0.265   1.790  13.571
 1477SOL    HW2 4890   0.275   1.713  13.427
 1478SOL     OW 4891   0.230   1.434  13.572
 1478SOL    HW1 4892   0.204   1.530  13.572
 1478SOL    HW2 4893   0.159   1.380  13.617
 1479SOL     OW 4894   0.240   1.091  13.920
 1479SOL    HW1 4895   0.254   1.007  13.972
 1479SOL    HW2 4896   0.185   1.155  13.975
 1480SOL     OW 4897   0.606   0.964  13.157
 1480SOL    HW1 4898   0.613   1.048  13.103
 1480SOL    HW2 4899   0.652   0.977  13.245
 1481SOL     OW 4900   0.122   0.643  13.597
 1481SOL    HW1 4901   0.077   0.555  13.614
 1481SOL    HW2 4902   0.121   0.697  13.681
 1482SOL     OW 4903   0.027   1.596  13.151
 1482SOL    HW1 4904   0.008   1.500  13.172
 1482SOL    HW2 4905  -0.006   1.654  13.226
 1483SOL     OW 4906   1.689   0.922  13.646
 1483SOL    HW1 4907   1.784   0.893  13.654
 1483SOL    HW2 4908   1.681   0.987  13.571
 1484SOL     OW 4909   1.641   1.108  13.466
 1484SOL    HW1 4910   1.727   1.110  13.414
 1484SOL    HW2 4911   1.655   1.155  13.554
 1485SOL     OW 4912   0.613   1.365  13.760
 1485SOL    HW1 4913   0.564   1.278  13.769
 1485SOL    HW2 4914   0.590   1.408  13.673
 1486SOL     OW 4915   0.809   0.004  13.536
 1486SOL    HW1 4916   0.849   0.095  13.527
 1486SOL    HW2 4917   0.709   0.012  13.542
 1487SOL     OW 4918   1.525   0.999  13.224
 1487SOL    HW1 4919   1.462   0.923  13.237
 1487SOL    HW2 4920   1.573   1.017  13.310
 1488SOL     OW 4921   1.667   1.714  13.606
 1488SOL    HW1 4922   1.626   1.691  13.518
 1488SOL    HW2 4923   1.649   1.640  13.671
 1489SOL     OW 4924   0.598   0.729  13.304
 1489SOL    HW1 4925   0.622   0.798  13.236
 1489SOL    HW2 4926   0.520   0.762  13.358
 1490SOL     OW 4927   1.281   0.345  13.978
 1490SOL    HW1 4928   1.195   0.295  13.965
 1490SOL    HW2 4929   1.343   0.291  14.034
 1491SOL     OW 4930   1.576   1.662  13.341
 1491SOL    HW1 4931   1.665   1.708  13.344
 1491SOL    HW2 4932   1.555   1.638  13.246
 1492SOL     OW 4933   1.041   0.701  13.463
 1492SOL    HW1 4934   1.067   0.697  13.559
 1492SOL    HW2 4935   0.956   0.650  13.449
 1493SOL     OW 4936   0.076   0.811  13.823
 1493SOL    HW1 4937   0.175   0.799  13.832
 1493SOL    HW2 4938   0.052   0.906  13.844
 1494SOL     OW 4939   0.865   0.348  13.229
 1494SOL    HW1 4940   0.924   0.411  13.180
 1494SOL    HW2 4941   0.884   0.254  13.200
 1495SOL     OW 4942   1.362   1.144  13.579
 1495SOL    HW1 4943   1.445   1.115  13.531
 1495SOL    HW2 4944   1.313   1.211  13.523
 1496SOL     OW 4945   1.008   1.456  13.511
 1496SOL    HW1 4946   0.962   1.528  13.459
 1496SOL    HW2 4947   1.004   1.476  13.609
 1497SOL     OW 4948   0.351   1.801  13.887
 1497SOL    HW1 4949   0.401   1.715  13.893
 1497SOL    HW2 4950   0.416   1.878  13.884
 1498SOL     OW 4951   1.795   1.066  13.907
 1498SOL    HW1 4952   1.733   1.051  13.831
 1498SOL    HW2 4953   1.743   1.077  13.992
 1499SOL     OW 4954   0.321   0.943  13.276
 1499SOL    HW1 4955   0.403   0.982  13.234
 1499SOL    HW2 4956   0.294   0.861  13.227
 1500SOL     OW 4957   1.458   0.735  13.762
 1500SOL    HW1 4958   1.453   0.670  13.837
 1500SOL    HW2 4959   1.538   0.794  13.775
 1501SOL     OW 4960   1.111   1.776  13.271
 1501SOL    HW1 4961   1.051   1.714  13.321
 1501SOL    HW2 4962   1.142   1.732  13.186
 1502SOL     OW 4963   1.632   1.377  13.115
 1502SOL    HW1 4964   1.600   1.471  13.105
 1502SOL    HW2 4965   1.556   1.314  13.103
 1503SOL     OW 4966   0.464   1.743  13.357
 1503SOL    HW1 4967   0.497   1.782  13.443
 1503SOL    HW2 4968   0.540   1.736  13.292
 1504SOL     OW 4969   1.400   0.107  13.460
 1504SOL    HW1 4970   1.376   0.070  13.370
 1504SOL    HW2 4971   1.499   0.123  13.464
 1505SOL     OW 4972   0.940   1.698  13.938
 1505SOL    HW1 4973   1.020   1.641  13.959
 1505SOL    HW2 4974   0.891   1.658  13.861
 1506SOL     OW 4975   0.382   0.700  13.514
 1506SOL    HW1 4976   0.427   0.610  13.511
 1506SOL    HW2 4977   0.288   0.689  13.547
 1507SOL     OW 4978   0.614   0.122  13.151
 1507SOL    HW1 4979   0.712   0.100  13.158
 1507SOL    HW2 4980   0.583   0.105  13.058
 1508SOL     OW 4981   0.539   0.064  13.546
 1508SOL    HW1 4982   0.458   0.065  13.604
 1508SOL    HW2 4983   0.542   0.147  13.491
 1509SOL     OW 4984   1.434   1.188  13.075
 1509SOL    HW1 4985   1.466   1.112  13.132
 1509SOL    HW2 4986   1.342   1.215  13.105
 1510SOL     OW 4987   0.297   0.035  13.205
 1510SOL    HW1 4988   0.346   0.119  13.184
 1510SOL    HW2 4989   0.359  -0.030  13.250
 1511SOL     OW 4990   0.935   0.236  13.514
 1511SOL    HW1 4991   0.887   0.277  13.436
 1511SOL    HW2 4992   1.034   0.234  13.495
 1512SOL     OW 4993   0.459   1.152  13.775
 1512SOL    HW1 4994   0.388   1.125  13.840
 1512SOL    HW2 4995   0.433   1.124  13.682
 1513SOL     OW 4996   1.271   1.797  13.625
 1513SOL    HW1 4997   1.315   1.861  13.561
 1513SOL    HW2 4998   1.221   1.849  13.695
 1514SOL     OW 4999   1.032   0.549  13.050
 1514SOL    HW1 5000   0.991   0.631  13.011
 1514SOL    HW2 5001   1.096   0.575  13.123
 1515SOL     OW 5002   0.866   0.454  13.676
 1515SOL    HW1 5003   0.834   0.526  13.614
 1515SOL    HW2 5004   0.890   0.373  13.623
 1516SOL     OW 5005   1.017   0.039  13.787
 1516SOL    HW1 5006   0.945   0.044  13.718
 1516SOL    HW2 5007   0.993  -0.030  13.856
 1517SOL     OW 5008   1.857   0.833  13.411
 1517SOL    HW1 5009   1.899   0.769  13.475
 1517SOL    HW2 5010   1.819   0.782  13.333
 1518SOL     OW 5011   0.488   1.385  13.208
 1518SOL    HW1 5012   0.401   1.370  13.255
 1518SOL    HW2 5013   0.471   1.411  13.113
 1519SOL     OW 5014   1.664   1.280  13.691
 1519SOL    HW1 5015   1.763   1.288  13.705
 1519SOL    HW2 5016   1.619   1.364  13.722
 1520SOL     OW 5017   1.390   0.575  13.112
 1520SOL    HW1 5018   1.336   0.554  13.193
 1520SOL    HW2 5019   1.481   0.534  13.121
 1521SOL     OW 5020   0.527   0.256  13.362
 1521SOL    HW1 5021   0.554   0.197  13.287
 1521SOL    HW2 5022   0.527   0.351  13.331
 1522SOL     OW 5023   0.705   1.050  13.402
 1522SOL    HW1 5024   0.691   1.057  13.501
 1522SOL    HW2 5025   0.789   0.999  13.384
 1523SOL     OW 5026   0.367   1.100  13.535
 1523SOL    HW1 5027   0.360   1.183  13.479
 1523SOL    HW2 5028   0.371   1.020  13.475
 1524SOL     OW 5029   0.566   0.537  13.899
 1524SOL    HW1 5030   0.578   0.603  13.825
 1524SOL    HW2 5031   0.612   0.571  13.982
 1525SOL     OW 5032   1.252   1.348  13.422
 1525SOL    HW1 5033   1.302   1.425  13.462
 1525SOL    HW2 5034   1.157   1.350  13.454
 1526SOL     OW 5035   1.582   0.639  13.506
 1526SOL    HW1 5036   1.551   0.700  13.579
 1526SOL    HW2 5037   1.632   0.691  13.437
 1527SOL     OW 5038   1.209   0.525  13.309
 1527SOL    HW1 5039   1.222   0.441  13.363
 1527SOL    HW2 5040   1.180   0.599  13.369
 1528SOL     OW 5041   0.307   0.063  13.652
 1528SOL    HW1 5042   0.296   0.157  13.685
 1528SOL    HW2 5043   0.302   0.000  13.729
 1529SOL     OW 5044   1.622   0.367  13.408
 1529SOL    HW1 5045   1.624   0.291  13.472
 1529SOL    HW2 5046   1.574   0.444  13.448
 1530SOL     OW 5047   1.540   0.274  13.159
 1530SOL    HW1 5048   1.479   0.199  13.182
 1530SOL    HW2 5049   1.562   0.326  13.242
 1531SOL     OW 5050   1.303   0.838  13.076
 1531SOL    HW1 5051   1.337   0.745  13.091
 1531SOL    HW2 5052   1.321   0.865  12.981
 1532SOL     OW 5053   0.008   1.326  13.234
 1532SOL    HW1 5054  -0.085   1.347  13.203
 1532SOL    HW2 5055   0.018   1.227  13.247
 1533SOL     OW 5056   0.815   0.572  13.359
 1533SOL    HW1 5057   0.822   0.483  13.313
 1533SOL    HW2 5058   0.721   0.606  13.351
 1534SOL     OW 5059   0.473   0.500  13.225
 1534SOL    HW1 5060   0.534   0.580  13.229
 1534SOL    HW2 5061   0.378   0.531  13.232
 1535SOL     OW 5062   1.302   0.855  13.343
 1535SOL    HW1 5063   1.216   0.824  13.385
 1535SOL    HW2 5064   1.298   0.841  13.244
 1536SOL     OW 5065   1.726   0.135  13.557
 1536SOL    HW1 5066   1.799   0.118  13.490
 1536SOL    HW2 5067   1.695   0.048  13.595
 1537SOL     OW 5068   1.388   1.573  13.511
 1537SOL    HW1 5069   1.455   1.585  13.437
 1537SOL    HW2 5070   1.348   1.662  13.534
 1538SOL     OW 5071   1.280   0.927  13.706
 1538SOL    HW1 5072   1.340   0.846  13.708
 1538SOL    HW2 5073   1.320   0.996  13.646
 1539SOL     OW 5074   0.672   1.616  13.188
 1539SOL    HW1 5075   0.681   1.626  13.089
 1539SOL    HW2 5076   0.632   1.527  13.209
 1540SOL     OW 5077   1.841   0.175  13.997
 1540SOL    HW1 5078   1.880   0.090  13.961
 1540SOL    HW2 5079   1.743   0.177  13.978
 1541SOL     OW 5080   0.263   0.326  13.754
 1541SOL    HW1 5081   0.184   0.377  13.720
 1541SOL    HW2 5082   0.254   0.311  13.852
 1542SOL     OW 5083   1.194   1.612  13.065
 1542SOL    HW1 5084   1.200   1.519  13.102
 1542SOL    HW2 5085   1.135   1.612  12.985
 1543SOL     OW 5086   0.916   0.910  13.325
 1543SOL    HW1 5087   0.979   0.948  13.257
 1543SOL    HW2 5088   0.956   0.827  13.364
 1544SOL     OW 5089   1.504   1.607  13.078
 1544SOL    HW1 5090   1.412   1.644  13.085
 1544SOL    HW2 5091   1.542   1.627  12.988
 1545SOL     OW 5092   1.039   1.098  13.730
 1545SOL    HW1 5093   0.969   1.051  13.784
 1545SOL    HW2 5094   1.098   1.030  13.687
 1546SOL     OW 5095   0.590   1.487  13.525
 1546SOL    HW1 5096   0.632   1.429  13.455
 1546SOL    HW2 5097   0.546   1.566  13.481
 1547SOL     OW 5098   0.255   1.348  13.324
 1547SOL    HW1 5099   0.159   1.349  13.297
 1547SOL    HW2 5100   0.267   1.401  13.408
 1548SOL     OW 5101   0.075   0.345  13.067
 1548SOL    HW1 5102  -0.017   0.317  13.038
 1548SOL    HW2 5103   0.106   0.422  13.011
 1549SOL     OW 5104   0.072   0.166  13.352
 1549SOL    HW1 5105   0.055   0.249  13.298
 1549SOL    HW2 5106   0.162   0.129  13.330
 1550SOL     OW 5107   1.183   1.335  13.153
 1550SOL    HW1 5108   1.084   1.324  13.155
 1550SOL    HW2 5109   1.217   1.350  13.246
 1551SOL     OW 5110   1.225   0.325  13.483
 1551SOL    HW1 5111   1.290   0.251  13.472
 1551SOL    HW2 5112   1.245   0.375  13.567
 1552SOL     OW 5113   0.594   0.745  13.686
 1552SOL    HW1 5114   0.644   0.830  13.667
 1552SOL    HW2 5115   0.506   0.747  13.638
 1553SOL     OW 5116   0.859   1.374  13.050
 1553SOL    HW1 5117   0.813   1.389  13.138
 1553SOL    HW2 5118   0.903   1.459  13.020
 1554SOL     OW 5119   0.661   1.790  13.987
 1554SOL    HW1 5120   0.615   1.878  13.974
 1554SOL    HW2 5121   0.760   1.802  13.980
 1555SOL     OW 5122   0.859   0.956  13.895
 1555SOL    HW1 5123   0.913   0.887  13.943
 1555SOL    HW2 5124   0.827   1.025  13.961
 1556SOL     OW 5125   1.083   0.984  13.121
 1556SOL    HW1 5126   1.060   1.037  13.039
 1556SOL    HW2 5127   1.164   0.928  13.102
 1557SOL     OW 5128   0.079   1.240  13.687
 1557SOL    HW1 5129   0.078   1.193  13.775
 1557SOL    HW2 5130   0.161   1.212  13.636
 1558SOL     OW 5131   0.428   0.424  13.554
 1558SOL    HW1 5132   0.458   0.352  13.492
 1558SOL    HW2 5133   0.389   0.384  13.637
 1559SOL     OW 5134   1.705   1.487  14.138
 1559SOL    HW1 5135   1.612   1.462  14.111
 1559SOL    HW2 5136   1.731   1.437  14.220
 1560SOL     OW 5137   0.812   1.586  13.721
 1560SOL    HW1 5138   0.844   1.596  13.627
 1560SOL    HW2 5139   0.733   1.524  13.723
 1561SOL     OW 5140   0.770   1.330  13.335
 1561SOL    HW1 5141   0.724   1.243  13.352
 1561SOL    HW2 5142   0.861   1.327  13.376
 1562SOL     OW 5143   1.352   0.052  13.202
 1562SOL    HW1 5144   1.387   0.011  13.118
 1562SOL    HW2 5145   1.262   0.014  13.222
 1563SOL     OW 5146   1.300   0.453  13.725
 1563SOL    HW1 5147   1.241   0.533  13.729
 1563SOL    HW2 5148   1.315   0.418  13.818
 1564SOL     OW 5149   0.039   1.077  13.334
 1564SOL    HW1 5150   0.138   1.066  13.325
 1564SOL    HW2 5151  -0.001   0.991  13.366
 1565SOL     OW 5152   0.875   1.646  13.371
 1565SOL    HW1 5153   0.798   1.611  13.317
 1565SOL    HW2 5154   0.843   1.717  13.433
 1566SOL     OW 5155   0.230   2.490   0.113
 1566SOL    HW1 5156   0.137   2.488   0.150
 1566SOL    HW2 5157   0.231   2.451   0.021
 1567SOL     OW 5158   0.225   2.137   0.996
 1567SOL    HW1 5159   0.260   2.120   1.088
 1567SOL    HW2 5160   0.137   2.092   0.984
 1568SOL     OW 5161   0.019   2.230   0.647
 1568SOL    HW1 5162  -0.063   2.273   0.686
 1568SOL    HW2 5163  -0.009   2.157   0.584
 1569SOL     OW 5164   0.569   3.137   1.165
 1569SOL    HW1 5165   0.476   3.130   1.128
 1569SOL    HW2 5166   0.580   3.226   1.209
 1570SOL     OW 5167   1.555   3.373   0.703
 1570SOL    HW1 5168   1.498   3.357   0.784
 1570SOL    HW2 5169   1.496   3.383   0.623
 1571SOL     OW 5170   1.135   2.565   0.717
 1571SOL    HW1 5171   1.192   2.643   0.692
 1571SOL    HW2 5172   1.075   2.591   0.793
 1572SOL     OW 5173   1.755   2.469   0.231
 1572SOL    HW1 5174   1.743   2.456   0.132
 1572SOL    HW2 5175   1.725   2.388   0.280
 1573SOL     OW 5176   0.768   3.006   1.023
 1573SOL    HW1 5177   0.690   3.023   1.083
 1573SOL    HW2 5178   0.802   3.093   0.987
 1574SOL     OW 5179   0.850   2.660   1.823
 1574SOL    HW1 5180   0.846   2.736   1.888
 1574SOL    HW2 5181   0.872   2.696   1.732
 1575SOL     OW 5182   0.685   2.874   0.665
 1575SOL    HW1 5183   0.754   2.858   0.735
 1575SOL    HW2 5184   0.612   2.931   0.703
 1576SOL     OW 5185   0.686   3.023   1.803
 1576SOL    HW1 5186   0.746   3.102   1.817
 1576SOL    HW2 5187   0.600   3.054   1.762
 1577SOL     OW 5188   0.335   3.297   1.061
 1577SOL    HW1 5189   0.257   3.266   1.008
 1577SOL    HW2 5190   0.393   3.355   1.004
 1578SOL     OW 5191   1.460   3.367   1.339
 1578SOL    HW1 5192   1.484   3.461   1.365
 1578SOL    HW2 5193   1.444   3.313   1.421
 1579SOL     OW 5194   0.438   2.254   1.499
 1579SOL    HW1 5195   0.520   2.198   1.508
 1579SOL    HW2 5196   0.357   2.196   1.503
 1580SOL     OW 5197   1.603   2.309   0.737
 1580SOL    HW1 5198   1.529   2.355   0.687
 1580SOL    HW2 5199   1.654   2.377   0.790
 1581SOL     OW 5200   0.231   3.575   0.483
 1581SOL    HW1 5201   0.265   3.652   0.537
 1581SOL    HW2 5202   0.275   3.575   0.393
 1582SOL     OW 5203   1.127   3.203   1.690
 1582SOL    HW1 5204   1.174   3.203   1.778
 1582SOL    HW2 5205   1.079   3.116   1.679
 1583SOL     OW 5206   0.230   3.296   0.538
 1583SOL    HW1 5207   0.204   3.392   0.538
 1583SOL    HW2 5208   0.159   3.242   0.583
 1584SOL     OW 5209   0.240   2.953   0.886
 1584SOL    HW1 5210   0.254   2.869   0.938
 1584SOL    HW2 5211   0.185   3.017   0.941
 1585SOL     OW 5212   0.620   3.648   1.439
 1585SOL    HW1 5213   0.528   3.631   1.474
 1585SOL    HW2 5214   0.648   3.740   1.465
 1586SOL     OW 5215   0.606   2.826   0.123
 1586SOL    HW1 5216   0.613   2.910   0.069
 1586SOL    HW2 5217   0.652   2.839   0.211
 1587SOL     OW 5218   1.594   1.976   1.480
 1587SOL    HW1 5219   1.576   2.043   1.408
 1587SOL    HW2 5220   1.591   2.022   1.569
 1588SOL     OW 5221   0.122   2.505   0.563
 1588SOL    HW1 5222   0.077   2.417   0.580
 1588SOL    HW2 5223   0.121   2.559   0.647
 1589SOL     OW 5224   1.842   3.629   0.359
 1589SOL    HW1 5225   1.896   3.600   0.439
 1589SOL    HW2 5226   1.872   3.719   0.330
 1590SOL     OW 5227   0.027   3.458   0.117
 1590SOL    HW1 5228   0.008   3.362   0.138
 1590SOL    HW2 5229  -0.006   3.516   0.192
 1591SOL     OW 5230   1.689   2.784   0.612
 1591SOL    HW1 5231   1.784   2.755   0.620
 1591SOL    HW2 5232   1.681   2.849   0.537
 1592SOL     OW 5233   1.641   2.970   0.432
 1592SOL    HW1 5234   1.727   2.972   0.380
 1592SOL    HW2 5235   1.655   3.017   0.520
 1593SOL     OW 5236   0.113   2.599   1.597
 1593SOL    HW1 5237   0.201   2.586   1.642
 1593SOL    HW2 5238   0.100   2.696   1.575
 1594SOL     OW 5239   0.613   3.227   0.726
 1594SOL    HW1 5240   0.564   3.140   0.735
 1594SOL    HW2 5241   0.590   3.270   0.639
 1595SOL     OW 5242   1.293   3.090   1.423
 1595SOL    HW1 5243   1.330   3.017   1.365
 1595SOL    HW2 5244   1.345   3.095   1.508
 1596SOL     OW 5245   0.809   1.866   0.502
 1596SOL    HW1 5246   0.849   1.957   0.493
 1596SOL    HW2 5247   0.709   1.874   0.508
 1597SOL     OW 5248   0.197   2.838   1.264
 1597SOL    HW1 5249   0.286   2.793   1.250
 1597SOL    HW2 5250   0.124   2.773   1.245
 1598SOL     OW 5251   1.525   2.861   0.190
 1598SOL    HW1 5252   1.462   2.785   0.203
 1598SOL    HW2 5253   1.573   2.879   0.276
 1599SOL     OW 5254   1.187   3.654   1.616
 1599SOL    HW1 5255   1.211   3.714   1.540
 1599SOL    HW2 5256   1.194   3.559   1.586
 1600SOL     OW 5257   0.317   2.113   1.801
 1600SOL    HW1 5258   0.388   2.184   1.807
 1600SOL    HW2 5259   0.229   2.152   1.829
 1601SOL     OW 5260   1.466   3.279   0.953
 1601SOL    HW1 5261   1.407   3.285   1.033
 1601SOL    HW2 5262   1.451   3.191   0.907
 1602SOL     OW 5263   1.667   3.576   0.572
 1602SOL    HW1 5264   1.626   3.553   0.484
 1602SOL    HW2 5265   1.649   3.502   0.637
 1603SOL     OW 5266   0.598   2.591   0.270
 1603SOL    HW1 5267   0.622   2.660   0.202
 1603SOL    HW2 5268   0.520   2.624   0.324
 1604SOL     OW 5269   1.281   2.207   0.944
 1604SOL    HW1 5270   1.195   2.157   0.931
 1604SOL    HW2 5271   1.343   2.153   1.000
 1605SOL     OW 5272   1.576   3.524   0.307
 1605SOL    HW1 5273   1.665   3.570   0.310
 1605SOL    HW2 5274   1.555   3.500   0.212
 1606SOL     OW 5275   0.807   2.467   1.465
 1606SOL    HW1 5276   0.760   2.464   1.554
 1606SOL    HW2 5277   0.756   2.412   1.399
 1607SOL     OW 5278   1.394   2.331   1.674
 1607SOL    HW1 5279   1.374   2.374   1.762
 1607SOL    HW2 5280   1.472   2.269   1.683
 1608SOL     OW 5281   0.973   2.752   1.572
 1608SOL    HW1 5282   1.019   2.668   1.543
 1608SOL    HW2 5283   0.917   2.786   1.497
 1609SOL     OW 5284   0.991   2.272   1.242
 1609SOL    HW1 5285   0.914   2.306   1.296
 1609SOL    HW2 5286   0.957   2.221   1.163
 1610SOL     OW 5287   1.041   2.563   0.429
 1610SOL    HW1 5288   1.067   2.559   0.525
 1610SOL    HW2 5289   0.956   2.512   0.415
 1611SOL     OW 5290   0.076   2.673   0.789
 1611SOL    HW1 5291   0.175   2.661   0.798
 1611SOL    HW2 5292   0.052   2.768   0.810
 1612SOL     OW 5293   0.130   3.683   1.571
 1612SOL    HW1 5294   0.120   3.668   1.670
 1612SOL    HW2 5295   0.044   3.719   1.535
 1613SOL     OW 5296   0.865   2.210   0.195
 1613SOL    HW1 5297   0.924   2.273   0.146
 1613SOL    HW2 5298   0.884   2.116   0.166
 1614SOL     OW 5299   1.719   2.447   1.831
 1614SOL    HW1 5300   1.693   2.536   1.795
 1614SOL    HW2 5301   1.717   2.379   1.758
 1615SOL     OW 5302   1.362   3.006   0.545
 1615SOL    HW1 5303   1.445   2.977   0.497
 1615SOL    HW2 5304   1.313   3.073   0.489
 1616SOL     OW 5305   0.550   2.058   0.885
 1616SOL    HW1 5306   0.545   2.053   0.985
 1616SOL    HW2 5307   0.552   2.154   0.856
 1617SOL     OW 5308   1.008   3.318   0.477
 1617SOL    HW1 5309   0.962   3.390   0.425
 1617SOL    HW2 5310   1.004   3.338   0.575
 1618SOL     OW 5311   0.351   3.663   0.853
 1618SOL    HW1 5312   0.401   3.577   0.859
 1618SOL    HW2 5313   0.416   3.740   0.850
 1619SOL     OW 5314   1.795   2.928   0.873
 1619SOL    HW1 5315   1.733   2.913   0.797
 1619SOL    HW2 5316   1.743   2.939   0.958
 1620SOL     OW 5317   1.227   3.412   1.506
 1620SOL    HW1 5318   1.233   3.335   1.570
 1620SOL    HW2 5319   1.175   3.386   1.426
 1621SOL     OW 5320   0.321   2.805   0.242
 1621SOL    HW1 5321   0.403   2.844   0.200
 1621SOL    HW2 5322   0.294   2.723   0.193
 1622SOL     OW 5323   1.458   2.597   0.728
 1622SOL    HW1 5324   1.453   2.532   0.803
 1622SOL    HW2 5325   1.538   2.656   0.741
 1623SOL     OW 5326   0.461   3.128   1.727
 1623SOL    HW1 5327   0.411   3.129   1.641
 1623SOL    HW2 5328   0.398   3.110   1.803
 1624SOL     OW 5329   1.111   3.638   0.237
 1624SOL    HW1 5330   1.051   3.576   0.287
 1624SOL    HW2 5331   1.142   3.594   0.152
 1625SOL     OW 5332   0.202   2.147   1.498
 1625SOL    HW1 5333   0.122   2.207   1.485
 1625SOL    HW2 5334   0.192   2.098   1.584
 1626SOL     OW 5335   1.632   3.239   0.081
 1626SOL    HW1 5336   1.600   3.333   0.071
 1626SOL    HW2 5337   1.556   3.176   0.069
 1627SOL     OW 5338   0.464   3.605   0.323
 1627SOL    HW1 5339   0.497   3.644   0.409
 1627SOL    HW2 5340   0.540   3.598   0.258
 1628SOL     OW 5341   1.400   1.969   0.426
 1628SOL    HW1 5342   1.376   1.932   0.336
 1628SOL    HW2 5343   1.499   1.985   0.430
 1629SOL     OW 5344   0.249   3.647   1.241
 1629SOL    HW1 5345   0.306   3.582   1.291
 1629SOL    HW2 5346   0.233   3.614   1.148
 1630SOL     OW 5347   0.940   3.560   0.904
 1630SOL    HW1 5348   1.020   3.503   0.925
 1630SOL    HW2 5349   0.891   3.520   0.827
 1631SOL     OW 5350   0.382   2.562   0.480
 1631SOL    HW1 5351   0.427   2.472   0.477
 1631SOL    HW2 5352   0.288   2.551   0.513
 1632SOL     OW 5353   1.547   2.084   1.729
 1632SOL    HW1 5354   1.542   2.121   1.821
 1632SOL    HW2 5355   1.475   2.015   1.717
 1633SOL     OW 5356   0.781   2.126   1.749
 1633SOL    HW1 5357   0.848   2.065   1.792
 1633SOL    HW2 5358   0.708   2.145   1.814
 1634SOL     OW 5359   0.888   3.376   1.195
 1634SOL    HW1 5360   0.865   3.351   1.101
 1634SOL    HW2 5361   0.949   3.307   1.234
 1635SOL     OW 5362   1.351   2.452   1.433
 1635SOL    HW1 5363   1.379   2.409   1.518
 1635SOL    HW2 5364   1.376   2.548   1.434
 1636SOL     OW 5365   0.803   3.264   0.924
 1636SOL    HW1 5366   0.893   3.278   0.882
 1636SOL    HW2 5367   0.732   3.266   0.853
 1637SOL     OW 5368   0.922   2.365   0.899
 1637SOL    HW1 5369   0.897   2.356   0.803
 1637SOL    HW2 5370   0.970   2.283   0.930
 1638SOL     OW 5371   0.539   1.926   0.512
 1638SOL    HW1 5372   0.458   1.927   0.570
 1638SOL    HW2 5373   0.542   2.009   0.457
 1639SOL     OW 5374   1.434   3.050   0.041
 1639SOL    HW1 5375   1.466   2.974   0.098
 1639SOL    HW2 5376   1.342   3.077   0.071
 1640SOL     OW 5377   0.297   1.897   0.171
 1640SOL    HW1 5378   0.346   1.981   0.150
 1640SOL    HW2 5379   0.359   1.832   0.216
 1641SOL     OW 5380   0.935   2.098   0.480
 1641SOL    HW1 5381   0.887   2.139   0.402
 1641SOL    HW2 5382   1.034   2.096   0.461
 1642SOL     OW 5383   1.076   2.545   1.464
 1642SOL    HW1 5384   0.996   2.484   1.467
 1642SOL    HW2 5385   1.157   2.492   1.440
 1643SOL     OW 5386   1.227   3.432   0.793
 1643SOL    HW1 5387   1.248   3.506   0.728
 1643SOL    HW2 5388   1.295   3.432   0.866
 1644SOL     OW 5389   0.459   3.014   0.741
 1644SOL    HW1 5390   0.388   2.987   0.806
 1644SOL    HW2 5391   0.433   2.986   0.648
 1645SOL     OW 5392   1.271   3.659   0.591
 1645SOL    HW1 5393   1.315   3.723   0.527
 1645SOL    HW2 5394   1.221   3.711   0.661
 1646SOL     OW 5395   1.032   2.411   0.016
 1646SOL    HW1 5396   0.991   2.493  -0.023
 1646SOL    HW2 5397   1.096   2.437   0.089
 1647SOL     OW 5398   0.078   2.418   1.386
 1647SOL    HW1 5399   0.170   2.417   1.345
 1647SOL    HW2 5400   0.072   2.492   1.453
 1648SOL     OW 5401   0.561   2.084   1.147
 1648SOL    HW1 5402   0.599   2.000   1.184
 1648SOL    HW2 5403   0.473   2.103   1.191
 1649SOL     OW 5404   0.866   2.316   0.642
 1649SOL    HW1 5405   0.834   2.388   0.580
 1649SOL    HW2 5406   0.890   2.235   0.589
 1650SOL     OW 5407   1.017   1.901   0.753
 1650SOL    HW1 5408   0.945   1.906   0.684
 1650SOL    HW2 5409   0.993   1.832   0.822
 1651SOL     OW 5410   1.429   3.035   0.867
 1651SOL    HW1 5411   1.374   2.951   0.860
 1651SOL    HW2 5412   1.455   3.064   0.775
 1652SOL     OW 5413   1.466   2.452   0.992
 1652SOL    HW1 5414   1.436   2.357   0.999
 1652SOL    HW2 5415   1.539   2.468   1.058
 1653SOL     OW 5416   1.857   2.695   0.377
 1653SOL    HW1 5417   1.899   2.631   0.441
 1653SOL    HW2 5418   1.819   2.644   0.299
 1654SOL     OW 5419   0.488   3.247   0.174
 1654SOL    HW1 5420   0.401   3.232   0.221
 1654SOL    HW2 5421   0.471   3.273   0.079
 1655SOL     OW 5422   1.664   3.142   0.657
 1655SOL    HW1 5423   1.763   3.150   0.671
 1655SOL    HW2 5424   1.619   3.226   0.688
 1656SOL     OW 5425   1.390   2.437   0.078
 1656SOL    HW1 5426   1.336   2.416   0.159
 1656SOL    HW2 5427   1.481   2.396   0.087
 1657SOL     OW 5428   0.527   2.118   0.328
 1657SOL    HW1 5429   0.554   2.059   0.253
 1657SOL    HW2 5430   0.527   2.213   0.297
 1658SOL     OW 5431   1.754   3.085   1.588
 1658SOL    HW1 5432   1.845   3.046   1.575
 1658SOL    HW2 5433   1.762   3.181   1.612
 1659SOL     OW 5434   1.064   3.209   1.340
 1659SOL    HW1 5435   0.984   3.186   1.395
 1659SOL    HW2 5436   1.147   3.183   1.389
 1660SOL     OW 5437   1.592   3.491   1.625
 1660SOL    HW1 5438   1.619   3.525   1.535
 1660SOL    HW2 5439   1.671   3.453   1.671
 1661SOL     OW 5440   1.111   3.057   1.100
 1661SOL    HW1 5441   1.071   3.101   1.181
 1661SOL    HW2 5442   1.070   3.094   1.017
 1662SOL     OW 5443   1.638   2.961   1.079
 1662SOL    HW1 5444   1.643   3.042   1.138
 1662SOL    HW2 5445   1.552   2.963   1.028
 1663SOL     OW 5446   0.915   1.951   1.402
 1663SOL    HW1 5447   0.940   1.931   1.307
 1663SOL    HW2 5448   0.987   2.007   1.444
 1664SOL     OW 5449   0.980   2.978   1.719
 1664SOL    HW1 5450   0.881   2.984   1.729
 1664SOL    HW2 5451   1.003   2.898   1.663
 1665SOL     OW 5452   0.705   2.912   0.368
 1665SOL    HW1 5453   0.691   2.919   0.467
 1665SOL    HW2 5454   0.789   2.861   0.350
 1666SOL     OW 5455   0.410   2.675   1.251
 1666SOL    HW1 5456   0.496   2.687   1.301
 1666SOL    HW2 5457   0.368   2.588   1.278
 1667SOL     OW 5458   1.274   2.248   1.262
 1667SOL    HW1 5459   1.295   2.322   1.326
 1667SOL    HW2 5460   1.185   2.265   1.219
 1668SOL     OW 5461   0.064   3.426   1.331
 1668SOL    HW1 5462   0.018   3.508   1.297
 1668SOL    HW2 5463   0.162   3.445   1.340
 1669SOL     OW 5464   0.367   2.962   0.501
 1669SOL    HW1 5465   0.360   3.045   0.445
 1669SOL    HW2 5466   0.371   2.882   0.441
 1670SOL     OW 5467   0.566   2.399   0.865
 1670SOL    HW1 5468   0.578   2.465   0.791
 1670SOL    HW2 5469   0.612   2.433   0.948
 1671SOL     OW 5470   1.252   3.210   0.388
 1671SOL    HW1 5471   1.302   3.287   0.428
 1671SOL    HW2 5472   1.157   3.212   0.420
 1672SOL     OW 5473   1.272   3.307   1.142
 1672SOL    HW1 5474   1.319   3.320   1.229
 1672SOL    HW2 5475   1.206   3.233   1.151
 1673SOL     OW 5476   1.582   2.501   0.472
 1673SOL    HW1 5477   1.551   2.562   0.545
 1673SOL    HW2 5478   1.632   2.553   0.403
 1674SOL     OW 5479   0.354   3.372   1.329
 1674SOL    HW1 5480   0.333   3.328   1.242
 1674SOL    HW2 5481   0.451   3.398   1.332
 1675SOL     OW 5482   0.402   2.613   1.598
 1675SOL    HW1 5483   0.470   2.668   1.551
 1675SOL    HW2 5484   0.442   2.525   1.625
 1676SOL     OW 5485   1.587   2.641   1.670
 1676SOL    HW1 5486   1.495   2.679   1.665
 1676SOL    HW2 5487   1.647   2.688   1.605
 1677SOL     OW 5488   1.013   1.967   1.770
 1677SOL    HW1 5489   1.019   2.052   1.718
 1677SOL    HW2 5490   1.045   1.891   1.713
 1678SOL     OW 5491   0.504   1.912   1.740
 1678SOL    HW1 5492   0.462   1.855   1.670
 1678SOL    HW2 5493   0.438   1.981   1.772
 1679SOL     OW 5494   0.573   2.732   1.029
 1679SOL    HW1 5495   0.617   2.821   1.020
 1679SOL    HW2 5496   0.510   2.732   1.106
 1680SOL     OW 5497   1.360   2.724   1.045
 1680SOL    HW1 5498   1.285   2.724   0.979
 1680SOL    HW2 5499   1.397   2.632   1.054
 1681SOL     OW 5500   1.209   2.387   0.275
 1681SOL    HW1 5501   1.222   2.303   0.329
 1681SOL    HW2 5502   1.180   2.461   0.335
 1682SOL     OW 5503   0.307   2.075   1.231
 1682SOL    HW1 5504   0.284   2.112   1.321
 1682SOL    HW2 5505   0.277   1.980   1.225
 1683SOL     OW 5506   0.037   3.172   1.282
 1683SOL    HW1 5507   0.090   3.123   1.350
 1683SOL    HW2 5508   0.059   3.270   1.287
 1684SOL     OW 5509   0.732   2.496   1.064
 1684SOL    HW1 5510   0.791   2.470   0.988
 1684SOL    HW2 5511   0.704   2.592   1.053
 1685SOL     OW 5512   1.728   2.797   1.854
 1685SOL    HW1 5513   1.682   2.790   1.765
 1685SOL    HW2 5514   1.666   2.841   1.920
 1686SOL     OW 5515   0.307   1.925   0.618
 1686SOL    HW1 5516   0.296   2.019   0.651
 1686SOL    HW2 5517   0.302   1.862   0.695
 1687SOL     OW 5518   1.622   2.229   0.374
 1687SOL    HW1 5519   1.624   2.153   0.438
 1687SOL    HW2 5520   1.574   2.306   0.414
 1688SOL     OW 5521   1.023   2.628   0.966
 1688SOL    HW1 5522   1.038   2.649   1.062
 1688SOL    HW2 5523   0.993   2.533   0.957
 1689SOL     OW 5524   0.980   3.435   1.700
 1689SOL    HW1 5525   0.960   3.479   1.612
 1689SOL    HW2 5526   1.019   3.344   1.684
 1690SOL     OW 5527   1.859   3.380   1.605
 1690SOL    HW1 5528   1.873   3.407   1.510
 1690SOL    HW2 5529   1.942   3.402   1.658
 1691SOL     OW 5530   0.350   2.760   1.804
 1691SOL    HW1 5531   0.426   2.804   1.852
 1691SOL    HW2 5532   0.385   2.713   1.722
 1692SOL     OW 5533   1.540   2.136   0.125
 1692SOL    HW1 5534   1.479   2.061   0.148
 1692SOL    HW2 5535   1.562   2.188   0.208
 1693SOL     OW 5536   1.303   2.700   0.042
 1693SOL    HW1 5537   1.337   2.607   0.057
 1693SOL    HW2 5538   1.321   2.727  -0.053
 1694SOL     OW 5539   1.068   3.195   0.849
 1694SOL    HW1 5540   1.075   3.111   0.794
 1694SOL    HW2 5541   1.130   3.264   0.813
 1695SOL     OW 5542   0.319   2.672   0.949
 1695SOL    HW1 5543   0.412   2.708   0.954
 1695SOL    HW2 5544   0.313   2.587   1.001
 1696SOL     OW 5545   0.339   2.371   1.006
 1696SOL    HW1 5546   0.287   2.288   0.989
 1696SOL    HW2 5547   0.416   2.376   0.942
 1697SOL     OW 5548   1.138   2.242   1.678
 1697SOL    HW1 5549   1.093   2.305   1.742
 1697SOL    HW2 5550   1.231   2.273   1.661
 1698SOL     OW 5551   1.160   2.069   1.477
 1698SOL    HW1 5552   1.160   2.133   1.554
 1698SOL    HW2 5553   1.188   2.117   1.394
 1699SOL     OW 5554   0.008   3.188   0.200
 1699SOL    HW1 5555  -0.085   3.209   0.169
 1699SOL    HW2 5556   0.018   3.089   0.213
 1700SOL     OW 5557   0.088   3.663   0.927
 1700SOL    HW1 5558   0.046   3.577   0.900
 1700SOL    HW2 5559   0.182   3.666   0.893
 1701SOL     OW 5560   0.504   3.430   0.910
 1701SOL    HW1 5561   0.570   3.504   0.919
 1701SOL    HW2 5562   0.548   3.351   0.868
 1702SOL     OW 5563   1.002   2.658   1.238
 1702SOL    HW1 5564   1.043   2.626   1.324
 1702SOL    HW2 5565   0.906   2.631   1.235
 1703SOL     OW 5566   0.040   2.406   1.114
 1703SOL    HW1 5567   0.125   2.373   1.073
 1703SOL    HW2 5568   0.053   2.421   1.212
 1704SOL     OW 5569   0.189   2.382   1.722
 1704SOL    HW1 5570   0.248   2.342   1.652
 1704SOL    HW2 5571   0.131   2.453   1.681
 1705SOL     OW 5572   1.369   2.812   1.660
 1705SOL    HW1 5573   1.408   2.901   1.680
 1705SOL    HW2 5574   1.379   2.792   1.563
 1706SOL     OW 5575   0.815   2.434   0.325
 1706SOL    HW1 5576   0.822   2.345   0.279
 1706SOL    HW2 5577   0.721   2.468   0.317
 1707SOL     OW 5578   1.657   2.466   1.206
 1707SOL    HW1 5579   1.619   2.397   1.268
 1707SOL    HW2 5580   1.739   2.430   1.162
 1708SOL     OW 5581   0.252   3.426   1.744
 1708SOL    HW1 5582   0.222   3.483   1.820
 1708SOL    HW2 5583   0.245   3.329   1.770
 1709SOL     OW 5584   0.671   2.326   1.269
 1709SOL    HW1 5585   0.637   2.237   1.239
 1709SOL    HW2 5586   0.697   2.380   1.189
 1710SOL     OW 5587   0.930   3.540   1.465
 1710SOL    HW1 5588   0.906   3.522   1.370
 1710SOL    HW2 5589   0.960   3.634   1.475
 1711SOL     OW 5590   0.473   2.362   0.191
 1711SOL    HW1 5591   0.534   2.442   0.195
 1711SOL    HW2 5592   0.378   2.393   0.198
 1712SOL     OW 5593   0.159   2.999   1.466
 1712SOL    HW1 5594   0.181   2.938   1.542
 1712SOL    HW2 5595   0.169   2.950   1.380
 1713SOL     OW 5596   1.347   2.921   1.234
 1713SOL    HW1 5597   1.371   2.858   1.160
 1713SOL    HW2 5598   1.257   2.961   1.216
 1714SOL     OW 5599   1.302   2.717   0.309
 1714SOL    HW1 5600   1.216   2.686   0.351
 1714SOL    HW2 5601   1.298   2.703   0.210
 1715SOL     OW 5602   1.759   3.609   1.154
 1715SOL    HW1 5603   1.820   3.639   1.081
 1715SOL    HW2 5604   1.721   3.520   1.132
 1716SOL     OW 5605   1.252   3.593   1.128
 1716SOL    HW1 5606   1.336   3.598   1.074
 1716SOL    HW2 5607   1.229   3.497   1.146
 1717SOL     OW 5608   0.083   3.120   1.022
 1717SOL    HW1 5609   0.078   3.119   1.122
 1717SOL    HW2 5610   0.000   3.079   0.984
 1718SOL     OW 5611   0.688   3.524   1.716
 1718SOL    HW1 5612   0.632   3.605   1.725
 1718SOL    HW2 5613   0.740   3.528   1.630
 1719SOL     OW 5614   0.903   1.948   0.133
 1719SOL    HW1 5615   0.954   1.949   0.047
 1719SOL    HW2 5616   0.959   1.906   0.204
 1720SOL     OW 5617   1.388   3.435   0.477
 1720SOL    HW1 5618   1.455   3.447   0.403
 1720SOL    HW2 5619   1.348   3.524   0.500
 1721SOL     OW 5620   0.130   3.656   1.851
 1721SOL    HW1 5621   0.089   3.582   1.904
 1721SOL    HW2 5622   0.194   3.707   1.909
 1722SOL     OW 5623   1.280   2.789   0.672
 1722SOL    HW1 5624   1.340   2.708   0.674
 1722SOL    HW2 5625   1.320   2.858   0.612
 1723SOL     OW 5626   0.830   3.135   1.422
 1723SOL    HW1 5627   0.825   3.168   1.517
 1723SOL    HW2 5628   0.744   3.154   1.376
 1724SOL     OW 5629   0.672   3.478   0.154
 1724SOL    HW1 5630   0.681   3.488   0.055
 1724SOL    HW2 5631   0.632   3.389   0.175
 1725SOL     OW 5632   1.650   3.582   1.394
 1725SOL    HW1 5633   1.703   3.592   1.310
 1725SOL    HW2 5634   1.623   3.672   1.428
 1726SOL     OW 5635   0.263   2.188   0.720
 1726SOL    HW1 5636   0.184   2.239   0.686
 1726SOL    HW2 5637   0.254   2.173   0.818
 1727SOL     OW 5638   1.194   3.474   0.031
 1727SOL    HW1 5639   1.200   3.381   0.068
 1727SOL    HW2 5640   1.135   3.474  -0.049
 1728SOL     OW 5641   0.822   2.864   1.372
 1728SOL    HW1 5642   0.862   2.863   1.280
 1728SOL    HW2 5643   0.832   2.956   1.412
 1729SOL     OW 5644   0.916   2.772   0.291
 1729SOL    HW1 5645   0.979   2.810   0.223
 1729SOL    HW2 5646   0.956   2.689   0.330
 1730SOL     OW 5647   1.504   3.469   0.044
 1730SOL    HW1 5648   1.412   3.506   0.051
 1730SOL    HW2 5649   1.542   3.489  -0.046
 1731SOL     OW 5650   0.372   3.150   1.490
 1731SOL    HW1 5651   0.359   3.243   1.456
 1731SOL    HW2 5652   0.288   3.098   1.477
 1732SOL     OW 5653   1.614   3.154   1.289
 1732SOL    HW1 5654   1.674   3.157   1.369
 1732SOL    HW2 5655   1.539   3.218   1.302
 1733SOL     OW 5656   1.039   2.960   0.696
 1733SOL    HW1 5657   0.969   2.913   0.750
 1733SOL    HW2 5658   1.098   2.892   0.653
 1734SOL     OW 5659   1.014   2.098   0.971
 1734SOL    HW1 5660   1.006   2.062   0.878
 1734SOL    HW2 5661   1.012   2.022   1.036
 1735SOL     OW 5662   0.590   3.349   0.491
 1735SOL    HW1 5663   0.632   3.291   0.421
 1735SOL    HW2 5664   0.546   3.428   0.447
 1736SOL     OW 5665   1.709   2.247   1.381
 1736SOL    HW1 5666   1.782   2.316   1.385
 1736SOL    HW2 5667   1.737   2.172   1.322
 1737SOL     OW 5668   0.255   3.210   0.290
 1737SOL    HW1 5669   0.159   3.211   0.263
 1737SOL    HW2 5670   0.267   3.263   0.374
 1738SOL     OW 5671   0.105   2.875   1.726
 1738SOL    HW1 5672   0.028   2.842   1.780
 1738SOL    HW2 5673   0.190   2.845   1.768
 1739SOL     OW 5674   0.672   2.065   1.489
 1739SOL    HW1 5675   0.762   2.049   1.449
 1739SOL    HW2 5676   0.680   2.070   1.588
 1740SOL     OW 5677   0.075   2.207   0.033
 1740SOL    HW1 5678  -0.017   2.179   0.004
 1740SOL    HW2 5679   0.106   2.284  -0.023
 1741SOL     OW 5680   1.440   2.718   1.398
 1741SOL    HW1 5681   1.383   2.770   1.335
 1741SOL    HW2 5682   1.536   2.730   1.374
 1742SOL     OW 5683   0.072   2.028   0.318
 1742SOL    HW1 5684   0.055   2.111   0.264
 1742SOL    HW2 5685   0.162   1.991   0.296
 1743SOL     OW 5686   1.183   3.197   0.119
 1743SOL    HW1 5687   1.084   3.186   0.121
 1743SOL    HW2 5688   1.217   3.212   0.212
 1744SOL     OW 5689   0.613   2.704   1.431
 1744SOL    HW1 5690   0.669   2.785   1.414
 1744SOL    HW2 5691   0.672   2.624   1.434
 1745SOL     OW 5692   1.493   3.629   0.959
 1745SOL    HW1 5693   1.526   3.693   0.890
 1745SOL    HW2 5694   1.559   3.623   1.034
 1746SOL     OW 5695   0.716   2.427   1.708
 1746SOL    HW1 5696   0.735   2.492   1.782
 1746SOL    HW2 5697   0.776   2.347   1.717
 1747SOL     OW 5698   1.450   3.082   1.633
 1747SOL    HW1 5699   1.441   3.072   1.732
 1747SOL    HW2 5700   1.546   3.075   1.607
 1748SOL     OW 5701   0.390   3.603   1.560
 1748SOL    HW1 5702   0.299   3.644   1.558
 1748SOL    HW2 5703   0.383   3.509   1.592
 1749SOL     OW 5704   1.674   2.745   1.254
 1749SOL    HW1 5705   1.647   2.656   1.217
 1749SOL    HW2 5706   1.675   2.813   1.181
 1750SOL     OW 5707   1.225   2.187   0.449
 1750SOL    HW1 5708   1.290   2.113   0.438
 1750SOL    HW2 5709   1.245   2.237   0.533
 1751SOL     OW 5710   0.594   2.607   0.652
 1751SOL    HW1 5711   0.644   2.692   0.633
 1751SOL    HW2 5712   0.506   2.609   0.604
 1752SOL     OW 5713   1.777   2.204   1.642
 1752SOL    HW1 5714   1.760   2.235   1.548
 1752SOL    HW2 5715   1.693   2.167   1.680
 1753SOL     OW 5716   1.730   2.796   1.517
 1753SOL    HW1 5717   1.768   2.887   1.532
 1753SOL    HW2 5718   1.722   2.779   1.418
 1754SOL     OW 5719   0.859   3.236   0.016
 1754SOL    HW1 5720   0.813   3.251   0.104
 1754SOL    HW2 5721   0.903   3.321  -0.014
 1755SOL     OW 5722   0.661   3.652   0.953
 1755SOL    HW1 5723   0.615   3.740   0.940
 1755SOL    HW2 5724   0.760   3.664   0.946
 1756SOL     OW 5725   0.859   2.818   0.861
 1756SOL    HW1 5726   0.913   2.749   0.909
 1756SOL    HW2 5727   0.827   2.887   0.927
 1757SOL     OW 5728   1.083   2.846   0.087
 1757SOL    HW1 5729   1.060   2.899   0.005
 1757SOL    HW2 5730   1.164   2.790   0.068
 1758SOL     OW 5731   1.861   3.431   0.851
 1758SOL    HW1 5732   1.790   3.419   0.781
 1758SOL    HW2 5733   1.862   3.352   0.911
 1759SOL     OW 5734   0.221   3.176   1.844
 1759SOL    HW1 5735   0.156   3.103   1.823
 1759SOL    HW2 5736   0.225   3.190   1.942
 1760SOL     OW 5737   0.079   3.102   0.653
 1760SOL    HW1 5738   0.078   3.055   0.741
 1760SOL    HW2 5739   0.161   3.074   0.602
 1761SOL     OW 5740   0.672   3.253   1.624
 1761SOL    HW1 5741   0.594   3.203   1.662
 1761SOL    HW2 5742   0.669   3.348   1.655
 1762SOL     OW 5743   0.428   2.286   0.520
 1762SOL    HW1 5744   0.458   2.214   0.458
 1762SOL    HW2 5745   0.389   2.246   0.603
 1763SOL     OW 5746   1.705   3.349   1.104
 1763SOL    HW1 5747   1.612   3.324   1.077
 1763SOL    HW2 5748   1.731   3.299   1.186
 1764SOL     OW 5749   0.317   2.409   1.280
 1764SOL    HW1 5750   0.355   2.350   1.352
 1764SOL    HW2 5751   0.357   2.383   1.192
 1765SOL     OW 5752   0.812   3.448   0.687
 1765SOL    HW1 5753   0.844   3.458   0.593
 1765SOL    HW2 5754   0.733   3.386   0.689
 1766SOL     OW 5755   1.424   2.076   1.112
 1766SOL    HW1 5756   1.476   2.011   1.167
 1766SOL    HW2 5757   1.375   2.139   1.173
 1767SOL     OW 5758   1.001   1.896   1.154
 1767SOL    HW1 5759   0.938   1.824   1.123
 1767SOL    HW2 5760   1.094   1.860   1.154
 1768SOL     OW 5761   0.770   3.192   0.301
 1768SOL    HW1 5762   0.724   3.105   0.318
 1768SOL    HW2 5763   0.861   3.189   0.342
 1769SOL     OW 5764   0.618   3.429   1.284
 1769SOL    HW1 5765   0.613   3.511   1.341
 1769SOL    HW2 5766   0.707   3.426   1.239
 1770SOL     OW 5767   1.352   1.914   0.168
 1770SOL    HW1 5768   1.387   1.873   0.084
 1770SOL    HW2 5769   1.262   1.876   0.188
 1771SOL     OW 5770   1.300   2.315   0.691
 1771SOL    HW1 5771   1.241   2.395   0.695
 1771SOL    HW2 5772   1.315   2.280   0.784
 1772SOL     OW 5773   1.593   2.083   0.882
 1772SOL    HW1 5774   1.509   2.082   0.936
 1772SOL    HW2 5775   1.595   2.166   0.826
 1773SOL     OW 5776   0.039   2.939   0.300
 1773SOL    HW1 5777   0.138   2.928   0.291
 1773SOL    HW2 5778  -0.001   2.853   0.332
 1774SOL     OW 5779   0.875   3.508   0.337
 1774SOL    HW1 5780   0.798   3.473   0.283
 1774SOL    HW2 5781   0.843   3.579   0.399
 1775SOL     OW 5782   0.230   2.490   1.975
 1775SOL    HW1 5783   0.137   2.488   2.012
 1775SOL    HW2 5784   0.231   2.451   1.883
 1776SOL     OW 5785   0.225   2.137   2.858
 1776SOL    HW1 5786   0.260   2.120   2.950
 1776SOL    HW2 5787   0.137   2.092   2.846
 1777SOL     OW 5788   0.019   2.230   2.509
 1777SOL    HW1 5789  -0.063   2.273   2.548
 1777SOL    HW2 5790  -0.009   2.157   2.446
 1778SOL     OW 5791   0.569   3.137   3.027
 1778SOL    HW1 5792   0.476   3.130   2.990
 1778SOL    HW2 5793   0.580   3.226   3.071
 1779SOL     OW 5794   1.555   3.373   2.565
 1779SOL    HW1 5795   1.498   3.357   2.646
 1779SOL    HW2 5796   1.496   3.383   2.485
 1780SOL     OW 5797   1.135   2.565   2.579
 1780SOL    HW1 5798   1.192   2.643   2.554
 1780SOL    HW2 5799   1.075   2.591   2.655
 1781SOL     OW 5800   1.755   2.469   2.093
 1781SOL    HW1 5801   1.743   2.456   1.994
 1781SOL    HW2 5802   1.725   2.388   2.142
 1782SOL     OW 5803   0.768   3.006   2.885
 1782SOL    HW1 5804   0.690   3.023   2.945
 1782SOL    HW2 5805   0.802   3.093   2.849
 1783SOL     OW 5806   0.850   2.660   3.685
 1783SOL    HW1 5807   0.846   2.736   3.750
 1783SOL    HW2 5808   0.872   2.696   3.594
 1784SOL     OW 5809   0.685   2.874   2.527
 1784SOL    HW1 5810   0.754   2.858   2.597
 1784SOL    HW2 5811   0.612   2.931   2.565
 1785SOL     OW 5812   0.686   3.023   3.665
 1785SOL    HW1 5813   0.746   3.102   3.679
 1785SOL    HW2 5814   0.600   3.054   3.624
 1786SOL     OW 5815   0.335   3.297   2.923
 1786SOL    HW1 5816   0.257   3.266   2.870
 1786SOL    HW2 5817   0.393   3.355   2.866
 1787SOL     OW 5818   1.460   3.367   3.201
 1787SOL    HW1 5819   1.484   3.461   3.227
 1787SOL    HW2 5820   1.444   3.313   3.283
 1788SOL     OW 5821   0.438   2.254   3.361
 1788SOL    HW1 5822   0.520   2.198   3.370
 1788SOL    HW2 5823   0.357   2.196   3.365
 1789SOL     OW 5824   1.603   2.309   2.599
 1789SOL    HW1 5825   1.529   2.355   2.549
 1789SOL    HW2 5826   1.654   2.377   2.652
 1790SOL     OW 5827   0.231   3.575   2.345
 1790SOL    HW1 5828   0.265   3.652   2.399
 1790SOL    HW2 5829   0.275   3.575   2.255
 1791SOL     OW 5830   1.127   3.203   3.552
 1791SOL    HW1 5831   1.174   3.203   3.640
 1791SOL    HW2 5832   1.079   3.116   3.541
 1792SOL     OW 5833   0.230   3.296   2.400
 1792SOL    HW1 5834   0.204   3.392   2.400
 1792SOL    HW2 5835   0.159   3.242   2.445
 1793SOL     OW 5836   0.240   2.953   2.748
 1793SOL    HW1 5837   0.254   2.869   2.800
 1793SOL    HW2 5838   0.185   3.017   2.803
 1794SOL     OW 5839   0.620   3.648   3.301
 1794SOL    HW1 5840   0.528   3.631   3.336
 1794SOL    HW2 5841   0.648   3.740   3.327
 1795SOL     OW 5842   0.606   2.826   1.985
 1795SOL    HW1 5843   0.613   2.910   1.931
 1795SOL    HW2 5844   0.652   2.839   2.073
 1796SOL     OW 5845   1.594   1.976   3.342
 1796SOL    HW1 5846   1.576   2.043   3.270
 1796SOL    HW2 5847   1.591   2.022   3.431
 1797SOL     OW 5848   0.122   2.505   2.425
 1797SOL    HW1 5849   0.077   2.417   2.442
 1797SOL    HW2 5850   0.121   2.559   2.509
 1798SOL     OW 5851   1.842   3.629   2.221
 1798SOL    HW1 5852   1.896   3.600   2.301
 1798SOL    HW2 5853   1.872   3.719   2.192
 1799SOL     OW 5854   0.027   3.458   1.979
 1799SOL    HW1 5855   0.008   3.362   2.000
 1799SOL    HW2 5856  -0.006   3.516   2.054
 1800SOL     OW 5857   1.689   2.784   2.474
 1800SOL    HW1 5858   1.784   2.755   2.482
 1800SOL    HW2 5859   1.681   2.849   2.399
 1801SOL     OW 5860   1.641   2.970   2.294
 1801SOL    HW1 5861   1.727   2.972   2.242
 1801SOL    HW2 5862   1.655   3.017   2.382
 1802SOL     OW 5863   0.113   2.599   3.459
 1802SOL    HW1 5864   0.201   2.586   3.504
 1802SOL    HW2 5865   0.100   2.696   3.437
 1803SOL     OW 5866   0.613   3.227   2.588
 1803SOL    HW1 5867   0.564   3.140   2.597
 1803SOL    HW2 5868   0.590   3.270   2.501
 1804SOL     OW 5869   1.293   3.090   3.285
 1804SOL    HW1 5870   1.330   3.017   3.227
 1804SOL    HW2 5871   1.345   3.095   3.370
 1805SOL     OW 5872   0.809   1.866   2.364
 1805SOL    HW1 5873   0.849   1.957   2.355
 1805SOL    HW2 5874   0.709   1.874   2.370
 1806SOL     OW 5875   0.197   2.838   3.126
 1806SOL    HW1 5876   0.286   2.793   3.112
 1806SOL    HW2 5877   0.124   2.773   3.107
 1807SOL     OW 5878   1.525   2.861   2.052
 1807SOL    HW1 5879   1.462   2.785   2.065
 1807SOL    HW2 5880   1.573   2.879   2.138
 1808SOL     OW 5881   1.187   3.654   3.478
 1808SOL    HW1 5882   1.211   3.714   3.402
 1808SOL    HW2 5883   1.194   3.559   3.448
 1809SOL     OW 5884   0.317   2.113   3.663
 1809SOL    HW1 5885   0.388   2.184   3.669
 1809SOL    HW2 5886   0.229   2.152   3.691
 1810SOL     OW 5887   1.466   3.279   2.815
 1810SOL    HW1 5888   1.407   3.285   2.895
 1810SOL    HW2 5889   1.451   3.191   2.769
 1811SOL     OW 5890   1.667   3.576   2.434
 1811SOL    HW1 5891   1.626   3.553   2.346
 1811SOL    HW2 5892   1.649   3.502   2.499
 1812SOL     OW 5893   0.598   2.591   2.132
 1812SOL    HW1 5894   0.622   2.660   2.064
 1812SOL    HW2 5895   0.520   2.624   2.186
 1813SOL     OW 5896   1.281   2.207   2.806
 1813SOL    HW1 5897   1.195   2.157   2.793
 1813SOL    HW2 5898   1.343   2.153   2.862
 1814SOL     OW 5899   1.576   3.524   2.169
 1814SOL    HW1 5900   1.665   3.570   2.172
 1814SOL    HW2 5901   1.555   3.500   2.074
 1815SOL     OW 5902   0.807   2.467   3.327
 1815SOL    HW1 5903   0.760   2.464   3.416
 1815SOL    HW2 5904   0.756   2.412   3.261
 1816SOL     OW 5905   1.394   2.331   3.536
 1816SOL    HW1 5906   1.374   2.374   3.624
 1816SOL    HW2 5907   1.472   2.269   3.545
 1817SOL     OW 5908   0.973   2.752   3.434
 1817SOL    HW1 5909   1.019   2.668   3.405
 1817SOL    HW2 5910   0.917   2.786   3.359
 1818SOL     OW 5911   0.991   2.272   3.104
 1818SOL    HW1 5912   0.914   2.306   3.158
 1818SOL    HW2 5913   0.957   2.221   3.025
 1819SOL     OW 5914   1.041   2.563   2.291
 1819SOL    HW1 5915   1.067   2.559   2.387
 1819SOL    HW2 5916   0.956   2.512   2.277
 1820SOL     OW 5917   0.076   2.673   2.651
 1820SOL    HW1 5918   0.175   2.661   2.660
 1820SOL    HW2 5919   0.052   2.768   2.672
 1821SOL     OW 5920   0.130   3.683   3.433
 1821SOL    HW1 5921   0.120   3.668   3.532
 1821SOL    HW2 5922   0.044   3.719   3.397
 1822SOL     OW 5923   0.865   2.210   2.057
 1822SOL    HW1 5924   0.924   2.273   2.008
 1822SOL    HW2 5925   0.884   2.116   2.028
 1823SOL     OW 5926   1.719   2.447   3.693
 1823SOL    HW1 5927   1.693   2.536   3.657
 1823SOL    HW2 5928   1.717   2.379   3.620
 1824SOL     OW 5929   1.362   3.006   2.407
 1824SOL    HW1 5930   1.445   2.977   2.359
 1824SOL    HW2 5931   1.313   3.073   2.351
 1825SOL     OW 5932   0.550   2.058   2.747
 1825SOL    HW1 5933   0.545   2.053   2.847
 1825SOL    HW2 5934   0.552   2.154   2.718
 1826SOL     OW 5935   1.008   3.318   2.339
 1826SOL    HW1 5936   0.962   3.390   2.287
 1826SOL    HW2 5937   1.004   3.338   2.437
 1827SOL     OW 5938   0.351   3.663   2.715
 1827SOL    HW1 5939   0.401   3.577   2.721
 1827SOL    HW2 5940   0.416   3.740   2.712
 1828SOL     OW 5941   1.795   2.928   2.735
 1828SOL    HW1 5942   1.733   2.913   2.659
 1828SOL    HW2 5943   1.743   2.939   2.820
 1829SOL     OW 5944   1.227   3.412   3.368
 1829SOL    HW1 5945   1.233   3.335   3.432
 1829SOL    HW2 5946   1.175   3.386   3.288
 1830SOL     OW 5947   0.321   2.805   2.104
 1830SOL    HW1 5948   0.403   2.844   2.062
 1830SOL    HW2 5949   0.294   2.723   2.055
 1831SOL     OW 5950   1.458   2.597   2.590
 1831SOL    HW1 5951   1.453   2.532   2.665
 1831SOL    HW2 5952   1.538   2.656   2.603
 1832SOL     OW 5953   0.461   3.128   3.589
 1832SOL    HW1 5954   0.411   3.129   3.503
 1832SOL    HW2 5955   0.398   3.110   3.665
 1833SOL     OW 5956   1.111   3.638   2.099
 1833SOL    HW1 5957   1.051   3.576   2.149
 1833SOL    HW2 5958   1.142   3.594   2.014
 1834SOL     OW 5959   0.202   2.147   3.360
 1834SOL    HW1 5960   0.122   2.207   3.347
 1834SOL    HW2 5961   0.192   2.098   3.446
 1835SOL     OW 5962   1.632   3.239   1.943
 1835SOL    HW1 5963   1.600   3.333   1.933
 1835SOL    HW2 5964   1.556   3.176   1.931
 1836SOL     OW 5965   0.464   3.605   2.185
 1836SOL    HW1 5966   0.497   3.644   2.271
 1836SOL    HW2 5967   0.540   3.598   2.120
 1837SOL     OW 5968   1.400   1.969   2.288
 1837SOL    HW1 5969   1.376   1.932   2.198
 1837SOL    HW2 5970   1.499   1.985   2.292
 1838SOL     OW 5971   0.249   3.647   3.103
 1838SOL    HW1 5972   0.306   3.582   3.153
 1838SOL    HW2 5973   0.233   3.614   3.010
 1839SOL     OW 5974   0.940   3.560   2.766
 1839SOL    HW1 5975   1.020   3.503   2.787
 1839SOL    HW2 5976   0.891   3.520   2.689
 1840SOL     OW 5977   0.382   2.562   2.342
 1840SOL    HW1 5978   0.427   2.472   2.339
 1840SOL    HW2 5979   0.288   2.551   2.375
 1841SOL     OW 5980   1.547   2.084   3.591
 1841SOL    HW1 5981   1.542   2.121   3.683
 1841SOL    HW2 5982   1.475   2.015   3.579
 1842SOL     OW 5983   0.614   1.984   1.979
 1842SOL    HW1 5984   0.712   1.962   1.986
 1842SOL    HW2 5985   0.583   1.967   1.886
 1843SOL     OW 5986   0.781   2.126   3.611
 1843SOL    HW1 5987   0.848   2.065   3.654
 1843SOL    HW2 5988   0.708   2.145   3.676
 1844SOL     OW 5989   0.888   3.376   3.057
 1844SOL    HW1 5990   0.865   3.351   2.963
 1844SOL    HW2 5991   0.949   3.307   3.096
 1845SOL     OW 5992   1.351   2.452   3.295
 1845SOL    HW1 5993   1.379   2.409   3.380
 1845SOL    HW2 5994   1.376   2.548   3.296
 1846SOL     OW 5995   0.803   3.264   2.786
 1846SOL    HW1 5996   0.893   3.278   2.744
 1846SOL    HW2 5997   0.732   3.266   2.715
 1847SOL     OW 5998   0.922   2.365   2.761
 1847SOL    HW1 5999   0.897   2.356   2.665
 1847SOL    HW2 6000   0.970   2.283   2.792
 1848SOL     OW 6001   0.539   1.926   2.374
 1848SOL    HW1 6002   0.458   1.927   2.432
 1848SOL    HW2 6003   0.542   2.009   2.319
 1849SOL     OW 6004   1.434   3.050   1.903
 1849SOL    HW1 6005   1.466   2.974   1.960
 1849SOL    HW2 6006   1.342   3.077   1.933
 1850SOL     OW 6007   0.297   1.897   2.033
 1850SOL    HW1 6008   0.346   1.981   2.012
 1850SOL    HW2 6009   0.359   1.832   2.078
 1851SOL     OW 6010   0.935   2.098   2.342
 1851SOL    HW1 6011   0.887   2.139   2.264
 1851SOL    HW2 6012   1.034   2.096   2.323
 1852SOL     OW 6013   1.076   2.545   3.326
 1852SOL    HW1 6014   0.996   2.484   3.329
 1852SOL    HW2 6015   1.157   2.492   3.302
 1853SOL     OW 6016   1.227   3.432   2.655
 1853SOL    HW1 6017   1.248   3.506   2.590
 1853SOL    HW2 6018   1.295   3.432   2.728
 1854SOL     OW 6019   0.459   3.014   2.603
 1854SOL    HW1 6020   0.388   2.987   2.668
 1854SOL    HW2 6021   0.433   2.986   2.510
 1855SOL     OW 6022   1.271   3.659   2.453
 1855SOL    HW1 6023   1.315   3.723   2.389
 1855SOL    HW2 6024   1.221   3.711   2.523
 1856SOL     OW 6025   1.032   2.411   1.878
 1856SOL    HW1 6026   0.991   2.493   1.839
 1856SOL    HW2 6027   1.096   2.437   1.951
 1857SOL     OW 6028   0.078   2.418   3.248
 1857SOL    HW1 6029   0.170   2.417   3.207
 1857SOL    HW2 6030   0.072   2.492   3.315
 1858SOL     OW 6031   0.561   2.084   3.009
 1858SOL    HW1 6032   0.599   2.000   3.046
 1858SOL    HW2 6033   0.473   2.103   3.053
 1859SOL     OW 6034   0.866   2.316   2.504
 1859SOL    HW1 6035   0.834   2.388   2.442
 1859SOL    HW2 6036   0.890   2.235   2.451
 1860SOL     OW 6037   1.017   1.901   2.615
 1860SOL    HW1 6038   0.945   1.906   2.546
 1860SOL    HW2 6039   0.993   1.832   2.684
 1861SOL     OW 6040   1.429   3.035   2.729
 1861SOL    HW1 6041   1.374   2.951   2.722
 1861SOL    HW2 6042   1.455   3.064   2.637
 1862SOL     OW 6043   1.466   2.452   2.854
 1862SOL    HW1 6044   1.436   2.357   2.861
 1862SOL    HW2 6045   1.539   2.468   2.920
 1863SOL     OW 6046   1.857   2.695   2.239
 1863SOL    HW1 6047   1.899   2.631   2.303
 1863SOL    HW2 6048   1.819   2.644   2.161
 1864SOL     OW 6049   0.488   3.247   2.036
 1864SOL    HW1 6050   0.401   3.232   2.083
 1864SOL    HW2 6051   0.471   3.273   1.941
 1865SOL     OW 6052   1.664   3.142   2.519
 1865SOL    HW1 6053   1.763   3.150   2.533
 1865SOL    HW2 6054   1.619   3.226   2.550
 1866SOL     OW 6055   1.390   2.437   1.940
 1866SOL    HW1 6056   1.336   2.416   2.021
 1866SOL    HW2 6057   1.481   2.396   1.949
 1867SOL     OW 6058   0.527   2.118   2.190
 1867SOL    HW1 6059   0.554   2.059   2.115
 1867SOL    HW2 6060   0.527   2.213   2.159
 1868SOL     OW 6061   1.754   3.085   3.450
 1868SOL    HW1 6062   1.845   3.046   3.437
 1868SOL    HW2 6063   1.762   3.181   3.474
 1869SOL     OW 6064   1.064   3.209   3.202
 1869SOL    HW1 6065   0.984   3.186   3.257
 1869SOL    HW2 6066   1.147   3.183   3.251
 1870SOL     OW 6067   1.592   3.491   3.487
 1870SOL    HW1 6068   1.619   3.525   3.397
 1870SOL    HW2 6069   1.671   3.453   3.533
 1871SOL     OW 6070   1.111   3.057   2.962
 1871SOL    HW1 6071   1.071   3.101   3.043
 1871SOL    HW2 6072   1.070   3.094   2.879
 1872SOL     OW 6073   1.638   2.961   2.941
 1872SOL    HW1 6074   1.643   3.042   3.000
 1872SOL    HW2 6075   1.552   2.963   2.890
 1873SOL     OW 6076   0.915   1.951   3.264
 1873SOL    HW1 6077   0.940   1.931   3.169
 1873SOL    HW2 6078   0.987   2.007   3.306
 1874SOL     OW 6079   0.980   2.978   3.581
 1874SOL    HW1 6080   0.881   2.984   3.591
 1874SOL    HW2 6081   1.003   2.898   3.525
 1875SOL     OW 6082   0.705   2.912   2.230
 1875SOL    HW1 6083   0.691   2.919   2.329
 1875SOL    HW2 6084   0.789   2.861   2.212
 1876SOL     OW 6085   0.410   2.675   3.113
 1876SOL    HW1 6086   0.496   2.687   3.163
 1876SOL    HW2 6087   0.368   2.588   3.140
 1877SOL     OW 6088   1.274   2.248   3.124
 1877SOL    HW1 6089   1.295   2.322   3.188
 1877SOL    HW2 6090   1.185   2.265   3.081
 1878SOL     OW 6091   0.064   3.426   3.193
 1878SOL    HW1 6092   0.018   3.508   3.159
 1878SOL    HW2 6093   0.162   3.445   3.202
 1879SOL     OW 6094   0.367   2.962   2.363
 1879SOL    HW1 6095   0.360   3.045   2.307
 1879SOL    HW2 6096   0.371   2.882   2.303
 1880SOL     OW 6097   0.566   2.399   2.727
 1880SOL    HW1 6098   0.578   2.465   2.653
 1880SOL    HW2 6099   0.612   2.433   2.810
 1881SOL     OW 6100   1.252   3.210   2.250
 1881SOL    HW1 6101   1.302   3.287   2.290
 1881SOL    HW2 6102   1.157   3.212   2.282
 1882SOL     OW 6103   1.272   3.307   3.004
 1882SOL    HW1 6104   1.319   3.320   3.091
 1882SOL    HW2 6105   1.206   3.233   3.013
 1883SOL     OW 6106   1.582   2.501   2.334
 1883SOL    HW1 6107   1.551   2.562   2.407
 1883SOL    HW2 6108   1.632   2.553   2.265
 1884SOL     OW 6109   0.354   3.372   3.191
 1884SOL    HW1 6110   0.333   3.328   3.104
 1884SOL    HW2 6111   0.451   3.398   3.194
 1885SOL     OW 6112   0.402   2.613   3.460
 1885SOL    HW1 6113   0.470   2.668   3.413
 1885SOL    HW2 6114   0.442   2.525   3.487
 1886SOL     OW 6115   1.587   2.641   3.532
 1886SOL    HW1 6116   1.495   2.679   3.527
 1886SOL    HW2 6117   1.647   2.688   3.467
 1887SOL     OW 6118   1.013   1.967   3.632
 1887SOL    HW1 6119   1.019   2.052   3.580
 1887SOL    HW2 6120   1.045   1.891   3.575
 1888SOL     OW 6121   0.504   1.912   3.602
 1888SOL    HW1 6122   0.462   1.855   3.532
 1888SOL    HW2 6123   0.438   1.981   3.634
 1889SOL     OW 6124   0.573   2.732   2.891
 1889SOL    HW1 6125   0.617   2.821   2.882
 1889SOL    HW2 6126   0.510   2.732   2.968
 1890SOL     OW 6127   1.360   2.724   2.907
 1890SOL    HW1 6128   1.285   2.724   2.841
 1890SOL    HW2 6129   1.397   2.632   2.916
 1891SOL     OW 6130   1.209   2.387   2.137
 1891SOL    HW1 6131   1.222   2.303   2.191
 1891SOL    HW2 6132   1.180   2.461   2.197
 1892SOL     OW 6133   0.307   2.075   3.093
 1892SOL    HW1 6134   0.284   2.112   3.183
 1892SOL    HW2 6135   0.277   1.980   3.087
 1893SOL     OW 6136   0.037   3.172   3.144
 1893SOL    HW1 6137   0.090   3.123   3.212
 1893SOL    HW2 6138   0.059   3.270   3.149
 1894SOL     OW 6139   0.732   2.496   2.926
 1894SOL    HW1 6140   0.791   2.470   2.850
 1894SOL    HW2 6141   0.704   2.592   2.915
 1895SOL     OW 6142   1.728   2.797   3.716
 1895SOL    HW1 6143   1.682   2.790   3.627
 1895SOL    HW2 6144   1.666   2.841   3.782
 1896SOL     OW 6145   0.307   1.925   2.480
 1896SOL    HW1 6146   0.296   2.019   2.513
 1896SOL    HW2 6147   0.302   1.862   2.557
 1897SOL     OW 6148   1.622   2.229   2.236
 1897SOL    HW1 6149   1.624   2.153   2.300
 1897SOL    HW2 6150   1.574   2.306   2.276
 1898SOL     OW 6151   1.023   2.628   2.828
 1898SOL    HW1 6152   1.038   2.649   2.924
 1898SOL    HW2 6153   0.993   2.533   2.819
 1899SOL     OW 6154   0.980   3.435   3.562
 1899SOL    HW1 6155   0.960   3.479   3.474
 1899SOL    HW2 6156   1.019   3.344   3.546
 1900SOL     OW 6157   1.859   3.380   3.467
 1900SOL    HW1 6158   1.873   3.407   3.372
 1900SOL    HW2 6159   1.942   3.402   3.520
 1901SOL     OW 6160   0.350   2.760   3.666
 1901SOL    HW1 6161   0.426   2.804   3.714
 1901SOL    HW2 6162   0.385   2.713   3.584
 1902SOL     OW 6163   1.540   2.136   1.987
 1902SOL    HW1 6164   1.479   2.061   2.010
 1902SOL    HW2 6165   1.562   2.188   2.070
 1903SOL     OW 6166   1.303   2.700   1.904
 1903SOL    HW1 6167   1.337   2.607   1.919
 1903SOL    HW2 6168   1.321   2.727   1.809
 1904SOL     OW 6169   1.068   3.195   2.711
 1904SOL    HW1 6170   1.075   3.111   2.656
 1904SOL    HW2 6171   1.130   3.264   2.675
 1905SOL     OW 6172   0.319   2.672   2.811
 1905SOL    HW1 6173   0.412   2.708   2.816
 1905SOL    HW2 6174   0.313   2.587   2.863
 1906SOL     OW 6175   0.339   2.371   2.868
 1906SOL    HW1 6176   0.287   2.288   2.851
 1906SOL    HW2 6177   0.416   2.376   2.804
 1907SOL     OW 6178   1.138   2.242   3.540
 1907SOL    HW1 6179   1.093   2.305   3.604
 1907SOL    HW2 6180   1.231   2.273   3.523
 1908SOL     OW 6181   1.160   2.069   3.339
 1908SOL    HW1 6182   1.160   2.133   3.416
 1908SOL    HW2 6183   1.188   2.117   3.256
 1909SOL     OW 6184   0.008   3.188   2.062
 1909SOL    HW1 6185  -0.085   3.209   2.031
 1909SOL    HW2 6186   0.018   3.089   2.075
 1910SOL     OW 6187   0.088   3.663   2.789
 1910SOL    HW1 6188   0.046   3.577   2.762
 1910SOL    HW2 6189   0.182   3.666   2.755
 1911SOL     OW 6190   0.504   3.430   2.772
 1911SOL    HW1 6191   0.570   3.504   2.781
 1911SOL    HW2 6192   0.548   3.351   2.730
 1912SOL     OW 6193   1.002   2.658   3.100
 1912SOL    HW1 6194   1.043   2.626   3.186
 1912SOL    HW2 6195   0.906   2.631   3.097
 1913SOL     OW 6196   0.040   2.406   2.976
 1913SOL    HW1 6197   0.125   2.373   2.935
 1913SOL    HW2 6198   0.053   2.421   3.074
 1914SOL     OW 6199   0.189   2.382   3.584
 1914SOL    HW1 6200   0.248   2.342   3.514
 1914SOL    HW2 6201   0.131   2.453   3.543
 1915SOL     OW 6202   1.369   2.812   3.522
 1915SOL    HW1 6203   1.408   2.901   3.542
 1915SOL    HW2 6204   1.379   2.792   3.425
 1916SOL     OW 6205   0.815   2.434   2.187
 1916SOL    HW1 6206   0.822   2.345   2.141
 1916SOL    HW2 6207   0.721   2.468   2.179
 1917SOL     OW 6208   1.657   2.466   3.068
 1917SOL    HW1 6209   1.619   2.397   3.130
 1917SOL    HW2 6210   1.739   2.430   3.024
 1918SOL     OW 6211   0.252   3.426   3.606
 1918SOL    HW1 6212   0.222   3.483   3.682
 1918SOL    HW2 6213   0.245   3.329   3.632
 1919SOL     OW 6214   0.671   2.326   3.131
 1919SOL    HW1 6215   0.637   2.237   3.101
 1919SOL    HW2 6216   0.697   2.380   3.051
 1920SOL     OW 6217   0.930   3.540   3.327
 1920SOL    HW1 6218   0.906   3.522   3.232
 1920SOL    HW2 6219   0.960   3.634   3.337
 1921SOL     OW 6220   0.473   2.362   2.053
 1921SOL    HW1 6221   0.534   2.442   2.057
 1921SOL    HW2 6222   0.378   2.393   2.060
 1922SOL     OW 6223   0.159   2.999   3.328
 1922SOL    HW1 6224   0.181   2.938   3.404
 1922SOL    HW2 6225   0.169   2.950   3.242
 1923SOL     OW 6226   1.347   2.921   3.096
 1923SOL    HW1 6227   1.371   2.858   3.022
 1923SOL    HW2 6228   1.257   2.961   3.078
 1924SOL     OW 6229   1.302   2.717   2.171
 1924SOL    HW1 6230   1.216   2.686   2.213
 1924SOL    HW2 6231   1.298   2.703   2.072
 1925SOL     OW 6232   1.759   3.609   3.016
 1925SOL    HW1 6233   1.820   3.639   2.943
 1925SOL    HW2 6234   1.721   3.520   2.994
 1926SOL     OW 6235   1.252   3.593   2.990
 1926SOL    HW1 6236   1.336   3.598   2.936
 1926SOL    HW2 6237   1.229   3.497   3.008
 1927SOL     OW 6238   0.083   3.120   2.884
 1927SOL    HW1 6239   0.078   3.119   2.984
 1927SOL    HW2 6240   0.000   3.079   2.846
 1928SOL     OW 6241   0.688   3.524   3.578
 1928SOL    HW1 6242   0.632   3.605   3.587
 1928SOL    HW2 6243   0.740   3.528   3.492
 1929SOL     OW 6244   1.388   3.435   2.339
 1929SOL    HW1 6245   1.455   3.447   2.265
 1929SOL    HW2 6246   1.348   3.524   2.362
 1930SOL     OW 6247   0.130   3.656   3.713
 1930SOL    HW1 6248   0.089   3.582   3.766
 1930SOL    HW2 6249   0.194   3.707   3.771
 1931SOL     OW 6250   1.280   2.789   2.534
 1931SOL    HW1 6251   1.340   2.708   2.536
 1931SOL    HW2 6252   1.320   2.858   2.474
 1932SOL     OW 6253   0.830   3.135   3.284
 1932SOL    HW1 6254   0.825   3.168   3.379
 1932SOL    HW2 6255   0.744   3.154   3.238
 1933SOL     OW 6256   0.672   3.478   2.016
 1933SOL    HW1 6257   0.681   3.488   1.917
 1933SOL    HW2 6258   0.632   3.389   2.037
 1934SOL     OW 6259   1.650   3.582   3.256
 1934SOL    HW1 6260   1.703   3.592   3.172
 1934SOL    HW2 6261   1.623   3.672   3.290
 1935SOL     OW 6262   0.263   2.188   2.582
 1935SOL    HW1 6263   0.184   2.239   2.548
 1935SOL    HW2 6264   0.254   2.173   2.680
 1936SOL     OW 6265   1.194   3.474   1.893
 1936SOL    HW1 6266   1.200   3.381   1.930
 1936SOL    HW2 6267   1.135   3.474   1.813
 1937SOL     OW 6268   0.822   2.864   3.234
 1937SOL    HW1 6269   0.862   2.863   3.142
 1937SOL    HW2 6270   0.832   2.956   3.274
 1938SOL     OW 6271   0.916   2.772   2.153
 1938SOL    HW1 6272   0.979   2.810   2.085
 1938SOL    HW2 6273   0.956   2.689   2.192
 1939SOL     OW 6274   1.504   3.469   1.906
 1939SOL    HW1 6275   1.412   3.506   1.913
 1939SOL    HW2 6276   1.542   3.489   1.816
 1940SOL     OW 6277   0.372   3.150   3.352
 1940SOL    HW1 6278   0.359   3.243   3.318
 1940SOL    HW2 6279   0.288   3.098   3.339
 1941SOL     OW 6280   1.614   3.154   3.151
 1941SOL    HW1 6281   1.674   3.157   3.231
 1941SOL    HW2 6282   1.539   3.218   3.164
 1942SOL     OW 6283   1.039   2.960   2.558
 1942SOL    HW1 6284   0.969   2.913   2.612
 1942SOL    HW2 6285   1.098   2.892   2.515
 1943SOL     OW 6286   1.014   2.098   2.833
 1943SOL    HW1 6287   1.006   2.062   2.740
 1943SOL    HW2 6288   1.012   2.022   2.898
 1944SOL     OW 6289   0.590   3.349   2.353
 1944SOL    HW1 6290   0.632   3.291   2.283
 1944SOL    HW2 6291   0.546   3.428   2.309
 1945SOL     OW 6292   1.709   2.247   3.243
 1945SOL    HW1 6293   1.782   2.316   3.247
 1945SOL    HW2 6294   1.737   2.172   3.184
 1946SOL     OW 6295   0.255   3.210   2.152
 1946SOL    HW1 6296   0.159   3.211   2.125
 1946SOL    HW2 6297   0.267   3.263   2.236
 1947SOL     OW 6298   0.105   2.875   3.588
 1947SOL    HW1 6299   0.028   2.842   3.642
 1947SOL    HW2 6300   0.190   2.845   3.630
 1948SOL     OW 6301   0.672   2.065   3.351
 1948SOL    HW1 6302   0.762   2.049   3.311
 1948SOL    HW2 6303   0.680   2.070   3.450
 1949SOL     OW 6304   0.075   2.207   1.895
 1949SOL    HW1 6305  -0.017   2.179   1.866
 1949SOL    HW2 6306   0.106   2.284   1.839
 1950SOL     OW 6307   1.440   2.718   3.260
 1950SOL    HW1 6308   1.383   2.770   3.197
 1950SOL    HW2 6309   1.536   2.730   3.236
 1951SOL     OW 6310   0.072   2.028   2.180
 1951SOL    HW1 6311   0.055   2.111   2.126
 1951SOL    HW2 6312   0.162   1.991   2.158
 1952SOL     OW 6313   1.183   3.197   1.981
 1952SOL    HW1 6314   1.084   3.186   1.983
 1952SOL    HW2 6315   1.217   3.212   2.074
 1953SOL     OW 6316   0.613   2.704   3.293
 1953SOL    HW1 6317   0.669   2.785   3.276
 1953SOL    HW2 6318   0.672   2.624   3.296
 1954SOL     OW 6319   1.493   3.629   2.821
 1954SOL    HW1 6320   1.526   3.693   2.752
 1954SOL    HW2 6321   1.559   3.623   2.896
 1955SOL     OW 6322   0.716   2.427   3.570
 1955SOL    HW1 6323   0.735   2.492   3.644
 1955SOL    HW2 6324   0.776   2.347   3.579
 1956SOL     OW 6325   1.450   3.082   3.495
 1956SOL    HW1 6326   1.441   3.072   3.594
 1956SOL    HW2 6327   1.546   3.075   3.469
 1957SOL     OW 6328   0.390   3.603   3.422
 1957SOL    HW1 6329   0.299   3.644   3.420
 1957SOL    HW2 6330   0.383   3.509   3.454
 1958SOL     OW 6331   1.674   2.745   3.116
 1958SOL    HW1 6332   1.647   2.656   3.079
 1958SOL    HW2 6333   1.675   2.813   3.043
 1959SOL     OW 6334   1.225   2.187   2.311
 1959SOL    HW1 6335   1.290   2.113   2.300
 1959SOL    HW2 6336   1.245   2.237   2.395
 1960SOL     OW 6337   0.594   2.607   2.514
 1960SOL    HW1 6338   0.644   2.692   2.495
 1960SOL    HW2 6339   0.506   2.609   2.466
 1961SOL     OW 6340   1.777   2.204   3.504
 1961SOL    HW1 6341   1.760   2.235   3.410
 1961SOL    HW2 6342   1.693   2.167   3.542
 1962SOL     OW 6343   1.730   2.796   3.379
 1962SOL    HW1 6344   1.768   2.887   3.394
 1962SOL    HW2 6345   1.722   2.779   3.280
 1963SOL     OW 6346   0.859   3.236   1.878
 1963SOL    HW1 6347   0.813   3.251   1.966
 1963SOL    HW2 6348   0.903   3.321   1.848
 1964SOL     OW 6349   0.661   3.652   2.815
 1964SOL    HW1 6350   0.615   3.740   2.802
 1964SOL    HW2 6351   0.760   3.664   2.808
 1965SOL     OW 6352   0.859   2.818   2.723
 1965SOL    HW1 6353   0.913   2.749   2.771
 1965SOL    HW2 6354   0.827   2.887   2.789
 1966SOL     OW 6355   1.083   2.846   1.949
 1966SOL    HW1 6356   1.060   2.899   1.867
 1966SOL    HW2 6357   1.164   2.790   1.930
 1967SOL     OW 6358   1.861   3.431   2.713
 1967SOL    HW1 6359   1.790   3.419   2.643
 1967SOL    HW2 6360   1.862   3.352   2.773
 1968SOL     OW 6361   0.221   3.176   3.706
 1968SOL    HW1 6362   0.156   3.103   3.685
 1968SOL    HW2 6363   0.225   3.190   3.804
 1969SOL     OW 6364   0.079   3.102   2.515
 1969SOL    HW1 6365   0.078   3.055   2.603
 1969SOL    HW2 6366   0.161   3.074   2.464
 1970SOL     OW 6367   0.672   3.253   3.486
 1970SOL    HW1 6368   0.594   3.203   3.524
 1970SOL    HW2 6369   0.669   3.348   3.517
 1971SOL     OW 6370   0.428   2.286   2.382
 1971SOL    HW1 6371   0.458   2.214   2.320
 1971SOL    HW2 6372   0.389   2.246   2.465
 1972SOL     OW 6373   1.705   3.349   2.966
 1972SOL    HW1 6374   1.612   3.324   2.939
 1972SOL    HW2 6375   1.731   3.299   3.048
 1973SOL     OW 6376   0.317   2.409   3.142
 1973SOL    HW1 6377   0.355   2.350   3.214
 1973SOL    HW2 6378   0.357   2.383   3.054
 1974SOL     OW 6379   0.812   3.448   2.549
 1974SOL    HW1 6380   0.844   3.458   2.455
 1974SOL    HW2 6381   0.733   3.386   2.551
 1975SOL     OW 6382   1.424   2.076   2.974
 1975SOL    HW1 6383   1.476   2.011   3.029
 1975SOL    HW2 6384   1.375   2.139   3.035
 1976SOL     OW 6385   1.001   1.896   3.016
 1976SOL    HW1 6386   0.938   1.824   2.985
 1976SOL    HW2 6387   1.094   1.860   3.016
 1977SOL     OW 6388   0.770   3.192   2.163
 1977SOL    HW1 6389   0.724   3.105   2.180
 1977SOL    HW2 6390   0.861   3.189   2.204
 1978SOL     OW 6391   0.618   3.429   3.146
 1978SOL    HW1 6392   0.613   3.511   3.203
 1978SOL    HW2 6393   0.707   3.426   3.101
 1979SOL     OW 6394   1.352   1.914   2.030
 1979SOL    HW1 6395   1.387   1.873   1.946
 1979SOL    HW2 6396   1.262   1.876   2.050
 1980SOL     OW 6397   1.300   2.315   2.553
 1980SOL    HW1 6398   1.241   2.395   2.557
 1980SOL    HW2 6399   1.315   2.280   2.646
 1981SOL     OW 6400   1.593   2.083   2.744
 1981SOL    HW1 6401   1.509   2.082   2.798
 1981SOL    HW2 6402   1.595   2.166   2.688
 1982SOL     OW 6403   0.039   2.939   2.162
 1982SOL    HW1 6404   0.138   2.928   2.153
 1982SOL    HW2 6405  -0.001   2.853   2.194
 1983SOL     OW 6406   0.875   3.508   2.199
 1983SOL    HW1 6407   0.798   3.473   2.145
 1983SOL    HW2 6408   0.843   3.579   2.261
 1984SOL     OW 6409   0.230   2.490   3.837
 1984SOL    HW1 6410   0.137   2.488   3.874
 1984SOL    HW2 6411   0.231   2.451   3.745
 1985SOL     OW 6412   0.225   2.137   4.720
 1985SOL    HW1 6413   0.260   2.120   4.812
 1985SOL    HW2 6414   0.137   2.092   4.708
 1986SOL     OW 6415   0.019   2.230   4.371
 1986SOL    HW1 6416  -0.063   2.273   4.410
 1986SOL    HW2 6417  -0.009   2.157   4.308
 1987SOL     OW 6418   0.569   3.137   4.889
 1987SOL    HW1 6419   0.476   3.130   4.852
 1987SOL    HW2 6420   0.580   3.226   4.933
 1988SOL     OW 6421   1.555   3.373   4.427
 1988SOL    HW1 6422   1.498   3.357   4.508
 1988SOL    HW2 6423   1.496   3.383   4.347
 1989SOL     OW 6424   1.135   2.565   4.441
 1989SOL    HW1 6425   1.192   2.643   4.416
 1989SOL    HW2 6426   1.075   2.591   4.517
 1990SOL     OW 6427   1.755   2.469   3.955
 1990SOL    HW1 6428   1.743   2.456   3.856
 1990SOL    HW2 6429   1.725   2.388   4.004
 1991SOL     OW 6430   0.768   3.006   4.747
 1991SOL    HW1 6431   0.690   3.023   4.807
 1991SOL    HW2 6432   0.802   3.093   4.711
 1992SOL     OW 6433   0.850   2.660   5.547
 1992SOL    HW1 6434   0.846   2.736   5.612
 1992SOL    HW2 6435   0.872   2.696   5.456
 1993SOL     OW 6436   0.685   2.874   4.389
 1993SOL    HW1 6437   0.754   2.858   4.459
 1993SOL    HW2 6438   0.612   2.931   4.427
 1994SOL     OW 6439   0.686   3.023   5.527
 1994SOL    HW1 6440   0.746   3.102   5.541
 1994SOL    HW2 6441   0.600   3.054   5.486
 1995SOL     OW 6442   0.335   3.297   4.785
 1995SOL    HW1 6443   0.257   3.266   4.732
 1995SOL    HW2 6444   0.393   3.355   4.728
 1996SOL     OW 6445   1.460   3.367   5.063
 1996SOL    HW1 6446   1.484   3.461   5.089
 1996SOL    HW2 6447   1.444   3.313   5.145
 1997SOL     OW 6448   0.438   2.254   5.223
 1997SOL    HW1 6449   0.520   2.198   5.232
 1997SOL    HW2 6450   0.357   2.196   5.227
 1998SOL     OW 6451   1.603   2.309   4.461
 1998SOL    HW1 6452   1.529   2.355   4.411
 1998SOL    HW2 6453   1.654   2.377   4.514
 1999SOL     OW 6454   0.231   3.575   4.207
 1999SOL    HW1 6455   0.265   3.652   4.261
 1999SOL    HW2 6456   0.275   3.575   4.117
 2000SOL     OW 6457   1.127   3.203   5.414
 2000SOL    HW1 6458   1.174   3.203   5.502
 2000SOL    HW2 6459   1.079   3.116   5.403
 2001SOL     OW 6460   0.230   3.296   4.262
 2001SOL    HW1 6461   0.204   3.392   4.262
 2001SOL    HW2 6462   0.159   3.242   4.307
 2002SOL     OW 6463   0.240   2.953   4.610
 2002SOL    HW1 6464   0.254   2.869   4.662
 2002SOL    HW2 6465   0.185   3.017   4.665
 2003SOL     OW 6466   0.620   3.648   5.163
 2003SOL    HW1 6467   0.528   3.631   5.198
 2003SOL    HW2 6468   0.648   3.740   5.189
 2004SOL     OW 6469   0.606   2.826   3.847
 2004SOL    HW1 6470   0.613   2.910   3.793
 2004SOL    HW2 6471   0.652   2.839   3.935
 2005SOL     OW 6472   1.594   1.976   5.204
 2005SOL    HW1 6473   1.576   2.043   5.132
 2005SOL    HW2 6474   1.591   2.022   5.293
 2006SOL     OW 6475   0.122   2.505   4.287
 2006SOL    HW1 6476   0.077   2.417   4.304
 2006SOL    HW2 6477   0.121   2.559   4.371
 2007SOL     OW 6478   1.842   3.629   4.083
 2007SOL    HW1 6479   1.896   3.600   4.163
 2007SOL    HW2 6480   1.872   3.719   4.054
 2008SOL     OW 6481   0.027   3.458   3.841
 2008SOL    HW1 6482   0.008   3.362   3.862
 2008SOL    HW2 6483  -0.006   3.516   3.916
 2009SOL     OW 6484   1.689   2.784   4.336
 2009SOL    HW1 6485   1.784   2.755   4.344
 2009SOL    HW2 6486   1.681   2.849   4.261
 2010SOL     OW 6487   1.641   2.970   4.156
 2010SOL    HW1 6488   1.727   2.972   4.104
 2010SOL    HW2 6489   1.655   3.017   4.244
 2011SOL     OW 6490   0.113   2.599   5.321
 2011SOL    HW1 6491   0.201   2.586   5.366
 2011SOL    HW2 6492   0.100   2.696   5.299
 2012SOL     OW 6493   0.613   3.227   4.450
 2012SOL    HW1 6494   0.564   3.140   4.459
 2012SOL    HW2 6495   0.590   3.270   4.363
 2013SOL     OW 6496   1.293   3.090   5.147
 2013SOL    HW1 6497   1.330   3.017   5.089
 2013SOL    HW2 6498   1.345   3.095   5.232
 2014SOL     OW 6499   0.809   1.866   4.226
 2014SOL    HW1 6500   0.849   1.957   4.217
 2014SOL    HW2 6501   0.709   1.874   4.232
 2015SOL     OW 6502   0.197   2.838   4.988
 2015SOL    HW1 6503   0.286   2.793   4.974
 2015SOL    HW2 6504   0.124   2.773   4.969
 2016SOL     OW 6505   1.525   2.861   3.914
 2016SOL    HW1 6506   1.462   2.785   3.927
 2016SOL    HW2 6507   1.573   2.879   4.000
 2017SOL     OW 6508   1.187   3.654   5.340
 2017SOL    HW1 6509   1.211   3.714   5.264
 2017SOL    HW2 6510   1.194   3.559   5.310
 2018SOL     OW 6511   0.317   2.113   5.525
 2018SOL    HW1 6512   0.388   2.184   5.531
 2018SOL    HW2 6513   0.229   2.152   5.553
 2019SOL     OW 6514   1.466   3.279   4.677
 2019SOL    HW1 6515   1.407   3.285   4.757
 2019SOL    HW2 6516   1.451   3.191   4.631
 2020SOL     OW 6517   1.667   3.576   4.296
 2020SOL    HW1 6518   1.626   3.553   4.208
 2020SOL    HW2 6519   1.649   3.502   4.361
 2021SOL     OW 6520   0.598   2.591   3.994
 2021SOL    HW1 6521   0.622   2.660   3.926
 2021SOL    HW2 6522   0.520   2.624   4.048
 2022SOL     OW 6523   1.281   2.207   4.668
 2022SOL    HW1 6524   1.195   2.157   4.655
 2022SOL    HW2 6525   1.343   2.153   4.724
 2023SOL     OW 6526   1.576   3.524   4.031
 2023SOL    HW1 6527   1.665   3.570   4.034
 2023SOL    HW2 6528   1.555   3.500   3.936
 2024SOL     OW 6529   0.807   2.467   5.189
 2024SOL    HW1 6530   0.760   2.464   5.278
 2024SOL    HW2 6531   0.756   2.412   5.123
 2025SOL     OW 6532   1.394   2.331   5.398
 2025SOL    HW1 6533   1.374   2.374   5.486
 2025SOL    HW2 6534   1.472   2.269   5.407
 2026SOL     OW 6535   0.973   2.752   5.296
 2026SOL    HW1 6536   1.019   2.668   5.267
 2026SOL    HW2 6537   0.917   2.786   5.221
 2027SOL     OW 6538   0.991   2.272   4.966
 2027SOL    HW1 6539   0.914   2.306   5.020
 2027SOL    HW2 6540   0.957   2.221   4.887
 2028SOL     OW 6541   1.041   2.563   4.153
 2028SOL    HW1 6542   1.067   2.559   4.249
 2028SOL    HW2 6543   0.956   2.512   4.139
 2029SOL     OW 6544   0.076   2.673   4.513
 2029SOL    HW1 6545   0.175   2.661   4.522
 2029SOL    HW2 6546   0.052   2.768   4.534
 2030SOL     OW 6547   0.130   3.683   5.295
 2030SOL    HW1 6548   0.120   3.668   5.394
 2030SOL    HW2 6549   0.044   3.719   5.259
 2031SOL     OW 6550   0.865   2.210   3.919
 2031SOL    HW1 6551   0.924   2.273   3.870
 2031SOL    HW2 6552   0.884   2.116   3.890
 2032SOL     OW 6553   1.719   2.447   5.555
 2032SOL    HW1 6554   1.693   2.536   5.519
 2032SOL    HW2 6555   1.717   2.379   5.482
 2033SOL     OW 6556   1.362   3.006   4.269
 2033SOL    HW1 6557   1.445   2.977   4.221
 2033SOL    HW2 6558   1.313   3.073   4.213
 2034SOL     OW 6559   0.550   2.058   4.609
 2034SOL    HW1 6560   0.545   2.053   4.709
 2034SOL    HW2 6561   0.552   2.154   4.580
 2035SOL     OW 6562   1.008   3.318   4.201
 2035SOL    HW1 6563   0.962   3.390   4.149
 2035SOL    HW2 6564   1.004   3.338   4.299
 2036SOL     OW 6565   0.351   3.663   4.577
 2036SOL    HW1 6566   0.401   3.577   4.583
 2036SOL    HW2 6567   0.416   3.740   4.574
 2037SOL     OW 6568   1.795   2.928   4.597
 2037SOL    HW1 6569   1.733   2.913   4.521
 2037SOL    HW2 6570   1.743   2.939   4.682
 2038SOL     OW 6571   1.227   3.412   5.230
 2038SOL    HW1 6572   1.233   3.335   5.294
 2038SOL    HW2 6573   1.175   3.386   5.150
 2039SOL     OW 6574   0.321   2.805   3.966
 2039SOL    HW1 6575   0.403   2.844   3.924
 2039SOL    HW2 6576   0.294   2.723   3.917
 2040SOL     OW 6577   1.458   2.597   4.452
 2040SOL    HW1 6578   1.453   2.532   4.527
 2040SOL    HW2 6579   1.538   2.656   4.465
 2041SOL     OW 6580   0.461   3.128   5.451
 2041SOL    HW1 6581   0.411   3.129   5.365
 2041SOL    HW2 6582   0.398   3.110   5.527
 2042SOL     OW 6583   1.111   3.638   3.961
 2042SOL    HW1 6584   1.051   3.576   4.011
 2042SOL    HW2 6585   1.142   3.594   3.876
 2043SOL     OW 6586   0.202   2.147   5.222
 2043SOL    HW1 6587   0.122   2.207   5.209
 2043SOL    HW2 6588   0.192   2.098   5.308
 2044SOL     OW 6589   1.632   3.239   3.805
 2044SOL    HW1 6590   1.600   3.333   3.795
 2044SOL    HW2 6591   1.556   3.176   3.793
 2045SOL     OW 6592   0.464   3.605   4.047
 2045SOL    HW1 6593   0.497   3.644   4.133
 2045SOL    HW2 6594   0.540   3.598   3.982
 2046SOL     OW 6595   1.400   1.969   4.150
 2046SOL    HW1 6596   1.376   1.932   4.060
 2046SOL    HW2 6597   1.499   1.985   4.154
 2047SOL     OW 6598   0.249   3.647   4.965
 2047SOL    HW1 6599   0.306   3.582   5.015
 2047SOL    HW2 6600   0.233   3.614   4.872
 2048SOL     OW 6601   0.940   3.560   4.628
 2048SOL    HW1 6602   1.020   3.503   4.649
 2048SOL    HW2 6603   0.891   3.520   4.551
 2049SOL     OW 6604   0.382   2.562   4.204
 2049SOL    HW1 6605   0.427   2.472   4.201
 2049SOL    HW2 6606   0.288   2.551   4.237
 2050SOL     OW 6607   1.547   2.084   5.453
 2050SOL    HW1 6608   1.542   2.121   5.545
 2050SOL    HW2 6609   1.475   2.015   5.441
 2051SOL     OW 6610   0.614   1.984   3.841
 2051SOL    HW1 6611   0.712   1.962   3.848
 2051SOL    HW2 6612   0.583   1.967   3.748
 2052SOL     OW 6613   0.781   2.126   5.473
 2052SOL    HW1 6614   0.848   2.065   5.516
 2052SOL    HW2 6615   0.708   2.145   5.538
 2053SOL     OW 6616   0.888   3.376   4.919
 2053SOL    HW1 6617   0.865   3.351   4.825
 2053SOL    HW2 6618   0.949   3.307   4.958
 2054SOL     OW 6619   1.351   2.452   5.157
 2054SOL    HW1 6620   1.379   2.409   5.242
 2054SOL    HW2 6621   1.376   2.548   5.158
 2055SOL     OW 6622   0.803   3.264   4.648
 2055SOL    HW1 6623   0.893   3.278   4.606
 2055SOL    HW2 6624   0.732   3.266   4.577
 2056SOL     OW 6625   0.922   2.365   4.623
 2056SOL    HW1 6626   0.897   2.356   4.527
 2056SOL    HW2 6627   0.970   2.283   4.654
 2057SOL     OW 6628   0.539   1.926   4.236
 2057SOL    HW1 6629   0.458   1.927   4.294
 2057SOL    HW2 6630   0.542   2.009   4.181
 2058SOL     OW 6631   1.434   3.050   3.765
 2058SOL    HW1 6632   1.466   2.974   3.822
 2058SOL    HW2 6633   1.342   3.077   3.795
 2059SOL     OW 6634   0.297   1.897   3.895
 2059SOL    HW1 6635   0.346   1.981   3.874
 2059SOL    HW2 6636   0.359   1.832   3.940
 2060SOL     OW 6637   0.935   2.098   4.204
 2060SOL    HW1 6638   0.887   2.139   4.126
 2060SOL    HW2 6639   1.034   2.096   4.185
 2061SOL     OW 6640   1.076   2.545   5.188
 2061SOL    HW1 6641   0.996   2.484   5.191
 2061SOL    HW2 6642   1.157   2.492   5.164
 2062SOL     OW 6643   1.227   3.432   4.517
 2062SOL    HW1 6644   1.248   3.506   4.452
 2062SOL    HW2 6645   1.295   3.432   4.590
 2063SOL     OW 6646   0.459   3.014   4.465
 2063SOL    HW1 6647   0.388   2.987   4.530
 2063SOL    HW2 6648   0.433   2.986   4.372
 2064SOL     OW 6649   1.271   3.659   4.315
 2064SOL    HW1 6650   1.315   3.723   4.251
 2064SOL    HW2 6651   1.221   3.711   4.385
 2065SOL     OW 6652   1.032   2.411   3.740
 2065SOL    HW1 6653   0.991   2.493   3.701
 2065SOL    HW2 6654   1.096   2.437   3.813
 2066SOL     OW 6655   0.078   2.418   5.110
 2066SOL    HW1 6656   0.170   2.417   5.069
 2066SOL    HW2 6657   0.072   2.492   5.177
 2067SOL     OW 6658   0.561   2.084   4.871
 2067SOL    HW1 6659   0.599   2.000   4.908
 2067SOL    HW2 6660   0.473   2.103   4.915
 2068SOL     OW 6661   0.866   2.316   4.366
 2068SOL    HW1 6662   0.834   2.388   4.304
 2068SOL    HW2 6663   0.890   2.235   4.313
 2069SOL     OW 6664   1.017   1.901   4.477
 2069SOL    HW1 6665   0.945   1.906   4.408
 2069SOL    HW2 6666   0.993   1.832   4.546
 2070SOL     OW 6667   1.429   3.035   4.591
 2070SOL    HW1 6668   1.374   2.951   4.584
 2070SOL    HW2 6669   1.455   3.064   4.499
 2071SOL     OW 6670   1.466   2.452   4.716
 2071SOL    HW1 6671   1.436   2.357   4.723
 2071SOL    HW2 6672   1.539   2.468   4.782
 2072SOL     OW 6673   1.857   2.695   4.101
 2072SOL    HW1 6674   1.899   2.631   4.165
 2072SOL    HW2 6675   1.819   2.644   4.023
 2073SOL     OW 6676   0.488   3.247   3.898
 2073SOL    HW1 6677   0.401   3.232   3.945
 2073SOL    HW2 6678   0.471   3.273   3.803
 2074SOL     OW 6679   1.664   3.142   4.381
 2074SOL    HW1 6680   1.763   3.150   4.395
 2074SOL    HW2 6681   1.619   3.226   4.412
 2075SOL     OW 6682   1.390   2.437   3.802
 2075SOL    HW1 6683   1.336   2.416   3.883
 2075SOL    HW2 6684   1.481   2.396   3.811
 2076SOL     OW 6685   0.527   2.118   4.052
 2076SOL    HW1 6686   0.554   2.059   3.977
 2076SOL    HW2 6687   0.527   2.213   4.021
 2077SOL     OW 6688   1.754   3.085   5.312
 2077SOL    HW1 6689   1.845   3.046   5.299
 2077SOL    HW2 6690   1.762   3.181   5.336
 2078SOL     OW 6691   1.064   3.209   5.064
 2078SOL    HW1 6692   0.984   3.186   5.119
 2078SOL    HW2 6693   1.147   3.183   5.113
 2079SOL     OW 6694   1.592   3.491   5.349
 2079SOL    HW1 6695   1.619   3.525   5.259
 2079SOL    HW2 6696   1.671   3.453   5.395
 2080SOL     OW 6697   1.111   3.057   4.824
 2080SOL    HW1 6698   1.071   3.101   4.905
 2080SOL    HW2 6699   1.070   3.094   4.741
 2081SOL     OW 6700   1.638   2.961   4.803
 2081SOL    HW1 6701   1.643   3.042   4.862
 2081SOL    HW2 6702   1.552   2.963   4.752
 2082SOL     OW 6703   0.915   1.951   5.126
 2082SOL    HW1 6704   0.940   1.931   5.031
 2082SOL    HW2 6705   0.987   2.007   5.168
 2083SOL     OW 6706   0.980   2.978   5.443
 2083SOL    HW1 6707   0.881   2.984   5.453
 2083SOL    HW2 6708   1.003   2.898   5.387
 2084SOL     OW 6709   0.705   2.912   4.092
 2084SOL    HW1 6710   0.691   2.919   4.191
 2084SOL    HW2 6711   0.789   2.861   4.074
 2085SOL     OW 6712   0.410   2.675   4.975
 2085SOL    HW1 6713   0.496   2.687   5.025
 2085SOL    HW2 6714   0.368   2.588   5.002
 2086SOL     OW 6715   1.274   2.248   4.986
 2086SOL    HW1 6716   1.295   2.322   5.050
 2086SOL    HW2 6717   1.185   2.265   4.943
 2087SOL     OW 6718   0.064   3.426   5.055
 2087SOL    HW1 6719   0.018   3.508   5.021
 2087SOL    HW2 6720   0.162   3.445   5.064
 2088SOL     OW 6721   0.367   2.962   4.225
 2088SOL    HW1 6722   0.360   3.045   4.169
 2088SOL    HW2 6723   0.371   2.882   4.165
 2089SOL     OW 6724   0.566   2.399   4.589
 2089SOL    HW1 6725   0.578   2.465   4.515
 2089SOL    HW2 6726   0.612   2.433   4.672
 2090SOL     OW 6727   1.252   3.210   4.112
 2090SOL    HW1 6728   1.302   3.287   4.152
 2090SOL    HW2 6729   1.157   3.212   4.144
 2091SOL     OW 6730   1.272   3.307   4.866
 2091SOL    HW1 6731   1.319   3.320   4.953
 2091SOL    HW2 6732   1.206   3.233   4.875
 2092SOL     OW 6733   1.582   2.501   4.196
 2092SOL    HW1 6734   1.551   2.562   4.269
 2092SOL    HW2 6735   1.632   2.553   4.127
 2093SOL     OW 6736   0.354   3.372   5.053
 2093SOL    HW1 6737   0.333   3.328   4.966
 2093SOL    HW2 6738   0.451   3.398   5.056
 2094SOL     OW 6739   0.402   2.613   5.322
 2094SOL    HW1 6740   0.470   2.668   5.275
 2094SOL    HW2 6741   0.442   2.525   5.349
 2095SOL     OW 6742   1.587   2.641   5.394
 2095SOL    HW1 6743   1.495   2.679   5.389
 2095SOL    HW2 6744   1.647   2.688   5.329
 2096SOL     OW 6745   1.013   1.967   5.494
 2096SOL    HW1 6746   1.019   2.052   5.442
 2096SOL    HW2 6747   1.045   1.891   5.437
 2097SOL     OW 6748   0.504   1.912   5.464
 2097SOL    HW1 6749   0.462   1.855   5.394
 2097SOL    HW2 6750   0.438   1.981   5.496
 2098SOL     OW 6751   0.573   2.732   4.753
 2098SOL    HW1 6752   0.617   2.821   4.744
 2098SOL    HW2 6753   0.510   2.732   4.830
 2099SOL     OW 6754   1.360   2.724   4.769
 2099SOL    HW1 6755   1.285   2.724   4.703
 2099SOL    HW2 6756   1.397   2.632   4.778
 2100SOL     OW 6757   1.209   2.387   3.999
 2100SOL    HW1 6758   1.222   2.303   4.053
 2100SOL    HW2 6759   1.180   2.461   4.059
 2101SOL     OW 6760   0.307   2.075   4.955
 2101SOL    HW1 6761   0.284   2.112   5.045
 2101SOL    HW2 6762   0.277   1.980   4.949
 2102SOL     OW 6763   0.037   3.172   5.006
 2102SOL    HW1 6764   0.090   3.123   5.074
 2102SOL    HW2 6765   0.059   3.270   5.011
 2103SOL     OW 6766   0.732   2.496   4.788
 2103SOL    HW1 6767   0.791   2.470   4.712
 2103SOL    HW2 6768   0.704   2.592   4.777
 2104SOL     OW 6769   1.728   2.797   5.578
 2104SOL    HW1 6770   1.682   2.790   5.489
 2104SOL    HW2 6771   1.666   2.841   5.644
 2105SOL     OW 6772   0.307   1.925   4.342
 2105SOL    HW1 6773   0.296   2.019   4.375
 2105SOL    HW2 6774   0.302   1.862   4.419
 2106SOL     OW 6775   1.622   2.229   4.098
 2106SOL    HW1 6776   1.624   2.153   4.162
 2106SOL    HW2 6777   1.574   2.306   4.138
 2107SOL     OW 6778   1.023   2.628   4.690
 2107SOL    HW1 6779   1.038   2.649   4.786
 2107SOL    HW2 6780   0.993   2.533   4.681
 2108SOL     OW 6781   0.980   3.435   5.424
 2108SOL    HW1 6782   0.960   3.479   5.336
 2108SOL    HW2 6783   1.019   3.344   5.408
 2109SOL     OW 6784   1.859   3.380   5.329
 2109SOL    HW1 6785   1.873   3.407   5.234
 2109SOL    HW2 6786   1.942   3.402   5.382
 2110SOL     OW 6787   0.350   2.760   5.528
 2110SOL    HW1 6788   0.426   2.804   5.576
 2110SOL    HW2 6789   0.385   2.713   5.446
 2111SOL     OW 6790   1.540   2.136   3.849
 2111SOL    HW1 6791   1.479   2.061   3.872
 2111SOL    HW2 6792   1.562   2.188   3.932
 2112SOL     OW 6793   1.303   2.700   3.766
 2112SOL    HW1 6794   1.337   2.607   3.781
 2112SOL    HW2 6795   1.321   2.727   3.671
 2113SOL     OW 6796   1.068   3.195   4.573
 2113SOL    HW1 6797   1.075   3.111   4.518
 2113SOL    HW2 6798   1.130   3.264   4.537
 2114SOL     OW 6799   0.319   2.672   4.673
 2114SOL    HW1 6800   0.412   2.708   4.678
 2114SOL    HW2 6801   0.313   2.587   4.725
 2115SOL     OW 6802   0.339   2.371   4.730
 2115SOL    HW1 6803   0.287   2.288   4.713
 2115SOL    HW2 6804   0.416   2.376   4.666
 2116SOL     OW 6805   1.138   2.242   5.402
 2116SOL    HW1 6806   1.093   2.305   5.466
 2116SOL    HW2 6807   1.231   2.273   5.385
 2117SOL     OW 6808   1.160   2.069   5.201
 2117SOL    HW1 6809   1.160   2.133   5.278
 2117SOL    HW2 6810   1.188   2.117   5.118
 2118SOL     OW 6811   0.008   3.188   3.924
 2118SOL    HW1 6812  -0.085   3.209   3.893
 2118SOL    HW2 6813   0.018   3.089   3.937
 2119SOL     OW 6814   0.088   3.663   4.651
 2119SOL    HW1 6815   0.046   3.577   4.624
 2119SOL    HW2 6816   0.182   3.666   4.617
 2120SOL     OW 6817   0.504   3.430   4.634
 2120SOL    HW1 6818   0.570   3.504   4.643
 2120SOL    HW2 6819   0.548   3.351   4.592
 2121SOL     OW 6820   1.002   2.658   4.962
 2121SOL    HW1 6821   1.043   2.626   5.048
 2121SOL    HW2 6822   0.906   2.631   4.959
 2122SOL     OW 6823   0.040   2.406   4.838
 2122SOL    HW1 6824   0.125   2.373   4.797
 2122SOL    HW2 6825   0.053   2.421   4.936
 2123SOL     OW 6826   0.189   2.382   5.446
 2123SOL    HW1 6827   0.248   2.342   5.376
 2123SOL    HW2 6828   0.131   2.453   5.405
 2124SOL     OW 6829   1.369   2.812   5.384
 2124SOL    HW1 6830   1.408   2.901   5.404
 2124SOL    HW2 6831   1.379   2.792   5.287
 2125SOL     OW 6832   0.815   2.434   4.049
 2125SOL    HW1 6833   0.822   2.345   4.003
 2125SOL    HW2 6834   0.721   2.468   4.041
 2126SOL     OW 6835   1.657   2.466   4.930
 2126SOL    HW1 6836   1.619   2.397   4.992
 2126SOL    HW2 6837   1.739   2.430   4.886
 2127SOL     OW 6838   0.252   3.426   5.468
 2127SOL    HW1 6839   0.222   3.483   5.544
 2127SOL    HW2 6840   0.245   3.329   5.494
 2128SOL     OW 6841   0.671   2.326   4.993
 2128SOL    HW1 6842   0.637   2.237   4.963
 2128SOL    HW2 6843   0.697   2.380   4.913
 2129SOL     OW 6844   0.930   3.540   5.189
 2129SOL    HW1 6845   0.906   3.522   5.094
 2129SOL    HW2 6846   0.960   3.634   5.199
 2130SOL     OW 6847   0.473   2.362   3.915
 2130SOL    HW1 6848   0.534   2.442   3.919
 2130SOL    HW2 6849   0.378   2.393   3.922
 2131SOL     OW 6850   0.159   2.999   5.190
 2131SOL    HW1 6851   0.181   2.938   5.266
 2131SOL    HW2 6852   0.169   2.950   5.104
 2132SOL     OW 6853   1.347   2.921   4.958
 2132SOL    HW1 6854   1.371   2.858   4.884
 2132SOL    HW2 6855   1.257   2.961   4.940
 2133SOL     OW 6856   1.302   2.717   4.033
 2133SOL    HW1 6857   1.216   2.686   4.075
 2133SOL    HW2 6858   1.298   2.703   3.934
 2134SOL     OW 6859   1.759   3.609   4.878
 2134SOL    HW1 6860   1.820   3.639   4.805
 2134SOL    HW2 6861   1.721   3.520   4.856
 2135SOL     OW 6862   1.252   3.593   4.852
 2135SOL    HW1 6863   1.336   3.598   4.798
 2135SOL    HW2 6864   1.229   3.497   4.870
 2136SOL     OW 6865   0.083   3.120   4.746
 2136SOL    HW1 6866   0.078   3.119   4.846
 2136SOL    HW2 6867   0.000   3.079   4.708
 2137SOL     OW 6868   0.688   3.524   5.440
 2137SOL    HW1 6869   0.632   3.605   5.449
 2137SOL    HW2 6870   0.740   3.528   5.354
 2138SOL     OW 6871   1.388   3.435   4.201
 2138SOL    HW1 6872   1.455   3.447   4.127
 2138SOL    HW2 6873   1.348   3.524   4.224
 2139SOL     OW 6874   0.130   3.656   5.575
 2139SOL    HW1 6875   0.089   3.582   5.628
 2139SOL    HW2 6876   0.194   3.707   5.633
 2140SOL     OW 6877   1.280   2.789   4.396
 2140SOL    HW1 6878   1.340   2.708   4.398
 2140SOL    HW2 6879   1.320   2.858   4.336
 2141SOL     OW 6880   0.830   3.135   5.146
 2141SOL    HW1 6881   0.825   3.168   5.241
 2141SOL    HW2 6882   0.744   3.154   5.100
 2142SOL     OW 6883   0.672   3.478   3.878
 2142SOL    HW1 6884   0.681   3.488   3.779
 2142SOL    HW2 6885   0.632   3.389   3.899
 2143SOL     OW 6886   1.650   3.582   5.118
 2143SOL    HW1 6887   1.703   3.592   5.034
 2143SOL    HW2 6888   1.623   3.672   5.152
 2144SOL     OW 6889   0.263   2.188   4.444
 2144SOL    HW1 6890   0.184   2.239   4.410
 2144SOL    HW2 6891   0.254   2.173   4.542
 2145SOL     OW 6892   1.194   3.474   3.755
 2145SOL    HW1 6893   1.200   3.381   3.792
 2145SOL    HW2 6894   1.135   3.474   3.675
 2146SOL     OW 6895   0.822   2.864   5.096
 2146SOL    HW1 6896   0.862   2.863   5.004
 2146SOL    HW2 6897   0.832   2.956   5.136
 2147SOL     OW 6898   0.916   2.772   4.015
 2147SOL    HW1 6899   0.979   2.810   3.947
 2147SOL    HW2 6900   0.956   2.689   4.054
 2148SOL     OW 6901   1.504   3.469   3.768
 2148SOL    HW1 6902   1.412   3.506   3.775
 2148SOL    HW2 6903   1.542   3.489   3.678
 2149SOL     OW 6904   0.372   3.150   5.214
 2149SOL    HW1 6905   0.359   3.243   5.180
 2149SOL    HW2 6906   0.288   3.098   5.201
 2150SOL     OW 6907   1.614   3.154   5.013
 2150SOL    HW1 6908   1.674   3.157   5.093
 2150SOL    HW2 6909   1.539   3.218   5.026
 2151SOL     OW 6910   1.039   2.960   4.420
 2151SOL    HW1 6911   0.969   2.913   4.474
 2151SOL    HW2 6912   1.098   2.892   4.377
 2152SOL     OW 6913   1.014   2.098   4.695
 2152SOL    HW1 6914   1.006   2.062   4.602
 2152SOL    HW2 6915   1.012   2.022   4.760
 2153SOL     OW 6916   0.590   3.349   4.215
 2153SOL    HW1 6917   0.632   3.291   4.145
 2153SOL    HW2 6918   0.546   3.428   4.171
 2154SOL     OW 6919   1.709   2.247   5.105
 2154SOL    HW1 6920   1.782   2.316   5.109
 2154SOL    HW2 6921   1.737   2.172   5.046
 2155SOL     OW 6922   0.255   3.210   4.014
 2155SOL    HW1 6923   0.159   3.211   3.987
 2155SOL    HW2 6924   0.267   3.263   4.098
 2156SOL     OW 6925   0.105   2.875   5.450
 2156SOL    HW1 6926   0.028   2.842   5.504
 2156SOL    HW2 6927   0.190   2.845   5.492
 2157SOL     OW 6928   0.672   2.065   5.213
 2157SOL    HW1 6929   0.762   2.049   5.173
 2157SOL    HW2 6930   0.680   2.070   5.312
 2158SOL     OW 6931   0.075   2.207   3.757
 2158SOL    HW1 6932  -0.017   2.179   3.728
 2158SOL    HW2 6933   0.106   2.284   3.701
 2159SOL     OW 6934   1.440   2.718   5.122
 2159SOL    HW1 6935   1.383   2.770   5.059
 2159SOL    HW2 6936   1.536   2.730   5.098
 2160SOL     OW 6937   0.072   2.028   4.042
 2160SOL    HW1 6938   0.055   2.111   3.988
 2160SOL    HW2 6939   0.162   1.991   4.020
 2161SOL     OW 6940   1.183   3.197   3.843
 2161SOL    HW1 6941   1.084   3.186   3.845
 2161SOL    HW2 6942   1.217   3.212   3.936
 2162SOL     OW 6943   0.613   2.704   5.155
 2162SOL    HW1 6944   0.669   2.785   5.138
 2162SOL    HW2 6945   0.672   2.624   5.158
 2163SOL     OW 6946   1.493   3.629   4.683
 2163SOL    HW1 6947   1.526   3.693   4.614
 2163SOL    HW2 6948   1.559   3.623   4.758
 2164SOL     OW 6949   0.716   2.427   5.432
 2164SOL    HW1 6950   0.735   2.492   5.506
 2164SOL    HW2 6951   0.776   2.347   5.441
 2165SOL     OW 6952   1.450   3.082   5.357
 2165SOL    HW1 6953   1.441   3.072   5.456
 2165SOL    HW2 6954   1.546   3.075   5.331
 2166SOL     OW 6955   0.390   3.603   5.284
 2166SOL    HW1 6956   0.299   3.644   5.282
 2166SOL    HW2 6957   0.383   3.509   5.316
 2167SOL     OW 6958   1.674   2.745   4.978
 2167SOL    HW1 6959   1.647   2.656   4.941
 2167SOL    HW2 6960   1.675   2.813   4.905
 2168SOL     OW 6961   1.225   2.187   4.173
 2168SOL    HW1 6962   1.290   2.113   4.162
 2168SOL    HW2 6963   1.245   2.237   4.257
 2169SOL     OW 6964   0.594   2.607   4.376
 2169SOL    HW1 6965   0.644   2.692   4.357
 2169SOL    HW2 6966   0.506   2.609   4.328
 2170SOL     OW 6967   1.777   2.204   5.366
 2170SOL    HW1 6968   1.760   2.235   5.272
 2170SOL    HW2 6969   1.693   2.167   5.404
 2171SOL     OW 6970   1.730   2.796   5.241
 2171SOL    HW1 6971   1.768   2.887   5.256
 2171SOL    HW2 6972   1.722   2.779   5.142
 2172SOL     OW 6973   0.859   3.236   3.740
 2172SOL    HW1 6974   0.813   3.251   3.828
 2172SOL    HW2 6975   0.903   3.321   3.710
 2173SOL     OW 6976   0.661   3.652   4.677
 2173SOL    HW1 6977   0.615   3.740   4.664
 2173SOL    HW2 6978   0.760   3.664   4.670
 2174SOL     OW 6979   0.859   2.818   4.585
 2174SOL    HW1 6980   0.913   2.749   4.633
 2174SOL    HW2 6981   0.827   2.887   4.651
 2175SOL     OW 6982   1.083   2.846   3.811
 2175SOL    HW1 6983   1.060   2.899   3.729
 2175SOL    HW2 6984   1.164   2.790   3.792
 2176SOL     OW 6985   1.861   3.431   4.575
 2176SOL    HW1 6986   1.790   3.419   4.505
 2176SOL    HW2 6987   1.862   3.352   4.635
 2177SOL     OW 6988   0.221   3.176   5.568
 2177SOL    HW1 6989   0.156   3.103   5.547
 2177SOL    HW2 6990   0.225   3.190   5.666
 2178SOL     OW 6991   0.079   3.102   4.377
 2178SOL    HW1 6992   0.078   3.055   4.465
 2178SOL    HW2 6993   0.161   3.074   4.326
 2179SOL     OW 6994   0.672   3.253   5.348
 2179SOL    HW1 6995   0.594   3.203   5.386
 2179SOL    HW2 6996   0.669   3.348   5.379
 2180SOL     OW 6997   0.428   2.286   4.244
 2180SOL    HW1 6998   0.458   2.214   4.182
 2180SOL    HW2 6999   0.389   2.246   4.327
 2181SOL     OW 7000   1.705   3.349   4.828
 2181SOL    HW1 7001   1.612   3.324   4.801
 2181SOL    HW2 7002   1.731   3.299   4.910
 2182SOL     OW 7003   0.317   2.409   5.004
 2182SOL    HW1 7004   0.355   2.350   5.076
 2182SOL    HW2 7005   0.357   2.383   4.916
 2183SOL     OW 7006   0.812   3.448   4.411
 2183SOL    HW1 7007   0.844   3.458   4.317
 2183SOL    HW2 7008   0.733   3.386   4.413
 2184SOL     OW 7009   1.424   2.076   4.836
 2184SOL    HW1 7010   1.476   2.011   4.891
 2184SOL    HW2 7011   1.375   2.139   4.897
 2185SOL     OW 7012   1.001   1.896   4.878
 2185SOL    HW1 7013   0.938   1.824   4.847
 2185SOL    HW2 7014   1.094   1.860   4.878
 2186SOL     OW 7015   0.770   3.192   4.025
 2186SOL    HW1 7016   0.724   3.105   4.042
 2186SOL    HW2 7017   0.861   3.189   4.066
 2187SOL     OW 7018   0.618   3.429   5.008
 2187SOL    HW1 7019   0.613   3.511   5.065
 2187SOL    HW2 7020   0.707   3.426   4.963
 2188SOL     OW 7021   1.352   1.914   3.892
 2188SOL    HW1 7022   1.387   1.873   3.808
 2188SOL    HW2 7023   1.262   1.876   3.912
 2189SOL     OW 7024   1.300   2.315   4.415
 2189SOL    HW1 7025   1.241   2.395   4.419
 2189SOL    HW2 7026   1.315   2.280   4.508
 2190SOL     OW 7027   1.593   2.083   4.606
 2190SOL    HW1 7028   1.509   2.082   4.660
 2190SOL    HW2 7029   1.595   2.166   4.550
 2191SOL     OW 7030   0.039   2.939   4.024
 2191SOL    HW1 7031   0.138   2.928   4.015
 2191SOL    HW2 7032  -0.001   2.853   4.056
 2192SOL     OW 7033   0.875   3.508   4.061
 2192SOL    HW1 7034   0.798   3.473   4.007
 2192SOL    HW2 7035   0.843   3.579   4.123
 2193SOL     OW 7036   0.230   2.490   5.699
 2193SOL    HW1 7037   0.137   2.488   5.736
 2193SOL    HW2 7038   0.231   2.451   5.607
 2194SOL     OW 7039   0.225   2.137   6.582
 2194SOL    HW1 7040   0.260   2.120   6.674
 2194SOL    HW2 7041   0.137   2.092   6.570
 2195SOL     OW 7042   0.019   2.230   6.233
 2195SOL    HW1 7043  -0.063   2.273   6.272
 2195SOL    HW2 7044  -0.009   2.157   6.170
 2196SOL     OW 7045   0.569   3.137   6.751
 2196SOL    HW1 7046   0.476   3.130   6.714
 2196SOL    HW2 7047   0.580   3.226   6.795
 2197SOL     OW 7048   1.555   3.373   6.289
 2197SOL    HW1 7049   1.498   3.357   6.370
 2197SOL    HW2 7050   1.496   3.383   6.209
 2198SOL     OW 7051   1.135   2.565   6.303
 2198SOL    HW1 7052   1.192   2.643   6.278
 2198SOL    HW2 7053   1.075   2.591   6.379
 2199SOL     OW 7054   1.755   2.469   5.817
 2199SOL    HW1 7055   1.743   2.456   5.718
 2199SOL    HW2 7056   1.725   2.388   5.866
 2200SOL     OW 7057   0.768   3.006   6.609
 2200SOL    HW1 7058   0.690   3.023   6.669
 2200SOL    HW2 7059   0.802   3.093   6.573
 2201SOL     OW 7060   0.850   2.660   7.409
 2201SOL    HW1 7061   0.846   2.736   7.474
 2201SOL    HW2 7062   0.872   2.696   7.318
 2202SOL     OW 7063   0.685   2.874   6.251
 2202SOL    HW1 7064   0.754   2.858   6.321
 2202SOL    HW2 7065   0.612   2.931   6.289
 2203SOL     OW 7066   0.686   3.023   7.389
 2203SOL    HW1 7067   0.746   3.102   7.403
 2203SOL    HW2 7068   0.600   3.054   7.348
 2204SOL     OW 7069   0.335   3.297   6.647
 2204SOL    HW1 7070   0.257   3.266   6.594
 2204SOL    HW2 7071   0.393   3.355   6.590
 2205SOL     OW 7072   1.460   3.367   6.925
 2205SOL    HW1 7073   1.484   3.461   6.951
 2205SOL    HW2 7074   1.444   3.313   7.007
 2206SOL     OW 7075   0.438   2.254   7.085
 2206SOL    HW1 7076   0.520   2.198   7.094
 2206SOL    HW2 7077   0.357   2.196   7.089
 2207SOL     OW 7078   0.231   3.575   6.069
 2207SOL    HW1 7079   0.265   3.652   6.123
 2207SOL    HW2 7080   0.275   3.575   5.979
 2208SOL     OW 7081   1.127   3.203   7.276
 2208SOL    HW1 7082   1.174   3.203   7.364
 2208SOL    HW2 7083   1.079   3.116   7.265
 2209SOL     OW 7084   0.230   3.296   6.124
 2209SOL    HW1 7085   0.204   3.392   6.124
 2209SOL    HW2 7086   0.159   3.242   6.169
 2210SOL     OW 7087   0.240   2.953   6.472
 2210SOL    HW1 7088   0.254   2.869   6.524
 2210SOL    HW2 7089   0.185   3.017   6.527
 2211SOL     OW 7090   0.620   3.648   7.025
 2211SOL    HW1 7091   0.528   3.631   7.060
 2211SOL    HW2 7092   0.648   3.740   7.051
 2212SOL     OW 7093   0.606   2.826   5.709
 2212SOL    HW1 7094   0.613   2.910   5.655
 2212SOL    HW2 7095   0.652   2.839   5.797
 2213SOL     OW 7096   1.594   1.976   7.066
 2213SOL    HW1 7097   1.576   2.043   6.994
 2213SOL    HW2 7098   1.591   2.022   7.155
 2214SOL     OW 7099   0.122   2.505   6.149
 2214SOL    HW1 7100   0.077   2.417   6.166
 2214SOL    HW2 7101   0.121   2.559   6.233
 2215SOL     OW 7102   1.842   3.629   5.945
 2215SOL    HW1 7103   1.896   3.600   6.025
 2215SOL    HW2 7104   1.872   3.719   5.916
 2216SOL     OW 7105   0.027   3.458   5.703
 2216SOL    HW1 7106   0.008   3.362   5.724
 2216SOL    HW2 7107  -0.006   3.516   5.778
 2217SOL     OW 7108   1.689   2.784   6.198
 2217SOL    HW1 7109   1.784   2.755   6.206
 2217SOL    HW2 7110   1.681   2.849   6.123
 2218SOL     OW 7111   1.641   2.970   6.018
 2218SOL    HW1 7112   1.727   2.972   5.966
 2218SOL    HW2 7113   1.655   3.017   6.106
 2219SOL     OW 7114   0.113   2.599   7.183
 2219SOL    HW1 7115   0.201   2.586   7.228
 2219SOL    HW2 7116   0.100   2.696   7.161
 2220SOL     OW 7117   0.613   3.227   6.312
 2220SOL    HW1 7118   0.564   3.140   6.321
 2220SOL    HW2 7119   0.590   3.270   6.225
 2221SOL     OW 7120   1.293   3.090   7.009
 2221SOL    HW1 7121   1.330   3.017   6.951
 2221SOL    HW2 7122   1.345   3.095   7.094
 2222SOL     OW 7123   0.809   1.866   6.088
 2222SOL    HW1 7124   0.849   1.957   6.079
 2222SOL    HW2 7125   0.709   1.874   6.094
 2223SOL     OW 7126   0.197   2.838   6.850
 2223SOL    HW1 7127   0.286   2.793   6.836
 2223SOL    HW2 7128   0.124   2.773   6.831
 2224SOL     OW 7129   1.525   2.861   5.776
 2224SOL    HW1 7130   1.462   2.785   5.789
 2224SOL    HW2 7131   1.573   2.879   5.862
 2225SOL     OW 7132   1.187   3.654   7.202
 2225SOL    HW1 7133   1.211   3.714   7.126
 2225SOL    HW2 7134   1.194   3.559   7.172
 2226SOL     OW 7135   0.317   2.113   7.387
 2226SOL    HW1 7136   0.388   2.184   7.393
 2226SOL    HW2 7137   0.229   2.152   7.415
 2227SOL     OW 7138   1.466   3.279   6.539
 2227SOL    HW1 7139   1.407   3.285   6.619
 2227SOL    HW2 7140   1.451   3.191   6.493
 2228SOL     OW 7141   1.667   3.576   6.158
 2228SOL    HW1 7142   1.626   3.553   6.070
 2228SOL    HW2 7143   1.649   3.502   6.223
 2229SOL     OW 7144   0.598   2.591   5.856
 2229SOL    HW1 7145   0.622   2.660   5.788
 2229SOL    HW2 7146   0.520   2.624   5.910
 2230SOL     OW 7147   1.576   3.524   5.893
 2230SOL    HW1 7148   1.665   3.570   5.896
 2230SOL    HW2 7149   1.555   3.500   5.798
 2231SOL     OW 7150   0.807   2.467   7.051
 2231SOL    HW1 7151   0.760   2.464   7.140
 2231SOL    HW2 7152   0.756   2.412   6.985
 2232SOL     OW 7153   0.973   2.752   7.158
 2232SOL    HW1 7154   1.019   2.668   7.129
 2232SOL    HW2 7155   0.917   2.786   7.083
 2233SOL     OW 7156   0.991   2.272   6.828
 2233SOL    HW1 7157   0.914   2.306   6.882
 2233SOL    HW2 7158   0.957   2.221   6.749
 2234SOL     OW 7159   1.041   2.563   6.015
 2234SOL    HW1 7160   1.067   2.559   6.111
 2234SOL    HW2 7161   0.956   2.512   6.001
 2235SOL     OW 7162   0.076   2.673   6.375
 2235SOL    HW1 7163   0.175   2.661   6.384
 2235SOL    HW2 7164   0.052   2.768   6.396
 2236SOL     OW 7165   0.130   3.683   7.157
 2236SOL    HW1 7166   0.120   3.668   7.256
 2236SOL    HW2 7167   0.044   3.719   7.121
 2237SOL     OW 7168   0.865   2.210   5.781
 2237SOL    HW1 7169   0.924   2.273   5.732
 2237SOL    HW2 7170   0.884   2.116   5.752
 2238SOL     OW 7171   1.362   3.006   6.131
 2238SOL    HW1 7172   1.445   2.977   6.083
 2238SOL    HW2 7173   1.313   3.073   6.075
 2239SOL     OW 7174   0.550   2.058   6.471
 2239SOL    HW1 7175   0.545   2.053   6.571
 2239SOL    HW2 7176   0.552   2.154   6.442
 2240SOL     OW 7177   1.008   3.318   6.063
 2240SOL    HW1 7178   0.962   3.390   6.011
 2240SOL    HW2 7179   1.004   3.338   6.161
 2241SOL     OW 7180   0.351   3.663   6.439
 2241SOL    HW1 7181   0.401   3.577   6.445
 2241SOL    HW2 7182   0.416   3.740   6.436
 2242SOL     OW 7183   1.795   2.928   6.459
 2242SOL    HW1 7184   1.733   2.913   6.383
 2242SOL    HW2 7185   1.743   2.939   6.544
 2243SOL     OW 7186   1.227   3.412   7.092
 2243SOL    HW1 7187   1.233   3.335   7.156
 2243SOL    HW2 7188   1.175   3.386   7.012
 2244SOL     OW 7189   0.321   2.805   5.828
 2244SOL    HW1 7190   0.403   2.844   5.786
 2244SOL    HW2 7191   0.294   2.723   5.779
 2245SOL     OW 7192   1.458   2.597   6.314
 2245SOL    HW1 7193   1.453   2.532   6.389
 2245SOL    HW2 7194   1.538   2.656   6.327
 2246SOL     OW 7195   0.461   3.128   7.313
 2246SOL    HW1 7196   0.411   3.129   7.227
 2246SOL    HW2 7197   0.398   3.110   7.389
 2247SOL     OW 7198   1.111   3.638   5.823
 2247SOL    HW1 7199   1.051   3.576   5.873
 2247SOL    HW2 7200   1.142   3.594   5.738
 2248SOL     OW 7201   0.202   2.147   7.084
 2248SOL    HW1 7202   0.122   2.207   7.071
 2248SOL    HW2 7203   0.192   2.098   7.170
 2249SOL     OW 7204   1.632   3.239   5.667
 2249SOL    HW1 7205   1.600   3.333   5.657
 2249SOL    HW2 7206   1.556   3.176   5.655
 2250SOL     OW 7207   0.464   3.605   5.909
 2250SOL    HW1 7208   0.497   3.644   5.995
 2250SOL    HW2 7209   0.540   3.598   5.844
 2251SOL     OW 7210   1.400   1.969   6.012
 2251SOL    HW1 7211   1.376   1.932   5.922
 2251SOL    HW2 7212   1.499   1.985   6.016
 2252SOL     OW 7213   0.249   3.647   6.827
 2252SOL    HW1 7214   0.306   3.582   6.877
 2252SOL    HW2 7215   0.233   3.614   6.734
 2253SOL     OW 7216   0.940   3.560   6.490
 2253SOL    HW1 7217   1.020   3.503   6.511
 2253SOL    HW2 7218   0.891   3.520   6.413
 2254SOL     OW 7219   0.382   2.562   6.066
 2254SOL    HW1 7220   0.427   2.472   6.063
 2254SOL    HW2 7221   0.288   2.551   6.099
 2255SOL     OW 7222   0.614   1.984   5.703
 2255SOL    HW1 7223   0.712   1.962   5.710
 2255SOL    HW2 7224   0.583   1.967   5.610
 2256SOL     OW 7225   0.781   2.126   7.335
 2256SOL    HW1 7226   0.848   2.065   7.378
 2256SOL    HW2 7227   0.708   2.145   7.400
 2257SOL     OW 7228   0.888   3.376   6.781
 2257SOL    HW1 7229   0.865   3.351   6.687
 2257SOL    HW2 7230   0.949   3.307   6.820
 2258SOL     OW 7231   1.351   2.452   7.019
 2258SOL    HW1 7232   1.379   2.409   7.104
 2258SOL    HW2 7233   1.376   2.548   7.020
 2259SOL     OW 7234   0.803   3.264   6.510
 2259SOL    HW1 7235   0.893   3.278   6.468
 2259SOL    HW2 7236   0.732   3.266   6.439
 2260SOL     OW 7237   0.922   2.365   6.485
 2260SOL    HW1 7238   0.897   2.356   6.389
 2260SOL    HW2 7239   0.970   2.283   6.516
 2261SOL     OW 7240   0.539   1.926   6.098
 2261SOL    HW1 7241   0.458   1.927   6.156
 2261SOL    HW2 7242   0.542   2.009   6.043
 2262SOL     OW 7243   1.434   3.050   5.627
 2262SOL    HW1 7244   1.466   2.974   5.684
 2262SOL    HW2 7245   1.342   3.077   5.657
 2263SOL     OW 7246   0.297   1.897   5.757
 2263SOL    HW1 7247   0.346   1.981   5.736
 2263SOL    HW2 7248   0.359   1.832   5.802
 2264SOL     OW 7249   0.935   2.098   6.066
 2264SOL    HW1 7250   0.887   2.139   5.988
 2264SOL    HW2 7251   1.034   2.096   6.047
 2265SOL     OW 7252   1.076   2.545   7.050
 2265SOL    HW1 7253   0.996   2.484   7.053
 2265SOL    HW2 7254   1.157   2.492   7.026
 2266SOL     OW 7255   1.227   3.432   6.379
 2266SOL    HW1 7256   1.248   3.506   6.314
 2266SOL    HW2 7257   1.295   3.432   6.452
 2267SOL     OW 7258   0.459   3.014   6.327
 2267SOL    HW1 7259   0.388   2.987   6.392
 2267SOL    HW2 7260   0.433   2.986   6.234
 2268SOL     OW 7261   1.271   3.659   6.177
 2268SOL    HW1 7262   1.315   3.723   6.113
 2268SOL    HW2 7263   1.221   3.711   6.247
 2269SOL     OW 7264   1.032   2.411   5.602
 2269SOL    HW1 7265   0.991   2.493   5.563
 2269SOL    HW2 7266   1.096   2.437   5.675
 2270SOL     OW 7267   0.078   2.418   6.972
 2270SOL    HW1 7268   0.170   2.417   6.931
 2270SOL    HW2 7269   0.072   2.492   7.039
 2271SOL     OW 7270   0.561   2.084   6.733
 2271SOL    HW1 7271   0.599   2.000   6.770
 2271SOL    HW2 7272   0.473   2.103   6.777
 2272SOL     OW 7273   0.866   2.316   6.228
 2272SOL    HW1 7274   0.834   2.388   6.166
 2272SOL    HW2 7275   0.890   2.235   6.175
 2273SOL     OW 7276   1.017   1.901   6.339
 2273SOL    HW1 7277   0.945   1.906   6.270
 2273SOL    HW2 7278   0.993   1.832   6.408
 2274SOL     OW 7279   1.429   3.035   6.453
 2274SOL    HW1 7280   1.374   2.951   6.446
 2274SOL    HW2 7281   1.455   3.064   6.361
 2275SOL     OW 7282   1.857   2.695   5.963
 2275SOL    HW1 7283   1.899   2.631   6.027
 2275SOL    HW2 7284   1.819   2.644   5.885
 2276SOL     OW 7285   0.488   3.247   5.760
 2276SOL    HW1 7286   0.401   3.232   5.807
 2276SOL    HW2 7287   0.471   3.273   5.665
 2277SOL     OW 7288   1.664   3.142   6.243
 2277SOL    HW1 7289   1.763   3.150   6.257
 2277SOL    HW2 7290   1.619   3.226   6.274
 2278SOL     OW 7291   1.390   2.437   5.664
 2278SOL    HW1 7292   1.336   2.416   5.745
 2278SOL    HW2 7293   1.481   2.396   5.673
 2279SOL     OW 7294   0.527   2.118   5.914
 2279SOL    HW1 7295   0.554   2.059   5.839
 2279SOL    HW2 7296   0.527   2.213   5.883
 2280SOL     OW 7297   1.754   3.085   7.174
 2280SOL    HW1 7298   1.845   3.046   7.161
 2280SOL    HW2 7299   1.762   3.181   7.198
 2281SOL     OW 7300   1.064   3.209   6.926
 2281SOL    HW1 7301   0.984   3.186   6.981
 2281SOL    HW2 7302   1.147   3.183   6.975
 2282SOL     OW 7303   1.592   3.491   7.211
 2282SOL    HW1 7304   1.619   3.525   7.121
 2282SOL    HW2 7305   1.671   3.453   7.257
 2283SOL     OW 7306   1.111   3.057   6.686
 2283SOL    HW1 7307   1.071   3.101   6.767
 2283SOL    HW2 7308   1.070   3.094   6.603
 2284SOL     OW 7309   1.638   2.961   6.665
 2284SOL    HW1 7310   1.643   3.042   6.724
 2284SOL    HW2 7311   1.552   2.963   6.614
 2285SOL     OW 7312   0.915   1.951   6.988
 2285SOL    HW1 7313   0.940   1.931   6.893
 2285SOL    HW2 7314   0.987   2.007   7.030
 2286SOL     OW 7315   0.980   2.978   7.305
 2286SOL    HW1 7316   0.881   2.984   7.315
 2286SOL    HW2 7317   1.003   2.898   7.249
 2287SOL     OW 7318   0.705   2.912   5.954
 2287SOL    HW1 7319   0.691   2.919   6.053
 2287SOL    HW2 7320   0.789   2.861   5.936
 2288SOL     OW 7321   0.410   2.675   6.837
 2288SOL    HW1 7322   0.496   2.687   6.887
 2288SOL    HW2 7323   0.368   2.588   6.864
 2289SOL     OW 7324   1.274   2.248   6.848
 2289SOL    HW1 7325   1.295   2.322   6.912
 2289SOL    HW2 7326   1.185   2.265   6.805
 2290SOL     OW 7327   0.064   3.426   6.917
 2290SOL    HW1 7328   0.018   3.508   6.883
 2290SOL    HW2 7329   0.162   3.445   6.926
 2291SOL     OW 7330   0.367   2.962   6.087
 2291SOL    HW1 7331   0.360   3.045   6.031
 2291SOL    HW2 7332   0.371   2.882   6.027
 2292SOL     OW 7333   0.566   2.399   6.451
 2292SOL    HW1 7334   0.578   2.465   6.377
 2292SOL    HW2 7335   0.612   2.433   6.534
 2293SOL     OW 7336   1.252   3.210   5.974
 2293SOL    HW1 7337   1.302   3.287   6.014
 2293SOL    HW2 7338   1.157   3.212   6.006
 2294SOL     OW 7339   1.272   3.307   6.728
 2294SOL    HW1 7340   1.319   3.320   6.815
 2294SOL    HW2 7341   1.206   3.233   6.737
 2295SOL     OW 7342   1.582   2.501   6.058
 2295SOL    HW1 7343   1.551   2.562   6.131
 2295SOL    HW2 7344   1.632   2.553   5.989
 2296SOL     OW 7345   0.354   3.372   6.915
 2296SOL    HW1 7346   0.333   3.328   6.828
 2296SOL    HW2 7347   0.451   3.398   6.918
 2297SOL     OW 7348   0.402   2.613   7.184
 2297SOL    HW1 7349   0.470   2.668   7.137
 2297SOL    HW2 7350   0.442   2.525   7.211
 2298SOL     OW 7351   1.587   2.641   7.256
 2298SOL    HW1 7352   1.495   2.679   7.251
 2298SOL    HW2 7353   1.647   2.688   7.191
 2299SOL     OW 7354   1.013   1.967   7.356
 2299SOL    HW1 7355   1.019   2.052   7.304
 2299SOL    HW2 7356   1.045   1.891   7.299
 2300SOL     OW 7357   0.504   1.912   7.326
 2300SOL    HW1 7358   0.462   1.855   7.256
 2300SOL    HW2 7359   0.438   1.981   7.358
 2301SOL     OW 7360   0.573   2.732   6.615
 2301SOL    HW1 7361   0.617   2.821   6.606
 2301SOL    HW2 7362   0.510   2.732   6.692
 2302SOL     OW 7363   1.360   2.724   6.631
 2302SOL    HW1 7364   1.285   2.724   6.565
 2302SOL    HW2 7365   1.397   2.632   6.640
 2303SOL     OW 7366   1.209   2.387   5.861
 2303SOL    HW1 7367   1.222   2.303   5.915
 2303SOL    HW2 7368   1.180   2.461   5.921
 2304SOL     OW 7369   0.307   2.075   6.817
 2304SOL    HW1 7370   0.284   2.112   6.907
 2304SOL    HW2 7371   0.277   1.980   6.811
 2305SOL     OW 7372   0.037   3.172   6.868
 2305SOL    HW1 7373   0.090   3.123   6.936
 2305SOL    HW2 7374   0.059   3.270   6.873
 2306SOL     OW 7375   0.732   2.496   6.650
 2306SOL    HW1 7376   0.791   2.470   6.574
 2306SOL    HW2 7377   0.704   2.592   6.639
 2307SOL     OW 7378   1.728   2.797   7.440
 2307SOL    HW1 7379   1.682   2.790   7.351
 2307SOL    HW2 7380   1.666   2.841   7.506
 2308SOL     OW 7381   0.307   1.925   6.204
 2308SOL    HW1 7382   0.296   2.019   6.237
 2308SOL    HW2 7383   0.302   1.862   6.281
 2309SOL     OW 7384   1.622   2.229   5.960
 2309SOL    HW1 7385   1.624   2.153   6.024
 2309SOL    HW2 7386   1.574   2.306   6.000
 2310SOL     OW 7387   1.023   2.628   6.552
 2310SOL    HW1 7388   1.038   2.649   6.648
 2310SOL    HW2 7389   0.993   2.533   6.543
 2311SOL     OW 7390   0.980   3.435   7.286
 2311SOL    HW1 7391   0.960   3.479   7.198
 2311SOL    HW2 7392   1.019   3.344   7.270
 2312SOL     OW 7393   1.859   3.380   7.191
 2312SOL    HW1 7394   1.873   3.407   7.096
 2312SOL    HW2 7395   1.942   3.402   7.244
 2313SOL     OW 7396   0.350   2.760   7.390
 2313SOL    HW1 7397   0.426   2.804   7.438
 2313SOL    HW2 7398   0.385   2.713   7.308
 2314SOL     OW 7399   1.540   2.136   5.711
 2314SOL    HW1 7400   1.479   2.061   5.734
 2314SOL    HW2 7401   1.562   2.188   5.794
 2315SOL     OW 7402   1.303   2.700   5.628
 2315SOL    HW1 7403   1.337   2.607   5.643
 2315SOL    HW2 7404   1.321   2.727   5.533
 2316SOL     OW 7405   1.068   3.195   6.435
 2316SOL    HW1 7406   1.075   3.111   6.380
 2316SOL    HW2 7407   1.130   3.264   6.399
 2317SOL     OW 7408   0.319   2.672   6.535
 2317SOL    HW1 7409   0.412   2.708   6.540
 2317SOL    HW2 7410   0.313   2.587   6.587
 2318SOL     OW 7411   0.339   2.371   6.592
 2318SOL    HW1 7412   0.287   2.288   6.575
 2318SOL    HW2 7413   0.416   2.376   6.528
 2319SOL     OW 7414   1.138   2.242   7.264
 2319SOL    HW1 7415   1.093   2.305   7.328
 2319SOL    HW2 7416   1.231   2.273   7.247
 2320SOL     OW 7417   1.160   2.069   7.063
 2320SOL    HW1 7418   1.160   2.133   7.140
 2320SOL    HW2 7419   1.188   2.117   6.980
 2321SOL     OW 7420   0.008   3.188   5.786
 2321SOL    HW1 7421  -0.085   3.209   5.755
 2321SOL    HW2 7422   0.018   3.089   5.799
 2322SOL     OW 7423   0.088   3.663   6.513
 2322SOL    HW1 7424   0.046   3.577   6.486
 2322SOL    HW2 7425   0.182   3.666   6.479
 2323SOL     OW 7426   0.504   3.430   6.496
 2323SOL    HW1 7427   0.570   3.504   6.505
 2323SOL    HW2 7428   0.548   3.351   6.454
 2324SOL     OW 7429   1.002   2.658   6.824
 2324SOL    HW1 7430   1.043   2.626   6.910
 2324SOL    HW2 7431   0.906   2.631   6.821
 2325SOL     OW 7432   0.040   2.406   6.700
 2325SOL    HW1 7433   0.125   2.373   6.659
 2325SOL    HW2 7434   0.053   2.421   6.798
 2326SOL     OW 7435   0.189   2.382   7.308
 2326SOL    HW1 7436   0.248   2.342   7.238
 2326SOL    HW2 7437   0.131   2.453   7.267
 2327SOL     OW 7438   1.369   2.812   7.246
 2327SOL    HW1 7439   1.408   2.901   7.266
 2327SOL    HW2 7440   1.379   2.792   7.149
 2328SOL     OW 7441   0.815   2.434   5.911
 2328SOL    HW1 7442   0.822   2.345   5.865
 2328SOL    HW2 7443   0.721   2.468   5.903
 2329SOL     OW 7444   1.657   2.466   6.792
 2329SOL    HW1 7445   1.619   2.397   6.854
 2329SOL    HW2 7446   1.739   2.430   6.748
 2330SOL     OW 7447   0.252   3.426   7.330
 2330SOL    HW1 7448   0.222   3.483   7.406
 2330SOL    HW2 7449   0.245   3.329   7.356
 2331SOL     OW 7450   0.671   2.326   6.855
 2331SOL    HW1 7451   0.637   2.237   6.825
 2331SOL    HW2 7452   0.697   2.380   6.775
 2332SOL     OW 7453   0.930   3.540   7.051
 2332SOL    HW1 7454   0.906   3.522   6.956
 2332SOL    HW2 7455   0.960   3.634   7.061
 2333SOL     OW 7456   0.473   2.362   5.777
 2333SOL    HW1 7457   0.534   2.442   5.781
 2333SOL    HW2 7458   0.378   2.393   5.784
 2334SOL     OW 7459   0.159   2.999   7.052
 2334SOL    HW1 7460   0.181   2.938   7.128
 2334SOL    HW2 7461   0.169   2.950   6.966
 2335SOL     OW 7462   1.347   2.921   6.820
 2335SOL    HW1 7463   1.371   2.858   6.746
 2335SOL    HW2 7464   1.257   2.961   6.802
 2336SOL     OW 7465   1.302   2.717   5.895
 2336SOL    HW1 7466   1.216   2.686   5.937
 2336SOL    HW2 7467   1.298   2.703   5.796
 2337SOL     OW 7468   1.759   3.609   6.740
 2337SOL    HW1 7469   1.820   3.639   6.667
 2337SOL    HW2 7470   1.721   3.520   6.718
 2338SOL     OW 7471   1.252   3.593   6.714
 2338SOL    HW1 7472   1.336   3.598   6.660
 2338SOL    HW2 7473   1.229   3.497   6.732
 2339SOL     OW 7474   0.083   3.120   6.608
 2339SOL    HW1 7475   0.078   3.119   6.708
 2339SOL    HW2 7476   0.000   3.079   6.570
 2340SOL     OW 7477   0.688   3.524   7.302
 2340SOL    HW1 7478   0.632   3.605   7.311
 2340SOL    HW2 7479   0.740   3.528   7.216
 2341SOL     OW 7480   1.726   1.997   6.109
 2341SOL    HW1 7481   1.799   1.980   6.042
 2341SOL    HW2 7482   1.695   1.910   6.147
 2342SOL     OW 7483   1.388   3.435   6.063
 2342SOL    HW1 7484   1.455   3.447   5.989
 2342SOL    HW2 7485   1.348   3.524   6.086
 2343SOL     OW 7486   0.130   3.656   7.437
 2343SOL    HW1 7487   0.089   3.582   7.490
 2343SOL    HW2 7488   0.194   3.707   7.495
 2344SOL     OW 7489   1.280   2.789   6.258
 2344SOL    HW1 7490   1.340   2.708   6.260
 2344SOL    HW2 7491   1.320   2.858   6.198
 2345SOL     OW 7492   0.830   3.135   7.008
 2345SOL    HW1 7493   0.825   3.168   7.103
 2345SOL    HW2 7494   0.744   3.154   6.962
 2346SOL     OW 7495   0.672   3.478   5.740
 2346SOL    HW1 7496   0.681   3.488   5.641
 2346SOL    HW2 7497   0.632   3.389   5.761
 2347SOL     OW 7498   1.650   3.582   6.980
 2347SOL    HW1 7499   1.703   3.592   6.896
 2347SOL    HW2 7500   1.623   3.672   7.014
 2348SOL     OW 7501   0.263   2.188   6.306
 2348SOL    HW1 7502   0.184   2.239   6.272
 2348SOL    HW2 7503   0.254   2.173   6.404
 2349SOL     OW 7504   1.194   3.474   5.617
 2349SOL    HW1 7505   1.200   3.381   5.654
 2349SOL    HW2 7506   1.135   3.474   5.537
 2350SOL     OW 7507   0.822   2.864   6.958
 2350SOL    HW1 7508   0.862   2.863   6.866
 2350SOL    HW2 7509   0.832   2.956   6.998
 2351SOL     OW 7510   0.916   2.772   5.877
 2351SOL    HW1 7511   0.979   2.810   5.809
 2351SOL    HW2 7512   0.956   2.689   5.916
 2352SOL     OW 7513   1.504   3.469   5.630
 2352SOL    HW1 7514   1.412   3.506   5.637
 2352SOL    HW2 7515   1.542   3.489   5.540
 2353SOL     OW 7516   0.372   3.150   7.076
 2353SOL    HW1 7517   0.359   3.243   7.042
 2353SOL    HW2 7518   0.288   3.098   7.063
 2354SOL     OW 7519   1.614   3.154   6.875
 2354SOL    HW1 7520   1.674   3.157   6.955
 2354SOL    HW2 7521   1.539   3.218   6.888
 2355SOL     OW 7522   1.039   2.960   6.282
 2355SOL    HW1 7523   0.969   2.913   6.336
 2355SOL    HW2 7524   1.098   2.892   6.239
 2356SOL     OW 7525   1.014   2.098   6.557
 2356SOL    HW1 7526   1.006   2.062   6.464
 2356SOL    HW2 7527   1.012   2.022   6.622
 2357SOL     OW 7528   0.590   3.349   6.077
 2357SOL    HW1 7529   0.632   3.291   6.007
 2357SOL    HW2 7530   0.546   3.428   6.033
 2358SOL     OW 7531   1.709   2.247   6.967
 2358SOL    HW1 7532   1.782   2.316   6.971
 2358SOL    HW2 7533   1.737   2.172   6.908
 2359SOL     OW 7534   0.255   3.210   5.876
 2359SOL    HW1 7535   0.159   3.211   5.849
 2359SOL    HW2 7536   0.267   3.263   5.960
 2360SOL     OW 7537   0.105   2.875   7.312
 2360SOL    HW1 7538   0.028   2.842   7.366
 2360SOL    HW2 7539   0.190   2.845   7.354
 2361SOL     OW 7540   0.672   2.065   7.075
 2361SOL    HW1 7541   0.762   2.049   7.035
 2361SOL    HW2 7542   0.680   2.070   7.174
 2362SOL     OW 7543   0.075   2.207   5.619
 2362SOL    HW1 7544  -0.017   2.179   5.590
 2362SOL    HW2 7545   0.106   2.284   5.563
 2363SOL     OW 7546   1.440   2.718   6.984
 2363SOL    HW1 7547   1.383   2.770   6.921
 2363SOL    HW2 7548   1.536   2.730   6.960
 2364SOL     OW 7549   0.072   2.028   5.904
 2364SOL    HW1 7550   0.055   2.111   5.850
 2364SOL    HW2 7551   0.162   1.991   5.882
 2365SOL     OW 7552   1.183   3.197   5.705
 2365SOL    HW1 7553   1.084   3.186   5.707
 2365SOL    HW2 7554   1.217   3.212   5.798
 2366SOL     OW 7555   0.613   2.704   7.017
 2366SOL    HW1 7556   0.669   2.785   7.000
 2366SOL    HW2 7557   0.672   2.624   7.020
 2367SOL     OW 7558   1.493   3.629   6.545
 2367SOL    HW1 7559   1.526   3.693   6.476
 2367SOL    HW2 7560   1.559   3.623   6.620
 2368SOL     OW 7561   0.716   2.427   7.294
 2368SOL    HW1 7562   0.735   2.492   7.368
 2368SOL    HW2 7563   0.776   2.347   7.303
 2369SOL     OW 7564   1.450   3.082   7.219
 2369SOL    HW1 7565   1.441   3.072   7.318
 2369SOL    HW2 7566   1.546   3.075   7.193
 2370SOL     OW 7567   0.390   3.603   7.146
 2370SOL    HW1 7568   0.299   3.644   7.144
 2370SOL    HW2 7569   0.383   3.509   7.178
 2371SOL     OW 7570   1.674   2.745   6.840
 2371SOL    HW1 7571   1.647   2.656   6.803
 2371SOL    HW2 7572   1.675   2.813   6.767
 2372SOL     OW 7573   1.225   2.187   6.035
 2372SOL    HW1 7574   1.290   2.113   6.024
 2372SOL    HW2 7575   1.245   2.237   6.119
 2373SOL     OW 7576   0.594   2.607   6.238
 2373SOL    HW1 7577   0.644   2.692   6.219
 2373SOL    HW2 7578   0.506   2.609   6.190
 2374SOL     OW 7579   1.730   2.796   7.103
 2374SOL    HW1 7580   1.768   2.887   7.118
 2374SOL    HW2 7581   1.722   2.779   7.004
 2375SOL     OW 7582   0.859   3.236   5.602
 2375SOL    HW1 7583   0.813   3.251   5.690
 2375SOL    HW2 7584   0.903   3.321   5.572
 2376SOL     OW 7585   0.661   3.652   6.539
 2376SOL    HW1 7586   0.615   3.740   6.526
 2376SOL    HW2 7587   0.760   3.664   6.532
 2377SOL     OW 7588   0.859   2.818   6.447
 2377SOL    HW1 7589   0.913   2.749   6.495
 2377SOL    HW2 7590   0.827   2.887   6.513
 2378SOL     OW 7591   1.083   2.846   5.673
 2378SOL    HW1 7592   1.060   2.899   5.591
 2378SOL    HW2 7593   1.164   2.790   5.654
 2379SOL     OW 7594   1.861   3.431   6.437
 2379SOL    HW1 7595   1.790   3.419   6.367
 2379SOL    HW2 7596   1.862   3.352   6.497
 2380SOL     OW 7597   0.221   3.176   7.430
 2380SOL    HW1 7598   0.156   3.103   7.409
 2380SOL    HW2 7599   0.225   3.190   7.528
 2381SOL     OW 7600   0.079   3.102   6.239
 2381SOL    HW1 7601   0.078   3.055   6.327
 2381SOL    HW2 7602   0.161   3.074   6.188
 2382SOL     OW 7603   0.672   3.253   7.210
 2382SOL    HW1 7604   0.594   3.203   7.248
 2382SOL    HW2 7605   0.669   3.348   7.241
 2383SOL     OW 7606   0.428   2.286   6.106
 2383SOL    HW1 7607   0.458   2.214   6.044
 2383SOL    HW2 7608   0.389   2.246   6.189
 2384SOL     OW 7609   1.705   3.349   6.690
 2384SOL    HW1 7610   1.612   3.324   6.663
 2384SOL    HW2 7611   1.731   3.299   6.772
 2385SOL     OW 7612   0.317   2.409   6.866
 2385SOL    HW1 7613   0.355   2.350   6.938
 2385SOL    HW2 7614   0.357   2.383   6.778
 2386SOL     OW 7615   0.812   3.448   6.273
 2386SOL    HW1 7616   0.844   3.458   6.179
 2386SOL    HW2 7617   0.733   3.386   6.275
 2387SOL     OW 7618   1.001   1.896   6.740
 2387SOL    HW1 7619   0.938   1.824   6.709
 2387SOL    HW2 7620   1.094   1.860   6.740
 2388SOL     OW 7621   0.770   3.192   5.887
 2388SOL    HW1 7622   0.724   3.105   5.904
 2388SOL    HW2 7623   0.861   3.189   5.928
 2389SOL     OW 7624   0.618   3.429   6.870
 2389SOL    HW1 7625   0.613   3.511   6.927
 2389SOL    HW2 7626   0.707   3.426   6.825
 2390SOL     OW 7627   1.352   1.914   5.754
 2390SOL    HW1 7628   1.387   1.873   5.670
 2390SOL    HW2 7629   1.262   1.876   5.774
 2391SOL     OW 7630   1.300   2.315   6.277
 2391SOL    HW1 7631   1.241   2.395   6.281
 2391SOL    HW2 7632   1.315   2.280   6.370
 2392SOL     OW 7633   0.039   2.939   5.886
 2392SOL    HW1 7634   0.138   2.928   5.877
 2392SOL    HW2 7635  -0.001   2.853   5.918
 2393SOL     OW 7636   0.875   3.508   5.923
 2393SOL    HW1 7637   0.798   3.473   5.869
 2393SOL    HW2 7638   0.843   3.579   5.985
 2394SOL     OW 7639   0.230   2.490   7.561
 2394SOL    HW1 7640   0.137   2.488   7.598
 2394SOL    HW2 7641   0.231   2.451   7.469
 2395SOL     OW 7642   0.225   2.137   8.444
 2395SOL    HW1 7643   0.260   2.120   8.536
 2395SOL    HW2 7644   0.137   2.092   8.432
 2396SOL     OW 7645   0.019   2.230   8.095
 2396SOL    HW1 7646  -0.063   2.273   8.134
 2396SOL    HW2 7647  -0.009   2.157   8.032
 2397SOL     OW 7648   0.569   3.137   8.613
 2397SOL    HW1 7649   0.476   3.130   8.576
 2397SOL    HW2 7650   0.580   3.226   8.657
 2398SOL     OW 7651   1.555   3.373   8.151
 2398SOL    HW1 7652   1.498   3.357   8.232
 2398SOL    HW2 7653   1.496   3.383   8.071
 2399SOL     OW 7654   1.135   2.565   8.165
 2399SOL    HW1 7655   1.192   2.643   8.140
 2399SOL    HW2 7656   1.075   2.591   8.241
 2400SOL     OW 7657   0.768   3.006   8.471
 2400SOL    HW1 7658   0.690   3.023   8.531
 2400SOL    HW2 7659   0.802   3.093   8.435
 2401SOL     OW 7660   0.850   2.660   9.271
 2401SOL    HW1 7661   0.846   2.736   9.336
 2401SOL    HW2 7662   0.872   2.696   9.180
 2402SOL     OW 7663   0.685   2.874   8.113
 2402SOL    HW1 7664   0.754   2.858   8.183
 2402SOL    HW2 7665   0.612   2.931   8.151
 2403SOL     OW 7666   0.686   3.023   9.251
 2403SOL    HW1 7667   0.746   3.102   9.265
 2403SOL    HW2 7668   0.600   3.054   9.210
 2404SOL     OW 7669   0.335   3.297   8.509
 2404SOL    HW1 7670   0.257   3.266   8.456
 2404SOL    HW2 7671   0.393   3.355   8.452
 2405SOL     OW 7672   1.460   3.367   8.787
 2405SOL    HW1 7673   1.484   3.461   8.813
 2405SOL    HW2 7674   1.444   3.313   8.869
 2406SOL     OW 7675   0.438   2.254   8.947
 2406SOL    HW1 7676   0.520   2.198   8.956
 2406SOL    HW2 7677   0.357   2.196   8.951
 2407SOL     OW 7678   1.603   2.309   8.185
 2407SOL    HW1 7679   1.529   2.355   8.135
 2407SOL    HW2 7680   1.654   2.377   8.238
 2408SOL     OW 7681   0.231   3.575   7.931
 2408SOL    HW1 7682   0.265   3.652   7.985
 2408SOL    HW2 7683   0.275   3.575   7.841
 2409SOL     OW 7684   1.127   3.203   9.138
 2409SOL    HW1 7685   1.174   3.203   9.226
 2409SOL    HW2 7686   1.079   3.116   9.127
 2410SOL     OW 7687   0.230   3.296   7.986
 2410SOL    HW1 7688   0.204   3.392   7.986
 2410SOL    HW2 7689   0.159   3.242   8.031
 2411SOL     OW 7690   0.240   2.953   8.334
 2411SOL    HW1 7691   0.254   2.869   8.386
 2411SOL    HW2 7692   0.185   3.017   8.389
 2412SOL     OW 7693   0.620   3.648   8.887
 2412SOL    HW1 7694   0.528   3.631   8.922
 2412SOL    HW2 7695   0.648   3.740   8.913
 2413SOL     OW 7696   0.606   2.826   7.571
 2413SOL    HW1 7697   0.613   2.910   7.517
 2413SOL    HW2 7698   0.652   2.839   7.659
 2414SOL     OW 7699   1.594   1.976   8.928
 2414SOL    HW1 7700   1.576   2.043   8.856
 2414SOL    HW2 7701   1.591   2.022   9.017
 2415SOL     OW 7702   0.122   2.505   8.011
 2415SOL    HW1 7703   0.077   2.417   8.028
 2415SOL    HW2 7704   0.121   2.559   8.095
 2416SOL     OW 7705   1.842   3.629   7.807
 2416SOL    HW1 7706   1.896   3.600   7.887
 2416SOL    HW2 7707   1.872   3.719   7.778
 2417SOL     OW 7708   0.027   3.458   7.565
 2417SOL    HW1 7709   0.008   3.362   7.586
 2417SOL    HW2 7710  -0.006   3.516   7.640
 2418SOL     OW 7711   1.689   2.784   8.060
 2418SOL    HW1 7712   1.784   2.755   8.068
 2418SOL    HW2 7713   1.681   2.849   7.985
 2419SOL     OW 7714   1.641   2.970   7.880
 2419SOL    HW1 7715   1.727   2.972   7.828
 2419SOL    HW2 7716   1.655   3.017   7.968
 2420SOL     OW 7717   0.113   2.599   9.045
 2420SOL    HW1 7718   0.201   2.586   9.090
 2420SOL    HW2 7719   0.100   2.696   9.023
 2421SOL     OW 7720   0.613   3.227   8.174
 2421SOL    HW1 7721   0.564   3.140   8.183
 2421SOL    HW2 7722   0.590   3.270   8.087
 2422SOL     OW 7723   1.293   3.090   8.871
 2422SOL    HW1 7724   1.330   3.017   8.813
 2422SOL    HW2 7725   1.345   3.095   8.956
 2423SOL     OW 7726   0.809   1.866   7.950
 2423SOL    HW1 7727   0.849   1.957   7.941
 2423SOL    HW2 7728   0.709   1.874   7.956
 2424SOL     OW 7729   0.197   2.838   8.712
 2424SOL    HW1 7730   0.286   2.793   8.698
 2424SOL    HW2 7731   0.124   2.773   8.693
 2425SOL     OW 7732   1.525   2.861   7.638
 2425SOL    HW1 7733   1.462   2.785   7.651
 2425SOL    HW2 7734   1.573   2.879   7.724
 2426SOL     OW 7735   1.187   3.654   9.064
 2426SOL    HW1 7736   1.211   3.714   8.988
 2426SOL    HW2 7737   1.194   3.559   9.034
 2427SOL     OW 7738   0.317   2.113   9.249
 2427SOL    HW1 7739   0.388   2.184   9.255
 2427SOL    HW2 7740   0.229   2.152   9.277
 2428SOL     OW 7741   1.466   3.279   8.401
 2428SOL    HW1 7742   1.407   3.285   8.481
 2428SOL    HW2 7743   1.451   3.191   8.355
 2429SOL     OW 7744   1.667   3.576   8.020
 2429SOL    HW1 7745   1.626   3.553   7.932
 2429SOL    HW2 7746   1.649   3.502   8.085
 2430SOL     OW 7747   0.598   2.591   7.718
 2430SOL    HW1 7748   0.622   2.660   7.650
 2430SOL    HW2 7749   0.520   2.624   7.772
 2431SOL     OW 7750   1.281   2.207   8.392
 2431SOL    HW1 7751   1.195   2.157   8.379
 2431SOL    HW2 7752   1.343   2.153   8.448
 2432SOL     OW 7753   1.576   3.524   7.755
 2432SOL    HW1 7754   1.665   3.570   7.758
 2432SOL    HW2 7755   1.555   3.500   7.660
 2433SOL     OW 7756   0.807   2.467   8.913
 2433SOL    HW1 7757   0.760   2.464   9.002
 2433SOL    HW2 7758   0.756   2.412   8.847
 2434SOL     OW 7759   1.394   2.331   9.122
 2434SOL    HW1 7760   1.374   2.374   9.210
 2434SOL    HW2 7761   1.472   2.269   9.131
 2435SOL     OW 7762   0.973   2.752   9.020
 2435SOL    HW1 7763   1.019   2.668   8.991
 2435SOL    HW2 7764   0.917   2.786   8.945
 2436SOL     OW 7765   0.991   2.272   8.690
 2436SOL    HW1 7766   0.914   2.306   8.744
 2436SOL    HW2 7767   0.957   2.221   8.611
 2437SOL     OW 7768   1.041   2.563   7.877
 2437SOL    HW1 7769   1.067   2.559   7.973
 2437SOL    HW2 7770   0.956   2.512   7.863
 2438SOL     OW 7771   0.076   2.673   8.237
 2438SOL    HW1 7772   0.175   2.661   8.246
 2438SOL    HW2 7773   0.052   2.768   8.258
 2439SOL     OW 7774   0.130   3.683   9.019
 2439SOL    HW1 7775   0.120   3.668   9.118
 2439SOL    HW2 7776   0.044   3.719   8.983
 2440SOL     OW 7777   0.865   2.210   7.643
 2440SOL    HW1 7778   0.924   2.273   7.594
 2440SOL    HW2 7779   0.884   2.116   7.614
 2441SOL     OW 7780   1.719   2.447   9.279
 2441SOL    HW1 7781   1.693   2.536   9.243
 2441SOL    HW2 7782   1.717   2.379   9.206
 2442SOL     OW 7783   1.362   3.006   7.993
 2442SOL    HW1 7784   1.445   2.977   7.945
 2442SOL    HW2 7785   1.313   3.073   7.937
 2443SOL     OW 7786   0.550   2.058   8.333
 2443SOL    HW1 7787   0.545   2.053   8.433
 2443SOL    HW2 7788   0.552   2.154   8.304
 2444SOL     OW 7789   1.008   3.318   7.925
 2444SOL    HW1 7790   0.962   3.390   7.873
 2444SOL    HW2 7791   1.004   3.338   8.023
 2445SOL     OW 7792   0.351   3.663   8.301
 2445SOL    HW1 7793   0.401   3.577   8.307
 2445SOL    HW2 7794   0.416   3.740   8.298
 2446SOL     OW 7795   1.795   2.928   8.321
 2446SOL    HW1 7796   1.733   2.913   8.245
 2446SOL    HW2 7797   1.743   2.939   8.406
 2447SOL     OW 7798   1.227   3.412   8.954
 2447SOL    HW1 7799   1.233   3.335   9.018
 2447SOL    HW2 7800   1.175   3.386   8.874
 2448SOL     OW 7801   0.321   2.805   7.690
 2448SOL    HW1 7802   0.403   2.844   7.648
 2448SOL    HW2 7803   0.294   2.723   7.641
 2449SOL     OW 7804   1.458   2.597   8.176
 2449SOL    HW1 7805   1.453   2.532   8.251
 2449SOL    HW2 7806   1.538   2.656   8.189
 2450SOL     OW 7807   0.461   3.128   9.175
 2450SOL    HW1 7808   0.411   3.129   9.089
 2450SOL    HW2 7809   0.398   3.110   9.251
 2451SOL     OW 7810   1.111   3.638   7.685
 2451SOL    HW1 7811   1.051   3.576   7.735
 2451SOL    HW2 7812   1.142   3.594   7.600
 2452SOL     OW 7813   0.202   2.147   8.946
 2452SOL    HW1 7814   0.122   2.207   8.933
 2452SOL    HW2 7815   0.192   2.098   9.032
 2453SOL     OW 7816   1.632   3.239   7.529
 2453SOL    HW1 7817   1.600   3.333   7.519
 2453SOL    HW2 7818   1.556   3.176   7.517
 2454SOL     OW 7819   0.464   3.605   7.771
 2454SOL    HW1 7820   0.497   3.644   7.857
 2454SOL    HW2 7821   0.540   3.598   7.706
 2455SOL     OW 7822   1.400   1.969   7.874
 2455SOL    HW1 7823   1.376   1.932   7.784
 2455SOL    HW2 7824   1.499   1.985   7.878
 2456SOL     OW 7825   0.249   3.647   8.689
 2456SOL    HW1 7826   0.306   3.582   8.739
 2456SOL    HW2 7827   0.233   3.614   8.596
 2457SOL     OW 7828   0.940   3.560   8.352
 2457SOL    HW1 7829   1.020   3.503   8.373
 2457SOL    HW2 7830   0.891   3.520   8.275
 2458SOL     OW 7831   0.382   2.562   7.928
 2458SOL    HW1 7832   0.427   2.472   7.925
 2458SOL    HW2 7833   0.288   2.551   7.961
 2459SOL     OW 7834   1.547   2.084   9.177
 2459SOL    HW1 7835   1.542   2.121   9.269
 2459SOL    HW2 7836   1.475   2.015   9.165
 2460SOL     OW 7837   0.614   1.984   7.565
 2460SOL    HW1 7838   0.712   1.962   7.572
 2460SOL    HW2 7839   0.583   1.967   7.472
 2461SOL     OW 7840   0.781   2.126   9.197
 2461SOL    HW1 7841   0.848   2.065   9.240
 2461SOL    HW2 7842   0.708   2.145   9.262
 2462SOL     OW 7843   0.888   3.376   8.643
 2462SOL    HW1 7844   0.865   3.351   8.549
 2462SOL    HW2 7845   0.949   3.307   8.682
 2463SOL     OW 7846   1.351   2.452   8.881
 2463SOL    HW1 7847   1.379   2.409   8.966
 2463SOL    HW2 7848   1.376   2.548   8.882
 2464SOL     OW 7849   0.803   3.264   8.372
 2464SOL    HW1 7850   0.893   3.278   8.330
 2464SOL    HW2 7851   0.732   3.266   8.301
 2465SOL     OW 7852   0.922   2.365   8.347
 2465SOL    HW1 7853   0.897   2.356   8.251
 2465SOL    HW2 7854   0.970   2.283   8.378
 2466SOL     OW 7855   0.539   1.926   7.960
 2466SOL    HW1 7856   0.458   1.927   8.018
 2466SOL    HW2 7857   0.542   2.009   7.905
 2467SOL     OW 7858   1.434   3.050   7.489
 2467SOL    HW1 7859   1.466   2.974   7.546
 2467SOL    HW2 7860   1.342   3.077   7.519
 2468SOL     OW 7861   0.297   1.897   7.619
 2468SOL    HW1 7862   0.346   1.981   7.598
 2468SOL    HW2 7863   0.359   1.832   7.664
 2469SOL     OW 7864   0.935   2.098   7.928
 2469SOL    HW1 7865   0.887   2.139   7.850
 2469SOL    HW2 7866   1.034   2.096   7.909
 2470SOL     OW 7867   1.076   2.545   8.912
 2470SOL    HW1 7868   0.996   2.484   8.915
 2470SOL    HW2 7869   1.157   2.492   8.888
 2471SOL     OW 7870   1.227   3.432   8.241
 2471SOL    HW1 7871   1.248   3.506   8.176
 2471SOL    HW2 7872   1.295   3.432   8.314
 2472SOL     OW 7873   0.459   3.014   8.189
 2472SOL    HW1 7874   0.388   2.987   8.254
 2472SOL    HW2 7875   0.433   2.986   8.096
 2473SOL     OW 7876   1.271   3.659   8.039
 2473SOL    HW1 7877   1.315   3.723   7.975
 2473SOL    HW2 7878   1.221   3.711   8.109
 2474SOL     OW 7879   1.032   2.411   7.464
 2474SOL    HW1 7880   0.991   2.493   7.425
 2474SOL    HW2 7881   1.096   2.437   7.537
 2475SOL     OW 7882   0.078   2.418   8.834
 2475SOL    HW1 7883   0.170   2.417   8.793
 2475SOL    HW2 7884   0.072   2.492   8.901
 2476SOL     OW 7885   0.561   2.084   8.595
 2476SOL    HW1 7886   0.599   2.000   8.632
 2476SOL    HW2 7887   0.473   2.103   8.639
 2477SOL     OW 7888   0.866   2.316   8.090
 2477SOL    HW1 7889   0.834   2.388   8.028
 2477SOL    HW2 7890   0.890   2.235   8.037
 2478SOL     OW 7891   1.017   1.901   8.201
 2478SOL    HW1 7892   0.945   1.906   8.132
 2478SOL    HW2 7893   0.993   1.832   8.270
 2479SOL     OW 7894   1.429   3.035   8.315
 2479SOL    HW1 7895   1.374   2.951   8.308
 2479SOL    HW2 7896   1.455   3.064   8.223
 2480SOL     OW 7897   1.466   2.452   8.440
 2480SOL    HW1 7898   1.436   2.357   8.447
 2480SOL    HW2 7899   1.539   2.468   8.506
 2481SOL     OW 7900   1.857   2.695   7.825
 2481SOL    HW1 7901   1.899   2.631   7.889
 2481SOL    HW2 7902   1.819   2.644   7.747
 2482SOL     OW 7903   0.488   3.247   7.622
 2482SOL    HW1 7904   0.401   3.232   7.669
 2482SOL    HW2 7905   0.471   3.273   7.527
 2483SOL     OW 7906   1.664   3.142   8.105
 2483SOL    HW1 7907   1.763   3.150   8.119
 2483SOL    HW2 7908   1.619   3.226   8.136
 2484SOL     OW 7909   0.527   2.118   7.776
 2484SOL    HW1 7910   0.554   2.059   7.701
 2484SOL    HW2 7911   0.527   2.213   7.745
 2485SOL     OW 7912   1.754   3.085   9.036
 2485SOL    HW1 7913   1.845   3.046   9.023
 2485SOL    HW2 7914   1.762   3.181   9.060
 2486SOL     OW 7915   1.064   3.209   8.788
 2486SOL    HW1 7916   0.984   3.186   8.843
 2486SOL    HW2 7917   1.147   3.183   8.837
 2487SOL     OW 7918   1.592   3.491   9.073
 2487SOL    HW1 7919   1.619   3.525   8.983
 2487SOL    HW2 7920   1.671   3.453   9.119
 2488SOL     OW 7921   1.111   3.057   8.548
 2488SOL    HW1 7922   1.071   3.101   8.629
 2488SOL    HW2 7923   1.070   3.094   8.465
 2489SOL     OW 7924   1.638   2.961   8.527
 2489SOL    HW1 7925   1.643   3.042   8.586
 2489SOL    HW2 7926   1.552   2.963   8.476
 2490SOL     OW 7927   0.915   1.951   8.850
 2490SOL    HW1 7928   0.940   1.931   8.755
 2490SOL    HW2 7929   0.987   2.007   8.892
 2491SOL     OW 7930   0.980   2.978   9.167
 2491SOL    HW1 7931   0.881   2.984   9.177
 2491SOL    HW2 7932   1.003   2.898   9.111
 2492SOL     OW 7933   0.705   2.912   7.816
 2492SOL    HW1 7934   0.691   2.919   7.915
 2492SOL    HW2 7935   0.789   2.861   7.798
 2493SOL     OW 7936   0.410   2.675   8.699
 2493SOL    HW1 7937   0.496   2.687   8.749
 2493SOL    HW2 7938   0.368   2.588   8.726
 2494SOL     OW 7939   1.274   2.248   8.710
 2494SOL    HW1 7940   1.295   2.322   8.774
 2494SOL    HW2 7941   1.185   2.265   8.667
 2495SOL     OW 7942   0.064   3.426   8.779
 2495SOL    HW1 7943   0.018   3.508   8.745
 2495SOL    HW2 7944   0.162   3.445   8.788
 2496SOL     OW 7945   0.367   2.962   7.949
 2496SOL    HW1 7946   0.360   3.045   7.893
 2496SOL    HW2 7947   0.371   2.882   7.889
 2497SOL     OW 7948   0.566   2.399   8.313
 2497SOL    HW1 7949   0.578   2.465   8.239
 2497SOL    HW2 7950   0.612   2.433   8.396
 2498SOL     OW 7951   1.252   3.210   7.836
 2498SOL    HW1 7952   1.302   3.287   7.876
 2498SOL    HW2 7953   1.157   3.212   7.868
 2499SOL     OW 7954   1.272   3.307   8.590
 2499SOL    HW1 7955   1.319   3.320   8.677
 2499SOL    HW2 7956   1.206   3.233   8.599
 2500SOL     OW 7957   1.582   2.501   7.920
 2500SOL    HW1 7958   1.551   2.562   7.993
 2500SOL    HW2 7959   1.632   2.553   7.851
 2501SOL     OW 7960   0.354   3.372   8.777
 2501SOL    HW1 7961   0.333   3.328   8.690
 2501SOL    HW2 7962   0.451   3.398   8.780
 2502SOL     OW 7963   0.402   2.613   9.046
 2502SOL    HW1 7964   0.470   2.668   8.999
 2502SOL    HW2 7965   0.442   2.525   9.073
 2503SOL     OW 7966   1.587   2.641   9.118
 2503SOL    HW1 7967   1.495   2.679   9.113
 2503SOL    HW2 7968   1.647   2.688   9.053
 2504SOL     OW 7969   1.013   1.967   9.218
 2504SOL    HW1 7970   1.019   2.052   9.166
 2504SOL    HW2 7971   1.045   1.891   9.161
 2505SOL     OW 7972   0.504   1.912   9.188
 2505SOL    HW1 7973   0.462   1.855   9.118
 2505SOL    HW2 7974   0.438   1.981   9.220
 2506SOL     OW 7975   0.573   2.732   8.477
 2506SOL    HW1 7976   0.617   2.821   8.468
 2506SOL    HW2 7977   0.510   2.732   8.554
 2507SOL     OW 7978   1.360   2.724   8.493
 2507SOL    HW1 7979   1.285   2.724   8.427
 2507SOL    HW2 7980   1.397   2.632   8.502
 2508SOL     OW 7981   1.209   2.387   7.723
 2508SOL    HW1 7982   1.222   2.303   7.777
 2508SOL    HW2 7983   1.180   2.461   7.783
 2509SOL     OW 7984   0.307   2.075   8.679
 2509SOL    HW1 7985   0.284   2.112   8.769
 2509SOL    HW2 7986   0.277   1.980   8.673
 2510SOL     OW 7987   0.037   3.172   8.730
 2510SOL    HW1 7988   0.090   3.123   8.798
 2510SOL    HW2 7989   0.059   3.270   8.735
 2511SOL     OW 7990   0.732   2.496   8.512
 2511SOL    HW1 7991   0.791   2.470   8.436
 2511SOL    HW2 7992   0.704   2.592   8.501
 2512SOL     OW 7993   1.728   2.797   9.302
 2512SOL    HW1 7994   1.682   2.790   9.213
 2512SOL    HW2 7995   1.666   2.841   9.368
 2513SOL     OW 7996   0.307   1.925   8.066
 2513SOL    HW1 7997   0.296   2.019   8.099
 2513SOL    HW2 7998   0.302   1.862   8.143
 2514SOL     OW 7999   1.023   2.628   8.414
 2514SOL    HW1 8000   1.038   2.649   8.510
 2514SOL    HW2 8001   0.993   2.533   8.405
 2515SOL     OW 8002   0.980   3.435   9.148
 2515SOL    HW1 8003   0.960   3.479   9.060
 2515SOL    HW2 8004   1.019   3.344   9.132
 2516SOL     OW 8005   1.859   3.380   9.053
 2516SOL    HW1 8006   1.873   3.407   8.958
 2516SOL    HW2 8007   1.942   3.402   9.106
 2517SOL     OW 8008   0.350   2.760   9.252
 2517SOL    HW1 8009   0.426   2.804   9.300
 2517SOL    HW2 8010   0.385   2.713   9.170
 2518SOL     OW 8011   1.303   2.700   7.490
 2518SOL    HW1 8012   1.337   2.607   7.505
 2518SOL    HW2 8013   1.321   2.727   7.395
 2519SOL     OW 8014   1.068   3.195   8.297
 2519SOL    HW1 8015   1.075   3.111   8.242
 2519SOL    HW2 8016   1.130   3.264   8.261
 2520SOL     OW 8017   0.319   2.672   8.397
 2520SOL    HW1 8018   0.412   2.708   8.402
 2520SOL    HW2 8019   0.313   2.587   8.449
 2521SOL     OW 8020   0.339   2.371   8.454
 2521SOL    HW1 8021   0.287   2.288   8.437
 2521SOL    HW2 8022   0.416   2.376   8.390
 2522SOL     OW 8023   1.138   2.242   9.126
 2522SOL    HW1 8024   1.093   2.305   9.190
 2522SOL    HW2 8025   1.231   2.273   9.109
 2523SOL     OW 8026   1.160   2.069   8.925
 2523SOL    HW1 8027   1.160   2.133   9.002
 2523SOL    HW2 8028   1.188   2.117   8.842
 2524SOL     OW 8029   0.008   3.188   7.648
 2524SOL    HW1 8030  -0.085   3.209   7.617
 2524SOL    HW2 8031   0.018   3.089   7.661
 2525SOL     OW 8032   0.088   3.663   8.375
 2525SOL    HW1 8033   0.046   3.577   8.348
 2525SOL    HW2 8034   0.182   3.666   8.341
 2526SOL     OW 8035   0.504   3.430   8.358
 2526SOL    HW1 8036   0.570   3.504   8.367
 2526SOL    HW2 8037   0.548   3.351   8.316
 2527SOL     OW 8038   1.002   2.658   8.686
 2527SOL    HW1 8039   1.043   2.626   8.772
 2527SOL    HW2 8040   0.906   2.631   8.683
 2528SOL     OW 8041   0.040   2.406   8.562
 2528SOL    HW1 8042   0.125   2.373   8.521
 2528SOL    HW2 8043   0.053   2.421   8.660
 2529SOL     OW 8044   0.189   2.382   9.170
 2529SOL    HW1 8045   0.248   2.342   9.100
 2529SOL    HW2 8046   0.131   2.453   9.129
 2530SOL     OW 8047   1.369   2.812   9.108
 2530SOL    HW1 8048   1.408   2.901   9.128
 2530SOL    HW2 8049   1.379   2.792   9.011
 2531SOL     OW 8050   0.815   2.434   7.773
 2531SOL    HW1 8051   0.822   2.345   7.727
 2531SOL    HW2 8052   0.721   2.468   7.765
 2532SOL     OW 8053   1.657   2.466   8.654
 2532SOL    HW1 8054   1.619   2.397   8.716
 2532SOL    HW2 8055   1.739   2.430   8.610
 2533SOL     OW 8056   0.252   3.426   9.192
 2533SOL    HW1 8057   0.222   3.483   9.268
 2533SOL    HW2 8058   0.245   3.329   9.218
 2534SOL     OW 8059   0.671   2.326   8.717
 2534SOL    HW1 8060   0.637   2.237   8.687
 2534SOL    HW2 8061   0.697   2.380   8.637
 2535SOL     OW 8062   0.930   3.540   8.913
 2535SOL    HW1 8063   0.906   3.522   8.818
 2535SOL    HW2 8064   0.960   3.634   8.923
 2536SOL     OW 8065   0.473   2.362   7.639
 2536SOL    HW1 8066   0.534   2.442   7.643
 2536SOL    HW2 8067   0.378   2.393   7.646
 2537SOL     OW 8068   0.159   2.999   8.914
 2537SOL    HW1 8069   0.181   2.938   8.990
 2537SOL    HW2 8070   0.169   2.950   8.828
 2538SOL     OW 8071   1.347   2.921   8.682
 2538SOL    HW1 8072   1.371   2.858   8.608
 2538SOL    HW2 8073   1.257   2.961   8.664
 2539SOL     OW 8074   1.302   2.717   7.757
 2539SOL    HW1 8075   1.216   2.686   7.799
 2539SOL    HW2 8076   1.298   2.703   7.658
 2540SOL     OW 8077   1.759   3.609   8.602
 2540SOL    HW1 8078   1.820   3.639   8.529
 2540SOL    HW2 8079   1.721   3.520   8.580
 2541SOL     OW 8080   1.252   3.593   8.576
 2541SOL    HW1 8081   1.336   3.598   8.522
 2541SOL    HW2 8082   1.229   3.497   8.594
 2542SOL     OW 8083   0.083   3.120   8.470
 2542SOL    HW1 8084   0.078   3.119   8.570
 2542SOL    HW2 8085   0.000   3.079   8.432
 2543SOL     OW 8086   0.688   3.524   9.164
 2543SOL    HW1 8087   0.632   3.605   9.173
 2543SOL    HW2 8088   0.740   3.528   9.078
 2544SOL     OW 8089   1.726   1.997   7.971
 2544SOL    HW1 8090   1.799   1.980   7.904
 2544SOL    HW2 8091   1.695   1.910   8.009
 2545SOL     OW 8092   1.388   3.435   7.925
 2545SOL    HW1 8093   1.455   3.447   7.851
 2545SOL    HW2 8094   1.348   3.524   7.948
 2546SOL     OW 8095   0.130   3.656   9.299
 2546SOL    HW1 8096   0.089   3.582   9.352
 2546SOL    HW2 8097   0.194   3.707   9.357
 2547SOL     OW 8098   1.280   2.789   8.120
 2547SOL    HW1 8099   1.340   2.708   8.122
 2547SOL    HW2 8100   1.320   2.858   8.060
 2548SOL     OW 8101   0.830   3.135   8.870
 2548SOL    HW1 8102   0.825   3.168   8.965
 2548SOL    HW2 8103   0.744   3.154   8.824
 2549SOL     OW 8104   0.672   3.478   7.602
 2549SOL    HW1 8105   0.681   3.488   7.503
 2549SOL    HW2 8106   0.632   3.389   7.623
 2550SOL     OW 8107   1.650   3.582   8.842
 2550SOL    HW1 8108   1.703   3.592   8.758
 2550SOL    HW2 8109   1.623   3.672   8.876
 2551SOL     OW 8110   0.263   2.188   8.168
 2551SOL    HW1 8111   0.184   2.239   8.134
 2551SOL    HW2 8112   0.254   2.173   8.266
 2552SOL     OW 8113   1.194   3.474   7.479
 2552SOL    HW1 8114   1.200   3.381   7.516
 2552SOL    HW2 8115   1.135   3.474   7.399
 2553SOL     OW 8116   0.822   2.864   8.820
 2553SOL    HW1 8117   0.862   2.863   8.728
 2553SOL    HW2 8118   0.832   2.956   8.860
 2554SOL     OW 8119   0.916   2.772   7.739
 2554SOL    HW1 8120   0.979   2.810   7.671
 2554SOL    HW2 8121   0.956   2.689   7.778
 2555SOL     OW 8122   1.504   3.469   7.492
 2555SOL    HW1 8123   1.412   3.506   7.499
 2555SOL    HW2 8124   1.542   3.489   7.402
 2556SOL     OW 8125   0.372   3.150   8.938
 2556SOL    HW1 8126   0.359   3.243   8.904
 2556SOL    HW2 8127   0.288   3.098   8.925
 2557SOL     OW 8128   1.614   3.154   8.737
 2557SOL    HW1 8129   1.674   3.157   8.817
 2557SOL    HW2 8130   1.539   3.218   8.750
 2558SOL     OW 8131   1.039   2.960   8.144
 2558SOL    HW1 8132   0.969   2.913   8.198
 2558SOL    HW2 8133   1.098   2.892   8.101
 2559SOL     OW 8134   1.014   2.098   8.419
 2559SOL    HW1 8135   1.006   2.062   8.326
 2559SOL    HW2 8136   1.012   2.022   8.484
 2560SOL     OW 8137   0.590   3.349   7.939
 2560SOL    HW1 8138   0.632   3.291   7.869
 2560SOL    HW2 8139   0.546   3.428   7.895
 2561SOL     OW 8140   1.709   2.247   8.829
 2561SOL    HW1 8141   1.782   2.316   8.833
 2561SOL    HW2 8142   1.737   2.172   8.770
 2562SOL     OW 8143   0.255   3.210   7.738
 2562SOL    HW1 8144   0.159   3.211   7.711
 2562SOL    HW2 8145   0.267   3.263   7.822
 2563SOL     OW 8146   0.105   2.875   9.174
 2563SOL    HW1 8147   0.028   2.842   9.228
 2563SOL    HW2 8148   0.190   2.845   9.216
 2564SOL     OW 8149   0.672   2.065   8.937
 2564SOL    HW1 8150   0.762   2.049   8.897
 2564SOL    HW2 8151   0.680   2.070   9.036
 2565SOL     OW 8152   0.075   2.207   7.481
 2565SOL    HW1 8153  -0.017   2.179   7.452
 2565SOL    HW2 8154   0.106   2.284   7.425
 2566SOL     OW 8155   1.440   2.718   8.846
 2566SOL    HW1 8156   1.383   2.770   8.783
 2566SOL    HW2 8157   1.536   2.730   8.822
 2567SOL     OW 8158   0.072   2.028   7.766
 2567SOL    HW1 8159   0.055   2.111   7.712
 2567SOL    HW2 8160   0.162   1.991   7.744
 2568SOL     OW 8161   1.183   3.197   7.567
 2568SOL    HW1 8162   1.084   3.186   7.569
 2568SOL    HW2 8163   1.217   3.212   7.660
 2569SOL     OW 8164   0.613   2.704   8.879
 2569SOL    HW1 8165   0.669   2.785   8.862
 2569SOL    HW2 8166   0.672   2.624   8.882
 2570SOL     OW 8167   1.493   3.629   8.407
 2570SOL    HW1 8168   1.526   3.693   8.338
 2570SOL    HW2 8169   1.559   3.623   8.482
 2571SOL     OW 8170   0.716   2.427   9.156
 2571SOL    HW1 8171   0.735   2.492   9.230
 2571SOL    HW2 8172   0.776   2.347   9.165
 2572SOL     OW 8173   1.450   3.082   9.081
 2572SOL    HW1 8174   1.441   3.072   9.180
 2572SOL    HW2 8175   1.546   3.075   9.055
 2573SOL     OW 8176   0.390   3.603   9.008
 2573SOL    HW1 8177   0.299   3.644   9.006
 2573SOL    HW2 8178   0.383   3.509   9.040
 2574SOL     OW 8179   1.674   2.745   8.702
 2574SOL    HW1 8180   1.647   2.656   8.665
 2574SOL    HW2 8181   1.675   2.813   8.629
 2575SOL     OW 8182   1.225   2.187   7.897
 2575SOL    HW1 8183   1.290   2.113   7.886
 2575SOL    HW2 8184   1.245   2.237   7.981
 2576SOL     OW 8185   0.594   2.607   8.100
 2576SOL    HW1 8186   0.644   2.692   8.081
 2576SOL    HW2 8187   0.506   2.609   8.052
 2577SOL     OW 8188   1.777   2.204   9.090
 2577SOL    HW1 8189   1.760   2.235   8.996
 2577SOL    HW2 8190   1.693   2.167   9.128
 2578SOL     OW 8191   1.730   2.796   8.965
 2578SOL    HW1 8192   1.768   2.887   8.980
 2578SOL    HW2 8193   1.722   2.779   8.866
 2579SOL     OW 8194   0.859   3.236   7.464
 2579SOL    HW1 8195   0.813   3.251   7.552
 2579SOL    HW2 8196   0.903   3.321   7.434
 2580SOL     OW 8197   0.661   3.652   8.401
 2580SOL    HW1 8198   0.615   3.740   8.388
 2580SOL    HW2 8199   0.760   3.664   8.394
 2581SOL     OW 8200   0.859   2.818   8.309
 2581SOL    HW1 8201   0.913   2.749   8.357
 2581SOL    HW2 8202   0.827   2.887   8.375
 2582SOL     OW 8203   1.083   2.846   7.535
 2582SOL    HW1 8204   1.060   2.899   7.453
 2582SOL    HW2 8205   1.164   2.790   7.516
 2583SOL     OW 8206   1.861   3.431   8.299
 2583SOL    HW1 8207   1.790   3.419   8.229
 2583SOL    HW2 8208   1.862   3.352   8.359
 2584SOL     OW 8209   0.221   3.176   9.292
 2584SOL    HW1 8210   0.156   3.103   9.271
 2584SOL    HW2 8211   0.225   3.190   9.390
 2585SOL     OW 8212   0.079   3.102   8.101
 2585SOL    HW1 8213   0.078   3.055   8.189
 2585SOL    HW2 8214   0.161   3.074   8.050
 2586SOL     OW 8215   0.672   3.253   9.072
 2586SOL    HW1 8216   0.594   3.203   9.110
 2586SOL    HW2 8217   0.669   3.348   9.103
 2587SOL     OW 8218   0.428   2.286   7.968
 2587SOL    HW1 8219   0.458   2.214   7.906
 2587SOL    HW2 8220   0.389   2.246   8.051
 2588SOL     OW 8221   1.705   3.349   8.552
 2588SOL    HW1 8222   1.612   3.324   8.525
 2588SOL    HW2 8223   1.731   3.299   8.634
 2589SOL     OW 8224   0.317   2.409   8.728
 2589SOL    HW1 8225   0.355   2.350   8.800
 2589SOL    HW2 8226   0.357   2.383   8.640
 2590SOL     OW 8227   0.812   3.448   8.135
 2590SOL    HW1 8228   0.844   3.458   8.041
 2590SOL    HW2 8229   0.733   3.386   8.137
 2591SOL     OW 8230   1.424   2.076   8.560
 2591SOL    HW1 8231   1.476   2.011   8.615
 2591SOL    HW2 8232   1.375   2.139   8.621
 2592SOL     OW 8233   1.001   1.896   8.602
 2592SOL    HW1 8234   0.938   1.824   8.571
 2592SOL    HW2 8235   1.094   1.860   8.602
 2593SOL     OW 8236   0.770   3.192   7.749
 2593SOL    HW1 8237   0.724   3.105   7.766
 2593SOL    HW2 8238   0.861   3.189   7.790
 2594SOL     OW 8239   0.618   3.429   8.732
 2594SOL    HW1 8240   0.613   3.511   8.789
 2594SOL    HW2 8241   0.707   3.426   8.687
 2595SOL     OW 8242   1.300   2.315   8.139
 2595SOL    HW1 8243   1.241   2.395   8.143
 2595SOL    HW2 8244   1.315   2.280   8.232
 2596SOL     OW 8245   1.593   2.083   8.330
 2596SOL    HW1 8246   1.509   2.082   8.384
 2596SOL    HW2 8247   1.595   2.166   8.274
 2597SOL     OW 8248   0.039   2.939   7.748
 2597SOL    HW1 8249   0.138   2.928   7.739
 2597SOL    HW2 8250  -0.001   2.853   7.780
 2598SOL     OW 8251   0.875   3.508   7.785
 2598SOL    HW1 8252   0.798   3.473   7.731
 2598SOL    HW2 8253   0.843   3.579   7.847
 2599SOL     OW 8254   0.230   2.490   9.423
 2599SOL    HW1 8255   0.137   2.488   9.460
 2599SOL    HW2 8256   0.231   2.451   9.331
 2600SOL     OW 8257   0.225   2.137  10.306
 2600SOL    HW1 8258   0.260   2.120  10.398
 2600SOL    HW2 8259   0.137   2.092  10.294
 2601SOL     OW 8260   0.019   2.230   9.957
 2601SOL    HW1 8261  -0.063   2.273   9.996
 2601SOL    HW2 8262  -0.009   2.157   9.894
 2602SOL     OW 8263   0.569   3.137  10.475
 2602SOL    HW1 8264   0.476   3.130  10.438
 2602SOL    HW2 8265   0.580   3.226  10.519
 2603SOL     OW 8266   1.555   3.373  10.013
 2603SOL    HW1 8267   1.498   3.357  10.094
 2603SOL    HW2 8268   1.496   3.383   9.933
 2604SOL     OW 8269   1.135   2.565  10.027
 2604SOL    HW1 8270   1.192   2.643  10.002
 2604SOL    HW2 8271   1.075   2.591  10.103
 2605SOL     OW 8272   1.755   2.469   9.541
 2605SOL    HW1 8273   1.743   2.456   9.442
 2605SOL    HW2 8274   1.725   2.388   9.590
 2606SOL     OW 8275   0.768   3.006  10.333
 2606SOL    HW1 8276   0.690   3.023  10.393
 2606SOL    HW2 8277   0.802   3.093  10.297
 2607SOL     OW 8278   0.850   2.660  11.133
 2607SOL    HW1 8279   0.846   2.736  11.198
 2607SOL    HW2 8280   0.872   2.696  11.042
 2608SOL     OW 8281   0.685   2.874   9.975
 2608SOL    HW1 8282   0.754   2.858  10.045
 2608SOL    HW2 8283   0.612   2.931  10.013
 2609SOL     OW 8284   0.686   3.023  11.113
 2609SOL    HW1 8285   0.746   3.102  11.127
 2609SOL    HW2 8286   0.600   3.054  11.072
 2610SOL     OW 8287   0.335   3.297  10.371
 2610SOL    HW1 8288   0.257   3.266  10.318
 2610SOL    HW2 8289   0.393   3.355  10.314
 2611SOL     OW 8290   1.460   3.367  10.649
 2611SOL    HW1 8291   1.484   3.461  10.675
 2611SOL    HW2 8292   1.444   3.313  10.731
 2612SOL     OW 8293   0.438   2.254  10.809
 2612SOL    HW1 8294   0.520   2.198  10.818
 2612SOL    HW2 8295   0.357   2.196  10.813
 2613SOL     OW 8296   1.603   2.309  10.047
 2613SOL    HW1 8297   1.529   2.355   9.997
 2613SOL    HW2 8298   1.654   2.377  10.100
 2614SOL     OW 8299   0.231   3.575   9.793
 2614SOL    HW1 8300   0.265   3.652   9.847
 2614SOL    HW2 8301   0.275   3.575   9.703
 2615SOL     OW 8302   1.127   3.203  11.000
 2615SOL    HW1 8303   1.174   3.203  11.088
 2615SOL    HW2 8304   1.079   3.116  10.989
 2616SOL     OW 8305   0.230   3.296   9.848
 2616SOL    HW1 8306   0.204   3.392   9.848
 2616SOL    HW2 8307   0.159   3.242   9.893
 2617SOL     OW 8308   0.240   2.953  10.196
 2617SOL    HW1 8309   0.254   2.869  10.248
 2617SOL    HW2 8310   0.185   3.017  10.251
 2618SOL     OW 8311   0.620   3.648  10.749
 2618SOL    HW1 8312   0.528   3.631  10.784
 2618SOL    HW2 8313   0.648   3.740  10.775
 2619SOL     OW 8314   0.606   2.826   9.433
 2619SOL    HW1 8315   0.613   2.910   9.379
 2619SOL    HW2 8316   0.652   2.839   9.521
 2620SOL     OW 8317   1.594   1.976  10.790
 2620SOL    HW1 8318   1.576   2.043  10.718
 2620SOL    HW2 8319   1.591   2.022  10.879
 2621SOL     OW 8320   0.122   2.505   9.873
 2621SOL    HW1 8321   0.077   2.417   9.890
 2621SOL    HW2 8322   0.121   2.559   9.957
 2622SOL     OW 8323   1.842   3.629   9.669
 2622SOL    HW1 8324   1.896   3.600   9.749
 2622SOL    HW2 8325   1.872   3.719   9.640
 2623SOL     OW 8326   0.027   3.458   9.427
 2623SOL    HW1 8327   0.008   3.362   9.448
 2623SOL    HW2 8328  -0.006   3.516   9.502
 2624SOL     OW 8329   1.689   2.784   9.922
 2624SOL    HW1 8330   1.784   2.755   9.930
 2624SOL    HW2 8331   1.681   2.849   9.847
 2625SOL     OW 8332   1.641   2.970   9.742
 2625SOL    HW1 8333   1.727   2.972   9.690
 2625SOL    HW2 8334   1.655   3.017   9.830
 2626SOL     OW 8335   0.113   2.599  10.907
 2626SOL    HW1 8336   0.201   2.586  10.952
 2626SOL    HW2 8337   0.100   2.696  10.885
 2627SOL     OW 8338   0.613   3.227  10.036
 2627SOL    HW1 8339   0.564   3.140  10.045
 2627SOL    HW2 8340   0.590   3.270   9.949
 2628SOL     OW 8341   1.293   3.090  10.733
 2628SOL    HW1 8342   1.330   3.017  10.675
 2628SOL    HW2 8343   1.345   3.095  10.818
 2629SOL     OW 8344   0.809   1.866   9.812
 2629SOL    HW1 8345   0.849   1.957   9.803
 2629SOL    HW2 8346   0.709   1.874   9.818
 2630SOL     OW 8347   0.197   2.838  10.574
 2630SOL    HW1 8348   0.286   2.793  10.560
 2630SOL    HW2 8349   0.124   2.773  10.555
 2631SOL     OW 8350   1.525   2.861   9.500
 2631SOL    HW1 8351   1.462   2.785   9.513
 2631SOL    HW2 8352   1.573   2.879   9.586
 2632SOL     OW 8353   1.187   3.654  10.926
 2632SOL    HW1 8354   1.211   3.714  10.850
 2632SOL    HW2 8355   1.194   3.559  10.896
 2633SOL     OW 8356   0.317   2.113  11.111
 2633SOL    HW1 8357   0.388   2.184  11.117
 2633SOL    HW2 8358   0.229   2.152  11.139
 2634SOL     OW 8359   1.466   3.279  10.263
 2634SOL    HW1 8360   1.407   3.285  10.343
 2634SOL    HW2 8361   1.451   3.191  10.217
 2635SOL     OW 8362   1.667   3.576   9.882
 2635SOL    HW1 8363   1.626   3.553   9.794
 2635SOL    HW2 8364   1.649   3.502   9.947
 2636SOL     OW 8365   0.598   2.591   9.580
 2636SOL    HW1 8366   0.622   2.660   9.512
 2636SOL    HW2 8367   0.520   2.624   9.634
 2637SOL     OW 8368   1.281   2.207  10.254
 2637SOL    HW1 8369   1.195   2.157  10.241
 2637SOL    HW2 8370   1.343   2.153  10.310
 2638SOL     OW 8371   1.576   3.524   9.617
 2638SOL    HW1 8372   1.665   3.570   9.620
 2638SOL    HW2 8373   1.555   3.500   9.522
 2639SOL     OW 8374   0.807   2.467  10.775
 2639SOL    HW1 8375   0.760   2.464  10.864
 2639SOL    HW2 8376   0.756   2.412  10.709
 2640SOL     OW 8377   1.394   2.331  10.984
 2640SOL    HW1 8378   1.374   2.374  11.072
 2640SOL    HW2 8379   1.472   2.269  10.993
 2641SOL     OW 8380   0.973   2.752  10.882
 2641SOL    HW1 8381   1.019   2.668  10.853
 2641SOL    HW2 8382   0.917   2.786  10.807
 2642SOL     OW 8383   0.991   2.272  10.552
 2642SOL    HW1 8384   0.914   2.306  10.606
 2642SOL    HW2 8385   0.957   2.221  10.473
 2643SOL     OW 8386   1.041   2.563   9.739
 2643SOL    HW1 8387   1.067   2.559   9.835
 2643SOL    HW2 8388   0.956   2.512   9.725
 2644SOL     OW 8389   0.076   2.673  10.099
 2644SOL    HW1 8390   0.175   2.661  10.108
 2644SOL    HW2 8391   0.052   2.768  10.120
 2645SOL     OW 8392   0.130   3.683  10.881
 2645SOL    HW1 8393   0.120   3.668  10.980
 2645SOL    HW2 8394   0.044   3.719  10.845
 2646SOL     OW 8395   0.865   2.210   9.505
 2646SOL    HW1 8396   0.924   2.273   9.456
 2646SOL    HW2 8397   0.884   2.116   9.476
 2647SOL     OW 8398   1.719   2.447  11.141
 2647SOL    HW1 8399   1.693   2.536  11.105
 2647SOL    HW2 8400   1.717   2.379  11.068
 2648SOL     OW 8401   1.362   3.006   9.855
 2648SOL    HW1 8402   1.445   2.977   9.807
 2648SOL    HW2 8403   1.313   3.073   9.799
 2649SOL     OW 8404   0.550   2.058  10.195
 2649SOL    HW1 8405   0.545   2.053  10.295
 2649SOL    HW2 8406   0.552   2.154  10.166
 2650SOL     OW 8407   1.008   3.318   9.787
 2650SOL    HW1 8408   0.962   3.390   9.735
 2650SOL    HW2 8409   1.004   3.338   9.885
 2651SOL     OW 8410   0.351   3.663  10.163
 2651SOL    HW1 8411   0.401   3.577  10.169
 2651SOL    HW2 8412   0.416   3.740  10.160
 2652SOL     OW 8413   1.795   2.928  10.183
 2652SOL    HW1 8414   1.733   2.913  10.107
 2652SOL    HW2 8415   1.743   2.939  10.268
 2653SOL     OW 8416   1.227   3.412  10.816
 2653SOL    HW1 8417   1.233   3.335  10.880
 2653SOL    HW2 8418   1.175   3.386  10.736
 2654SOL     OW 8419   0.321   2.805   9.552
 2654SOL    HW1 8420   0.403   2.844   9.510
 2654SOL    HW2 8421   0.294   2.723   9.503
 2655SOL     OW 8422   1.458   2.597  10.038
 2655SOL    HW1 8423   1.453   2.532  10.113
 2655SOL    HW2 8424   1.538   2.656  10.051
 2656SOL     OW 8425   0.461   3.128  11.037
 2656SOL    HW1 8426   0.411   3.129  10.951
 2656SOL    HW2 8427   0.398   3.110  11.113
 2657SOL     OW 8428   1.111   3.638   9.547
 2657SOL    HW1 8429   1.051   3.576   9.597
 2657SOL    HW2 8430   1.142   3.594   9.462
 2658SOL     OW 8431   0.202   2.147  10.808
 2658SOL    HW1 8432   0.122   2.207  10.795
 2658SOL    HW2 8433   0.192   2.098  10.894
 2659SOL     OW 8434   1.632   3.239   9.391
 2659SOL    HW1 8435   1.600   3.333   9.381
 2659SOL    HW2 8436   1.556   3.176   9.379
 2660SOL     OW 8437   0.464   3.605   9.633
 2660SOL    HW1 8438   0.497   3.644   9.719
 2660SOL    HW2 8439   0.540   3.598   9.568
 2661SOL     OW 8440   1.400   1.969   9.736
 2661SOL    HW1 8441   1.376   1.932   9.646
 2661SOL    HW2 8442   1.499   1.985   9.740
 2662SOL     OW 8443   0.249   3.647  10.551
 2662SOL    HW1 8444   0.306   3.582  10.601
 2662SOL    HW2 8445   0.233   3.614  10.458
 2663SOL     OW 8446   0.940   3.560  10.214
 2663SOL    HW1 8447   1.020   3.503  10.235
 2663SOL    HW2 8448   0.891   3.520  10.137
 2664SOL     OW 8449   0.382   2.562   9.790
 2664SOL    HW1 8450   0.427   2.472   9.787
 2664SOL    HW2 8451   0.288   2.551   9.823
 2665SOL     OW 8452   1.547   2.084  11.039
 2665SOL    HW1 8453   1.542   2.121  11.131
 2665SOL    HW2 8454   1.475   2.015  11.027
 2666SOL     OW 8455   0.614   1.984   9.427
 2666SOL    HW1 8456   0.712   1.962   9.434
 2666SOL    HW2 8457   0.583   1.967   9.334
 2667SOL     OW 8458   0.781   2.126  11.059
 2667SOL    HW1 8459   0.848   2.065  11.102
 2667SOL    HW2 8460   0.708   2.145  11.124
 2668SOL     OW 8461   0.888   3.376  10.505
 2668SOL    HW1 8462   0.865   3.351  10.411
 2668SOL    HW2 8463   0.949   3.307  10.544
 2669SOL     OW 8464   1.351   2.452  10.743
 2669SOL    HW1 8465   1.379   2.409  10.828
 2669SOL    HW2 8466   1.376   2.548  10.744
 2670SOL     OW 8467   0.803   3.264  10.234
 2670SOL    HW1 8468   0.893   3.278  10.192
 2670SOL    HW2 8469   0.732   3.266  10.163
 2671SOL     OW 8470   0.922   2.365  10.209
 2671SOL    HW1 8471   0.897   2.356  10.113
 2671SOL    HW2 8472   0.970   2.283  10.240
 2672SOL     OW 8473   0.539   1.926   9.822
 2672SOL    HW1 8474   0.458   1.927   9.880
 2672SOL    HW2 8475   0.542   2.009   9.767
 2673SOL     OW 8476   1.434   3.050   9.351
 2673SOL    HW1 8477   1.466   2.974   9.408
 2673SOL    HW2 8478   1.342   3.077   9.381
 2674SOL     OW 8479   0.297   1.897   9.481
 2674SOL    HW1 8480   0.346   1.981   9.460
 2674SOL    HW2 8481   0.359   1.832   9.526
 2675SOL     OW 8482   0.935   2.098   9.790
 2675SOL    HW1 8483   0.887   2.139   9.712
 2675SOL    HW2 8484   1.034   2.096   9.771
 2676SOL     OW 8485   1.076   2.545  10.774
 2676SOL    HW1 8486   0.996   2.484  10.777
 2676SOL    HW2 8487   1.157   2.492  10.750
 2677SOL     OW 8488   1.227   3.432  10.103
 2677SOL    HW1 8489   1.248   3.506  10.038
 2677SOL    HW2 8490   1.295   3.432  10.176
 2678SOL     OW 8491   0.459   3.014  10.051
 2678SOL    HW1 8492   0.388   2.987  10.116
 2678SOL    HW2 8493   0.433   2.986   9.958
 2679SOL     OW 8494   1.271   3.659   9.901
 2679SOL    HW1 8495   1.315   3.723   9.837
 2679SOL    HW2 8496   1.221   3.711   9.971
 2680SOL     OW 8497   1.032   2.411   9.326
 2680SOL    HW1 8498   0.991   2.493   9.287
 2680SOL    HW2 8499   1.096   2.437   9.399
 2681SOL     OW 8500   0.078   2.418  10.696
 2681SOL    HW1 8501   0.170   2.417  10.655
 2681SOL    HW2 8502   0.072   2.492  10.763
 2682SOL     OW 8503   0.561   2.084  10.457
 2682SOL    HW1 8504   0.599   2.000  10.494
 2682SOL    HW2 8505   0.473   2.103  10.501
 2683SOL     OW 8506   0.866   2.316   9.952
 2683SOL    HW1 8507   0.834   2.388   9.890
 2683SOL    HW2 8508   0.890   2.235   9.899
 2684SOL     OW 8509   1.017   1.901  10.063
 2684SOL    HW1 8510   0.945   1.906   9.994
 2684SOL    HW2 8511   0.993   1.832  10.132
 2685SOL     OW 8512   1.429   3.035  10.177
 2685SOL    HW1 8513   1.374   2.951  10.170
 2685SOL    HW2 8514   1.455   3.064  10.085
 2686SOL     OW 8515   1.466   2.452  10.302
 2686SOL    HW1 8516   1.436   2.357  10.309
 2686SOL    HW2 8517   1.539   2.468  10.368
 2687SOL     OW 8518   1.857   2.695   9.687
 2687SOL    HW1 8519   1.899   2.631   9.751
 2687SOL    HW2 8520   1.819   2.644   9.609
 2688SOL     OW 8521   0.488   3.247   9.484
 2688SOL    HW1 8522   0.401   3.232   9.531
 2688SOL    HW2 8523   0.471   3.273   9.389
 2689SOL     OW 8524   1.664   3.142   9.967
 2689SOL    HW1 8525   1.763   3.150   9.981
 2689SOL    HW2 8526   1.619   3.226   9.998
 2690SOL     OW 8527   1.390   2.437   9.388
 2690SOL    HW1 8528   1.336   2.416   9.469
 2690SOL    HW2 8529   1.481   2.396   9.397
 2691SOL     OW 8530   0.527   2.118   9.638
 2691SOL    HW1 8531   0.554   2.059   9.563
 2691SOL    HW2 8532   0.527   2.213   9.607
 2692SOL     OW 8533   1.754   3.085  10.898
 2692SOL    HW1 8534   1.845   3.046  10.885
 2692SOL    HW2 8535   1.762   3.181  10.922
 2693SOL     OW 8536   1.064   3.209  10.650
 2693SOL    HW1 8537   0.984   3.186  10.705
 2693SOL    HW2 8538   1.147   3.183  10.699
 2694SOL     OW 8539   1.592   3.491  10.935
 2694SOL    HW1 8540   1.619   3.525  10.845
 2694SOL    HW2 8541   1.671   3.453  10.981
 2695SOL     OW 8542   1.111   3.057  10.410
 2695SOL    HW1 8543   1.071   3.101  10.491
 2695SOL    HW2 8544   1.070   3.094  10.327
 2696SOL     OW 8545   1.638   2.961  10.389
 2696SOL    HW1 8546   1.643   3.042  10.448
 2696SOL    HW2 8547   1.552   2.963  10.338
 2697SOL     OW 8548   0.915   1.951  10.712
 2697SOL    HW1 8549   0.940   1.931  10.617
 2697SOL    HW2 8550   0.987   2.007  10.754
 2698SOL     OW 8551   0.980   2.978  11.029
 2698SOL    HW1 8552   0.881   2.984  11.039
 2698SOL    HW2 8553   1.003   2.898  10.973
 2699SOL     OW 8554   0.705   2.912   9.678
 2699SOL    HW1 8555   0.691   2.919   9.777
 2699SOL    HW2 8556   0.789   2.861   9.660
 2700SOL     OW 8557   0.410   2.675  10.561
 2700SOL    HW1 8558   0.496   2.687  10.611
 2700SOL    HW2 8559   0.368   2.588  10.588
 2701SOL     OW 8560   1.274   2.248  10.572
 2701SOL    HW1 8561   1.295   2.322  10.636
 2701SOL    HW2 8562   1.185   2.265  10.529
 2702SOL     OW 8563   0.064   3.426  10.641
 2702SOL    HW1 8564   0.018   3.508  10.607
 2702SOL    HW2 8565   0.162   3.445  10.650
 2703SOL     OW 8566   0.367   2.962   9.811
 2703SOL    HW1 8567   0.360   3.045   9.755
 2703SOL    HW2 8568   0.371   2.882   9.751
 2704SOL     OW 8569   0.566   2.399  10.175
 2704SOL    HW1 8570   0.578   2.465  10.101
 2704SOL    HW2 8571   0.612   2.433  10.258
 2705SOL     OW 8572   1.252   3.210   9.698
 2705SOL    HW1 8573   1.302   3.287   9.738
 2705SOL    HW2 8574   1.157   3.212   9.730
 2706SOL     OW 8575   1.272   3.307  10.452
 2706SOL    HW1 8576   1.319   3.320  10.539
 2706SOL    HW2 8577   1.206   3.233  10.461
 2707SOL     OW 8578   1.582   2.501   9.782
 2707SOL    HW1 8579   1.551   2.562   9.855
 2707SOL    HW2 8580   1.632   2.553   9.713
 2708SOL     OW 8581   0.354   3.372  10.639
 2708SOL    HW1 8582   0.333   3.328  10.552
 2708SOL    HW2 8583   0.451   3.398  10.642
 2709SOL     OW 8584   0.402   2.613  10.908
 2709SOL    HW1 8585   0.470   2.668  10.861
 2709SOL    HW2 8586   0.442   2.525  10.935
 2710SOL     OW 8587   1.587   2.641  10.980
 2710SOL    HW1 8588   1.495   2.679  10.975
 2710SOL    HW2 8589   1.647   2.688  10.915
 2711SOL     OW 8590   1.013   1.967  11.080
 2711SOL    HW1 8591   1.019   2.052  11.028
 2711SOL    HW2 8592   1.045   1.891  11.023
 2712SOL     OW 8593   0.504   1.912  11.050
 2712SOL    HW1 8594   0.462   1.855  10.980
 2712SOL    HW2 8595   0.438   1.981  11.082
 2713SOL     OW 8596   0.573   2.732  10.339
 2713SOL    HW1 8597   0.617   2.821  10.330
 2713SOL    HW2 8598   0.510   2.732  10.416
 2714SOL     OW 8599   1.360   2.724  10.355
 2714SOL    HW1 8600   1.285   2.724  10.289
 2714SOL    HW2 8601   1.397   2.632  10.364
 2715SOL     OW 8602   1.209   2.387   9.585
 2715SOL    HW1 8603   1.222   2.303   9.639
 2715SOL    HW2 8604   1.180   2.461   9.645
 2716SOL     OW 8605   0.307   2.075  10.541
 2716SOL    HW1 8606   0.284   2.112  10.631
 2716SOL    HW2 8607   0.277   1.980  10.535
 2717SOL     OW 8608   0.037   3.172  10.592
 2717SOL    HW1 8609   0.090   3.123  10.660
 2717SOL    HW2 8610   0.059   3.270  10.597
 2718SOL     OW 8611   0.732   2.496  10.374
 2718SOL    HW1 8612   0.791   2.470  10.298
 2718SOL    HW2 8613   0.704   2.592  10.363
 2719SOL     OW 8614   1.728   2.797  11.164
 2719SOL    HW1 8615   1.682   2.790  11.075
 2719SOL    HW2 8616   1.666   2.841  11.230
 2720SOL     OW 8617   0.307   1.925   9.928
 2720SOL    HW1 8618   0.296   2.019   9.961
 2720SOL    HW2 8619   0.302   1.862  10.005
 2721SOL     OW 8620   1.622   2.229   9.684
 2721SOL    HW1 8621   1.624   2.153   9.748
 2721SOL    HW2 8622   1.574   2.306   9.724
 2722SOL     OW 8623   1.023   2.628  10.276
 2722SOL    HW1 8624   1.038   2.649  10.372
 2722SOL    HW2 8625   0.993   2.533  10.267
 2723SOL     OW 8626   0.980   3.435  11.010
 2723SOL    HW1 8627   0.960   3.479  10.922
 2723SOL    HW2 8628   1.019   3.344  10.994
 2724SOL     OW 8629   1.859   3.380  10.915
 2724SOL    HW1 8630   1.873   3.407  10.820
 2724SOL    HW2 8631   1.942   3.402  10.968
 2725SOL     OW 8632   0.350   2.760  11.114
 2725SOL    HW1 8633   0.426   2.804  11.162
 2725SOL    HW2 8634   0.385   2.713  11.032
 2726SOL     OW 8635   1.540   2.136   9.435
 2726SOL    HW1 8636   1.479   2.061   9.458
 2726SOL    HW2 8637   1.562   2.188   9.518
 2727SOL     OW 8638   1.303   2.700   9.352
 2727SOL    HW1 8639   1.337   2.607   9.367
 2727SOL    HW2 8640   1.321   2.727   9.257
 2728SOL     OW 8641   1.068   3.195  10.159
 2728SOL    HW1 8642   1.075   3.111  10.104
 2728SOL    HW2 8643   1.130   3.264  10.123
 2729SOL     OW 8644   0.319   2.672  10.259
 2729SOL    HW1 8645   0.412   2.708  10.264
 2729SOL    HW2 8646   0.313   2.587  10.311
 2730SOL     OW 8647   0.339   2.371  10.316
 2730SOL    HW1 8648   0.287   2.288  10.299
 2730SOL    HW2 8649   0.416   2.376  10.252
 2731SOL     OW 8650   1.138   2.242  10.988
 2731SOL    HW1 8651   1.093   2.305  11.052
 2731SOL    HW2 8652   1.231   2.273  10.971
 2732SOL     OW 8653   1.160   2.069  10.787
 2732SOL    HW1 8654   1.160   2.133  10.864
 2732SOL    HW2 8655   1.188   2.117  10.704
 2733SOL     OW 8656   0.008   3.188   9.510
 2733SOL    HW1 8657  -0.085   3.209   9.479
 2733SOL    HW2 8658   0.018   3.089   9.523
 2734SOL     OW 8659   0.088   3.663  10.237
 2734SOL    HW1 8660   0.046   3.577  10.210
 2734SOL    HW2 8661   0.182   3.666  10.203
 2735SOL     OW 8662   0.504   3.430  10.220
 2735SOL    HW1 8663   0.570   3.504  10.229
 2735SOL    HW2 8664   0.548   3.351  10.178
 2736SOL     OW 8665   1.002   2.658  10.548
 2736SOL    HW1 8666   1.043   2.626  10.634
 2736SOL    HW2 8667   0.906   2.631  10.545
 2737SOL     OW 8668   0.040   2.406  10.424
 2737SOL    HW1 8669   0.125   2.373  10.383
 2737SOL    HW2 8670   0.053   2.421  10.522
 2738SOL     OW 8671   0.189   2.382  11.032
 2738SOL    HW1 8672   0.248   2.342  10.962
 2738SOL    HW2 8673   0.131   2.453  10.991
 2739SOL     OW 8674   1.369   2.812  10.970
 2739SOL    HW1 8675   1.408   2.901  10.990
 2739SOL    HW2 8676   1.379   2.792  10.873
 2740SOL     OW 8677   0.815   2.434   9.635
 2740SOL    HW1 8678   0.822   2.345   9.589
 2740SOL    HW2 8679   0.721   2.468   9.627
 2741SOL     OW 8680   1.657   2.466  10.516
 2741SOL    HW1 8681   1.619   2.397  10.578
 2741SOL    HW2 8682   1.739   2.430  10.472
 2742SOL     OW 8683   0.252   3.426  11.054
 2742SOL    HW1 8684   0.222   3.483  11.130
 2742SOL    HW2 8685   0.245   3.329  11.080
 2743SOL     OW 8686   0.671   2.326  10.579
 2743SOL    HW1 8687   0.637   2.237  10.549
 2743SOL    HW2 8688   0.697   2.380  10.499
 2744SOL     OW 8689   0.930   3.540  10.775
 2744SOL    HW1 8690   0.906   3.522  10.680
 2744SOL    HW2 8691   0.960   3.634  10.785
 2745SOL     OW 8692   0.473   2.362   9.501
 2745SOL    HW1 8693   0.534   2.442   9.505
 2745SOL    HW2 8694   0.378   2.393   9.508
 2746SOL     OW 8695   0.159   2.999  10.776
 2746SOL    HW1 8696   0.181   2.938  10.852
 2746SOL    HW2 8697   0.169   2.950  10.690
 2747SOL     OW 8698   1.347   2.921  10.544
 2747SOL    HW1 8699   1.371   2.858  10.470
 2747SOL    HW2 8700   1.257   2.961  10.526
 2748SOL     OW 8701   1.302   2.717   9.619
 2748SOL    HW1 8702   1.216   2.686   9.661
 2748SOL    HW2 8703   1.298   2.703   9.520
 2749SOL     OW 8704   1.759   3.609  10.464
 2749SOL    HW1 8705   1.820   3.639  10.391
 2749SOL    HW2 8706   1.721   3.520  10.442
 2750SOL     OW 8707   1.252   3.593  10.438
 2750SOL    HW1 8708   1.336   3.598  10.384
 2750SOL    HW2 8709   1.229   3.497  10.456
 2751SOL     OW 8710   0.083   3.120  10.332
 2751SOL    HW1 8711   0.078   3.119  10.432
 2751SOL    HW2 8712   0.000   3.079  10.294
 2752SOL     OW 8713   0.688   3.524  11.026
 2752SOL    HW1 8714   0.632   3.605  11.035
 2752SOL    HW2 8715   0.740   3.528  10.940
 2753SOL     OW 8716   1.388   3.435   9.787
 2753SOL    HW1 8717   1.455   3.447   9.713
 2753SOL    HW2 8718   1.348   3.524   9.810
 2754SOL     OW 8719   0.130   3.656  11.161
 2754SOL    HW1 8720   0.089   3.582  11.214
 2754SOL    HW2 8721   0.194   3.707  11.219
 2755SOL     OW 8722   1.280   2.789   9.982
 2755SOL    HW1 8723   1.340   2.708   9.984
 2755SOL    HW2 8724   1.320   2.858   9.922
 2756SOL     OW 8725   0.830   3.135  10.732
 2756SOL    HW1 8726   0.825   3.168  10.827
 2756SOL    HW2 8727   0.744   3.154  10.686
 2757SOL     OW 8728   0.672   3.478   9.464
 2757SOL    HW1 8729   0.681   3.488   9.365
 2757SOL    HW2 8730   0.632   3.389   9.485
 2758SOL     OW 8731   1.650   3.582  10.704
 2758SOL    HW1 8732   1.703   3.592  10.620
 2758SOL    HW2 8733   1.623   3.672  10.738
 2759SOL     OW 8734   0.263   2.188  10.030
 2759SOL    HW1 8735   0.184   2.239   9.996
 2759SOL    HW2 8736   0.254   2.173  10.128
 2760SOL     OW 8737   1.194   3.474   9.341
 2760SOL    HW1 8738   1.200   3.381   9.378
 2760SOL    HW2 8739   1.135   3.474   9.261
 2761SOL     OW 8740   0.822   2.864  10.682
 2761SOL    HW1 8741   0.862   2.863  10.590
 2761SOL    HW2 8742   0.832   2.956  10.722
 2762SOL     OW 8743   0.916   2.772   9.601
 2762SOL    HW1 8744   0.979   2.810   9.533
 2762SOL    HW2 8745   0.956   2.689   9.640
 2763SOL     OW 8746   1.504   3.469   9.354
 2763SOL    HW1 8747   1.412   3.506   9.361
 2763SOL    HW2 8748   1.542   3.489   9.264
 2764SOL     OW 8749   0.372   3.150  10.800
 2764SOL    HW1 8750   0.359   3.243  10.766
 2764SOL    HW2 8751   0.288   3.098  10.787
 2765SOL     OW 8752   1.614   3.154  10.599
 2765SOL    HW1 8753   1.674   3.157  10.679
 2765SOL    HW2 8754   1.539   3.218  10.612
 2766SOL     OW 8755   1.039   2.960  10.006
 2766SOL    HW1 8756   0.969   2.913  10.060
 2766SOL    HW2 8757   1.098   2.892   9.963
 2767SOL     OW 8758   1.014   2.098  10.281
 2767SOL    HW1 8759   1.006   2.062  10.188
 2767SOL    HW2 8760   1.012   2.022  10.346
 2768SOL     OW 8761   0.590   3.349   9.801
 2768SOL    HW1 8762   0.632   3.291   9.731
 2768SOL    HW2 8763   0.546   3.428   9.757
 2769SOL     OW 8764   1.709   2.247  10.691
 2769SOL    HW1 8765   1.782   2.316  10.695
 2769SOL    HW2 8766   1.737   2.172  10.632
 2770SOL     OW 8767   0.255   3.210   9.600
 2770SOL    HW1 8768   0.159   3.211   9.573
 2770SOL    HW2 8769   0.267   3.263   9.684
 2771SOL     OW 8770   0.105   2.875  11.036
 2771SOL    HW1 8771   0.028   2.842  11.090
 2771SOL    HW2 8772   0.190   2.845  11.078
 2772SOL     OW 8773   0.672   2.065  10.799
 2772SOL    HW1 8774   0.762   2.049  10.759
 2772SOL    HW2 8775   0.680   2.070  10.898
 2773SOL     OW 8776   0.075   2.207   9.343
 2773SOL    HW1 8777  -0.017   2.179   9.314
 2773SOL    HW2 8778   0.106   2.284   9.287
 2774SOL     OW 8779   1.440   2.718  10.708
 2774SOL    HW1 8780   1.383   2.770  10.645
 2774SOL    HW2 8781   1.536   2.730  10.684
 2775SOL     OW 8782   0.072   2.028   9.628
 2775SOL    HW1 8783   0.055   2.111   9.574
 2775SOL    HW2 8784   0.162   1.991   9.606
 2776SOL     OW 8785   1.183   3.197   9.429
 2776SOL    HW1 8786   1.084   3.186   9.431
 2776SOL    HW2 8787   1.217   3.212   9.522
 2777SOL     OW 8788   0.613   2.704  10.741
 2777SOL    HW1 8789   0.669   2.785  10.724
 2777SOL    HW2 8790   0.672   2.624  10.744
 2778SOL     OW 8791   1.493   3.629  10.269
 2778SOL    HW1 8792   1.526   3.693  10.200
 2778SOL    HW2 8793   1.559   3.623  10.344
 2779SOL     OW 8794   0.716   2.427  11.018
 2779SOL    HW1 8795   0.735   2.492  11.092
 2779SOL    HW2 8796   0.776   2.347  11.027
 2780SOL     OW 8797   1.450   3.082  10.943
 2780SOL    HW1 8798   1.441   3.072  11.042
 2780SOL    HW2 8799   1.546   3.075  10.917
 2781SOL     OW 8800   0.390   3.603  10.870
 2781SOL    HW1 8801   0.299   3.644  10.868
 2781SOL    HW2 8802   0.383   3.509  10.902
 2782SOL     OW 8803   1.674   2.745  10.564
 2782SOL    HW1 8804   1.647   2.656  10.527
 2782SOL    HW2 8805   1.675   2.813  10.491
 2783SOL     OW 8806   1.225   2.187   9.759
 2783SOL    HW1 8807   1.290   2.113   9.748
 2783SOL    HW2 8808   1.245   2.237   9.843
 2784SOL     OW 8809   0.594   2.607   9.962
 2784SOL    HW1 8810   0.644   2.692   9.943
 2784SOL    HW2 8811   0.506   2.609   9.914
 2785SOL     OW 8812   1.777   2.204  10.952
 2785SOL    HW1 8813   1.760   2.235  10.858
 2785SOL    HW2 8814   1.693   2.167  10.990
 2786SOL     OW 8815   1.730   2.796  10.827
 2786SOL    HW1 8816   1.768   2.887  10.842
 2786SOL    HW2 8817   1.722   2.779  10.728
 2787SOL     OW 8818   0.859   3.236   9.326
 2787SOL    HW1 8819   0.813   3.251   9.414
 2787SOL    HW2 8820   0.903   3.321   9.296
 2788SOL     OW 8821   0.661   3.652  10.263
 2788SOL    HW1 8822   0.615   3.740  10.250
 2788SOL    HW2 8823   0.760   3.664  10.256
 2789SOL     OW 8824   0.859   2.818  10.171
 2789SOL    HW1 8825   0.913   2.749  10.219
 2789SOL    HW2 8826   0.827   2.887  10.237
 2790SOL     OW 8827   1.083   2.846   9.397
 2790SOL    HW1 8828   1.060   2.899   9.315
 2790SOL    HW2 8829   1.164   2.790   9.378
 2791SOL     OW 8830   1.861   3.431  10.161
 2791SOL    HW1 8831   1.790   3.419  10.091
 2791SOL    HW2 8832   1.862   3.352  10.221
 2792SOL     OW 8833   0.221   3.176  11.154
 2792SOL    HW1 8834   0.156   3.103  11.133
 2792SOL    HW2 8835   0.225   3.190  11.252
 2793SOL     OW 8836   0.079   3.102   9.963
 2793SOL    HW1 8837   0.078   3.055  10.051
 2793SOL    HW2 8838   0.161   3.074   9.912
 2794SOL     OW 8839   0.672   3.253  10.934
 2794SOL    HW1 8840   0.594   3.203  10.972
 2794SOL    HW2 8841   0.669   3.348  10.965
 2795SOL     OW 8842   0.428   2.286   9.830
 2795SOL    HW1 8843   0.458   2.214   9.768
 2795SOL    HW2 8844   0.389   2.246   9.913
 2796SOL     OW 8845   1.705   3.349  10.414
 2796SOL    HW1 8846   1.612   3.324  10.387
 2796SOL    HW2 8847   1.731   3.299  10.496
 2797SOL     OW 8848   0.317   2.409  10.590
 2797SOL    HW1 8849   0.355   2.350  10.662
 2797SOL    HW2 8850   0.357   2.383  10.502
 2798SOL     OW 8851   0.812   3.448   9.997
 2798SOL    HW1 8852   0.844   3.458   9.903
 2798SOL    HW2 8853   0.733   3.386   9.999
 2799SOL     OW 8854   1.424   2.076  10.422
 2799SOL    HW1 8855   1.476   2.011  10.477
 2799SOL    HW2 8856   1.375   2.139  10.483
 2800SOL     OW 8857   1.001   1.896  10.464
 2800SOL    HW1 8858   0.938   1.824  10.433
 2800SOL    HW2 8859   1.094   1.860  10.464
 2801SOL     OW 8860   0.770   3.192   9.611
 2801SOL    HW1 8861   0.724   3.105   9.628
 2801SOL    HW2 8862   0.861   3.189   9.652
 2802SOL     OW 8863   0.618   3.429  10.594
 2802SOL    HW1 8864   0.613   3.511  10.651
 2802SOL    HW2 8865   0.707   3.426  10.549
 2803SOL     OW 8866   1.352   1.914   9.478
 2803SOL    HW1 8867   1.387   1.873   9.394
 2803SOL    HW2 8868   1.262   1.876   9.498
 2804SOL     OW 8869   1.300   2.315  10.001
 2804SOL    HW1 8870   1.241   2.395  10.005
 2804SOL    HW2 8871   1.315   2.280  10.094
 2805SOL     OW 8872   1.593   2.083  10.192
 2805SOL    HW1 8873   1.509   2.082  10.246
 2805SOL    HW2 8874   1.595   2.166  10.136
 2806SOL     OW 8875   0.039   2.939   9.610
 2806SOL    HW1 8876   0.138   2.928   9.601
 2806SOL    HW2 8877  -0.001   2.853   9.642
 2807SOL     OW 8878   0.875   3.508   9.647
 2807SOL    HW1 8879   0.798   3.473   9.593
 2807SOL    HW2 8880   0.843   3.579   9.709
 2808SOL     OW 8881   0.230   2.490  11.285
 2808SOL    HW1 8882   0.137   2.488  11.322
 2808SOL    HW2 8883   0.231   2.451  11.193
 2809SOL     OW 8884   0.225   2.137  12.168
 2809SOL    HW1 8885   0.260   2.120  12.260
 2809SOL    HW2 8886   0.137   2.092  12.156
 2810SOL     OW 8887   0.019   2.230  11.819
 2810SOL    HW1 8888  -0.063   2.273  11.858
 2810SOL    HW2 8889  -0.009   2.157  11.756
 2811SOL     OW 8890   0.569   3.137  12.337
 2811SOL    HW1 8891   0.476   3.130  12.300
 2811SOL    HW2 8892   0.580   3.226  12.381
 2812SOL     OW 8893   1.555   3.373  11.875
 2812SOL    HW1 8894   1.498   3.357  11.956
 2812SOL    HW2 8895   1.496   3.383  11.795
 2813SOL     OW 8896   1.135   2.565  11.889
 2813SOL    HW1 8897   1.192   2.643  11.864
 2813SOL    HW2 8898   1.075   2.591  11.965
 2814SOL     OW 8899   1.755   2.469  11.403
 2814SOL    HW1 8900   1.743   2.456  11.304
 2814SOL    HW2 8901   1.725   2.388  11.452
 2815SOL     OW 8902   0.768   3.006  12.195
 2815SOL    HW1 8903   0.690   3.023  12.255
 2815SOL    HW2 8904   0.802   3.093  12.159
 2816SOL     OW 8905   0.850   2.660  12.995
 2816SOL    HW1 8906   0.846   2.736  13.060
 2816SOL    HW2 8907   0.872   2.696  12.904
 2817SOL     OW 8908   0.685   2.874  11.837
 2817SOL    HW1 8909   0.754   2.858  11.907
 2817SOL    HW2 8910   0.612   2.931  11.875
 2818SOL     OW 8911   0.686   3.023  12.975
 2818SOL    HW1 8912   0.746   3.102  12.989
 2818SOL    HW2 8913   0.600   3.054  12.934
 2819SOL     OW 8914   0.335   3.297  12.233
 2819SOL    HW1 8915   0.257   3.266  12.180
 2819SOL    HW2 8916   0.393   3.355  12.176
 2820SOL     OW 8917   1.460   3.367  12.511
 2820SOL    HW1 8918   1.484   3.461  12.537
 2820SOL    HW2 8919   1.444   3.313  12.593
 2821SOL     OW 8920   0.438   2.254  12.671
 2821SOL    HW1 8921   0.520   2.198  12.680
 2821SOL    HW2 8922   0.357   2.196  12.675
 2822SOL     OW 8923   1.603   2.309  11.909
 2822SOL    HW1 8924   1.529   2.355  11.859
 2822SOL    HW2 8925   1.654   2.377  11.962
 2823SOL     OW 8926   0.231   3.575  11.655
 2823SOL    HW1 8927   0.265   3.652  11.709
 2823SOL    HW2 8928   0.275   3.575  11.565
 2824SOL     OW 8929   1.127   3.203  12.862
 2824SOL    HW1 8930   1.174   3.203  12.950
 2824SOL    HW2 8931   1.079   3.116  12.851
 2825SOL     OW 8932   0.230   3.296  11.710
 2825SOL    HW1 8933   0.204   3.392  11.710
 2825SOL    HW2 8934   0.159   3.242  11.755
 2826SOL     OW 8935   0.240   2.953  12.058
 2826SOL    HW1 8936   0.254   2.869  12.110
 2826SOL    HW2 8937   0.185   3.017  12.113
 2827SOL     OW 8938   0.620   3.648  12.611
 2827SOL    HW1 8939   0.528   3.631  12.646
 2827SOL    HW2 8940   0.648   3.740  12.637
 2828SOL     OW 8941   0.606   2.826  11.295
 2828SOL    HW1 8942   0.613   2.910  11.241
 2828SOL    HW2 8943   0.652   2.839  11.383
 2829SOL     OW 8944   1.594   1.976  12.652
 2829SOL    HW1 8945   1.576   2.043  12.580
 2829SOL    HW2 8946   1.591   2.022  12.741
 2830SOL     OW 8947   0.122   2.505  11.735
 2830SOL    HW1 8948   0.077   2.417  11.752
 2830SOL    HW2 8949   0.121   2.559  11.819
 2831SOL     OW 8950   1.842   3.629  11.531
 2831SOL    HW1 8951   1.896   3.600  11.611
 2831SOL    HW2 8952   1.872   3.719  11.502
 2832SOL     OW 8953   0.027   3.458  11.289
 2832SOL    HW1 8954   0.008   3.362  11.310
 2832SOL    HW2 8955  -0.006   3.516  11.364
 2833SOL     OW 8956   1.689   2.784  11.784
 2833SOL    HW1 8957   1.784   2.755  11.792
 2833SOL    HW2 8958   1.681   2.849  11.709
 2834SOL     OW 8959   1.641   2.970  11.604
 2834SOL    HW1 8960   1.727   2.972  11.552
 2834SOL    HW2 8961   1.655   3.017  11.692
 2835SOL     OW 8962   0.113   2.599  12.769
 2835SOL    HW1 8963   0.201   2.586  12.814
 2835SOL    HW2 8964   0.100   2.696  12.747
 2836SOL     OW 8965   0.613   3.227  11.898
 2836SOL    HW1 8966   0.564   3.140  11.907
 2836SOL    HW2 8967   0.590   3.270  11.811
 2837SOL     OW 8968   1.293   3.090  12.595
 2837SOL    HW1 8969   1.330   3.017  12.537
 2837SOL    HW2 8970   1.345   3.095  12.680
 2838SOL     OW 8971   0.809   1.866  11.674
 2838SOL    HW1 8972   0.849   1.957  11.665
 2838SOL    HW2 8973   0.709   1.874  11.680
 2839SOL     OW 8974   0.197   2.838  12.436
 2839SOL    HW1 8975   0.286   2.793  12.422
 2839SOL    HW2 8976   0.124   2.773  12.417
 2840SOL     OW 8977   1.525   2.861  11.362
 2840SOL    HW1 8978   1.462   2.785  11.375
 2840SOL    HW2 8979   1.573   2.879  11.448
 2841SOL     OW 8980   1.187   3.654  12.788
 2841SOL    HW1 8981   1.211   3.714  12.712
 2841SOL    HW2 8982   1.194   3.559  12.758
 2842SOL     OW 8983   0.317   2.113  12.973
 2842SOL    HW1 8984   0.388   2.184  12.979
 2842SOL    HW2 8985   0.229   2.152  13.001
 2843SOL     OW 8986   1.466   3.279  12.125
 2843SOL    HW1 8987   1.407   3.285  12.205
 2843SOL    HW2 8988   1.451   3.191  12.079
 2844SOL     OW 8989   1.667   3.576  11.744
 2844SOL    HW1 8990   1.626   3.553  11.656
 2844SOL    HW2 8991   1.649   3.502  11.809
 2845SOL     OW 8992   0.598   2.591  11.442
 2845SOL    HW1 8993   0.622   2.660  11.374
 2845SOL    HW2 8994   0.520   2.624  11.496
 2846SOL     OW 8995   1.281   2.207  12.116
 2846SOL    HW1 8996   1.195   2.157  12.103
 2846SOL    HW2 8997   1.343   2.153  12.172
 2847SOL     OW 8998   1.576   3.524  11.479
 2847SOL    HW1 8999   1.665   3.570  11.482
 2847SOL    HW2 9000   1.555   3.500  11.384
 2848SOL     OW 9001   0.807   2.467  12.637
 2848SOL    HW1 9002   0.760   2.464  12.726
 2848SOL    HW2 9003   0.756   2.412  12.571
 2849SOL     OW 9004   1.394   2.331  12.846
 2849SOL    HW1 9005   1.374   2.374  12.934
 2849SOL    HW2 9006   1.472   2.269  12.855
 2850SOL     OW 9007   0.973   2.752  12.744
 2850SOL    HW1 9008   1.019   2.668  12.715
 2850SOL    HW2 9009   0.917   2.786  12.669
 2851SOL     OW 9010   0.991   2.272  12.414
 2851SOL    HW1 9011   0.914   2.306  12.468
 2851SOL    HW2 9012   0.957   2.221  12.335
 2852SOL     OW 9013   1.041   2.563  11.601
 2852SOL    HW1 9014   1.067   2.559  11.697
 2852SOL    HW2 9015   0.956   2.512  11.587
 2853SOL     OW 9016   0.076   2.673  11.961
 2853SOL    HW1 9017   0.175   2.661  11.970
 2853SOL    HW2 9018   0.052   2.768  11.982
 2854SOL     OW 9019   0.130   3.683  12.743
 2854SOL    HW1 9020   0.120   3.668  12.842
 2854SOL    HW2 9021   0.044   3.719  12.707
 2855SOL     OW 9022   0.865   2.210  11.367
 2855SOL    HW1 9023   0.924   2.273  11.318
 2855SOL    HW2 9024   0.884   2.116  11.338
 2856SOL     OW 9025   1.719   2.447  13.003
 2856SOL    HW1 9026   1.693   2.536  12.967
 2856SOL    HW2 9027   1.717   2.379  12.930
 2857SOL     OW 9028   1.362   3.006  11.717
 2857SOL    HW1 9029   1.445   2.977  11.669
 2857SOL    HW2 9030   1.313   3.073  11.661
 2858SOL     OW 9031   0.550   2.058  12.057
 2858SOL    HW1 9032   0.545   2.053  12.157
 2858SOL    HW2 9033   0.552   2.154  12.028
 2859SOL     OW 9034   1.008   3.318  11.649
 2859SOL    HW1 9035   0.962   3.390  11.597
 2859SOL    HW2 9036   1.004   3.338  11.747
 2860SOL     OW 9037   0.351   3.663  12.025
 2860SOL    HW1 9038   0.401   3.577  12.031
 2860SOL    HW2 9039   0.416   3.740  12.022
 2861SOL     OW 9040   1.795   2.928  12.045
 2861SOL    HW1 9041   1.733   2.913  11.969
 2861SOL    HW2 9042   1.743   2.939  12.130
 2862SOL     OW 9043   1.227   3.412  12.678
 2862SOL    HW1 9044   1.233   3.335  12.742
 2862SOL    HW2 9045   1.175   3.386  12.598
 2863SOL     OW 9046   0.321   2.805  11.414
 2863SOL    HW1 9047   0.403   2.844  11.372
 2863SOL    HW2 9048   0.294   2.723  11.365
 2864SOL     OW 9049   1.458   2.597  11.900
 2864SOL    HW1 9050   1.453   2.532  11.975
 2864SOL    HW2 9051   1.538   2.656  11.913
 2865SOL     OW 9052   0.461   3.128  12.899
 2865SOL    HW1 9053   0.411   3.129  12.813
 2865SOL    HW2 9054   0.398   3.110  12.975
 2866SOL     OW 9055   1.111   3.638  11.409
 2866SOL    HW1 9056   1.051   3.576  11.459
 2866SOL    HW2 9057   1.142   3.594  11.324
 2867SOL     OW 9058   0.202   2.147  12.670
 2867SOL    HW1 9059   0.122   2.207  12.657
 2867SOL    HW2 9060   0.192   2.098  12.756
 2868SOL     OW 9061   1.632   3.239  11.253
 2868SOL    HW1 9062   1.600   3.333  11.243
 2868SOL    HW2 9063   1.556   3.176  11.241
 2869SOL     OW 9064   0.464   3.605  11.495
 2869SOL    HW1 9065   0.497   3.644  11.581
 2869SOL    HW2 9066   0.540   3.598  11.430
 2870SOL     OW 9067   1.400   1.969  11.598
 2870SOL    HW1 9068   1.376   1.932  11.508
 2870SOL    HW2 9069   1.499   1.985  11.602
 2871SOL     OW 9070   0.249   3.647  12.413
 2871SOL    HW1 9071   0.306   3.582  12.463
 2871SOL    HW2 9072   0.233   3.614  12.320
 2872SOL     OW 9073   0.940   3.560  12.076
 2872SOL    HW1 9074   1.020   3.503  12.097
 2872SOL    HW2 9075   0.891   3.520  11.999
 2873SOL     OW 9076   0.382   2.562  11.652
 2873SOL    HW1 9077   0.427   2.472  11.649
 2873SOL    HW2 9078   0.288   2.551  11.685
 2874SOL     OW 9079   1.547   2.084  12.901
 2874SOL    HW1 9080   1.542   2.121  12.993
 2874SOL    HW2 9081   1.475   2.015  12.889
 2875SOL     OW 9082   0.614   1.984  11.289
 2875SOL    HW1 9083   0.712   1.962  11.296
 2875SOL    HW2 9084   0.583   1.967  11.196
 2876SOL     OW 9085   0.781   2.126  12.921
 2876SOL    HW1 9086   0.848   2.065  12.964
 2876SOL    HW2 9087   0.708   2.145  12.986
 2877SOL     OW 9088   0.888   3.376  12.367
 2877SOL    HW1 9089   0.865   3.351  12.273
 2877SOL    HW2 9090   0.949   3.307  12.406
 2878SOL     OW 9091   1.351   2.452  12.605
 2878SOL    HW1 9092   1.379   2.409  12.690
 2878SOL    HW2 9093   1.376   2.548  12.606
 2879SOL     OW 9094   0.803   3.264  12.096
 2879SOL    HW1 9095   0.893   3.278  12.054
 2879SOL    HW2 9096   0.732   3.266  12.025
 2880SOL     OW 9097   0.922   2.365  12.071
 2880SOL    HW1 9098   0.897   2.356  11.975
 2880SOL    HW2 9099   0.970   2.283  12.102
 2881SOL     OW 9100   0.539   1.926  11.684
 2881SOL    HW1 9101   0.458   1.927  11.742
 2881SOL    HW2 9102   0.542   2.009  11.629
 2882SOL     OW 9103   1.434   3.050  11.213
 2882SOL    HW1 9104   1.466   2.974  11.270
 2882SOL    HW2 9105   1.342   3.077  11.243
 2883SOL     OW 9106   0.297   1.897  11.343
 2883SOL    HW1 9107   0.346   1.981  11.322
 2883SOL    HW2 9108   0.359   1.832  11.388
 2884SOL     OW 9109   0.935   2.098  11.652
 2884SOL    HW1 9110   0.887   2.139  11.574
 2884SOL    HW2 9111   1.034   2.096  11.633
 2885SOL     OW 9112   1.076   2.545  12.636
 2885SOL    HW1 9113   0.996   2.484  12.639
 2885SOL    HW2 9114   1.157   2.492  12.612
 2886SOL     OW 9115   1.227   3.432  11.965
 2886SOL    HW1 9116   1.248   3.506  11.900
 2886SOL    HW2 9117   1.295   3.432  12.038
 2887SOL     OW 9118   0.459   3.014  11.913
 2887SOL    HW1 9119   0.388   2.987  11.978
 2887SOL    HW2 9120   0.433   2.986  11.820
 2888SOL     OW 9121   1.271   3.659  11.763
 2888SOL    HW1 9122   1.315   3.723  11.699
 2888SOL    HW2 9123   1.221   3.711  11.833
 2889SOL     OW 9124   1.032   2.411  11.188
 2889SOL    HW1 9125   0.991   2.493  11.149
 2889SOL    HW2 9126   1.096   2.437  11.261
 2890SOL     OW 9127   0.078   2.418  12.558
 2890SOL    HW1 9128   0.170   2.417  12.517
 2890SOL    HW2 9129   0.072   2.492  12.625
 2891SOL     OW 9130   0.561   2.084  12.319
 2891SOL    HW1 9131   0.599   2.000  12.356
 2891SOL    HW2 9132   0.473   2.103  12.363
 2892SOL     OW 9133   0.866   2.316  11.814
 2892SOL    HW1 9134   0.834   2.388  11.752
 2892SOL    HW2 9135   0.890   2.235  11.761
 2893SOL     OW 9136   1.017   1.901  11.925
 2893SOL    HW1 9137   0.945   1.906  11.856
 2893SOL    HW2 9138   0.993   1.832  11.994
 2894SOL     OW 9139   1.429   3.035  12.039
 2894SOL    HW1 9140   1.374   2.951  12.032
 2894SOL    HW2 9141   1.455   3.064  11.947
 2895SOL     OW 9142   1.466   2.452  12.164
 2895SOL    HW1 9143   1.436   2.357  12.171
 2895SOL    HW2 9144   1.539   2.468  12.230
 2896SOL     OW 9145   1.857   2.695  11.549
 2896SOL    HW1 9146   1.899   2.631  11.613
 2896SOL    HW2 9147   1.819   2.644  11.471
 2897SOL     OW 9148   0.488   3.247  11.346
 2897SOL    HW1 9149   0.401   3.232  11.393
 2897SOL    HW2 9150   0.471   3.273  11.251
 2898SOL     OW 9151   1.664   3.142  11.829
 2898SOL    HW1 9152   1.763   3.150  11.843
 2898SOL    HW2 9153   1.619   3.226  11.860
 2899SOL     OW 9154   1.390   2.437  11.250
 2899SOL    HW1 9155   1.336   2.416  11.331
 2899SOL    HW2 9156   1.481   2.396  11.259
 2900SOL     OW 9157   0.527   2.118  11.500
 2900SOL    HW1 9158   0.554   2.059  11.425
 2900SOL    HW2 9159   0.527   2.213  11.469
 2901SOL     OW 9160   1.754   3.085  12.760
 2901SOL    HW1 9161   1.845   3.046  12.747
 2901SOL    HW2 9162   1.762   3.181  12.784
 2902SOL     OW 9163   1.064   3.209  12.512
 2902SOL    HW1 9164   0.984   3.186  12.567
 2902SOL    HW2 9165   1.147   3.183  12.561
 2903SOL     OW 9166   1.592   3.491  12.797
 2903SOL    HW1 9167   1.619   3.525  12.707
 2903SOL    HW2 9168   1.671   3.453  12.843
 2904SOL     OW 9169   1.111   3.057  12.272
 2904SOL    HW1 9170   1.071   3.101  12.353
 2904SOL    HW2 9171   1.070   3.094  12.189
 2905SOL     OW 9172   1.638   2.961  12.251
 2905SOL    HW1 9173   1.643   3.042  12.310
 2905SOL    HW2 9174   1.552   2.963  12.200
 2906SOL     OW 9175   0.915   1.951  12.574
 2906SOL    HW1 9176   0.940   1.931  12.479
 2906SOL    HW2 9177   0.987   2.007  12.616
 2907SOL     OW 9178   0.980   2.978  12.891
 2907SOL    HW1 9179   0.881   2.984  12.901
 2907SOL    HW2 9180   1.003   2.898  12.835
 2908SOL     OW 9181   0.705   2.912  11.540
 2908SOL    HW1 9182   0.691   2.919  11.639
 2908SOL    HW2 9183   0.789   2.861  11.522
 2909SOL     OW 9184   0.410   2.675  12.423
 2909SOL    HW1 9185   0.496   2.687  12.473
 2909SOL    HW2 9186   0.368   2.588  12.450
 2910SOL     OW 9187   1.274   2.248  12.434
 2910SOL    HW1 9188   1.295   2.322  12.498
 2910SOL    HW2 9189   1.185   2.265  12.391
 2911SOL     OW 9190   0.064   3.426  12.503
 2911SOL    HW1 9191   0.018   3.508  12.469
 2911SOL    HW2 9192   0.162   3.445  12.512
 2912SOL     OW 9193   0.367   2.962  11.673
 2912SOL    HW1 9194   0.360   3.045  11.617
 2912SOL    HW2 9195   0.371   2.882  11.613
 2913SOL     OW 9196   0.566   2.399  12.037
 2913SOL    HW1 9197   0.578   2.465  11.963
 2913SOL    HW2 9198   0.612   2.433  12.120
 2914SOL     OW 9199   1.252   3.210  11.560
 2914SOL    HW1 9200   1.302   3.287  11.600
 2914SOL    HW2 9201   1.157   3.212  11.592
 2915SOL     OW 9202   1.272   3.307  12.314
 2915SOL    HW1 9203   1.319   3.320  12.401
 2915SOL    HW2 9204   1.206   3.233  12.323
 2916SOL     OW 9205   1.582   2.501  11.644
 2916SOL    HW1 9206   1.551   2.562  11.717
 2916SOL    HW2 9207   1.632   2.553  11.575
 2917SOL     OW 9208   0.354   3.372  12.501
 2917SOL    HW1 9209   0.333   3.328  12.414
 2917SOL    HW2 9210   0.451   3.398  12.504
 2918SOL     OW 9211   0.402   2.613  12.770
 2918SOL    HW1 9212   0.470   2.668  12.723
 2918SOL    HW2 9213   0.442   2.525  12.797
 2919SOL     OW 9214   1.587   2.641  12.842
 2919SOL    HW1 9215   1.495   2.679  12.837
 2919SOL    HW2 9216   1.647   2.688  12.777
 2920SOL     OW 9217   1.013   1.967  12.942
 2920SOL    HW1 9218   1.019   2.052  12.890
 2920SOL    HW2 9219   1.045   1.891  12.885
 2921SOL     OW 9220   0.504   1.912  12.912
 2921SOL    HW1 9221   0.462   1.855  12.842
 2921SOL    HW2 9222   0.438   1.981  12.944
 2922SOL     OW 9223   0.573   2.732  12.201
 2922SOL    HW1 9224   0.617   2.821  12.192
 2922SOL    HW2 9225   0.510   2.732  12.278
 2923SOL     OW 9226   1.360   2.724  12.217
 2923SOL    HW1 9227   1.285   2.724  12.151
 2923SOL    HW2 9228   1.397   2.632  12.226
 2924SOL     OW 9229   1.209   2.387  11.447
 2924SOL    HW1 9230   1.222   2.303  11.501
 2924SOL    HW2 9231   1.180   2.461  11.507
 2925SOL     OW 9232   0.307   2.075  12.403
 2925SOL    HW1 9233   0.284   2.112  12.493
 2925SOL    HW2 9234   0.277   1.980  12.397
 2926SOL     OW 9235   0.037   3.172  12.454
 2926SOL    HW1 9236   0.090   3.123  12.522
 2926SOL    HW2 9237   0.059   3.270  12.459
 2927SOL     OW 9238   0.732   2.496  12.236
 2927SOL    HW1 9239   0.791   2.470  12.160
 2927SOL    HW2 9240   0.704   2.592  12.225
 2928SOL     OW 9241   1.728   2.797  13.026
 2928SOL    HW1 9242   1.682   2.790  12.937
 2928SOL    HW2 9243   1.666   2.841  13.092
 2929SOL     OW 9244   0.307   1.925  11.790
 2929SOL    HW1 9245   0.296   2.019  11.823
 2929SOL    HW2 9246   0.302   1.862  11.867
 2930SOL     OW 9247   1.622   2.229  11.546
 2930SOL    HW1 9248   1.624   2.153  11.610
 2930SOL    HW2 9249   1.574   2.306  11.586
 2931SOL     OW 9250   1.023   2.628  12.138
 2931SOL    HW1 9251   1.038   2.649  12.234
 2931SOL    HW2 9252   0.993   2.533  12.129
 2932SOL     OW 9253   0.980   3.435  12.872
 2932SOL    HW1 9254   0.960   3.479  12.784
 2932SOL    HW2 9255   1.019   3.344  12.856
 2933SOL     OW 9256   1.859   3.380  12.777
 2933SOL    HW1 9257   1.873   3.407  12.682
 2933SOL    HW2 9258   1.942   3.402  12.830
 2934SOL     OW 9259   0.350   2.760  12.976
 2934SOL    HW1 9260   0.426   2.804  13.024
 2934SOL    HW2 9261   0.385   2.713  12.894
 2935SOL     OW 9262   1.540   2.136  11.297
 2935SOL    HW1 9263   1.479   2.061  11.320
 2935SOL    HW2 9264   1.562   2.188  11.380
 2936SOL     OW 9265   1.303   2.700  11.214
 2936SOL    HW1 9266   1.337   2.607  11.229
 2936SOL    HW2 9267   1.321   2.727  11.119
 2937SOL     OW 9268   1.068   3.195  12.021
 2937SOL    HW1 9269   1.075   3.111  11.966
 2937SOL    HW2 9270   1.130   3.264  11.985
 2938SOL     OW 9271   0.319   2.672  12.121
 2938SOL    HW1 9272   0.412   2.708  12.126
 2938SOL    HW2 9273   0.313   2.587  12.173
 2939SOL     OW 9274   0.339   2.371  12.178
 2939SOL    HW1 9275   0.287   2.288  12.161
 2939SOL    HW2 9276   0.416   2.376  12.114
 2940SOL     OW 9277   1.138   2.242  12.850
 2940SOL    HW1 9278   1.093   2.305  12.914
 2940SOL    HW2 9279   1.231   2.273  12.833
 2941SOL     OW 9280   1.160   2.069  12.649
 2941SOL    HW1 9281   1.160   2.133  12.726
 2941SOL    HW2 9282   1.188   2.117  12.566
 2942SOL     OW 9283   0.008   3.188  11.372
 2942SOL    HW1 9284  -0.085   3.209  11.341
 2942SOL    HW2 9285   0.018   3.089  11.385
 2943SOL     OW 9286   0.088   3.663  12.099
 2943SOL    HW1 9287   0.046   3.577  12.072
 2943SOL    HW2 9288   0.182   3.666  12.065
 2944SOL     OW 9289   0.504   3.430  12.082
 2944SOL    HW1 9290   0.570   3.504  12.091
 2944SOL    HW2 9291   0.548   3.351  12.040
 2945SOL     OW 9292   1.002   2.658  12.410
 2945SOL    HW1 9293   1.043   2.626  12.496
 2945SOL    HW2 9294   0.906   2.631  12.407
 2946SOL     OW 9295   0.040   2.406  12.286
 2946SOL    HW1 9296   0.125   2.373  12.245
 2946SOL    HW2 9297   0.053   2.421  12.384
 2947SOL     OW 9298   0.189   2.382  12.894
 2947SOL    HW1 9299   0.248   2.342  12.824
 2947SOL    HW2 9300   0.131   2.453  12.853
 2948SOL     OW 9301   1.369   2.812  12.832
 2948SOL    HW1 9302   1.408   2.901  12.852
 2948SOL    HW2 9303   1.379   2.792  12.735
 2949SOL     OW 9304   0.815   2.434  11.497
 2949SOL    HW1 9305   0.822   2.345  11.451
 2949SOL    HW2 9306   0.721   2.468  11.489
 2950SOL     OW 9307   1.657   2.466  12.378
 2950SOL    HW1 9308   1.619   2.397  12.440
 2950SOL    HW2 9309   1.739   2.430  12.334
 2951SOL     OW 9310   0.252   3.426  12.916
 2951SOL    HW1 9311   0.222   3.483  12.992
 2951SOL    HW2 9312   0.245   3.329  12.942
 2952SOL     OW 9313   0.671   2.326  12.441
 2952SOL    HW1 9314   0.637   2.237  12.411
 2952SOL    HW2 9315   0.697   2.380  12.361
 2953SOL     OW 9316   0.930   3.540  12.637
 2953SOL    HW1 9317   0.906   3.522  12.542
 2953SOL    HW2 9318   0.960   3.634  12.647
 2954SOL     OW 9319   0.473   2.362  11.363
 2954SOL    HW1 9320   0.534   2.442  11.367
 2954SOL    HW2 9321   0.378   2.393  11.370
 2955SOL     OW 9322   0.159   2.999  12.638
 2955SOL    HW1 9323   0.181   2.938  12.714
 2955SOL    HW2 9324   0.169   2.950  12.552
 2956SOL     OW 9325   1.347   2.921  12.406
 2956SOL    HW1 9326   1.371   2.858  12.332
 2956SOL    HW2 9327   1.257   2.961  12.388
 2957SOL     OW 9328   1.302   2.717  11.481
 2957SOL    HW1 9329   1.216   2.686  11.523
 2957SOL    HW2 9330   1.298   2.703  11.382
 2958SOL     OW 9331   1.759   3.609  12.326
 2958SOL    HW1 9332   1.820   3.639  12.253
 2958SOL    HW2 9333   1.721   3.520  12.304
 2959SOL     OW 9334   1.252   3.593  12.300
 2959SOL    HW1 9335   1.336   3.598  12.246
 2959SOL    HW2 9336   1.229   3.497  12.318
 2960SOL     OW 9337   0.083   3.120  12.194
 2960SOL    HW1 9338   0.078   3.119  12.294
 2960SOL    HW2 9339   0.000   3.079  12.156
 2961SOL     OW 9340   0.688   3.524  12.888
 2961SOL    HW1 9341   0.632   3.605  12.897
 2961SOL    HW2 9342   0.740   3.528  12.802
 2962SOL     OW 9343   1.388   3.435  11.649
 2962SOL    HW1 9344   1.455   3.447  11.575
 2962SOL    HW2 9345   1.348   3.524  11.672
 2963SOL     OW 9346   0.130   3.656  13.023
 2963SOL    HW1 9347   0.089   3.582  13.076
 2963SOL    HW2 9348   0.194   3.707  13.081
 2964SOL     OW 9349   1.280   2.789  11.844
 2964SOL    HW1 9350   1.340   2.708  11.846
 2964SOL    HW2 9351   1.320   2.858  11.784
 2965SOL     OW 9352   0.830   3.135  12.594
 2965SOL    HW1 9353   0.825   3.168  12.689
 2965SOL    HW2 9354   0.744   3.154  12.548
 2966SOL     OW 9355   0.672   3.478  11.326
 2966SOL    HW1 9356   0.681   3.488  11.227
 2966SOL    HW2 9357   0.632   3.389  11.347
 2967SOL     OW 9358   1.650   3.582  12.566
 2967SOL    HW1 9359   1.703   3.592  12.482
 2967SOL    HW2 9360   1.623   3.672  12.600
 2968SOL     OW 9361   0.263   2.188  11.892
 2968SOL    HW1 9362   0.184   2.239  11.858
 2968SOL    HW2 9363   0.254   2.173  11.990
 2969SOL     OW 9364   1.194   3.474  11.203
 2969SOL    HW1 9365   1.200   3.381  11.240
 2969SOL    HW2 9366   1.135   3.474  11.123
 2970SOL     OW 9367   0.822   2.864  12.544
 2970SOL    HW1 9368   0.862   2.863  12.452
 2970SOL    HW2 9369   0.832   2.956  12.584
 2971SOL     OW 9370   0.916   2.772  11.463
 2971SOL    HW1 9371   0.979   2.810  11.395
 2971SOL    HW2 9372   0.956   2.689  11.502
 2972SOL     OW 9373   1.504   3.469  11.216
 2972SOL    HW1 9374   1.412   3.506  11.223
 2972SOL    HW2 9375   1.542   3.489  11.126
 2973SOL     OW 9376   0.372   3.150  12.662
 2973SOL    HW1 9377   0.359   3.243  12.628
 2973SOL    HW2 9378   0.288   3.098  12.649
 2974SOL     OW 9379   1.614   3.154  12.461
 2974SOL    HW1 9380   1.674   3.157  12.541
 2974SOL    HW2 9381   1.539   3.218  12.474
 2975SOL     OW 9382   1.039   2.960  11.868
 2975SOL    HW1 9383   0.969   2.913  11.922
 2975SOL    HW2 9384   1.098   2.892  11.825
 2976SOL     OW 9385   1.014   2.098  12.143
 2976SOL    HW1 9386   1.006   2.062  12.050
 2976SOL    HW2 9387   1.012   2.022  12.208
 2977SOL     OW 9388   0.590   3.349  11.663
 2977SOL    HW1 9389   0.632   3.291  11.593
 2977SOL    HW2 9390   0.546   3.428  11.619
 2978SOL     OW 9391   1.709   2.247  12.553
 2978SOL    HW1 9392   1.782   2.316  12.557
 2978SOL    HW2 9393   1.737   2.172  12.494
 2979SOL     OW 9394   0.255   3.210  11.462
 2979SOL    HW1 9395   0.159   3.211  11.435
 2979SOL    HW2 9396   0.267   3.263  11.546
 2980SOL     OW 9397   0.105   2.875  12.898
 2980SOL    HW1 9398   0.028   2.842  12.952
 2980SOL    HW2 9399   0.190   2.845  12.940
 2981SOL     OW 9400   0.672   2.065  12.661
 2981SOL    HW1 9401   0.762   2.049  12.621
 2981SOL    HW2 9402   0.680   2.070  12.760
 2982SOL     OW 9403   0.075   2.207  11.205
 2982SOL    HW1 9404  -0.017   2.179  11.176
 2982SOL    HW2 9405   0.106   2.284  11.149
 2983SOL     OW 9406   1.440   2.718  12.570
 2983SOL    HW1 9407   1.383   2.770  12.507
 2983SOL    HW2 9408   1.536   2.730  12.546
 2984SOL     OW 9409   0.072   2.028  11.490
 2984SOL    HW1 9410   0.055   2.111  11.436
 2984SOL    HW2 9411   0.162   1.991  11.468
 2985SOL     OW 9412   1.183   3.197  11.291
 2985SOL    HW1 9413   1.084   3.186  11.293
 2985SOL    HW2 9414   1.217   3.212  11.384
 2986SOL     OW 9415   0.613   2.704  12.603
 2986SOL    HW1 9416   0.669   2.785  12.586
 2986SOL    HW2 9417   0.672   2.624  12.606
 2987SOL     OW 9418   1.493   3.629  12.131
 2987SOL    HW1 9419   1.526   3.693  12.062
 2987SOL    HW2 9420   1.559   3.623  12.206
 2988SOL     OW 9421   0.716   2.427  12.880
 2988SOL    HW1 9422   0.735   2.492  12.954
 2988SOL    HW2 9423   0.776   2.347  12.889
 2989SOL     OW 9424   1.450   3.082  12.805
 2989SOL    HW1 9425   1.441   3.072  12.904
 2989SOL    HW2 9426   1.546   3.075  12.779
 2990SOL     OW 9427   0.390   3.603  12.732
 2990SOL    HW1 9428   0.299   3.644  12.730
 2990SOL    HW2 9429   0.383   3.509  12.764
 2991SOL     OW 9430   1.674   2.745  12.426
 2991SOL    HW1 9431   1.647   2.656  12.389
 2991SOL    HW2 9432   1.675   2.813  12.353
 2992SOL     OW 9433   1.225   2.187  11.621
 2992SOL    HW1 9434   1.290   2.113  11.610
 2992SOL    HW2 9435   1.245   2.237  11.705
 2993SOL     OW 9436   0.594   2.607  11.824
 2993SOL    HW1 9437   0.644   2.692  11.805
 2993SOL    HW2 9438   0.506   2.609  11.776
 2994SOL     OW 9439   1.777   2.204  12.814
 2994SOL    HW1 9440   1.760   2.235  12.720
 2994SOL    HW2 9441   1.693   2.167  12.852
 2995SOL     OW 9442   1.730   2.796  12.689
 2995SOL    HW1 9443   1.768   2.887  12.704
 2995SOL    HW2 9444   1.722   2.779  12.590
 2996SOL     OW 9445   0.859   3.236  11.188
 2996SOL    HW1 9446   0.813   3.251  11.276
 2996SOL    HW2 9447   0.903   3.321  11.158
 2997SOL     OW 9448   0.661   3.652  12.125
 2997SOL    HW1 9449   0.615   3.740  12.112
 2997SOL    HW2 9450   0.760   3.664  12.118
 2998SOL     OW 9451   0.859   2.818  12.033
 2998SOL    HW1 9452   0.913   2.749  12.081
 2998SOL    HW2 9453   0.827   2.887  12.099
 2999SOL     OW 9454   1.083   2.846  11.259
 2999SOL    HW1 9455   1.060   2.899  11.177
 2999SOL    HW2 9456   1.164   2.790  11.240
 3000SOL     OW 9457   1.861   3.431  12.023
 3000SOL    HW1 9458   1.790   3.419  11.953
 3000SOL    HW2 9459   1.862   3.352  12.083
 3001SOL     OW 9460   0.221   3.176  13.016
 3001SOL    HW1 9461   0.156   3.103  12.995
 3001SOL    HW2 9462   0.225   3.190  13.114
 3002SOL     OW 9463   0.079   3.102  11.825
 3002SOL    HW1 9464   0.078   3.055  11.913
 3002SOL    HW2 9465   0.161   3.074  11.774
 3003SOL     OW 9466   0.672   3.253  12.796
 3003SOL    HW1 9467   0.594   3.203  12.834
 3003SOL    HW2 9468   0.669   3.348  12.827
 3004SOL     OW 9469   0.428   2.286  11.692
 3004SOL    HW1 9470   0.458   2.214  11.630
 3004SOL    HW2 9471   0.389   2.246  11.775
 3005SOL     OW 9472   1.705   3.349  12.276
 3005SOL    HW1 9473   1.612   3.324  12.249
 3005SOL    HW2 9474   1.731   3.299  12.358
 3006SOL     OW 9475   0.317   2.409  12.452
 3006SOL    HW1 9476   0.355   2.350  12.524
 3006SOL    HW2 9477   0.357   2.383  12.364
 3007SOL     OW 9478   0.812   3.448  11.859
 3007SOL    HW1 9479   0.844   3.458  11.765
 3007SOL    HW2 9480   0.733   3.386  11.861
 3008SOL     OW 9481   1.424   2.076  12.284
 3008SOL    HW1 9482   1.476   2.011  12.339
 3008SOL    HW2 9483   1.375   2.139  12.345
 3009SOL     OW 9484   1.001   1.896  12.326
 3009SOL    HW1 9485   0.938   1.824  12.295
 3009SOL    HW2 9486   1.094   1.860  12.326
 3010SOL     OW 9487   0.770   3.192  11.473
 3010SOL    HW1 9488   0.724   3.105  11.490
 3010SOL    HW2 9489   0.861   3.189  11.514
 3011SOL     OW 9490   0.618   3.429  12.456
 3011SOL    HW1 9491   0.613   3.511  12.513
 3011SOL    HW2 9492   0.707   3.426  12.411
 3012SOL     OW 9493   1.352   1.914  11.340
 3012SOL    HW1 9494   1.387   1.873  11.256
 3012SOL    HW2 9495   1.262   1.876  11.360
 3013SOL     OW 9496   1.300   2.315  11.863
 3013SOL    HW1 9497   1.241   2.395  11.867
 3013SOL    HW2 9498   1.315   2.280  11.956
 3014SOL     OW 9499   1.593   2.083  12.054
 3014SOL    HW1 9500   1.509   2.082  12.108
 3014SOL    HW2 9501   1.595   2.166  11.998
 3015SOL     OW 9502   0.039   2.939  11.472
 3015SOL    HW1 9503   0.138   2.928  11.463
 3015SOL    HW2 9504  -0.001   2.853  11.504
 3016SOL     OW 9505   0.875   3.508  11.509
 3016SOL    HW1 9506   0.798   3.473  11.455
 3016SOL    HW2 9507   0.843   3.579  11.571
 3017SOL     OW 9508   0.230   2.490  13.147
 3017SOL    HW1 9509   0.137   2.488  13.184
 3017SOL    HW2 9510   0.231   2.451  13.055
 3018SOL     OW 9511   0.225   2.137  14.030
 3018SOL    HW1 9512   0.260   2.120  14.122
 3018SOL    HW2 9513   0.137   2.092  14.018
 3019SOL     OW 9514   0.019   2.230  13.681
 3019SOL    HW1 9515  -0.063   2.273  13.720
 3019SOL    HW2 9516  -0.009   2.157  13.618
 3020SOL     OW 9517   1.555   3.373  13.737
 3020SOL    HW1 9518   1.498   3.357  13.818
 3020SOL    HW2 9519   1.496   3.383  13.657
 3021SOL     OW 9520   1.135   2.565  13.751
 3021SOL    HW1 9521   1.192   2.643  13.726
 3021SOL    HW2 9522   1.075   2.591  13.827
 3022SOL     OW 9523   1.755   2.469  13.265
 3022SOL    HW1 9524   1.743   2.456  13.166
 3022SOL    HW2 9525   1.725   2.388  13.314
 3023SOL     OW 9526   0.685   2.874  13.699
 3023SOL    HW1 9527   0.754   2.858  13.769
 3023SOL    HW2 9528   0.612   2.931  13.737
 3024SOL     OW 9529   1.603   2.309  13.771
 3024SOL    HW1 9530   1.529   2.355  13.721
 3024SOL    HW2 9531   1.654   2.377  13.824
 3025SOL     OW 9532   0.231   3.575  13.517
 3025SOL    HW1 9533   0.265   3.652  13.571
 3025SOL    HW2 9534   0.275   3.575  13.427
 3026SOL     OW 9535   0.230   3.296  13.572
 3026SOL    HW1 9536   0.204   3.392  13.572
 3026SOL    HW2 9537   0.159   3.242  13.617
 3027SOL     OW 9538   0.240   2.953  13.920
 3027SOL    HW1 9539   0.254   2.869  13.972
 3027SOL    HW2 9540   0.185   3.017  13.975
 3028SOL     OW 9541   0.606   2.826  13.157
 3028SOL    HW1 9542   0.613   2.910  13.103
 3028SOL    HW2 9543   0.652   2.839  13.245
 3029SOL     OW 9544   0.122   2.505  13.597
 3029SOL    HW1 9545   0.077   2.417  13.614
 3029SOL    HW2 9546   0.121   2.559  13.681
 3030SOL     OW 9547   1.842   3.629  13.393
 3030SOL    HW1 9548   1.896   3.600  13.473
 3030SOL    HW2 9549   1.872   3.719  13.364
 3031SOL     OW 9550   0.027   3.458  13.151
 3031SOL    HW1 9551   0.008   3.362  13.172
 3031SOL    HW2 9552  -0.006   3.516  13.226
 3032SOL     OW 9553   1.689   2.784  13.646
 3032SOL    HW1 9554   1.784   2.755  13.654
 3032SOL    HW2 9555   1.681   2.849  13.571
 3033SOL     OW 9556   1.641   2.970  13.466
 3033SOL    HW1 9557   1.727   2.972  13.414
 3033SOL    HW2 9558   1.655   3.017  13.554
 3034SOL     OW 9559   0.613   3.227  13.760
 3034SOL    HW1 9560   0.564   3.140  13.769
 3034SOL    HW2 9561   0.590   3.270  13.673
 3035SOL     OW 9562   0.809   1.866  13.536
 3035SOL    HW1 9563   0.849   1.957  13.527
 3035SOL    HW2 9564   0.709   1.874  13.542
 3036SOL     OW 9565   1.525   2.861  13.224
 3036SOL    HW1 9566   1.462   2.785  13.237
 3036SOL    HW2 9567   1.573   2.879  13.310
 3037SOL     OW 9568   1.667   3.576  13.606
 3037SOL    HW1 9569   1.626   3.553  13.518
 3037SOL    HW2 9570   1.649   3.502  13.671
 3038SOL     OW 9571   0.598   2.591  13.304
 3038SOL    HW1 9572   0.622   2.660  13.236
 3038SOL    HW2 9573   0.520   2.624  13.358
 3039SOL     OW 9574   1.281   2.207  13.978
 3039SOL    HW1 9575   1.195   2.157  13.965
 3039SOL    HW2 9576   1.343   2.153  14.034
 3040SOL     OW 9577   1.576   3.524  13.341
 3040SOL    HW1 9578   1.665   3.570  13.344
 3040SOL    HW2 9579   1.555   3.500  13.246
 3041SOL     OW 9580   1.041   2.563  13.463
 3041SOL    HW1 9581   1.067   2.559  13.559
 3041SOL    HW2 9582   0.956   2.512  13.449
 3042SOL     OW 9583   0.076   2.673  13.823
 3042SOL    HW1 9584   0.175   2.661  13.832
 3042SOL    HW2 9585   0.052   2.768  13.844
 3043SOL     OW 9586   0.865   2.210  13.229
 3043SOL    HW1 9587   0.924   2.273  13.180
 3043SOL    HW2 9588   0.884   2.116  13.200
 3044SOL     OW 9589   1.362   3.006  13.579
 3044SOL    HW1 9590   1.445   2.977  13.531
 3044SOL    HW2 9591   1.313   3.073  13.523
 3045SOL     OW 9592   1.008   3.318  13.511
 3045SOL    HW1 9593   0.962   3.390  13.459
 3045SOL    HW2 9594   1.004   3.338  13.609
 3046SOL     OW 9595   0.351   3.663  13.887
 3046SOL    HW1 9596   0.401   3.577  13.893
 3046SOL    HW2 9597   0.416   3.740  13.884
 3047SOL     OW 9598   1.795   2.928  13.907
 3047SOL    HW1 9599   1.733   2.913  13.831
 3047SOL    HW2 9600   1.743   2.939  13.992
 3048SOL     OW 9601   0.321   2.805  13.276
 3048SOL    HW1 9602   0.403   2.844  13.234
 3048SOL    HW2 9603   0.294   2.723  13.227
 3049SOL     OW 9604   1.458   2.597  13.762
 3049SOL    HW1 9605   1.453   2.532  13.837
 3049SOL    HW2 9606   1.538   2.656  13.775
 3050SOL     OW 9607   1.111   3.638  13.271
 3050SOL    HW1 9608   1.051   3.576  13.321
 3050SOL    HW2 9609   1.142   3.594  13.186
 3051SOL     OW 9610   1.632   3.239  13.115
 3051SOL    HW1 9611   1.600   3.333  13.105
 3051SOL    HW2 9612   1.556   3.176  13.103
 3052SOL     OW 9613   0.464   3.605  13.357
 3052SOL    HW1 9614   0.497   3.644  13.443
 3052SOL    HW2 9615   0.540   3.598  13.292
 3053SOL     OW 9616   1.400   1.969  13.460
 3053SOL    HW1 9617   1.376   1.932  13.370
 3053SOL    HW2 9618   1.499   1.985  13.464
 3054SOL     OW 9619   0.940   3.560  13.938
 3054SOL    HW1 9620   1.020   3.503  13.959
 3054SOL    HW2 9621   0.891   3.520  13.861
 3055SOL     OW 9622   0.382   2.562  13.514
 3055SOL    HW1 9623   0.427   2.472  13.511
 3055SOL    HW2 9624   0.288   2.551  13.547
 3056SOL     OW 9625   0.614   1.984  13.151
 3056SOL    HW1 9626   0.712   1.962  13.158
 3056SOL    HW2 9627   0.583   1.967  13.058
 3057SOL     OW 9628   0.539   1.926  13.546
 3057SOL    HW1 9629   0.458   1.927  13.604
 3057SOL    HW2 9630   0.542   2.009  13.491
 3058SOL     OW 9631   1.434   3.050  13.075
 3058SOL    HW1 9632   1.466   2.974  13.132
 3058SOL    HW2 9633   1.342   3.077  13.105
 3059SOL     OW 9634   0.297   1.897  13.205
 3059SOL    HW1 9635   0.346   1.981  13.184
 3059SOL    HW2 9636   0.359   1.832  13.250
 3060SOL     OW 9637   0.935   2.098  13.514
 3060SOL    HW1 9638   0.887   2.139  13.436
 3060SOL    HW2 9639   1.034   2.096  13.495
 3061SOL     OW 9640   0.459   3.014  13.775
 3061SOL    HW1 9641   0.388   2.987  13.840
 3061SOL    HW2 9642   0.433   2.986  13.682
 3062SOL     OW 9643   1.271   3.659  13.625
 3062SOL    HW1 9644   1.315   3.723  13.561
 3062SOL    HW2 9645   1.221   3.711  13.695
 3063SOL     OW 9646   1.032   2.411  13.050
 3063SOL    HW1 9647   0.991   2.493  13.011
 3063SOL    HW2 9648   1.096   2.437  13.123
 3064SOL     OW 9649   0.866   2.316  13.676
 3064SOL    HW1 9650   0.834   2.388  13.614
 3064SOL    HW2 9651   0.890   2.235  13.623
 3065SOL     OW 9652   1.017   1.901  13.787
 3065SOL    HW1 9653   0.945   1.906  13.718
 3065SOL    HW2 9654   0.993   1.832  13.856
 3066SOL     OW 9655   1.857   2.695  13.411
 3066SOL    HW1 9656   1.899   2.631  13.475
 3066SOL    HW2 9657   1.819   2.644  13.333
 3067SOL     OW 9658   0.488   3.247  13.208
 3067SOL    HW1 9659   0.401   3.232  13.255
 3067SOL    HW2 9660   0.471   3.273  13.113
 3068SOL     OW 9661   1.664   3.142  13.691
 3068SOL    HW1 9662   1.763   3.150  13.705
 3068SOL    HW2 9663   1.619   3.226  13.722
 3069SOL     OW 9664   1.390   2.437  13.112
 3069SOL    HW1 9665   1.336   2.416  13.193
 3069SOL    HW2 9666   1.481   2.396  13.121
 3070SOL     OW 9667   0.527   2.118  13.362
 3070SOL    HW1 9668   0.554   2.059  13.287
 3070SOL    HW2 9669   0.527   2.213  13.331
 3071SOL     OW 9670   0.705   2.912  13.402
 3071SOL    HW1 9671   0.691   2.919  13.501
 3071SOL    HW2 9672   0.789   2.861  13.384
 3072SOL     OW 9673   0.367   2.962  13.535
 3072SOL    HW1 9674   0.360   3.045  13.479
 3072SOL    HW2 9675   0.371   2.882  13.475
 3073SOL     OW 9676   0.566   2.399  13.899
 3073SOL    HW1 9677   0.578   2.465  13.825
 3073SOL    HW2 9678   0.612   2.433  13.982
 3074SOL     OW 9679   1.252   3.210  13.422
 3074SOL    HW1 9680   1.302   3.287  13.462
 3074SOL    HW2 9681   1.157   3.212  13.454
 3075SOL     OW 9682   1.582   2.501  13.506
 3075SOL    HW1 9683   1.551   2.562  13.579
 3075SOL    HW2 9684   1.632   2.553  13.437
 3076SOL     OW 9685   1.209   2.387  13.309
 3076SOL    HW1 9686   1.222   2.303  13.363
 3076SOL    HW2 9687   1.180   2.461  13.369
 3077SOL     OW 9688   0.307   1.925  13.652
 3077SOL    HW1 9689   0.296   2.019  13.685
 3077SOL    HW2 9690   0.302   1.862  13.729
 3078SOL     OW 9691   1.622   2.229  13.408
 3078SOL    HW1 9692   1.624   2.153  13.472
 3078SOL    HW2 9693   1.574   2.306  13.448
 3079SOL     OW 9694   1.540   2.136  13.159
 3079SOL    HW1 9695   1.479   2.061  13.182
 3079SOL    HW2 9696   1.562   2.188  13.242
 3080SOL     OW 9697   1.303   2.700  13.076
 3080SOL    HW1 9698   1.337   2.607  13.091
 3080SOL    HW2 9699   1.321   2.727  12.981
 3081SOL     OW 9700   0.008   3.188  13.234
 3081SOL    HW1 9701  -0.085   3.209  13.203
 3081SOL    HW2 9702   0.018   3.089  13.247
 3082SOL     OW 9703   0.815   2.434  13.359
 3082SOL    HW1 9704   0.822   2.345  13.313
 3082SOL    HW2 9705   0.721   2.468  13.351
 3083SOL     OW 9706   0.473   2.362  13.225
 3083SOL    HW1 9707   0.534   2.442  13.229
 3083SOL    HW2 9708   0.378   2.393  13.232
 3084SOL     OW 9709   1.302   2.717  13.343
 3084SOL    HW1 9710   1.216   2.686  13.385
 3084SOL    HW2 9711   1.298   2.703  13.244
 3085SOL     OW 9712   1.388   3.435  13.511
 3085SOL    HW1 9713   1.455   3.447  13.437
 3085SOL    HW2 9714   1.348   3.524  13.534
 3086SOL     OW 9715   1.280   2.789  13.706
 3086SOL    HW1 9716   1.340   2.708  13.708
 3086SOL    HW2 9717   1.320   2.858  13.646
 3087SOL     OW 9718   0.672   3.478  13.188
 3087SOL    HW1 9719   0.681   3.488  13.089
 3087SOL    HW2 9720   0.632   3.389  13.209
 3088SOL     OW 9721   0.263   2.188  13.754
 3088SOL    HW1 9722   0.184   2.239  13.720
 3088SOL    HW2 9723   0.254   2.173  13.852
 3089SOL     OW 9724   1.194   3.474  13.065
 3089SOL    HW1 9725   1.200   3.381  13.102
 3089SOL    HW2 9726   1.135   3.474  12.985
 3090SOL     OW 9727   0.916   2.772  13.325
 3090SOL    HW1 9728   0.979   2.810  13.257
 3090SOL    HW2 9729   0.956   2.689  13.364
 3091SOL     OW 9730   1.504   3.469  13.078
 3091SOL    HW1 9731   1.412   3.506  13.085
 3091SOL    HW2 9732   1.542   3.489  12.988
 3092SOL     OW 9733   1.039   2.960  13.730
 3092SOL    HW1 9734   0.969   2.913  13.784
 3092SOL    HW2 9735   1.098   2.892  13.687
 3093SOL     OW 9736   0.590   3.349  13.525
 3093SOL    HW1 9737   0.632   3.291  13.455
 3093SOL    HW2 9738   0.546   3.428  13.481
 3094SOL     OW 9739   0.255   3.210  13.324
 3094SOL    HW1 9740   0.159   3.211  13.297
 3094SOL    HW2 9741   0.267   3.263  13.408
 3095SOL     OW 9742   0.075   2.207  13.067
 3095SOL    HW1 9743  -0.017   2.179  13.038
 3095SOL    HW2 9744   0.106   2.284  13.011
 3096SOL     OW 9745   0.072   2.028  13.352
 3096SOL    HW1 9746   0.055   2.111  13.298
 3096SOL    HW2 9747   0.162   1.991  13.330
 3097SOL     OW 9748   1.183   3.197  13.153
 3097SOL    HW1 9749   1.084   3.186  13.155
 3097SOL    HW2 9750   1.217   3.212  13.246
 3098SOL     OW 9751   1.225   2.187  13.483
 3098SOL    HW1 9752   1.290   2.113  13.472
 3098SOL    HW2 9753   1.245   2.237  13.567
 3099SOL     OW 9754   0.594   2.607  13.686
 3099SOL    HW1 9755   0.644   2.692  13.667
 3099SOL    HW2 9756   0.506   2.609  13.638
 3100SOL     OW 9757   0.859   3.236  13.050
 3100SOL    HW1 9758   0.813   3.251  13.138
 3100SOL    HW2 9759   0.903   3.321  13.020
 3101SOL     OW 9760   0.661   3.652  13.987
 3101SOL    HW1 9761   0.615   3.740  13.974
 3101SOL    HW2 9762   0.760   3.664  13.980
 3102SOL     OW 9763   0.859   2.818  13.895
 3102SOL    HW1 9764   0.913   2.749  13.943
 3102SOL    HW2 9765   0.827   2.887  13.961
 3103SOL     OW 9766   1.083   2.846  13.121
 3103SOL    HW1 9767   1.060   2.899  13.039
 3103SOL    HW2 9768   1.164   2.790  13.102
 3104SOL     OW 9769   0.079   3.102  13.687
 3104SOL    HW1 9770   0.078   3.055  13.775
 3104SOL    HW2 9771   0.161   3.074  13.636
 3105SOL     OW 9772   0.428   2.286  13.554
 3105SOL    HW1 9773   0.458   2.214  13.492
 3105SOL    HW2 9774   0.389   2.246  13.637
 3106SOL     OW 9775   1.705   3.349  14.138
 3106SOL    HW1 9776   1.612   3.324  14.111
 3106SOL    HW2 9777   1.731   3.299  14.220
 3107SOL     OW 9778   0.812   3.448  13.721
 3107SOL    HW1 9779   0.844   3.458  13.627
 3107SOL    HW2 9780   0.733   3.386  13.723
 3108SOL     OW 9781   0.770   3.192  13.335
 3108SOL    HW1 9782   0.724   3.105  13.352
 3108SOL    HW2 9783   0.861   3.189  13.376
 3109SOL     OW 9784   1.352   1.914  13.202
 3109SOL    HW1 9785   1.387   1.873  13.118
 3109SOL    HW2 9786   1.262   1.876  13.222
 3110SOL     OW 9787   1.300   2.315  13.725
 3110SOL    HW1 9788   1.241   2.395  13.729
 3110SOL    HW2 9789   1.315   2.280  13.818
 3111SOL     OW 9790   0.039   2.939  13.334
 3111SOL    HW1 9791   0.138   2.928  13.325
 3111SOL    HW2 9792  -0.001   2.853  13.366
 3112SOL     OW 9793   0.875   3.508  13.371
 3112SOL    HW1 9794   0.798   3.473  13.317
 3112SOL    HW2 9795   0.843   3.579  13.433
 3113SOL     OW 9796   0.225   3.999   0.996
 3113SOL    HW1 9797   0.260   3.982   1.088
 3113SOL    HW2 9798   0.137   3.954   0.984
 3114SOL     OW 9799   0.019   4.092   0.647
 3114SOL    HW1 9800  -0.063   4.135   0.686
 3114SOL    HW2 9801  -0.009   4.019   0.584
 3115SOL     OW 9802   1.755   4.331   0.231
 3115SOL    HW1 9803   1.743   4.318   0.132
 3115SOL    HW2 9804   1.725   4.250   0.280
 3116SOL     OW 9805   0.438   4.116   1.499
 3116SOL    HW1 9806   0.520   4.060   1.508
 3116SOL    HW2 9807   0.357   4.058   1.503
 3117SOL     OW 9808   1.594   3.838   1.480
 3117SOL    HW1 9809   1.576   3.905   1.408
 3117SOL    HW2 9810   1.591   3.884   1.569
 3118SOL     OW 9811   0.809   3.728   0.502
 3118SOL    HW1 9812   0.849   3.819   0.493
 3118SOL    HW2 9813   0.709   3.736   0.508
 3119SOL     OW 9814   1.281   4.069   0.944
 3119SOL    HW1 9815   1.195   4.019   0.931
 3119SOL    HW2 9816   1.343   4.015   1.000
 3120SOL     OW 9817   0.550   3.920   0.885
 3120SOL    HW1 9818   0.545   3.915   0.985
 3120SOL    HW2 9819   0.552   4.016   0.856
 3121SOL     OW 9820   0.202   4.009   1.498
 3121SOL    HW1 9821   0.122   4.069   1.485
 3121SOL    HW2 9822   0.192   3.960   1.584
 3122SOL     OW 9823   1.400   3.831   0.426
 3122SOL    HW1 9824   1.376   3.794   0.336
 3122SOL    HW2 9825   1.499   3.847   0.430
 3123SOL     OW 9826   1.547   3.946   1.729
 3123SOL    HW1 9827   1.542   3.983   1.821
 3123SOL    HW2 9828   1.475   3.877   1.717
 3124SOL     OW 9829   0.781   3.988   1.749
 3124SOL    HW1 9830   0.848   3.927   1.792
 3124SOL    HW2 9831   0.708   4.007   1.814
 3125SOL     OW 9832   0.539   3.788   0.512
 3125SOL    HW1 9833   0.458   3.789   0.570
 3125SOL    HW2 9834   0.542   3.871   0.457
 3126SOL     OW 9835   0.297   3.759   0.171
 3126SOL    HW1 9836   0.346   3.843   0.150
 3126SOL    HW2 9837   0.359   3.694   0.216
 3127SOL     OW 9838   0.561   3.946   1.147
 3127SOL    HW1 9839   0.599   3.862   1.184
 3127SOL    HW2 9840   0.473   3.965   1.191
 3128SOL     OW 9841   1.017   3.763   0.753
 3128SOL    HW1 9842   0.945   3.768   0.684
 3128SOL    HW2 9843   0.993   3.694   0.822
 3129SOL     OW 9844   0.915   3.813   1.402
 3129SOL    HW1 9845   0.940   3.793   1.307
 3129SOL    HW2 9846   0.987   3.869   1.444
 3130SOL     OW 9847   1.274   4.110   1.262
 3130SOL    HW1 9848   1.295   4.184   1.326
 3130SOL    HW2 9849   1.185   4.127   1.219
 3131SOL     OW 9850   0.504   3.774   1.740
 3131SOL    HW1 9851   0.462   3.717   1.670
 3131SOL    HW2 9852   0.438   3.843   1.772
 3132SOL     OW 9853   0.307   3.937   1.231
 3132SOL    HW1 9854   0.284   3.974   1.321
 3132SOL    HW2 9855   0.277   3.842   1.225
 3133SOL     OW 9856   1.540   3.998   0.125
 3133SOL    HW1 9857   1.479   3.923   0.148
 3133SOL    HW2 9858   1.562   4.050   0.208
 3134SOL     OW 9859   1.160   3.931   1.477
 3134SOL    HW1 9860   1.160   3.995   1.554
 3134SOL    HW2 9861   1.188   3.979   1.394
 3135SOL     OW 9862   0.903   3.810   0.133
 3135SOL    HW1 9863   0.954   3.811   0.047
 3135SOL    HW2 9864   0.959   3.768   0.204
 3136SOL     OW 9865   1.726   3.859   0.523
 3136SOL    HW1 9866   1.799   3.842   0.456
 3136SOL    HW2 9867   1.695   3.772   0.561
 3137SOL     OW 9868   1.841   3.899   0.963
 3137SOL    HW1 9869   1.880   3.814   0.927
 3137SOL    HW2 9870   1.743   3.901   0.944
 3138SOL     OW 9871   0.672   3.927   1.489
 3138SOL    HW1 9872   0.762   3.911   1.449
 3138SOL    HW2 9873   0.680   3.932   1.588
 3139SOL     OW 9874   0.075   4.069   0.033
 3139SOL    HW1 9875  -0.017   4.041   0.004
 3139SOL    HW2 9876   0.106   4.146  -0.023
 3140SOL     OW 9877   0.072   3.890   0.318
 3140SOL    HW1 9878   0.055   3.973   0.264
 3140SOL    HW2 9879   0.162   3.853   0.296
 3141SOL     OW 9880   1.225   4.049   0.449
 3141SOL    HW1 9881   1.290   3.975   0.438
 3141SOL    HW2 9882   1.245   4.099   0.533
 3142SOL     OW 9883   1.777   4.066   1.642
 3142SOL    HW1 9884   1.760   4.097   1.548
 3142SOL    HW2 9885   1.693   4.029   1.680
 3143SOL     OW 9886   1.824   3.916   1.227
 3143SOL    HW1 9887   1.820   3.826   1.271
 3143SOL    HW2 9888   1.827   3.905   1.128
 3144SOL     OW 9889   1.424   3.938   1.112
 3144SOL    HW1 9890   1.476   3.873   1.167
 3144SOL    HW2 9891   1.375   4.001   1.173
 3145SOL     OW 9892   1.001   3.758   1.154
 3145SOL    HW1 9893   0.938   3.686   1.123
 3145SOL    HW2 9894   1.094   3.722   1.154
 3146SOL     OW 9895   1.352   3.776   0.168
 3146SOL    HW1 9896   1.387   3.735   0.084
 3146SOL    HW2 9897   1.262   3.738   0.188
 3147SOL     OW 9898   1.300   4.177   0.691
 3147SOL    HW1 9899   1.241   4.257   0.695
 3147SOL    HW2 9900   1.315   4.142   0.784
 3148SOL     OW 9901   1.593   3.945   0.882
 3148SOL    HW1 9902   1.509   3.944   0.936
 3148SOL    HW2 9903   1.595   4.028   0.826
 3149SOL     OW 9904   0.225   3.999   2.858
 3149SOL    HW1 9905   0.260   3.982   2.950
 3149SOL    HW2 9906   0.137   3.954   2.846
 3150SOL     OW 9907   0.019   4.092   2.509
 3150SOL    HW1 9908  -0.063   4.135   2.548
 3150SOL    HW2 9909  -0.009   4.019   2.446
 3151SOL     OW 9910   1.755   4.331   2.093
 3151SOL    HW1 9911   1.743   4.318   1.994
 3151SOL    HW2 9912   1.725   4.250   2.142
 3152SOL     OW 9913   0.438   4.116   3.361
 3152SOL    HW1 9914   0.520   4.060   3.370
 3152SOL    HW2 9915   0.357   4.058   3.365
 3153SOL     OW 9916   1.594   3.838   3.342
 3153SOL    HW1 9917   1.576   3.905   3.270
 3153SOL    HW2 9918   1.591   3.884   3.431
 3154SOL     OW 9919   0.809   3.728   2.364
 3154SOL    HW1 9920   0.849   3.819   2.355
 3154SOL    HW2 9921   0.709   3.736   2.370
 3155SOL     OW 9922   1.281   4.069   2.806
 3155SOL    HW1 9923   1.195   4.019   2.793
 3155SOL    HW2 9924   1.343   4.015   2.862
 3156SOL     OW 9925   0.550   3.920   2.747
 3156SOL    HW1 9926   0.545   3.915   2.847
 3156SOL    HW2 9927   0.552   4.016   2.718
 3157SOL     OW 9928   0.202   4.009   3.360
 3157SOL    HW1 9929   0.122   4.069   3.347
 3157SOL    HW2 9930   0.192   3.960   3.446
 3158SOL     OW 9931   1.400   3.831   2.288
 3158SOL    HW1 9932   1.376   3.794   2.198
 3158SOL    HW2 9933   1.499   3.847   2.292
 3159SOL     OW 9934   1.547   3.946   3.591
 3159SOL    HW1 9935   1.542   3.983   3.683
 3159SOL    HW2 9936   1.475   3.877   3.579
 3160SOL     OW 9937   0.614   3.846   1.979
 3160SOL    HW1 9938   0.712   3.824   1.986
 3160SOL    HW2 9939   0.583   3.829   1.886
 3161SOL     OW 9940   0.781   3.988   3.611
 3161SOL    HW1 9941   0.848   3.927   3.654
 3161SOL    HW2 9942   0.708   4.007   3.676
 3162SOL     OW 9943   0.539   3.788   2.374
 3162SOL    HW1 9944   0.458   3.789   2.432
 3162SOL    HW2 9945   0.542   3.871   2.319
 3163SOL     OW 9946   0.297   3.759   2.033
 3163SOL    HW1 9947   0.346   3.843   2.012
 3163SOL    HW2 9948   0.359   3.694   2.078
 3164SOL     OW 9949   0.561   3.946   3.009
 3164SOL    HW1 9950   0.599   3.862   3.046
 3164SOL    HW2 9951   0.473   3.965   3.053
 3165SOL     OW 9952   1.017   3.763   2.615
 3165SOL    HW1 9953   0.945   3.768   2.546
 3165SOL    HW2 9954   0.993   3.694   2.684
 3166SOL     OW 9955   0.915   3.813   3.264
 3166SOL    HW1 9956   0.940   3.793   3.169
 3166SOL    HW2 9957   0.987   3.869   3.306
 3167SOL     OW 9958   1.274   4.110   3.124
 3167SOL    HW1 9959   1.295   4.184   3.188
 3167SOL    HW2 9960   1.185   4.127   3.081
 3168SOL     OW 9961   0.504   3.774   3.602
 3168SOL    HW1 9962   0.462   3.717   3.532
 3168SOL    HW2 9963   0.438   3.843   3.634
 3169SOL     OW 9964   0.307   3.937   3.093
 3169SOL    HW1 9965   0.284   3.974   3.183
 3169SOL    HW2 9966   0.277   3.842   3.087
 3170SOL     OW 9967   1.540   3.998   1.987
 3170SOL    HW1 9968   1.479   3.923   2.010
 3170SOL    HW2 9969   1.562   4.050   2.070
 3171SOL     OW 9970   1.160   3.931   3.339
 3171SOL    HW1 9971   1.160   3.995   3.416
 3171SOL    HW2 9972   1.188   3.979   3.256
 3172SOL     OW 9973   0.903   3.810   1.995
 3172SOL    HW1 9974   0.954   3.811   1.909
 3172SOL    HW2 9975   0.959   3.768   2.066
 3173SOL     OW 9976   1.726   3.859   2.385
 3173SOL    HW1 9977   1.799   3.842   2.318
 3173SOL    HW2 9978   1.695   3.772   2.423
 3174SOL     OW 9979   1.841   3.899   2.825
 3174SOL    HW1 9980   1.880   3.814   2.789
 3174SOL    HW2 9981   1.743   3.901   2.806
 3175SOL     OW 9982   0.672   3.927   3.351
 3175SOL    HW1 9983   0.762   3.911   3.311
 3175SOL    HW2 9984   0.680   3.932   3.450
 3176SOL     OW 9985   0.075   4.069   1.895
 3176SOL    HW1 9986  -0.017   4.041   1.866
 3176SOL    HW2 9987   0.106   4.146   1.839
 3177SOL     OW 9988   0.072   3.890   2.180
 3177SOL    HW1 9989   0.055   3.973   2.126
 3177SOL    HW2 9990   0.162   3.853   2.158
 3178SOL     OW 9991   1.225   4.049   2.311
 3178SOL    HW1 9992   1.290   3.975   2.300
 3178SOL    HW2 9993   1.245   4.099   2.395
 3179SOL     OW 9994   1.777   4.066   3.504
 3179SOL    HW1 9995   1.760   4.097   3.410
 3179SOL    HW2 9996   1.693   4.029   3.542
 3180SOL     OW 9997   1.824   3.916   3.089
 3180SOL    HW1 9998   1.820   3.826   3.133
 3180SOL    HW2 9999   1.827   3.905   2.990
 3181SOL     OW10000   1.424   3.938   2.974
 3181SOL    HW110001   1.476   3.873   3.029
 3181SOL    HW210002   1.375   4.001   3.035
 3182SOL     OW10003   1.001   3.758   3.016
 3182SOL    HW110004   0.938   3.686   2.985
 3182SOL    HW210005   1.094   3.722   3.016
 3183SOL     OW10006   1.352   3.776   2.030
 3183SOL    HW110007   1.387   3.735   1.946
 3183SOL    HW210008   1.262   3.738   2.050
 3184SOL     OW10009   1.300   4.177   2.553
 3184SOL    HW110010   1.241   4.257   2.557
 3184SOL    HW210011   1.315   4.142   2.646
 3185SOL     OW10012   1.593   3.945   2.744
 3185SOL    HW110013   1.509   3.944   2.798
 3185SOL    HW210014   1.595   4.028   2.688
 3186SOL     OW10015   0.225   3.999   4.720
 3186SOL    HW110016   0.260   3.982   4.812
 3186SOL    HW210017   0.137   3.954   4.708
 3187SOL     OW10018   0.019   4.092   4.371
 3187SOL    HW110019  -0.063   4.135   4.410
 3187SOL    HW210020  -0.009   4.019   4.308
 3188SOL     OW10021   1.755   4.331   3.955
 3188SOL    HW110022   1.743   4.318   3.856
 3188SOL    HW210023   1.725   4.250   4.004
 3189SOL     OW10024   0.438   4.116   5.223
 3189SOL    HW110025   0.520   4.060   5.232
 3189SOL    HW210026   0.357   4.058   5.227
 3190SOL     OW10027   1.594   3.838   5.204
 3190SOL    HW110028   1.576   3.905   5.132
 3190SOL    HW210029   1.591   3.884   5.293
 3191SOL     OW10030   0.809   3.728   4.226
 3191SOL    HW110031   0.849   3.819   4.217
 3191SOL    HW210032   0.709   3.736   4.232
 3192SOL     OW10033   1.281   4.069   4.668
 3192SOL    HW110034   1.195   4.019   4.655
 3192SOL    HW210035   1.343   4.015   4.724
 3193SOL     OW10036   0.550   3.920   4.609
 3193SOL    HW110037   0.545   3.915   4.709
 3193SOL    HW210038   0.552   4.016   4.580
 3194SOL     OW10039   0.202   4.009   5.222
 3194SOL    HW110040   0.122   4.069   5.209
 3194SOL    HW210041   0.192   3.960   5.308
 3195SOL     OW10042   1.400   3.831   4.150
 3195SOL    HW110043   1.376   3.794   4.060
 3195SOL    HW210044   1.499   3.847   4.154
 3196SOL     OW10045   1.547   3.946   5.453
 3196SOL    HW110046   1.542   3.983   5.545
 3196SOL    HW210047   1.475   3.877   5.441
 3197SOL     OW10048   0.614   3.846   3.841
 3197SOL    HW110049   0.712   3.824   3.848
 3197SOL    HW210050   0.583   3.829   3.748
 3198SOL     OW10051   0.781   3.988   5.473
 3198SOL    HW110052   0.848   3.927   5.516
 3198SOL    HW210053   0.708   4.007   5.538
 3199SOL     OW10054   0.539   3.788   4.236
 3199SOL    HW110055   0.458   3.789   4.294
 3199SOL    HW210056   0.542   3.871   4.181
 3200SOL     OW10057   0.297   3.759   3.895
 3200SOL    HW110058   0.346   3.843   3.874
 3200SOL    HW210059   0.359   3.694   3.940
 3201SOL     OW10060   0.561   3.946   4.871
 3201SOL    HW110061   0.599   3.862   4.908
 3201SOL    HW210062   0.473   3.965   4.915
 3202SOL     OW10063   1.017   3.763   4.477
 3202SOL    HW110064   0.945   3.768   4.408
 3202SOL    HW210065   0.993   3.694   4.546
 3203SOL     OW10066   0.915   3.813   5.126
 3203SOL    HW110067   0.940   3.793   5.031
 3203SOL    HW210068   0.987   3.869   5.168
 3204SOL     OW10069   1.274   4.110   4.986
 3204SOL    HW110070   1.295   4.184   5.050
 3204SOL    HW210071   1.185   4.127   4.943
 3205SOL     OW10072   0.504   3.774   5.464
 3205SOL    HW110073   0.462   3.717   5.394
 3205SOL    HW210074   0.438   3.843   5.496
 3206SOL     OW10075   0.307   3.937   4.955
 3206SOL    HW110076   0.284   3.974   5.045
 3206SOL    HW210077   0.277   3.842   4.949
 3207SOL     OW10078   1.540   3.998   3.849
 3207SOL    HW110079   1.479   3.923   3.872
 3207SOL    HW210080   1.562   4.050   3.932
 3208SOL     OW10081   1.160   3.931   5.201
 3208SOL    HW110082   1.160   3.995   5.278
 3208SOL    HW210083   1.188   3.979   5.118
 3209SOL     OW10084   0.903   3.810   3.857
 3209SOL    HW110085   0.954   3.811   3.771
 3209SOL    HW210086   0.959   3.768   3.928
 3210SOL     OW10087   1.726   3.859   4.247
 3210SOL    HW110088   1.799   3.842   4.180
 3210SOL    HW210089   1.695   3.772   4.285
 3211SOL     OW10090   1.841   3.899   4.687
 3211SOL    HW110091   1.880   3.814   4.651
 3211SOL    HW210092   1.743   3.901   4.668
 3212SOL     OW10093   0.672   3.927   5.213
 3212SOL    HW110094   0.762   3.911   5.173
 3212SOL    HW210095   0.680   3.932   5.312
 3213SOL     OW10096   0.075   4.069   3.757
 3213SOL    HW110097  -0.017   4.041   3.728
 3213SOL    HW210098   0.106   4.146   3.701
 3214SOL     OW10099   0.072   3.890   4.042
 3214SOL    HW110100   0.055   3.973   3.988
 3214SOL    HW210101   0.162   3.853   4.020
 3215SOL     OW10102   1.225   4.049   4.173
 3215SOL    HW110103   1.290   3.975   4.162
 3215SOL    HW210104   1.245   4.099   4.257
 3216SOL     OW10105   1.777   4.066   5.366
 3216SOL    HW110106   1.760   4.097   5.272
 3216SOL    HW210107   1.693   4.029   5.404
 3217SOL     OW10108   1.824   3.916   4.951
 3217SOL    HW110109   1.820   3.826   4.995
 3217SOL    HW210110   1.827   3.905   4.852
 3218SOL     OW10111   1.424   3.938   4.836
 3218SOL    HW110112   1.476   3.873   4.891
 3218SOL    HW210113   1.375   4.001   4.897
 3219SOL     OW10114   1.001   3.758   4.878
 3219SOL    HW110115   0.938   3.686   4.847
 3219SOL    HW210116   1.094   3.722   4.878
 3220SOL     OW10117   1.352   3.776   3.892
 3220SOL    HW110118   1.387   3.735   3.808
 3220SOL    HW210119   1.262   3.738   3.912
 3221SOL     OW10120   1.300   4.177   4.415
 3221SOL    HW110121   1.241   4.257   4.419
 3221SOL    HW210122   1.315   4.142   4.508
 3222SOL     OW10123   1.593   3.945   4.606
 3222SOL    HW110124   1.509   3.944   4.660
 3222SOL    HW210125   1.595   4.028   4.550
 3223SOL     OW10126   0.225   3.999   6.582
 3223SOL    HW110127   0.260   3.982   6.674
 3223SOL    HW210128   0.137   3.954   6.570
 3224SOL     OW10129   0.019   4.092   6.233
 3224SOL    HW110130  -0.063   4.135   6.272
 3224SOL    HW210131  -0.009   4.019   6.170
 3225SOL     OW10132   1.755   4.331   5.817
 3225SOL    HW110133   1.743   4.318   5.718
 3225SOL    HW210134   1.725   4.250   5.866
 3226SOL     OW10135   0.438   4.116   7.085
 3226SOL    HW110136   0.520   4.060   7.094
 3226SOL    HW210137   0.357   4.058   7.089
 3227SOL     OW10138   1.594   3.838   7.066
 3227SOL    HW110139   1.576   3.905   6.994
 3227SOL    HW210140   1.591   3.884   7.155
 3228SOL     OW10141   0.809   3.728   6.088
 3228SOL    HW110142   0.849   3.819   6.079
 3228SOL    HW210143   0.709   3.736   6.094
 3229SOL     OW10144   1.281   4.069   6.530
 3229SOL    HW110145   1.195   4.019   6.517
 3229SOL    HW210146   1.343   4.015   6.586
 3230SOL     OW10147   0.550   3.920   6.471
 3230SOL    HW110148   0.545   3.915   6.571
 3230SOL    HW210149   0.552   4.016   6.442
 3231SOL     OW10150   0.202   4.009   7.084
 3231SOL    HW110151   0.122   4.069   7.071
 3231SOL    HW210152   0.192   3.960   7.170
 3232SOL     OW10153   1.400   3.831   6.012
 3232SOL    HW110154   1.376   3.794   5.922
 3232SOL    HW210155   1.499   3.847   6.016
 3233SOL     OW10156   1.547   3.946   7.315
 3233SOL    HW110157   1.542   3.983   7.407
 3233SOL    HW210158   1.475   3.877   7.303
 3234SOL     OW10159   0.614   3.846   5.703
 3234SOL    HW110160   0.712   3.824   5.710
 3234SOL    HW210161   0.583   3.829   5.610
 3235SOL     OW10162   0.781   3.988   7.335
 3235SOL    HW110163   0.848   3.927   7.378
 3235SOL    HW210164   0.708   4.007   7.400
 3236SOL     OW10165   0.539   3.788   6.098
 3236SOL    HW110166   0.458   3.789   6.156
 3236SOL    HW210167   0.542   3.871   6.043
 3237SOL     OW10168   0.297   3.759   5.757
 3237SOL    HW110169   0.346   3.843   5.736
 3237SOL    HW210170   0.359   3.694   5.802
 3238SOL     OW10171   0.561   3.946   6.733
 3238SOL    HW110172   0.599   3.862   6.770
 3238SOL    HW210173   0.473   3.965   6.777
 3239SOL     OW10174   1.017   3.763   6.339
 3239SOL    HW110175   0.945   3.768   6.270
 3239SOL    HW210176   0.993   3.694   6.408
 3240SOL     OW10177   0.915   3.813   6.988
 3240SOL    HW110178   0.940   3.793   6.893
 3240SOL    HW210179   0.987   3.869   7.030
 3241SOL     OW10180   1.274   4.110   6.848
 3241SOL    HW110181   1.295   4.184   6.912
 3241SOL    HW210182   1.185   4.127   6.805
 3242SOL     OW10183   0.504   3.774   7.326
 3242SOL    HW110184   0.462   3.717   7.256
 3242SOL    HW210185   0.438   3.843   7.358
 3243SOL     OW10186   0.307   3.937   6.817
 3243SOL    HW110187   0.284   3.974   6.907
 3243SOL    HW210188   0.277   3.842   6.811
 3244SOL     OW10189   1.540   3.998   5.711
 3244SOL    HW110190   1.479   3.923   5.734
 3244SOL    HW210191   1.562   4.050   5.794
 3245SOL     OW10192   1.160   3.931   7.063
 3245SOL    HW110193   1.160   3.995   7.140
 3245SOL    HW210194   1.188   3.979   6.980
 3246SOL     OW10195   0.903   3.810   5.719
 3246SOL    HW110196   0.954   3.811   5.633
 3246SOL    HW210197   0.959   3.768   5.790
 3247SOL     OW10198   1.726   3.859   6.109
 3247SOL    HW110199   1.799   3.842   6.042
 3247SOL    HW210200   1.695   3.772   6.147
 3248SOL     OW10201   1.841   3.899   6.549
 3248SOL    HW110202   1.880   3.814   6.513
 3248SOL    HW210203   1.743   3.901   6.530
 3249SOL     OW10204   0.672   3.927   7.075
 3249SOL    HW110205   0.762   3.911   7.035
 3249SOL    HW210206   0.680   3.932   7.174
 3250SOL     OW10207   0.075   4.069   5.619
 3250SOL    HW110208  -0.017   4.041   5.590
 3250SOL    HW210209   0.106   4.146   5.563
 3251SOL     OW10210   0.072   3.890   5.904
 3251SOL    HW110211   0.055   3.973   5.850
 3251SOL    HW210212   0.162   3.853   5.882
 3252SOL     OW10213   1.225   4.049   6.035
 3252SOL    HW110214   1.290   3.975   6.024
 3252SOL    HW210215   1.245   4.099   6.119
 3253SOL     OW10216   1.777   4.066   7.228
 3253SOL    HW110217   1.760   4.097   7.134
 3253SOL    HW210218   1.693   4.029   7.266
 3254SOL     OW10219   1.824   3.916   6.813
 3254SOL    HW110220   1.820   3.826   6.857
 3254SOL    HW210221   1.827   3.905   6.714
 3255SOL     OW10222   1.424   3.938   6.698
 3255SOL    HW110223   1.476   3.873   6.753
 3255SOL    HW210224   1.375   4.001   6.759
 3256SOL     OW10225   1.001   3.758   6.740
 3256SOL    HW110226   0.938   3.686   6.709
 3256SOL    HW210227   1.094   3.722   6.740
 3257SOL     OW10228   1.352   3.776   5.754
 3257SOL    HW110229   1.387   3.735   5.670
 3257SOL    HW210230   1.262   3.738   5.774
 3258SOL     OW10231   1.300   4.177   6.277
 3258SOL    HW110232   1.241   4.257   6.281
 3258SOL    HW210233   1.315   4.142   6.370
 3259SOL     OW10234   1.593   3.945   6.468
 3259SOL    HW110235   1.509   3.944   6.522
 3259SOL    HW210236   1.595   4.028   6.412
 3260SOL     OW10237   0.225   3.999   8.444
 3260SOL    HW110238   0.260   3.982   8.536
 3260SOL    HW210239   0.137   3.954   8.432
 3261SOL     OW10240   0.019   4.092   8.095
 3261SOL    HW110241  -0.063   4.135   8.134
 3261SOL    HW210242  -0.009   4.019   8.032
 3262SOL     OW10243   1.755   4.331   7.679
 3262SOL    HW110244   1.743   4.318   7.580
 3262SOL    HW210245   1.725   4.250   7.728
 3263SOL     OW10246   0.438   4.116   8.947
 3263SOL    HW110247   0.520   4.060   8.956
 3263SOL    HW210248   0.357   4.058   8.951
 3264SOL     OW10249   1.594   3.838   8.928
 3264SOL    HW110250   1.576   3.905   8.856
 3264SOL    HW210251   1.591   3.884   9.017
 3265SOL     OW10252   0.809   3.728   7.950
 3265SOL    HW110253   0.849   3.819   7.941
 3265SOL    HW210254   0.709   3.736   7.956
 3266SOL     OW10255   1.281   4.069   8.392
 3266SOL    HW110256   1.195   4.019   8.379
 3266SOL    HW210257   1.343   4.015   8.448
 3267SOL     OW10258   0.550   3.920   8.333
 3267SOL    HW110259   0.545   3.915   8.433
 3267SOL    HW210260   0.552   4.016   8.304
 3268SOL     OW10261   0.202   4.009   8.946
 3268SOL    HW110262   0.122   4.069   8.933
 3268SOL    HW210263   0.192   3.960   9.032
 3269SOL     OW10264   1.400   3.831   7.874
 3269SOL    HW110265   1.376   3.794   7.784
 3269SOL    HW210266   1.499   3.847   7.878
 3270SOL     OW10267   1.547   3.946   9.177
 3270SOL    HW110268   1.542   3.983   9.269
 3270SOL    HW210269   1.475   3.877   9.165
 3271SOL     OW10270   0.614   3.846   7.565
 3271SOL    HW110271   0.712   3.824   7.572
 3271SOL    HW210272   0.583   3.829   7.472
 3272SOL     OW10273   0.781   3.988   9.197
 3272SOL    HW110274   0.848   3.927   9.240
 3272SOL    HW210275   0.708   4.007   9.262
 3273SOL     OW10276   0.539   3.788   7.960
 3273SOL    HW110277   0.458   3.789   8.018
 3273SOL    HW210278   0.542   3.871   7.905
 3274SOL     OW10279   0.297   3.759   7.619
 3274SOL    HW110280   0.346   3.843   7.598
 3274SOL    HW210281   0.359   3.694   7.664
 3275SOL     OW10282   0.561   3.946   8.595
 3275SOL    HW110283   0.599   3.862   8.632
 3275SOL    HW210284   0.473   3.965   8.639
 3276SOL     OW10285   1.017   3.763   8.201
 3276SOL    HW110286   0.945   3.768   8.132
 3276SOL    HW210287   0.993   3.694   8.270
 3277SOL     OW10288   0.915   3.813   8.850
 3277SOL    HW110289   0.940   3.793   8.755
 3277SOL    HW210290   0.987   3.869   8.892
 3278SOL     OW10291   1.274   4.110   8.710
 3278SOL    HW110292   1.295   4.184   8.774
 3278SOL    HW210293   1.185   4.127   8.667
 3279SOL     OW10294   0.504   3.774   9.188
 3279SOL    HW110295   0.462   3.717   9.118
 3279SOL    HW210296   0.438   3.843   9.220
 3280SOL     OW10297   0.307   3.937   8.679
 3280SOL    HW110298   0.284   3.974   8.769
 3280SOL    HW210299   0.277   3.842   8.673
 3281SOL     OW10300   1.540   3.998   7.573
 3281SOL    HW110301   1.479   3.923   7.596
 3281SOL    HW210302   1.562   4.050   7.656
 3282SOL     OW10303   1.160   3.931   8.925
 3282SOL    HW110304   1.160   3.995   9.002
 3282SOL    HW210305   1.188   3.979   8.842
 3283SOL     OW10306   0.903   3.810   7.581
 3283SOL    HW110307   0.954   3.811   7.495
 3283SOL    HW210308   0.959   3.768   7.652
 3284SOL     OW10309   1.726   3.859   7.971
 3284SOL    HW110310   1.799   3.842   7.904
 3284SOL    HW210311   1.695   3.772   8.009
 3285SOL     OW10312   1.841   3.899   8.411
 3285SOL    HW110313   1.880   3.814   8.375
 3285SOL    HW210314   1.743   3.901   8.392
 3286SOL     OW10315   0.672   3.927   8.937
 3286SOL    HW110316   0.762   3.911   8.897
 3286SOL    HW210317   0.680   3.932   9.036
 3287SOL     OW10318   0.075   4.069   7.481
 3287SOL    HW110319  -0.017   4.041   7.452
 3287SOL    HW210320   0.106   4.146   7.425
 3288SOL     OW10321   0.072   3.890   7.766
 3288SOL    HW110322   0.055   3.973   7.712
 3288SOL    HW210323   0.162   3.853   7.744
 3289SOL     OW10324   1.225   4.049   7.897
 3289SOL    HW110325   1.290   3.975   7.886
 3289SOL    HW210326   1.245   4.099   7.981
 3290SOL     OW10327   1.777   4.066   9.090
 3290SOL    HW110328   1.760   4.097   8.996
 3290SOL    HW210329   1.693   4.029   9.128
 3291SOL     OW10330   1.824   3.916   8.675
 3291SOL    HW110331   1.820   3.826   8.719
 3291SOL    HW210332   1.827   3.905   8.576
 3292SOL     OW10333   1.424   3.938   8.560
 3292SOL    HW110334   1.476   3.873   8.615
 3292SOL    HW210335   1.375   4.001   8.621
 3293SOL     OW10336   1.001   3.758   8.602
 3293SOL    HW110337   0.938   3.686   8.571
 3293SOL    HW210338   1.094   3.722   8.602
 3294SOL     OW10339   1.352   3.776   7.616
 3294SOL    HW110340   1.387   3.735   7.532
 3294SOL    HW210341   1.262   3.738   7.636
 3295SOL     OW10342   1.300   4.177   8.139
 3295SOL    HW110343   1.241   4.257   8.143
 3295SOL    HW210344   1.315   4.142   8.232
 3296SOL     OW10345   1.593   3.945   8.330
 3296SOL    HW110346   1.509   3.944   8.384
 3296SOL    HW210347   1.595   4.028   8.274
 3297SOL     OW10348   0.225   3.999  10.306
 3297SOL    HW110349   0.260   3.982  10.398
 3297SOL    HW210350   0.137   3.954  10.294
 3298SOL     OW10351   0.019   4.092   9.957
 3298SOL    HW110352  -0.063   4.135   9.996
 3298SOL    HW210353  -0.009   4.019   9.894
 3299SOL     OW10354   1.755   4.331   9.541
 3299SOL    HW110355   1.743   4.318   9.442
 3299SOL    HW210356   1.725   4.250   9.590
 3300SOL     OW10357   0.438   4.116  10.809
 3300SOL    HW110358   0.520   4.060  10.818
 3300SOL    HW210359   0.357   4.058  10.813
 3301SOL     OW10360   1.594   3.838  10.790
 3301SOL    HW110361   1.576   3.905  10.718
 3301SOL    HW210362   1.591   3.884  10.879
 3302SOL     OW10363   0.809   3.728   9.812
 3302SOL    HW110364   0.849   3.819   9.803
 3302SOL    HW210365   0.709   3.736   9.818
 3303SOL     OW10366   1.281   4.069  10.254
 3303SOL    HW110367   1.195   4.019  10.241
 3303SOL    HW210368   1.343   4.015  10.310
 3304SOL     OW10369   0.550   3.920  10.195
 3304SOL    HW110370   0.545   3.915  10.295
 3304SOL    HW210371   0.552   4.016  10.166
 3305SOL     OW10372   0.202   4.009  10.808
 3305SOL    HW110373   0.122   4.069  10.795
 3305SOL    HW210374   0.192   3.960  10.894
 3306SOL     OW10375   1.400   3.831   9.736
 3306SOL    HW110376   1.376   3.794   9.646
 3306SOL    HW210377   1.499   3.847   9.740
 3307SOL     OW10378   1.547   3.946  11.039
 3307SOL    HW110379   1.542   3.983  11.131
 3307SOL    HW210380   1.475   3.877  11.027
 3308SOL     OW10381   0.614   3.846   9.427
 3308SOL    HW110382   0.712   3.824   9.434
 3308SOL    HW210383   0.583   3.829   9.334
 3309SOL     OW10384   0.781   3.988  11.059
 3309SOL    HW110385   0.848   3.927  11.102
 3309SOL    HW210386   0.708   4.007  11.124
 3310SOL     OW10387   0.539   3.788   9.822
 3310SOL    HW110388   0.458   3.789   9.880
 3310SOL    HW210389   0.542   3.871   9.767
 3311SOL     OW10390   0.297   3.759   9.481
 3311SOL    HW110391   0.346   3.843   9.460
 3311SOL    HW210392   0.359   3.694   9.526
 3312SOL     OW10393   0.561   3.946  10.457
 3312SOL    HW110394   0.599   3.862  10.494
 3312SOL    HW210395   0.473   3.965  10.501
 3313SOL     OW10396   1.017   3.763  10.063
 3313SOL    HW110397   0.945   3.768   9.994
 3313SOL    HW210398   0.993   3.694  10.132
 3314SOL     OW10399   0.915   3.813  10.712
 3314SOL    HW110400   0.940   3.793  10.617
 3314SOL    HW210401   0.987   3.869  10.754
 3315SOL     OW10402   1.274   4.110  10.572
 3315SOL    HW110403   1.295   4.184  10.636
 3315SOL    HW210404   1.185   4.127  10.529
 3316SOL     OW10405   0.504   3.774  11.050
 3316SOL    HW110406   0.462   3.717  10.980
 3316SOL    HW210407   0.438   3.843  11.082
 3317SOL     OW10408   0.307   3.937  10.541
 3317SOL    HW110409   0.284   3.974  10.631
 3317SOL    HW210410   0.277   3.842  10.535
 3318SOL     OW10411   1.540   3.998   9.435
 3318SOL    HW110412   1.479   3.923   9.458
 3318SOL    HW210413   1.562   4.050   9.518
 3319SOL     OW10414   1.160   3.931  10.787
 3319SOL    HW110415   1.160   3.995  10.864
 3319SOL    HW210416   1.188   3.979  10.704
 3320SOL     OW10417   0.903   3.810   9.443
 3320SOL    HW110418   0.954   3.811   9.357
 3320SOL    HW210419   0.959   3.768   9.514
 3321SOL     OW10420   1.726   3.859   9.833
 3321SOL    HW110421   1.799   3.842   9.766
 3321SOL    HW210422   1.695   3.772   9.871
 3322SOL     OW10423   1.841   3.899  10.273
 3322SOL    HW110424   1.880   3.814  10.237
 3322SOL    HW210425   1.743   3.901  10.254
 3323SOL     OW10426   0.672   3.927  10.799
 3323SOL    HW110427   0.762   3.911  10.759
 3323SOL    HW210428   0.680   3.932  10.898
 3324SOL     OW10429   0.075   4.069   9.343
 3324SOL    HW110430  -0.017   4.041   9.314
 3324SOL    HW210431   0.106   4.146   9.287
 3325SOL     OW10432   0.072   3.890   9.628
 3325SOL    HW110433   0.055   3.973   9.574
 3325SOL    HW210434   0.162   3.853   9.606
 3326SOL     OW10435   1.225   4.049   9.759
 3326SOL    HW110436   1.290   3.975   9.748
 3326SOL    HW210437   1.245   4.099   9.843
 3327SOL     OW10438   1.777   4.066  10.952
 3327SOL    HW110439   1.760   4.097  10.858
 3327SOL    HW210440   1.693   4.029  10.990
 3328SOL     OW10441   1.824   3.916  10.537
 3328SOL    HW110442   1.820   3.826  10.581
 3328SOL    HW210443   1.827   3.905  10.438
 3329SOL     OW10444   1.424   3.938  10.422
 3329SOL    HW110445   1.476   3.873  10.477
 3329SOL    HW210446   1.375   4.001  10.483
 3330SOL     OW10447   1.001   3.758  10.464
 3330SOL    HW110448   0.938   3.686  10.433
 3330SOL    HW210449   1.094   3.722  10.464
 3331SOL     OW10450   1.352   3.776   9.478
 3331SOL    HW110451   1.387   3.735   9.394
 3331SOL    HW210452   1.262   3.738   9.498
 3332SOL     OW10453   1.300   4.177  10.001
 3332SOL    HW110454   1.241   4.257  10.005
 3332SOL    HW210455   1.315   4.142  10.094
 3333SOL     OW10456   1.593   3.945  10.192
 3333SOL    HW110457   1.509   3.944  10.246
 3333SOL    HW210458   1.595   4.028  10.136
 3334SOL     OW10459   0.225   3.999  12.168
 3334SOL    HW110460   0.260   3.982  12.260
 3334SOL    HW210461   0.137   3.954  12.156
 3335SOL     OW10462   0.019   4.092  11.819
 3335SOL    HW110463  -0.063   4.135  11.858
 3335SOL    HW210464  -0.009   4.019  11.756
 3336SOL     OW10465   1.755   4.331  11.403
 3336SOL    HW110466   1.743   4.318  11.304
 3336SOL    HW210467   1.725   4.250  11.452
 3337SOL     OW10468   0.438   4.116  12.671
 3337SOL    HW110469   0.520   4.060  12.680
 3337SOL    HW210470   0.357   4.058  12.675
 3338SOL     OW10471   1.594   3.838  12.652
 3338SOL    HW110472   1.576   3.905  12.580
 3338SOL    HW210473   1.591   3.884  12.741
 3339SOL     OW10474   0.809   3.728  11.674
 3339SOL    HW110475   0.849   3.819  11.665
 3339SOL    HW210476   0.709   3.736  11.680
 3340SOL     OW10477   1.281   4.069  12.116
 3340SOL    HW110478   1.195   4.019  12.103
 3340SOL    HW210479   1.343   4.015  12.172
 3341SOL     OW10480   0.550   3.920  12.057
 3341SOL    HW110481   0.545   3.915  12.157
 3341SOL    HW210482   0.552   4.016  12.028
 3342SOL     OW10483   0.202   4.009  12.670
 3342SOL    HW110484   0.122   4.069  12.657
 3342SOL    HW210485   0.192   3.960  12.756
 3343SOL     OW10486   1.400   3.831  11.598
 3343SOL    HW110487   1.376   3.794  11.508
 3343SOL    HW210488   1.499   3.847  11.602
 3344SOL     OW10489   1.547   3.946  12.901
 3344SOL    HW110490   1.542   3.983  12.993
 3344SOL    HW210491   1.475   3.877  12.889
 3345SOL     OW10492   0.614   3.846  11.289
 3345SOL    HW110493   0.712   3.824  11.296
 3345SOL    HW210494   0.583   3.829  11.196
 3346SOL     OW10495   0.781   3.988  12.921
 3346SOL    HW110496   0.848   3.927  12.964
 3346SOL    HW210497   0.708   4.007  12.986
 3347SOL     OW10498   0.539   3.788  11.684
 3347SOL    HW110499   0.458   3.789  11.742
 3347SOL    HW210500   0.542   3.871  11.629
 3348SOL     OW10501   0.297   3.759  11.343
 3348SOL    HW110502   0.346   3.843  11.322
 3348SOL    HW210503   0.359   3.694  11.388
 3349SOL     OW10504   0.561   3.946  12.319
 3349SOL    HW110505   0.599   3.862  12.356
 3349SOL    HW210506   0.473   3.965  12.363
 3350SOL     OW10507   1.017   3.763  11.925
 3350SOL    HW110508   0.945   3.768  11.856
 3350SOL    HW210509   0.993   3.694  11.994
 3351SOL     OW10510   0.915   3.813  12.574
 3351SOL    HW110511   0.940   3.793  12.479
 3351SOL    HW210512   0.987   3.869  12.616
 3352SOL     OW10513   1.274   4.110  12.434
 3352SOL    HW110514   1.295   4.184  12.498
 3352SOL    HW210515   1.185   4.127  12.391
 3353SOL     OW10516   0.504   3.774  12.912
 3353SOL    HW110517   0.462   3.717  12.842
 3353SOL    HW210518   0.438   3.843  12.944
 3354SOL     OW10519   0.307   3.937  12.403
 3354SOL    HW110520   0.284   3.974  12.493
 3354SOL    HW210521   0.277   3.842  12.397
 3355SOL     OW10522   1.540   3.998  11.297
 3355SOL    HW110523   1.479   3.923  11.320
 3355SOL    HW210524   1.562   4.050  11.380
 3356SOL     OW10525   1.160   3.931  12.649
 3356SOL    HW110526   1.160   3.995  12.726
 3356SOL    HW210527   1.188   3.979  12.566
 3357SOL     OW10528   0.903   3.810  11.305
 3357SOL    HW110529   0.954   3.811  11.219
 3357SOL    HW210530   0.959   3.768  11.376
 3358SOL     OW10531   1.726   3.859  11.695
 3358SOL    HW110532   1.799   3.842  11.628
 3358SOL    HW210533   1.695   3.772  11.733
 3359SOL     OW10534   1.841   3.899  12.135
 3359SOL    HW110535   1.880   3.814  12.099
 3359SOL    HW210536   1.743   3.901  12.116
 3360SOL     OW10537   0.672   3.927  12.661
 3360SOL    HW110538   0.762   3.911  12.621
 3360SOL    HW210539   0.680   3.932  12.760
 3361SOL     OW10540   0.075   4.069  11.205
 3361SOL    HW110541  -0.017   4.041  11.176
 3361SOL    HW210542   0.106   4.146  11.149
 3362SOL     OW10543   0.072   3.890  11.490
 3362SOL    HW110544   0.055   3.973  11.436
 3362SOL    HW210545   0.162   3.853  11.468
 3363SOL     OW10546   1.225   4.049  11.621
 3363SOL    HW110547   1.290   3.975  11.610
 3363SOL    HW210548   1.245   4.099  11.705
 3364SOL     OW10549   1.777   4.066  12.814
 3364SOL    HW110550   1.760   4.097  12.720
 3364SOL    HW210551   1.693   4.029  12.852
 3365SOL     OW10552   1.824   3.916  12.399
 3365SOL    HW110553   1.820   3.826  12.443
 3365SOL    HW210554   1.827   3.905  12.300
 3366SOL     OW10555   1.424   3.938  12.284
 3366SOL    HW110556   1.476   3.873  12.339
 3366SOL    HW210557   1.375   4.001  12.345
 3367SOL     OW10558   1.001   3.758  12.326
 3367SOL    HW110559   0.938   3.686  12.295
 3367SOL    HW210560   1.094   3.722  12.326
 3368SOL     OW10561   1.352   3.776  11.340
 3368SOL    HW110562   1.387   3.735  11.256
 3368SOL    HW210563   1.262   3.738  11.360
 3369SOL     OW10564   1.300   4.177  11.863
 3369SOL    HW110565   1.241   4.257  11.867
 3369SOL    HW210566   1.315   4.142  11.956
 3370SOL     OW10567   1.593   3.945  12.054
 3370SOL    HW110568   1.509   3.944  12.108
 3370SOL    HW210569   1.595   4.028  11.998
 3371SOL     OW10570   0.019   4.092  13.681
 3371SOL    HW110571  -0.063   4.135  13.720
 3371SOL    HW210572  -0.009   4.019  13.618
 3372SOL     OW10573   1.755   4.331  13.265
 3372SOL    HW110574   1.743   4.318  13.166
 3372SOL    HW210575   1.725   4.250  13.314
 3373SOL     OW10576   1.603   4.171  13.771
 3373SOL    HW110577   1.529   4.217  13.721
 3373SOL    HW210578   1.654   4.239  13.824
 3374SOL     OW10579   0.809   3.728  13.536
 3374SOL    HW110580   0.849   3.819  13.527
 3374SOL    HW210581   0.709   3.736  13.542
 3375SOL     OW10582   1.400   3.831  13.460
 3375SOL    HW110583   1.376   3.794  13.370
 3375SOL    HW210584   1.499   3.847  13.464
 3376SOL     OW10585   0.614   3.846  13.151
 3376SOL    HW110586   0.712   3.824  13.158
 3376SOL    HW210587   0.583   3.829  13.058
 3377SOL     OW10588   0.539   3.788  13.546
 3377SOL    HW110589   0.458   3.789  13.604
 3377SOL    HW210590   0.542   3.871  13.491
 3378SOL     OW10591   0.297   3.759  13.205
 3378SOL    HW110592   0.346   3.843  13.184
 3378SOL    HW210593   0.359   3.694  13.250
 3379SOL     OW10594   1.017   3.763  13.787
 3379SOL    HW110595   0.945   3.768  13.718
 3379SOL    HW210596   0.993   3.694  13.856
 3380SOL     OW10597   1.540   3.998  13.159
 3380SOL    HW110598   1.479   3.923  13.182
 3380SOL    HW210599   1.562   4.050  13.242
 3381SOL     OW10600   0.903   3.810  13.167
 3381SOL    HW110601   0.954   3.811  13.081
 3381SOL    HW210602   0.959   3.768  13.238
 3382SOL     OW10603   1.726   3.859  13.557
 3382SOL    HW110604   1.799   3.842  13.490
 3382SOL    HW210605   1.695   3.772  13.595
 3383SOL     OW10606   1.841   3.899  13.997
 3383SOL    HW110607   1.880   3.814  13.961
 3383SOL    HW210608   1.743   3.901  13.978
 3384SOL     OW10609   0.075   4.069  13.067
 3384SOL    HW110610  -0.017   4.041  13.038
 3384SOL    HW210611   0.106   4.146  13.011
 3385SOL     OW10612   0.072   3.890  13.352
 3385SOL    HW110613   0.055   3.973  13.298
 3385SOL    HW210614   0.162   3.853  13.330
 3386SOL     OW10615   1.225   4.049  13.483
 3386SOL    HW110616   1.290   3.975  13.472
 3386SOL    HW210617   1.245   4.099  13.567
 3387SOL     OW10618   1.352   3.776  13.202
 3387SOL    HW110619   1.387   3.735  13.118
 3387SOL    HW210620   1.262   3.738  13.222
 3388SOL     OW10621   1.300   4.177  13.725
 3388SOL    HW110622   1.241   4.257  13.729
 3388SOL    HW210623   1.315   4.142  13.818
 3389SOL     OW10624   2.092   0.628   0.113
 3389SOL    HW110625   1.999   0.626   0.150
 3389SOL    HW210626   2.093   0.589   0.021
 3390SOL     OW10627   2.087   0.275   0.996
 3390SOL    HW110628   2.122   0.258   1.088
 3390SOL    HW210629   1.999   0.230   0.984
 3391SOL     OW10630   1.881   0.368   0.647
 3391SOL    HW110631   1.799   0.411   0.686
 3391SOL    HW210632   1.853   0.295   0.584
 3392SOL     OW10633   2.431   1.275   1.165
 3392SOL    HW110634   2.338   1.268   1.128
 3392SOL    HW210635   2.442   1.364   1.209
 3393SOL     OW10636   3.417   1.511   0.703
 3393SOL    HW110637   3.360   1.495   0.784
 3393SOL    HW210638   3.358   1.521   0.623
 3394SOL     OW10639   2.997   0.703   0.717
 3394SOL    HW110640   3.054   0.781   0.692
 3394SOL    HW210641   2.937   0.729   0.793
 3395SOL     OW10642   3.617   0.607   0.231
 3395SOL    HW110643   3.605   0.594   0.132
 3395SOL    HW210644   3.587   0.526   0.280
 3396SOL     OW10645   2.630   1.144   1.023
 3396SOL    HW110646   2.552   1.161   1.083
 3396SOL    HW210647   2.664   1.231   0.987
 3397SOL     OW10648   2.712   0.798   1.823
 3397SOL    HW110649   2.708   0.874   1.888
 3397SOL    HW210650   2.734   0.834   1.732
 3398SOL     OW10651   2.547   1.012   0.665
 3398SOL    HW110652   2.616   0.996   0.735
 3398SOL    HW210653   2.474   1.069   0.703
 3399SOL     OW10654   2.548   1.161   1.803
 3399SOL    HW110655   2.608   1.240   1.817
 3399SOL    HW210656   2.462   1.192   1.762
 3400SOL     OW10657   2.197   1.435   1.061
 3400SOL    HW110658   2.119   1.404   1.008
 3400SOL    HW210659   2.255   1.493   1.004
 3401SOL     OW10660   3.322   1.505   1.339
 3401SOL    HW110661   3.346   1.599   1.365
 3401SOL    HW210662   3.306   1.451   1.421
 3402SOL     OW10663   2.300   0.392   1.499
 3402SOL    HW110664   2.382   0.336   1.508
 3402SOL    HW210665   2.219   0.334   1.503
 3403SOL     OW10666   3.465   0.447   0.737
 3403SOL    HW110667   3.391   0.493   0.687
 3403SOL    HW210668   3.516   0.515   0.790
 3404SOL     OW10669   2.093   1.713   0.483
 3404SOL    HW110670   2.127   1.790   0.537
 3404SOL    HW210671   2.137   1.713   0.393
 3405SOL     OW10672   2.989   1.341   1.690
 3405SOL    HW110673   3.036   1.341   1.778
 3405SOL    HW210674   2.941   1.254   1.679
 3406SOL     OW10675   2.092   1.434   0.538
 3406SOL    HW110676   2.066   1.530   0.538
 3406SOL    HW210677   2.021   1.380   0.583
 3407SOL     OW10678   2.102   1.091   0.886
 3407SOL    HW110679   2.116   1.007   0.938
 3407SOL    HW210680   2.047   1.155   0.941
 3408SOL     OW10681   2.482   1.786   1.439
 3408SOL    HW110682   2.390   1.769   1.474
 3408SOL    HW210683   2.510   1.878   1.465
 3409SOL     OW10684   2.468   0.964   0.123
 3409SOL    HW110685   2.475   1.048   0.069
 3409SOL    HW210686   2.514   0.977   0.211
 3410SOL     OW10687   3.456   0.114   1.480
 3410SOL    HW110688   3.438   0.181   1.408
 3410SOL    HW210689   3.453   0.160   1.569
 3411SOL     OW10690   1.984   0.643   0.563
 3411SOL    HW110691   1.939   0.555   0.580
 3411SOL    HW210692   1.983   0.697   0.647
 3412SOL     OW10693   3.704   1.767   0.359
 3412SOL    HW110694   3.758   1.738   0.439
 3412SOL    HW210695   3.734   1.857   0.330
 3413SOL     OW10696   1.889   1.596   0.117
 3413SOL    HW110697   1.870   1.500   0.138
 3413SOL    HW210698   1.856   1.654   0.192
 3414SOL     OW10699   3.551   0.922   0.612
 3414SOL    HW110700   3.646   0.893   0.620
 3414SOL    HW210701   3.543   0.987   0.537
 3415SOL     OW10702   3.503   1.108   0.432
 3415SOL    HW110703   3.589   1.110   0.380
 3415SOL    HW210704   3.517   1.155   0.520
 3416SOL     OW10705   1.975   0.737   1.597
 3416SOL    HW110706   2.063   0.724   1.642
 3416SOL    HW210707   1.962   0.834   1.575
 3417SOL     OW10708   2.475   1.365   0.726
 3417SOL    HW110709   2.426   1.278   0.735
 3417SOL    HW210710   2.452   1.408   0.639
 3418SOL     OW10711   3.155   1.228   1.423
 3418SOL    HW110712   3.192   1.155   1.365
 3418SOL    HW210713   3.207   1.233   1.508
 3419SOL     OW10714   2.671   0.004   0.502
 3419SOL    HW110715   2.711   0.095   0.493
 3419SOL    HW210716   2.571   0.012   0.508
 3420SOL     OW10717   2.059   0.976   1.264
 3420SOL    HW110718   2.148   0.931   1.250
 3420SOL    HW210719   1.986   0.911   1.245
 3421SOL     OW10720   3.387   0.999   0.190
 3421SOL    HW110721   3.324   0.923   0.203
 3421SOL    HW210722   3.435   1.017   0.276
 3422SOL     OW10723   3.049   1.792   1.616
 3422SOL    HW110724   3.073   1.852   1.540
 3422SOL    HW210725   3.056   1.697   1.586
 3423SOL     OW10726   2.179   0.251   1.801
 3423SOL    HW110727   2.250   0.322   1.807
 3423SOL    HW210728   2.091   0.290   1.829
 3424SOL     OW10729   3.328   1.417   0.953
 3424SOL    HW110730   3.269   1.423   1.033
 3424SOL    HW210731   3.313   1.329   0.907
 3425SOL     OW10732   3.529   1.714   0.572
 3425SOL    HW110733   3.488   1.691   0.484
 3425SOL    HW210734   3.511   1.640   0.637
 3426SOL     OW10735   2.460   0.729   0.270
 3426SOL    HW110736   2.484   0.798   0.202
 3426SOL    HW210737   2.382   0.762   0.324
 3427SOL     OW10738   3.143   0.345   0.944
 3427SOL    HW110739   3.057   0.295   0.931
 3427SOL    HW210740   3.205   0.291   1.000
 3428SOL     OW10741   3.438   1.662   0.307
 3428SOL    HW110742   3.527   1.708   0.310
 3428SOL    HW210743   3.417   1.638   0.212
 3429SOL     OW10744   2.669   0.605   1.465
 3429SOL    HW110745   2.622   0.602   1.554
 3429SOL    HW210746   2.618   0.550   1.399
 3430SOL     OW10747   3.256   0.469   1.674
 3430SOL    HW110748   3.236   0.512   1.762
 3430SOL    HW210749   3.334   0.407   1.683
 3431SOL     OW10750   2.835   0.890   1.572
 3431SOL    HW110751   2.881   0.806   1.543
 3431SOL    HW210752   2.779   0.924   1.497
 3432SOL     OW10753   2.853   0.410   1.242
 3432SOL    HW110754   2.776   0.444   1.296
 3432SOL    HW210755   2.819   0.359   1.163
 3433SOL     OW10756   2.903   0.701   0.429
 3433SOL    HW110757   2.929   0.697   0.525
 3433SOL    HW210758   2.818   0.650   0.415
 3434SOL     OW10759   1.938   0.811   0.789
 3434SOL    HW110760   2.037   0.799   0.798
 3434SOL    HW210761   1.914   0.906   0.810
 3435SOL     OW10762   2.727   0.348   0.195
 3435SOL    HW110763   2.786   0.411   0.146
 3435SOL    HW210764   2.746   0.254   0.166
 3436SOL     OW10765   3.581   0.585   1.831
 3436SOL    HW110766   3.555   0.674   1.795
 3436SOL    HW210767   3.579   0.517   1.758
 3437SOL     OW10768   3.224   1.144   0.545
 3437SOL    HW110769   3.307   1.115   0.497
 3437SOL    HW210770   3.175   1.211   0.489
 3438SOL     OW10771   2.412   0.196   0.885
 3438SOL    HW110772   2.407   0.191   0.985
 3438SOL    HW210773   2.414   0.292   0.856
 3439SOL     OW10774   2.870   1.456   0.477
 3439SOL    HW110775   2.824   1.528   0.425
 3439SOL    HW210776   2.866   1.476   0.575
 3440SOL     OW10777   2.213   1.801   0.853
 3440SOL    HW110778   2.263   1.715   0.859
 3440SOL    HW210779   2.278   1.878   0.850
 3441SOL     OW10780   3.657   1.066   0.873
 3441SOL    HW110781   3.595   1.051   0.797
 3441SOL    HW210782   3.605   1.077   0.958
 3442SOL     OW10783   3.089   1.550   1.506
 3442SOL    HW110784   3.095   1.473   1.570
 3442SOL    HW210785   3.037   1.524   1.426
 3443SOL     OW10786   2.183   0.943   0.242
 3443SOL    HW110787   2.265   0.982   0.200
 3443SOL    HW210788   2.156   0.861   0.193
 3444SOL     OW10789   3.320   0.735   0.728
 3444SOL    HW110790   3.315   0.670   0.803
 3444SOL    HW210791   3.400   0.794   0.741
 3445SOL     OW10792   2.323   1.266   1.727
 3445SOL    HW110793   2.273   1.267   1.641
 3445SOL    HW210794   2.260   1.248   1.803
 3446SOL     OW10795   2.973   1.776   0.237
 3446SOL    HW110796   2.913   1.714   0.287
 3446SOL    HW210797   3.004   1.732   0.152
 3447SOL     OW10798   2.064   0.285   1.498
 3447SOL    HW110799   1.984   0.345   1.485
 3447SOL    HW210800   2.054   0.236   1.584
 3448SOL     OW10801   3.494   1.377   0.081
 3448SOL    HW110802   3.462   1.471   0.071
 3448SOL    HW210803   3.418   1.314   0.069
 3449SOL     OW10804   2.326   1.743   0.323
 3449SOL    HW110805   2.359   1.782   0.409
 3449SOL    HW210806   2.402   1.736   0.258
 3450SOL     OW10807   3.262   0.107   0.426
 3450SOL    HW110808   3.238   0.070   0.336
 3450SOL    HW210809   3.361   0.123   0.430
 3451SOL     OW10810   2.111   1.785   1.241
 3451SOL    HW110811   2.168   1.720   1.291
 3451SOL    HW210812   2.095   1.752   1.148
 3452SOL     OW10813   2.802   1.698   0.904
 3452SOL    HW110814   2.882   1.641   0.925
 3452SOL    HW210815   2.753   1.658   0.827
 3453SOL     OW10816   2.244   0.700   0.480
 3453SOL    HW110817   2.289   0.610   0.477
 3453SOL    HW210818   2.150   0.689   0.513
 3454SOL     OW10819   3.409   0.222   1.729
 3454SOL    HW110820   3.404   0.259   1.821
 3454SOL    HW210821   3.337   0.153   1.717
 3455SOL     OW10822   2.476   0.122   0.117
 3455SOL    HW110823   2.574   0.100   0.124
 3455SOL    HW210824   2.445   0.105   0.024
 3456SOL     OW10825   2.643   0.264   1.749
 3456SOL    HW110826   2.710   0.203   1.792
 3456SOL    HW210827   2.570   0.283   1.814
 3457SOL     OW10828   2.750   1.514   1.195
 3457SOL    HW110829   2.727   1.489   1.101
 3457SOL    HW210830   2.811   1.445   1.234
 3458SOL     OW10831   3.213   0.590   1.433
 3458SOL    HW110832   3.241   0.547   1.518
 3458SOL    HW210833   3.238   0.686   1.434
 3459SOL     OW10834   2.665   1.402   0.924
 3459SOL    HW110835   2.755   1.416   0.882
 3459SOL    HW210836   2.594   1.404   0.853
 3460SOL     OW10837   2.784   0.503   0.899
 3460SOL    HW110838   2.759   0.494   0.803
 3460SOL    HW210839   2.832   0.421   0.930
 3461SOL     OW10840   2.401   0.064   0.512
 3461SOL    HW110841   2.320   0.065   0.570
 3461SOL    HW210842   2.404   0.147   0.457
 3462SOL     OW10843   3.296   1.188   0.041
 3462SOL    HW110844   3.328   1.112   0.098
 3462SOL    HW210845   3.204   1.215   0.071
 3463SOL     OW10846   2.159   0.035   0.171
 3463SOL    HW110847   2.208   0.119   0.150
 3463SOL    HW210848   2.221  -0.030   0.216
 3464SOL     OW10849   2.797   0.236   0.480
 3464SOL    HW110850   2.749   0.277   0.402
 3464SOL    HW210851   2.896   0.234   0.461
 3465SOL     OW10852   2.938   0.683   1.464
 3465SOL    HW110853   2.858   0.622   1.467
 3465SOL    HW210854   3.019   0.630   1.440
 3466SOL     OW10855   3.089   1.570   0.793
 3466SOL    HW110856   3.110   1.644   0.728
 3466SOL    HW210857   3.157   1.570   0.866
 3467SOL     OW10858   2.321   1.152   0.741
 3467SOL    HW110859   2.250   1.125   0.806
 3467SOL    HW210860   2.295   1.124   0.648
 3468SOL     OW10861   3.133   1.797   0.591
 3468SOL    HW110862   3.177   1.861   0.527
 3468SOL    HW210863   3.083   1.849   0.661
 3469SOL     OW10864   2.894   0.549   0.016
 3469SOL    HW110865   2.853   0.631  -0.023
 3469SOL    HW210866   2.958   0.575   0.089
 3470SOL     OW10867   1.940   0.556   1.386
 3470SOL    HW110868   2.032   0.555   1.345
 3470SOL    HW210869   1.934   0.630   1.453
 3471SOL     OW10870   2.423   0.222   1.147
 3471SOL    HW110871   2.461   0.138   1.184
 3471SOL    HW210872   2.335   0.241   1.191
 3472SOL     OW10873   2.728   0.454   0.642
 3472SOL    HW110874   2.696   0.526   0.580
 3472SOL    HW210875   2.752   0.373   0.589
 3473SOL     OW10876   2.879   0.039   0.753
 3473SOL    HW110877   2.807   0.044   0.684
 3473SOL    HW210878   2.855  -0.030   0.822
 3474SOL     OW10879   3.291   1.173   0.867
 3474SOL    HW110880   3.236   1.089   0.860
 3474SOL    HW210881   3.317   1.202   0.775
 3475SOL     OW10882   3.328   0.590   0.992
 3475SOL    HW110883   3.298   0.495   0.999
 3475SOL    HW210884   3.401   0.606   1.058
 3476SOL     OW10885   3.719   0.833   0.377
 3476SOL    HW110886   3.761   0.769   0.441
 3476SOL    HW210887   3.681   0.782   0.299
 3477SOL     OW10888   2.350   1.385   0.174
 3477SOL    HW110889   2.263   1.370   0.221
 3477SOL    HW210890   2.333   1.411   0.079
 3478SOL     OW10891   3.526   1.280   0.657
 3478SOL    HW110892   3.625   1.288   0.671
 3478SOL    HW210893   3.481   1.364   0.688
 3479SOL     OW10894   3.252   0.575   0.078
 3479SOL    HW110895   3.198   0.554   0.159
 3479SOL    HW210896   3.343   0.534   0.087
 3480SOL     OW10897   2.389   0.256   0.328
 3480SOL    HW110898   2.416   0.197   0.253
 3480SOL    HW210899   2.389   0.351   0.297
 3481SOL     OW10900   3.616   1.223   1.588
 3481SOL    HW110901   3.707   1.184   1.575
 3481SOL    HW210902   3.624   1.319   1.612
 3482SOL     OW10903   2.926   1.347   1.340
 3482SOL    HW110904   2.846   1.324   1.395
 3482SOL    HW210905   3.009   1.321   1.389
 3483SOL     OW10906   3.454   1.629   1.625
 3483SOL    HW110907   3.481   1.663   1.535
 3483SOL    HW210908   3.533   1.591   1.671
 3484SOL     OW10909   2.973   1.195   1.100
 3484SOL    HW110910   2.933   1.239   1.181
 3484SOL    HW210911   2.932   1.232   1.017
 3485SOL     OW10912   3.500   1.099   1.079
 3485SOL    HW110913   3.505   1.180   1.138
 3485SOL    HW210914   3.414   1.101   1.028
 3486SOL     OW10915   2.777   0.089   1.402
 3486SOL    HW110916   2.802   0.069   1.307
 3486SOL    HW210917   2.849   0.145   1.444
 3487SOL     OW10918   2.842   1.116   1.719
 3487SOL    HW110919   2.743   1.122   1.729
 3487SOL    HW210920   2.865   1.036   1.663
 3488SOL     OW10921   2.567   1.050   0.368
 3488SOL    HW110922   2.553   1.057   0.467
 3488SOL    HW210923   2.651   0.999   0.350
 3489SOL     OW10924   2.272   0.813   1.251
 3489SOL    HW110925   2.358   0.825   1.301
 3489SOL    HW210926   2.230   0.726   1.278
 3490SOL     OW10927   3.136   0.386   1.262
 3490SOL    HW110928   3.157   0.460   1.326
 3490SOL    HW210929   3.047   0.403   1.219
 3491SOL     OW10930   1.926   1.564   1.331
 3491SOL    HW110931   1.880   1.646   1.297
 3491SOL    HW210932   2.024   1.583   1.340
 3492SOL     OW10933   2.229   1.100   0.501
 3492SOL    HW110934   2.222   1.183   0.445
 3492SOL    HW210935   2.233   1.020   0.441
 3493SOL     OW10936   2.428   0.537   0.865
 3493SOL    HW110937   2.440   0.603   0.791
 3493SOL    HW210938   2.474   0.571   0.948
 3494SOL     OW10939   3.114   1.348   0.388
 3494SOL    HW110940   3.164   1.425   0.428
 3494SOL    HW210941   3.019   1.350   0.420
 3495SOL     OW10942   3.134   1.445   1.142
 3495SOL    HW110943   3.181   1.458   1.229
 3495SOL    HW210944   3.068   1.371   1.151
 3496SOL     OW10945   3.444   0.639   0.472
 3496SOL    HW110946   3.413   0.700   0.545
 3496SOL    HW210947   3.494   0.691   0.403
 3497SOL     OW10948   2.216   1.510   1.329
 3497SOL    HW110949   2.195   1.466   1.242
 3497SOL    HW210950   2.313   1.536   1.332
 3498SOL     OW10951   2.264   0.751   1.598
 3498SOL    HW110952   2.332   0.806   1.551
 3498SOL    HW210953   2.304   0.663   1.625
 3499SOL     OW10954   3.449   0.779   1.670
 3499SOL    HW110955   3.357   0.817   1.665
 3499SOL    HW210956   3.509   0.826   1.605
 3500SOL     OW10957   2.875   0.105   1.770
 3500SOL    HW110958   2.881   0.190   1.718
 3500SOL    HW210959   2.907   0.029   1.713
 3501SOL     OW10960   2.366   0.050   1.740
 3501SOL    HW110961   2.324  -0.007   1.670
 3501SOL    HW210962   2.300   0.119   1.772
 3502SOL     OW10963   2.435   0.870   1.029
 3502SOL    HW110964   2.479   0.959   1.020
 3502SOL    HW210965   2.372   0.870   1.106
 3503SOL     OW10966   3.222   0.862   1.045
 3503SOL    HW110967   3.147   0.862   0.979
 3503SOL    HW210968   3.259   0.770   1.054
 3504SOL     OW10969   3.071   0.525   0.275
 3504SOL    HW110970   3.084   0.441   0.329
 3504SOL    HW210971   3.042   0.599   0.335
 3505SOL     OW10972   2.169   0.213   1.231
 3505SOL    HW110973   2.146   0.250   1.321
 3505SOL    HW210974   2.139   0.118   1.225
 3506SOL     OW10975   1.899   1.310   1.282
 3506SOL    HW110976   1.952   1.261   1.350
 3506SOL    HW210977   1.921   1.408   1.287
 3507SOL     OW10978   2.594   0.634   1.064
 3507SOL    HW110979   2.653   0.608   0.988
 3507SOL    HW210980   2.566   0.730   1.053
 3508SOL     OW10981   3.590   0.935   1.854
 3508SOL    HW110982   3.544   0.928   1.765
 3508SOL    HW210983   3.528   0.979   1.920
 3509SOL     OW10984   2.169   0.063   0.618
 3509SOL    HW110985   2.158   0.157   0.651
 3509SOL    HW210986   2.164   0.000   0.695
 3510SOL     OW10987   3.484   0.367   0.374
 3510SOL    HW110988   3.486   0.291   0.438
 3510SOL    HW210989   3.436   0.444   0.414
 3511SOL     OW10990   2.885   0.766   0.966
 3511SOL    HW110991   2.900   0.787   1.062
 3511SOL    HW210992   2.855   0.671   0.957
 3512SOL     OW10993   2.842   1.573   1.700
 3512SOL    HW110994   2.822   1.617   1.612
 3512SOL    HW210995   2.881   1.482   1.684
 3513SOL     OW10996   3.721   1.518   1.605
 3513SOL    HW110997   3.735   1.545   1.510
 3513SOL    HW210998   3.804   1.540   1.658
 3514SOL     OW10999   2.212   0.898   1.804
 3514SOL    HW111000   2.288   0.942   1.852
 3514SOL    HW211001   2.247   0.851   1.722
 3515SOL     OW11002   3.402   0.274   0.125
 3515SOL    HW111003   3.341   0.199   0.148
 3515SOL    HW211004   3.424   0.326   0.208
 3516SOL     OW11005   3.165   0.838   0.042
 3516SOL    HW111006   3.199   0.745   0.057
 3516SOL    HW211007   3.183   0.865  -0.053
 3517SOL     OW11008   2.930   1.333   0.849
 3517SOL    HW111009   2.937   1.249   0.794
 3517SOL    HW211010   2.992   1.402   0.813
 3518SOL     OW11011   2.181   0.810   0.949
 3518SOL    HW111012   2.274   0.846   0.954
 3518SOL    HW211013   2.175   0.725   1.001
 3519SOL     OW11014   2.201   0.509   1.006
 3519SOL    HW111015   2.149   0.426   0.989
 3519SOL    HW211016   2.278   0.514   0.942
 3520SOL     OW11017   3.000   0.380   1.678
 3520SOL    HW111018   2.955   0.443   1.742
 3520SOL    HW211019   3.093   0.411   1.661
 3521SOL     OW11020   3.022   0.207   1.477
 3521SOL    HW111021   3.022   0.271   1.554
 3521SOL    HW211022   3.050   0.255   1.394
 3522SOL     OW11023   1.870   1.326   0.200
 3522SOL    HW111024   1.777   1.347   0.169
 3522SOL    HW211025   1.880   1.227   0.213
 3523SOL     OW11026   1.950   1.801   0.927
 3523SOL    HW111027   1.908   1.715   0.900
 3523SOL    HW211028   2.044   1.804   0.893
 3524SOL     OW11029   2.366   1.568   0.910
 3524SOL    HW111030   2.432   1.642   0.919
 3524SOL    HW211031   2.410   1.489   0.868
 3525SOL     OW11032   2.864   0.796   1.238
 3525SOL    HW111033   2.905   0.764   1.324
 3525SOL    HW211034   2.768   0.769   1.235
 3526SOL     OW11035   1.902   0.544   1.114
 3526SOL    HW111036   1.987   0.511   1.073
 3526SOL    HW211037   1.915   0.559   1.212
 3527SOL     OW11038   2.051   0.520   1.722
 3527SOL    HW111039   2.110   0.480   1.652
 3527SOL    HW211040   1.993   0.591   1.681
 3528SOL     OW11041   3.231   0.950   1.660
 3528SOL    HW111042   3.270   1.039   1.680
 3528SOL    HW211043   3.241   0.930   1.563
 3529SOL     OW11044   2.677   0.572   0.325
 3529SOL    HW111045   2.684   0.483   0.279
 3529SOL    HW211046   2.583   0.606   0.317
 3530SOL     OW11047   3.519   0.604   1.206
 3530SOL    HW111048   3.481   0.535   1.268
 3530SOL    HW211049   3.601   0.568   1.162
 3531SOL     OW11050   2.114   1.564   1.744
 3531SOL    HW111051   2.084   1.621   1.820
 3531SOL    HW211052   2.107   1.467   1.770
 3532SOL     OW11053   2.533   0.464   1.269
 3532SOL    HW111054   2.499   0.375   1.239
 3532SOL    HW211055   2.559   0.518   1.189
 3533SOL     OW11056   2.792   1.678   1.465
 3533SOL    HW111057   2.768   1.660   1.370
 3533SOL    HW211058   2.822   1.772   1.475
 3534SOL     OW11059   2.335   0.500   0.191
 3534SOL    HW111060   2.396   0.580   0.195
 3534SOL    HW211061   2.240   0.531   0.198
 3535SOL     OW11062   2.021   1.137   1.466
 3535SOL    HW111063   2.043   1.076   1.542
 3535SOL    HW211064   2.031   1.088   1.380
 3536SOL     OW11065   3.209   1.059   1.234
 3536SOL    HW111066   3.233   0.996   1.160
 3536SOL    HW211067   3.119   1.099   1.216
 3537SOL     OW11068   3.164   0.855   0.309
 3537SOL    HW111069   3.078   0.824   0.351
 3537SOL    HW211070   3.160   0.841   0.210
 3538SOL     OW11071   3.621   1.747   1.154
 3538SOL    HW111072   3.682   1.777   1.081
 3538SOL    HW211073   3.583   1.658   1.132
 3539SOL     OW11074   3.114   1.731   1.128
 3539SOL    HW111075   3.198   1.736   1.074
 3539SOL    HW211076   3.091   1.635   1.146
 3540SOL     OW11077   1.945   1.258   1.022
 3540SOL    HW111078   1.940   1.257   1.122
 3540SOL    HW211079   1.862   1.217   0.984
 3541SOL     OW11080   2.550   1.662   1.716
 3541SOL    HW111081   2.494   1.743   1.725
 3541SOL    HW211082   2.602   1.666   1.630
 3542SOL     OW11083   2.765   0.086   0.133
 3542SOL    HW111084   2.816   0.087   0.047
 3542SOL    HW211085   2.821   0.044   0.204
 3543SOL     OW11086   3.588   0.135   0.523
 3543SOL    HW111087   3.661   0.118   0.456
 3543SOL    HW211088   3.557   0.048   0.561
 3544SOL     OW11089   3.250   1.573   0.477
 3544SOL    HW111090   3.317   1.585   0.403
 3544SOL    HW211091   3.210   1.662   0.500
 3545SOL     OW11092   1.992   1.794   1.851
 3545SOL    HW111093   1.951   1.720   1.904
 3545SOL    HW211094   2.056   1.845   1.909
 3546SOL     OW11095   3.142   0.927   0.672
 3546SOL    HW111096   3.202   0.846   0.674
 3546SOL    HW211097   3.182   0.996   0.612
 3547SOL     OW11098   2.692   1.273   1.422
 3547SOL    HW111099   2.687   1.306   1.517
 3547SOL    HW211100   2.606   1.292   1.376
 3548SOL     OW11101   2.534   1.616   0.154
 3548SOL    HW111102   2.543   1.626   0.055
 3548SOL    HW211103   2.494   1.527   0.175
 3549SOL     OW11104   3.512   1.720   1.394
 3549SOL    HW111105   3.565   1.730   1.310
 3549SOL    HW211106   3.485   1.810   1.428
 3550SOL     OW11107   3.703   0.175   0.963
 3550SOL    HW111108   3.742   0.090   0.927
 3550SOL    HW211109   3.605   0.177   0.944
 3551SOL     OW11110   2.125   0.326   0.720
 3551SOL    HW111111   2.046   0.377   0.686
 3551SOL    HW211112   2.116   0.311   0.818
 3552SOL     OW11113   3.056   1.612   0.031
 3552SOL    HW111114   3.062   1.519   0.068
 3552SOL    HW211115   2.997   1.612  -0.049
 3553SOL     OW11116   2.684   1.002   1.372
 3553SOL    HW111117   2.724   1.001   1.280
 3553SOL    HW211118   2.694   1.094   1.412
 3554SOL     OW11119   2.778   0.910   0.291
 3554SOL    HW111120   2.841   0.948   0.223
 3554SOL    HW211121   2.818   0.827   0.330
 3555SOL     OW11122   3.366   1.607   0.044
 3555SOL    HW111123   3.274   1.644   0.051
 3555SOL    HW211124   3.404   1.627  -0.046
 3556SOL     OW11125   2.234   1.288   1.490
 3556SOL    HW111126   2.221   1.381   1.456
 3556SOL    HW211127   2.150   1.236   1.477
 3557SOL     OW11128   3.476   1.292   1.289
 3557SOL    HW111129   3.536   1.295   1.369
 3557SOL    HW211130   3.401   1.356   1.302
 3558SOL     OW11131   2.901   1.098   0.696
 3558SOL    HW111132   2.831   1.051   0.750
 3558SOL    HW211133   2.960   1.030   0.653
 3559SOL     OW11134   2.876   0.236   0.971
 3559SOL    HW111135   2.868   0.200   0.878
 3559SOL    HW211136   2.874   0.160   1.036
 3560SOL     OW11137   2.452   1.487   0.491
 3560SOL    HW111138   2.494   1.429   0.421
 3560SOL    HW211139   2.408   1.566   0.447
 3561SOL     OW11140   3.571   0.385   1.381
 3561SOL    HW111141   3.644   0.454   1.385
 3561SOL    HW211142   3.599   0.310   1.322
 3562SOL     OW11143   2.117   1.348   0.290
 3562SOL    HW111144   2.021   1.349   0.263
 3562SOL    HW211145   2.129   1.401   0.374
 3563SOL     OW11146   1.967   1.013   1.726
 3563SOL    HW111147   1.890   0.980   1.780
 3563SOL    HW211148   2.052   0.983   1.768
 3564SOL     OW11149   2.534   0.203   1.489
 3564SOL    HW111150   2.624   0.187   1.449
 3564SOL    HW211151   2.542   0.208   1.588
 3565SOL     OW11152   1.937   0.345   0.033
 3565SOL    HW111153   1.845   0.317   0.004
 3565SOL    HW211154   1.968   0.422  -0.023
 3566SOL     OW11155   3.302   0.856   1.398
 3566SOL    HW111156   3.245   0.908   1.335
 3566SOL    HW211157   3.398   0.868   1.374
 3567SOL     OW11158   1.934   0.166   0.318
 3567SOL    HW111159   1.917   0.249   0.264
 3567SOL    HW211160   2.024   0.129   0.296
 3568SOL     OW11161   3.045   1.335   0.119
 3568SOL    HW111162   2.946   1.324   0.121
 3568SOL    HW211163   3.079   1.350   0.212
 3569SOL     OW11164   2.475   0.842   1.431
 3569SOL    HW111165   2.531   0.923   1.414
 3569SOL    HW211166   2.534   0.762   1.434
 3570SOL     OW11167   3.355   1.767   0.959
 3570SOL    HW111168   3.388   1.831   0.890
 3570SOL    HW211169   3.421   1.761   1.034
 3571SOL     OW11170   2.578   0.565   1.708
 3571SOL    HW111171   2.597   0.630   1.782
 3571SOL    HW211172   2.638   0.485   1.717
 3572SOL     OW11173   3.312   1.220   1.633
 3572SOL    HW111174   3.303   1.210   1.732
 3572SOL    HW211175   3.408   1.213   1.607
 3573SOL     OW11176   2.252   1.741   1.560
 3573SOL    HW111177   2.161   1.782   1.558
 3573SOL    HW211178   2.245   1.647   1.592
 3574SOL     OW11179   3.536   0.883   1.254
 3574SOL    HW111180   3.509   0.794   1.217
 3574SOL    HW211181   3.537   0.951   1.181
 3575SOL     OW11182   3.087   0.325   0.449
 3575SOL    HW111183   3.152   0.251   0.438
 3575SOL    HW211184   3.107   0.375   0.533
 3576SOL     OW11185   2.456   0.745   0.652
 3576SOL    HW111186   2.506   0.830   0.633
 3576SOL    HW211187   2.368   0.747   0.604
 3577SOL     OW11188   3.639   0.342   1.642
 3577SOL    HW111189   3.622   0.373   1.548
 3577SOL    HW211190   3.555   0.305   1.680
 3578SOL     OW11191   3.592   0.934   1.517
 3578SOL    HW111192   3.630   1.025   1.532
 3578SOL    HW211193   3.584   0.917   1.418
 3579SOL     OW11194   2.721   1.374   0.016
 3579SOL    HW111195   2.675   1.389   0.104
 3579SOL    HW211196   2.765   1.459  -0.014
 3580SOL     OW11197   2.523   1.790   0.953
 3580SOL    HW111198   2.477   1.878   0.940
 3580SOL    HW211199   2.622   1.802   0.946
 3581SOL     OW11200   2.721   0.956   0.861
 3581SOL    HW111201   2.775   0.887   0.909
 3581SOL    HW211202   2.689   1.025   0.927
 3582SOL     OW11203   2.945   0.984   0.087
 3582SOL    HW111204   2.922   1.037   0.005
 3582SOL    HW211205   3.026   0.928   0.068
 3583SOL     OW11206   3.723   1.569   0.851
 3583SOL    HW111207   3.652   1.557   0.781
 3583SOL    HW211208   3.724   1.490   0.911
 3584SOL     OW11209   2.083   1.314   1.844
 3584SOL    HW111210   2.018   1.241   1.823
 3584SOL    HW211211   2.087   1.328   1.942
 3585SOL     OW11212   1.941   1.240   0.653
 3585SOL    HW111213   1.940   1.193   0.741
 3585SOL    HW211214   2.023   1.212   0.602
 3586SOL     OW11215   2.534   1.391   1.624
 3586SOL    HW111216   2.456   1.341   1.662
 3586SOL    HW211217   2.531   1.486   1.655
 3587SOL     OW11218   3.686   0.192   1.227
 3587SOL    HW111219   3.682   0.102   1.271
 3587SOL    HW211220   3.689   0.181   1.128
 3588SOL     OW11221   2.290   0.424   0.520
 3588SOL    HW111222   2.320   0.352   0.458
 3588SOL    HW211223   2.251   0.384   0.603
 3589SOL     OW11224   3.567   1.487   1.104
 3589SOL    HW111225   3.474   1.462   1.077
 3589SOL    HW211226   3.593   1.437   1.186
 3590SOL     OW11227   2.179   0.547   1.280
 3590SOL    HW111228   2.217   0.488   1.352
 3590SOL    HW211229   2.219   0.521   1.192
 3591SOL     OW11230   2.674   1.586   0.687
 3591SOL    HW111231   2.706   1.596   0.593
 3591SOL    HW211232   2.595   1.524   0.689
 3592SOL     OW11233   3.286   0.214   1.112
 3592SOL    HW111234   3.338   0.149   1.167
 3592SOL    HW211235   3.237   0.277   1.173
 3593SOL     OW11236   2.863   0.034   1.154
 3593SOL    HW111237   2.800  -0.038   1.123
 3593SOL    HW211238   2.956  -0.002   1.154
 3594SOL     OW11239   2.632   1.330   0.301
 3594SOL    HW111240   2.586   1.243   0.318
 3594SOL    HW211241   2.723   1.327   0.342
 3595SOL     OW11242   2.480   1.567   1.284
 3595SOL    HW111243   2.475   1.649   1.341
 3595SOL    HW211244   2.569   1.564   1.239
 3596SOL     OW11245   3.214   0.052   0.168
 3596SOL    HW111246   3.249   0.011   0.084
 3596SOL    HW211247   3.124   0.014   0.188
 3597SOL     OW11248   3.162   0.453   0.691
 3597SOL    HW111249   3.103   0.533   0.695
 3597SOL    HW211250   3.177   0.418   0.784
 3598SOL     OW11251   3.455   0.221   0.882
 3598SOL    HW111252   3.371   0.220   0.936
 3598SOL    HW211253   3.457   0.304   0.826
 3599SOL     OW11254   1.901   1.077   0.300
 3599SOL    HW111255   2.000   1.066   0.291
 3599SOL    HW211256   1.861   0.991   0.332
 3600SOL     OW11257   2.737   1.646   0.337
 3600SOL    HW111258   2.660   1.611   0.283
 3600SOL    HW211259   2.705   1.717   0.399
 3601SOL     OW11260   2.092   0.628   1.975
 3601SOL    HW111261   1.999   0.626   2.012
 3601SOL    HW211262   2.093   0.589   1.883
 3602SOL     OW11263   2.087   0.275   2.858
 3602SOL    HW111264   2.122   0.258   2.950
 3602SOL    HW211265   1.999   0.230   2.846
 3603SOL     OW11266   1.881   0.368   2.509
 3603SOL    HW111267   1.799   0.411   2.548
 3603SOL    HW211268   1.853   0.295   2.446
 3604SOL     OW11269   2.431   1.275   3.027
 3604SOL    HW111270   2.338   1.268   2.990
 3604SOL    HW211271   2.442   1.364   3.071
 3605SOL     OW11272   3.417   1.511   2.565
 3605SOL    HW111273   3.360   1.495   2.646
 3605SOL    HW211274   3.358   1.521   2.485
 3606SOL     OW11275   2.997   0.703   2.579
 3606SOL    HW111276   3.054   0.781   2.554
 3606SOL    HW211277   2.937   0.729   2.655
 3607SOL     OW11278   3.617   0.607   2.093
 3607SOL    HW111279   3.605   0.594   1.994
 3607SOL    HW211280   3.587   0.526   2.142
 3608SOL     OW11281   2.630   1.144   2.885
 3608SOL    HW111282   2.552   1.161   2.945
 3608SOL    HW211283   2.664   1.231   2.849
 3609SOL     OW11284   2.712   0.798   3.685
 3609SOL    HW111285   2.708   0.874   3.750
 3609SOL    HW211286   2.734   0.834   3.594
 3610SOL     OW11287   2.547   1.012   2.527
 3610SOL    HW111288   2.616   0.996   2.597
 3610SOL    HW211289   2.474   1.069   2.565
 3611SOL     OW11290   2.548   1.161   3.665
 3611SOL    HW111291   2.608   1.240   3.679
 3611SOL    HW211292   2.462   1.192   3.624
 3612SOL     OW11293   2.197   1.435   2.923
 3612SOL    HW111294   2.119   1.404   2.870
 3612SOL    HW211295   2.255   1.493   2.866
 3613SOL     OW11296   3.322   1.505   3.201
 3613SOL    HW111297   3.346   1.599   3.227
 3613SOL    HW211298   3.306   1.451   3.283
 3614SOL     OW11299   2.300   0.392   3.361
 3614SOL    HW111300   2.382   0.336   3.370
 3614SOL    HW211301   2.219   0.334   3.365
 3615SOL     OW11302   3.465   0.447   2.599
 3615SOL    HW111303   3.391   0.493   2.549
 3615SOL    HW211304   3.516   0.515   2.652
 3616SOL     OW11305   2.093   1.713   2.345
 3616SOL    HW111306   2.127   1.790   2.399
 3616SOL    HW211307   2.137   1.713   2.255
 3617SOL     OW11308   2.989   1.341   3.552
 3617SOL    HW111309   3.036   1.341   3.640
 3617SOL    HW211310   2.941   1.254   3.541
 3618SOL     OW11311   2.092   1.434   2.400
 3618SOL    HW111312   2.066   1.530   2.400
 3618SOL    HW211313   2.021   1.380   2.445
 3619SOL     OW11314   2.102   1.091   2.748
 3619SOL    HW111315   2.116   1.007   2.800
 3619SOL    HW211316   2.047   1.155   2.803
 3620SOL     OW11317   2.482   1.786   3.301
 3620SOL    HW111318   2.390   1.769   3.336
 3620SOL    HW211319   2.510   1.878   3.327
 3621SOL     OW11320   2.468   0.964   1.985
 3621SOL    HW111321   2.475   1.048   1.931
 3621SOL    HW211322   2.514   0.977   2.073
 3622SOL     OW11323   3.456   0.114   3.342
 3622SOL    HW111324   3.438   0.181   3.270
 3622SOL    HW211325   3.453   0.160   3.431
 3623SOL     OW11326   1.984   0.643   2.425
 3623SOL    HW111327   1.939   0.555   2.442
 3623SOL    HW211328   1.983   0.697   2.509
 3624SOL     OW11329   3.704   1.767   2.221
 3624SOL    HW111330   3.758   1.738   2.301
 3624SOL    HW211331   3.734   1.857   2.192
 3625SOL     OW11332   1.889   1.596   1.979
 3625SOL    HW111333   1.870   1.500   2.000
 3625SOL    HW211334   1.856   1.654   2.054
 3626SOL     OW11335   3.551   0.922   2.474
 3626SOL    HW111336   3.646   0.893   2.482
 3626SOL    HW211337   3.543   0.987   2.399
 3627SOL     OW11338   3.503   1.108   2.294
 3627SOL    HW111339   3.589   1.110   2.242
 3627SOL    HW211340   3.517   1.155   2.382
 3628SOL     OW11341   1.975   0.737   3.459
 3628SOL    HW111342   2.063   0.724   3.504
 3628SOL    HW211343   1.962   0.834   3.437
 3629SOL     OW11344   2.475   1.365   2.588
 3629SOL    HW111345   2.426   1.278   2.597
 3629SOL    HW211346   2.452   1.408   2.501
 3630SOL     OW11347   3.155   1.228   3.285
 3630SOL    HW111348   3.192   1.155   3.227
 3630SOL    HW211349   3.207   1.233   3.370
 3631SOL     OW11350   2.671   0.004   2.364
 3631SOL    HW111351   2.711   0.095   2.355
 3631SOL    HW211352   2.571   0.012   2.370
 3632SOL     OW11353   2.059   0.976   3.126
 3632SOL    HW111354   2.148   0.931   3.112
 3632SOL    HW211355   1.986   0.911   3.107
 3633SOL     OW11356   3.387   0.999   2.052
 3633SOL    HW111357   3.324   0.923   2.065
 3633SOL    HW211358   3.435   1.017   2.138
 3634SOL     OW11359   3.049   1.792   3.478
 3634SOL    HW111360   3.073   1.852   3.402
 3634SOL    HW211361   3.056   1.697   3.448
 3635SOL     OW11362   2.179   0.251   3.663
 3635SOL    HW111363   2.250   0.322   3.669
 3635SOL    HW211364   2.091   0.290   3.691
 3636SOL     OW11365   3.328   1.417   2.815
 3636SOL    HW111366   3.269   1.423   2.895
 3636SOL    HW211367   3.313   1.329   2.769
 3637SOL     OW11368   3.529   1.714   2.434
 3637SOL    HW111369   3.488   1.691   2.346
 3637SOL    HW211370   3.511   1.640   2.499
 3638SOL     OW11371   2.460   0.729   2.132
 3638SOL    HW111372   2.484   0.798   2.064
 3638SOL    HW211373   2.382   0.762   2.186
 3639SOL     OW11374   3.143   0.345   2.806
 3639SOL    HW111375   3.057   0.295   2.793
 3639SOL    HW211376   3.205   0.291   2.862
 3640SOL     OW11377   3.438   1.662   2.169
 3640SOL    HW111378   3.527   1.708   2.172
 3640SOL    HW211379   3.417   1.638   2.074
 3641SOL     OW11380   2.669   0.605   3.327
 3641SOL    HW111381   2.622   0.602   3.416
 3641SOL    HW211382   2.618   0.550   3.261
 3642SOL     OW11383   3.256   0.469   3.536
 3642SOL    HW111384   3.236   0.512   3.624
 3642SOL    HW211385   3.334   0.407   3.545
 3643SOL     OW11386   2.835   0.890   3.434
 3643SOL    HW111387   2.881   0.806   3.405
 3643SOL    HW211388   2.779   0.924   3.359
 3644SOL     OW11389   2.853   0.410   3.104
 3644SOL    HW111390   2.776   0.444   3.158
 3644SOL    HW211391   2.819   0.359   3.025
 3645SOL     OW11392   2.903   0.701   2.291
 3645SOL    HW111393   2.929   0.697   2.387
 3645SOL    HW211394   2.818   0.650   2.277
 3646SOL     OW11395   1.938   0.811   2.651
 3646SOL    HW111396   2.037   0.799   2.660
 3646SOL    HW211397   1.914   0.906   2.672
 3647SOL     OW11398   2.727   0.348   2.057
 3647SOL    HW111399   2.786   0.411   2.008
 3647SOL    HW211400   2.746   0.254   2.028
 3648SOL     OW11401   3.581   0.585   3.693
 3648SOL    HW111402   3.555   0.674   3.657
 3648SOL    HW211403   3.579   0.517   3.620
 3649SOL     OW11404   3.224   1.144   2.407
 3649SOL    HW111405   3.307   1.115   2.359
 3649SOL    HW211406   3.175   1.211   2.351
 3650SOL     OW11407   2.412   0.196   2.747
 3650SOL    HW111408   2.407   0.191   2.847
 3650SOL    HW211409   2.414   0.292   2.718
 3651SOL     OW11410   2.870   1.456   2.339
 3651SOL    HW111411   2.824   1.528   2.287
 3651SOL    HW211412   2.866   1.476   2.437
 3652SOL     OW11413   2.213   1.801   2.715
 3652SOL    HW111414   2.263   1.715   2.721
 3652SOL    HW211415   2.278   1.878   2.712
 3653SOL     OW11416   3.657   1.066   2.735
 3653SOL    HW111417   3.595   1.051   2.659
 3653SOL    HW211418   3.605   1.077   2.820
 3654SOL     OW11419   3.089   1.550   3.368
 3654SOL    HW111420   3.095   1.473   3.432
 3654SOL    HW211421   3.037   1.524   3.288
 3655SOL     OW11422   2.183   0.943   2.104
 3655SOL    HW111423   2.265   0.982   2.062
 3655SOL    HW211424   2.156   0.861   2.055
 3656SOL     OW11425   3.320   0.735   2.590
 3656SOL    HW111426   3.315   0.670   2.665
 3656SOL    HW211427   3.400   0.794   2.603
 3657SOL     OW11428   2.323   1.266   3.589
 3657SOL    HW111429   2.273   1.267   3.503
 3657SOL    HW211430   2.260   1.248   3.665
 3658SOL     OW11431   2.973   1.776   2.099
 3658SOL    HW111432   2.913   1.714   2.149
 3658SOL    HW211433   3.004   1.732   2.014
 3659SOL     OW11434   2.064   0.285   3.360
 3659SOL    HW111435   1.984   0.345   3.347
 3659SOL    HW211436   2.054   0.236   3.446
 3660SOL     OW11437   3.494   1.377   1.943
 3660SOL    HW111438   3.462   1.471   1.933
 3660SOL    HW211439   3.418   1.314   1.931
 3661SOL     OW11440   2.326   1.743   2.185
 3661SOL    HW111441   2.359   1.782   2.271
 3661SOL    HW211442   2.402   1.736   2.120
 3662SOL     OW11443   3.262   0.107   2.288
 3662SOL    HW111444   3.238   0.070   2.198
 3662SOL    HW211445   3.361   0.123   2.292
 3663SOL     OW11446   2.111   1.785   3.103
 3663SOL    HW111447   2.168   1.720   3.153
 3663SOL    HW211448   2.095   1.752   3.010
 3664SOL     OW11449   2.802   1.698   2.766
 3664SOL    HW111450   2.882   1.641   2.787
 3664SOL    HW211451   2.753   1.658   2.689
 3665SOL     OW11452   2.244   0.700   2.342
 3665SOL    HW111453   2.289   0.610   2.339
 3665SOL    HW211454   2.150   0.689   2.375
 3666SOL     OW11455   3.409   0.222   3.591
 3666SOL    HW111456   3.404   0.259   3.683
 3666SOL    HW211457   3.337   0.153   3.579
 3667SOL     OW11458   2.476   0.122   1.979
 3667SOL    HW111459   2.574   0.100   1.986
 3667SOL    HW211460   2.445   0.105   1.886
 3668SOL     OW11461   2.643   0.264   3.611
 3668SOL    HW111462   2.710   0.203   3.654
 3668SOL    HW211463   2.570   0.283   3.676
 3669SOL     OW11464   2.750   1.514   3.057
 3669SOL    HW111465   2.727   1.489   2.963
 3669SOL    HW211466   2.811   1.445   3.096
 3670SOL     OW11467   3.213   0.590   3.295
 3670SOL    HW111468   3.241   0.547   3.380
 3670SOL    HW211469   3.238   0.686   3.296
 3671SOL     OW11470   2.665   1.402   2.786
 3671SOL    HW111471   2.755   1.416   2.744
 3671SOL    HW211472   2.594   1.404   2.715
 3672SOL     OW11473   2.784   0.503   2.761
 3672SOL    HW111474   2.759   0.494   2.665
 3672SOL    HW211475   2.832   0.421   2.792
 3673SOL     OW11476   2.401   0.064   2.374
 3673SOL    HW111477   2.320   0.065   2.432
 3673SOL    HW211478   2.404   0.147   2.319
 3674SOL     OW11479   3.296   1.188   1.903
 3674SOL    HW111480   3.328   1.112   1.960
 3674SOL    HW211481   3.204   1.215   1.933
 3675SOL     OW11482   2.159   0.035   2.033
 3675SOL    HW111483   2.208   0.119   2.012
 3675SOL    HW211484   2.221  -0.030   2.078
 3676SOL     OW11485   2.797   0.236   2.342
 3676SOL    HW111486   2.749   0.277   2.264
 3676SOL    HW211487   2.896   0.234   2.323
 3677SOL     OW11488   2.938   0.683   3.326
 3677SOL    HW111489   2.858   0.622   3.329
 3677SOL    HW211490   3.019   0.630   3.302
 3678SOL     OW11491   3.089   1.570   2.655
 3678SOL    HW111492   3.110   1.644   2.590
 3678SOL    HW211493   3.157   1.570   2.728
 3679SOL     OW11494   2.321   1.152   2.603
 3679SOL    HW111495   2.250   1.125   2.668
 3679SOL    HW211496   2.295   1.124   2.510
 3680SOL     OW11497   3.133   1.797   2.453
 3680SOL    HW111498   3.177   1.861   2.389
 3680SOL    HW211499   3.083   1.849   2.523
 3681SOL     OW11500   2.894   0.549   1.878
 3681SOL    HW111501   2.853   0.631   1.839
 3681SOL    HW211502   2.958   0.575   1.951
 3682SOL     OW11503   1.940   0.556   3.248
 3682SOL    HW111504   2.032   0.555   3.207
 3682SOL    HW211505   1.934   0.630   3.315
 3683SOL     OW11506   2.423   0.222   3.009
 3683SOL    HW111507   2.461   0.138   3.046
 3683SOL    HW211508   2.335   0.241   3.053
 3684SOL     OW11509   2.728   0.454   2.504
 3684SOL    HW111510   2.696   0.526   2.442
 3684SOL    HW211511   2.752   0.373   2.451
 3685SOL     OW11512   2.879   0.039   2.615
 3685SOL    HW111513   2.807   0.044   2.546
 3685SOL    HW211514   2.855  -0.030   2.684
 3686SOL     OW11515   3.291   1.173   2.729
 3686SOL    HW111516   3.236   1.089   2.722
 3686SOL    HW211517   3.317   1.202   2.637
 3687SOL     OW11518   3.328   0.590   2.854
 3687SOL    HW111519   3.298   0.495   2.861
 3687SOL    HW211520   3.401   0.606   2.920
 3688SOL     OW11521   3.719   0.833   2.239
 3688SOL    HW111522   3.761   0.769   2.303
 3688SOL    HW211523   3.681   0.782   2.161
 3689SOL     OW11524   2.350   1.385   2.036
 3689SOL    HW111525   2.263   1.370   2.083
 3689SOL    HW211526   2.333   1.411   1.941
 3690SOL     OW11527   3.526   1.280   2.519
 3690SOL    HW111528   3.625   1.288   2.533
 3690SOL    HW211529   3.481   1.364   2.550
 3691SOL     OW11530   3.252   0.575   1.940
 3691SOL    HW111531   3.198   0.554   2.021
 3691SOL    HW211532   3.343   0.534   1.949
 3692SOL     OW11533   2.389   0.256   2.190
 3692SOL    HW111534   2.416   0.197   2.115
 3692SOL    HW211535   2.389   0.351   2.159
 3693SOL     OW11536   3.616   1.223   3.450
 3693SOL    HW111537   3.707   1.184   3.437
 3693SOL    HW211538   3.624   1.319   3.474
 3694SOL     OW11539   2.926   1.347   3.202
 3694SOL    HW111540   2.846   1.324   3.257
 3694SOL    HW211541   3.009   1.321   3.251
 3695SOL     OW11542   3.454   1.629   3.487
 3695SOL    HW111543   3.481   1.663   3.397
 3695SOL    HW211544   3.533   1.591   3.533
 3696SOL     OW11545   2.973   1.195   2.962
 3696SOL    HW111546   2.933   1.239   3.043
 3696SOL    HW211547   2.932   1.232   2.879
 3697SOL     OW11548   3.500   1.099   2.941
 3697SOL    HW111549   3.505   1.180   3.000
 3697SOL    HW211550   3.414   1.101   2.890
 3698SOL     OW11551   2.777   0.089   3.264
 3698SOL    HW111552   2.802   0.069   3.169
 3698SOL    HW211553   2.849   0.145   3.306
 3699SOL     OW11554   2.842   1.116   3.581
 3699SOL    HW111555   2.743   1.122   3.591
 3699SOL    HW211556   2.865   1.036   3.525
 3700SOL     OW11557   2.567   1.050   2.230
 3700SOL    HW111558   2.553   1.057   2.329
 3700SOL    HW211559   2.651   0.999   2.212
 3701SOL     OW11560   2.272   0.813   3.113
 3701SOL    HW111561   2.358   0.825   3.163
 3701SOL    HW211562   2.230   0.726   3.140
 3702SOL     OW11563   3.136   0.386   3.124
 3702SOL    HW111564   3.157   0.460   3.188
 3702SOL    HW211565   3.047   0.403   3.081
 3703SOL     OW11566   1.926   1.564   3.193
 3703SOL    HW111567   1.880   1.646   3.159
 3703SOL    HW211568   2.024   1.583   3.202
 3704SOL     OW11569   2.229   1.100   2.363
 3704SOL    HW111570   2.222   1.183   2.307
 3704SOL    HW211571   2.233   1.020   2.303
 3705SOL     OW11572   2.428   0.537   2.727
 3705SOL    HW111573   2.440   0.603   2.653
 3705SOL    HW211574   2.474   0.571   2.810
 3706SOL     OW11575   3.114   1.348   2.250
 3706SOL    HW111576   3.164   1.425   2.290
 3706SOL    HW211577   3.019   1.350   2.282
 3707SOL     OW11578   3.134   1.445   3.004
 3707SOL    HW111579   3.181   1.458   3.091
 3707SOL    HW211580   3.068   1.371   3.013
 3708SOL     OW11581   3.444   0.639   2.334
 3708SOL    HW111582   3.413   0.700   2.407
 3708SOL    HW211583   3.494   0.691   2.265
 3709SOL     OW11584   2.216   1.510   3.191
 3709SOL    HW111585   2.195   1.466   3.104
 3709SOL    HW211586   2.313   1.536   3.194
 3710SOL     OW11587   2.264   0.751   3.460
 3710SOL    HW111588   2.332   0.806   3.413
 3710SOL    HW211589   2.304   0.663   3.487
 3711SOL     OW11590   3.449   0.779   3.532
 3711SOL    HW111591   3.357   0.817   3.527
 3711SOL    HW211592   3.509   0.826   3.467
 3712SOL     OW11593   2.875   0.105   3.632
 3712SOL    HW111594   2.881   0.190   3.580
 3712SOL    HW211595   2.907   0.029   3.575
 3713SOL     OW11596   2.366   0.050   3.602
 3713SOL    HW111597   2.324  -0.007   3.532
 3713SOL    HW211598   2.300   0.119   3.634
 3714SOL     OW11599   2.435   0.870   2.891
 3714SOL    HW111600   2.479   0.959   2.882
 3714SOL    HW211601   2.372   0.870   2.968
 3715SOL     OW11602   3.222   0.862   2.907
 3715SOL    HW111603   3.147   0.862   2.841
 3715SOL    HW211604   3.259   0.770   2.916
 3716SOL     OW11605   3.071   0.525   2.137
 3716SOL    HW111606   3.084   0.441   2.191
 3716SOL    HW211607   3.042   0.599   2.197
 3717SOL     OW11608   2.169   0.213   3.093
 3717SOL    HW111609   2.146   0.250   3.183
 3717SOL    HW211610   2.139   0.118   3.087
 3718SOL     OW11611   1.899   1.310   3.144
 3718SOL    HW111612   1.952   1.261   3.212
 3718SOL    HW211613   1.921   1.408   3.149
 3719SOL     OW11614   2.594   0.634   2.926
 3719SOL    HW111615   2.653   0.608   2.850
 3719SOL    HW211616   2.566   0.730   2.915
 3720SOL     OW11617   3.590   0.935   3.716
 3720SOL    HW111618   3.544   0.928   3.627
 3720SOL    HW211619   3.528   0.979   3.782
 3721SOL     OW11620   2.169   0.063   2.480
 3721SOL    HW111621   2.158   0.157   2.513
 3721SOL    HW211622   2.164   0.000   2.557
 3722SOL     OW11623   3.484   0.367   2.236
 3722SOL    HW111624   3.486   0.291   2.300
 3722SOL    HW211625   3.436   0.444   2.276
 3723SOL     OW11626   2.885   0.766   2.828
 3723SOL    HW111627   2.900   0.787   2.924
 3723SOL    HW211628   2.855   0.671   2.819
 3724SOL     OW11629   2.842   1.573   3.562
 3724SOL    HW111630   2.822   1.617   3.474
 3724SOL    HW211631   2.881   1.482   3.546
 3725SOL     OW11632   3.721   1.518   3.467
 3725SOL    HW111633   3.735   1.545   3.372
 3725SOL    HW211634   3.804   1.540   3.520
 3726SOL     OW11635   2.212   0.898   3.666
 3726SOL    HW111636   2.288   0.942   3.714
 3726SOL    HW211637   2.247   0.851   3.584
 3727SOL     OW11638   3.402   0.274   1.987
 3727SOL    HW111639   3.341   0.199   2.010
 3727SOL    HW211640   3.424   0.326   2.070
 3728SOL     OW11641   3.165   0.838   1.904
 3728SOL    HW111642   3.199   0.745   1.919
 3728SOL    HW211643   3.183   0.865   1.809
 3729SOL     OW11644   2.930   1.333   2.711
 3729SOL    HW111645   2.937   1.249   2.656
 3729SOL    HW211646   2.992   1.402   2.675
 3730SOL     OW11647   2.181   0.810   2.811
 3730SOL    HW111648   2.274   0.846   2.816
 3730SOL    HW211649   2.175   0.725   2.863
 3731SOL     OW11650   2.201   0.509   2.868
 3731SOL    HW111651   2.149   0.426   2.851
 3731SOL    HW211652   2.278   0.514   2.804
 3732SOL     OW11653   3.000   0.380   3.540
 3732SOL    HW111654   2.955   0.443   3.604
 3732SOL    HW211655   3.093   0.411   3.523
 3733SOL     OW11656   3.022   0.207   3.339
 3733SOL    HW111657   3.022   0.271   3.416
 3733SOL    HW211658   3.050   0.255   3.256
 3734SOL     OW11659   1.870   1.326   2.062
 3734SOL    HW111660   1.777   1.347   2.031
 3734SOL    HW211661   1.880   1.227   2.075
 3735SOL     OW11662   1.950   1.801   2.789
 3735SOL    HW111663   1.908   1.715   2.762
 3735SOL    HW211664   2.044   1.804   2.755
 3736SOL     OW11665   2.366   1.568   2.772
 3736SOL    HW111666   2.432   1.642   2.781
 3736SOL    HW211667   2.410   1.489   2.730
 3737SOL     OW11668   2.864   0.796   3.100
 3737SOL    HW111669   2.905   0.764   3.186
 3737SOL    HW211670   2.768   0.769   3.097
 3738SOL     OW11671   1.902   0.544   2.976
 3738SOL    HW111672   1.987   0.511   2.935
 3738SOL    HW211673   1.915   0.559   3.074
 3739SOL     OW11674   2.051   0.520   3.584
 3739SOL    HW111675   2.110   0.480   3.514
 3739SOL    HW211676   1.993   0.591   3.543
 3740SOL     OW11677   3.231   0.950   3.522
 3740SOL    HW111678   3.270   1.039   3.542
 3740SOL    HW211679   3.241   0.930   3.425
 3741SOL     OW11680   2.677   0.572   2.187
 3741SOL    HW111681   2.684   0.483   2.141
 3741SOL    HW211682   2.583   0.606   2.179
 3742SOL     OW11683   3.519   0.604   3.068
 3742SOL    HW111684   3.481   0.535   3.130
 3742SOL    HW211685   3.601   0.568   3.024
 3743SOL     OW11686   2.114   1.564   3.606
 3743SOL    HW111687   2.084   1.621   3.682
 3743SOL    HW211688   2.107   1.467   3.632
 3744SOL     OW11689   2.533   0.464   3.131
 3744SOL    HW111690   2.499   0.375   3.101
 3744SOL    HW211691   2.559   0.518   3.051
 3745SOL     OW11692   2.792   1.678   3.327
 3745SOL    HW111693   2.768   1.660   3.232
 3745SOL    HW211694   2.822   1.772   3.337
 3746SOL     OW11695   2.335   0.500   2.053
 3746SOL    HW111696   2.396   0.580   2.057
 3746SOL    HW211697   2.240   0.531   2.060
 3747SOL     OW11698   2.021   1.137   3.328
 3747SOL    HW111699   2.043   1.076   3.404
 3747SOL    HW211700   2.031   1.088   3.242
 3748SOL     OW11701   3.209   1.059   3.096
 3748SOL    HW111702   3.233   0.996   3.022
 3748SOL    HW211703   3.119   1.099   3.078
 3749SOL     OW11704   3.164   0.855   2.171
 3749SOL    HW111705   3.078   0.824   2.213
 3749SOL    HW211706   3.160   0.841   2.072
 3750SOL     OW11707   3.621   1.747   3.016
 3750SOL    HW111708   3.682   1.777   2.943
 3750SOL    HW211709   3.583   1.658   2.994
 3751SOL     OW11710   3.114   1.731   2.990
 3751SOL    HW111711   3.198   1.736   2.936
 3751SOL    HW211712   3.091   1.635   3.008
 3752SOL     OW11713   1.945   1.258   2.884
 3752SOL    HW111714   1.940   1.257   2.984
 3752SOL    HW211715   1.862   1.217   2.846
 3753SOL     OW11716   2.550   1.662   3.578
 3753SOL    HW111717   2.494   1.743   3.587
 3753SOL    HW211718   2.602   1.666   3.492
 3754SOL     OW11719   3.588   0.135   2.385
 3754SOL    HW111720   3.661   0.118   2.318
 3754SOL    HW211721   3.557   0.048   2.423
 3755SOL     OW11722   3.250   1.573   2.339
 3755SOL    HW111723   3.317   1.585   2.265
 3755SOL    HW211724   3.210   1.662   2.362
 3756SOL     OW11725   1.992   1.794   3.713
 3756SOL    HW111726   1.951   1.720   3.766
 3756SOL    HW211727   2.056   1.845   3.771
 3757SOL     OW11728   3.142   0.927   2.534
 3757SOL    HW111729   3.202   0.846   2.536
 3757SOL    HW211730   3.182   0.996   2.474
 3758SOL     OW11731   2.692   1.273   3.284
 3758SOL    HW111732   2.687   1.306   3.379
 3758SOL    HW211733   2.606   1.292   3.238
 3759SOL     OW11734   2.534   1.616   2.016
 3759SOL    HW111735   2.543   1.626   1.917
 3759SOL    HW211736   2.494   1.527   2.037
 3760SOL     OW11737   3.512   1.720   3.256
 3760SOL    HW111738   3.565   1.730   3.172
 3760SOL    HW211739   3.485   1.810   3.290
 3761SOL     OW11740   3.703   0.175   2.825
 3761SOL    HW111741   3.742   0.090   2.789
 3761SOL    HW211742   3.605   0.177   2.806
 3762SOL     OW11743   2.125   0.326   2.582
 3762SOL    HW111744   2.046   0.377   2.548
 3762SOL    HW211745   2.116   0.311   2.680
 3763SOL     OW11746   3.056   1.612   1.893
 3763SOL    HW111747   3.062   1.519   1.930
 3763SOL    HW211748   2.997   1.612   1.813
 3764SOL     OW11749   2.684   1.002   3.234
 3764SOL    HW111750   2.724   1.001   3.142
 3764SOL    HW211751   2.694   1.094   3.274
 3765SOL     OW11752   2.778   0.910   2.153
 3765SOL    HW111753   2.841   0.948   2.085
 3765SOL    HW211754   2.818   0.827   2.192
 3766SOL     OW11755   3.366   1.607   1.906
 3766SOL    HW111756   3.274   1.644   1.913
 3766SOL    HW211757   3.404   1.627   1.816
 3767SOL     OW11758   2.234   1.288   3.352
 3767SOL    HW111759   2.221   1.381   3.318
 3767SOL    HW211760   2.150   1.236   3.339
 3768SOL     OW11761   3.476   1.292   3.151
 3768SOL    HW111762   3.536   1.295   3.231
 3768SOL    HW211763   3.401   1.356   3.164
 3769SOL     OW11764   2.901   1.098   2.558
 3769SOL    HW111765   2.831   1.051   2.612
 3769SOL    HW211766   2.960   1.030   2.515
 3770SOL     OW11767   2.876   0.236   2.833
 3770SOL    HW111768   2.868   0.200   2.740
 3770SOL    HW211769   2.874   0.160   2.898
 3771SOL     OW11770   2.452   1.487   2.353
 3771SOL    HW111771   2.494   1.429   2.283
 3771SOL    HW211772   2.408   1.566   2.309
 3772SOL     OW11773   3.571   0.385   3.243
 3772SOL    HW111774   3.644   0.454   3.247
 3772SOL    HW211775   3.599   0.310   3.184
 3773SOL     OW11776   2.117   1.348   2.152
 3773SOL    HW111777   2.021   1.349   2.125
 3773SOL    HW211778   2.129   1.401   2.236
 3774SOL     OW11779   1.967   1.013   3.588
 3774SOL    HW111780   1.890   0.980   3.642
 3774SOL    HW211781   2.052   0.983   3.630
 3775SOL     OW11782   2.534   0.203   3.351
 3775SOL    HW111783   2.624   0.187   3.311
 3775SOL    HW211784   2.542   0.208   3.450
 3776SOL     OW11785   1.937   0.345   1.895
 3776SOL    HW111786   1.845   0.317   1.866
 3776SOL    HW211787   1.968   0.422   1.839
 3777SOL     OW11788   3.302   0.856   3.260
 3777SOL    HW111789   3.245   0.908   3.197
 3777SOL    HW211790   3.398   0.868   3.236
 3778SOL     OW11791   1.934   0.166   2.180
 3778SOL    HW111792   1.917   0.249   2.126
 3778SOL    HW211793   2.024   0.129   2.158
 3779SOL     OW11794   3.045   1.335   1.981
 3779SOL    HW111795   2.946   1.324   1.983
 3779SOL    HW211796   3.079   1.350   2.074
 3780SOL     OW11797   2.475   0.842   3.293
 3780SOL    HW111798   2.531   0.923   3.276
 3780SOL    HW211799   2.534   0.762   3.296
 3781SOL     OW11800   3.355   1.767   2.821
 3781SOL    HW111801   3.388   1.831   2.752
 3781SOL    HW211802   3.421   1.761   2.896
 3782SOL     OW11803   2.578   0.565   3.570
 3782SOL    HW111804   2.597   0.630   3.644
 3782SOL    HW211805   2.638   0.485   3.579
 3783SOL     OW11806   3.312   1.220   3.495
 3783SOL    HW111807   3.303   1.210   3.594
 3783SOL    HW211808   3.408   1.213   3.469
 3784SOL     OW11809   2.252   1.741   3.422
 3784SOL    HW111810   2.161   1.782   3.420
 3784SOL    HW211811   2.245   1.647   3.454
 3785SOL     OW11812   3.536   0.883   3.116
 3785SOL    HW111813   3.509   0.794   3.079
 3785SOL    HW211814   3.537   0.951   3.043
 3786SOL     OW11815   3.087   0.325   2.311
 3786SOL    HW111816   3.152   0.251   2.300
 3786SOL    HW211817   3.107   0.375   2.395
 3787SOL     OW11818   2.456   0.745   2.514
 3787SOL    HW111819   2.506   0.830   2.495
 3787SOL    HW211820   2.368   0.747   2.466
 3788SOL     OW11821   3.639   0.342   3.504
 3788SOL    HW111822   3.622   0.373   3.410
 3788SOL    HW211823   3.555   0.305   3.542
 3789SOL     OW11824   3.592   0.934   3.379
 3789SOL    HW111825   3.630   1.025   3.394
 3789SOL    HW211826   3.584   0.917   3.280
 3790SOL     OW11827   2.721   1.374   1.878
 3790SOL    HW111828   2.675   1.389   1.966
 3790SOL    HW211829   2.765   1.459   1.848
 3791SOL     OW11830   2.523   1.790   2.815
 3791SOL    HW111831   2.477   1.878   2.802
 3791SOL    HW211832   2.622   1.802   2.808
 3792SOL     OW11833   2.721   0.956   2.723
 3792SOL    HW111834   2.775   0.887   2.771
 3792SOL    HW211835   2.689   1.025   2.789
 3793SOL     OW11836   2.945   0.984   1.949
 3793SOL    HW111837   2.922   1.037   1.867
 3793SOL    HW211838   3.026   0.928   1.930
 3794SOL     OW11839   3.723   1.569   2.713
 3794SOL    HW111840   3.652   1.557   2.643
 3794SOL    HW211841   3.724   1.490   2.773
 3795SOL     OW11842   2.083   1.314   3.706
 3795SOL    HW111843   2.018   1.241   3.685
 3795SOL    HW211844   2.087   1.328   3.804
 3796SOL     OW11845   1.941   1.240   2.515
 3796SOL    HW111846   1.940   1.193   2.603
 3796SOL    HW211847   2.023   1.212   2.464
 3797SOL     OW11848   2.534   1.391   3.486
 3797SOL    HW111849   2.456   1.341   3.524
 3797SOL    HW211850   2.531   1.486   3.517
 3798SOL     OW11851   3.686   0.192   3.089
 3798SOL    HW111852   3.682   0.102   3.133
 3798SOL    HW211853   3.689   0.181   2.990
 3799SOL     OW11854   2.290   0.424   2.382
 3799SOL    HW111855   2.320   0.352   2.320
 3799SOL    HW211856   2.251   0.384   2.465
 3800SOL     OW11857   3.567   1.487   2.966
 3800SOL    HW111858   3.474   1.462   2.939
 3800SOL    HW211859   3.593   1.437   3.048
 3801SOL     OW11860   2.179   0.547   3.142
 3801SOL    HW111861   2.217   0.488   3.214
 3801SOL    HW211862   2.219   0.521   3.054
 3802SOL     OW11863   2.674   1.586   2.549
 3802SOL    HW111864   2.706   1.596   2.455
 3802SOL    HW211865   2.595   1.524   2.551
 3803SOL     OW11866   3.286   0.214   2.974
 3803SOL    HW111867   3.338   0.149   3.029
 3803SOL    HW211868   3.237   0.277   3.035
 3804SOL     OW11869   2.863   0.034   3.016
 3804SOL    HW111870   2.800  -0.038   2.985
 3804SOL    HW211871   2.956  -0.002   3.016
 3805SOL     OW11872   2.632   1.330   2.163
 3805SOL    HW111873   2.586   1.243   2.180
 3805SOL    HW211874   2.723   1.327   2.204
 3806SOL     OW11875   2.480   1.567   3.146
 3806SOL    HW111876   2.475   1.649   3.203
 3806SOL    HW211877   2.569   1.564   3.101
 3807SOL     OW11878   3.214   0.052   2.030
 3807SOL    HW111879   3.249   0.011   1.946
 3807SOL    HW211880   3.124   0.014   2.050
 3808SOL     OW11881   3.162   0.453   2.553
 3808SOL    HW111882   3.103   0.533   2.557
 3808SOL    HW211883   3.177   0.418   2.646
 3809SOL     OW11884   3.455   0.221   2.744
 3809SOL    HW111885   3.371   0.220   2.798
 3809SOL    HW211886   3.457   0.304   2.688
 3810SOL     OW11887   1.901   1.077   2.162
 3810SOL    HW111888   2.000   1.066   2.153
 3810SOL    HW211889   1.861   0.991   2.194
 3811SOL     OW11890   2.737   1.646   2.199
 3811SOL    HW111891   2.660   1.611   2.145
 3811SOL    HW211892   2.705   1.717   2.261
 3812SOL     OW11893   2.092   0.628   3.837
 3812SOL    HW111894   1.999   0.626   3.874
 3812SOL    HW211895   2.093   0.589   3.745
 3813SOL     OW11896   2.087   0.275   4.720
 3813SOL    HW111897   2.122   0.258   4.812
 3813SOL    HW211898   1.999   0.230   4.708
 3814SOL     OW11899   1.881   0.368   4.371
 3814SOL    HW111900   1.799   0.411   4.410
 3814SOL    HW211901   1.853   0.295   4.308
 3815SOL     OW11902   2.431   1.275   4.889
 3815SOL    HW111903   2.338   1.268   4.852
 3815SOL    HW211904   2.442   1.364   4.933
 3816SOL     OW11905   3.417   1.511   4.427
 3816SOL    HW111906   3.360   1.495   4.508
 3816SOL    HW211907   3.358   1.521   4.347
 3817SOL     OW11908   2.997   0.703   4.441
 3817SOL    HW111909   3.054   0.781   4.416
 3817SOL    HW211910   2.937   0.729   4.517
 3818SOL     OW11911   3.617   0.607   3.955
 3818SOL    HW111912   3.605   0.594   3.856
 3818SOL    HW211913   3.587   0.526   4.004
 3819SOL     OW11914   2.630   1.144   4.747
 3819SOL    HW111915   2.552   1.161   4.807
 3819SOL    HW211916   2.664   1.231   4.711
 3820SOL     OW11917   2.712   0.798   5.547
 3820SOL    HW111918   2.708   0.874   5.612
 3820SOL    HW211919   2.734   0.834   5.456
 3821SOL     OW11920   2.547   1.012   4.389
 3821SOL    HW111921   2.616   0.996   4.459
 3821SOL    HW211922   2.474   1.069   4.427
 3822SOL     OW11923   2.548   1.161   5.527
 3822SOL    HW111924   2.608   1.240   5.541
 3822SOL    HW211925   2.462   1.192   5.486
 3823SOL     OW11926   2.197   1.435   4.785
 3823SOL    HW111927   2.119   1.404   4.732
 3823SOL    HW211928   2.255   1.493   4.728
 3824SOL     OW11929   3.322   1.505   5.063
 3824SOL    HW111930   3.346   1.599   5.089
 3824SOL    HW211931   3.306   1.451   5.145
 3825SOL     OW11932   2.300   0.392   5.223
 3825SOL    HW111933   2.382   0.336   5.232
 3825SOL    HW211934   2.219   0.334   5.227
 3826SOL     OW11935   3.465   0.447   4.461
 3826SOL    HW111936   3.391   0.493   4.411
 3826SOL    HW211937   3.516   0.515   4.514
 3827SOL     OW11938   2.093   1.713   4.207
 3827SOL    HW111939   2.127   1.790   4.261
 3827SOL    HW211940   2.137   1.713   4.117
 3828SOL     OW11941   2.989   1.341   5.414
 3828SOL    HW111942   3.036   1.341   5.502
 3828SOL    HW211943   2.941   1.254   5.403
 3829SOL     OW11944   2.092   1.434   4.262
 3829SOL    HW111945   2.066   1.530   4.262
 3829SOL    HW211946   2.021   1.380   4.307
 3830SOL     OW11947   2.102   1.091   4.610
 3830SOL    HW111948   2.116   1.007   4.662
 3830SOL    HW211949   2.047   1.155   4.665
 3831SOL     OW11950   2.482   1.786   5.163
 3831SOL    HW111951   2.390   1.769   5.198
 3831SOL    HW211952   2.510   1.878   5.189
 3832SOL     OW11953   2.468   0.964   3.847
 3832SOL    HW111954   2.475   1.048   3.793
 3832SOL    HW211955   2.514   0.977   3.935
 3833SOL     OW11956   3.456   0.114   5.204
 3833SOL    HW111957   3.438   0.181   5.132
 3833SOL    HW211958   3.453   0.160   5.293
 3834SOL     OW11959   1.984   0.643   4.287
 3834SOL    HW111960   1.939   0.555   4.304
 3834SOL    HW211961   1.983   0.697   4.371
 3835SOL     OW11962   3.704   1.767   4.083
 3835SOL    HW111963   3.758   1.738   4.163
 3835SOL    HW211964   3.734   1.857   4.054
 3836SOL     OW11965   1.889   1.596   3.841
 3836SOL    HW111966   1.870   1.500   3.862
 3836SOL    HW211967   1.856   1.654   3.916
 3837SOL     OW11968   3.551   0.922   4.336
 3837SOL    HW111969   3.646   0.893   4.344
 3837SOL    HW211970   3.543   0.987   4.261
 3838SOL     OW11971   3.503   1.108   4.156
 3838SOL    HW111972   3.589   1.110   4.104
 3838SOL    HW211973   3.517   1.155   4.244
 3839SOL     OW11974   1.975   0.737   5.321
 3839SOL    HW111975   2.063   0.724   5.366
 3839SOL    HW211976   1.962   0.834   5.299
 3840SOL     OW11977   2.475   1.365   4.450
 3840SOL    HW111978   2.426   1.278   4.459
 3840SOL    HW211979   2.452   1.408   4.363
 3841SOL     OW11980   3.155   1.228   5.147
 3841SOL    HW111981   3.192   1.155   5.089
 3841SOL    HW211982   3.207   1.233   5.232
 3842SOL     OW11983   2.671   0.004   4.226
 3842SOL    HW111984   2.711   0.095   4.217
 3842SOL    HW211985   2.571   0.012   4.232
 3843SOL     OW11986   2.059   0.976   4.988
 3843SOL    HW111987   2.148   0.931   4.974
 3843SOL    HW211988   1.986   0.911   4.969
 3844SOL     OW11989   3.387   0.999   3.914
 3844SOL    HW111990   3.324   0.923   3.927
 3844SOL    HW211991   3.435   1.017   4.000
 3845SOL     OW11992   3.049   1.792   5.340
 3845SOL    HW111993   3.073   1.852   5.264
 3845SOL    HW211994   3.056   1.697   5.310
 3846SOL     OW11995   2.179   0.251   5.525
 3846SOL    HW111996   2.250   0.322   5.531
 3846SOL    HW211997   2.091   0.290   5.553
 3847SOL     OW11998   3.328   1.417   4.677
 3847SOL    HW111999   3.269   1.423   4.757
 3847SOL    HW212000   3.313   1.329   4.631
 3848SOL     OW12001   3.529   1.714   4.296
 3848SOL    HW112002   3.488   1.691   4.208
 3848SOL    HW212003   3.511   1.640   4.361
 3849SOL     OW12004   2.460   0.729   3.994
 3849SOL    HW112005   2.484   0.798   3.926
 3849SOL    HW212006   2.382   0.762   4.048
 3850SOL     OW12007   3.143   0.345   4.668
 3850SOL    HW112008   3.057   0.295   4.655
 3850SOL    HW212009   3.205   0.291   4.724
 3851SOL     OW12010   3.438   1.662   4.031
 3851SOL    HW112011   3.527   1.708   4.034
 3851SOL    HW212012   3.417   1.638   3.936
 3852SOL     OW12013   2.669   0.605   5.189
 3852SOL    HW112014   2.622   0.602   5.278
 3852SOL    HW212015   2.618   0.550   5.123
 3853SOL     OW12016   3.256   0.469   5.398
 3853SOL    HW112017   3.236   0.512   5.486
 3853SOL    HW212018   3.334   0.407   5.407
 3854SOL     OW12019   2.835   0.890   5.296
 3854SOL    HW112020   2.881   0.806   5.267
 3854SOL    HW212021   2.779   0.924   5.221
 3855SOL     OW12022   2.853   0.410   4.966
 3855SOL    HW112023   2.776   0.444   5.020
 3855SOL    HW212024   2.819   0.359   4.887
 3856SOL     OW12025   2.903   0.701   4.153
 3856SOL    HW112026   2.929   0.697   4.249
 3856SOL    HW212027   2.818   0.650   4.139
 3857SOL     OW12028   1.938   0.811   4.513
 3857SOL    HW112029   2.037   0.799   4.522
 3857SOL    HW212030   1.914   0.906   4.534
 3858SOL     OW12031   2.727   0.348   3.919
 3858SOL    HW112032   2.786   0.411   3.870
 3858SOL    HW212033   2.746   0.254   3.890
 3859SOL     OW12034   3.581   0.585   5.555
 3859SOL    HW112035   3.555   0.674   5.519
 3859SOL    HW212036   3.579   0.517   5.482
 3860SOL     OW12037   3.224   1.144   4.269
 3860SOL    HW112038   3.307   1.115   4.221
 3860SOL    HW212039   3.175   1.211   4.213
 3861SOL     OW12040   2.412   0.196   4.609
 3861SOL    HW112041   2.407   0.191   4.709
 3861SOL    HW212042   2.414   0.292   4.580
 3862SOL     OW12043   2.870   1.456   4.201
 3862SOL    HW112044   2.824   1.528   4.149
 3862SOL    HW212045   2.866   1.476   4.299
 3863SOL     OW12046   2.213   1.801   4.577
 3863SOL    HW112047   2.263   1.715   4.583
 3863SOL    HW212048   2.278   1.878   4.574
 3864SOL     OW12049   3.657   1.066   4.597
 3864SOL    HW112050   3.595   1.051   4.521
 3864SOL    HW212051   3.605   1.077   4.682
 3865SOL     OW12052   3.089   1.550   5.230
 3865SOL    HW112053   3.095   1.473   5.294
 3865SOL    HW212054   3.037   1.524   5.150
 3866SOL     OW12055   2.183   0.943   3.966
 3866SOL    HW112056   2.265   0.982   3.924
 3866SOL    HW212057   2.156   0.861   3.917
 3867SOL     OW12058   3.320   0.735   4.452
 3867SOL    HW112059   3.315   0.670   4.527
 3867SOL    HW212060   3.400   0.794   4.465
 3868SOL     OW12061   2.323   1.266   5.451
 3868SOL    HW112062   2.273   1.267   5.365
 3868SOL    HW212063   2.260   1.248   5.527
 3869SOL     OW12064   2.973   1.776   3.961
 3869SOL    HW112065   2.913   1.714   4.011
 3869SOL    HW212066   3.004   1.732   3.876
 3870SOL     OW12067   2.064   0.285   5.222
 3870SOL    HW112068   1.984   0.345   5.209
 3870SOL    HW212069   2.054   0.236   5.308
 3871SOL     OW12070   3.494   1.377   3.805
 3871SOL    HW112071   3.462   1.471   3.795
 3871SOL    HW212072   3.418   1.314   3.793
 3872SOL     OW12073   2.326   1.743   4.047
 3872SOL    HW112074   2.359   1.782   4.133
 3872SOL    HW212075   2.402   1.736   3.982
 3873SOL     OW12076   3.262   0.107   4.150
 3873SOL    HW112077   3.238   0.070   4.060
 3873SOL    HW212078   3.361   0.123   4.154
 3874SOL     OW12079   2.111   1.785   4.965
 3874SOL    HW112080   2.168   1.720   5.015
 3874SOL    HW212081   2.095   1.752   4.872
 3875SOL     OW12082   2.802   1.698   4.628
 3875SOL    HW112083   2.882   1.641   4.649
 3875SOL    HW212084   2.753   1.658   4.551
 3876SOL     OW12085   2.244   0.700   4.204
 3876SOL    HW112086   2.289   0.610   4.201
 3876SOL    HW212087   2.150   0.689   4.237
 3877SOL     OW12088   3.409   0.222   5.453
 3877SOL    HW112089   3.404   0.259   5.545
 3877SOL    HW212090   3.337   0.153   5.441
 3878SOL     OW12091   2.476   0.122   3.841
 3878SOL    HW112092   2.574   0.100   3.848
 3878SOL    HW212093   2.445   0.105   3.748
 3879SOL     OW12094   2.643   0.264   5.473
 3879SOL    HW112095   2.710   0.203   5.516
 3879SOL    HW212096   2.570   0.283   5.538
 3880SOL     OW12097   2.750   1.514   4.919
 3880SOL    HW112098   2.727   1.489   4.825
 3880SOL    HW212099   2.811   1.445   4.958
 3881SOL     OW12100   3.213   0.590   5.157
 3881SOL    HW112101   3.241   0.547   5.242
 3881SOL    HW212102   3.238   0.686   5.158
 3882SOL     OW12103   2.665   1.402   4.648
 3882SOL    HW112104   2.755   1.416   4.606
 3882SOL    HW212105   2.594   1.404   4.577
 3883SOL     OW12106   2.784   0.503   4.623
 3883SOL    HW112107   2.759   0.494   4.527
 3883SOL    HW212108   2.832   0.421   4.654
 3884SOL     OW12109   2.401   0.064   4.236
 3884SOL    HW112110   2.320   0.065   4.294
 3884SOL    HW212111   2.404   0.147   4.181
 3885SOL     OW12112   3.296   1.188   3.765
 3885SOL    HW112113   3.328   1.112   3.822
 3885SOL    HW212114   3.204   1.215   3.795
 3886SOL     OW12115   2.159   0.035   3.895
 3886SOL    HW112116   2.208   0.119   3.874
 3886SOL    HW212117   2.221  -0.030   3.940
 3887SOL     OW12118   2.797   0.236   4.204
 3887SOL    HW112119   2.749   0.277   4.126
 3887SOL    HW212120   2.896   0.234   4.185
 3888SOL     OW12121   2.938   0.683   5.188
 3888SOL    HW112122   2.858   0.622   5.191
 3888SOL    HW212123   3.019   0.630   5.164
 3889SOL     OW12124   3.089   1.570   4.517
 3889SOL    HW112125   3.110   1.644   4.452
 3889SOL    HW212126   3.157   1.570   4.590
 3890SOL     OW12127   2.321   1.152   4.465
 3890SOL    HW112128   2.250   1.125   4.530
 3890SOL    HW212129   2.295   1.124   4.372
 3891SOL     OW12130   3.133   1.797   4.315
 3891SOL    HW112131   3.177   1.861   4.251
 3891SOL    HW212132   3.083   1.849   4.385
 3892SOL     OW12133   2.894   0.549   3.740
 3892SOL    HW112134   2.853   0.631   3.701
 3892SOL    HW212135   2.958   0.575   3.813
 3893SOL     OW12136   1.940   0.556   5.110
 3893SOL    HW112137   2.032   0.555   5.069
 3893SOL    HW212138   1.934   0.630   5.177
 3894SOL     OW12139   2.423   0.222   4.871
 3894SOL    HW112140   2.461   0.138   4.908
 3894SOL    HW212141   2.335   0.241   4.915
 3895SOL     OW12142   2.728   0.454   4.366
 3895SOL    HW112143   2.696   0.526   4.304
 3895SOL    HW212144   2.752   0.373   4.313
 3896SOL     OW12145   2.879   0.039   4.477
 3896SOL    HW112146   2.807   0.044   4.408
 3896SOL    HW212147   2.855  -0.030   4.546
 3897SOL     OW12148   3.291   1.173   4.591
 3897SOL    HW112149   3.236   1.089   4.584
 3897SOL    HW212150   3.317   1.202   4.499
 3898SOL     OW12151   3.328   0.590   4.716
 3898SOL    HW112152   3.298   0.495   4.723
 3898SOL    HW212153   3.401   0.606   4.782
 3899SOL     OW12154   3.719   0.833   4.101
 3899SOL    HW112155   3.761   0.769   4.165
 3899SOL    HW212156   3.681   0.782   4.023
 3900SOL     OW12157   2.350   1.385   3.898
 3900SOL    HW112158   2.263   1.370   3.945
 3900SOL    HW212159   2.333   1.411   3.803
 3901SOL     OW12160   3.526   1.280   4.381
 3901SOL    HW112161   3.625   1.288   4.395
 3901SOL    HW212162   3.481   1.364   4.412
 3902SOL     OW12163   3.252   0.575   3.802
 3902SOL    HW112164   3.198   0.554   3.883
 3902SOL    HW212165   3.343   0.534   3.811
 3903SOL     OW12166   2.389   0.256   4.052
 3903SOL    HW112167   2.416   0.197   3.977
 3903SOL    HW212168   2.389   0.351   4.021
 3904SOL     OW12169   3.616   1.223   5.312
 3904SOL    HW112170   3.707   1.184   5.299
 3904SOL    HW212171   3.624   1.319   5.336
 3905SOL     OW12172   2.926   1.347   5.064
 3905SOL    HW112173   2.846   1.324   5.119
 3905SOL    HW212174   3.009   1.321   5.113
 3906SOL     OW12175   3.454   1.629   5.349
 3906SOL    HW112176   3.481   1.663   5.259
 3906SOL    HW212177   3.533   1.591   5.395
 3907SOL     OW12178   2.973   1.195   4.824
 3907SOL    HW112179   2.933   1.239   4.905
 3907SOL    HW212180   2.932   1.232   4.741
 3908SOL     OW12181   3.500   1.099   4.803
 3908SOL    HW112182   3.505   1.180   4.862
 3908SOL    HW212183   3.414   1.101   4.752
 3909SOL     OW12184   2.777   0.089   5.126
 3909SOL    HW112185   2.802   0.069   5.031
 3909SOL    HW212186   2.849   0.145   5.168
 3910SOL     OW12187   2.842   1.116   5.443
 3910SOL    HW112188   2.743   1.122   5.453
 3910SOL    HW212189   2.865   1.036   5.387
 3911SOL     OW12190   2.567   1.050   4.092
 3911SOL    HW112191   2.553   1.057   4.191
 3911SOL    HW212192   2.651   0.999   4.074
 3912SOL     OW12193   2.272   0.813   4.975
 3912SOL    HW112194   2.358   0.825   5.025
 3912SOL    HW212195   2.230   0.726   5.002
 3913SOL     OW12196   3.136   0.386   4.986
 3913SOL    HW112197   3.157   0.460   5.050
 3913SOL    HW212198   3.047   0.403   4.943
 3914SOL     OW12199   1.926   1.564   5.055
 3914SOL    HW112200   1.880   1.646   5.021
 3914SOL    HW212201   2.024   1.583   5.064
 3915SOL     OW12202   2.229   1.100   4.225
 3915SOL    HW112203   2.222   1.183   4.169
 3915SOL    HW212204   2.233   1.020   4.165
 3916SOL     OW12205   2.428   0.537   4.589
 3916SOL    HW112206   2.440   0.603   4.515
 3916SOL    HW212207   2.474   0.571   4.672
 3917SOL     OW12208   3.114   1.348   4.112
 3917SOL    HW112209   3.164   1.425   4.152
 3917SOL    HW212210   3.019   1.350   4.144
 3918SOL     OW12211   3.134   1.445   4.866
 3918SOL    HW112212   3.181   1.458   4.953
 3918SOL    HW212213   3.068   1.371   4.875
 3919SOL     OW12214   3.444   0.639   4.196
 3919SOL    HW112215   3.413   0.700   4.269
 3919SOL    HW212216   3.494   0.691   4.127
 3920SOL     OW12217   2.216   1.510   5.053
 3920SOL    HW112218   2.195   1.466   4.966
 3920SOL    HW212219   2.313   1.536   5.056
 3921SOL     OW12220   2.264   0.751   5.322
 3921SOL    HW112221   2.332   0.806   5.275
 3921SOL    HW212222   2.304   0.663   5.349
 3922SOL     OW12223   3.449   0.779   5.394
 3922SOL    HW112224   3.357   0.817   5.389
 3922SOL    HW212225   3.509   0.826   5.329
 3923SOL     OW12226   2.875   0.105   5.494
 3923SOL    HW112227   2.881   0.190   5.442
 3923SOL    HW212228   2.907   0.029   5.437
 3924SOL     OW12229   2.366   0.050   5.464
 3924SOL    HW112230   2.324  -0.007   5.394
 3924SOL    HW212231   2.300   0.119   5.496
 3925SOL     OW12232   2.435   0.870   4.753
 3925SOL    HW112233   2.479   0.959   4.744
 3925SOL    HW212234   2.372   0.870   4.830
 3926SOL     OW12235   3.222   0.862   4.769
 3926SOL    HW112236   3.147   0.862   4.703
 3926SOL    HW212237   3.259   0.770   4.778
 3927SOL     OW12238   3.071   0.525   3.999
 3927SOL    HW112239   3.084   0.441   4.053
 3927SOL    HW212240   3.042   0.599   4.059
 3928SOL     OW12241   2.169   0.213   4.955
 3928SOL    HW112242   2.146   0.250   5.045
 3928SOL    HW212243   2.139   0.118   4.949
 3929SOL     OW12244   1.899   1.310   5.006
 3929SOL    HW112245   1.952   1.261   5.074
 3929SOL    HW212246   1.921   1.408   5.011
 3930SOL     OW12247   2.594   0.634   4.788
 3930SOL    HW112248   2.653   0.608   4.712
 3930SOL    HW212249   2.566   0.730   4.777
 3931SOL     OW12250   3.590   0.935   5.578
 3931SOL    HW112251   3.544   0.928   5.489
 3931SOL    HW212252   3.528   0.979   5.644
 3932SOL     OW12253   2.169   0.063   4.342
 3932SOL    HW112254   2.158   0.157   4.375
 3932SOL    HW212255   2.164   0.000   4.419
 3933SOL     OW12256   3.484   0.367   4.098
 3933SOL    HW112257   3.486   0.291   4.162
 3933SOL    HW212258   3.436   0.444   4.138
 3934SOL     OW12259   2.885   0.766   4.690
 3934SOL    HW112260   2.900   0.787   4.786
 3934SOL    HW212261   2.855   0.671   4.681
 3935SOL     OW12262   2.842   1.573   5.424
 3935SOL    HW112263   2.822   1.617   5.336
 3935SOL    HW212264   2.881   1.482   5.408
 3936SOL     OW12265   3.721   1.518   5.329
 3936SOL    HW112266   3.735   1.545   5.234
 3936SOL    HW212267   3.804   1.540   5.382
 3937SOL     OW12268   2.212   0.898   5.528
 3937SOL    HW112269   2.288   0.942   5.576
 3937SOL    HW212270   2.247   0.851   5.446
 3938SOL     OW12271   3.402   0.274   3.849
 3938SOL    HW112272   3.341   0.199   3.872
 3938SOL    HW212273   3.424   0.326   3.932
 3939SOL     OW12274   3.165   0.838   3.766
 3939SOL    HW112275   3.199   0.745   3.781
 3939SOL    HW212276   3.183   0.865   3.671
 3940SOL     OW12277   2.930   1.333   4.573
 3940SOL    HW112278   2.937   1.249   4.518
 3940SOL    HW212279   2.992   1.402   4.537
 3941SOL     OW12280   2.181   0.810   4.673
 3941SOL    HW112281   2.274   0.846   4.678
 3941SOL    HW212282   2.175   0.725   4.725
 3942SOL     OW12283   2.201   0.509   4.730
 3942SOL    HW112284   2.149   0.426   4.713
 3942SOL    HW212285   2.278   0.514   4.666
 3943SOL     OW12286   3.000   0.380   5.402
 3943SOL    HW112287   2.955   0.443   5.466
 3943SOL    HW212288   3.093   0.411   5.385
 3944SOL     OW12289   3.022   0.207   5.201
 3944SOL    HW112290   3.022   0.271   5.278
 3944SOL    HW212291   3.050   0.255   5.118
 3945SOL     OW12292   1.870   1.326   3.924
 3945SOL    HW112293   1.777   1.347   3.893
 3945SOL    HW212294   1.880   1.227   3.937
 3946SOL     OW12295   1.950   1.801   4.651
 3946SOL    HW112296   1.908   1.715   4.624
 3946SOL    HW212297   2.044   1.804   4.617
 3947SOL     OW12298   2.366   1.568   4.634
 3947SOL    HW112299   2.432   1.642   4.643
 3947SOL    HW212300   2.410   1.489   4.592
 3948SOL     OW12301   2.864   0.796   4.962
 3948SOL    HW112302   2.905   0.764   5.048
 3948SOL    HW212303   2.768   0.769   4.959
 3949SOL     OW12304   1.902   0.544   4.838
 3949SOL    HW112305   1.987   0.511   4.797
 3949SOL    HW212306   1.915   0.559   4.936
 3950SOL     OW12307   2.051   0.520   5.446
 3950SOL    HW112308   2.110   0.480   5.376
 3950SOL    HW212309   1.993   0.591   5.405
 3951SOL     OW12310   3.231   0.950   5.384
 3951SOL    HW112311   3.270   1.039   5.404
 3951SOL    HW212312   3.241   0.930   5.287
 3952SOL     OW12313   2.677   0.572   4.049
 3952SOL    HW112314   2.684   0.483   4.003
 3952SOL    HW212315   2.583   0.606   4.041
 3953SOL     OW12316   3.519   0.604   4.930
 3953SOL    HW112317   3.481   0.535   4.992
 3953SOL    HW212318   3.601   0.568   4.886
 3954SOL     OW12319   2.114   1.564   5.468
 3954SOL    HW112320   2.084   1.621   5.544
 3954SOL    HW212321   2.107   1.467   5.494
 3955SOL     OW12322   2.533   0.464   4.993
 3955SOL    HW112323   2.499   0.375   4.963
 3955SOL    HW212324   2.559   0.518   4.913
 3956SOL     OW12325   2.792   1.678   5.189
 3956SOL    HW112326   2.768   1.660   5.094
 3956SOL    HW212327   2.822   1.772   5.199
 3957SOL     OW12328   2.335   0.500   3.915
 3957SOL    HW112329   2.396   0.580   3.919
 3957SOL    HW212330   2.240   0.531   3.922
 3958SOL     OW12331   2.021   1.137   5.190
 3958SOL    HW112332   2.043   1.076   5.266
 3958SOL    HW212333   2.031   1.088   5.104
 3959SOL     OW12334   3.209   1.059   4.958
 3959SOL    HW112335   3.233   0.996   4.884
 3959SOL    HW212336   3.119   1.099   4.940
 3960SOL     OW12337   3.164   0.855   4.033
 3960SOL    HW112338   3.078   0.824   4.075
 3960SOL    HW212339   3.160   0.841   3.934
 3961SOL     OW12340   3.621   1.747   4.878
 3961SOL    HW112341   3.682   1.777   4.805
 3961SOL    HW212342   3.583   1.658   4.856
 3962SOL     OW12343   3.114   1.731   4.852
 3962SOL    HW112344   3.198   1.736   4.798
 3962SOL    HW212345   3.091   1.635   4.870
 3963SOL     OW12346   1.945   1.258   4.746
 3963SOL    HW112347   1.940   1.257   4.846
 3963SOL    HW212348   1.862   1.217   4.708
 3964SOL     OW12349   2.550   1.662   5.440
 3964SOL    HW112350   2.494   1.743   5.449
 3964SOL    HW212351   2.602   1.666   5.354
 3965SOL     OW12352   3.588   0.135   4.247
 3965SOL    HW112353   3.661   0.118   4.180
 3965SOL    HW212354   3.557   0.048   4.285
 3966SOL     OW12355   3.250   1.573   4.201
 3966SOL    HW112356   3.317   1.585   4.127
 3966SOL    HW212357   3.210   1.662   4.224
 3967SOL     OW12358   1.992   1.794   5.575
 3967SOL    HW112359   1.951   1.720   5.628
 3967SOL    HW212360   2.056   1.845   5.633
 3968SOL     OW12361   3.142   0.927   4.396
 3968SOL    HW112362   3.202   0.846   4.398
 3968SOL    HW212363   3.182   0.996   4.336
 3969SOL     OW12364   2.692   1.273   5.146
 3969SOL    HW112365   2.687   1.306   5.241
 3969SOL    HW212366   2.606   1.292   5.100
 3970SOL     OW12367   2.534   1.616   3.878
 3970SOL    HW112368   2.543   1.626   3.779
 3970SOL    HW212369   2.494   1.527   3.899
 3971SOL     OW12370   3.512   1.720   5.118
 3971SOL    HW112371   3.565   1.730   5.034
 3971SOL    HW212372   3.485   1.810   5.152
 3972SOL     OW12373   3.703   0.175   4.687
 3972SOL    HW112374   3.742   0.090   4.651
 3972SOL    HW212375   3.605   0.177   4.668
 3973SOL     OW12376   2.125   0.326   4.444
 3973SOL    HW112377   2.046   0.377   4.410
 3973SOL    HW212378   2.116   0.311   4.542
 3974SOL     OW12379   3.056   1.612   3.755
 3974SOL    HW112380   3.062   1.519   3.792
 3974SOL    HW212381   2.997   1.612   3.675
 3975SOL     OW12382   2.684   1.002   5.096
 3975SOL    HW112383   2.724   1.001   5.004
 3975SOL    HW212384   2.694   1.094   5.136
 3976SOL     OW12385   2.778   0.910   4.015
 3976SOL    HW112386   2.841   0.948   3.947
 3976SOL    HW212387   2.818   0.827   4.054
 3977SOL     OW12388   3.366   1.607   3.768
 3977SOL    HW112389   3.274   1.644   3.775
 3977SOL    HW212390   3.404   1.627   3.678
 3978SOL     OW12391   2.234   1.288   5.214
 3978SOL    HW112392   2.221   1.381   5.180
 3978SOL    HW212393   2.150   1.236   5.201
 3979SOL     OW12394   3.476   1.292   5.013
 3979SOL    HW112395   3.536   1.295   5.093
 3979SOL    HW212396   3.401   1.356   5.026
 3980SOL     OW12397   2.901   1.098   4.420
 3980SOL    HW112398   2.831   1.051   4.474
 3980SOL    HW212399   2.960   1.030   4.377
 3981SOL     OW12400   2.876   0.236   4.695
 3981SOL    HW112401   2.868   0.200   4.602
 3981SOL    HW212402   2.874   0.160   4.760
 3982SOL     OW12403   2.452   1.487   4.215
 3982SOL    HW112404   2.494   1.429   4.145
 3982SOL    HW212405   2.408   1.566   4.171
 3983SOL     OW12406   3.571   0.385   5.105
 3983SOL    HW112407   3.644   0.454   5.109
 3983SOL    HW212408   3.599   0.310   5.046
 3984SOL     OW12409   2.117   1.348   4.014
 3984SOL    HW112410   2.021   1.349   3.987
 3984SOL    HW212411   2.129   1.401   4.098
 3985SOL     OW12412   1.967   1.013   5.450
 3985SOL    HW112413   1.890   0.980   5.504
 3985SOL    HW212414   2.052   0.983   5.492
 3986SOL     OW12415   2.534   0.203   5.213
 3986SOL    HW112416   2.624   0.187   5.173
 3986SOL    HW212417   2.542   0.208   5.312
 3987SOL     OW12418   1.937   0.345   3.757
 3987SOL    HW112419   1.845   0.317   3.728
 3987SOL    HW212420   1.968   0.422   3.701
 3988SOL     OW12421   3.302   0.856   5.122
 3988SOL    HW112422   3.245   0.908   5.059
 3988SOL    HW212423   3.398   0.868   5.098
 3989SOL     OW12424   1.934   0.166   4.042
 3989SOL    HW112425   1.917   0.249   3.988
 3989SOL    HW212426   2.024   0.129   4.020
 3990SOL     OW12427   3.045   1.335   3.843
 3990SOL    HW112428   2.946   1.324   3.845
 3990SOL    HW212429   3.079   1.350   3.936
 3991SOL     OW12430   2.475   0.842   5.155
 3991SOL    HW112431   2.531   0.923   5.138
 3991SOL    HW212432   2.534   0.762   5.158
 3992SOL     OW12433   3.355   1.767   4.683
 3992SOL    HW112434   3.388   1.831   4.614
 3992SOL    HW212435   3.421   1.761   4.758
 3993SOL     OW12436   2.578   0.565   5.432
 3993SOL    HW112437   2.597   0.630   5.506
 3993SOL    HW212438   2.638   0.485   5.441
 3994SOL     OW12439   3.312   1.220   5.357
 3994SOL    HW112440   3.303   1.210   5.456
 3994SOL    HW212441   3.408   1.213   5.331
 3995SOL     OW12442   2.252   1.741   5.284
 3995SOL    HW112443   2.161   1.782   5.282
 3995SOL    HW212444   2.245   1.647   5.316
 3996SOL     OW12445   3.536   0.883   4.978
 3996SOL    HW112446   3.509   0.794   4.941
 3996SOL    HW212447   3.537   0.951   4.905
 3997SOL     OW12448   3.087   0.325   4.173
 3997SOL    HW112449   3.152   0.251   4.162
 3997SOL    HW212450   3.107   0.375   4.257
 3998SOL     OW12451   2.456   0.745   4.376
 3998SOL    HW112452   2.506   0.830   4.357
 3998SOL    HW212453   2.368   0.747   4.328
 3999SOL     OW12454   3.639   0.342   5.366
 3999SOL    HW112455   3.622   0.373   5.272
 3999SOL    HW212456   3.555   0.305   5.404
 4000SOL     OW12457   3.592   0.934   5.241
 4000SOL    HW112458   3.630   1.025   5.256
 4000SOL    HW212459   3.584   0.917   5.142
 4001SOL     OW12460   2.721   1.374   3.740
 4001SOL    HW112461   2.675   1.389   3.828
 4001SOL    HW212462   2.765   1.459   3.710
 4002SOL     OW12463   2.523   1.790   4.677
 4002SOL    HW112464   2.477   1.878   4.664
 4002SOL    HW212465   2.622   1.802   4.670
 4003SOL     OW12466   2.721   0.956   4.585
 4003SOL    HW112467   2.775   0.887   4.633
 4003SOL    HW212468   2.689   1.025   4.651
 4004SOL     OW12469   2.945   0.984   3.811
 4004SOL    HW112470   2.922   1.037   3.729
 4004SOL    HW212471   3.026   0.928   3.792
 4005SOL     OW12472   3.723   1.569   4.575
 4005SOL    HW112473   3.652   1.557   4.505
 4005SOL    HW212474   3.724   1.490   4.635
 4006SOL     OW12475   2.083   1.314   5.568
 4006SOL    HW112476   2.018   1.241   5.547
 4006SOL    HW212477   2.087   1.328   5.666
 4007SOL     OW12478   1.941   1.240   4.377
 4007SOL    HW112479   1.940   1.193   4.465
 4007SOL    HW212480   2.023   1.212   4.326
 4008SOL     OW12481   2.534   1.391   5.348
 4008SOL    HW112482   2.456   1.341   5.386
 4008SOL    HW212483   2.531   1.486   5.379
 4009SOL     OW12484   3.686   0.192   4.951
 4009SOL    HW112485   3.682   0.102   4.995
 4009SOL    HW212486   3.689   0.181   4.852
 4010SOL     OW12487   2.290   0.424   4.244
 4010SOL    HW112488   2.320   0.352   4.182
 4010SOL    HW212489   2.251   0.384   4.327
 4011SOL     OW12490   3.567   1.487   4.828
 4011SOL    HW112491   3.474   1.462   4.801
 4011SOL    HW212492   3.593   1.437   4.910
 4012SOL     OW12493   2.179   0.547   5.004
 4012SOL    HW112494   2.217   0.488   5.076
 4012SOL    HW212495   2.219   0.521   4.916
 4013SOL     OW12496   2.674   1.586   4.411
 4013SOL    HW112497   2.706   1.596   4.317
 4013SOL    HW212498   2.595   1.524   4.413
 4014SOL     OW12499   3.286   0.214   4.836
 4014SOL    HW112500   3.338   0.149   4.891
 4014SOL    HW212501   3.237   0.277   4.897
 4015SOL     OW12502   2.863   0.034   4.878
 4015SOL    HW112503   2.800  -0.038   4.847
 4015SOL    HW212504   2.956  -0.002   4.878
 4016SOL     OW12505   2.632   1.330   4.025
 4016SOL    HW112506   2.586   1.243   4.042
 4016SOL    HW212507   2.723   1.327   4.066
 4017SOL     OW12508   2.480   1.567   5.008
 4017SOL    HW112509   2.475   1.649   5.065
 4017SOL    HW212510   2.569   1.564   4.963
 4018SOL     OW12511   3.214   0.052   3.892
 4018SOL    HW112512   3.249   0.011   3.808
 4018SOL    HW212513   3.124   0.014   3.912
 4019SOL     OW12514   3.162   0.453   4.415
 4019SOL    HW112515   3.103   0.533   4.419
 4019SOL    HW212516   3.177   0.418   4.508
 4020SOL     OW12517   3.455   0.221   4.606
 4020SOL    HW112518   3.371   0.220   4.660
 4020SOL    HW212519   3.457   0.304   4.550
 4021SOL     OW12520   1.901   1.077   4.024
 4021SOL    HW112521   2.000   1.066   4.015
 4021SOL    HW212522   1.861   0.991   4.056
 4022SOL     OW12523   2.737   1.646   4.061
 4022SOL    HW112524   2.660   1.611   4.007
 4022SOL    HW212525   2.705   1.717   4.123
 4023SOL     OW12526   2.092   0.628   5.699
 4023SOL    HW112527   1.999   0.626   5.736
 4023SOL    HW212528   2.093   0.589   5.607
 4024SOL     OW12529   2.087   0.275   6.582
 4024SOL    HW112530   2.122   0.258   6.674
 4024SOL    HW212531   1.999   0.230   6.570
 4025SOL     OW12532   1.881   0.368   6.233
 4025SOL    HW112533   1.799   0.411   6.272
 4025SOL    HW212534   1.853   0.295   6.170
 4026SOL     OW12535   2.431   1.275   6.751
 4026SOL    HW112536   2.338   1.268   6.714
 4026SOL    HW212537   2.442   1.364   6.795
 4027SOL     OW12538   3.417   1.511   6.289
 4027SOL    HW112539   3.360   1.495   6.370
 4027SOL    HW212540   3.358   1.521   6.209
 4028SOL     OW12541   2.997   0.703   6.303
 4028SOL    HW112542   3.054   0.781   6.278
 4028SOL    HW212543   2.937   0.729   6.379
 4029SOL     OW12544   3.617   0.607   5.817
 4029SOL    HW112545   3.605   0.594   5.718
 4029SOL    HW212546   3.587   0.526   5.866
 4030SOL     OW12547   2.630   1.144   6.609
 4030SOL    HW112548   2.552   1.161   6.669
 4030SOL    HW212549   2.664   1.231   6.573
 4031SOL     OW12550   2.712   0.798   7.409
 4031SOL    HW112551   2.708   0.874   7.474
 4031SOL    HW212552   2.734   0.834   7.318
 4032SOL     OW12553   2.547   1.012   6.251
 4032SOL    HW112554   2.616   0.996   6.321
 4032SOL    HW212555   2.474   1.069   6.289
 4033SOL     OW12556   2.548   1.161   7.389
 4033SOL    HW112557   2.608   1.240   7.403
 4033SOL    HW212558   2.462   1.192   7.348
 4034SOL     OW12559   3.322   1.505   6.925
 4034SOL    HW112560   3.346   1.599   6.951
 4034SOL    HW212561   3.306   1.451   7.007
 4035SOL     OW12562   2.300   0.392   7.085
 4035SOL    HW112563   2.382   0.336   7.094
 4035SOL    HW212564   2.219   0.334   7.089
 4036SOL     OW12565   3.465   0.447   6.323
 4036SOL    HW112566   3.391   0.493   6.273
 4036SOL    HW212567   3.516   0.515   6.376
 4037SOL     OW12568   2.093   1.713   6.069
 4037SOL    HW112569   2.127   1.790   6.123
 4037SOL    HW212570   2.137   1.713   5.979
 4038SOL     OW12571   2.989   1.341   7.276
 4038SOL    HW112572   3.036   1.341   7.364
 4038SOL    HW212573   2.941   1.254   7.265
 4039SOL     OW12574   2.102   1.091   6.472
 4039SOL    HW112575   2.116   1.007   6.524
 4039SOL    HW212576   2.047   1.155   6.527
 4040SOL     OW12577   2.468   0.964   5.709
 4040SOL    HW112578   2.475   1.048   5.655
 4040SOL    HW212579   2.514   0.977   5.797
 4041SOL     OW12580   3.456   0.114   7.066
 4041SOL    HW112581   3.438   0.181   6.994
 4041SOL    HW212582   3.453   0.160   7.155
 4042SOL     OW12583   1.984   0.643   6.149
 4042SOL    HW112584   1.939   0.555   6.166
 4042SOL    HW212585   1.983   0.697   6.233
 4043SOL     OW12586   3.704   1.767   5.945
 4043SOL    HW112587   3.758   1.738   6.025
 4043SOL    HW212588   3.734   1.857   5.916
 4044SOL     OW12589   1.889   1.596   5.703
 4044SOL    HW112590   1.870   1.500   5.724
 4044SOL    HW212591   1.856   1.654   5.778
 4045SOL     OW12592   3.551   0.922   6.198
 4045SOL    HW112593   3.646   0.893   6.206
 4045SOL    HW212594   3.543   0.987   6.123
 4046SOL     OW12595   3.503   1.108   6.018
 4046SOL    HW112596   3.589   1.110   5.966
 4046SOL    HW212597   3.517   1.155   6.106
 4047SOL     OW12598   1.975   0.737   7.183
 4047SOL    HW112599   2.063   0.724   7.228
 4047SOL    HW212600   1.962   0.834   7.161
 4048SOL     OW12601   2.475   1.365   6.312
 4048SOL    HW112602   2.426   1.278   6.321
 4048SOL    HW212603   2.452   1.408   6.225
 4049SOL     OW12604   3.155   1.228   7.009
 4049SOL    HW112605   3.192   1.155   6.951
 4049SOL    HW212606   3.207   1.233   7.094
 4050SOL     OW12607   2.671   0.004   6.088
 4050SOL    HW112608   2.711   0.095   6.079
 4050SOL    HW212609   2.571   0.012   6.094
 4051SOL     OW12610   2.059   0.976   6.850
 4051SOL    HW112611   2.148   0.931   6.836
 4051SOL    HW212612   1.986   0.911   6.831
 4052SOL     OW12613   3.387   0.999   5.776
 4052SOL    HW112614   3.324   0.923   5.789
 4052SOL    HW212615   3.435   1.017   5.862
 4053SOL     OW12616   3.049   1.792   7.202
 4053SOL    HW112617   3.073   1.852   7.126
 4053SOL    HW212618   3.056   1.697   7.172
 4054SOL     OW12619   2.179   0.251   7.387
 4054SOL    HW112620   2.250   0.322   7.393
 4054SOL    HW212621   2.091   0.290   7.415
 4055SOL     OW12622   3.328   1.417   6.539
 4055SOL    HW112623   3.269   1.423   6.619
 4055SOL    HW212624   3.313   1.329   6.493
 4056SOL     OW12625   3.529   1.714   6.158
 4056SOL    HW112626   3.488   1.691   6.070
 4056SOL    HW212627   3.511   1.640   6.223
 4057SOL     OW12628   2.460   0.729   5.856
 4057SOL    HW112629   2.484   0.798   5.788
 4057SOL    HW212630   2.382   0.762   5.910
 4058SOL     OW12631   3.143   0.345   6.530
 4058SOL    HW112632   3.057   0.295   6.517
 4058SOL    HW212633   3.205   0.291   6.586
 4059SOL     OW12634   3.438   1.662   5.893
 4059SOL    HW112635   3.527   1.708   5.896
 4059SOL    HW212636   3.417   1.638   5.798
 4060SOL     OW12637   2.669   0.605   7.051
 4060SOL    HW112638   2.622   0.602   7.140
 4060SOL    HW212639   2.618   0.550   6.985
 4061SOL     OW12640   3.256   0.469   7.260
 4061SOL    HW112641   3.236   0.512   7.348
 4061SOL    HW212642   3.334   0.407   7.269
 4062SOL     OW12643   2.835   0.890   7.158
 4062SOL    HW112644   2.881   0.806   7.129
 4062SOL    HW212645   2.779   0.924   7.083
 4063SOL     OW12646   2.853   0.410   6.828
 4063SOL    HW112647   2.776   0.444   6.882
 4063SOL    HW212648   2.819   0.359   6.749
 4064SOL     OW12649   2.903   0.701   6.015
 4064SOL    HW112650   2.929   0.697   6.111
 4064SOL    HW212651   2.818   0.650   6.001
 4065SOL     OW12652   1.938   0.811   6.375
 4065SOL    HW112653   2.037   0.799   6.384
 4065SOL    HW212654   1.914   0.906   6.396
 4066SOL     OW12655   2.727   0.348   5.781
 4066SOL    HW112656   2.786   0.411   5.732
 4066SOL    HW212657   2.746   0.254   5.752
 4067SOL     OW12658   3.581   0.585   7.417
 4067SOL    HW112659   3.555   0.674   7.381
 4067SOL    HW212660   3.579   0.517   7.344
 4068SOL     OW12661   3.224   1.144   6.131
 4068SOL    HW112662   3.307   1.115   6.083
 4068SOL    HW212663   3.175   1.211   6.075
 4069SOL     OW12664   2.412   0.196   6.471
 4069SOL    HW112665   2.407   0.191   6.571
 4069SOL    HW212666   2.414   0.292   6.442
 4070SOL     OW12667   2.870   1.456   6.063
 4070SOL    HW112668   2.824   1.528   6.011
 4070SOL    HW212669   2.866   1.476   6.161
 4071SOL     OW12670   3.657   1.066   6.459
 4071SOL    HW112671   3.595   1.051   6.383
 4071SOL    HW212672   3.605   1.077   6.544
 4072SOL     OW12673   3.089   1.550   7.092
 4072SOL    HW112674   3.095   1.473   7.156
 4072SOL    HW212675   3.037   1.524   7.012
 4073SOL     OW12676   2.183   0.943   5.828
 4073SOL    HW112677   2.265   0.982   5.786
 4073SOL    HW212678   2.156   0.861   5.779
 4074SOL     OW12679   3.320   0.735   6.314
 4074SOL    HW112680   3.315   0.670   6.389
 4074SOL    HW212681   3.400   0.794   6.327
 4075SOL     OW12682   2.323   1.266   7.313
 4075SOL    HW112683   2.273   1.267   7.227
 4075SOL    HW212684   2.260   1.248   7.389
 4076SOL     OW12685   2.973   1.776   5.823
 4076SOL    HW112686   2.913   1.714   5.873
 4076SOL    HW212687   3.004   1.732   5.738
 4077SOL     OW12688   2.064   0.285   7.084
 4077SOL    HW112689   1.984   0.345   7.071
 4077SOL    HW212690   2.054   0.236   7.170
 4078SOL     OW12691   3.494   1.377   5.667
 4078SOL    HW112692   3.462   1.471   5.657
 4078SOL    HW212693   3.418   1.314   5.655
 4079SOL     OW12694   2.326   1.743   5.909
 4079SOL    HW112695   2.359   1.782   5.995
 4079SOL    HW212696   2.402   1.736   5.844
 4080SOL     OW12697   3.262   0.107   6.012
 4080SOL    HW112698   3.238   0.070   5.922
 4080SOL    HW212699   3.361   0.123   6.016
 4081SOL     OW12700   2.802   1.698   6.490
 4081SOL    HW112701   2.882   1.641   6.511
 4081SOL    HW212702   2.753   1.658   6.413
 4082SOL     OW12703   2.244   0.700   6.066
 4082SOL    HW112704   2.289   0.610   6.063
 4082SOL    HW212705   2.150   0.689   6.099
 4083SOL     OW12706   3.409   0.222   7.315
 4083SOL    HW112707   3.404   0.259   7.407
 4083SOL    HW212708   3.337   0.153   7.303
 4084SOL     OW12709   2.476   0.122   5.703
 4084SOL    HW112710   2.574   0.100   5.710
 4084SOL    HW212711   2.445   0.105   5.610
 4085SOL     OW12712   2.643   0.264   7.335
 4085SOL    HW112713   2.710   0.203   7.378
 4085SOL    HW212714   2.570   0.283   7.400
 4086SOL     OW12715   2.750   1.514   6.781
 4086SOL    HW112716   2.727   1.489   6.687
 4086SOL    HW212717   2.811   1.445   6.820
 4087SOL     OW12718   3.213   0.590   7.019
 4087SOL    HW112719   3.241   0.547   7.104
 4087SOL    HW212720   3.238   0.686   7.020
 4088SOL     OW12721   2.665   1.402   6.510
 4088SOL    HW112722   2.755   1.416   6.468
 4088SOL    HW212723   2.594   1.404   6.439
 4089SOL     OW12724   2.784   0.503   6.485
 4089SOL    HW112725   2.759   0.494   6.389
 4089SOL    HW212726   2.832   0.421   6.516
 4090SOL     OW12727   2.401   0.064   6.098
 4090SOL    HW112728   2.320   0.065   6.156
 4090SOL    HW212729   2.404   0.147   6.043
 4091SOL     OW12730   3.296   1.188   5.627
 4091SOL    HW112731   3.328   1.112   5.684
 4091SOL    HW212732   3.204   1.215   5.657
 4092SOL     OW12733   2.159   0.035   5.757
 4092SOL    HW112734   2.208   0.119   5.736
 4092SOL    HW212735   2.221  -0.030   5.802
 4093SOL     OW12736   2.797   0.236   6.066
 4093SOL    HW112737   2.749   0.277   5.988
 4093SOL    HW212738   2.896   0.234   6.047
 4094SOL     OW12739   2.938   0.683   7.050
 4094SOL    HW112740   2.858   0.622   7.053
 4094SOL    HW212741   3.019   0.630   7.026
 4095SOL     OW12742   3.089   1.570   6.379
 4095SOL    HW112743   3.110   1.644   6.314
 4095SOL    HW212744   3.157   1.570   6.452
 4096SOL     OW12745   2.321   1.152   6.327
 4096SOL    HW112746   2.250   1.125   6.392
 4096SOL    HW212747   2.295   1.124   6.234
 4097SOL     OW12748   3.133   1.797   6.177
 4097SOL    HW112749   3.177   1.861   6.113
 4097SOL    HW212750   3.083   1.849   6.247
 4098SOL     OW12751   2.894   0.549   5.602
 4098SOL    HW112752   2.853   0.631   5.563
 4098SOL    HW212753   2.958   0.575   5.675
 4099SOL     OW12754   1.940   0.556   6.972
 4099SOL    HW112755   2.032   0.555   6.931
 4099SOL    HW212756   1.934   0.630   7.039
 4100SOL     OW12757   2.423   0.222   6.733
 4100SOL    HW112758   2.461   0.138   6.770
 4100SOL    HW212759   2.335   0.241   6.777
 4101SOL     OW12760   2.728   0.454   6.228
 4101SOL    HW112761   2.696   0.526   6.166
 4101SOL    HW212762   2.752   0.373   6.175
 4102SOL     OW12763   2.879   0.039   6.339
 4102SOL    HW112764   2.807   0.044   6.270
 4102SOL    HW212765   2.855  -0.030   6.408
 4103SOL     OW12766   3.291   1.173   6.453
 4103SOL    HW112767   3.236   1.089   6.446
 4103SOL    HW212768   3.317   1.202   6.361
 4104SOL     OW12769   3.328   0.590   6.578
 4104SOL    HW112770   3.298   0.495   6.585
 4104SOL    HW212771   3.401   0.606   6.644
 4105SOL     OW12772   3.719   0.833   5.963
 4105SOL    HW112773   3.761   0.769   6.027
 4105SOL    HW212774   3.681   0.782   5.885
 4106SOL     OW12775   2.350   1.385   5.760
 4106SOL    HW112776   2.263   1.370   5.807
 4106SOL    HW212777   2.333   1.411   5.665
 4107SOL     OW12778   3.526   1.280   6.243
 4107SOL    HW112779   3.625   1.288   6.257
 4107SOL    HW212780   3.481   1.364   6.274
 4108SOL     OW12781   3.252   0.575   5.664
 4108SOL    HW112782   3.198   0.554   5.745
 4108SOL    HW212783   3.343   0.534   5.673
 4109SOL     OW12784   2.389   0.256   5.914
 4109SOL    HW112785   2.416   0.197   5.839
 4109SOL    HW212786   2.389   0.351   5.883
 4110SOL     OW12787   3.616   1.223   7.174
 4110SOL    HW112788   3.707   1.184   7.161
 4110SOL    HW212789   3.624   1.319   7.198
 4111SOL     OW12790   2.926   1.347   6.926
 4111SOL    HW112791   2.846   1.324   6.981
 4111SOL    HW212792   3.009   1.321   6.975
 4112SOL     OW12793   3.454   1.629   7.211
 4112SOL    HW112794   3.481   1.663   7.121
 4112SOL    HW212795   3.533   1.591   7.257
 4113SOL     OW12796   2.973   1.195   6.686
 4113SOL    HW112797   2.933   1.239   6.767
 4113SOL    HW212798   2.932   1.232   6.603
 4114SOL     OW12799   3.500   1.099   6.665
 4114SOL    HW112800   3.505   1.180   6.724
 4114SOL    HW212801   3.414   1.101   6.614
 4115SOL     OW12802   2.777   0.089   6.988
 4115SOL    HW112803   2.802   0.069   6.893
 4115SOL    HW212804   2.849   0.145   7.030
 4116SOL     OW12805   2.842   1.116   7.305
 4116SOL    HW112806   2.743   1.122   7.315
 4116SOL    HW212807   2.865   1.036   7.249
 4117SOL     OW12808   2.567   1.050   5.954
 4117SOL    HW112809   2.553   1.057   6.053
 4117SOL    HW212810   2.651   0.999   5.936
 4118SOL     OW12811   2.272   0.813   6.837
 4118SOL    HW112812   2.358   0.825   6.887
 4118SOL    HW212813   2.230   0.726   6.864
 4119SOL     OW12814   3.136   0.386   6.848
 4119SOL    HW112815   3.157   0.460   6.912
 4119SOL    HW212816   3.047   0.403   6.805
 4120SOL     OW12817   2.229   1.100   6.087
 4120SOL    HW112818   2.222   1.183   6.031
 4120SOL    HW212819   2.233   1.020   6.027
 4121SOL     OW12820   2.428   0.537   6.451
 4121SOL    HW112821   2.440   0.603   6.377
 4121SOL    HW212822   2.474   0.571   6.534
 4122SOL     OW12823   3.114   1.348   5.974
 4122SOL    HW112824   3.164   1.425   6.014
 4122SOL    HW212825   3.019   1.350   6.006
 4123SOL     OW12826   3.134   1.445   6.728
 4123SOL    HW112827   3.181   1.458   6.815
 4123SOL    HW212828   3.068   1.371   6.737
 4124SOL     OW12829   3.444   0.639   6.058
 4124SOL    HW112830   3.413   0.700   6.131
 4124SOL    HW212831   3.494   0.691   5.989
 4125SOL     OW12832   2.216   1.510   6.915
 4125SOL    HW112833   2.195   1.466   6.828
 4125SOL    HW212834   2.313   1.536   6.918
 4126SOL     OW12835   2.264   0.751   7.184
 4126SOL    HW112836   2.332   0.806   7.137
 4126SOL    HW212837   2.304   0.663   7.211
 4127SOL     OW12838   3.449   0.779   7.256
 4127SOL    HW112839   3.357   0.817   7.251
 4127SOL    HW212840   3.509   0.826   7.191
 4128SOL     OW12841   2.875   0.105   7.356
 4128SOL    HW112842   2.881   0.190   7.304
 4128SOL    HW212843   2.907   0.029   7.299
 4129SOL     OW12844   2.366   0.050   7.326
 4129SOL    HW112845   2.324  -0.007   7.256
 4129SOL    HW212846   2.300   0.119   7.358
 4130SOL     OW12847   2.435   0.870   6.615
 4130SOL    HW112848   2.479   0.959   6.606
 4130SOL    HW212849   2.372   0.870   6.692
 4131SOL     OW12850   3.222   0.862   6.631
 4131SOL    HW112851   3.147   0.862   6.565
 4131SOL    HW212852   3.259   0.770   6.640
 4132SOL     OW12853   3.071   0.525   5.861
 4132SOL    HW112854   3.084   0.441   5.915
 4132SOL    HW212855   3.042   0.599   5.921
 4133SOL     OW12856   2.169   0.213   6.817
 4133SOL    HW112857   2.146   0.250   6.907
 4133SOL    HW212858   2.139   0.118   6.811
 4134SOL     OW12859   1.899   1.310   6.868
 4134SOL    HW112860   1.952   1.261   6.936
 4134SOL    HW212861   1.921   1.408   6.873
 4135SOL     OW12862   2.594   0.634   6.650
 4135SOL    HW112863   2.653   0.608   6.574
 4135SOL    HW212864   2.566   0.730   6.639
 4136SOL     OW12865   3.590   0.935   7.440
 4136SOL    HW112866   3.544   0.928   7.351
 4136SOL    HW212867   3.528   0.979   7.506
 4137SOL     OW12868   2.169   0.063   6.204
 4137SOL    HW112869   2.158   0.157   6.237
 4137SOL    HW212870   2.164   0.000   6.281
 4138SOL     OW12871   3.484   0.367   5.960
 4138SOL    HW112872   3.486   0.291   6.024
 4138SOL    HW212873   3.436   0.444   6.000
 4139SOL     OW12874   2.885   0.766   6.552
 4139SOL    HW112875   2.900   0.787   6.648
 4139SOL    HW212876   2.855   0.671   6.543
 4140SOL     OW12877   2.842   1.573   7.286
 4140SOL    HW112878   2.822   1.617   7.198
 4140SOL    HW212879   2.881   1.482   7.270
 4141SOL     OW12880   3.721   1.518   7.191
 4141SOL    HW112881   3.735   1.545   7.096
 4141SOL    HW212882   3.804   1.540   7.244
 4142SOL     OW12883   2.212   0.898   7.390
 4142SOL    HW112884   2.288   0.942   7.438
 4142SOL    HW212885   2.247   0.851   7.308
 4143SOL     OW12886   3.402   0.274   5.711
 4143SOL    HW112887   3.341   0.199   5.734
 4143SOL    HW212888   3.424   0.326   5.794
 4144SOL     OW12889   3.165   0.838   5.628
 4144SOL    HW112890   3.199   0.745   5.643
 4144SOL    HW212891   3.183   0.865   5.533
 4145SOL     OW12892   2.930   1.333   6.435
 4145SOL    HW112893   2.937   1.249   6.380
 4145SOL    HW212894   2.992   1.402   6.399
 4146SOL     OW12895   2.181   0.810   6.535
 4146SOL    HW112896   2.274   0.846   6.540
 4146SOL    HW212897   2.175   0.725   6.587
 4147SOL     OW12898   2.201   0.509   6.592
 4147SOL    HW112899   2.149   0.426   6.575
 4147SOL    HW212900   2.278   0.514   6.528
 4148SOL     OW12901   3.000   0.380   7.264
 4148SOL    HW112902   2.955   0.443   7.328
 4148SOL    HW212903   3.093   0.411   7.247
 4149SOL     OW12904   3.022   0.207   7.063
 4149SOL    HW112905   3.022   0.271   7.140
 4149SOL    HW212906   3.050   0.255   6.980
 4150SOL     OW12907   1.870   1.326   5.786
 4150SOL    HW112908   1.777   1.347   5.755
 4150SOL    HW212909   1.880   1.227   5.799
 4151SOL     OW12910   2.864   0.796   6.824
 4151SOL    HW112911   2.905   0.764   6.910
 4151SOL    HW212912   2.768   0.769   6.821
 4152SOL     OW12913   1.902   0.544   6.700
 4152SOL    HW112914   1.987   0.511   6.659
 4152SOL    HW212915   1.915   0.559   6.798
 4153SOL     OW12916   2.051   0.520   7.308
 4153SOL    HW112917   2.110   0.480   7.238
 4153SOL    HW212918   1.993   0.591   7.267
 4154SOL     OW12919   3.231   0.950   7.246
 4154SOL    HW112920   3.270   1.039   7.266
 4154SOL    HW212921   3.241   0.930   7.149
 4155SOL     OW12922   2.677   0.572   5.911
 4155SOL    HW112923   2.684   0.483   5.865
 4155SOL    HW212924   2.583   0.606   5.903
 4156SOL     OW12925   3.519   0.604   6.792
 4156SOL    HW112926   3.481   0.535   6.854
 4156SOL    HW212927   3.601   0.568   6.748
 4157SOL     OW12928   2.533   0.464   6.855
 4157SOL    HW112929   2.499   0.375   6.825
 4157SOL    HW212930   2.559   0.518   6.775
 4158SOL     OW12931   2.792   1.678   7.051
 4158SOL    HW112932   2.768   1.660   6.956
 4158SOL    HW212933   2.822   1.772   7.061
 4159SOL     OW12934   2.335   0.500   5.777
 4159SOL    HW112935   2.396   0.580   5.781
 4159SOL    HW212936   2.240   0.531   5.784
 4160SOL     OW12937   2.021   1.137   7.052
 4160SOL    HW112938   2.043   1.076   7.128
 4160SOL    HW212939   2.031   1.088   6.966
 4161SOL     OW12940   3.209   1.059   6.820
 4161SOL    HW112941   3.233   0.996   6.746
 4161SOL    HW212942   3.119   1.099   6.802
 4162SOL     OW12943   3.164   0.855   5.895
 4162SOL    HW112944   3.078   0.824   5.937
 4162SOL    HW212945   3.160   0.841   5.796
 4163SOL     OW12946   3.621   1.747   6.740
 4163SOL    HW112947   3.682   1.777   6.667
 4163SOL    HW212948   3.583   1.658   6.718
 4164SOL     OW12949   3.114   1.731   6.714
 4164SOL    HW112950   3.198   1.736   6.660
 4164SOL    HW212951   3.091   1.635   6.732
 4165SOL     OW12952   1.945   1.258   6.608
 4165SOL    HW112953   1.940   1.257   6.708
 4165SOL    HW212954   1.862   1.217   6.570
 4166SOL     OW12955   3.588   0.135   6.109
 4166SOL    HW112956   3.661   0.118   6.042
 4166SOL    HW212957   3.557   0.048   6.147
 4167SOL     OW12958   3.250   1.573   6.063
 4167SOL    HW112959   3.317   1.585   5.989
 4167SOL    HW212960   3.210   1.662   6.086
 4168SOL     OW12961   1.992   1.794   7.437
 4168SOL    HW112962   1.951   1.720   7.490
 4168SOL    HW212963   2.056   1.845   7.495
 4169SOL     OW12964   3.142   0.927   6.258
 4169SOL    HW112965   3.202   0.846   6.260
 4169SOL    HW212966   3.182   0.996   6.198
 4170SOL     OW12967   2.692   1.273   7.008
 4170SOL    HW112968   2.687   1.306   7.103
 4170SOL    HW212969   2.606   1.292   6.962
 4171SOL     OW12970   2.534   1.616   5.740
 4171SOL    HW112971   2.543   1.626   5.641
 4171SOL    HW212972   2.494   1.527   5.761
 4172SOL     OW12973   3.512   1.720   6.980
 4172SOL    HW112974   3.565   1.730   6.896
 4172SOL    HW212975   3.485   1.810   7.014
 4173SOL     OW12976   3.703   0.175   6.549
 4173SOL    HW112977   3.742   0.090   6.513
 4173SOL    HW212978   3.605   0.177   6.530
 4174SOL     OW12979   2.125   0.326   6.306
 4174SOL    HW112980   2.046   0.377   6.272
 4174SOL    HW212981   2.116   0.311   6.404
 4175SOL     OW12982   3.056   1.612   5.617
 4175SOL    HW112983   3.062   1.519   5.654
 4175SOL    HW212984   2.997   1.612   5.537
 4176SOL     OW12985   2.684   1.002   6.958
 4176SOL    HW112986   2.724   1.001   6.866
 4176SOL    HW212987   2.694   1.094   6.998
 4177SOL     OW12988   2.778   0.910   5.877
 4177SOL    HW112989   2.841   0.948   5.809
 4177SOL    HW212990   2.818   0.827   5.916
 4178SOL     OW12991   3.366   1.607   5.630
 4178SOL    HW112992   3.274   1.644   5.637
 4178SOL    HW212993   3.404   1.627   5.540
 4179SOL     OW12994   2.234   1.288   7.076
 4179SOL    HW112995   2.221   1.381   7.042
 4179SOL    HW212996   2.150   1.236   7.063
 4180SOL     OW12997   3.476   1.292   6.875
 4180SOL    HW112998   3.536   1.295   6.955
 4180SOL    HW212999   3.401   1.356   6.888
 4181SOL     OW13000   2.901   1.098   6.282
 4181SOL    HW113001   2.831   1.051   6.336
 4181SOL    HW213002   2.960   1.030   6.239
 4182SOL     OW13003   2.876   0.236   6.557
 4182SOL    HW113004   2.868   0.200   6.464
 4182SOL    HW213005   2.874   0.160   6.622
 4183SOL     OW13006   2.452   1.487   6.077
 4183SOL    HW113007   2.494   1.429   6.007
 4183SOL    HW213008   2.408   1.566   6.033
 4184SOL     OW13009   3.571   0.385   6.967
 4184SOL    HW113010   3.644   0.454   6.971
 4184SOL    HW213011   3.599   0.310   6.908
 4185SOL     OW13012   2.117   1.348   5.876
 4185SOL    HW113013   2.021   1.349   5.849
 4185SOL    HW213014   2.129   1.401   5.960
 4186SOL     OW13015   1.967   1.013   7.312
 4186SOL    HW113016   1.890   0.980   7.366
 4186SOL    HW213017   2.052   0.983   7.354
 4187SOL     OW13018   2.534   0.203   7.075
 4187SOL    HW113019   2.624   0.187   7.035
 4187SOL    HW213020   2.542   0.208   7.174
 4188SOL     OW13021   1.937   0.345   5.619
 4188SOL    HW113022   1.845   0.317   5.590
 4188SOL    HW213023   1.968   0.422   5.563
 4189SOL     OW13024   3.302   0.856   6.984
 4189SOL    HW113025   3.245   0.908   6.921
 4189SOL    HW213026   3.398   0.868   6.960
 4190SOL     OW13027   1.934   0.166   5.904
 4190SOL    HW113028   1.917   0.249   5.850
 4190SOL    HW213029   2.024   0.129   5.882
 4191SOL     OW13030   3.045   1.335   5.705
 4191SOL    HW113031   2.946   1.324   5.707
 4191SOL    HW213032   3.079   1.350   5.798
 4192SOL     OW13033   2.475   0.842   7.017
 4192SOL    HW113034   2.531   0.923   7.000
 4192SOL    HW213035   2.534   0.762   7.020
 4193SOL     OW13036   3.355   1.767   6.545
 4193SOL    HW113037   3.388   1.831   6.476
 4193SOL    HW213038   3.421   1.761   6.620
 4194SOL     OW13039   2.578   0.565   7.294
 4194SOL    HW113040   2.597   0.630   7.368
 4194SOL    HW213041   2.638   0.485   7.303
 4195SOL     OW13042   3.312   1.220   7.219
 4195SOL    HW113043   3.303   1.210   7.318
 4195SOL    HW213044   3.408   1.213   7.193
 4196SOL     OW13045   3.536   0.883   6.840
 4196SOL    HW113046   3.509   0.794   6.803
 4196SOL    HW213047   3.537   0.951   6.767
 4197SOL     OW13048   3.087   0.325   6.035
 4197SOL    HW113049   3.152   0.251   6.024
 4197SOL    HW213050   3.107   0.375   6.119
 4198SOL     OW13051   2.456   0.745   6.238
 4198SOL    HW113052   2.506   0.830   6.219
 4198SOL    HW213053   2.368   0.747   6.190
 4199SOL     OW13054   3.639   0.342   7.228
 4199SOL    HW113055   3.622   0.373   7.134
 4199SOL    HW213056   3.555   0.305   7.266
 4200SOL     OW13057   3.592   0.934   7.103
 4200SOL    HW113058   3.630   1.025   7.118
 4200SOL    HW213059   3.584   0.917   7.004
 4201SOL     OW13060   2.721   1.374   5.602
 4201SOL    HW113061   2.675   1.389   5.690
 4201SOL    HW213062   2.765   1.459   5.572
 4202SOL     OW13063   2.721   0.956   6.447
 4202SOL    HW113064   2.775   0.887   6.495
 4202SOL    HW213065   2.689   1.025   6.513
 4203SOL     OW13066   2.945   0.984   5.673
 4203SOL    HW113067   2.922   1.037   5.591
 4203SOL    HW213068   3.026   0.928   5.654
 4204SOL     OW13069   3.723   1.569   6.437
 4204SOL    HW113070   3.652   1.557   6.367
 4204SOL    HW213071   3.724   1.490   6.497
 4205SOL     OW13072   1.941   1.240   6.239
 4205SOL    HW113073   1.940   1.193   6.327
 4205SOL    HW213074   2.023   1.212   6.188
 4206SOL     OW13075   2.534   1.391   7.210
 4206SOL    HW113076   2.456   1.341   7.248
 4206SOL    HW213077   2.531   1.486   7.241
 4207SOL     OW13078   3.686   0.192   6.813
 4207SOL    HW113079   3.682   0.102   6.857
 4207SOL    HW213080   3.689   0.181   6.714
 4208SOL     OW13081   2.290   0.424   6.106
 4208SOL    HW113082   2.320   0.352   6.044
 4208SOL    HW213083   2.251   0.384   6.189
 4209SOL     OW13084   3.567   1.487   6.690
 4209SOL    HW113085   3.474   1.462   6.663
 4209SOL    HW213086   3.593   1.437   6.772
 4210SOL     OW13087   2.179   0.547   6.866
 4210SOL    HW113088   2.217   0.488   6.938
 4210SOL    HW213089   2.219   0.521   6.778
 4211SOL     OW13090   2.674   1.586   6.273
 4211SOL    HW113091   2.706   1.596   6.179
 4211SOL    HW213092   2.595   1.524   6.275
 4212SOL     OW13093   3.286   0.214   6.698
 4212SOL    HW113094   3.338   0.149   6.753
 4212SOL    HW213095   3.237   0.277   6.759
 4213SOL     OW13096   2.863   0.034   6.740
 4213SOL    HW113097   2.800  -0.038   6.709
 4213SOL    HW213098   2.956  -0.002   6.740
 4214SOL     OW13099   2.632   1.330   5.887
 4214SOL    HW113100   2.586   1.243   5.904
 4214SOL    HW213101   2.723   1.327   5.928
 4215SOL     OW13102   2.480   1.567   6.870
 4215SOL    HW113103   2.475   1.649   6.927
 4215SOL    HW213104   2.569   1.564   6.825
 4216SOL     OW13105   3.214   0.052   5.754
 4216SOL    HW113106   3.249   0.011   5.670
 4216SOL    HW213107   3.124   0.014   5.774
 4217SOL     OW13108   3.162   0.453   6.277
 4217SOL    HW113109   3.103   0.533   6.281
 4217SOL    HW213110   3.177   0.418   6.370
 4218SOL     OW13111   3.455   0.221   6.468
 4218SOL    HW113112   3.371   0.220   6.522
 4218SOL    HW213113   3.457   0.304   6.412
 4219SOL     OW13114   1.901   1.077   5.886
 4219SOL    HW113115   2.000   1.066   5.877
 4219SOL    HW213116   1.861   0.991   5.918
 4220SOL     OW13117   2.737   1.646   5.923
 4220SOL    HW113118   2.660   1.611   5.869
 4220SOL    HW213119   2.705   1.717   5.985
 4221SOL     OW13120   2.092   0.628   7.561
 4221SOL    HW113121   1.999   0.626   7.598
 4221SOL    HW213122   2.093   0.589   7.469
 4222SOL     OW13123   2.087   0.275   8.444
 4222SOL    HW113124   2.122   0.258   8.536
 4222SOL    HW213125   1.999   0.230   8.432
 4223SOL     OW13126   1.881   0.368   8.095
 4223SOL    HW113127   1.799   0.411   8.134
 4223SOL    HW213128   1.853   0.295   8.032
 4224SOL     OW13129   2.431   1.275   8.613
 4224SOL    HW113130   2.338   1.268   8.576
 4224SOL    HW213131   2.442   1.364   8.657
 4225SOL     OW13132   3.417   1.511   8.151
 4225SOL    HW113133   3.360   1.495   8.232
 4225SOL    HW213134   3.358   1.521   8.071
 4226SOL     OW13135   2.997   0.703   8.165
 4226SOL    HW113136   3.054   0.781   8.140
 4226SOL    HW213137   2.937   0.729   8.241
 4227SOL     OW13138   3.617   0.607   7.679
 4227SOL    HW113139   3.605   0.594   7.580
 4227SOL    HW213140   3.587   0.526   7.728
 4228SOL     OW13141   2.630   1.144   8.471
 4228SOL    HW113142   2.552   1.161   8.531
 4228SOL    HW213143   2.664   1.231   8.435
 4229SOL     OW13144   2.712   0.798   9.271
 4229SOL    HW113145   2.708   0.874   9.336
 4229SOL    HW213146   2.734   0.834   9.180
 4230SOL     OW13147   2.547   1.012   8.113
 4230SOL    HW113148   2.616   0.996   8.183
 4230SOL    HW213149   2.474   1.069   8.151
 4231SOL     OW13150   2.548   1.161   9.251
 4231SOL    HW113151   2.608   1.240   9.265
 4231SOL    HW213152   2.462   1.192   9.210
 4232SOL     OW13153   2.197   1.435   8.509
 4232SOL    HW113154   2.119   1.404   8.456
 4232SOL    HW213155   2.255   1.493   8.452
 4233SOL     OW13156   3.322   1.505   8.787
 4233SOL    HW113157   3.346   1.599   8.813
 4233SOL    HW213158   3.306   1.451   8.869
 4234SOL     OW13159   2.300   0.392   8.947
 4234SOL    HW113160   2.382   0.336   8.956
 4234SOL    HW213161   2.219   0.334   8.951
 4235SOL     OW13162   3.465   0.447   8.185
 4235SOL    HW113163   3.391   0.493   8.135
 4235SOL    HW213164   3.516   0.515   8.238
 4236SOL     OW13165   2.989   1.341   9.138
 4236SOL    HW113166   3.036   1.341   9.226
 4236SOL    HW213167   2.941   1.254   9.127
 4237SOL     OW13168   2.092   1.434   7.986
 4237SOL    HW113169   2.066   1.530   7.986
 4237SOL    HW213170   2.021   1.380   8.031
 4238SOL     OW13171   2.102   1.091   8.334
 4238SOL    HW113172   2.116   1.007   8.386
 4238SOL    HW213173   2.047   1.155   8.389
 4239SOL     OW13174   2.482   1.786   8.887
 4239SOL    HW113175   2.390   1.769   8.922
 4239SOL    HW213176   2.510   1.878   8.913
 4240SOL     OW13177   2.468   0.964   7.571
 4240SOL    HW113178   2.475   1.048   7.517
 4240SOL    HW213179   2.514   0.977   7.659
 4241SOL     OW13180   3.456   0.114   8.928
 4241SOL    HW113181   3.438   0.181   8.856
 4241SOL    HW213182   3.453   0.160   9.017
 4242SOL     OW13183   1.984   0.643   8.011
 4242SOL    HW113184   1.939   0.555   8.028
 4242SOL    HW213185   1.983   0.697   8.095
 4243SOL     OW13186   3.704   1.767   7.807
 4243SOL    HW113187   3.758   1.738   7.887
 4243SOL    HW213188   3.734   1.857   7.778
 4244SOL     OW13189   3.551   0.922   8.060
 4244SOL    HW113190   3.646   0.893   8.068
 4244SOL    HW213191   3.543   0.987   7.985
 4245SOL     OW13192   3.503   1.108   7.880
 4245SOL    HW113193   3.589   1.110   7.828
 4245SOL    HW213194   3.517   1.155   7.968
 4246SOL     OW13195   1.975   0.737   9.045
 4246SOL    HW113196   2.063   0.724   9.090
 4246SOL    HW213197   1.962   0.834   9.023
 4247SOL     OW13198   2.475   1.365   8.174
 4247SOL    HW113199   2.426   1.278   8.183
 4247SOL    HW213200   2.452   1.408   8.087
 4248SOL     OW13201   3.155   1.228   8.871
 4248SOL    HW113202   3.192   1.155   8.813
 4248SOL    HW213203   3.207   1.233   8.956
 4249SOL     OW13204   2.671   0.004   7.950
 4249SOL    HW113205   2.711   0.095   7.941
 4249SOL    HW213206   2.571   0.012   7.956
 4250SOL     OW13207   2.059   0.976   8.712
 4250SOL    HW113208   2.148   0.931   8.698
 4250SOL    HW213209   1.986   0.911   8.693
 4251SOL     OW13210   3.387   0.999   7.638
 4251SOL    HW113211   3.324   0.923   7.651
 4251SOL    HW213212   3.435   1.017   7.724
 4252SOL     OW13213   3.049   1.792   9.064
 4252SOL    HW113214   3.073   1.852   8.988
 4252SOL    HW213215   3.056   1.697   9.034
 4253SOL     OW13216   2.179   0.251   9.249
 4253SOL    HW113217   2.250   0.322   9.255
 4253SOL    HW213218   2.091   0.290   9.277
 4254SOL     OW13219   3.328   1.417   8.401
 4254SOL    HW113220   3.269   1.423   8.481
 4254SOL    HW213221   3.313   1.329   8.355
 4255SOL     OW13222   3.529   1.714   8.020
 4255SOL    HW113223   3.488   1.691   7.932
 4255SOL    HW213224   3.511   1.640   8.085
 4256SOL     OW13225   2.460   0.729   7.718
 4256SOL    HW113226   2.484   0.798   7.650
 4256SOL    HW213227   2.382   0.762   7.772
 4257SOL     OW13228   3.143   0.345   8.392
 4257SOL    HW113229   3.057   0.295   8.379
 4257SOL    HW213230   3.205   0.291   8.448
 4258SOL     OW13231   3.438   1.662   7.755
 4258SOL    HW113232   3.527   1.708   7.758
 4258SOL    HW213233   3.417   1.638   7.660
 4259SOL     OW13234   2.669   0.605   8.913
 4259SOL    HW113235   2.622   0.602   9.002
 4259SOL    HW213236   2.618   0.550   8.847
 4260SOL     OW13237   3.256   0.469   9.122
 4260SOL    HW113238   3.236   0.512   9.210
 4260SOL    HW213239   3.334   0.407   9.131
 4261SOL     OW13240   2.835   0.890   9.020
 4261SOL    HW113241   2.881   0.806   8.991
 4261SOL    HW213242   2.779   0.924   8.945
 4262SOL     OW13243   2.853   0.410   8.690
 4262SOL    HW113244   2.776   0.444   8.744
 4262SOL    HW213245   2.819   0.359   8.611
 4263SOL     OW13246   2.903   0.701   7.877
 4263SOL    HW113247   2.929   0.697   7.973
 4263SOL    HW213248   2.818   0.650   7.863
 4264SOL     OW13249   1.938   0.811   8.237
 4264SOL    HW113250   2.037   0.799   8.246
 4264SOL    HW213251   1.914   0.906   8.258
 4265SOL     OW13252   2.727   0.348   7.643
 4265SOL    HW113253   2.786   0.411   7.594
 4265SOL    HW213254   2.746   0.254   7.614
 4266SOL     OW13255   3.581   0.585   9.279
 4266SOL    HW113256   3.555   0.674   9.243
 4266SOL    HW213257   3.579   0.517   9.206
 4267SOL     OW13258   3.224   1.144   7.993
 4267SOL    HW113259   3.307   1.115   7.945
 4267SOL    HW213260   3.175   1.211   7.937
 4268SOL     OW13261   2.412   0.196   8.333
 4268SOL    HW113262   2.407   0.191   8.433
 4268SOL    HW213263   2.414   0.292   8.304
 4269SOL     OW13264   2.870   1.456   7.925
 4269SOL    HW113265   2.824   1.528   7.873
 4269SOL    HW213266   2.866   1.476   8.023
 4270SOL     OW13267   2.213   1.801   8.301
 4270SOL    HW113268   2.263   1.715   8.307
 4270SOL    HW213269   2.278   1.878   8.298
 4271SOL     OW13270   3.657   1.066   8.321
 4271SOL    HW113271   3.595   1.051   8.245
 4271SOL    HW213272   3.605   1.077   8.406
 4272SOL     OW13273   3.089   1.550   8.954
 4272SOL    HW113274   3.095   1.473   9.018
 4272SOL    HW213275   3.037   1.524   8.874
 4273SOL     OW13276   2.183   0.943   7.690
 4273SOL    HW113277   2.265   0.982   7.648
 4273SOL    HW213278   2.156   0.861   7.641
 4274SOL     OW13279   3.320   0.735   8.176
 4274SOL    HW113280   3.315   0.670   8.251
 4274SOL    HW213281   3.400   0.794   8.189
 4275SOL     OW13282   2.323   1.266   9.175
 4275SOL    HW113283   2.273   1.267   9.089
 4275SOL    HW213284   2.260   1.248   9.251
 4276SOL     OW13285   2.973   1.776   7.685
 4276SOL    HW113286   2.913   1.714   7.735
 4276SOL    HW213287   3.004   1.732   7.600
 4277SOL     OW13288   2.064   0.285   8.946
 4277SOL    HW113289   1.984   0.345   8.933
 4277SOL    HW213290   2.054   0.236   9.032
 4278SOL     OW13291   3.494   1.377   7.529
 4278SOL    HW113292   3.462   1.471   7.519
 4278SOL    HW213293   3.418   1.314   7.517
 4279SOL     OW13294   3.262   0.107   7.874
 4279SOL    HW113295   3.238   0.070   7.784
 4279SOL    HW213296   3.361   0.123   7.878
 4280SOL     OW13297   2.111   1.785   8.689
 4280SOL    HW113298   2.168   1.720   8.739
 4280SOL    HW213299   2.095   1.752   8.596
 4281SOL     OW13300   2.802   1.698   8.352
 4281SOL    HW113301   2.882   1.641   8.373
 4281SOL    HW213302   2.753   1.658   8.275
 4282SOL     OW13303   2.244   0.700   7.928
 4282SOL    HW113304   2.289   0.610   7.925
 4282SOL    HW213305   2.150   0.689   7.961
 4283SOL     OW13306   3.409   0.222   9.177
 4283SOL    HW113307   3.404   0.259   9.269
 4283SOL    HW213308   3.337   0.153   9.165
 4284SOL     OW13309   2.476   0.122   7.565
 4284SOL    HW113310   2.574   0.100   7.572
 4284SOL    HW213311   2.445   0.105   7.472
 4285SOL     OW13312   2.643   0.264   9.197
 4285SOL    HW113313   2.710   0.203   9.240
 4285SOL    HW213314   2.570   0.283   9.262
 4286SOL     OW13315   2.750   1.514   8.643
 4286SOL    HW113316   2.727   1.489   8.549
 4286SOL    HW213317   2.811   1.445   8.682
 4287SOL     OW13318   3.213   0.590   8.881
 4287SOL    HW113319   3.241   0.547   8.966
 4287SOL    HW213320   3.238   0.686   8.882
 4288SOL     OW13321   2.665   1.402   8.372
 4288SOL    HW113322   2.755   1.416   8.330
 4288SOL    HW213323   2.594   1.404   8.301
 4289SOL     OW13324   2.784   0.503   8.347
 4289SOL    HW113325   2.759   0.494   8.251
 4289SOL    HW213326   2.832   0.421   8.378
 4290SOL     OW13327   2.401   0.064   7.960
 4290SOL    HW113328   2.320   0.065   8.018
 4290SOL    HW213329   2.404   0.147   7.905
 4291SOL     OW13330   3.296   1.188   7.489
 4291SOL    HW113331   3.328   1.112   7.546
 4291SOL    HW213332   3.204   1.215   7.519
 4292SOL     OW13333   2.159   0.035   7.619
 4292SOL    HW113334   2.208   0.119   7.598
 4292SOL    HW213335   2.221  -0.030   7.664
 4293SOL     OW13336   2.797   0.236   7.928
 4293SOL    HW113337   2.749   0.277   7.850
 4293SOL    HW213338   2.896   0.234   7.909
 4294SOL     OW13339   2.938   0.683   8.912
 4294SOL    HW113340   2.858   0.622   8.915
 4294SOL    HW213341   3.019   0.630   8.888
 4295SOL     OW13342   3.089   1.570   8.241
 4295SOL    HW113343   3.110   1.644   8.176
 4295SOL    HW213344   3.157   1.570   8.314
 4296SOL     OW13345   2.321   1.152   8.189
 4296SOL    HW113346   2.250   1.125   8.254
 4296SOL    HW213347   2.295   1.124   8.096
 4297SOL     OW13348   3.133   1.797   8.039
 4297SOL    HW113349   3.177   1.861   7.975
 4297SOL    HW213350   3.083   1.849   8.109
 4298SOL     OW13351   2.894   0.549   7.464
 4298SOL    HW113352   2.853   0.631   7.425
 4298SOL    HW213353   2.958   0.575   7.537
 4299SOL     OW13354   1.940   0.556   8.834
 4299SOL    HW113355   2.032   0.555   8.793
 4299SOL    HW213356   1.934   0.630   8.901
 4300SOL     OW13357   2.423   0.222   8.595
 4300SOL    HW113358   2.461   0.138   8.632
 4300SOL    HW213359   2.335   0.241   8.639
 4301SOL     OW13360   2.728   0.454   8.090
 4301SOL    HW113361   2.696   0.526   8.028
 4301SOL    HW213362   2.752   0.373   8.037
 4302SOL     OW13363   2.879   0.039   8.201
 4302SOL    HW113364   2.807   0.044   8.132
 4302SOL    HW213365   2.855  -0.030   8.270
 4303SOL     OW13366   3.291   1.173   8.315
 4303SOL    HW113367   3.236   1.089   8.308
 4303SOL    HW213368   3.317   1.202   8.223
 4304SOL     OW13369   3.328   0.590   8.440
 4304SOL    HW113370   3.298   0.495   8.447
 4304SOL    HW213371   3.401   0.606   8.506
 4305SOL     OW13372   3.719   0.833   7.825
 4305SOL    HW113373   3.761   0.769   7.889
 4305SOL    HW213374   3.681   0.782   7.747
 4306SOL     OW13375   3.526   1.280   8.105
 4306SOL    HW113376   3.625   1.288   8.119
 4306SOL    HW213377   3.481   1.364   8.136
 4307SOL     OW13378   3.252   0.575   7.526
 4307SOL    HW113379   3.198   0.554   7.607
 4307SOL    HW213380   3.343   0.534   7.535
 4308SOL     OW13381   2.389   0.256   7.776
 4308SOL    HW113382   2.416   0.197   7.701
 4308SOL    HW213383   2.389   0.351   7.745
 4309SOL     OW13384   3.616   1.223   9.036
 4309SOL    HW113385   3.707   1.184   9.023
 4309SOL    HW213386   3.624   1.319   9.060
 4310SOL     OW13387   2.926   1.347   8.788
 4310SOL    HW113388   2.846   1.324   8.843
 4310SOL    HW213389   3.009   1.321   8.837
 4311SOL     OW13390   3.454   1.629   9.073
 4311SOL    HW113391   3.481   1.663   8.983
 4311SOL    HW213392   3.533   1.591   9.119
 4312SOL     OW13393   2.973   1.195   8.548
 4312SOL    HW113394   2.933   1.239   8.629
 4312SOL    HW213395   2.932   1.232   8.465
 4313SOL     OW13396   3.500   1.099   8.527
 4313SOL    HW113397   3.505   1.180   8.586
 4313SOL    HW213398   3.414   1.101   8.476
 4314SOL     OW13399   2.777   0.089   8.850
 4314SOL    HW113400   2.802   0.069   8.755
 4314SOL    HW213401   2.849   0.145   8.892
 4315SOL     OW13402   2.842   1.116   9.167
 4315SOL    HW113403   2.743   1.122   9.177
 4315SOL    HW213404   2.865   1.036   9.111
 4316SOL     OW13405   2.567   1.050   7.816
 4316SOL    HW113406   2.553   1.057   7.915
 4316SOL    HW213407   2.651   0.999   7.798
 4317SOL     OW13408   2.272   0.813   8.699
 4317SOL    HW113409   2.358   0.825   8.749
 4317SOL    HW213410   2.230   0.726   8.726
 4318SOL     OW13411   3.136   0.386   8.710
 4318SOL    HW113412   3.157   0.460   8.774
 4318SOL    HW213413   3.047   0.403   8.667
 4319SOL     OW13414   1.926   1.564   8.779
 4319SOL    HW113415   1.880   1.646   8.745
 4319SOL    HW213416   2.024   1.583   8.788
 4320SOL     OW13417   2.229   1.100   7.949
 4320SOL    HW113418   2.222   1.183   7.893
 4320SOL    HW213419   2.233   1.020   7.889
 4321SOL     OW13420   2.428   0.537   8.313
 4321SOL    HW113421   2.440   0.603   8.239
 4321SOL    HW213422   2.474   0.571   8.396
 4322SOL     OW13423   3.114   1.348   7.836
 4322SOL    HW113424   3.164   1.425   7.876
 4322SOL    HW213425   3.019   1.350   7.868
 4323SOL     OW13426   3.134   1.445   8.590
 4323SOL    HW113427   3.181   1.458   8.677
 4323SOL    HW213428   3.068   1.371   8.599
 4324SOL     OW13429   3.444   0.639   7.920
 4324SOL    HW113430   3.413   0.700   7.993
 4324SOL    HW213431   3.494   0.691   7.851
 4325SOL     OW13432   2.216   1.510   8.777
 4325SOL    HW113433   2.195   1.466   8.690
 4325SOL    HW213434   2.313   1.536   8.780
 4326SOL     OW13435   2.264   0.751   9.046
 4326SOL    HW113436   2.332   0.806   8.999
 4326SOL    HW213437   2.304   0.663   9.073
 4327SOL     OW13438   3.449   0.779   9.118
 4327SOL    HW113439   3.357   0.817   9.113
 4327SOL    HW213440   3.509   0.826   9.053
 4328SOL     OW13441   2.875   0.105   9.218
 4328SOL    HW113442   2.881   0.190   9.166
 4328SOL    HW213443   2.907   0.029   9.161
 4329SOL     OW13444   2.366   0.050   9.188
 4329SOL    HW113445   2.324  -0.007   9.118
 4329SOL    HW213446   2.300   0.119   9.220
 4330SOL     OW13447   2.435   0.870   8.477
 4330SOL    HW113448   2.479   0.959   8.468
 4330SOL    HW213449   2.372   0.870   8.554
 4331SOL     OW13450   3.222   0.862   8.493
 4331SOL    HW113451   3.147   0.862   8.427
 4331SOL    HW213452   3.259   0.770   8.502
 4332SOL     OW13453   3.071   0.525   7.723
 4332SOL    HW113454   3.084   0.441   7.777
 4332SOL    HW213455   3.042   0.599   7.783
 4333SOL     OW13456   2.169   0.213   8.679
 4333SOL    HW113457   2.146   0.250   8.769
 4333SOL    HW213458   2.139   0.118   8.673
 4334SOL     OW13459   1.899   1.310   8.730
 4334SOL    HW113460   1.952   1.261   8.798
 4334SOL    HW213461   1.921   1.408   8.735
 4335SOL     OW13462   2.594   0.634   8.512
 4335SOL    HW113463   2.653   0.608   8.436
 4335SOL    HW213464   2.566   0.730   8.501
 4336SOL     OW13465   3.590   0.935   9.302
 4336SOL    HW113466   3.544   0.928   9.213
 4336SOL    HW213467   3.528   0.979   9.368
 4337SOL     OW13468   2.169   0.063   8.066
 4337SOL    HW113469   2.158   0.157   8.099
 4337SOL    HW213470   2.164   0.000   8.143
 4338SOL     OW13471   3.484   0.367   7.822
 4338SOL    HW113472   3.486   0.291   7.886
 4338SOL    HW213473   3.436   0.444   7.862
 4339SOL     OW13474   2.885   0.766   8.414
 4339SOL    HW113475   2.900   0.787   8.510
 4339SOL    HW213476   2.855   0.671   8.405
 4340SOL     OW13477   2.842   1.573   9.148
 4340SOL    HW113478   2.822   1.617   9.060
 4340SOL    HW213479   2.881   1.482   9.132
 4341SOL     OW13480   3.721   1.518   9.053
 4341SOL    HW113481   3.735   1.545   8.958
 4341SOL    HW213482   3.804   1.540   9.106
 4342SOL     OW13483   2.212   0.898   9.252
 4342SOL    HW113484   2.288   0.942   9.300
 4342SOL    HW213485   2.247   0.851   9.170
 4343SOL     OW13486   3.402   0.274   7.573
 4343SOL    HW113487   3.341   0.199   7.596
 4343SOL    HW213488   3.424   0.326   7.656
 4344SOL     OW13489   3.165   0.838   7.490
 4344SOL    HW113490   3.199   0.745   7.505
 4344SOL    HW213491   3.183   0.865   7.395
 4345SOL     OW13492   2.930   1.333   8.297
 4345SOL    HW113493   2.937   1.249   8.242
 4345SOL    HW213494   2.992   1.402   8.261
 4346SOL     OW13495   2.181   0.810   8.397
 4346SOL    HW113496   2.274   0.846   8.402
 4346SOL    HW213497   2.175   0.725   8.449
 4347SOL     OW13498   2.201   0.509   8.454
 4347SOL    HW113499   2.149   0.426   8.437
 4347SOL    HW213500   2.278   0.514   8.390
 4348SOL     OW13501   3.000   0.380   9.126
 4348SOL    HW113502   2.955   0.443   9.190
 4348SOL    HW213503   3.093   0.411   9.109
 4349SOL     OW13504   3.022   0.207   8.925
 4349SOL    HW113505   3.022   0.271   9.002
 4349SOL    HW213506   3.050   0.255   8.842
 4350SOL     OW13507   1.870   1.326   7.648
 4350SOL    HW113508   1.777   1.347   7.617
 4350SOL    HW213509   1.880   1.227   7.661
 4351SOL     OW13510   1.950   1.801   8.375
 4351SOL    HW113511   1.908   1.715   8.348
 4351SOL    HW213512   2.044   1.804   8.341
 4352SOL     OW13513   2.366   1.568   8.358
 4352SOL    HW113514   2.432   1.642   8.367
 4352SOL    HW213515   2.410   1.489   8.316
 4353SOL     OW13516   2.864   0.796   8.686
 4353SOL    HW113517   2.905   0.764   8.772
 4353SOL    HW213518   2.768   0.769   8.683
 4354SOL     OW13519   1.902   0.544   8.562
 4354SOL    HW113520   1.987   0.511   8.521
 4354SOL    HW213521   1.915   0.559   8.660
 4355SOL     OW13522   2.051   0.520   9.170
 4355SOL    HW113523   2.110   0.480   9.100
 4355SOL    HW213524   1.993   0.591   9.129
 4356SOL     OW13525   3.231   0.950   9.108
 4356SOL    HW113526   3.270   1.039   9.128
 4356SOL    HW213527   3.241   0.930   9.011
 4357SOL     OW13528   2.677   0.572   7.773
 4357SOL    HW113529   2.684   0.483   7.727
 4357SOL    HW213530   2.583   0.606   7.765
 4358SOL     OW13531   3.519   0.604   8.654
 4358SOL    HW113532   3.481   0.535   8.716
 4358SOL    HW213533   3.601   0.568   8.610
 4359SOL     OW13534   2.114   1.564   9.192
 4359SOL    HW113535   2.084   1.621   9.268
 4359SOL    HW213536   2.107   1.467   9.218
 4360SOL     OW13537   2.533   0.464   8.717
 4360SOL    HW113538   2.499   0.375   8.687
 4360SOL    HW213539   2.559   0.518   8.637
 4361SOL     OW13540   2.792   1.678   8.913
 4361SOL    HW113541   2.768   1.660   8.818
 4361SOL    HW213542   2.822   1.772   8.923
 4362SOL     OW13543   2.335   0.500   7.639
 4362SOL    HW113544   2.396   0.580   7.643
 4362SOL    HW213545   2.240   0.531   7.646
 4363SOL     OW13546   2.021   1.137   8.914
 4363SOL    HW113547   2.043   1.076   8.990
 4363SOL    HW213548   2.031   1.088   8.828
 4364SOL     OW13549   3.209   1.059   8.682
 4364SOL    HW113550   3.233   0.996   8.608
 4364SOL    HW213551   3.119   1.099   8.664
 4365SOL     OW13552   3.164   0.855   7.757
 4365SOL    HW113553   3.078   0.824   7.799
 4365SOL    HW213554   3.160   0.841   7.658
 4366SOL     OW13555   3.621   1.747   8.602
 4366SOL    HW113556   3.682   1.777   8.529
 4366SOL    HW213557   3.583   1.658   8.580
 4367SOL     OW13558   3.114   1.731   8.576
 4367SOL    HW113559   3.198   1.736   8.522
 4367SOL    HW213560   3.091   1.635   8.594
 4368SOL     OW13561   1.945   1.258   8.470
 4368SOL    HW113562   1.940   1.257   8.570
 4368SOL    HW213563   1.862   1.217   8.432
 4369SOL     OW13564   2.550   1.662   9.164
 4369SOL    HW113565   2.494   1.743   9.173
 4369SOL    HW213566   2.602   1.666   9.078
 4370SOL     OW13567   3.588   0.135   7.971
 4370SOL    HW113568   3.661   0.118   7.904
 4370SOL    HW213569   3.557   0.048   8.009
 4371SOL     OW13570   3.250   1.573   7.925
 4371SOL    HW113571   3.317   1.585   7.851
 4371SOL    HW213572   3.210   1.662   7.948
 4372SOL     OW13573   1.992   1.794   9.299
 4372SOL    HW113574   1.951   1.720   9.352
 4372SOL    HW213575   2.056   1.845   9.357
 4373SOL     OW13576   3.142   0.927   8.120
 4373SOL    HW113577   3.202   0.846   8.122
 4373SOL    HW213578   3.182   0.996   8.060
 4374SOL     OW13579   2.692   1.273   8.870
 4374SOL    HW113580   2.687   1.306   8.965
 4374SOL    HW213581   2.606   1.292   8.824
 4375SOL     OW13582   3.512   1.720   8.842
 4375SOL    HW113583   3.565   1.730   8.758
 4375SOL    HW213584   3.485   1.810   8.876
 4376SOL     OW13585   3.703   0.175   8.411
 4376SOL    HW113586   3.742   0.090   8.375
 4376SOL    HW213587   3.605   0.177   8.392
 4377SOL     OW13588   2.125   0.326   8.168
 4377SOL    HW113589   2.046   0.377   8.134
 4377SOL    HW213590   2.116   0.311   8.266
 4378SOL     OW13591   3.056   1.612   7.479
 4378SOL    HW113592   3.062   1.519   7.516
 4378SOL    HW213593   2.997   1.612   7.399
 4379SOL     OW13594   2.684   1.002   8.820
 4379SOL    HW113595   2.724   1.001   8.728
 4379SOL    HW213596   2.694   1.094   8.860
 4380SOL     OW13597   2.778   0.910   7.739
 4380SOL    HW113598   2.841   0.948   7.671
 4380SOL    HW213599   2.818   0.827   7.778
 4381SOL     OW13600   3.366   1.607   7.492
 4381SOL    HW113601   3.274   1.644   7.499
 4381SOL    HW213602   3.404   1.627   7.402
 4382SOL     OW13603   2.234   1.288   8.938
 4382SOL    HW113604   2.221   1.381   8.904
 4382SOL    HW213605   2.150   1.236   8.925
 4383SOL     OW13606   3.476   1.292   8.737
 4383SOL    HW113607   3.536   1.295   8.817
 4383SOL    HW213608   3.401   1.356   8.750
 4384SOL     OW13609   2.901   1.098   8.144
 4384SOL    HW113610   2.831   1.051   8.198
 4384SOL    HW213611   2.960   1.030   8.101
 4385SOL     OW13612   2.876   0.236   8.419
 4385SOL    HW113613   2.868   0.200   8.326
 4385SOL    HW213614   2.874   0.160   8.484
 4386SOL     OW13615   2.452   1.487   7.939
 4386SOL    HW113616   2.494   1.429   7.869
 4386SOL    HW213617   2.408   1.566   7.895
 4387SOL     OW13618   3.571   0.385   8.829
 4387SOL    HW113619   3.644   0.454   8.833
 4387SOL    HW213620   3.599   0.310   8.770
 4388SOL     OW13621   2.117   1.348   7.738
 4388SOL    HW113622   2.021   1.349   7.711
 4388SOL    HW213623   2.129   1.401   7.822
 4389SOL     OW13624   1.967   1.013   9.174
 4389SOL    HW113625   1.890   0.980   9.228
 4389SOL    HW213626   2.052   0.983   9.216
 4390SOL     OW13627   2.534   0.203   8.937
 4390SOL    HW113628   2.624   0.187   8.897
 4390SOL    HW213629   2.542   0.208   9.036
 4391SOL     OW13630   1.937   0.345   7.481
 4391SOL    HW113631   1.845   0.317   7.452
 4391SOL    HW213632   1.968   0.422   7.425
 4392SOL     OW13633   3.302   0.856   8.846
 4392SOL    HW113634   3.245   0.908   8.783
 4392SOL    HW213635   3.398   0.868   8.822
 4393SOL     OW13636   1.934   0.166   7.766
 4393SOL    HW113637   1.917   0.249   7.712
 4393SOL    HW213638   2.024   0.129   7.744
 4394SOL     OW13639   3.045   1.335   7.567
 4394SOL    HW113640   2.946   1.324   7.569
 4394SOL    HW213641   3.079   1.350   7.660
 4395SOL     OW13642   2.475   0.842   8.879
 4395SOL    HW113643   2.531   0.923   8.862
 4395SOL    HW213644   2.534   0.762   8.882
 4396SOL     OW13645   3.355   1.767   8.407
 4396SOL    HW113646   3.388   1.831   8.338
 4396SOL    HW213647   3.421   1.761   8.482
 4397SOL     OW13648   2.578   0.565   9.156
 4397SOL    HW113649   2.597   0.630   9.230
 4397SOL    HW213650   2.638   0.485   9.165
 4398SOL     OW13651   3.312   1.220   9.081
 4398SOL    HW113652   3.303   1.210   9.180
 4398SOL    HW213653   3.408   1.213   9.055
 4399SOL     OW13654   2.252   1.741   9.008
 4399SOL    HW113655   2.161   1.782   9.006
 4399SOL    HW213656   2.245   1.647   9.040
 4400SOL     OW13657   3.536   0.883   8.702
 4400SOL    HW113658   3.509   0.794   8.665
 4400SOL    HW213659   3.537   0.951   8.629
 4401SOL     OW13660   3.087   0.325   7.897
 4401SOL    HW113661   3.152   0.251   7.886
 4401SOL    HW213662   3.107   0.375   7.981
 4402SOL     OW13663   2.456   0.745   8.100
 4402SOL    HW113664   2.506   0.830   8.081
 4402SOL    HW213665   2.368   0.747   8.052
 4403SOL     OW13666   3.639   0.342   9.090
 4403SOL    HW113667   3.622   0.373   8.996
 4403SOL    HW213668   3.555   0.305   9.128
 4404SOL     OW13669   3.592   0.934   8.965
 4404SOL    HW113670   3.630   1.025   8.980
 4404SOL    HW213671   3.584   0.917   8.866
 4405SOL     OW13672   2.721   1.374   7.464
 4405SOL    HW113673   2.675   1.389   7.552
 4405SOL    HW213674   2.765   1.459   7.434
 4406SOL     OW13675   2.523   1.790   8.401
 4406SOL    HW113676   2.477   1.878   8.388
 4406SOL    HW213677   2.622   1.802   8.394
 4407SOL     OW13678   2.721   0.956   8.309
 4407SOL    HW113679   2.775   0.887   8.357
 4407SOL    HW213680   2.689   1.025   8.375
 4408SOL     OW13681   2.945   0.984   7.535
 4408SOL    HW113682   2.922   1.037   7.453
 4408SOL    HW213683   3.026   0.928   7.516
 4409SOL     OW13684   3.723   1.569   8.299
 4409SOL    HW113685   3.652   1.557   8.229
 4409SOL    HW213686   3.724   1.490   8.359
 4410SOL     OW13687   2.083   1.314   9.292
 4410SOL    HW113688   2.018   1.241   9.271
 4410SOL    HW213689   2.087   1.328   9.390
 4411SOL     OW13690   1.941   1.240   8.101
 4411SOL    HW113691   1.940   1.193   8.189
 4411SOL    HW213692   2.023   1.212   8.050
 4412SOL     OW13693   2.534   1.391   9.072
 4412SOL    HW113694   2.456   1.341   9.110
 4412SOL    HW213695   2.531   1.486   9.103
 4413SOL     OW13696   3.686   0.192   8.675
 4413SOL    HW113697   3.682   0.102   8.719
 4413SOL    HW213698   3.689   0.181   8.576
 4414SOL     OW13699   2.290   0.424   7.968
 4414SOL    HW113700   2.320   0.352   7.906
 4414SOL    HW213701   2.251   0.384   8.051
 4415SOL     OW13702   3.567   1.487   8.552
 4415SOL    HW113703   3.474   1.462   8.525
 4415SOL    HW213704   3.593   1.437   8.634
 4416SOL     OW13705   2.179   0.547   8.728
 4416SOL    HW113706   2.217   0.488   8.800
 4416SOL    HW213707   2.219   0.521   8.640
 4417SOL     OW13708   2.674   1.586   8.135
 4417SOL    HW113709   2.706   1.596   8.041
 4417SOL    HW213710   2.595   1.524   8.137
 4418SOL     OW13711   3.286   0.214   8.560
 4418SOL    HW113712   3.338   0.149   8.615
 4418SOL    HW213713   3.237   0.277   8.621
 4419SOL     OW13714   2.863   0.034   8.602
 4419SOL    HW113715   2.800  -0.038   8.571
 4419SOL    HW213716   2.956  -0.002   8.602
 4420SOL     OW13717   2.632   1.330   7.749
 4420SOL    HW113718   2.586   1.243   7.766
 4420SOL    HW213719   2.723   1.327   7.790
 4421SOL     OW13720   2.480   1.567   8.732
 4421SOL    HW113721   2.475   1.649   8.789
 4421SOL    HW213722   2.569   1.564   8.687
 4422SOL     OW13723   3.214   0.052   7.616
 4422SOL    HW113724   3.249   0.011   7.532
 4422SOL    HW213725   3.124   0.014   7.636
 4423SOL     OW13726   3.162   0.453   8.139
 4423SOL    HW113727   3.103   0.533   8.143
 4423SOL    HW213728   3.177   0.418   8.232
 4424SOL     OW13729   3.455   0.221   8.330
 4424SOL    HW113730   3.371   0.220   8.384
 4424SOL    HW213731   3.457   0.304   8.274
 4425SOL     OW13732   1.901   1.077   7.748
 4425SOL    HW113733   2.000   1.066   7.739
 4425SOL    HW213734   1.861   0.991   7.780
 4426SOL     OW13735   2.737   1.646   7.785
 4426SOL    HW113736   2.660   1.611   7.731
 4426SOL    HW213737   2.705   1.717   7.847
 4427SOL     OW13738   2.092   0.628   9.423
 4427SOL    HW113739   1.999   0.626   9.460
 4427SOL    HW213740   2.093   0.589   9.331
 4428SOL     OW13741   2.087   0.275  10.306
 4428SOL    HW113742   2.122   0.258  10.398
 4428SOL    HW213743   1.999   0.230  10.294
 4429SOL     OW13744   1.881   0.368   9.957
 4429SOL    HW113745   1.799   0.411   9.996
 4429SOL    HW213746   1.853   0.295   9.894
 4430SOL     OW13747   2.431   1.275  10.475
 4430SOL    HW113748   2.338   1.268  10.438
 4430SOL    HW213749   2.442   1.364  10.519
 4431SOL     OW13750   3.417   1.511  10.013
 4431SOL    HW113751   3.360   1.495  10.094
 4431SOL    HW213752   3.358   1.521   9.933
 4432SOL     OW13753   2.997   0.703  10.027
 4432SOL    HW113754   3.054   0.781  10.002
 4432SOL    HW213755   2.937   0.729  10.103
 4433SOL     OW13756   3.617   0.607   9.541
 4433SOL    HW113757   3.605   0.594   9.442
 4433SOL    HW213758   3.587   0.526   9.590
 4434SOL     OW13759   2.630   1.144  10.333
 4434SOL    HW113760   2.552   1.161  10.393
 4434SOL    HW213761   2.664   1.231  10.297
 4435SOL     OW13762   2.712   0.798  11.133
 4435SOL    HW113763   2.708   0.874  11.198
 4435SOL    HW213764   2.734   0.834  11.042
 4436SOL     OW13765   2.547   1.012   9.975
 4436SOL    HW113766   2.616   0.996  10.045
 4436SOL    HW213767   2.474   1.069  10.013
 4437SOL     OW13768   2.548   1.161  11.113
 4437SOL    HW113769   2.608   1.240  11.127
 4437SOL    HW213770   2.462   1.192  11.072
 4438SOL     OW13771   2.197   1.435  10.371
 4438SOL    HW113772   2.119   1.404  10.318
 4438SOL    HW213773   2.255   1.493  10.314
 4439SOL     OW13774   3.322   1.505  10.649
 4439SOL    HW113775   3.346   1.599  10.675
 4439SOL    HW213776   3.306   1.451  10.731
 4440SOL     OW13777   2.300   0.392  10.809
 4440SOL    HW113778   2.382   0.336  10.818
 4440SOL    HW213779   2.219   0.334  10.813
 4441SOL     OW13780   3.465   0.447  10.047
 4441SOL    HW113781   3.391   0.493   9.997
 4441SOL    HW213782   3.516   0.515  10.100
 4442SOL     OW13783   2.093   1.713   9.793
 4442SOL    HW113784   2.127   1.790   9.847
 4442SOL    HW213785   2.137   1.713   9.703
 4443SOL     OW13786   2.989   1.341  11.000
 4443SOL    HW113787   3.036   1.341  11.088
 4443SOL    HW213788   2.941   1.254  10.989
 4444SOL     OW13789   2.092   1.434   9.848
 4444SOL    HW113790   2.066   1.530   9.848
 4444SOL    HW213791   2.021   1.380   9.893
 4445SOL     OW13792   2.102   1.091  10.196
 4445SOL    HW113793   2.116   1.007  10.248
 4445SOL    HW213794   2.047   1.155  10.251
 4446SOL     OW13795   2.482   1.786  10.749
 4446SOL    HW113796   2.390   1.769  10.784
 4446SOL    HW213797   2.510   1.878  10.775
 4447SOL     OW13798   2.468   0.964   9.433
 4447SOL    HW113799   2.475   1.048   9.379
 4447SOL    HW213800   2.514   0.977   9.521
 4448SOL     OW13801   3.456   0.114  10.790
 4448SOL    HW113802   3.438   0.181  10.718
 4448SOL    HW213803   3.453   0.160  10.879
 4449SOL     OW13804   1.984   0.643   9.873
 4449SOL    HW113805   1.939   0.555   9.890
 4449SOL    HW213806   1.983   0.697   9.957
 4450SOL     OW13807   3.704   1.767   9.669
 4450SOL    HW113808   3.758   1.738   9.749
 4450SOL    HW213809   3.734   1.857   9.640
 4451SOL     OW13810   1.889   1.596   9.427
 4451SOL    HW113811   1.870   1.500   9.448
 4451SOL    HW213812   1.856   1.654   9.502
 4452SOL     OW13813   3.551   0.922   9.922
 4452SOL    HW113814   3.646   0.893   9.930
 4452SOL    HW213815   3.543   0.987   9.847
 4453SOL     OW13816   3.503   1.108   9.742
 4453SOL    HW113817   3.589   1.110   9.690
 4453SOL    HW213818   3.517   1.155   9.830
 4454SOL     OW13819   1.975   0.737  10.907
 4454SOL    HW113820   2.063   0.724  10.952
 4454SOL    HW213821   1.962   0.834  10.885
 4455SOL     OW13822   2.475   1.365  10.036
 4455SOL    HW113823   2.426   1.278  10.045
 4455SOL    HW213824   2.452   1.408   9.949
 4456SOL     OW13825   3.155   1.228  10.733
 4456SOL    HW113826   3.192   1.155  10.675
 4456SOL    HW213827   3.207   1.233  10.818
 4457SOL     OW13828   2.671   0.004   9.812
 4457SOL    HW113829   2.711   0.095   9.803
 4457SOL    HW213830   2.571   0.012   9.818
 4458SOL     OW13831   2.059   0.976  10.574
 4458SOL    HW113832   2.148   0.931  10.560
 4458SOL    HW213833   1.986   0.911  10.555
 4459SOL     OW13834   3.387   0.999   9.500
 4459SOL    HW113835   3.324   0.923   9.513
 4459SOL    HW213836   3.435   1.017   9.586
 4460SOL     OW13837   3.049   1.792  10.926
 4460SOL    HW113838   3.073   1.852  10.850
 4460SOL    HW213839   3.056   1.697  10.896
 4461SOL     OW13840   2.179   0.251  11.111
 4461SOL    HW113841   2.250   0.322  11.117
 4461SOL    HW213842   2.091   0.290  11.139
 4462SOL     OW13843   3.328   1.417  10.263
 4462SOL    HW113844   3.269   1.423  10.343
 4462SOL    HW213845   3.313   1.329  10.217
 4463SOL     OW13846   3.529   1.714   9.882
 4463SOL    HW113847   3.488   1.691   9.794
 4463SOL    HW213848   3.511   1.640   9.947
 4464SOL     OW13849   2.460   0.729   9.580
 4464SOL    HW113850   2.484   0.798   9.512
 4464SOL    HW213851   2.382   0.762   9.634
 4465SOL     OW13852   3.143   0.345  10.254
 4465SOL    HW113853   3.057   0.295  10.241
 4465SOL    HW213854   3.205   0.291  10.310
 4466SOL     OW13855   3.438   1.662   9.617
 4466SOL    HW113856   3.527   1.708   9.620
 4466SOL    HW213857   3.417   1.638   9.522
 4467SOL     OW13858   2.669   0.605  10.775
 4467SOL    HW113859   2.622   0.602  10.864
 4467SOL    HW213860   2.618   0.550  10.709
 4468SOL     OW13861   3.256   0.469  10.984
 4468SOL    HW113862   3.236   0.512  11.072
 4468SOL    HW213863   3.334   0.407  10.993
 4469SOL     OW13864   2.835   0.890  10.882
 4469SOL    HW113865   2.881   0.806  10.853
 4469SOL    HW213866   2.779   0.924  10.807
 4470SOL     OW13867   2.853   0.410  10.552
 4470SOL    HW113868   2.776   0.444  10.606
 4470SOL    HW213869   2.819   0.359  10.473
 4471SOL     OW13870   2.903   0.701   9.739
 4471SOL    HW113871   2.929   0.697   9.835
 4471SOL    HW213872   2.818   0.650   9.725
 4472SOL     OW13873   1.938   0.811  10.099
 4472SOL    HW113874   2.037   0.799  10.108
 4472SOL    HW213875   1.914   0.906  10.120
 4473SOL     OW13876   2.727   0.348   9.505
 4473SOL    HW113877   2.786   0.411   9.456
 4473SOL    HW213878   2.746   0.254   9.476
 4474SOL     OW13879   3.581   0.585  11.141
 4474SOL    HW113880   3.555   0.674  11.105
 4474SOL    HW213881   3.579   0.517  11.068
 4475SOL     OW13882   3.224   1.144   9.855
 4475SOL    HW113883   3.307   1.115   9.807
 4475SOL    HW213884   3.175   1.211   9.799
 4476SOL     OW13885   2.412   0.196  10.195
 4476SOL    HW113886   2.407   0.191  10.295
 4476SOL    HW213887   2.414   0.292  10.166
 4477SOL     OW13888   2.870   1.456   9.787
 4477SOL    HW113889   2.824   1.528   9.735
 4477SOL    HW213890   2.866   1.476   9.885
 4478SOL     OW13891   2.213   1.801  10.163
 4478SOL    HW113892   2.263   1.715  10.169
 4478SOL    HW213893   2.278   1.878  10.160
 4479SOL     OW13894   3.657   1.066  10.183
 4479SOL    HW113895   3.595   1.051  10.107
 4479SOL    HW213896   3.605   1.077  10.268
 4480SOL     OW13897   3.089   1.550  10.816
 4480SOL    HW113898   3.095   1.473  10.880
 4480SOL    HW213899   3.037   1.524  10.736
 4481SOL     OW13900   2.183   0.943   9.552
 4481SOL    HW113901   2.265   0.982   9.510
 4481SOL    HW213902   2.156   0.861   9.503
 4482SOL     OW13903   3.320   0.735  10.038
 4482SOL    HW113904   3.315   0.670  10.113
 4482SOL    HW213905   3.400   0.794  10.051
 4483SOL     OW13906   2.323   1.266  11.037
 4483SOL    HW113907   2.273   1.267  10.951
 4483SOL    HW213908   2.260   1.248  11.113
 4484SOL     OW13909   2.973   1.776   9.547
 4484SOL    HW113910   2.913   1.714   9.597
 4484SOL    HW213911   3.004   1.732   9.462
 4485SOL     OW13912   2.064   0.285  10.808
 4485SOL    HW113913   1.984   0.345  10.795
 4485SOL    HW213914   2.054   0.236  10.894
 4486SOL     OW13915   3.494   1.377   9.391
 4486SOL    HW113916   3.462   1.471   9.381
 4486SOL    HW213917   3.418   1.314   9.379
 4487SOL     OW13918   2.326   1.743   9.633
 4487SOL    HW113919   2.359   1.782   9.719
 4487SOL    HW213920   2.402   1.736   9.568
 4488SOL     OW13921   3.262   0.107   9.736
 4488SOL    HW113922   3.238   0.070   9.646
 4488SOL    HW213923   3.361   0.123   9.740
 4489SOL     OW13924   2.111   1.785  10.551
 4489SOL    HW113925   2.168   1.720  10.601
 4489SOL    HW213926   2.095   1.752  10.458
 4490SOL     OW13927   2.802   1.698  10.214
 4490SOL    HW113928   2.882   1.641  10.235
 4490SOL    HW213929   2.753   1.658  10.137
 4491SOL     OW13930   2.244   0.700   9.790
 4491SOL    HW113931   2.289   0.610   9.787
 4491SOL    HW213932   2.150   0.689   9.823
 4492SOL     OW13933   3.409   0.222  11.039
 4492SOL    HW113934   3.404   0.259  11.131
 4492SOL    HW213935   3.337   0.153  11.027
 4493SOL     OW13936   2.476   0.122   9.427
 4493SOL    HW113937   2.574   0.100   9.434
 4493SOL    HW213938   2.445   0.105   9.334
 4494SOL     OW13939   2.643   0.264  11.059
 4494SOL    HW113940   2.710   0.203  11.102
 4494SOL    HW213941   2.570   0.283  11.124
 4495SOL     OW13942   2.750   1.514  10.505
 4495SOL    HW113943   2.727   1.489  10.411
 4495SOL    HW213944   2.811   1.445  10.544
 4496SOL     OW13945   3.213   0.590  10.743
 4496SOL    HW113946   3.241   0.547  10.828
 4496SOL    HW213947   3.238   0.686  10.744
 4497SOL     OW13948   2.665   1.402  10.234
 4497SOL    HW113949   2.755   1.416  10.192
 4497SOL    HW213950   2.594   1.404  10.163
 4498SOL     OW13951   2.784   0.503  10.209
 4498SOL    HW113952   2.759   0.494  10.113
 4498SOL    HW213953   2.832   0.421  10.240
 4499SOL     OW13954   2.401   0.064   9.822
 4499SOL    HW113955   2.320   0.065   9.880
 4499SOL    HW213956   2.404   0.147   9.767
 4500SOL     OW13957   3.296   1.188   9.351
 4500SOL    HW113958   3.328   1.112   9.408
 4500SOL    HW213959   3.204   1.215   9.381
 4501SOL     OW13960   2.159   0.035   9.481
 4501SOL    HW113961   2.208   0.119   9.460
 4501SOL    HW213962   2.221  -0.030   9.526
 4502SOL     OW13963   2.797   0.236   9.790
 4502SOL    HW113964   2.749   0.277   9.712
 4502SOL    HW213965   2.896   0.234   9.771
 4503SOL     OW13966   2.938   0.683  10.774
 4503SOL    HW113967   2.858   0.622  10.777
 4503SOL    HW213968   3.019   0.630  10.750
 4504SOL     OW13969   3.089   1.570  10.103
 4504SOL    HW113970   3.110   1.644  10.038
 4504SOL    HW213971   3.157   1.570  10.176
 4505SOL     OW13972   2.321   1.152  10.051
 4505SOL    HW113973   2.250   1.125  10.116
 4505SOL    HW213974   2.295   1.124   9.958
 4506SOL     OW13975   3.133   1.797   9.901
 4506SOL    HW113976   3.177   1.861   9.837
 4506SOL    HW213977   3.083   1.849   9.971
 4507SOL     OW13978   2.894   0.549   9.326
 4507SOL    HW113979   2.853   0.631   9.287
 4507SOL    HW213980   2.958   0.575   9.399
 4508SOL     OW13981   1.940   0.556  10.696
 4508SOL    HW113982   2.032   0.555  10.655
 4508SOL    HW213983   1.934   0.630  10.763
 4509SOL     OW13984   2.423   0.222  10.457
 4509SOL    HW113985   2.461   0.138  10.494
 4509SOL    HW213986   2.335   0.241  10.501
 4510SOL     OW13987   2.728   0.454   9.952
 4510SOL    HW113988   2.696   0.526   9.890
 4510SOL    HW213989   2.752   0.373   9.899
 4511SOL     OW13990   2.879   0.039  10.063
 4511SOL    HW113991   2.807   0.044   9.994
 4511SOL    HW213992   2.855  -0.030  10.132
 4512SOL     OW13993   3.291   1.173  10.177
 4512SOL    HW113994   3.236   1.089  10.170
 4512SOL    HW213995   3.317   1.202  10.085
 4513SOL     OW13996   3.328   0.590  10.302
 4513SOL    HW113997   3.298   0.495  10.309
 4513SOL    HW213998   3.401   0.606  10.368
 4514SOL     OW13999   3.719   0.833   9.687
 4514SOL    HW114000   3.761   0.769   9.751
 4514SOL    HW214001   3.681   0.782   9.609
 4515SOL     OW14002   2.350   1.385   9.484
 4515SOL    HW114003   2.263   1.370   9.531
 4515SOL    HW214004   2.333   1.411   9.389
 4516SOL     OW14005   3.526   1.280   9.967
 4516SOL    HW114006   3.625   1.288   9.981
 4516SOL    HW214007   3.481   1.364   9.998
 4517SOL     OW14008   3.252   0.575   9.388
 4517SOL    HW114009   3.198   0.554   9.469
 4517SOL    HW214010   3.343   0.534   9.397
 4518SOL     OW14011   2.389   0.256   9.638
 4518SOL    HW114012   2.416   0.197   9.563
 4518SOL    HW214013   2.389   0.351   9.607
 4519SOL     OW14014   3.616   1.223  10.898
 4519SOL    HW114015   3.707   1.184  10.885
 4519SOL    HW214016   3.624   1.319  10.922
 4520SOL     OW14017   2.926   1.347  10.650
 4520SOL    HW114018   2.846   1.324  10.705
 4520SOL    HW214019   3.009   1.321  10.699
 4521SOL     OW14020   3.454   1.629  10.935
 4521SOL    HW114021   3.481   1.663  10.845
 4521SOL    HW214022   3.533   1.591  10.981
 4522SOL     OW14023   2.973   1.195  10.410
 4522SOL    HW114024   2.933   1.239  10.491
 4522SOL    HW214025   2.932   1.232  10.327
 4523SOL     OW14026   3.500   1.099  10.389
 4523SOL    HW114027   3.505   1.180  10.448
 4523SOL    HW214028   3.414   1.101  10.338
 4524SOL     OW14029   2.777   0.089  10.712
 4524SOL    HW114030   2.802   0.069  10.617
 4524SOL    HW214031   2.849   0.145  10.754
 4525SOL     OW14032   2.842   1.116  11.029
 4525SOL    HW114033   2.743   1.122  11.039
 4525SOL    HW214034   2.865   1.036  10.973
 4526SOL     OW14035   2.567   1.050   9.678
 4526SOL    HW114036   2.553   1.057   9.777
 4526SOL    HW214037   2.651   0.999   9.660
 4527SOL     OW14038   2.272   0.813  10.561
 4527SOL    HW114039   2.358   0.825  10.611
 4527SOL    HW214040   2.230   0.726  10.588
 4528SOL     OW14041   3.136   0.386  10.572
 4528SOL    HW114042   3.157   0.460  10.636
 4528SOL    HW214043   3.047   0.403  10.529
 4529SOL     OW14044   1.926   1.564  10.641
 4529SOL    HW114045   1.880   1.646  10.607
 4529SOL    HW214046   2.024   1.583  10.650
 4530SOL     OW14047   2.229   1.100   9.811
 4530SOL    HW114048   2.222   1.183   9.755
 4530SOL    HW214049   2.233   1.020   9.751
 4531SOL     OW14050   2.428   0.537  10.175
 4531SOL    HW114051   2.440   0.603  10.101
 4531SOL    HW214052   2.474   0.571  10.258
 4532SOL     OW14053   3.114   1.348   9.698
 4532SOL    HW114054   3.164   1.425   9.738
 4532SOL    HW214055   3.019   1.350   9.730
 4533SOL     OW14056   3.134   1.445  10.452
 4533SOL    HW114057   3.181   1.458  10.539
 4533SOL    HW214058   3.068   1.371  10.461
 4534SOL     OW14059   3.444   0.639   9.782
 4534SOL    HW114060   3.413   0.700   9.855
 4534SOL    HW214061   3.494   0.691   9.713
 4535SOL     OW14062   2.216   1.510  10.639
 4535SOL    HW114063   2.195   1.466  10.552
 4535SOL    HW214064   2.313   1.536  10.642
 4536SOL     OW14065   2.264   0.751  10.908
 4536SOL    HW114066   2.332   0.806  10.861
 4536SOL    HW214067   2.304   0.663  10.935
 4537SOL     OW14068   3.449   0.779  10.980
 4537SOL    HW114069   3.357   0.817  10.975
 4537SOL    HW214070   3.509   0.826  10.915
 4538SOL     OW14071   2.875   0.105  11.080
 4538SOL    HW114072   2.881   0.190  11.028
 4538SOL    HW214073   2.907   0.029  11.023
 4539SOL     OW14074   2.366   0.050  11.050
 4539SOL    HW114075   2.324  -0.007  10.980
 4539SOL    HW214076   2.300   0.119  11.082
 4540SOL     OW14077   2.435   0.870  10.339
 4540SOL    HW114078   2.479   0.959  10.330
 4540SOL    HW214079   2.372   0.870  10.416
 4541SOL     OW14080   3.222   0.862  10.355
 4541SOL    HW114081   3.147   0.862  10.289
 4541SOL    HW214082   3.259   0.770  10.364
 4542SOL     OW14083   3.071   0.525   9.585
 4542SOL    HW114084   3.084   0.441   9.639
 4542SOL    HW214085   3.042   0.599   9.645
 4543SOL     OW14086   2.169   0.213  10.541
 4543SOL    HW114087   2.146   0.250  10.631
 4543SOL    HW214088   2.139   0.118  10.535
 4544SOL     OW14089   1.899   1.310  10.592
 4544SOL    HW114090   1.952   1.261  10.660
 4544SOL    HW214091   1.921   1.408  10.597
 4545SOL     OW14092   2.594   0.634  10.374
 4545SOL    HW114093   2.653   0.608  10.298
 4545SOL    HW214094   2.566   0.730  10.363
 4546SOL     OW14095   3.590   0.935  11.164
 4546SOL    HW114096   3.544   0.928  11.075
 4546SOL    HW214097   3.528   0.979  11.230
 4547SOL     OW14098   2.169   0.063   9.928
 4547SOL    HW114099   2.158   0.157   9.961
 4547SOL    HW214100   2.164   0.000  10.005
 4548SOL     OW14101   3.484   0.367   9.684
 4548SOL    HW114102   3.486   0.291   9.748
 4548SOL    HW214103   3.436   0.444   9.724
 4549SOL     OW14104   2.885   0.766  10.276
 4549SOL    HW114105   2.900   0.787  10.372
 4549SOL    HW214106   2.855   0.671  10.267
 4550SOL     OW14107   2.842   1.573  11.010
 4550SOL    HW114108   2.822   1.617  10.922
 4550SOL    HW214109   2.881   1.482  10.994
 4551SOL     OW14110   3.721   1.518  10.915
 4551SOL    HW114111   3.735   1.545  10.820
 4551SOL    HW214112   3.804   1.540  10.968
 4552SOL     OW14113   2.212   0.898  11.114
 4552SOL    HW114114   2.288   0.942  11.162
 4552SOL    HW214115   2.247   0.851  11.032
 4553SOL     OW14116   3.402   0.274   9.435
 4553SOL    HW114117   3.341   0.199   9.458
 4553SOL    HW214118   3.424   0.326   9.518
 4554SOL     OW14119   3.165   0.838   9.352
 4554SOL    HW114120   3.199   0.745   9.367
 4554SOL    HW214121   3.183   0.865   9.257
 4555SOL     OW14122   2.930   1.333  10.159
 4555SOL    HW114123   2.937   1.249  10.104
 4555SOL    HW214124   2.992   1.402  10.123
 4556SOL     OW14125   2.181   0.810  10.259
 4556SOL    HW114126   2.274   0.846  10.264
 4556SOL    HW214127   2.175   0.725  10.311
 4557SOL     OW14128   2.201   0.509  10.316
 4557SOL    HW114129   2.149   0.426  10.299
 4557SOL    HW214130   2.278   0.514  10.252
 4558SOL     OW14131   3.000   0.380  10.988
 4558SOL    HW114132   2.955   0.443  11.052
 4558SOL    HW214133   3.093   0.411  10.971
 4559SOL     OW14134   3.022   0.207  10.787
 4559SOL    HW114135   3.022   0.271  10.864
 4559SOL    HW214136   3.050   0.255  10.704
 4560SOL     OW14137   1.870   1.326   9.510
 4560SOL    HW114138   1.777   1.347   9.479
 4560SOL    HW214139   1.880   1.227   9.523
 4561SOL     OW14140   1.950   1.801  10.237
 4561SOL    HW114141   1.908   1.715  10.210
 4561SOL    HW214142   2.044   1.804  10.203
 4562SOL     OW14143   2.366   1.568  10.220
 4562SOL    HW114144   2.432   1.642  10.229
 4562SOL    HW214145   2.410   1.489  10.178
 4563SOL     OW14146   2.864   0.796  10.548
 4563SOL    HW114147   2.905   0.764  10.634
 4563SOL    HW214148   2.768   0.769  10.545
 4564SOL     OW14149   1.902   0.544  10.424
 4564SOL    HW114150   1.987   0.511  10.383
 4564SOL    HW214151   1.915   0.559  10.522
 4565SOL     OW14152   2.051   0.520  11.032
 4565SOL    HW114153   2.110   0.480  10.962
 4565SOL    HW214154   1.993   0.591  10.991
 4566SOL     OW14155   3.231   0.950  10.970
 4566SOL    HW114156   3.270   1.039  10.990
 4566SOL    HW214157   3.241   0.930  10.873
 4567SOL     OW14158   2.677   0.572   9.635
 4567SOL    HW114159   2.684   0.483   9.589
 4567SOL    HW214160   2.583   0.606   9.627
 4568SOL     OW14161   3.519   0.604  10.516
 4568SOL    HW114162   3.481   0.535  10.578
 4568SOL    HW214163   3.601   0.568  10.472
 4569SOL     OW14164   2.114   1.564  11.054
 4569SOL    HW114165   2.084   1.621  11.130
 4569SOL    HW214166   2.107   1.467  11.080
 4570SOL     OW14167   2.533   0.464  10.579
 4570SOL    HW114168   2.499   0.375  10.549
 4570SOL    HW214169   2.559   0.518  10.499
 4571SOL     OW14170   2.792   1.678  10.775
 4571SOL    HW114171   2.768   1.660  10.680
 4571SOL    HW214172   2.822   1.772  10.785
 4572SOL     OW14173   2.335   0.500   9.501
 4572SOL    HW114174   2.396   0.580   9.505
 4572SOL    HW214175   2.240   0.531   9.508
 4573SOL     OW14176   2.021   1.137  10.776
 4573SOL    HW114177   2.043   1.076  10.852
 4573SOL    HW214178   2.031   1.088  10.690
 4574SOL     OW14179   3.209   1.059  10.544
 4574SOL    HW114180   3.233   0.996  10.470
 4574SOL    HW214181   3.119   1.099  10.526
 4575SOL     OW14182   3.164   0.855   9.619
 4575SOL    HW114183   3.078   0.824   9.661
 4575SOL    HW214184   3.160   0.841   9.520
 4576SOL     OW14185   3.621   1.747  10.464
 4576SOL    HW114186   3.682   1.777  10.391
 4576SOL    HW214187   3.583   1.658  10.442
 4577SOL     OW14188   3.114   1.731  10.438
 4577SOL    HW114189   3.198   1.736  10.384
 4577SOL    HW214190   3.091   1.635  10.456
 4578SOL     OW14191   1.945   1.258  10.332
 4578SOL    HW114192   1.940   1.257  10.432
 4578SOL    HW214193   1.862   1.217  10.294
 4579SOL     OW14194   2.550   1.662  11.026
 4579SOL    HW114195   2.494   1.743  11.035
 4579SOL    HW214196   2.602   1.666  10.940
 4580SOL     OW14197   3.588   0.135   9.833
 4580SOL    HW114198   3.661   0.118   9.766
 4580SOL    HW214199   3.557   0.048   9.871
 4581SOL     OW14200   3.250   1.573   9.787
 4581SOL    HW114201   3.317   1.585   9.713
 4581SOL    HW214202   3.210   1.662   9.810
 4582SOL     OW14203   1.992   1.794  11.161
 4582SOL    HW114204   1.951   1.720  11.214
 4582SOL    HW214205   2.056   1.845  11.219
 4583SOL     OW14206   3.142   0.927   9.982
 4583SOL    HW114207   3.202   0.846   9.984
 4583SOL    HW214208   3.182   0.996   9.922
 4584SOL     OW14209   2.692   1.273  10.732
 4584SOL    HW114210   2.687   1.306  10.827
 4584SOL    HW214211   2.606   1.292  10.686
 4585SOL     OW14212   2.534   1.616   9.464
 4585SOL    HW114213   2.543   1.626   9.365
 4585SOL    HW214214   2.494   1.527   9.485
 4586SOL     OW14215   3.512   1.720  10.704
 4586SOL    HW114216   3.565   1.730  10.620
 4586SOL    HW214217   3.485   1.810  10.738
 4587SOL     OW14218   3.703   0.175  10.273
 4587SOL    HW114219   3.742   0.090  10.237
 4587SOL    HW214220   3.605   0.177  10.254
 4588SOL     OW14221   2.125   0.326  10.030
 4588SOL    HW114222   2.046   0.377   9.996
 4588SOL    HW214223   2.116   0.311  10.128
 4589SOL     OW14224   3.056   1.612   9.341
 4589SOL    HW114225   3.062   1.519   9.378
 4589SOL    HW214226   2.997   1.612   9.261
 4590SOL     OW14227   2.684   1.002  10.682
 4590SOL    HW114228   2.724   1.001  10.590
 4590SOL    HW214229   2.694   1.094  10.722
 4591SOL     OW14230   2.778   0.910   9.601
 4591SOL    HW114231   2.841   0.948   9.533
 4591SOL    HW214232   2.818   0.827   9.640
 4592SOL     OW14233   3.366   1.607   9.354
 4592SOL    HW114234   3.274   1.644   9.361
 4592SOL    HW214235   3.404   1.627   9.264
 4593SOL     OW14236   2.234   1.288  10.800
 4593SOL    HW114237   2.221   1.381  10.766
 4593SOL    HW214238   2.150   1.236  10.787
 4594SOL     OW14239   3.476   1.292  10.599
 4594SOL    HW114240   3.536   1.295  10.679
 4594SOL    HW214241   3.401   1.356  10.612
 4595SOL     OW14242   2.901   1.098  10.006
 4595SOL    HW114243   2.831   1.051  10.060
 4595SOL    HW214244   2.960   1.030   9.963
 4596SOL     OW14245   2.876   0.236  10.281
 4596SOL    HW114246   2.868   0.200  10.188
 4596SOL    HW214247   2.874   0.160  10.346
 4597SOL     OW14248   2.452   1.487   9.801
 4597SOL    HW114249   2.494   1.429   9.731
 4597SOL    HW214250   2.408   1.566   9.757
 4598SOL     OW14251   3.571   0.385  10.691
 4598SOL    HW114252   3.644   0.454  10.695
 4598SOL    HW214253   3.599   0.310  10.632
 4599SOL     OW14254   2.117   1.348   9.600
 4599SOL    HW114255   2.021   1.349   9.573
 4599SOL    HW214256   2.129   1.401   9.684
 4600SOL     OW14257   1.967   1.013  11.036
 4600SOL    HW114258   1.890   0.980  11.090
 4600SOL    HW214259   2.052   0.983  11.078
 4601SOL     OW14260   2.534   0.203  10.799
 4601SOL    HW114261   2.624   0.187  10.759
 4601SOL    HW214262   2.542   0.208  10.898
 4602SOL     OW14263   1.937   0.345   9.343
 4602SOL    HW114264   1.845   0.317   9.314
 4602SOL    HW214265   1.968   0.422   9.287
 4603SOL     OW14266   3.302   0.856  10.708
 4603SOL    HW114267   3.245   0.908  10.645
 4603SOL    HW214268   3.398   0.868  10.684
 4604SOL     OW14269   1.934   0.166   9.628
 4604SOL    HW114270   1.917   0.249   9.574
 4604SOL    HW214271   2.024   0.129   9.606
 4605SOL     OW14272   3.045   1.335   9.429
 4605SOL    HW114273   2.946   1.324   9.431
 4605SOL    HW214274   3.079   1.350   9.522
 4606SOL     OW14275   2.475   0.842  10.741
 4606SOL    HW114276   2.531   0.923  10.724
 4606SOL    HW214277   2.534   0.762  10.744
 4607SOL     OW14278   3.355   1.767  10.269
 4607SOL    HW114279   3.388   1.831  10.200
 4607SOL    HW214280   3.421   1.761  10.344
 4608SOL     OW14281   2.578   0.565  11.018
 4608SOL    HW114282   2.597   0.630  11.092
 4608SOL    HW214283   2.638   0.485  11.027
 4609SOL     OW14284   3.312   1.220  10.943
 4609SOL    HW114285   3.303   1.210  11.042
 4609SOL    HW214286   3.408   1.213  10.917
 4610SOL     OW14287   2.252   1.741  10.870
 4610SOL    HW114288   2.161   1.782  10.868
 4610SOL    HW214289   2.245   1.647  10.902
 4611SOL     OW14290   3.536   0.883  10.564
 4611SOL    HW114291   3.509   0.794  10.527
 4611SOL    HW214292   3.537   0.951  10.491
 4612SOL     OW14293   3.087   0.325   9.759
 4612SOL    HW114294   3.152   0.251   9.748
 4612SOL    HW214295   3.107   0.375   9.843
 4613SOL     OW14296   2.456   0.745   9.962
 4613SOL    HW114297   2.506   0.830   9.943
 4613SOL    HW214298   2.368   0.747   9.914
 4614SOL     OW14299   3.639   0.342  10.952
 4614SOL    HW114300   3.622   0.373  10.858
 4614SOL    HW214301   3.555   0.305  10.990
 4615SOL     OW14302   3.592   0.934  10.827
 4615SOL    HW114303   3.630   1.025  10.842
 4615SOL    HW214304   3.584   0.917  10.728
 4616SOL     OW14305   2.721   1.374   9.326
 4616SOL    HW114306   2.675   1.389   9.414
 4616SOL    HW214307   2.765   1.459   9.296
 4617SOL     OW14308   2.523   1.790  10.263
 4617SOL    HW114309   2.477   1.878  10.250
 4617SOL    HW214310   2.622   1.802  10.256
 4618SOL     OW14311   2.721   0.956  10.171
 4618SOL    HW114312   2.775   0.887  10.219
 4618SOL    HW214313   2.689   1.025  10.237
 4619SOL     OW14314   2.945   0.984   9.397
 4619SOL    HW114315   2.922   1.037   9.315
 4619SOL    HW214316   3.026   0.928   9.378
 4620SOL     OW14317   3.723   1.569  10.161
 4620SOL    HW114318   3.652   1.557  10.091
 4620SOL    HW214319   3.724   1.490  10.221
 4621SOL     OW14320   2.083   1.314  11.154
 4621SOL    HW114321   2.018   1.241  11.133
 4621SOL    HW214322   2.087   1.328  11.252
 4622SOL     OW14323   1.941   1.240   9.963
 4622SOL    HW114324   1.940   1.193  10.051
 4622SOL    HW214325   2.023   1.212   9.912
 4623SOL     OW14326   2.534   1.391  10.934
 4623SOL    HW114327   2.456   1.341  10.972
 4623SOL    HW214328   2.531   1.486  10.965
 4624SOL     OW14329   3.686   0.192  10.537
 4624SOL    HW114330   3.682   0.102  10.581
 4624SOL    HW214331   3.689   0.181  10.438
 4625SOL     OW14332   2.290   0.424   9.830
 4625SOL    HW114333   2.320   0.352   9.768
 4625SOL    HW214334   2.251   0.384   9.913
 4626SOL     OW14335   3.567   1.487  10.414
 4626SOL    HW114336   3.474   1.462  10.387
 4626SOL    HW214337   3.593   1.437  10.496
 4627SOL     OW14338   2.179   0.547  10.590
 4627SOL    HW114339   2.217   0.488  10.662
 4627SOL    HW214340   2.219   0.521  10.502
 4628SOL     OW14341   2.674   1.586   9.997
 4628SOL    HW114342   2.706   1.596   9.903
 4628SOL    HW214343   2.595   1.524   9.999
 4629SOL     OW14344   3.286   0.214  10.422
 4629SOL    HW114345   3.338   0.149  10.477
 4629SOL    HW214346   3.237   0.277  10.483
 4630SOL     OW14347   2.863   0.034  10.464
 4630SOL    HW114348   2.800  -0.038  10.433
 4630SOL    HW214349   2.956  -0.002  10.464
 4631SOL     OW14350   2.632   1.330   9.611
 4631SOL    HW114351   2.586   1.243   9.628
 4631SOL    HW214352   2.723   1.327   9.652
 4632SOL     OW14353   2.480   1.567  10.594
 4632SOL    HW114354   2.475   1.649  10.651
 4632SOL    HW214355   2.569   1.564  10.549
 4633SOL     OW14356   3.214   0.052   9.478
 4633SOL    HW114357   3.249   0.011   9.394
 4633SOL    HW214358   3.124   0.014   9.498
 4634SOL     OW14359   3.162   0.453  10.001
 4634SOL    HW114360   3.103   0.533  10.005
 4634SOL    HW214361   3.177   0.418  10.094
 4635SOL     OW14362   3.455   0.221  10.192
 4635SOL    HW114363   3.371   0.220  10.246
 4635SOL    HW214364   3.457   0.304  10.136
 4636SOL     OW14365   1.901   1.077   9.610
 4636SOL    HW114366   2.000   1.066   9.601
 4636SOL    HW214367   1.861   0.991   9.642
 4637SOL     OW14368   2.737   1.646   9.647
 4637SOL    HW114369   2.660   1.611   9.593
 4637SOL    HW214370   2.705   1.717   9.709
 4638SOL     OW14371   2.092   0.628  11.285
 4638SOL    HW114372   1.999   0.626  11.322
 4638SOL    HW214373   2.093   0.589  11.193
 4639SOL     OW14374   2.087   0.275  12.168
 4639SOL    HW114375   2.122   0.258  12.260
 4639SOL    HW214376   1.999   0.230  12.156
 4640SOL     OW14377   1.881   0.368  11.819
 4640SOL    HW114378   1.799   0.411  11.858
 4640SOL    HW214379   1.853   0.295  11.756
 4641SOL     OW14380   2.431   1.275  12.337
 4641SOL    HW114381   2.338   1.268  12.300
 4641SOL    HW214382   2.442   1.364  12.381
 4642SOL     OW14383   3.417   1.511  11.875
 4642SOL    HW114384   3.360   1.495  11.956
 4642SOL    HW214385   3.358   1.521  11.795
 4643SOL     OW14386   2.997   0.703  11.889
 4643SOL    HW114387   3.054   0.781  11.864
 4643SOL    HW214388   2.937   0.729  11.965
 4644SOL     OW14389   3.617   0.607  11.403
 4644SOL    HW114390   3.605   0.594  11.304
 4644SOL    HW214391   3.587   0.526  11.452
 4645SOL     OW14392   2.630   1.144  12.195
 4645SOL    HW114393   2.552   1.161  12.255
 4645SOL    HW214394   2.664   1.231  12.159
 4646SOL     OW14395   2.712   0.798  12.995
 4646SOL    HW114396   2.708   0.874  13.060
 4646SOL    HW214397   2.734   0.834  12.904
 4647SOL     OW14398   2.547   1.012  11.837
 4647SOL    HW114399   2.616   0.996  11.907
 4647SOL    HW214400   2.474   1.069  11.875
 4648SOL     OW14401   2.548   1.161  12.975
 4648SOL    HW114402   2.608   1.240  12.989
 4648SOL    HW214403   2.462   1.192  12.934
 4649SOL     OW14404   2.197   1.435  12.233
 4649SOL    HW114405   2.119   1.404  12.180
 4649SOL    HW214406   2.255   1.493  12.176
 4650SOL     OW14407   3.322   1.505  12.511
 4650SOL    HW114408   3.346   1.599  12.537
 4650SOL    HW214409   3.306   1.451  12.593
 4651SOL     OW14410   2.300   0.392  12.671
 4651SOL    HW114411   2.382   0.336  12.680
 4651SOL    HW214412   2.219   0.334  12.675
 4652SOL     OW14413   3.465   0.447  11.909
 4652SOL    HW114414   3.391   0.493  11.859
 4652SOL    HW214415   3.516   0.515  11.962
 4653SOL     OW14416   2.093   1.713  11.655
 4653SOL    HW114417   2.127   1.790  11.709
 4653SOL    HW214418   2.137   1.713  11.565
 4654SOL     OW14419   2.989   1.341  12.862
 4654SOL    HW114420   3.036   1.341  12.950
 4654SOL    HW214421   2.941   1.254  12.851
 4655SOL     OW14422   2.092   1.434  11.710
 4655SOL    HW114423   2.066   1.530  11.710
 4655SOL    HW214424   2.021   1.380  11.755
 4656SOL     OW14425   2.102   1.091  12.058
 4656SOL    HW114426   2.116   1.007  12.110
 4656SOL    HW214427   2.047   1.155  12.113
 4657SOL     OW14428   2.482   1.786  12.611
 4657SOL    HW114429   2.390   1.769  12.646
 4657SOL    HW214430   2.510   1.878  12.637
 4658SOL     OW14431   2.468   0.964  11.295
 4658SOL    HW114432   2.475   1.048  11.241
 4658SOL    HW214433   2.514   0.977  11.383
 4659SOL     OW14434   3.456   0.114  12.652
 4659SOL    HW114435   3.438   0.181  12.580
 4659SOL    HW214436   3.453   0.160  12.741
 4660SOL     OW14437   1.984   0.643  11.735
 4660SOL    HW114438   1.939   0.555  11.752
 4660SOL    HW214439   1.983   0.697  11.819
 4661SOL     OW14440   3.704   1.767  11.531
 4661SOL    HW114441   3.758   1.738  11.611
 4661SOL    HW214442   3.734   1.857  11.502
 4662SOL     OW14443   1.889   1.596  11.289
 4662SOL    HW114444   1.870   1.500  11.310
 4662SOL    HW214445   1.856   1.654  11.364
 4663SOL     OW14446   3.551   0.922  11.784
 4663SOL    HW114447   3.646   0.893  11.792
 4663SOL    HW214448   3.543   0.987  11.709
 4664SOL     OW14449   3.503   1.108  11.604
 4664SOL    HW114450   3.589   1.110  11.552
 4664SOL    HW214451   3.517   1.155  11.692
 4665SOL     OW14452   1.975   0.737  12.769
 4665SOL    HW114453   2.063   0.724  12.814
 4665SOL    HW214454   1.962   0.834  12.747
 4666SOL     OW14455   2.475   1.365  11.898
 4666SOL    HW114456   2.426   1.278  11.907
 4666SOL    HW214457   2.452   1.408  11.811
 4667SOL     OW14458   3.155   1.228  12.595
 4667SOL    HW114459   3.192   1.155  12.537
 4667SOL    HW214460   3.207   1.233  12.680
 4668SOL     OW14461   2.671   0.004  11.674
 4668SOL    HW114462   2.711   0.095  11.665
 4668SOL    HW214463   2.571   0.012  11.680
 4669SOL     OW14464   2.059   0.976  12.436
 4669SOL    HW114465   2.148   0.931  12.422
 4669SOL    HW214466   1.986   0.911  12.417
 4670SOL     OW14467   3.387   0.999  11.362
 4670SOL    HW114468   3.324   0.923  11.375
 4670SOL    HW214469   3.435   1.017  11.448
 4671SOL     OW14470   3.049   1.792  12.788
 4671SOL    HW114471   3.073   1.852  12.712
 4671SOL    HW214472   3.056   1.697  12.758
 4672SOL     OW14473   2.179   0.251  12.973
 4672SOL    HW114474   2.250   0.322  12.979
 4672SOL    HW214475   2.091   0.290  13.001
 4673SOL     OW14476   3.328   1.417  12.125
 4673SOL    HW114477   3.269   1.423  12.205
 4673SOL    HW214478   3.313   1.329  12.079
 4674SOL     OW14479   3.529   1.714  11.744
 4674SOL    HW114480   3.488   1.691  11.656
 4674SOL    HW214481   3.511   1.640  11.809
 4675SOL     OW14482   2.460   0.729  11.442
 4675SOL    HW114483   2.484   0.798  11.374
 4675SOL    HW214484   2.382   0.762  11.496
 4676SOL     OW14485   3.143   0.345  12.116
 4676SOL    HW114486   3.057   0.295  12.103
 4676SOL    HW214487   3.205   0.291  12.172
 4677SOL     OW14488   3.438   1.662  11.479
 4677SOL    HW114489   3.527   1.708  11.482
 4677SOL    HW214490   3.417   1.638  11.384
 4678SOL     OW14491   2.669   0.605  12.637
 4678SOL    HW114492   2.622   0.602  12.726
 4678SOL    HW214493   2.618   0.550  12.571
 4679SOL     OW14494   3.256   0.469  12.846
 4679SOL    HW114495   3.236   0.512  12.934
 4679SOL    HW214496   3.334   0.407  12.855
 4680SOL     OW14497   2.835   0.890  12.744
 4680SOL    HW114498   2.881   0.806  12.715
 4680SOL    HW214499   2.779   0.924  12.669
 4681SOL     OW14500   2.853   0.410  12.414
 4681SOL    HW114501   2.776   0.444  12.468
 4681SOL    HW214502   2.819   0.359  12.335
 4682SOL     OW14503   2.903   0.701  11.601
 4682SOL    HW114504   2.929   0.697  11.697
 4682SOL    HW214505   2.818   0.650  11.587
 4683SOL     OW14506   1.938   0.811  11.961
 4683SOL    HW114507   2.037   0.799  11.970
 4683SOL    HW214508   1.914   0.906  11.982
 4684SOL     OW14509   2.727   0.348  11.367
 4684SOL    HW114510   2.786   0.411  11.318
 4684SOL    HW214511   2.746   0.254  11.338
 4685SOL     OW14512   3.581   0.585  13.003
 4685SOL    HW114513   3.555   0.674  12.967
 4685SOL    HW214514   3.579   0.517  12.930
 4686SOL     OW14515   3.224   1.144  11.717
 4686SOL    HW114516   3.307   1.115  11.669
 4686SOL    HW214517   3.175   1.211  11.661
 4687SOL     OW14518   2.412   0.196  12.057
 4687SOL    HW114519   2.407   0.191  12.157
 4687SOL    HW214520   2.414   0.292  12.028
 4688SOL     OW14521   2.870   1.456  11.649
 4688SOL    HW114522   2.824   1.528  11.597
 4688SOL    HW214523   2.866   1.476  11.747
 4689SOL     OW14524   2.213   1.801  12.025
 4689SOL    HW114525   2.263   1.715  12.031
 4689SOL    HW214526   2.278   1.878  12.022
 4690SOL     OW14527   3.657   1.066  12.045
 4690SOL    HW114528   3.595   1.051  11.969
 4690SOL    HW214529   3.605   1.077  12.130
 4691SOL     OW14530   3.089   1.550  12.678
 4691SOL    HW114531   3.095   1.473  12.742
 4691SOL    HW214532   3.037   1.524  12.598
 4692SOL     OW14533   2.183   0.943  11.414
 4692SOL    HW114534   2.265   0.982  11.372
 4692SOL    HW214535   2.156   0.861  11.365
 4693SOL     OW14536   3.320   0.735  11.900
 4693SOL    HW114537   3.315   0.670  11.975
 4693SOL    HW214538   3.400   0.794  11.913
 4694SOL     OW14539   2.323   1.266  12.899
 4694SOL    HW114540   2.273   1.267  12.813
 4694SOL    HW214541   2.260   1.248  12.975
 4695SOL     OW14542   2.973   1.776  11.409
 4695SOL    HW114543   2.913   1.714  11.459
 4695SOL    HW214544   3.004   1.732  11.324
 4696SOL     OW14545   2.064   0.285  12.670
 4696SOL    HW114546   1.984   0.345  12.657
 4696SOL    HW214547   2.054   0.236  12.756
 4697SOL     OW14548   3.494   1.377  11.253
 4697SOL    HW114549   3.462   1.471  11.243
 4697SOL    HW214550   3.418   1.314  11.241
 4698SOL     OW14551   2.326   1.743  11.495
 4698SOL    HW114552   2.359   1.782  11.581
 4698SOL    HW214553   2.402   1.736  11.430
 4699SOL     OW14554   3.262   0.107  11.598
 4699SOL    HW114555   3.238   0.070  11.508
 4699SOL    HW214556   3.361   0.123  11.602
 4700SOL     OW14557   2.111   1.785  12.413
 4700SOL    HW114558   2.168   1.720  12.463
 4700SOL    HW214559   2.095   1.752  12.320
 4701SOL     OW14560   2.802   1.698  12.076
 4701SOL    HW114561   2.882   1.641  12.097
 4701SOL    HW214562   2.753   1.658  11.999
 4702SOL     OW14563   2.244   0.700  11.652
 4702SOL    HW114564   2.289   0.610  11.649
 4702SOL    HW214565   2.150   0.689  11.685
 4703SOL     OW14566   3.409   0.222  12.901
 4703SOL    HW114567   3.404   0.259  12.993
 4703SOL    HW214568   3.337   0.153  12.889
 4704SOL     OW14569   2.476   0.122  11.289
 4704SOL    HW114570   2.574   0.100  11.296
 4704SOL    HW214571   2.445   0.105  11.196
 4705SOL     OW14572   2.643   0.264  12.921
 4705SOL    HW114573   2.710   0.203  12.964
 4705SOL    HW214574   2.570   0.283  12.986
 4706SOL     OW14575   2.750   1.514  12.367
 4706SOL    HW114576   2.727   1.489  12.273
 4706SOL    HW214577   2.811   1.445  12.406
 4707SOL     OW14578   3.213   0.590  12.605
 4707SOL    HW114579   3.241   0.547  12.690
 4707SOL    HW214580   3.238   0.686  12.606
 4708SOL     OW14581   2.665   1.402  12.096
 4708SOL    HW114582   2.755   1.416  12.054
 4708SOL    HW214583   2.594   1.404  12.025
 4709SOL     OW14584   2.784   0.503  12.071
 4709SOL    HW114585   2.759   0.494  11.975
 4709SOL    HW214586   2.832   0.421  12.102
 4710SOL     OW14587   2.401   0.064  11.684
 4710SOL    HW114588   2.320   0.065  11.742
 4710SOL    HW214589   2.404   0.147  11.629
 4711SOL     OW14590   3.296   1.188  11.213
 4711SOL    HW114591   3.328   1.112  11.270
 4711SOL    HW214592   3.204   1.215  11.243
 4712SOL     OW14593   2.159   0.035  11.343
 4712SOL    HW114594   2.208   0.119  11.322
 4712SOL    HW214595   2.221  -0.030  11.388
 4713SOL     OW14596   2.797   0.236  11.652
 4713SOL    HW114597   2.749   0.277  11.574
 4713SOL    HW214598   2.896   0.234  11.633
 4714SOL     OW14599   2.938   0.683  12.636
 4714SOL    HW114600   2.858   0.622  12.639
 4714SOL    HW214601   3.019   0.630  12.612
 4715SOL     OW14602   3.089   1.570  11.965
 4715SOL    HW114603   3.110   1.644  11.900
 4715SOL    HW214604   3.157   1.570  12.038
 4716SOL     OW14605   2.321   1.152  11.913
 4716SOL    HW114606   2.250   1.125  11.978
 4716SOL    HW214607   2.295   1.124  11.820
 4717SOL     OW14608   3.133   1.797  11.763
 4717SOL    HW114609   3.177   1.861  11.699
 4717SOL    HW214610   3.083   1.849  11.833
 4718SOL     OW14611   2.894   0.549  11.188
 4718SOL    HW114612   2.853   0.631  11.149
 4718SOL    HW214613   2.958   0.575  11.261
 4719SOL     OW14614   1.940   0.556  12.558
 4719SOL    HW114615   2.032   0.555  12.517
 4719SOL    HW214616   1.934   0.630  12.625
 4720SOL     OW14617   2.423   0.222  12.319
 4720SOL    HW114618   2.461   0.138  12.356
 4720SOL    HW214619   2.335   0.241  12.363
 4721SOL     OW14620   2.728   0.454  11.814
 4721SOL    HW114621   2.696   0.526  11.752
 4721SOL    HW214622   2.752   0.373  11.761
 4722SOL     OW14623   2.879   0.039  11.925
 4722SOL    HW114624   2.807   0.044  11.856
 4722SOL    HW214625   2.855  -0.030  11.994
 4723SOL     OW14626   3.291   1.173  12.039
 4723SOL    HW114627   3.236   1.089  12.032
 4723SOL    HW214628   3.317   1.202  11.947
 4724SOL     OW14629   3.328   0.590  12.164
 4724SOL    HW114630   3.298   0.495  12.171
 4724SOL    HW214631   3.401   0.606  12.230
 4725SOL     OW14632   3.719   0.833  11.549
 4725SOL    HW114633   3.761   0.769  11.613
 4725SOL    HW214634   3.681   0.782  11.471
 4726SOL     OW14635   2.350   1.385  11.346
 4726SOL    HW114636   2.263   1.370  11.393
 4726SOL    HW214637   2.333   1.411  11.251
 4727SOL     OW14638   3.526   1.280  11.829
 4727SOL    HW114639   3.625   1.288  11.843
 4727SOL    HW214640   3.481   1.364  11.860
 4728SOL     OW14641   3.252   0.575  11.250
 4728SOL    HW114642   3.198   0.554  11.331
 4728SOL    HW214643   3.343   0.534  11.259
 4729SOL     OW14644   2.389   0.256  11.500
 4729SOL    HW114645   2.416   0.197  11.425
 4729SOL    HW214646   2.389   0.351  11.469
 4730SOL     OW14647   3.616   1.223  12.760
 4730SOL    HW114648   3.707   1.184  12.747
 4730SOL    HW214649   3.624   1.319  12.784
 4731SOL     OW14650   2.926   1.347  12.512
 4731SOL    HW114651   2.846   1.324  12.567
 4731SOL    HW214652   3.009   1.321  12.561
 4732SOL     OW14653   3.454   1.629  12.797
 4732SOL    HW114654   3.481   1.663  12.707
 4732SOL    HW214655   3.533   1.591  12.843
 4733SOL     OW14656   2.973   1.195  12.272
 4733SOL    HW114657   2.933   1.239  12.353
 4733SOL    HW214658   2.932   1.232  12.189
 4734SOL     OW14659   3.500   1.099  12.251
 4734SOL    HW114660   3.505   1.180  12.310
 4734SOL    HW214661   3.414   1.101  12.200
 4735SOL     OW14662   2.777   0.089  12.574
 4735SOL    HW114663   2.802   0.069  12.479
 4735SOL    HW214664   2.849   0.145  12.616
 4736SOL     OW14665   2.842   1.116  12.891
 4736SOL    HW114666   2.743   1.122  12.901
 4736SOL    HW214667   2.865   1.036  12.835
 4737SOL     OW14668   2.567   1.050  11.540
 4737SOL    HW114669   2.553   1.057  11.639
 4737SOL    HW214670   2.651   0.999  11.522
 4738SOL     OW14671   2.272   0.813  12.423
 4738SOL    HW114672   2.358   0.825  12.473
 4738SOL    HW214673   2.230   0.726  12.450
 4739SOL     OW14674   3.136   0.386  12.434
 4739SOL    HW114675   3.157   0.460  12.498
 4739SOL    HW214676   3.047   0.403  12.391
 4740SOL     OW14677   1.926   1.564  12.503
 4740SOL    HW114678   1.880   1.646  12.469
 4740SOL    HW214679   2.024   1.583  12.512
 4741SOL     OW14680   2.229   1.100  11.673
 4741SOL    HW114681   2.222   1.183  11.617
 4741SOL    HW214682   2.233   1.020  11.613
 4742SOL     OW14683   2.428   0.537  12.037
 4742SOL    HW114684   2.440   0.603  11.963
 4742SOL    HW214685   2.474   0.571  12.120
 4743SOL     OW14686   3.114   1.348  11.560
 4743SOL    HW114687   3.164   1.425  11.600
 4743SOL    HW214688   3.019   1.350  11.592
 4744SOL     OW14689   3.134   1.445  12.314
 4744SOL    HW114690   3.181   1.458  12.401
 4744SOL    HW214691   3.068   1.371  12.323
 4745SOL     OW14692   3.444   0.639  11.644
 4745SOL    HW114693   3.413   0.700  11.717
 4745SOL    HW214694   3.494   0.691  11.575
 4746SOL     OW14695   2.216   1.510  12.501
 4746SOL    HW114696   2.195   1.466  12.414
 4746SOL    HW214697   2.313   1.536  12.504
 4747SOL     OW14698   2.264   0.751  12.770
 4747SOL    HW114699   2.332   0.806  12.723
 4747SOL    HW214700   2.304   0.663  12.797
 4748SOL     OW14701   3.449   0.779  12.842
 4748SOL    HW114702   3.357   0.817  12.837
 4748SOL    HW214703   3.509   0.826  12.777
 4749SOL     OW14704   2.875   0.105  12.942
 4749SOL    HW114705   2.881   0.190  12.890
 4749SOL    HW214706   2.907   0.029  12.885
 4750SOL     OW14707   2.366   0.050  12.912
 4750SOL    HW114708   2.324  -0.007  12.842
 4750SOL    HW214709   2.300   0.119  12.944
 4751SOL     OW14710   2.435   0.870  12.201
 4751SOL    HW114711   2.479   0.959  12.192
 4751SOL    HW214712   2.372   0.870  12.278
 4752SOL     OW14713   3.222   0.862  12.217
 4752SOL    HW114714   3.147   0.862  12.151
 4752SOL    HW214715   3.259   0.770  12.226
 4753SOL     OW14716   3.071   0.525  11.447
 4753SOL    HW114717   3.084   0.441  11.501
 4753SOL    HW214718   3.042   0.599  11.507
 4754SOL     OW14719   2.169   0.213  12.403
 4754SOL    HW114720   2.146   0.250  12.493
 4754SOL    HW214721   2.139   0.118  12.397
 4755SOL     OW14722   1.899   1.310  12.454
 4755SOL    HW114723   1.952   1.261  12.522
 4755SOL    HW214724   1.921   1.408  12.459
 4756SOL     OW14725   2.594   0.634  12.236
 4756SOL    HW114726   2.653   0.608  12.160
 4756SOL    HW214727   2.566   0.730  12.225
 4757SOL     OW14728   3.590   0.935  13.026
 4757SOL    HW114729   3.544   0.928  12.937
 4757SOL    HW214730   3.528   0.979  13.092
 4758SOL     OW14731   2.169   0.063  11.790
 4758SOL    HW114732   2.158   0.157  11.823
 4758SOL    HW214733   2.164   0.000  11.867
 4759SOL     OW14734   3.484   0.367  11.546
 4759SOL    HW114735   3.486   0.291  11.610
 4759SOL    HW214736   3.436   0.444  11.586
 4760SOL     OW14737   2.885   0.766  12.138
 4760SOL    HW114738   2.900   0.787  12.234
 4760SOL    HW214739   2.855   0.671  12.129
 4761SOL     OW14740   2.842   1.573  12.872
 4761SOL    HW114741   2.822   1.617  12.784
 4761SOL    HW214742   2.881   1.482  12.856
 4762SOL     OW14743   3.721   1.518  12.777
 4762SOL    HW114744   3.735   1.545  12.682
 4762SOL    HW214745   3.804   1.540  12.830
 4763SOL     OW14746   2.212   0.898  12.976
 4763SOL    HW114747   2.288   0.942  13.024
 4763SOL    HW214748   2.247   0.851  12.894
 4764SOL     OW14749   3.402   0.274  11.297
 4764SOL    HW114750   3.341   0.199  11.320
 4764SOL    HW214751   3.424   0.326  11.380
 4765SOL     OW14752   3.165   0.838  11.214
 4765SOL    HW114753   3.199   0.745  11.229
 4765SOL    HW214754   3.183   0.865  11.119
 4766SOL     OW14755   2.930   1.333  12.021
 4766SOL    HW114756   2.937   1.249  11.966
 4766SOL    HW214757   2.992   1.402  11.985
 4767SOL     OW14758   2.181   0.810  12.121
 4767SOL    HW114759   2.274   0.846  12.126
 4767SOL    HW214760   2.175   0.725  12.173
 4768SOL     OW14761   2.201   0.509  12.178
 4768SOL    HW114762   2.149   0.426  12.161
 4768SOL    HW214763   2.278   0.514  12.114
 4769SOL     OW14764   3.000   0.380  12.850
 4769SOL    HW114765   2.955   0.443  12.914
 4769SOL    HW214766   3.093   0.411  12.833
 4770SOL     OW14767   3.022   0.207  12.649
 4770SOL    HW114768   3.022   0.271  12.726
 4770SOL    HW214769   3.050   0.255  12.566
 4771SOL     OW14770   1.870   1.326  11.372
 4771SOL    HW114771   1.777   1.347  11.341
 4771SOL    HW214772   1.880   1.227  11.385
 4772SOL     OW14773   1.950   1.801  12.099
 4772SOL    HW114774   1.908   1.715  12.072
 4772SOL    HW214775   2.044   1.804  12.065
 4773SOL     OW14776   2.366   1.568  12.082
 4773SOL    HW114777   2.432   1.642  12.091
 4773SOL    HW214778   2.410   1.489  12.040
 4774SOL     OW14779   2.864   0.796  12.410
 4774SOL    HW114780   2.905   0.764  12.496
 4774SOL    HW214781   2.768   0.769  12.407
 4775SOL     OW14782   1.902   0.544  12.286
 4775SOL    HW114783   1.987   0.511  12.245
 4775SOL    HW214784   1.915   0.559  12.384
 4776SOL     OW14785   2.051   0.520  12.894
 4776SOL    HW114786   2.110   0.480  12.824
 4776SOL    HW214787   1.993   0.591  12.853
 4777SOL     OW14788   3.231   0.950  12.832
 4777SOL    HW114789   3.270   1.039  12.852
 4777SOL    HW214790   3.241   0.930  12.735
 4778SOL     OW14791   2.677   0.572  11.497
 4778SOL    HW114792   2.684   0.483  11.451
 4778SOL    HW214793   2.583   0.606  11.489
 4779SOL     OW14794   3.519   0.604  12.378
 4779SOL    HW114795   3.481   0.535  12.440
 4779SOL    HW214796   3.601   0.568  12.334
 4780SOL     OW14797   2.114   1.564  12.916
 4780SOL    HW114798   2.084   1.621  12.992
 4780SOL    HW214799   2.107   1.467  12.942
 4781SOL     OW14800   2.533   0.464  12.441
 4781SOL    HW114801   2.499   0.375  12.411
 4781SOL    HW214802   2.559   0.518  12.361
 4782SOL     OW14803   2.792   1.678  12.637
 4782SOL    HW114804   2.768   1.660  12.542
 4782SOL    HW214805   2.822   1.772  12.647
 4783SOL     OW14806   2.335   0.500  11.363
 4783SOL    HW114807   2.396   0.580  11.367
 4783SOL    HW214808   2.240   0.531  11.370
 4784SOL     OW14809   2.021   1.137  12.638
 4784SOL    HW114810   2.043   1.076  12.714
 4784SOL    HW214811   2.031   1.088  12.552
 4785SOL     OW14812   3.209   1.059  12.406
 4785SOL    HW114813   3.233   0.996  12.332
 4785SOL    HW214814   3.119   1.099  12.388
 4786SOL     OW14815   3.164   0.855  11.481
 4786SOL    HW114816   3.078   0.824  11.523
 4786SOL    HW214817   3.160   0.841  11.382
 4787SOL     OW14818   3.621   1.747  12.326
 4787SOL    HW114819   3.682   1.777  12.253
 4787SOL    HW214820   3.583   1.658  12.304
 4788SOL     OW14821   3.114   1.731  12.300
 4788SOL    HW114822   3.198   1.736  12.246
 4788SOL    HW214823   3.091   1.635  12.318
 4789SOL     OW14824   1.945   1.258  12.194
 4789SOL    HW114825   1.940   1.257  12.294
 4789SOL    HW214826   1.862   1.217  12.156
 4790SOL     OW14827   2.550   1.662  12.888
 4790SOL    HW114828   2.494   1.743  12.897
 4790SOL    HW214829   2.602   1.666  12.802
 4791SOL     OW14830   3.588   0.135  11.695
 4791SOL    HW114831   3.661   0.118  11.628
 4791SOL    HW214832   3.557   0.048  11.733
 4792SOL     OW14833   3.250   1.573  11.649
 4792SOL    HW114834   3.317   1.585  11.575
 4792SOL    HW214835   3.210   1.662  11.672
 4793SOL     OW14836   1.992   1.794  13.023
 4793SOL    HW114837   1.951   1.720  13.076
 4793SOL    HW214838   2.056   1.845  13.081
 4794SOL     OW14839   3.142   0.927  11.844
 4794SOL    HW114840   3.202   0.846  11.846
 4794SOL    HW214841   3.182   0.996  11.784
 4795SOL     OW14842   2.692   1.273  12.594
 4795SOL    HW114843   2.687   1.306  12.689
 4795SOL    HW214844   2.606   1.292  12.548
 4796SOL     OW14845   2.534   1.616  11.326
 4796SOL    HW114846   2.543   1.626  11.227
 4796SOL    HW214847   2.494   1.527  11.347
 4797SOL     OW14848   3.512   1.720  12.566
 4797SOL    HW114849   3.565   1.730  12.482
 4797SOL    HW214850   3.485   1.810  12.600
 4798SOL     OW14851   3.703   0.175  12.135
 4798SOL    HW114852   3.742   0.090  12.099
 4798SOL    HW214853   3.605   0.177  12.116
 4799SOL     OW14854   2.125   0.326  11.892
 4799SOL    HW114855   2.046   0.377  11.858
 4799SOL    HW214856   2.116   0.311  11.990
 4800SOL     OW14857   3.056   1.612  11.203
 4800SOL    HW114858   3.062   1.519  11.240
 4800SOL    HW214859   2.997   1.612  11.123
 4801SOL     OW14860   2.684   1.002  12.544
 4801SOL    HW114861   2.724   1.001  12.452
 4801SOL    HW214862   2.694   1.094  12.584
 4802SOL     OW14863   2.778   0.910  11.463
 4802SOL    HW114864   2.841   0.948  11.395
 4802SOL    HW214865   2.818   0.827  11.502
 4803SOL     OW14866   3.366   1.607  11.216
 4803SOL    HW114867   3.274   1.644  11.223
 4803SOL    HW214868   3.404   1.627  11.126
 4804SOL     OW14869   2.234   1.288  12.662
 4804SOL    HW114870   2.221   1.381  12.628
 4804SOL    HW214871   2.150   1.236  12.649
 4805SOL     OW14872   3.476   1.292  12.461
 4805SOL    HW114873   3.536   1.295  12.541
 4805SOL    HW214874   3.401   1.356  12.474
 4806SOL     OW14875   2.901   1.098  11.868
 4806SOL    HW114876   2.831   1.051  11.922
 4806SOL    HW214877   2.960   1.030  11.825
 4807SOL     OW14878   2.876   0.236  12.143
 4807SOL    HW114879   2.868   0.200  12.050
 4807SOL    HW214880   2.874   0.160  12.208
 4808SOL     OW14881   2.452   1.487  11.663
 4808SOL    HW114882   2.494   1.429  11.593
 4808SOL    HW214883   2.408   1.566  11.619
 4809SOL     OW14884   3.571   0.385  12.553
 4809SOL    HW114885   3.644   0.454  12.557
 4809SOL    HW214886   3.599   0.310  12.494
 4810SOL     OW14887   2.117   1.348  11.462
 4810SOL    HW114888   2.021   1.349  11.435
 4810SOL    HW214889   2.129   1.401  11.546
 4811SOL     OW14890   1.967   1.013  12.898
 4811SOL    HW114891   1.890   0.980  12.952
 4811SOL    HW214892   2.052   0.983  12.940
 4812SOL     OW14893   2.534   0.203  12.661
 4812SOL    HW114894   2.624   0.187  12.621
 4812SOL    HW214895   2.542   0.208  12.760
 4813SOL     OW14896   1.937   0.345  11.205
 4813SOL    HW114897   1.845   0.317  11.176
 4813SOL    HW214898   1.968   0.422  11.149
 4814SOL     OW14899   3.302   0.856  12.570
 4814SOL    HW114900   3.245   0.908  12.507
 4814SOL    HW214901   3.398   0.868  12.546
 4815SOL     OW14902   1.934   0.166  11.490
 4815SOL    HW114903   1.917   0.249  11.436
 4815SOL    HW214904   2.024   0.129  11.468
 4816SOL     OW14905   3.045   1.335  11.291
 4816SOL    HW114906   2.946   1.324  11.293
 4816SOL    HW214907   3.079   1.350  11.384
 4817SOL     OW14908   2.475   0.842  12.603
 4817SOL    HW114909   2.531   0.923  12.586
 4817SOL    HW214910   2.534   0.762  12.606
 4818SOL     OW14911   3.355   1.767  12.131
 4818SOL    HW114912   3.388   1.831  12.062
 4818SOL    HW214913   3.421   1.761  12.206
 4819SOL     OW14914   2.578   0.565  12.880
 4819SOL    HW114915   2.597   0.630  12.954
 4819SOL    HW214916   2.638   0.485  12.889
 4820SOL     OW14917   3.312   1.220  12.805
 4820SOL    HW114918   3.303   1.210  12.904
 4820SOL    HW214919   3.408   1.213  12.779
 4821SOL     OW14920   2.252   1.741  12.732
 4821SOL    HW114921   2.161   1.782  12.730
 4821SOL    HW214922   2.245   1.647  12.764
 4822SOL     OW14923   3.536   0.883  12.426
 4822SOL    HW114924   3.509   0.794  12.389
 4822SOL    HW214925   3.537   0.951  12.353
 4823SOL     OW14926   3.087   0.325  11.621
 4823SOL    HW114927   3.152   0.251  11.610
 4823SOL    HW214928   3.107   0.375  11.705
 4824SOL     OW14929   2.456   0.745  11.824
 4824SOL    HW114930   2.506   0.830  11.805
 4824SOL    HW214931   2.368   0.747  11.776
 4825SOL     OW14932   3.639   0.342  12.814
 4825SOL    HW114933   3.622   0.373  12.720
 4825SOL    HW214934   3.555   0.305  12.852
 4826SOL     OW14935   3.592   0.934  12.689
 4826SOL    HW114936   3.630   1.025  12.704
 4826SOL    HW214937   3.584   0.917  12.590
 4827SOL     OW14938   2.721   1.374  11.188
 4827SOL    HW114939   2.675   1.389  11.276
 4827SOL    HW214940   2.765   1.459  11.158
 4828SOL     OW14941   2.523   1.790  12.125
 4828SOL    HW114942   2.477   1.878  12.112
 4828SOL    HW214943   2.622   1.802  12.118
 4829SOL     OW14944   2.721   0.956  12.033
 4829SOL    HW114945   2.775   0.887  12.081
 4829SOL    HW214946   2.689   1.025  12.099
 4830SOL     OW14947   2.945   0.984  11.259
 4830SOL    HW114948   2.922   1.037  11.177
 4830SOL    HW214949   3.026   0.928  11.240
 4831SOL     OW14950   3.723   1.569  12.023
 4831SOL    HW114951   3.652   1.557  11.953
 4831SOL    HW214952   3.724   1.490  12.083
 4832SOL     OW14953   2.083   1.314  13.016
 4832SOL    HW114954   2.018   1.241  12.995
 4832SOL    HW214955   2.087   1.328  13.114
 4833SOL     OW14956   1.941   1.240  11.825
 4833SOL    HW114957   1.940   1.193  11.913
 4833SOL    HW214958   2.023   1.212  11.774
 4834SOL     OW14959   2.534   1.391  12.796
 4834SOL    HW114960   2.456   1.341  12.834
 4834SOL    HW214961   2.531   1.486  12.827
 4835SOL     OW14962   3.686   0.192  12.399
 4835SOL    HW114963   3.682   0.102  12.443
 4835SOL    HW214964   3.689   0.181  12.300
 4836SOL     OW14965   2.290   0.424  11.692
 4836SOL    HW114966   2.320   0.352  11.630
 4836SOL    HW214967   2.251   0.384  11.775
 4837SOL     OW14968   3.567   1.487  12.276
 4837SOL    HW114969   3.474   1.462  12.249
 4837SOL    HW214970   3.593   1.437  12.358
 4838SOL     OW14971   2.179   0.547  12.452
 4838SOL    HW114972   2.217   0.488  12.524
 4838SOL    HW214973   2.219   0.521  12.364
 4839SOL     OW14974   2.674   1.586  11.859
 4839SOL    HW114975   2.706   1.596  11.765
 4839SOL    HW214976   2.595   1.524  11.861
 4840SOL     OW14977   3.286   0.214  12.284
 4840SOL    HW114978   3.338   0.149  12.339
 4840SOL    HW214979   3.237   0.277  12.345
 4841SOL     OW14980   2.863   0.034  12.326
 4841SOL    HW114981   2.800  -0.038  12.295
 4841SOL    HW214982   2.956  -0.002  12.326
 4842SOL     OW14983   2.632   1.330  11.473
 4842SOL    HW114984   2.586   1.243  11.490
 4842SOL    HW214985   2.723   1.327  11.514
 4843SOL     OW14986   2.480   1.567  12.456
 4843SOL    HW114987   2.475   1.649  12.513
 4843SOL    HW214988   2.569   1.564  12.411
 4844SOL     OW14989   3.214   0.052  11.340
 4844SOL    HW114990   3.249   0.011  11.256
 4844SOL    HW214991   3.124   0.014  11.360
 4845SOL     OW14992   3.162   0.453  11.863
 4845SOL    HW114993   3.103   0.533  11.867
 4845SOL    HW214994   3.177   0.418  11.956
 4846SOL     OW14995   3.455   0.221  12.054
 4846SOL    HW114996   3.371   0.220  12.108
 4846SOL    HW214997   3.457   0.304  11.998
 4847SOL     OW14998   1.901   1.077  11.472
 4847SOL    HW114999   2.000   1.066  11.463
 4847SOL    HW215000   1.861   0.991  11.504
 4848SOL     OW15001   2.737   1.646  11.509
 4848SOL    HW115002   2.660   1.611  11.455
 4848SOL    HW215003   2.705   1.717  11.571
 4849SOL     OW15004   2.092   0.628  13.147
 4849SOL    HW115005   1.999   0.626  13.184
 4849SOL    HW215006   2.093   0.589  13.055
 4850SOL     OW15007   2.087   0.275  14.030
 4850SOL    HW115008   2.122   0.258  14.122
 4850SOL    HW215009   1.999   0.230  14.018
 4851SOL     OW15010   1.881   0.368  13.681
 4851SOL    HW115011   1.799   0.411  13.720
 4851SOL    HW215012   1.853   0.295  13.618
 4852SOL     OW15013   3.417   1.511  13.737
 4852SOL    HW115014   3.360   1.495  13.818
 4852SOL    HW215015   3.358   1.521  13.657
 4853SOL     OW15016   2.997   0.703  13.751
 4853SOL    HW115017   3.054   0.781  13.726
 4853SOL    HW215018   2.937   0.729  13.827
 4854SOL     OW15019   3.617   0.607  13.265
 4854SOL    HW115020   3.605   0.594  13.166
 4854SOL    HW215021   3.587   0.526  13.314
 4855SOL     OW15022   2.547   1.012  13.699
 4855SOL    HW115023   2.616   0.996  13.769
 4855SOL    HW215024   2.474   1.069  13.737
 4856SOL     OW15025   3.465   0.447  13.771
 4856SOL    HW115026   3.391   0.493  13.721
 4856SOL    HW215027   3.516   0.515  13.824
 4857SOL     OW15028   2.093   1.713  13.517
 4857SOL    HW115029   2.127   1.790  13.571
 4857SOL    HW215030   2.137   1.713  13.427
 4858SOL     OW15031   2.092   1.434  13.572
 4858SOL    HW115032   2.066   1.530  13.572
 4858SOL    HW215033   2.021   1.380  13.617
 4859SOL     OW15034   2.102   1.091  13.920
 4859SOL    HW115035   2.116   1.007  13.972
 4859SOL    HW215036   2.047   1.155  13.975
 4860SOL     OW15037   2.468   0.964  13.157
 4860SOL    HW115038   2.475   1.048  13.103
 4860SOL    HW215039   2.514   0.977  13.245
 4861SOL     OW15040   1.984   0.643  13.597
 4861SOL    HW115041   1.939   0.555  13.614
 4861SOL    HW215042   1.983   0.697  13.681
 4862SOL     OW15043   3.704   1.767  13.393
 4862SOL    HW115044   3.758   1.738  13.473
 4862SOL    HW215045   3.734   1.857  13.364
 4863SOL     OW15046   1.889   1.596  13.151
 4863SOL    HW115047   1.870   1.500  13.172
 4863SOL    HW215048   1.856   1.654  13.226
 4864SOL     OW15049   3.551   0.922  13.646
 4864SOL    HW115050   3.646   0.893  13.654
 4864SOL    HW215051   3.543   0.987  13.571
 4865SOL     OW15052   3.503   1.108  13.466
 4865SOL    HW115053   3.589   1.110  13.414
 4865SOL    HW215054   3.517   1.155  13.554
 4866SOL     OW15055   2.475   1.365  13.760
 4866SOL    HW115056   2.426   1.278  13.769
 4866SOL    HW215057   2.452   1.408  13.673
 4867SOL     OW15058   2.671   0.004  13.536
 4867SOL    HW115059   2.711   0.095  13.527
 4867SOL    HW215060   2.571   0.012  13.542
 4868SOL     OW15061   3.387   0.999  13.224
 4868SOL    HW115062   3.324   0.923  13.237
 4868SOL    HW215063   3.435   1.017  13.310
 4869SOL     OW15064   3.529   1.714  13.606
 4869SOL    HW115065   3.488   1.691  13.518
 4869SOL    HW215066   3.511   1.640  13.671
 4870SOL     OW15067   2.460   0.729  13.304
 4870SOL    HW115068   2.484   0.798  13.236
 4870SOL    HW215069   2.382   0.762  13.358
 4871SOL     OW15070   3.143   0.345  13.978
 4871SOL    HW115071   3.057   0.295  13.965
 4871SOL    HW215072   3.205   0.291  14.034
 4872SOL     OW15073   3.438   1.662  13.341
 4872SOL    HW115074   3.527   1.708  13.344
 4872SOL    HW215075   3.417   1.638  13.246
 4873SOL     OW15076   2.903   0.701  13.463
 4873SOL    HW115077   2.929   0.697  13.559
 4873SOL    HW215078   2.818   0.650  13.449
 4874SOL     OW15079   1.938   0.811  13.823
 4874SOL    HW115080   2.037   0.799  13.832
 4874SOL    HW215081   1.914   0.906  13.844
 4875SOL     OW15082   2.727   0.348  13.229
 4875SOL    HW115083   2.786   0.411  13.180
 4875SOL    HW215084   2.746   0.254  13.200
 4876SOL     OW15085   3.224   1.144  13.579
 4876SOL    HW115086   3.307   1.115  13.531
 4876SOL    HW215087   3.175   1.211  13.523
 4877SOL     OW15088   2.870   1.456  13.511
 4877SOL    HW115089   2.824   1.528  13.459
 4877SOL    HW215090   2.866   1.476  13.609
 4878SOL     OW15091   2.213   1.801  13.887
 4878SOL    HW115092   2.263   1.715  13.893
 4878SOL    HW215093   2.278   1.878  13.884
 4879SOL     OW15094   3.657   1.066  13.907
 4879SOL    HW115095   3.595   1.051  13.831
 4879SOL    HW215096   3.605   1.077  13.992
 4880SOL     OW15097   2.183   0.943  13.276
 4880SOL    HW115098   2.265   0.982  13.234
 4880SOL    HW215099   2.156   0.861  13.227
 4881SOL     OW15100   3.320   0.735  13.762
 4881SOL    HW115101   3.315   0.670  13.837
 4881SOL    HW215102   3.400   0.794  13.775
 4882SOL     OW15103   2.973   1.776  13.271
 4882SOL    HW115104   2.913   1.714  13.321
 4882SOL    HW215105   3.004   1.732  13.186
 4883SOL     OW15106   3.494   1.377  13.115
 4883SOL    HW115107   3.462   1.471  13.105
 4883SOL    HW215108   3.418   1.314  13.103
 4884SOL     OW15109   2.326   1.743  13.357
 4884SOL    HW115110   2.359   1.782  13.443
 4884SOL    HW215111   2.402   1.736  13.292
 4885SOL     OW15112   3.262   0.107  13.460
 4885SOL    HW115113   3.238   0.070  13.370
 4885SOL    HW215114   3.361   0.123  13.464
 4886SOL     OW15115   2.802   1.698  13.938
 4886SOL    HW115116   2.882   1.641  13.959
 4886SOL    HW215117   2.753   1.658  13.861
 4887SOL     OW15118   2.244   0.700  13.514
 4887SOL    HW115119   2.289   0.610  13.511
 4887SOL    HW215120   2.150   0.689  13.547
 4888SOL     OW15121   2.476   0.122  13.151
 4888SOL    HW115122   2.574   0.100  13.158
 4888SOL    HW215123   2.445   0.105  13.058
 4889SOL     OW15124   2.401   0.064  13.546
 4889SOL    HW115125   2.320   0.065  13.604
 4889SOL    HW215126   2.404   0.147  13.491
 4890SOL     OW15127   3.296   1.188  13.075
 4890SOL    HW115128   3.328   1.112  13.132
 4890SOL    HW215129   3.204   1.215  13.105
 4891SOL     OW15130   2.159   0.035  13.205
 4891SOL    HW115131   2.208   0.119  13.184
 4891SOL    HW215132   2.221  -0.030  13.250
 4892SOL     OW15133   2.797   0.236  13.514
 4892SOL    HW115134   2.749   0.277  13.436
 4892SOL    HW215135   2.896   0.234  13.495
 4893SOL     OW15136   2.321   1.152  13.775
 4893SOL    HW115137   2.250   1.125  13.840
 4893SOL    HW215138   2.295   1.124  13.682
 4894SOL     OW15139   3.133   1.797  13.625
 4894SOL    HW115140   3.177   1.861  13.561
 4894SOL    HW215141   3.083   1.849  13.695
 4895SOL     OW15142   2.894   0.549  13.050
 4895SOL    HW115143   2.853   0.631  13.011
 4895SOL    HW215144   2.958   0.575  13.123
 4896SOL     OW15145   2.728   0.454  13.676
 4896SOL    HW115146   2.696   0.526  13.614
 4896SOL    HW215147   2.752   0.373  13.623
 4897SOL     OW15148   2.879   0.039  13.787
 4897SOL    HW115149   2.807   0.044  13.718
 4897SOL    HW215150   2.855  -0.030  13.856
 4898SOL     OW15151   3.719   0.833  13.411
 4898SOL    HW115152   3.761   0.769  13.475
 4898SOL    HW215153   3.681   0.782  13.333
 4899SOL     OW15154   2.350   1.385  13.208
 4899SOL    HW115155   2.263   1.370  13.255
 4899SOL    HW215156   2.333   1.411  13.113
 4900SOL     OW15157   3.526   1.280  13.691
 4900SOL    HW115158   3.625   1.288  13.705
 4900SOL    HW215159   3.481   1.364  13.722
 4901SOL     OW15160   3.252   0.575  13.112
 4901SOL    HW115161   3.198   0.554  13.193
 4901SOL    HW215162   3.343   0.534  13.121
 4902SOL     OW15163   2.389   0.256  13.362
 4902SOL    HW115164   2.416   0.197  13.287
 4902SOL    HW215165   2.389   0.351  13.331
 4903SOL     OW15166   2.567   1.050  13.402
 4903SOL    HW115167   2.553   1.057  13.501
 4903SOL    HW215168   2.651   0.999  13.384
 4904SOL     OW15169   2.229   1.100  13.535
 4904SOL    HW115170   2.222   1.183  13.479
 4904SOL    HW215171   2.233   1.020  13.475
 4905SOL     OW15172   2.428   0.537  13.899
 4905SOL    HW115173   2.440   0.603  13.825
 4905SOL    HW215174   2.474   0.571  13.982
 4906SOL     OW15175   3.114   1.348  13.422
 4906SOL    HW115176   3.164   1.425  13.462
 4906SOL    HW215177   3.019   1.350  13.454
 4907SOL     OW15178   3.444   0.639  13.506
 4907SOL    HW115179   3.413   0.700  13.579
 4907SOL    HW215180   3.494   0.691  13.437
 4908SOL     OW15181   3.071   0.525  13.309
 4908SOL    HW115182   3.084   0.441  13.363
 4908SOL    HW215183   3.042   0.599  13.369
 4909SOL     OW15184   2.169   0.063  13.652
 4909SOL    HW115185   2.158   0.157  13.685
 4909SOL    HW215186   2.164   0.000  13.729
 4910SOL     OW15187   3.484   0.367  13.408
 4910SOL    HW115188   3.486   0.291  13.472
 4910SOL    HW215189   3.436   0.444  13.448
 4911SOL     OW15190   3.402   0.274  13.159
 4911SOL    HW115191   3.341   0.199  13.182
 4911SOL    HW215192   3.424   0.326  13.242
 4912SOL     OW15193   3.165   0.838  13.076
 4912SOL    HW115194   3.199   0.745  13.091
 4912SOL    HW215195   3.183   0.865  12.981
 4913SOL     OW15196   1.870   1.326  13.234
 4913SOL    HW115197   1.777   1.347  13.203
 4913SOL    HW215198   1.880   1.227  13.247
 4914SOL     OW15199   2.677   0.572  13.359
 4914SOL    HW115200   2.684   0.483  13.313
 4914SOL    HW215201   2.583   0.606  13.351
 4915SOL     OW15202   2.335   0.500  13.225
 4915SOL    HW115203   2.396   0.580  13.229
 4915SOL    HW215204   2.240   0.531  13.232
 4916SOL     OW15205   3.164   0.855  13.343
 4916SOL    HW115206   3.078   0.824  13.385
 4916SOL    HW215207   3.160   0.841  13.244
 4917SOL     OW15208   3.588   0.135  13.557
 4917SOL    HW115209   3.661   0.118  13.490
 4917SOL    HW215210   3.557   0.048  13.595
 4918SOL     OW15211   3.250   1.573  13.511
 4918SOL    HW115212   3.317   1.585  13.437
 4918SOL    HW215213   3.210   1.662  13.534
 4919SOL     OW15214   3.142   0.927  13.706
 4919SOL    HW115215   3.202   0.846  13.708
 4919SOL    HW215216   3.182   0.996  13.646
 4920SOL     OW15217   2.534   1.616  13.188
 4920SOL    HW115218   2.543   1.626  13.089
 4920SOL    HW215219   2.494   1.527  13.209
 4921SOL     OW15220   3.703   0.175  13.997
 4921SOL    HW115221   3.742   0.090  13.961
 4921SOL    HW215222   3.605   0.177  13.978
 4922SOL     OW15223   2.125   0.326  13.754
 4922SOL    HW115224   2.046   0.377  13.720
 4922SOL    HW215225   2.116   0.311  13.852
 4923SOL     OW15226   3.056   1.612  13.065
 4923SOL    HW115227   3.062   1.519  13.102
 4923SOL    HW215228   2.997   1.612  12.985
 4924SOL     OW15229   2.778   0.910  13.325
 4924SOL    HW115230   2.841   0.948  13.257
 4924SOL    HW215231   2.818   0.827  13.364
 4925SOL     OW15232   3.366   1.607  13.078
 4925SOL    HW115233   3.274   1.644  13.085
 4925SOL    HW215234   3.404   1.627  12.988
 4926SOL     OW15235   2.901   1.098  13.730
 4926SOL    HW115236   2.831   1.051  13.784
 4926SOL    HW215237   2.960   1.030  13.687
 4927SOL     OW15238   2.452   1.487  13.525
 4927SOL    HW115239   2.494   1.429  13.455
 4927SOL    HW215240   2.408   1.566  13.481
 4928SOL     OW15241   2.117   1.348  13.324
 4928SOL    HW115242   2.021   1.349  13.297
 4928SOL    HW215243   2.129   1.401  13.408
 4929SOL     OW15244   1.937   0.345  13.067
 4929SOL    HW115245   1.845   0.317  13.038
 4929SOL    HW215246   1.968   0.422  13.011
 4930SOL     OW15247   1.934   0.166  13.352
 4930SOL    HW115248   1.917   0.249  13.298
 4930SOL    HW215249   2.024   0.129  13.330
 4931SOL     OW15250   3.045   1.335  13.153
 4931SOL    HW115251   2.946   1.324  13.155
 4931SOL    HW215252   3.079   1.350  13.246
 4932SOL     OW15253   3.087   0.325  13.483
 4932SOL    HW115254   3.152   0.251  13.472
 4932SOL    HW215255   3.107   0.375  13.567
 4933SOL     OW15256   2.456   0.745  13.686
 4933SOL    HW115257   2.506   0.830  13.667
 4933SOL    HW215258   2.368   0.747  13.638
 4934SOL     OW15259   2.721   1.374  13.050
 4934SOL    HW115260   2.675   1.389  13.138
 4934SOL    HW215261   2.765   1.459  13.020
 4935SOL     OW15262   2.523   1.790  13.987
 4935SOL    HW115263   2.477   1.878  13.974
 4935SOL    HW215264   2.622   1.802  13.980
 4936SOL     OW15265   2.721   0.956  13.895
 4936SOL    HW115266   2.775   0.887  13.943
 4936SOL    HW215267   2.689   1.025  13.961
 4937SOL     OW15268   2.945   0.984  13.121
 4937SOL    HW115269   2.922   1.037  13.039
 4937SOL    HW215270   3.026   0.928  13.102
 4938SOL     OW15271   1.941   1.240  13.687
 4938SOL    HW115272   1.940   1.193  13.775
 4938SOL    HW215273   2.023   1.212  13.636
 4939SOL     OW15274   2.290   0.424  13.554
 4939SOL    HW115275   2.320   0.352  13.492
 4939SOL    HW215276   2.251   0.384  13.637
 4940SOL     OW15277   3.567   1.487  14.138
 4940SOL    HW115278   3.474   1.462  14.111
 4940SOL    HW215279   3.593   1.437  14.220
 4941SOL     OW15280   2.674   1.586  13.721
 4941SOL    HW115281   2.706   1.596  13.627
 4941SOL    HW215282   2.595   1.524  13.723
 4942SOL     OW15283   2.632   1.330  13.335
 4942SOL    HW115284   2.586   1.243  13.352
 4942SOL    HW215285   2.723   1.327  13.376
 4943SOL     OW15286   3.214   0.052  13.202
 4943SOL    HW115287   3.249   0.011  13.118
 4943SOL    HW215288   3.124   0.014  13.222
 4944SOL     OW15289   3.162   0.453  13.725
 4944SOL    HW115290   3.103   0.533  13.729
 4944SOL    HW215291   3.177   0.418  13.818
 4945SOL     OW15292   1.901   1.077  13.334
 4945SOL    HW115293   2.000   1.066  13.325
 4945SOL    HW215294   1.861   0.991  13.366
 4946SOL     OW15295   2.737   1.646  13.371
 4946SOL    HW115296   2.660   1.611  13.317
 4946SOL    HW215297   2.705   1.717  13.433
 4947SOL     OW15298   2.092   2.490   0.113
 4947SOL    HW115299   1.999   2.488   0.150
 4947SOL    HW215300   2.093   2.451   0.021
 4948SOL     OW15301   1.881   2.230   0.647
 4948SOL    HW115302   1.799   2.273   0.686
 4948SOL    HW215303   1.853   2.157   0.584
 4949SOL     OW15304   2.431   3.137   1.165
 4949SOL    HW115305   2.338   3.130   1.128
 4949SOL    HW215306   2.442   3.226   1.209
 4950SOL     OW15307   3.417   3.373   0.703
 4950SOL    HW115308   3.360   3.357   0.784
 4950SOL    HW215309   3.358   3.383   0.623
 4951SOL     OW15310   2.997   2.565   0.717
 4951SOL    HW115311   3.054   2.643   0.692
 4951SOL    HW215312   2.937   2.591   0.793
 4952SOL     OW15313   3.617   2.469   0.231
 4952SOL    HW115314   3.605   2.456   0.132
 4952SOL    HW215315   3.587   2.388   0.280
 4953SOL     OW15316   2.630   3.006   1.023
 4953SOL    HW115317   2.552   3.023   1.083
 4953SOL    HW215318   2.664   3.093   0.987
 4954SOL     OW15319   2.712   2.660   1.823
 4954SOL    HW115320   2.708   2.736   1.888
 4954SOL    HW215321   2.734   2.696   1.732
 4955SOL     OW15322   2.547   2.874   0.665
 4955SOL    HW115323   2.616   2.858   0.735
 4955SOL    HW215324   2.474   2.931   0.703
 4956SOL     OW15325   2.548   3.023   1.803
 4956SOL    HW115326   2.608   3.102   1.817
 4956SOL    HW215327   2.462   3.054   1.762
 4957SOL     OW15328   2.197   3.297   1.061
 4957SOL    HW115329   2.119   3.266   1.008
 4957SOL    HW215330   2.255   3.355   1.004
 4958SOL     OW15331   3.322   3.367   1.339
 4958SOL    HW115332   3.346   3.461   1.365
 4958SOL    HW215333   3.306   3.313   1.421
 4959SOL     OW15334   2.300   2.254   1.499
 4959SOL    HW115335   2.382   2.198   1.508
 4959SOL    HW215336   2.219   2.196   1.503
 4960SOL     OW15337   3.465   2.309   0.737
 4960SOL    HW115338   3.391   2.355   0.687
 4960SOL    HW215339   3.516   2.377   0.790
 4961SOL     OW15340   2.093   3.575   0.483
 4961SOL    HW115341   2.127   3.652   0.537
 4961SOL    HW215342   2.137   3.575   0.393
 4962SOL     OW15343   2.989   3.203   1.690
 4962SOL    HW115344   3.036   3.203   1.778
 4962SOL    HW215345   2.941   3.116   1.679
 4963SOL     OW15346   2.092   3.296   0.538
 4963SOL    HW115347   2.066   3.392   0.538
 4963SOL    HW215348   2.021   3.242   0.583
 4964SOL     OW15349   2.102   2.953   0.886
 4964SOL    HW115350   2.116   2.869   0.938
 4964SOL    HW215351   2.047   3.017   0.941
 4965SOL     OW15352   2.482   3.648   1.439
 4965SOL    HW115353   2.390   3.631   1.474
 4965SOL    HW215354   2.510   3.740   1.465
 4966SOL     OW15355   2.468   2.826   0.123
 4966SOL    HW115356   2.475   2.910   0.069
 4966SOL    HW215357   2.514   2.839   0.211
 4967SOL     OW15358   3.456   1.976   1.480
 4967SOL    HW115359   3.438   2.043   1.408
 4967SOL    HW215360   3.453   2.022   1.569
 4968SOL     OW15361   1.984   2.505   0.563
 4968SOL    HW115362   1.939   2.417   0.580
 4968SOL    HW215363   1.983   2.559   0.647
 4969SOL     OW15364   3.704   3.629   0.359
 4969SOL    HW115365   3.758   3.600   0.439
 4969SOL    HW215366   3.734   3.719   0.330
 4970SOL     OW15367   1.889   3.458   0.117
 4970SOL    HW115368   1.870   3.362   0.138
 4970SOL    HW215369   1.856   3.516   0.192
 4971SOL     OW15370   3.551   2.784   0.612
 4971SOL    HW115371   3.646   2.755   0.620
 4971SOL    HW215372   3.543   2.849   0.537
 4972SOL     OW15373   3.503   2.970   0.432
 4972SOL    HW115374   3.589   2.972   0.380
 4972SOL    HW215375   3.517   3.017   0.520
 4973SOL     OW15376   1.975   2.599   1.597
 4973SOL    HW115377   2.063   2.586   1.642
 4973SOL    HW215378   1.962   2.696   1.575
 4974SOL     OW15379   2.475   3.227   0.726
 4974SOL    HW115380   2.426   3.140   0.735
 4974SOL    HW215381   2.452   3.270   0.639
 4975SOL     OW15382   3.155   3.090   1.423
 4975SOL    HW115383   3.192   3.017   1.365
 4975SOL    HW215384   3.207   3.095   1.508
 4976SOL     OW15385   2.671   1.866   0.502
 4976SOL    HW115386   2.711   1.957   0.493
 4976SOL    HW215387   2.571   1.874   0.508
 4977SOL     OW15388   2.059   2.838   1.264
 4977SOL    HW115389   2.148   2.793   1.250
 4977SOL    HW215390   1.986   2.773   1.245
 4978SOL     OW15391   3.387   2.861   0.190
 4978SOL    HW115392   3.324   2.785   0.203
 4978SOL    HW215393   3.435   2.879   0.276
 4979SOL     OW15394   3.049   3.654   1.616
 4979SOL    HW115395   3.073   3.714   1.540
 4979SOL    HW215396   3.056   3.559   1.586
 4980SOL     OW15397   3.328   3.279   0.953
 4980SOL    HW115398   3.269   3.285   1.033
 4980SOL    HW215399   3.313   3.191   0.907
 4981SOL     OW15400   3.529   3.576   0.572
 4981SOL    HW115401   3.488   3.553   0.484
 4981SOL    HW215402   3.511   3.502   0.637
 4982SOL     OW15403   2.460   2.591   0.270
 4982SOL    HW115404   2.484   2.660   0.202
 4982SOL    HW215405   2.382   2.624   0.324
 4983SOL     OW15406   3.143   2.207   0.944
 4983SOL    HW115407   3.057   2.157   0.931
 4983SOL    HW215408   3.205   2.153   1.000
 4984SOL     OW15409   3.438   3.524   0.307
 4984SOL    HW115410   3.527   3.570   0.310
 4984SOL    HW215411   3.417   3.500   0.212
 4985SOL     OW15412   2.669   2.467   1.465
 4985SOL    HW115413   2.622   2.464   1.554
 4985SOL    HW215414   2.618   2.412   1.399
 4986SOL     OW15415   3.256   2.331   1.674
 4986SOL    HW115416   3.236   2.374   1.762
 4986SOL    HW215417   3.334   2.269   1.683
 4987SOL     OW15418   2.835   2.752   1.572
 4987SOL    HW115419   2.881   2.668   1.543
 4987SOL    HW215420   2.779   2.786   1.497
 4988SOL     OW15421   2.853   2.272   1.242
 4988SOL    HW115422   2.776   2.306   1.296
 4988SOL    HW215423   2.819   2.221   1.163
 4989SOL     OW15424   2.903   2.563   0.429
 4989SOL    HW115425   2.929   2.559   0.525
 4989SOL    HW215426   2.818   2.512   0.415
 4990SOL     OW15427   1.938   2.673   0.789
 4990SOL    HW115428   2.037   2.661   0.798
 4990SOL    HW215429   1.914   2.768   0.810
 4991SOL     OW15430   1.992   3.683   1.571
 4991SOL    HW115431   1.982   3.668   1.670
 4991SOL    HW215432   1.906   3.719   1.535
 4992SOL     OW15433   2.727   2.210   0.195
 4992SOL    HW115434   2.786   2.273   0.146
 4992SOL    HW215435   2.746   2.116   0.166
 4993SOL     OW15436   3.581   2.447   1.831
 4993SOL    HW115437   3.555   2.536   1.795
 4993SOL    HW215438   3.579   2.379   1.758
 4994SOL     OW15439   3.224   3.006   0.545
 4994SOL    HW115440   3.307   2.977   0.497
 4994SOL    HW215441   3.175   3.073   0.489
 4995SOL     OW15442   2.412   2.058   0.885
 4995SOL    HW115443   2.407   2.053   0.985
 4995SOL    HW215444   2.414   2.154   0.856
 4996SOL     OW15445   2.870   3.318   0.477
 4996SOL    HW115446   2.824   3.390   0.425
 4996SOL    HW215447   2.866   3.338   0.575
 4997SOL     OW15448   2.213   3.663   0.853
 4997SOL    HW115449   2.263   3.577   0.859
 4997SOL    HW215450   2.278   3.740   0.850
 4998SOL     OW15451   3.657   2.928   0.873
 4998SOL    HW115452   3.595   2.913   0.797
 4998SOL    HW215453   3.605   2.939   0.958
 4999SOL     OW15454   3.089   3.412   1.506
 4999SOL    HW115455   3.095   3.335   1.570
 4999SOL    HW215456   3.037   3.386   1.426
 5000SOL     OW15457   2.183   2.805   0.242
 5000SOL    HW115458   2.265   2.844   0.200
 5000SOL    HW215459   2.156   2.723   0.193
 5001SOL     OW15460   3.320   2.597   0.728
 5001SOL    HW115461   3.315   2.532   0.803
 5001SOL    HW215462   3.400   2.656   0.741
 5002SOL     OW15463   2.323   3.128   1.727
 5002SOL    HW115464   2.273   3.129   1.641
 5002SOL    HW215465   2.260   3.110   1.803
 5003SOL     OW15466   2.973   3.638   0.237
 5003SOL    HW115467   2.913   3.576   0.287
 5003SOL    HW215468   3.004   3.594   0.152
 5004SOL     OW15469   3.494   3.239   0.081
 5004SOL    HW115470   3.462   3.333   0.071
 5004SOL    HW215471   3.418   3.176   0.069
 5005SOL     OW15472   2.326   3.605   0.323
 5005SOL    HW115473   2.359   3.644   0.409
 5005SOL    HW215474   2.402   3.598   0.258
 5006SOL     OW15475   3.262   1.969   0.426
 5006SOL    HW115476   3.238   1.932   0.336
 5006SOL    HW215477   3.361   1.985   0.430
 5007SOL     OW15478   2.111   3.647   1.241
 5007SOL    HW115479   2.168   3.582   1.291
 5007SOL    HW215480   2.095   3.614   1.148
 5008SOL     OW15481   2.802   3.560   0.904
 5008SOL    HW115482   2.882   3.503   0.925
 5008SOL    HW215483   2.753   3.520   0.827
 5009SOL     OW15484   2.244   2.562   0.480
 5009SOL    HW115485   2.289   2.472   0.477
 5009SOL    HW215486   2.150   2.551   0.513
 5010SOL     OW15487   3.409   2.084   1.729
 5010SOL    HW115488   3.404   2.121   1.821
 5010SOL    HW215489   3.337   2.015   1.717
 5011SOL     OW15490   2.643   2.126   1.749
 5011SOL    HW115491   2.710   2.065   1.792
 5011SOL    HW215492   2.570   2.145   1.814
 5012SOL     OW15493   2.750   3.376   1.195
 5012SOL    HW115494   2.727   3.351   1.101
 5012SOL    HW215495   2.811   3.307   1.234
 5013SOL     OW15496   3.213   2.452   1.433
 5013SOL    HW115497   3.241   2.409   1.518
 5013SOL    HW215498   3.238   2.548   1.434
 5014SOL     OW15499   2.665   3.264   0.924
 5014SOL    HW115500   2.755   3.278   0.882
 5014SOL    HW215501   2.594   3.266   0.853
 5015SOL     OW15502   2.784   2.365   0.899
 5015SOL    HW115503   2.759   2.356   0.803
 5015SOL    HW215504   2.832   2.283   0.930
 5016SOL     OW15505   2.401   1.926   0.512
 5016SOL    HW115506   2.320   1.927   0.570
 5016SOL    HW215507   2.404   2.009   0.457
 5017SOL     OW15508   3.296   3.050   0.041
 5017SOL    HW115509   3.328   2.974   0.098
 5017SOL    HW215510   3.204   3.077   0.071
 5018SOL     OW15511   2.797   2.098   0.480
 5018SOL    HW115512   2.749   2.139   0.402
 5018SOL    HW215513   2.896   2.096   0.461
 5019SOL     OW15514   2.938   2.545   1.464
 5019SOL    HW115515   2.858   2.484   1.467
 5019SOL    HW215516   3.019   2.492   1.440
 5020SOL     OW15517   3.089   3.432   0.793
 5020SOL    HW115518   3.110   3.506   0.728
 5020SOL    HW215519   3.157   3.432   0.866
 5021SOL     OW15520   2.321   3.014   0.741
 5021SOL    HW115521   2.250   2.987   0.806
 5021SOL    HW215522   2.295   2.986   0.648
 5022SOL     OW15523   3.133   3.659   0.591
 5022SOL    HW115524   3.177   3.723   0.527
 5022SOL    HW215525   3.083   3.711   0.661
 5023SOL     OW15526   2.894   2.411   0.016
 5023SOL    HW115527   2.853   2.493  -0.023
 5023SOL    HW215528   2.958   2.437   0.089
 5024SOL     OW15529   1.940   2.418   1.386
 5024SOL    HW115530   2.032   2.417   1.345
 5024SOL    HW215531   1.934   2.492   1.453
 5025SOL     OW15532   2.423   2.084   1.147
 5025SOL    HW115533   2.461   2.000   1.184
 5025SOL    HW215534   2.335   2.103   1.191
 5026SOL     OW15535   2.728   2.316   0.642
 5026SOL    HW115536   2.696   2.388   0.580
 5026SOL    HW215537   2.752   2.235   0.589
 5027SOL     OW15538   2.879   1.901   0.753
 5027SOL    HW115539   2.807   1.906   0.684
 5027SOL    HW215540   2.855   1.832   0.822
 5028SOL     OW15541   3.291   3.035   0.867
 5028SOL    HW115542   3.236   2.951   0.860
 5028SOL    HW215543   3.317   3.064   0.775
 5029SOL     OW15544   3.328   2.452   0.992
 5029SOL    HW115545   3.298   2.357   0.999
 5029SOL    HW215546   3.401   2.468   1.058
 5030SOL     OW15547   3.719   2.695   0.377
 5030SOL    HW115548   3.761   2.631   0.441
 5030SOL    HW215549   3.681   2.644   0.299
 5031SOL     OW15550   2.350   3.247   0.174
 5031SOL    HW115551   2.263   3.232   0.221
 5031SOL    HW215552   2.333   3.273   0.079
 5032SOL     OW15553   3.526   3.142   0.657
 5032SOL    HW115554   3.625   3.150   0.671
 5032SOL    HW215555   3.481   3.226   0.688
 5033SOL     OW15556   3.252   2.437   0.078
 5033SOL    HW115557   3.198   2.416   0.159
 5033SOL    HW215558   3.343   2.396   0.087
 5034SOL     OW15559   2.389   2.118   0.328
 5034SOL    HW115560   2.416   2.059   0.253
 5034SOL    HW215561   2.389   2.213   0.297
 5035SOL     OW15562   3.616   3.085   1.588
 5035SOL    HW115563   3.707   3.046   1.575
 5035SOL    HW215564   3.624   3.181   1.612
 5036SOL     OW15565   2.926   3.209   1.340
 5036SOL    HW115566   2.846   3.186   1.395
 5036SOL    HW215567   3.009   3.183   1.389
 5037SOL     OW15568   3.454   3.491   1.625
 5037SOL    HW115569   3.481   3.525   1.535
 5037SOL    HW215570   3.533   3.453   1.671
 5038SOL     OW15571   2.973   3.057   1.100
 5038SOL    HW115572   2.933   3.101   1.181
 5038SOL    HW215573   2.932   3.094   1.017
 5039SOL     OW15574   3.500   2.961   1.079
 5039SOL    HW115575   3.505   3.042   1.138
 5039SOL    HW215576   3.414   2.963   1.028
 5040SOL     OW15577   2.777   1.951   1.402
 5040SOL    HW115578   2.802   1.931   1.307
 5040SOL    HW215579   2.849   2.007   1.444
 5041SOL     OW15580   2.842   2.978   1.719
 5041SOL    HW115581   2.743   2.984   1.729
 5041SOL    HW215582   2.865   2.898   1.663
 5042SOL     OW15583   2.567   2.912   0.368
 5042SOL    HW115584   2.553   2.919   0.467
 5042SOL    HW215585   2.651   2.861   0.350
 5043SOL     OW15586   2.272   2.675   1.251
 5043SOL    HW115587   2.358   2.687   1.301
 5043SOL    HW215588   2.230   2.588   1.278
 5044SOL     OW15589   3.136   2.248   1.262
 5044SOL    HW115590   3.157   2.322   1.326
 5044SOL    HW215591   3.047   2.265   1.219
 5045SOL     OW15592   1.926   3.426   1.331
 5045SOL    HW115593   1.880   3.508   1.297
 5045SOL    HW215594   2.024   3.445   1.340
 5046SOL     OW15595   2.229   2.962   0.501
 5046SOL    HW115596   2.222   3.045   0.445
 5046SOL    HW215597   2.233   2.882   0.441
 5047SOL     OW15598   2.428   2.399   0.865
 5047SOL    HW115599   2.440   2.465   0.791
 5047SOL    HW215600   2.474   2.433   0.948
 5048SOL     OW15601   3.114   3.210   0.388
 5048SOL    HW115602   3.164   3.287   0.428
 5048SOL    HW215603   3.019   3.212   0.420
 5049SOL     OW15604   3.134   3.307   1.142
 5049SOL    HW115605   3.181   3.320   1.229
 5049SOL    HW215606   3.068   3.233   1.151
 5050SOL     OW15607   3.444   2.501   0.472
 5050SOL    HW115608   3.413   2.562   0.545
 5050SOL    HW215609   3.494   2.553   0.403
 5051SOL     OW15610   2.216   3.372   1.329
 5051SOL    HW115611   2.195   3.328   1.242
 5051SOL    HW215612   2.313   3.398   1.332
 5052SOL     OW15613   2.264   2.613   1.598
 5052SOL    HW115614   2.332   2.668   1.551
 5052SOL    HW215615   2.304   2.525   1.625
 5053SOL     OW15616   3.449   2.641   1.670
 5053SOL    HW115617   3.357   2.679   1.665
 5053SOL    HW215618   3.509   2.688   1.605
 5054SOL     OW15619   2.875   1.967   1.770
 5054SOL    HW115620   2.881   2.052   1.718
 5054SOL    HW215621   2.907   1.891   1.713
 5055SOL     OW15622   2.366   1.912   1.740
 5055SOL    HW115623   2.324   1.855   1.670
 5055SOL    HW215624   2.300   1.981   1.772
 5056SOL     OW15625   2.435   2.732   1.029
 5056SOL    HW115626   2.479   2.821   1.020
 5056SOL    HW215627   2.372   2.732   1.106
 5057SOL     OW15628   3.222   2.724   1.045
 5057SOL    HW115629   3.147   2.724   0.979
 5057SOL    HW215630   3.259   2.632   1.054
 5058SOL     OW15631   3.071   2.387   0.275
 5058SOL    HW115632   3.084   2.303   0.329
 5058SOL    HW215633   3.042   2.461   0.335
 5059SOL     OW15634   1.899   3.172   1.282
 5059SOL    HW115635   1.952   3.123   1.350
 5059SOL    HW215636   1.921   3.270   1.287
 5060SOL     OW15637   2.594   2.496   1.064
 5060SOL    HW115638   2.653   2.470   0.988
 5060SOL    HW215639   2.566   2.592   1.053
 5061SOL     OW15640   3.590   2.797   1.854
 5061SOL    HW115641   3.544   2.790   1.765
 5061SOL    HW215642   3.528   2.841   1.920
 5062SOL     OW15643   2.169   1.925   0.618
 5062SOL    HW115644   2.158   2.019   0.651
 5062SOL    HW215645   2.164   1.862   0.695
 5063SOL     OW15646   3.484   2.229   0.374
 5063SOL    HW115647   3.486   2.153   0.438
 5063SOL    HW215648   3.436   2.306   0.414
 5064SOL     OW15649   2.885   2.628   0.966
 5064SOL    HW115650   2.900   2.649   1.062
 5064SOL    HW215651   2.855   2.533   0.957
 5065SOL     OW15652   2.842   3.435   1.700
 5065SOL    HW115653   2.822   3.479   1.612
 5065SOL    HW215654   2.881   3.344   1.684
 5066SOL     OW15655   3.721   3.380   1.605
 5066SOL    HW115656   3.735   3.407   1.510
 5066SOL    HW215657   3.804   3.402   1.658
 5067SOL     OW15658   2.212   2.760   1.804
 5067SOL    HW115659   2.288   2.804   1.852
 5067SOL    HW215660   2.247   2.713   1.722
 5068SOL     OW15661   3.402   2.136   0.125
 5068SOL    HW115662   3.341   2.061   0.148
 5068SOL    HW215663   3.424   2.188   0.208
 5069SOL     OW15664   3.165   2.700   0.042
 5069SOL    HW115665   3.199   2.607   0.057
 5069SOL    HW215666   3.183   2.727  -0.053
 5070SOL     OW15667   2.930   3.195   0.849
 5070SOL    HW115668   2.937   3.111   0.794
 5070SOL    HW215669   2.992   3.264   0.813
 5071SOL     OW15670   2.181   2.672   0.949
 5071SOL    HW115671   2.274   2.708   0.954
 5071SOL    HW215672   2.175   2.587   1.001
 5072SOL     OW15673   2.201   2.371   1.006
 5072SOL    HW115674   2.149   2.288   0.989
 5072SOL    HW215675   2.278   2.376   0.942
 5073SOL     OW15676   3.000   2.242   1.678
 5073SOL    HW115677   2.955   2.305   1.742
 5073SOL    HW215678   3.093   2.273   1.661
 5074SOL     OW15679   3.022   2.069   1.477
 5074SOL    HW115680   3.022   2.133   1.554
 5074SOL    HW215681   3.050   2.117   1.394
 5075SOL     OW15682   1.870   3.188   0.200
 5075SOL    HW115683   1.777   3.209   0.169
 5075SOL    HW215684   1.880   3.089   0.213
 5076SOL     OW15685   1.950   3.663   0.927
 5076SOL    HW115686   1.908   3.577   0.900
 5076SOL    HW215687   2.044   3.666   0.893
 5077SOL     OW15688   2.366   3.430   0.910
 5077SOL    HW115689   2.432   3.504   0.919
 5077SOL    HW215690   2.410   3.351   0.868
 5078SOL     OW15691   2.864   2.658   1.238
 5078SOL    HW115692   2.905   2.626   1.324
 5078SOL    HW215693   2.768   2.631   1.235
 5079SOL     OW15694   1.902   2.406   1.114
 5079SOL    HW115695   1.987   2.373   1.073
 5079SOL    HW215696   1.915   2.421   1.212
 5080SOL     OW15697   2.051   2.382   1.722
 5080SOL    HW115698   2.110   2.342   1.652
 5080SOL    HW215699   1.993   2.453   1.681
 5081SOL     OW15700   3.231   2.812   1.660
 5081SOL    HW115701   3.270   2.901   1.680
 5081SOL    HW215702   3.241   2.792   1.563
 5082SOL     OW15703   2.677   2.434   0.325
 5082SOL    HW115704   2.684   2.345   0.279
 5082SOL    HW215705   2.583   2.468   0.317
 5083SOL     OW15706   3.519   2.466   1.206
 5083SOL    HW115707   3.481   2.397   1.268
 5083SOL    HW215708   3.601   2.430   1.162
 5084SOL     OW15709   2.114   3.426   1.744
 5084SOL    HW115710   2.084   3.483   1.820
 5084SOL    HW215711   2.107   3.329   1.770
 5085SOL     OW15712   2.533   2.326   1.269
 5085SOL    HW115713   2.499   2.237   1.239
 5085SOL    HW215714   2.559   2.380   1.189
 5086SOL     OW15715   2.792   3.540   1.465
 5086SOL    HW115716   2.768   3.522   1.370
 5086SOL    HW215717   2.822   3.634   1.475
 5087SOL     OW15718   2.335   2.362   0.191
 5087SOL    HW115719   2.396   2.442   0.195
 5087SOL    HW215720   2.240   2.393   0.198
 5088SOL     OW15721   2.021   2.999   1.466
 5088SOL    HW115722   2.043   2.938   1.542
 5088SOL    HW215723   2.031   2.950   1.380
 5089SOL     OW15724   3.209   2.921   1.234
 5089SOL    HW115725   3.233   2.858   1.160
 5089SOL    HW215726   3.119   2.961   1.216
 5090SOL     OW15727   3.164   2.717   0.309
 5090SOL    HW115728   3.078   2.686   0.351
 5090SOL    HW215729   3.160   2.703   0.210
 5091SOL     OW15730   3.621   3.609   1.154
 5091SOL    HW115731   3.682   3.639   1.081
 5091SOL    HW215732   3.583   3.520   1.132
 5092SOL     OW15733   3.114   3.593   1.128
 5092SOL    HW115734   3.198   3.598   1.074
 5092SOL    HW215735   3.091   3.497   1.146
 5093SOL     OW15736   1.945   3.120   1.022
 5093SOL    HW115737   1.940   3.119   1.122
 5093SOL    HW215738   1.862   3.079   0.984
 5094SOL     OW15739   2.550   3.524   1.716
 5094SOL    HW115740   2.494   3.605   1.725
 5094SOL    HW215741   2.602   3.528   1.630
 5095SOL     OW15742   2.765   1.948   0.133
 5095SOL    HW115743   2.816   1.949   0.047
 5095SOL    HW215744   2.821   1.906   0.204
 5096SOL     OW15745   3.588   1.997   0.523
 5096SOL    HW115746   3.661   1.980   0.456
 5096SOL    HW215747   3.557   1.910   0.561
 5097SOL     OW15748   3.250   3.435   0.477
 5097SOL    HW115749   3.317   3.447   0.403
 5097SOL    HW215750   3.210   3.524   0.500
 5098SOL     OW15751   1.992   3.656   1.851
 5098SOL    HW115752   1.951   3.582   1.904
 5098SOL    HW215753   2.056   3.707   1.909
 5099SOL     OW15754   3.142   2.789   0.672
 5099SOL    HW115755   3.202   2.708   0.674
 5099SOL    HW215756   3.182   2.858   0.612
 5100SOL     OW15757   2.692   3.135   1.422
 5100SOL    HW115758   2.687   3.168   1.517
 5100SOL    HW215759   2.606   3.154   1.376
 5101SOL     OW15760   2.534   3.478   0.154
 5101SOL    HW115761   2.543   3.488   0.055
 5101SOL    HW215762   2.494   3.389   0.175
 5102SOL     OW15763   3.512   3.582   1.394
 5102SOL    HW115764   3.565   3.592   1.310
 5102SOL    HW215765   3.485   3.672   1.428
 5103SOL     OW15766   3.703   2.037   0.963
 5103SOL    HW115767   3.742   1.952   0.927
 5103SOL    HW215768   3.605   2.039   0.944
 5104SOL     OW15769   3.056   3.474   0.031
 5104SOL    HW115770   3.062   3.381   0.068
 5104SOL    HW215771   2.997   3.474  -0.049
 5105SOL     OW15772   2.684   2.864   1.372
 5105SOL    HW115773   2.724   2.863   1.280
 5105SOL    HW215774   2.694   2.956   1.412
 5106SOL     OW15775   2.778   2.772   0.291
 5106SOL    HW115776   2.841   2.810   0.223
 5106SOL    HW215777   2.818   2.689   0.330
 5107SOL     OW15778   3.366   3.469   0.044
 5107SOL    HW115779   3.274   3.506   0.051
 5107SOL    HW215780   3.404   3.489  -0.046
 5108SOL     OW15781   2.234   3.150   1.490
 5108SOL    HW115782   2.221   3.243   1.456
 5108SOL    HW215783   2.150   3.098   1.477
 5109SOL     OW15784   3.476   3.154   1.289
 5109SOL    HW115785   3.536   3.157   1.369
 5109SOL    HW215786   3.401   3.218   1.302
 5110SOL     OW15787   2.901   2.960   0.696
 5110SOL    HW115788   2.831   2.913   0.750
 5110SOL    HW215789   2.960   2.892   0.653
 5111SOL     OW15790   2.876   2.098   0.971
 5111SOL    HW115791   2.868   2.062   0.878
 5111SOL    HW215792   2.874   2.022   1.036
 5112SOL     OW15793   2.452   3.349   0.491
 5112SOL    HW115794   2.494   3.291   0.421
 5112SOL    HW215795   2.408   3.428   0.447
 5113SOL     OW15796   3.571   2.247   1.381
 5113SOL    HW115797   3.644   2.316   1.385
 5113SOL    HW215798   3.599   2.172   1.322
 5114SOL     OW15799   2.117   3.210   0.290
 5114SOL    HW115800   2.021   3.211   0.263
 5114SOL    HW215801   2.129   3.263   0.374
 5115SOL     OW15802   1.967   2.875   1.726
 5115SOL    HW115803   1.890   2.842   1.780
 5115SOL    HW215804   2.052   2.845   1.768
 5116SOL     OW15805   2.534   2.065   1.489
 5116SOL    HW115806   2.624   2.049   1.449
 5116SOL    HW215807   2.542   2.070   1.588
 5117SOL     OW15808   1.937   2.207   0.033
 5117SOL    HW115809   1.845   2.179   0.004
 5117SOL    HW215810   1.968   2.284  -0.023
 5118SOL     OW15811   3.302   2.718   1.398
 5118SOL    HW115812   3.245   2.770   1.335
 5118SOL    HW215813   3.398   2.730   1.374
 5119SOL     OW15814   3.045   3.197   0.119
 5119SOL    HW115815   2.946   3.186   0.121
 5119SOL    HW215816   3.079   3.212   0.212
 5120SOL     OW15817   2.475   2.704   1.431
 5120SOL    HW115818   2.531   2.785   1.414
 5120SOL    HW215819   2.534   2.624   1.434
 5121SOL     OW15820   3.355   3.629   0.959
 5121SOL    HW115821   3.388   3.693   0.890
 5121SOL    HW215822   3.421   3.623   1.034
 5122SOL     OW15823   2.578   2.427   1.708
 5122SOL    HW115824   2.597   2.492   1.782
 5122SOL    HW215825   2.638   2.347   1.717
 5123SOL     OW15826   3.312   3.082   1.633
 5123SOL    HW115827   3.303   3.072   1.732
 5123SOL    HW215828   3.408   3.075   1.607
 5124SOL     OW15829   2.252   3.603   1.560
 5124SOL    HW115830   2.161   3.644   1.558
 5124SOL    HW215831   2.245   3.509   1.592
 5125SOL     OW15832   3.536   2.745   1.254
 5125SOL    HW115833   3.509   2.656   1.217
 5125SOL    HW215834   3.537   2.813   1.181
 5126SOL     OW15835   3.087   2.187   0.449
 5126SOL    HW115836   3.152   2.113   0.438
 5126SOL    HW215837   3.107   2.237   0.533
 5127SOL     OW15838   2.456   2.607   0.652
 5127SOL    HW115839   2.506   2.692   0.633
 5127SOL    HW215840   2.368   2.609   0.604
 5128SOL     OW15841   3.639   2.204   1.642
 5128SOL    HW115842   3.622   2.235   1.548
 5128SOL    HW215843   3.555   2.167   1.680
 5129SOL     OW15844   3.592   2.796   1.517
 5129SOL    HW115845   3.630   2.887   1.532
 5129SOL    HW215846   3.584   2.779   1.418
 5130SOL     OW15847   2.721   3.236   0.016
 5130SOL    HW115848   2.675   3.251   0.104
 5130SOL    HW215849   2.765   3.321  -0.014
 5131SOL     OW15850   2.523   3.652   0.953
 5131SOL    HW115851   2.477   3.740   0.940
 5131SOL    HW215852   2.622   3.664   0.946
 5132SOL     OW15853   2.721   2.818   0.861
 5132SOL    HW115854   2.775   2.749   0.909
 5132SOL    HW215855   2.689   2.887   0.927
 5133SOL     OW15856   2.945   2.846   0.087
 5133SOL    HW115857   2.922   2.899   0.005
 5133SOL    HW215858   3.026   2.790   0.068
 5134SOL     OW15859   3.723   3.431   0.851
 5134SOL    HW115860   3.652   3.419   0.781
 5134SOL    HW215861   3.724   3.352   0.911
 5135SOL     OW15862   2.083   3.176   1.844
 5135SOL    HW115863   2.018   3.103   1.823
 5135SOL    HW215864   2.087   3.190   1.942
 5136SOL     OW15865   1.941   3.102   0.653
 5136SOL    HW115866   1.940   3.055   0.741
 5136SOL    HW215867   2.023   3.074   0.602
 5137SOL     OW15868   2.534   3.253   1.624
 5137SOL    HW115869   2.456   3.203   1.662
 5137SOL    HW215870   2.531   3.348   1.655
 5138SOL     OW15871   3.686   2.054   1.227
 5138SOL    HW115872   3.682   1.964   1.271
 5138SOL    HW215873   3.689   2.043   1.128
 5139SOL     OW15874   2.290   2.286   0.520
 5139SOL    HW115875   2.320   2.214   0.458
 5139SOL    HW215876   2.251   2.246   0.603
 5140SOL     OW15877   3.567   3.349   1.104
 5140SOL    HW115878   3.474   3.324   1.077
 5140SOL    HW215879   3.593   3.299   1.186
 5141SOL     OW15880   2.179   2.409   1.280
 5141SOL    HW115881   2.217   2.350   1.352
 5141SOL    HW215882   2.219   2.383   1.192
 5142SOL     OW15883   2.674   3.448   0.687
 5142SOL    HW115884   2.706   3.458   0.593
 5142SOL    HW215885   2.595   3.386   0.689
 5143SOL     OW15886   3.286   2.076   1.112
 5143SOL    HW115887   3.338   2.011   1.167
 5143SOL    HW215888   3.237   2.139   1.173
 5144SOL     OW15889   2.863   1.896   1.154
 5144SOL    HW115890   2.800   1.824   1.123
 5144SOL    HW215891   2.956   1.860   1.154
 5145SOL     OW15892   2.632   3.192   0.301
 5145SOL    HW115893   2.586   3.105   0.318
 5145SOL    HW215894   2.723   3.189   0.342
 5146SOL     OW15895   2.480   3.429   1.284
 5146SOL    HW115896   2.475   3.511   1.341
 5146SOL    HW215897   2.569   3.426   1.239
 5147SOL     OW15898   3.214   1.914   0.168
 5147SOL    HW115899   3.249   1.873   0.084
 5147SOL    HW215900   3.124   1.876   0.188
 5148SOL     OW15901   3.162   2.315   0.691
 5148SOL    HW115902   3.103   2.395   0.695
 5148SOL    HW215903   3.177   2.280   0.784
 5149SOL     OW15904   3.455   2.083   0.882
 5149SOL    HW115905   3.371   2.082   0.936
 5149SOL    HW215906   3.457   2.166   0.826
 5150SOL     OW15907   1.901   2.939   0.300
 5150SOL    HW115908   2.000   2.928   0.291
 5150SOL    HW215909   1.861   2.853   0.332
 5151SOL     OW15910   2.737   3.508   0.337
 5151SOL    HW115911   2.660   3.473   0.283
 5151SOL    HW215912   2.705   3.579   0.399
 5152SOL     OW15913   2.092   2.490   1.975
 5152SOL    HW115914   1.999   2.488   2.012
 5152SOL    HW215915   2.093   2.451   1.883
 5153SOL     OW15916   1.881   2.230   2.509
 5153SOL    HW115917   1.799   2.273   2.548
 5153SOL    HW215918   1.853   2.157   2.446
 5154SOL     OW15919   2.431   3.137   3.027
 5154SOL    HW115920   2.338   3.130   2.990
 5154SOL    HW215921   2.442   3.226   3.071
 5155SOL     OW15922   3.417   3.373   2.565
 5155SOL    HW115923   3.360   3.357   2.646
 5155SOL    HW215924   3.358   3.383   2.485
 5156SOL     OW15925   2.997   2.565   2.579
 5156SOL    HW115926   3.054   2.643   2.554
 5156SOL    HW215927   2.937   2.591   2.655
 5157SOL     OW15928   3.617   2.469   2.093
 5157SOL    HW115929   3.605   2.456   1.994
 5157SOL    HW215930   3.587   2.388   2.142
 5158SOL     OW15931   2.630   3.006   2.885
 5158SOL    HW115932   2.552   3.023   2.945
 5158SOL    HW215933   2.664   3.093   2.849
 5159SOL     OW15934   2.712   2.660   3.685
 5159SOL    HW115935   2.708   2.736   3.750
 5159SOL    HW215936   2.734   2.696   3.594
 5160SOL     OW15937   2.547   2.874   2.527
 5160SOL    HW115938   2.616   2.858   2.597
 5160SOL    HW215939   2.474   2.931   2.565
 5161SOL     OW15940   2.548   3.023   3.665
 5161SOL    HW115941   2.608   3.102   3.679
 5161SOL    HW215942   2.462   3.054   3.624
 5162SOL     OW15943   2.197   3.297   2.923
 5162SOL    HW115944   2.119   3.266   2.870
 5162SOL    HW215945   2.255   3.355   2.866
 5163SOL     OW15946   3.322   3.367   3.201
 5163SOL    HW115947   3.346   3.461   3.227
 5163SOL    HW215948   3.306   3.313   3.283
 5164SOL     OW15949   2.300   2.254   3.361
 5164SOL    HW115950   2.382   2.198   3.370
 5164SOL    HW215951   2.219   2.196   3.365
 5165SOL     OW15952   3.465   2.309   2.599
 5165SOL    HW115953   3.391   2.355   2.549
 5165SOL    HW215954   3.516   2.377   2.652
 5166SOL     OW15955   2.093   3.575   2.345
 5166SOL    HW115956   2.127   3.652   2.399
 5166SOL    HW215957   2.137   3.575   2.255
 5167SOL     OW15958   2.989   3.203   3.552
 5167SOL    HW115959   3.036   3.203   3.640
 5167SOL    HW215960   2.941   3.116   3.541
 5168SOL     OW15961   2.092   3.296   2.400
 5168SOL    HW115962   2.066   3.392   2.400
 5168SOL    HW215963   2.021   3.242   2.445
 5169SOL     OW15964   2.102   2.953   2.748
 5169SOL    HW115965   2.116   2.869   2.800
 5169SOL    HW215966   2.047   3.017   2.803
 5170SOL     OW15967   2.482   3.648   3.301
 5170SOL    HW115968   2.390   3.631   3.336
 5170SOL    HW215969   2.510   3.740   3.327
 5171SOL     OW15970   2.468   2.826   1.985
 5171SOL    HW115971   2.475   2.910   1.931
 5171SOL    HW215972   2.514   2.839   2.073
 5172SOL     OW15973   3.456   1.976   3.342
 5172SOL    HW115974   3.438   2.043   3.270
 5172SOL    HW215975   3.453   2.022   3.431
 5173SOL     OW15976   1.984   2.505   2.425
 5173SOL    HW115977   1.939   2.417   2.442
 5173SOL    HW215978   1.983   2.559   2.509
 5174SOL     OW15979   3.704   3.629   2.221
 5174SOL    HW115980   3.758   3.600   2.301
 5174SOL    HW215981   3.734   3.719   2.192
 5175SOL     OW15982   1.889   3.458   1.979
 5175SOL    HW115983   1.870   3.362   2.000
 5175SOL    HW215984   1.856   3.516   2.054
 5176SOL     OW15985   3.551   2.784   2.474
 5176SOL    HW115986   3.646   2.755   2.482
 5176SOL    HW215987   3.543   2.849   2.399
 5177SOL     OW15988   3.503   2.970   2.294
 5177SOL    HW115989   3.589   2.972   2.242
 5177SOL    HW215990   3.517   3.017   2.382
 5178SOL     OW15991   1.975   2.599   3.459
 5178SOL    HW115992   2.063   2.586   3.504
 5178SOL    HW215993   1.962   2.696   3.437
 5179SOL     OW15994   2.475   3.227   2.588
 5179SOL    HW115995   2.426   3.140   2.597
 5179SOL    HW215996   2.452   3.270   2.501
 5180SOL     OW15997   3.155   3.090   3.285
 5180SOL    HW115998   3.192   3.017   3.227
 5180SOL    HW215999   3.207   3.095   3.370
 5181SOL     OW16000   2.671   1.866   2.364
 5181SOL    HW116001   2.711   1.957   2.355
 5181SOL    HW216002   2.571   1.874   2.370
 5182SOL     OW16003   2.059   2.838   3.126
 5182SOL    HW116004   2.148   2.793   3.112
 5182SOL    HW216005   1.986   2.773   3.107
 5183SOL     OW16006   3.387   2.861   2.052
 5183SOL    HW116007   3.324   2.785   2.065
 5183SOL    HW216008   3.435   2.879   2.138
 5184SOL     OW16009   3.049   3.654   3.478
 5184SOL    HW116010   3.073   3.714   3.402
 5184SOL    HW216011   3.056   3.559   3.448
 5185SOL     OW16012   3.328   3.279   2.815
 5185SOL    HW116013   3.269   3.285   2.895
 5185SOL    HW216014   3.313   3.191   2.769
 5186SOL     OW16015   3.529   3.576   2.434
 5186SOL    HW116016   3.488   3.553   2.346
 5186SOL    HW216017   3.511   3.502   2.499
 5187SOL     OW16018   2.460   2.591   2.132
 5187SOL    HW116019   2.484   2.660   2.064
 5187SOL    HW216020   2.382   2.624   2.186
 5188SOL     OW16021   3.143   2.207   2.806
 5188SOL    HW116022   3.057   2.157   2.793
 5188SOL    HW216023   3.205   2.153   2.862
 5189SOL     OW16024   3.438   3.524   2.169
 5189SOL    HW116025   3.527   3.570   2.172
 5189SOL    HW216026   3.417   3.500   2.074
 5190SOL     OW16027   2.669   2.467   3.327
 5190SOL    HW116028   2.622   2.464   3.416
 5190SOL    HW216029   2.618   2.412   3.261
 5191SOL     OW16030   3.256   2.331   3.536
 5191SOL    HW116031   3.236   2.374   3.624
 5191SOL    HW216032   3.334   2.269   3.545
 5192SOL     OW16033   2.835   2.752   3.434
 5192SOL    HW116034   2.881   2.668   3.405
 5192SOL    HW216035   2.779   2.786   3.359
 5193SOL     OW16036   2.853   2.272   3.104
 5193SOL    HW116037   2.776   2.306   3.158
 5193SOL    HW216038   2.819   2.221   3.025
 5194SOL     OW16039   2.903   2.563   2.291
 5194SOL    HW116040   2.929   2.559   2.387
 5194SOL    HW216041   2.818   2.512   2.277
 5195SOL     OW16042   1.938   2.673   2.651
 5195SOL    HW116043   2.037   2.661   2.660
 5195SOL    HW216044   1.914   2.768   2.672
 5196SOL     OW16045   1.992   3.683   3.433
 5196SOL    HW116046   1.982   3.668   3.532
 5196SOL    HW216047   1.906   3.719   3.397
 5197SOL     OW16048   2.727   2.210   2.057
 5197SOL    HW116049   2.786   2.273   2.008
 5197SOL    HW216050   2.746   2.116   2.028
 5198SOL     OW16051   3.581   2.447   3.693
 5198SOL    HW116052   3.555   2.536   3.657
 5198SOL    HW216053   3.579   2.379   3.620
 5199SOL     OW16054   3.224   3.006   2.407
 5199SOL    HW116055   3.307   2.977   2.359
 5199SOL    HW216056   3.175   3.073   2.351
 5200SOL     OW16057   2.412   2.058   2.747
 5200SOL    HW116058   2.407   2.053   2.847
 5200SOL    HW216059   2.414   2.154   2.718
 5201SOL     OW16060   2.870   3.318   2.339
 5201SOL    HW116061   2.824   3.390   2.287
 5201SOL    HW216062   2.866   3.338   2.437
 5202SOL     OW16063   2.213   3.663   2.715
 5202SOL    HW116064   2.263   3.577   2.721
 5202SOL    HW216065   2.278   3.740   2.712
 5203SOL     OW16066   3.657   2.928   2.735
 5203SOL    HW116067   3.595   2.913   2.659
 5203SOL    HW216068   3.605   2.939   2.820
 5204SOL     OW16069   3.089   3.412   3.368
 5204SOL    HW116070   3.095   3.335   3.432
 5204SOL    HW216071   3.037   3.386   3.288
 5205SOL     OW16072   2.183   2.805   2.104
 5205SOL    HW116073   2.265   2.844   2.062
 5205SOL    HW216074   2.156   2.723   2.055
 5206SOL     OW16075   3.320   2.597   2.590
 5206SOL    HW116076   3.315   2.532   2.665
 5206SOL    HW216077   3.400   2.656   2.603
 5207SOL     OW16078   2.323   3.128   3.589
 5207SOL    HW116079   2.273   3.129   3.503
 5207SOL    HW216080   2.260   3.110   3.665
 5208SOL     OW16081   2.973   3.638   2.099
 5208SOL    HW116082   2.913   3.576   2.149
 5208SOL    HW216083   3.004   3.594   2.014
 5209SOL     OW16084   3.494   3.239   1.943
 5209SOL    HW116085   3.462   3.333   1.933
 5209SOL    HW216086   3.418   3.176   1.931
 5210SOL     OW16087   2.326   3.605   2.185
 5210SOL    HW116088   2.359   3.644   2.271
 5210SOL    HW216089   2.402   3.598   2.120
 5211SOL     OW16090   3.262   1.969   2.288
 5211SOL    HW116091   3.238   1.932   2.198
 5211SOL    HW216092   3.361   1.985   2.292
 5212SOL     OW16093   2.111   3.647   3.103
 5212SOL    HW116094   2.168   3.582   3.153
 5212SOL    HW216095   2.095   3.614   3.010
 5213SOL     OW16096   2.802   3.560   2.766
 5213SOL    HW116097   2.882   3.503   2.787
 5213SOL    HW216098   2.753   3.520   2.689
 5214SOL     OW16099   2.244   2.562   2.342
 5214SOL    HW116100   2.289   2.472   2.339
 5214SOL    HW216101   2.150   2.551   2.375
 5215SOL     OW16102   3.409   2.084   3.591
 5215SOL    HW116103   3.404   2.121   3.683
 5215SOL    HW216104   3.337   2.015   3.579
 5216SOL     OW16105   2.476   1.984   1.979
 5216SOL    HW116106   2.574   1.962   1.986
 5216SOL    HW216107   2.445   1.967   1.886
 5217SOL     OW16108   2.643   2.126   3.611
 5217SOL    HW116109   2.710   2.065   3.654
 5217SOL    HW216110   2.570   2.145   3.676
 5218SOL     OW16111   2.750   3.376   3.057
 5218SOL    HW116112   2.727   3.351   2.963
 5218SOL    HW216113   2.811   3.307   3.096
 5219SOL     OW16114   3.213   2.452   3.295
 5219SOL    HW116115   3.241   2.409   3.380
 5219SOL    HW216116   3.238   2.548   3.296
 5220SOL     OW16117   2.665   3.264   2.786
 5220SOL    HW116118   2.755   3.278   2.744
 5220SOL    HW216119   2.594   3.266   2.715
 5221SOL     OW16120   2.784   2.365   2.761
 5221SOL    HW116121   2.759   2.356   2.665
 5221SOL    HW216122   2.832   2.283   2.792
 5222SOL     OW16123   2.401   1.926   2.374
 5222SOL    HW116124   2.320   1.927   2.432
 5222SOL    HW216125   2.404   2.009   2.319
 5223SOL     OW16126   3.296   3.050   1.903
 5223SOL    HW116127   3.328   2.974   1.960
 5223SOL    HW216128   3.204   3.077   1.933
 5224SOL     OW16129   2.797   2.098   2.342
 5224SOL    HW116130   2.749   2.139   2.264
 5224SOL    HW216131   2.896   2.096   2.323
 5225SOL     OW16132   2.938   2.545   3.326
 5225SOL    HW116133   2.858   2.484   3.329
 5225SOL    HW216134   3.019   2.492   3.302
 5226SOL     OW16135   3.089   3.432   2.655
 5226SOL    HW116136   3.110   3.506   2.590
 5226SOL    HW216137   3.157   3.432   2.728
 5227SOL     OW16138   2.321   3.014   2.603
 5227SOL    HW116139   2.250   2.987   2.668
 5227SOL    HW216140   2.295   2.986   2.510
 5228SOL     OW16141   3.133   3.659   2.453
 5228SOL    HW116142   3.177   3.723   2.389
 5228SOL    HW216143   3.083   3.711   2.523
 5229SOL     OW16144   2.894   2.411   1.878
 5229SOL    HW116145   2.853   2.493   1.839
 5229SOL    HW216146   2.958   2.437   1.951
 5230SOL     OW16147   1.940   2.418   3.248
 5230SOL    HW116148   2.032   2.417   3.207
 5230SOL    HW216149   1.934   2.492   3.315
 5231SOL     OW16150   2.423   2.084   3.009
 5231SOL    HW116151   2.461   2.000   3.046
 5231SOL    HW216152   2.335   2.103   3.053
 5232SOL     OW16153   2.728   2.316   2.504
 5232SOL    HW116154   2.696   2.388   2.442
 5232SOL    HW216155   2.752   2.235   2.451
 5233SOL     OW16156   2.879   1.901   2.615
 5233SOL    HW116157   2.807   1.906   2.546
 5233SOL    HW216158   2.855   1.832   2.684
 5234SOL     OW16159   3.291   3.035   2.729
 5234SOL    HW116160   3.236   2.951   2.722
 5234SOL    HW216161   3.317   3.064   2.637
 5235SOL     OW16162   3.328   2.452   2.854
 5235SOL    HW116163   3.298   2.357   2.861
 5235SOL    HW216164   3.401   2.468   2.920
 5236SOL     OW16165   3.719   2.695   2.239
 5236SOL    HW116166   3.761   2.631   2.303
 5236SOL    HW216167   3.681   2.644   2.161
 5237SOL     OW16168   2.350   3.247   2.036
 5237SOL    HW116169   2.263   3.232   2.083
 5237SOL    HW216170   2.333   3.273   1.941
 5238SOL     OW16171   3.526   3.142   2.519
 5238SOL    HW116172   3.625   3.150   2.533
 5238SOL    HW216173   3.481   3.226   2.550
 5239SOL     OW16174   3.252   2.437   1.940
 5239SOL    HW116175   3.198   2.416   2.021
 5239SOL    HW216176   3.343   2.396   1.949
 5240SOL     OW16177   2.389   2.118   2.190
 5240SOL    HW116178   2.416   2.059   2.115
 5240SOL    HW216179   2.389   2.213   2.159
 5241SOL     OW16180   3.616   3.085   3.450
 5241SOL    HW116181   3.707   3.046   3.437
 5241SOL    HW216182   3.624   3.181   3.474
 5242SOL     OW16183   2.926   3.209   3.202
 5242SOL    HW116184   2.846   3.186   3.257
 5242SOL    HW216185   3.009   3.183   3.251
 5243SOL     OW16186   3.454   3.491   3.487
 5243SOL    HW116187   3.481   3.525   3.397
 5243SOL    HW216188   3.533   3.453   3.533
 5244SOL     OW16189   2.973   3.057   2.962
 5244SOL    HW116190   2.933   3.101   3.043
 5244SOL    HW216191   2.932   3.094   2.879
 5245SOL     OW16192   3.500   2.961   2.941
 5245SOL    HW116193   3.505   3.042   3.000
 5245SOL    HW216194   3.414   2.963   2.890
 5246SOL     OW16195   2.777   1.951   3.264
 5246SOL    HW116196   2.802   1.931   3.169
 5246SOL    HW216197   2.849   2.007   3.306
 5247SOL     OW16198   2.842   2.978   3.581
 5247SOL    HW116199   2.743   2.984   3.591
 5247SOL    HW216200   2.865   2.898   3.525
 5248SOL     OW16201   2.567   2.912   2.230
 5248SOL    HW116202   2.553   2.919   2.329
 5248SOL    HW216203   2.651   2.861   2.212
 5249SOL     OW16204   2.272   2.675   3.113
 5249SOL    HW116205   2.358   2.687   3.163
 5249SOL    HW216206   2.230   2.588   3.140
 5250SOL     OW16207   3.136   2.248   3.124
 5250SOL    HW116208   3.157   2.322   3.188
 5250SOL    HW216209   3.047   2.265   3.081
 5251SOL     OW16210   1.926   3.426   3.193
 5251SOL    HW116211   1.880   3.508   3.159
 5251SOL    HW216212   2.024   3.445   3.202
 5252SOL     OW16213   2.229   2.962   2.363
 5252SOL    HW116214   2.222   3.045   2.307
 5252SOL    HW216215   2.233   2.882   2.303
 5253SOL     OW16216   2.428   2.399   2.727
 5253SOL    HW116217   2.440   2.465   2.653
 5253SOL    HW216218   2.474   2.433   2.810
 5254SOL     OW16219   3.114   3.210   2.250
 5254SOL    HW116220   3.164   3.287   2.290
 5254SOL    HW216221   3.019   3.212   2.282
 5255SOL     OW16222   3.134   3.307   3.004
 5255SOL    HW116223   3.181   3.320   3.091
 5255SOL    HW216224   3.068   3.233   3.013
 5256SOL     OW16225   3.444   2.501   2.334
 5256SOL    HW116226   3.413   2.562   2.407
 5256SOL    HW216227   3.494   2.553   2.265
 5257SOL     OW16228   2.216   3.372   3.191
 5257SOL    HW116229   2.195   3.328   3.104
 5257SOL    HW216230   2.313   3.398   3.194
 5258SOL     OW16231   2.264   2.613   3.460
 5258SOL    HW116232   2.332   2.668   3.413
 5258SOL    HW216233   2.304   2.525   3.487
 5259SOL     OW16234   3.449   2.641   3.532
 5259SOL    HW116235   3.357   2.679   3.527
 5259SOL    HW216236   3.509   2.688   3.467
 5260SOL     OW16237   2.875   1.967   3.632
 5260SOL    HW116238   2.881   2.052   3.580
 5260SOL    HW216239   2.907   1.891   3.575
 5261SOL     OW16240   2.366   1.912   3.602
 5261SOL    HW116241   2.324   1.855   3.532
 5261SOL    HW216242   2.300   1.981   3.634
 5262SOL     OW16243   2.435   2.732   2.891
 5262SOL    HW116244   2.479   2.821   2.882
 5262SOL    HW216245   2.372   2.732   2.968
 5263SOL     OW16246   3.222   2.724   2.907
 5263SOL    HW116247   3.147   2.724   2.841
 5263SOL    HW216248   3.259   2.632   2.916
 5264SOL     OW16249   3.071   2.387   2.137
 5264SOL    HW116250   3.084   2.303   2.191
 5264SOL    HW216251   3.042   2.461   2.197
 5265SOL     OW16252   1.899   3.172   3.144
 5265SOL    HW116253   1.952   3.123   3.212
 5265SOL    HW216254   1.921   3.270   3.149
 5266SOL     OW16255   2.594   2.496   2.926
 5266SOL    HW116256   2.653   2.470   2.850
 5266SOL    HW216257   2.566   2.592   2.915
 5267SOL     OW16258   3.590   2.797   3.716
 5267SOL    HW116259   3.544   2.790   3.627
 5267SOL    HW216260   3.528   2.841   3.782
 5268SOL     OW16261   2.169   1.925   2.480
 5268SOL    HW116262   2.158   2.019   2.513
 5268SOL    HW216263   2.164   1.862   2.557
 5269SOL     OW16264   3.484   2.229   2.236
 5269SOL    HW116265   3.486   2.153   2.300
 5269SOL    HW216266   3.436   2.306   2.276
 5270SOL     OW16267   2.885   2.628   2.828
 5270SOL    HW116268   2.900   2.649   2.924
 5270SOL    HW216269   2.855   2.533   2.819
 5271SOL     OW16270   2.842   3.435   3.562
 5271SOL    HW116271   2.822   3.479   3.474
 5271SOL    HW216272   2.881   3.344   3.546
 5272SOL     OW16273   3.721   3.380   3.467
 5272SOL    HW116274   3.735   3.407   3.372
 5272SOL    HW216275   3.804   3.402   3.520
 5273SOL     OW16276   2.212   2.760   3.666
 5273SOL    HW116277   2.288   2.804   3.714
 5273SOL    HW216278   2.247   2.713   3.584
 5274SOL     OW16279   3.402   2.136   1.987
 5274SOL    HW116280   3.341   2.061   2.010
 5274SOL    HW216281   3.424   2.188   2.070
 5275SOL     OW16282   3.165   2.700   1.904
 5275SOL    HW116283   3.199   2.607   1.919
 5275SOL    HW216284   3.183   2.727   1.809
 5276SOL     OW16285   2.930   3.195   2.711
 5276SOL    HW116286   2.937   3.111   2.656
 5276SOL    HW216287   2.992   3.264   2.675
 5277SOL     OW16288   2.181   2.672   2.811
 5277SOL    HW116289   2.274   2.708   2.816
 5277SOL    HW216290   2.175   2.587   2.863
 5278SOL     OW16291   2.201   2.371   2.868
 5278SOL    HW116292   2.149   2.288   2.851
 5278SOL    HW216293   2.278   2.376   2.804
 5279SOL     OW16294   3.000   2.242   3.540
 5279SOL    HW116295   2.955   2.305   3.604
 5279SOL    HW216296   3.093   2.273   3.523
 5280SOL     OW16297   3.022   2.069   3.339
 5280SOL    HW116298   3.022   2.133   3.416
 5280SOL    HW216299   3.050   2.117   3.256
 5281SOL     OW16300   1.870   3.188   2.062
 5281SOL    HW116301   1.777   3.209   2.031
 5281SOL    HW216302   1.880   3.089   2.075
 5282SOL     OW16303   1.950   3.663   2.789
 5282SOL    HW116304   1.908   3.577   2.762
 5282SOL    HW216305   2.044   3.666   2.755
 5283SOL     OW16306   2.366   3.430   2.772
 5283SOL    HW116307   2.432   3.504   2.781
 5283SOL    HW216308   2.410   3.351   2.730
 5284SOL     OW16309   2.864   2.658   3.100
 5284SOL    HW116310   2.905   2.626   3.186
 5284SOL    HW216311   2.768   2.631   3.097
 5285SOL     OW16312   1.902   2.406   2.976
 5285SOL    HW116313   1.987   2.373   2.935
 5285SOL    HW216314   1.915   2.421   3.074
 5286SOL     OW16315   2.051   2.382   3.584
 5286SOL    HW116316   2.110   2.342   3.514
 5286SOL    HW216317   1.993   2.453   3.543
 5287SOL     OW16318   3.231   2.812   3.522
 5287SOL    HW116319   3.270   2.901   3.542
 5287SOL    HW216320   3.241   2.792   3.425
 5288SOL     OW16321   2.677   2.434   2.187
 5288SOL    HW116322   2.684   2.345   2.141
 5288SOL    HW216323   2.583   2.468   2.179
 5289SOL     OW16324   3.519   2.466   3.068
 5289SOL    HW116325   3.481   2.397   3.130
 5289SOL    HW216326   3.601   2.430   3.024
 5290SOL     OW16327   2.114   3.426   3.606
 5290SOL    HW116328   2.084   3.483   3.682
 5290SOL    HW216329   2.107   3.329   3.632
 5291SOL     OW16330   2.533   2.326   3.131
 5291SOL    HW116331   2.499   2.237   3.101
 5291SOL    HW216332   2.559   2.380   3.051
 5292SOL     OW16333   2.792   3.540   3.327
 5292SOL    HW116334   2.768   3.522   3.232
 5292SOL    HW216335   2.822   3.634   3.337
 5293SOL     OW16336   2.335   2.362   2.053
 5293SOL    HW116337   2.396   2.442   2.057
 5293SOL    HW216338   2.240   2.393   2.060
 5294SOL     OW16339   2.021   2.999   3.328
 5294SOL    HW116340   2.043   2.938   3.404
 5294SOL    HW216341   2.031   2.950   3.242
 5295SOL     OW16342   3.209   2.921   3.096
 5295SOL    HW116343   3.233   2.858   3.022
 5295SOL    HW216344   3.119   2.961   3.078
 5296SOL     OW16345   3.164   2.717   2.171
 5296SOL    HW116346   3.078   2.686   2.213
 5296SOL    HW216347   3.160   2.703   2.072
 5297SOL     OW16348   3.621   3.609   3.016
 5297SOL    HW116349   3.682   3.639   2.943
 5297SOL    HW216350   3.583   3.520   2.994
 5298SOL     OW16351   3.114   3.593   2.990
 5298SOL    HW116352   3.198   3.598   2.936
 5298SOL    HW216353   3.091   3.497   3.008
 5299SOL     OW16354   1.945   3.120   2.884
 5299SOL    HW116355   1.940   3.119   2.984
 5299SOL    HW216356   1.862   3.079   2.846
 5300SOL     OW16357   2.550   3.524   3.578
 5300SOL    HW116358   2.494   3.605   3.587
 5300SOL    HW216359   2.602   3.528   3.492
 5301SOL     OW16360   3.588   1.997   2.385
 5301SOL    HW116361   3.661   1.980   2.318
 5301SOL    HW216362   3.557   1.910   2.423
 5302SOL     OW16363   3.250   3.435   2.339
 5302SOL    HW116364   3.317   3.447   2.265
 5302SOL    HW216365   3.210   3.524   2.362
 5303SOL     OW16366   1.992   3.656   3.713
 5303SOL    HW116367   1.951   3.582   3.766
 5303SOL    HW216368   2.056   3.707   3.771
 5304SOL     OW16369   3.142   2.789   2.534
 5304SOL    HW116370   3.202   2.708   2.536
 5304SOL    HW216371   3.182   2.858   2.474
 5305SOL     OW16372   2.692   3.135   3.284
 5305SOL    HW116373   2.687   3.168   3.379
 5305SOL    HW216374   2.606   3.154   3.238
 5306SOL     OW16375   2.534   3.478   2.016
 5306SOL    HW116376   2.543   3.488   1.917
 5306SOL    HW216377   2.494   3.389   2.037
 5307SOL     OW16378   3.512   3.582   3.256
 5307SOL    HW116379   3.565   3.592   3.172
 5307SOL    HW216380   3.485   3.672   3.290
 5308SOL     OW16381   3.703   2.037   2.825
 5308SOL    HW116382   3.742   1.952   2.789
 5308SOL    HW216383   3.605   2.039   2.806
 5309SOL     OW16384   3.056   3.474   1.893
 5309SOL    HW116385   3.062   3.381   1.930
 5309SOL    HW216386   2.997   3.474   1.813
 5310SOL     OW16387   2.684   2.864   3.234
 5310SOL    HW116388   2.724   2.863   3.142
 5310SOL    HW216389   2.694   2.956   3.274
 5311SOL     OW16390   2.778   2.772   2.153
 5311SOL    HW116391   2.841   2.810   2.085
 5311SOL    HW216392   2.818   2.689   2.192
 5312SOL     OW16393   3.366   3.469   1.906
 5312SOL    HW116394   3.274   3.506   1.913
 5312SOL    HW216395   3.404   3.489   1.816
 5313SOL     OW16396   2.234   3.150   3.352
 5313SOL    HW116397   2.221   3.243   3.318
 5313SOL    HW216398   2.150   3.098   3.339
 5314SOL     OW16399   3.476   3.154   3.151
 5314SOL    HW116400   3.536   3.157   3.231
 5314SOL    HW216401   3.401   3.218   3.164
 5315SOL     OW16402   2.901   2.960   2.558
 5315SOL    HW116403   2.831   2.913   2.612
 5315SOL    HW216404   2.960   2.892   2.515
 5316SOL     OW16405   2.876   2.098   2.833
 5316SOL    HW116406   2.868   2.062   2.740
 5316SOL    HW216407   2.874   2.022   2.898
 5317SOL     OW16408   2.452   3.349   2.353
 5317SOL    HW116409   2.494   3.291   2.283
 5317SOL    HW216410   2.408   3.428   2.309
 5318SOL     OW16411   3.571   2.247   3.243
 5318SOL    HW116412   3.644   2.316   3.247
 5318SOL    HW216413   3.599   2.172   3.184
 5319SOL     OW16414   2.117   3.210   2.152
 5319SOL    HW116415   2.021   3.211   2.125
 5319SOL    HW216416   2.129   3.263   2.236
 5320SOL     OW16417   1.967   2.875   3.588
 5320SOL    HW116418   1.890   2.842   3.642
 5320SOL    HW216419   2.052   2.845   3.630
 5321SOL     OW16420   2.534   2.065   3.351
 5321SOL    HW116421   2.624   2.049   3.311
 5321SOL    HW216422   2.542   2.070   3.450
 5322SOL     OW16423   1.937   2.207   1.895
 5322SOL    HW116424   1.845   2.179   1.866
 5322SOL    HW216425   1.968   2.284   1.839
 5323SOL     OW16426   3.302   2.718   3.260
 5323SOL    HW116427   3.245   2.770   3.197
 5323SOL    HW216428   3.398   2.730   3.236
 5324SOL     OW16429   3.045   3.197   1.981
 5324SOL    HW116430   2.946   3.186   1.983
 5324SOL    HW216431   3.079   3.212   2.074
 5325SOL     OW16432   2.475   2.704   3.293
 5325SOL    HW116433   2.531   2.785   3.276
 5325SOL    HW216434   2.534   2.624   3.296
 5326SOL     OW16435   3.355   3.629   2.821
 5326SOL    HW116436   3.388   3.693   2.752
 5326SOL    HW216437   3.421   3.623   2.896
 5327SOL     OW16438   2.578   2.427   3.570
 5327SOL    HW116439   2.597   2.492   3.644
 5327SOL    HW216440   2.638   2.347   3.579
 5328SOL     OW16441   3.312   3.082   3.495
 5328SOL    HW116442   3.303   3.072   3.594
 5328SOL    HW216443   3.408   3.075   3.469
 5329SOL     OW16444   2.252   3.603   3.422
 5329SOL    HW116445   2.161   3.644   3.420
 5329SOL    HW216446   2.245   3.509   3.454
 5330SOL     OW16447   3.536   2.745   3.116
 5330SOL    HW116448   3.509   2.656   3.079
 5330SOL    HW216449   3.537   2.813   3.043
 5331SOL     OW16450   3.087   2.187   2.311
 5331SOL    HW116451   3.152   2.113   2.300
 5331SOL    HW216452   3.107   2.237   2.395
 5332SOL     OW16453   2.456   2.607   2.514
 5332SOL    HW116454   2.506   2.692   2.495
 5332SOL    HW216455   2.368   2.609   2.466
 5333SOL     OW16456   3.639   2.204   3.504
 5333SOL    HW116457   3.622   2.235   3.410
 5333SOL    HW216458   3.555   2.167   3.542
 5334SOL     OW16459   3.592   2.796   3.379
 5334SOL    HW116460   3.630   2.887   3.394
 5334SOL    HW216461   3.584   2.779   3.280
 5335SOL     OW16462   2.721   3.236   1.878
 5335SOL    HW116463   2.675   3.251   1.966
 5335SOL    HW216464   2.765   3.321   1.848
 5336SOL     OW16465   2.523   3.652   2.815
 5336SOL    HW116466   2.477   3.740   2.802
 5336SOL    HW216467   2.622   3.664   2.808
 5337SOL     OW16468   2.721   2.818   2.723
 5337SOL    HW116469   2.775   2.749   2.771
 5337SOL    HW216470   2.689   2.887   2.789
 5338SOL     OW16471   2.945   2.846   1.949
 5338SOL    HW116472   2.922   2.899   1.867
 5338SOL    HW216473   3.026   2.790   1.930
 5339SOL     OW16474   3.723   3.431   2.713
 5339SOL    HW116475   3.652   3.419   2.643
 5339SOL    HW216476   3.724   3.352   2.773
 5340SOL     OW16477   2.083   3.176   3.706
 5340SOL    HW116478   2.018   3.103   3.685
 5340SOL    HW216479   2.087   3.190   3.804
 5341SOL     OW16480   1.941   3.102   2.515
 5341SOL    HW116481   1.940   3.055   2.603
 5341SOL    HW216482   2.023   3.074   2.464
 5342SOL     OW16483   2.534   3.253   3.486
 5342SOL    HW116484   2.456   3.203   3.524
 5342SOL    HW216485   2.531   3.348   3.517
 5343SOL     OW16486   3.686   2.054   3.089
 5343SOL    HW116487   3.682   1.964   3.133
 5343SOL    HW216488   3.689   2.043   2.990
 5344SOL     OW16489   2.290   2.286   2.382
 5344SOL    HW116490   2.320   2.214   2.320
 5344SOL    HW216491   2.251   2.246   2.465
 5345SOL     OW16492   3.567   3.349   2.966
 5345SOL    HW116493   3.474   3.324   2.939
 5345SOL    HW216494   3.593   3.299   3.048
 5346SOL     OW16495   2.179   2.409   3.142
 5346SOL    HW116496   2.217   2.350   3.214
 5346SOL    HW216497   2.219   2.383   3.054
 5347SOL     OW16498   2.674   3.448   2.549
 5347SOL    HW116499   2.706   3.458   2.455
 5347SOL    HW216500   2.595   3.386   2.551
 5348SOL     OW16501   3.286   2.076   2.974
 5348SOL    HW116502   3.338   2.011   3.029
 5348SOL    HW216503   3.237   2.139   3.035
 5349SOL     OW16504   2.863   1.896   3.016
 5349SOL    HW116505   2.800   1.824   2.985
 5349SOL    HW216506   2.956   1.860   3.016
 5350SOL     OW16507   2.632   3.192   2.163
 5350SOL    HW116508   2.586   3.105   2.180
 5350SOL    HW216509   2.723   3.189   2.204
 5351SOL     OW16510   2.480   3.429   3.146
 5351SOL    HW116511   2.475   3.511   3.203
 5351SOL    HW216512   2.569   3.426   3.101
 5352SOL     OW16513   3.214   1.914   2.030
 5352SOL    HW116514   3.249   1.873   1.946
 5352SOL    HW216515   3.124   1.876   2.050
 5353SOL     OW16516   3.162   2.315   2.553
 5353SOL    HW116517   3.103   2.395   2.557
 5353SOL    HW216518   3.177   2.280   2.646
 5354SOL     OW16519   3.455   2.083   2.744
 5354SOL    HW116520   3.371   2.082   2.798
 5354SOL    HW216521   3.457   2.166   2.688
 5355SOL     OW16522   1.901   2.939   2.162
 5355SOL    HW116523   2.000   2.928   2.153
 5355SOL    HW216524   1.861   2.853   2.194
 5356SOL     OW16525   2.737   3.508   2.199
 5356SOL    HW116526   2.660   3.473   2.145
 5356SOL    HW216527   2.705   3.579   2.261
 5357SOL     OW16528   2.092   2.490   3.837
 5357SOL    HW116529   1.999   2.488   3.874
 5357SOL    HW216530   2.093   2.451   3.745
 5358SOL     OW16531   1.881   2.230   4.371
 5358SOL    HW116532   1.799   2.273   4.410
 5358SOL    HW216533   1.853   2.157   4.308
 5359SOL     OW16534   2.431   3.137   4.889
 5359SOL    HW116535   2.338   3.130   4.852
 5359SOL    HW216536   2.442   3.226   4.933
 5360SOL     OW16537   3.417   3.373   4.427
 5360SOL    HW116538   3.360   3.357   4.508
 5360SOL    HW216539   3.358   3.383   4.347
 5361SOL     OW16540   2.997   2.565   4.441
 5361SOL    HW116541   3.054   2.643   4.416
 5361SOL    HW216542   2.937   2.591   4.517
 5362SOL     OW16543   3.617   2.469   3.955
 5362SOL    HW116544   3.605   2.456   3.856
 5362SOL    HW216545   3.587   2.388   4.004
 5363SOL     OW16546   2.630   3.006   4.747
 5363SOL    HW116547   2.552   3.023   4.807
 5363SOL    HW216548   2.664   3.093   4.711
 5364SOL     OW16549   2.712   2.660   5.547
 5364SOL    HW116550   2.708   2.736   5.612
 5364SOL    HW216551   2.734   2.696   5.456
 5365SOL     OW16552   2.547   2.874   4.389
 5365SOL    HW116553   2.616   2.858   4.459
 5365SOL    HW216554   2.474   2.931   4.427
 5366SOL     OW16555   2.548   3.023   5.527
 5366SOL    HW116556   2.608   3.102   5.541
 5366SOL    HW216557   2.462   3.054   5.486
 5367SOL     OW16558   2.197   3.297   4.785
 5367SOL    HW116559   2.119   3.266   4.732
 5367SOL    HW216560   2.255   3.355   4.728
 5368SOL     OW16561   3.322   3.367   5.063
 5368SOL    HW116562   3.346   3.461   5.089
 5368SOL    HW216563   3.306   3.313   5.145
 5369SOL     OW16564   2.300   2.254   5.223
 5369SOL    HW116565   2.382   2.198   5.232
 5369SOL    HW216566   2.219   2.196   5.227
 5370SOL     OW16567   3.465   2.309   4.461
 5370SOL    HW116568   3.391   2.355   4.411
 5370SOL    HW216569   3.516   2.377   4.514
 5371SOL     OW16570   2.093   3.575   4.207
 5371SOL    HW116571   2.127   3.652   4.261
 5371SOL    HW216572   2.137   3.575   4.117
 5372SOL     OW16573   2.989   3.203   5.414
 5372SOL    HW116574   3.036   3.203   5.502
 5372SOL    HW216575   2.941   3.116   5.403
 5373SOL     OW16576   2.092   3.296   4.262
 5373SOL    HW116577   2.066   3.392   4.262
 5373SOL    HW216578   2.021   3.242   4.307
 5374SOL     OW16579   2.102   2.953   4.610
 5374SOL    HW116580   2.116   2.869   4.662
 5374SOL    HW216581   2.047   3.017   4.665
 5375SOL     OW16582   2.482   3.648   5.163
 5375SOL    HW116583   2.390   3.631   5.198
 5375SOL    HW216584   2.510   3.740   5.189
 5376SOL     OW16585   2.468   2.826   3.847
 5376SOL    HW116586   2.475   2.910   3.793
 5376SOL    HW216587   2.514   2.839   3.935
 5377SOL     OW16588   3.456   1.976   5.204
 5377SOL    HW116589   3.438   2.043   5.132
 5377SOL    HW216590   3.453   2.022   5.293
 5378SOL     OW16591   1.984   2.505   4.287
 5378SOL    HW116592   1.939   2.417   4.304
 5378SOL    HW216593   1.983   2.559   4.371
 5379SOL     OW16594   3.704   3.629   4.083
 5379SOL    HW116595   3.758   3.600   4.163
 5379SOL    HW216596   3.734   3.719   4.054
 5380SOL     OW16597   1.889   3.458   3.841
 5380SOL    HW116598   1.870   3.362   3.862
 5380SOL    HW216599   1.856   3.516   3.916
 5381SOL     OW16600   3.551   2.784   4.336
 5381SOL    HW116601   3.646   2.755   4.344
 5381SOL    HW216602   3.543   2.849   4.261
 5382SOL     OW16603   3.503   2.970   4.156
 5382SOL    HW116604   3.589   2.972   4.104
 5382SOL    HW216605   3.517   3.017   4.244
 5383SOL     OW16606   1.975   2.599   5.321
 5383SOL    HW116607   2.063   2.586   5.366
 5383SOL    HW216608   1.962   2.696   5.299
 5384SOL     OW16609   2.475   3.227   4.450
 5384SOL    HW116610   2.426   3.140   4.459
 5384SOL    HW216611   2.452   3.270   4.363
 5385SOL     OW16612   3.155   3.090   5.147
 5385SOL    HW116613   3.192   3.017   5.089
 5385SOL    HW216614   3.207   3.095   5.232
 5386SOL     OW16615   2.671   1.866   4.226
 5386SOL    HW116616   2.711   1.957   4.217
 5386SOL    HW216617   2.571   1.874   4.232
 5387SOL     OW16618   2.059   2.838   4.988
 5387SOL    HW116619   2.148   2.793   4.974
 5387SOL    HW216620   1.986   2.773   4.969
 5388SOL     OW16621   3.387   2.861   3.914
 5388SOL    HW116622   3.324   2.785   3.927
 5388SOL    HW216623   3.435   2.879   4.000
 5389SOL     OW16624   3.049   3.654   5.340
 5389SOL    HW116625   3.073   3.714   5.264
 5389SOL    HW216626   3.056   3.559   5.310
 5390SOL     OW16627   3.328   3.279   4.677
 5390SOL    HW116628   3.269   3.285   4.757
 5390SOL    HW216629   3.313   3.191   4.631
 5391SOL     OW16630   3.529   3.576   4.296
 5391SOL    HW116631   3.488   3.553   4.208
 5391SOL    HW216632   3.511   3.502   4.361
 5392SOL     OW16633   2.460   2.591   3.994
 5392SOL    HW116634   2.484   2.660   3.926
 5392SOL    HW216635   2.382   2.624   4.048
 5393SOL     OW16636   3.143   2.207   4.668
 5393SOL    HW116637   3.057   2.157   4.655
 5393SOL    HW216638   3.205   2.153   4.724
 5394SOL     OW16639   3.438   3.524   4.031
 5394SOL    HW116640   3.527   3.570   4.034
 5394SOL    HW216641   3.417   3.500   3.936
 5395SOL     OW16642   2.669   2.467   5.189
 5395SOL    HW116643   2.622   2.464   5.278
 5395SOL    HW216644   2.618   2.412   5.123
 5396SOL     OW16645   3.256   2.331   5.398
 5396SOL    HW116646   3.236   2.374   5.486
 5396SOL    HW216647   3.334   2.269   5.407
 5397SOL     OW16648   2.835   2.752   5.296
 5397SOL    HW116649   2.881   2.668   5.267
 5397SOL    HW216650   2.779   2.786   5.221
 5398SOL     OW16651   2.853   2.272   4.966
 5398SOL    HW116652   2.776   2.306   5.020
 5398SOL    HW216653   2.819   2.221   4.887
 5399SOL     OW16654   2.903   2.563   4.153
 5399SOL    HW116655   2.929   2.559   4.249
 5399SOL    HW216656   2.818   2.512   4.139
 5400SOL     OW16657   1.938   2.673   4.513
 5400SOL    HW116658   2.037   2.661   4.522
 5400SOL    HW216659   1.914   2.768   4.534
 5401SOL     OW16660   1.992   3.683   5.295
 5401SOL    HW116661   1.982   3.668   5.394
 5401SOL    HW216662   1.906   3.719   5.259
 5402SOL     OW16663   2.727   2.210   3.919
 5402SOL    HW116664   2.786   2.273   3.870
 5402SOL    HW216665   2.746   2.116   3.890
 5403SOL     OW16666   3.581   2.447   5.555
 5403SOL    HW116667   3.555   2.536   5.519
 5403SOL    HW216668   3.579   2.379   5.482
 5404SOL     OW16669   3.224   3.006   4.269
 5404SOL    HW116670   3.307   2.977   4.221
 5404SOL    HW216671   3.175   3.073   4.213
 5405SOL     OW16672   2.412   2.058   4.609
 5405SOL    HW116673   2.407   2.053   4.709
 5405SOL    HW216674   2.414   2.154   4.580
 5406SOL     OW16675   2.870   3.318   4.201
 5406SOL    HW116676   2.824   3.390   4.149
 5406SOL    HW216677   2.866   3.338   4.299
 5407SOL     OW16678   2.213   3.663   4.577
 5407SOL    HW116679   2.263   3.577   4.583
 5407SOL    HW216680   2.278   3.740   4.574
 5408SOL     OW16681   3.657   2.928   4.597
 5408SOL    HW116682   3.595   2.913   4.521
 5408SOL    HW216683   3.605   2.939   4.682
 5409SOL     OW16684   3.089   3.412   5.230
 5409SOL    HW116685   3.095   3.335   5.294
 5409SOL    HW216686   3.037   3.386   5.150
 5410SOL     OW16687   2.183   2.805   3.966
 5410SOL    HW116688   2.265   2.844   3.924
 5410SOL    HW216689   2.156   2.723   3.917
 5411SOL     OW16690   3.320   2.597   4.452
 5411SOL    HW116691   3.315   2.532   4.527
 5411SOL    HW216692   3.400   2.656   4.465
 5412SOL     OW16693   2.323   3.128   5.451
 5412SOL    HW116694   2.273   3.129   5.365
 5412SOL    HW216695   2.260   3.110   5.527
 5413SOL     OW16696   2.973   3.638   3.961
 5413SOL    HW116697   2.913   3.576   4.011
 5413SOL    HW216698   3.004   3.594   3.876
 5414SOL     OW16699   3.494   3.239   3.805
 5414SOL    HW116700   3.462   3.333   3.795
 5414SOL    HW216701   3.418   3.176   3.793
 5415SOL     OW16702   2.326   3.605   4.047
 5415SOL    HW116703   2.359   3.644   4.133
 5415SOL    HW216704   2.402   3.598   3.982
 5416SOL     OW16705   3.262   1.969   4.150
 5416SOL    HW116706   3.238   1.932   4.060
 5416SOL    HW216707   3.361   1.985   4.154
 5417SOL     OW16708   2.111   3.647   4.965
 5417SOL    HW116709   2.168   3.582   5.015
 5417SOL    HW216710   2.095   3.614   4.872
 5418SOL     OW16711   2.802   3.560   4.628
 5418SOL    HW116712   2.882   3.503   4.649
 5418SOL    HW216713   2.753   3.520   4.551
 5419SOL     OW16714   2.244   2.562   4.204
 5419SOL    HW116715   2.289   2.472   4.201
 5419SOL    HW216716   2.150   2.551   4.237
 5420SOL     OW16717   3.409   2.084   5.453
 5420SOL    HW116718   3.404   2.121   5.545
 5420SOL    HW216719   3.337   2.015   5.441
 5421SOL     OW16720   2.476   1.984   3.841
 5421SOL    HW116721   2.574   1.962   3.848
 5421SOL    HW216722   2.445   1.967   3.748
 5422SOL     OW16723   2.643   2.126   5.473
 5422SOL    HW116724   2.710   2.065   5.516
 5422SOL    HW216725   2.570   2.145   5.538
 5423SOL     OW16726   2.750   3.376   4.919
 5423SOL    HW116727   2.727   3.351   4.825
 5423SOL    HW216728   2.811   3.307   4.958
 5424SOL     OW16729   3.213   2.452   5.157
 5424SOL    HW116730   3.241   2.409   5.242
 5424SOL    HW216731   3.238   2.548   5.158
 5425SOL     OW16732   2.665   3.264   4.648
 5425SOL    HW116733   2.755   3.278   4.606
 5425SOL    HW216734   2.594   3.266   4.577
 5426SOL     OW16735   2.784   2.365   4.623
 5426SOL    HW116736   2.759   2.356   4.527
 5426SOL    HW216737   2.832   2.283   4.654
 5427SOL     OW16738   2.401   1.926   4.236
 5427SOL    HW116739   2.320   1.927   4.294
 5427SOL    HW216740   2.404   2.009   4.181
 5428SOL     OW16741   3.296   3.050   3.765
 5428SOL    HW116742   3.328   2.974   3.822
 5428SOL    HW216743   3.204   3.077   3.795
 5429SOL     OW16744   2.797   2.098   4.204
 5429SOL    HW116745   2.749   2.139   4.126
 5429SOL    HW216746   2.896   2.096   4.185
 5430SOL     OW16747   2.938   2.545   5.188
 5430SOL    HW116748   2.858   2.484   5.191
 5430SOL    HW216749   3.019   2.492   5.164
 5431SOL     OW16750   3.089   3.432   4.517
 5431SOL    HW116751   3.110   3.506   4.452
 5431SOL    HW216752   3.157   3.432   4.590
 5432SOL     OW16753   2.321   3.014   4.465
 5432SOL    HW116754   2.250   2.987   4.530
 5432SOL    HW216755   2.295   2.986   4.372
 5433SOL     OW16756   3.133   3.659   4.315
 5433SOL    HW116757   3.177   3.723   4.251
 5433SOL    HW216758   3.083   3.711   4.385
 5434SOL     OW16759   2.894   2.411   3.740
 5434SOL    HW116760   2.853   2.493   3.701
 5434SOL    HW216761   2.958   2.437   3.813
 5435SOL     OW16762   1.940   2.418   5.110
 5435SOL    HW116763   2.032   2.417   5.069
 5435SOL    HW216764   1.934   2.492   5.177
 5436SOL     OW16765   2.423   2.084   4.871
 5436SOL    HW116766   2.461   2.000   4.908
 5436SOL    HW216767   2.335   2.103   4.915
 5437SOL     OW16768   2.728   2.316   4.366
 5437SOL    HW116769   2.696   2.388   4.304
 5437SOL    HW216770   2.752   2.235   4.313
 5438SOL     OW16771   2.879   1.901   4.477
 5438SOL    HW116772   2.807   1.906   4.408
 5438SOL    HW216773   2.855   1.832   4.546
 5439SOL     OW16774   3.291   3.035   4.591
 5439SOL    HW116775   3.236   2.951   4.584
 5439SOL    HW216776   3.317   3.064   4.499
 5440SOL     OW16777   3.328   2.452   4.716
 5440SOL    HW116778   3.298   2.357   4.723
 5440SOL    HW216779   3.401   2.468   4.782
 5441SOL     OW16780   3.719   2.695   4.101
 5441SOL    HW116781   3.761   2.631   4.165
 5441SOL    HW216782   3.681   2.644   4.023
 5442SOL     OW16783   2.350   3.247   3.898
 5442SOL    HW116784   2.263   3.232   3.945
 5442SOL    HW216785   2.333   3.273   3.803
 5443SOL     OW16786   3.526   3.142   4.381
 5443SOL    HW116787   3.625   3.150   4.395
 5443SOL    HW216788   3.481   3.226   4.412
 5444SOL     OW16789   3.252   2.437   3.802
 5444SOL    HW116790   3.198   2.416   3.883
 5444SOL    HW216791   3.343   2.396   3.811
 5445SOL     OW16792   2.389   2.118   4.052
 5445SOL    HW116793   2.416   2.059   3.977
 5445SOL    HW216794   2.389   2.213   4.021
 5446SOL     OW16795   3.616   3.085   5.312
 5446SOL    HW116796   3.707   3.046   5.299
 5446SOL    HW216797   3.624   3.181   5.336
 5447SOL     OW16798   2.926   3.209   5.064
 5447SOL    HW116799   2.846   3.186   5.119
 5447SOL    HW216800   3.009   3.183   5.113
 5448SOL     OW16801   3.454   3.491   5.349
 5448SOL    HW116802   3.481   3.525   5.259
 5448SOL    HW216803   3.533   3.453   5.395
 5449SOL     OW16804   2.973   3.057   4.824
 5449SOL    HW116805   2.933   3.101   4.905
 5449SOL    HW216806   2.932   3.094   4.741
 5450SOL     OW16807   3.500   2.961   4.803
 5450SOL    HW116808   3.505   3.042   4.862
 5450SOL    HW216809   3.414   2.963   4.752
 5451SOL     OW16810   2.777   1.951   5.126
 5451SOL    HW116811   2.802   1.931   5.031
 5451SOL    HW216812   2.849   2.007   5.168
 5452SOL     OW16813   2.842   2.978   5.443
 5452SOL    HW116814   2.743   2.984   5.453
 5452SOL    HW216815   2.865   2.898   5.387
 5453SOL     OW16816   2.567   2.912   4.092
 5453SOL    HW116817   2.553   2.919   4.191
 5453SOL    HW216818   2.651   2.861   4.074
 5454SOL     OW16819   2.272   2.675   4.975
 5454SOL    HW116820   2.358   2.687   5.025
 5454SOL    HW216821   2.230   2.588   5.002
 5455SOL     OW16822   3.136   2.248   4.986
 5455SOL    HW116823   3.157   2.322   5.050
 5455SOL    HW216824   3.047   2.265   4.943
 5456SOL     OW16825   1.926   3.426   5.055
 5456SOL    HW116826   1.880   3.508   5.021
 5456SOL    HW216827   2.024   3.445   5.064
 5457SOL     OW16828   2.229   2.962   4.225
 5457SOL    HW116829   2.222   3.045   4.169
 5457SOL    HW216830   2.233   2.882   4.165
 5458SOL     OW16831   2.428   2.399   4.589
 5458SOL    HW116832   2.440   2.465   4.515
 5458SOL    HW216833   2.474   2.433   4.672
 5459SOL     OW16834   3.114   3.210   4.112
 5459SOL    HW116835   3.164   3.287   4.152
 5459SOL    HW216836   3.019   3.212   4.144
 5460SOL     OW16837   3.134   3.307   4.866
 5460SOL    HW116838   3.181   3.320   4.953
 5460SOL    HW216839   3.068   3.233   4.875
 5461SOL     OW16840   3.444   2.501   4.196
 5461SOL    HW116841   3.413   2.562   4.269
 5461SOL    HW216842   3.494   2.553   4.127
 5462SOL     OW16843   2.216   3.372   5.053
 5462SOL    HW116844   2.195   3.328   4.966
 5462SOL    HW216845   2.313   3.398   5.056
 5463SOL     OW16846   2.264   2.613   5.322
 5463SOL    HW116847   2.332   2.668   5.275
 5463SOL    HW216848   2.304   2.525   5.349
 5464SOL     OW16849   3.449   2.641   5.394
 5464SOL    HW116850   3.357   2.679   5.389
 5464SOL    HW216851   3.509   2.688   5.329
 5465SOL     OW16852   2.875   1.967   5.494
 5465SOL    HW116853   2.881   2.052   5.442
 5465SOL    HW216854   2.907   1.891   5.437
 5466SOL     OW16855   2.366   1.912   5.464
 5466SOL    HW116856   2.324   1.855   5.394
 5466SOL    HW216857   2.300   1.981   5.496
 5467SOL     OW16858   2.435   2.732   4.753
 5467SOL    HW116859   2.479   2.821   4.744
 5467SOL    HW216860   2.372   2.732   4.830
 5468SOL     OW16861   3.222   2.724   4.769
 5468SOL    HW116862   3.147   2.724   4.703
 5468SOL    HW216863   3.259   2.632   4.778
 5469SOL     OW16864   3.071   2.387   3.999
 5469SOL    HW116865   3.084   2.303   4.053
 5469SOL    HW216866   3.042   2.461   4.059
 5470SOL     OW16867   1.899   3.172   5.006
 5470SOL    HW116868   1.952   3.123   5.074
 5470SOL    HW216869   1.921   3.270   5.011
 5471SOL     OW16870   2.594   2.496   4.788
 5471SOL    HW116871   2.653   2.470   4.712
 5471SOL    HW216872   2.566   2.592   4.777
 5472SOL     OW16873   3.590   2.797   5.578
 5472SOL    HW116874   3.544   2.790   5.489
 5472SOL    HW216875   3.528   2.841   5.644
 5473SOL     OW16876   2.169   1.925   4.342
 5473SOL    HW116877   2.158   2.019   4.375
 5473SOL    HW216878   2.164   1.862   4.419
 5474SOL     OW16879   3.484   2.229   4.098
 5474SOL    HW116880   3.486   2.153   4.162
 5474SOL    HW216881   3.436   2.306   4.138
 5475SOL     OW16882   2.885   2.628   4.690
 5475SOL    HW116883   2.900   2.649   4.786
 5475SOL    HW216884   2.855   2.533   4.681
 5476SOL     OW16885   2.842   3.435   5.424
 5476SOL    HW116886   2.822   3.479   5.336
 5476SOL    HW216887   2.881   3.344   5.408
 5477SOL     OW16888   3.721   3.380   5.329
 5477SOL    HW116889   3.735   3.407   5.234
 5477SOL    HW216890   3.804   3.402   5.382
 5478SOL     OW16891   2.212   2.760   5.528
 5478SOL    HW116892   2.288   2.804   5.576
 5478SOL    HW216893   2.247   2.713   5.446
 5479SOL     OW16894   3.402   2.136   3.849
 5479SOL    HW116895   3.341   2.061   3.872
 5479SOL    HW216896   3.424   2.188   3.932
 5480SOL     OW16897   3.165   2.700   3.766
 5480SOL    HW116898   3.199   2.607   3.781
 5480SOL    HW216899   3.183   2.727   3.671
 5481SOL     OW16900   2.930   3.195   4.573
 5481SOL    HW116901   2.937   3.111   4.518
 5481SOL    HW216902   2.992   3.264   4.537
 5482SOL     OW16903   2.181   2.672   4.673
 5482SOL    HW116904   2.274   2.708   4.678
 5482SOL    HW216905   2.175   2.587   4.725
 5483SOL     OW16906   2.201   2.371   4.730
 5483SOL    HW116907   2.149   2.288   4.713
 5483SOL    HW216908   2.278   2.376   4.666
 5484SOL     OW16909   3.000   2.242   5.402
 5484SOL    HW116910   2.955   2.305   5.466
 5484SOL    HW216911   3.093   2.273   5.385
 5485SOL     OW16912   3.022   2.069   5.201
 5485SOL    HW116913   3.022   2.133   5.278
 5485SOL    HW216914   3.050   2.117   5.118
 5486SOL     OW16915   1.870   3.188   3.924
 5486SOL    HW116916   1.777   3.209   3.893
 5486SOL    HW216917   1.880   3.089   3.937
 5487SOL     OW16918   1.950   3.663   4.651
 5487SOL    HW116919   1.908   3.577   4.624
 5487SOL    HW216920   2.044   3.666   4.617
 5488SOL     OW16921   2.366   3.430   4.634
 5488SOL    HW116922   2.432   3.504   4.643
 5488SOL    HW216923   2.410   3.351   4.592
 5489SOL     OW16924   2.864   2.658   4.962
 5489SOL    HW116925   2.905   2.626   5.048
 5489SOL    HW216926   2.768   2.631   4.959
 5490SOL     OW16927   1.902   2.406   4.838
 5490SOL    HW116928   1.987   2.373   4.797
 5490SOL    HW216929   1.915   2.421   4.936
 5491SOL     OW16930   2.051   2.382   5.446
 5491SOL    HW116931   2.110   2.342   5.376
 5491SOL    HW216932   1.993   2.453   5.405
 5492SOL     OW16933   3.231   2.812   5.384
 5492SOL    HW116934   3.270   2.901   5.404
 5492SOL    HW216935   3.241   2.792   5.287
 5493SOL     OW16936   2.677   2.434   4.049
 5493SOL    HW116937   2.684   2.345   4.003
 5493SOL    HW216938   2.583   2.468   4.041
 5494SOL     OW16939   3.519   2.466   4.930
 5494SOL    HW116940   3.481   2.397   4.992
 5494SOL    HW216941   3.601   2.430   4.886
 5495SOL     OW16942   2.114   3.426   5.468
 5495SOL    HW116943   2.084   3.483   5.544
 5495SOL    HW216944   2.107   3.329   5.494
 5496SOL     OW16945   2.533   2.326   4.993
 5496SOL    HW116946   2.499   2.237   4.963
 5496SOL    HW216947   2.559   2.380   4.913
 5497SOL     OW16948   2.792   3.540   5.189
 5497SOL    HW116949   2.768   3.522   5.094
 5497SOL    HW216950   2.822   3.634   5.199
 5498SOL     OW16951   2.335   2.362   3.915
 5498SOL    HW116952   2.396   2.442   3.919
 5498SOL    HW216953   2.240   2.393   3.922
 5499SOL     OW16954   2.021   2.999   5.190
 5499SOL    HW116955   2.043   2.938   5.266
 5499SOL    HW216956   2.031   2.950   5.104
 5500SOL     OW16957   3.209   2.921   4.958
 5500SOL    HW116958   3.233   2.858   4.884
 5500SOL    HW216959   3.119   2.961   4.940
 5501SOL     OW16960   3.164   2.717   4.033
 5501SOL    HW116961   3.078   2.686   4.075
 5501SOL    HW216962   3.160   2.703   3.934
 5502SOL     OW16963   3.621   3.609   4.878
 5502SOL    HW116964   3.682   3.639   4.805
 5502SOL    HW216965   3.583   3.520   4.856
 5503SOL     OW16966   3.114   3.593   4.852
 5503SOL    HW116967   3.198   3.598   4.798
 5503SOL    HW216968   3.091   3.497   4.870
 5504SOL     OW16969   1.945   3.120   4.746
 5504SOL    HW116970   1.940   3.119   4.846
 5504SOL    HW216971   1.862   3.079   4.708
 5505SOL     OW16972   2.550   3.524   5.440
 5505SOL    HW116973   2.494   3.605   5.449
 5505SOL    HW216974   2.602   3.528   5.354
 5506SOL     OW16975   3.588   1.997   4.247
 5506SOL    HW116976   3.661   1.980   4.180
 5506SOL    HW216977   3.557   1.910   4.285
 5507SOL     OW16978   3.250   3.435   4.201
 5507SOL    HW116979   3.317   3.447   4.127
 5507SOL    HW216980   3.210   3.524   4.224
 5508SOL     OW16981   1.992   3.656   5.575
 5508SOL    HW116982   1.951   3.582   5.628
 5508SOL    HW216983   2.056   3.707   5.633
 5509SOL     OW16984   3.142   2.789   4.396
 5509SOL    HW116985   3.202   2.708   4.398
 5509SOL    HW216986   3.182   2.858   4.336
 5510SOL     OW16987   2.692   3.135   5.146
 5510SOL    HW116988   2.687   3.168   5.241
 5510SOL    HW216989   2.606   3.154   5.100
 5511SOL     OW16990   2.534   3.478   3.878
 5511SOL    HW116991   2.543   3.488   3.779
 5511SOL    HW216992   2.494   3.389   3.899
 5512SOL     OW16993   3.512   3.582   5.118
 5512SOL    HW116994   3.565   3.592   5.034
 5512SOL    HW216995   3.485   3.672   5.152
 5513SOL     OW16996   3.703   2.037   4.687
 5513SOL    HW116997   3.742   1.952   4.651
 5513SOL    HW216998   3.605   2.039   4.668
 5514SOL     OW16999   3.056   3.474   3.755
 5514SOL    HW117000   3.062   3.381   3.792
 5514SOL    HW217001   2.997   3.474   3.675
 5515SOL     OW17002   2.684   2.864   5.096
 5515SOL    HW117003   2.724   2.863   5.004
 5515SOL    HW217004   2.694   2.956   5.136
 5516SOL     OW17005   2.778   2.772   4.015
 5516SOL    HW117006   2.841   2.810   3.947
 5516SOL    HW217007   2.818   2.689   4.054
 5517SOL     OW17008   3.366   3.469   3.768
 5517SOL    HW117009   3.274   3.506   3.775
 5517SOL    HW217010   3.404   3.489   3.678
 5518SOL     OW17011   2.234   3.150   5.214
 5518SOL    HW117012   2.221   3.243   5.180
 5518SOL    HW217013   2.150   3.098   5.201
 5519SOL     OW17014   3.476   3.154   5.013
 5519SOL    HW117015   3.536   3.157   5.093
 5519SOL    HW217016   3.401   3.218   5.026
 5520SOL     OW17017   2.901   2.960   4.420
 5520SOL    HW117018   2.831   2.913   4.474
 5520SOL    HW217019   2.960   2.892   4.377
 5521SOL     OW17020   2.876   2.098   4.695
 5521SOL    HW117021   2.868   2.062   4.602
 5521SOL    HW217022   2.874   2.022   4.760
 5522SOL     OW17023   2.452   3.349   4.215
 5522SOL    HW117024   2.494   3.291   4.145
 5522SOL    HW217025   2.408   3.428   4.171
 5523SOL     OW17026   3.571   2.247   5.105
 5523SOL    HW117027   3.644   2.316   5.109
 5523SOL    HW217028   3.599   2.172   5.046
 5524SOL     OW17029   2.117   3.210   4.014
 5524SOL    HW117030   2.021   3.211   3.987
 5524SOL    HW217031   2.129   3.263   4.098
 5525SOL     OW17032   1.967   2.875   5.450
 5525SOL    HW117033   1.890   2.842   5.504
 5525SOL    HW217034   2.052   2.845   5.492
 5526SOL     OW17035   2.534   2.065   5.213
 5526SOL    HW117036   2.624   2.049   5.173
 5526SOL    HW217037   2.542   2.070   5.312
 5527SOL     OW17038   1.937   2.207   3.757
 5527SOL    HW117039   1.845   2.179   3.728
 5527SOL    HW217040   1.968   2.284   3.701
 5528SOL     OW17041   3.302   2.718   5.122
 5528SOL    HW117042   3.245   2.770   5.059
 5528SOL    HW217043   3.398   2.730   5.098
 5529SOL     OW17044   3.045   3.197   3.843
 5529SOL    HW117045   2.946   3.186   3.845
 5529SOL    HW217046   3.079   3.212   3.936
 5530SOL     OW17047   2.475   2.704   5.155
 5530SOL    HW117048   2.531   2.785   5.138
 5530SOL    HW217049   2.534   2.624   5.158
 5531SOL     OW17050   3.355   3.629   4.683
 5531SOL    HW117051   3.388   3.693   4.614
 5531SOL    HW217052   3.421   3.623   4.758
 5532SOL     OW17053   2.578   2.427   5.432
 5532SOL    HW117054   2.597   2.492   5.506
 5532SOL    HW217055   2.638   2.347   5.441
 5533SOL     OW17056   3.312   3.082   5.357
 5533SOL    HW117057   3.303   3.072   5.456
 5533SOL    HW217058   3.408   3.075   5.331
 5534SOL     OW17059   2.252   3.603   5.284
 5534SOL    HW117060   2.161   3.644   5.282
 5534SOL    HW217061   2.245   3.509   5.316
 5535SOL     OW17062   3.536   2.745   4.978
 5535SOL    HW117063   3.509   2.656   4.941
 5535SOL    HW217064   3.537   2.813   4.905
 5536SOL     OW17065   3.087   2.187   4.173
 5536SOL    HW117066   3.152   2.113   4.162
 5536SOL    HW217067   3.107   2.237   4.257
 5537SOL     OW17068   2.456   2.607   4.376
 5537SOL    HW117069   2.506   2.692   4.357
 5537SOL    HW217070   2.368   2.609   4.328
 5538SOL     OW17071   3.639   2.204   5.366
 5538SOL    HW117072   3.622   2.235   5.272
 5538SOL    HW217073   3.555   2.167   5.404
 5539SOL     OW17074   3.592   2.796   5.241
 5539SOL    HW117075   3.630   2.887   5.256
 5539SOL    HW217076   3.584   2.779   5.142
 5540SOL     OW17077   2.721   3.236   3.740
 5540SOL    HW117078   2.675   3.251   3.828
 5540SOL    HW217079   2.765   3.321   3.710
 5541SOL     OW17080   2.523   3.652   4.677
 5541SOL    HW117081   2.477   3.740   4.664
 5541SOL    HW217082   2.622   3.664   4.670
 5542SOL     OW17083   2.721   2.818   4.585
 5542SOL    HW117084   2.775   2.749   4.633
 5542SOL    HW217085   2.689   2.887   4.651
 5543SOL     OW17086   2.945   2.846   3.811
 5543SOL    HW117087   2.922   2.899   3.729
 5543SOL    HW217088   3.026   2.790   3.792
 5544SOL     OW17089   3.723   3.431   4.575
 5544SOL    HW117090   3.652   3.419   4.505
 5544SOL    HW217091   3.724   3.352   4.635
 5545SOL     OW17092   2.083   3.176   5.568
 5545SOL    HW117093   2.018   3.103   5.547
 5545SOL    HW217094   2.087   3.190   5.666
 5546SOL     OW17095   1.941   3.102   4.377
 5546SOL    HW117096   1.940   3.055   4.465
 5546SOL    HW217097   2.023   3.074   4.326
 5547SOL     OW17098   2.534   3.253   5.348
 5547SOL    HW117099   2.456   3.203   5.386
 5547SOL    HW217100   2.531   3.348   5.379
 5548SOL     OW17101   3.686   2.054   4.951
 5548SOL    HW117102   3.682   1.964   4.995
 5548SOL    HW217103   3.689   2.043   4.852
 5549SOL     OW17104   2.290   2.286   4.244
 5549SOL    HW117105   2.320   2.214   4.182
 5549SOL    HW217106   2.251   2.246   4.327
 5550SOL     OW17107   3.567   3.349   4.828
 5550SOL    HW117108   3.474   3.324   4.801
 5550SOL    HW217109   3.593   3.299   4.910
 5551SOL     OW17110   2.179   2.409   5.004
 5551SOL    HW117111   2.217   2.350   5.076
 5551SOL    HW217112   2.219   2.383   4.916
 5552SOL     OW17113   2.674   3.448   4.411
 5552SOL    HW117114   2.706   3.458   4.317
 5552SOL    HW217115   2.595   3.386   4.413
 5553SOL     OW17116   3.286   2.076   4.836
 5553SOL    HW117117   3.338   2.011   4.891
 5553SOL    HW217118   3.237   2.139   4.897
 5554SOL     OW17119   2.863   1.896   4.878
 5554SOL    HW117120   2.800   1.824   4.847
 5554SOL    HW217121   2.956   1.860   4.878
 5555SOL     OW17122   2.632   3.192   4.025
 5555SOL    HW117123   2.586   3.105   4.042
 5555SOL    HW217124   2.723   3.189   4.066
 5556SOL     OW17125   2.480   3.429   5.008
 5556SOL    HW117126   2.475   3.511   5.065
 5556SOL    HW217127   2.569   3.426   4.963
 5557SOL     OW17128   3.214   1.914   3.892
 5557SOL    HW117129   3.249   1.873   3.808
 5557SOL    HW217130   3.124   1.876   3.912
 5558SOL     OW17131   3.162   2.315   4.415
 5558SOL    HW117132   3.103   2.395   4.419
 5558SOL    HW217133   3.177   2.280   4.508
 5559SOL     OW17134   3.455   2.083   4.606
 5559SOL    HW117135   3.371   2.082   4.660
 5559SOL    HW217136   3.457   2.166   4.550
 5560SOL     OW17137   1.901   2.939   4.024
 5560SOL    HW117138   2.000   2.928   4.015
 5560SOL    HW217139   1.861   2.853   4.056
 5561SOL     OW17140   2.737   3.508   4.061
 5561SOL    HW117141   2.660   3.473   4.007
 5561SOL    HW217142   2.705   3.579   4.123
 5562SOL     OW17143   2.092   2.490   5.699
 5562SOL    HW117144   1.999   2.488   5.736
 5562SOL    HW217145   2.093   2.451   5.607
 5563SOL     OW17146   2.431   3.137   6.751
 5563SOL    HW117147   2.338   3.130   6.714
 5563SOL    HW217148   2.442   3.226   6.795
 5564SOL     OW17149   3.417   3.373   6.289
 5564SOL    HW117150   3.360   3.357   6.370
 5564SOL    HW217151   3.358   3.383   6.209
 5565SOL     OW17152   2.997   2.565   6.303
 5565SOL    HW117153   3.054   2.643   6.278
 5565SOL    HW217154   2.937   2.591   6.379
 5566SOL     OW17155   3.617   2.469   5.817
 5566SOL    HW117156   3.605   2.456   5.718
 5566SOL    HW217157   3.587   2.388   5.866
 5567SOL     OW17158   2.630   3.006   6.609
 5567SOL    HW117159   2.552   3.023   6.669
 5567SOL    HW217160   2.664   3.093   6.573
 5568SOL     OW17161   2.712   2.660   7.409
 5568SOL    HW117162   2.708   2.736   7.474
 5568SOL    HW217163   2.734   2.696   7.318
 5569SOL     OW17164   2.547   2.874   6.251
 5569SOL    HW117165   2.616   2.858   6.321
 5569SOL    HW217166   2.474   2.931   6.289
 5570SOL     OW17167   2.548   3.023   7.389
 5570SOL    HW117168   2.608   3.102   7.403
 5570SOL    HW217169   2.462   3.054   7.348
 5571SOL     OW17170   2.197   3.297   6.647
 5571SOL    HW117171   2.119   3.266   6.594
 5571SOL    HW217172   2.255   3.355   6.590
 5572SOL     OW17173   3.322   3.367   6.925
 5572SOL    HW117174   3.346   3.461   6.951
 5572SOL    HW217175   3.306   3.313   7.007
 5573SOL     OW17176   2.300   2.254   7.085
 5573SOL    HW117177   2.382   2.198   7.094
 5573SOL    HW217178   2.219   2.196   7.089
 5574SOL     OW17179   3.465   2.309   6.323
 5574SOL    HW117180   3.391   2.355   6.273
 5574SOL    HW217181   3.516   2.377   6.376
 5575SOL     OW17182   2.093   3.575   6.069
 5575SOL    HW117183   2.127   3.652   6.123
 5575SOL    HW217184   2.137   3.575   5.979
 5576SOL     OW17185   2.989   3.203   7.276
 5576SOL    HW117186   3.036   3.203   7.364
 5576SOL    HW217187   2.941   3.116   7.265
 5577SOL     OW17188   2.092   3.296   6.124
 5577SOL    HW117189   2.066   3.392   6.124
 5577SOL    HW217190   2.021   3.242   6.169
 5578SOL     OW17191   2.102   2.953   6.472
 5578SOL    HW117192   2.116   2.869   6.524
 5578SOL    HW217193   2.047   3.017   6.527
 5579SOL     OW17194   2.482   3.648   7.025
 5579SOL    HW117195   2.390   3.631   7.060
 5579SOL    HW217196   2.510   3.740   7.051
 5580SOL     OW17197   2.468   2.826   5.709
 5580SOL    HW117198   2.475   2.910   5.655
 5580SOL    HW217199   2.514   2.839   5.797
 5581SOL     OW17200   3.456   1.976   7.066
 5581SOL    HW117201   3.438   2.043   6.994
 5581SOL    HW217202   3.453   2.022   7.155
 5582SOL     OW17203   3.704   3.629   5.945
 5582SOL    HW117204   3.758   3.600   6.025
 5582SOL    HW217205   3.734   3.719   5.916
 5583SOL     OW17206   1.889   3.458   5.703
 5583SOL    HW117207   1.870   3.362   5.724
 5583SOL    HW217208   1.856   3.516   5.778
 5584SOL     OW17209   3.551   2.784   6.198
 5584SOL    HW117210   3.646   2.755   6.206
 5584SOL    HW217211   3.543   2.849   6.123
 5585SOL     OW17212   3.503   2.970   6.018
 5585SOL    HW117213   3.589   2.972   5.966
 5585SOL    HW217214   3.517   3.017   6.106
 5586SOL     OW17215   2.475   3.227   6.312
 5586SOL    HW117216   2.426   3.140   6.321
 5586SOL    HW217217   2.452   3.270   6.225
 5587SOL     OW17218   3.155   3.090   7.009
 5587SOL    HW117219   3.192   3.017   6.951
 5587SOL    HW217220   3.207   3.095   7.094
 5588SOL     OW17221   2.059   2.838   6.850
 5588SOL    HW117222   2.148   2.793   6.836
 5588SOL    HW217223   1.986   2.773   6.831
 5589SOL     OW17224   3.387   2.861   5.776
 5589SOL    HW117225   3.324   2.785   5.789
 5589SOL    HW217226   3.435   2.879   5.862
 5590SOL     OW17227   3.049   3.654   7.202
 5590SOL    HW117228   3.073   3.714   7.126
 5590SOL    HW217229   3.056   3.559   7.172
 5591SOL     OW17230   3.328   3.279   6.539
 5591SOL    HW117231   3.269   3.285   6.619
 5591SOL    HW217232   3.313   3.191   6.493
 5592SOL     OW17233   3.529   3.576   6.158
 5592SOL    HW117234   3.488   3.553   6.070
 5592SOL    HW217235   3.511   3.502   6.223
 5593SOL     OW17236   2.460   2.591   5.856
 5593SOL    HW117237   2.484   2.660   5.788
 5593SOL    HW217238   2.382   2.624   5.910
 5594SOL     OW17239   3.143   2.207   6.530
 5594SOL    HW117240   3.057   2.157   6.517
 5594SOL    HW217241   3.205   2.153   6.586
 5595SOL     OW17242   3.438   3.524   5.893
 5595SOL    HW117243   3.527   3.570   5.896
 5595SOL    HW217244   3.417   3.500   5.798
 5596SOL     OW17245   2.669   2.467   7.051
 5596SOL    HW117246   2.622   2.464   7.140
 5596SOL    HW217247   2.618   2.412   6.985
 5597SOL     OW17248   3.256   2.331   7.260
 5597SOL    HW117249   3.236   2.374   7.348
 5597SOL    HW217250   3.334   2.269   7.269
 5598SOL     OW17251   2.835   2.752   7.158
 5598SOL    HW117252   2.881   2.668   7.129
 5598SOL    HW217253   2.779   2.786   7.083
 5599SOL     OW17254   2.853   2.272   6.828
 5599SOL    HW117255   2.776   2.306   6.882
 5599SOL    HW217256   2.819   2.221   6.749
 5600SOL     OW17257   2.903   2.563   6.015
 5600SOL    HW117258   2.929   2.559   6.111
 5600SOL    HW217259   2.818   2.512   6.001
 5601SOL     OW17260   1.992   3.683   7.157
 5601SOL    HW117261   1.982   3.668   7.256
 5601SOL    HW217262   1.906   3.719   7.121
 5602SOL     OW17263   2.727   2.210   5.781
 5602SOL    HW117264   2.786   2.273   5.732
 5602SOL    HW217265   2.746   2.116   5.752
 5603SOL     OW17266   3.581   2.447   7.417
 5603SOL    HW117267   3.555   2.536   7.381
 5603SOL    HW217268   3.579   2.379   7.344
 5604SOL     OW17269   3.224   3.006   6.131
 5604SOL    HW117270   3.307   2.977   6.083
 5604SOL    HW217271   3.175   3.073   6.075
 5605SOL     OW17272   2.870   3.318   6.063
 5605SOL    HW117273   2.824   3.390   6.011
 5605SOL    HW217274   2.866   3.338   6.161
 5606SOL     OW17275   2.213   3.663   6.439
 5606SOL    HW117276   2.263   3.577   6.445
 5606SOL    HW217277   2.278   3.740   6.436
 5607SOL     OW17278   3.657   2.928   6.459
 5607SOL    HW117279   3.595   2.913   6.383
 5607SOL    HW217280   3.605   2.939   6.544
 5608SOL     OW17281   3.089   3.412   7.092
 5608SOL    HW117282   3.095   3.335   7.156
 5608SOL    HW217283   3.037   3.386   7.012
 5609SOL     OW17284   2.183   2.805   5.828
 5609SOL    HW117285   2.265   2.844   5.786
 5609SOL    HW217286   2.156   2.723   5.779
 5610SOL     OW17287   3.320   2.597   6.314
 5610SOL    HW117288   3.315   2.532   6.389
 5610SOL    HW217289   3.400   2.656   6.327
 5611SOL     OW17290   2.323   3.128   7.313
 5611SOL    HW117291   2.273   3.129   7.227
 5611SOL    HW217292   2.260   3.110   7.389
 5612SOL     OW17293   2.973   3.638   5.823
 5612SOL    HW117294   2.913   3.576   5.873
 5612SOL    HW217295   3.004   3.594   5.738
 5613SOL     OW17296   3.494   3.239   5.667
 5613SOL    HW117297   3.462   3.333   5.657
 5613SOL    HW217298   3.418   3.176   5.655
 5614SOL     OW17299   2.326   3.605   5.909
 5614SOL    HW117300   2.359   3.644   5.995
 5614SOL    HW217301   2.402   3.598   5.844
 5615SOL     OW17302   3.262   1.969   6.012
 5615SOL    HW117303   3.238   1.932   5.922
 5615SOL    HW217304   3.361   1.985   6.016
 5616SOL     OW17305   2.111   3.647   6.827
 5616SOL    HW117306   2.168   3.582   6.877
 5616SOL    HW217307   2.095   3.614   6.734
 5617SOL     OW17308   2.802   3.560   6.490
 5617SOL    HW117309   2.882   3.503   6.511
 5617SOL    HW217310   2.753   3.520   6.413
 5618SOL     OW17311   3.409   2.084   7.315
 5618SOL    HW117312   3.404   2.121   7.407
 5618SOL    HW217313   3.337   2.015   7.303
 5619SOL     OW17314   2.476   1.984   5.703
 5619SOL    HW117315   2.574   1.962   5.710
 5619SOL    HW217316   2.445   1.967   5.610
 5620SOL     OW17317   2.750   3.376   6.781
 5620SOL    HW117318   2.727   3.351   6.687
 5620SOL    HW217319   2.811   3.307   6.820
 5621SOL     OW17320   3.213   2.452   7.019
 5621SOL    HW117321   3.241   2.409   7.104
 5621SOL    HW217322   3.238   2.548   7.020
 5622SOL     OW17323   2.665   3.264   6.510
 5622SOL    HW117324   2.755   3.278   6.468
 5622SOL    HW217325   2.594   3.266   6.439
 5623SOL     OW17326   2.784   2.365   6.485
 5623SOL    HW117327   2.759   2.356   6.389
 5623SOL    HW217328   2.832   2.283   6.516
 5624SOL     OW17329   2.401   1.926   6.098
 5624SOL    HW117330   2.320   1.927   6.156
 5624SOL    HW217331   2.404   2.009   6.043
 5625SOL     OW17332   3.296   3.050   5.627
 5625SOL    HW117333   3.328   2.974   5.684
 5625SOL    HW217334   3.204   3.077   5.657
 5626SOL     OW17335   2.797   2.098   6.066
 5626SOL    HW117336   2.749   2.139   5.988
 5626SOL    HW217337   2.896   2.096   6.047
 5627SOL     OW17338   2.938   2.545   7.050
 5627SOL    HW117339   2.858   2.484   7.053
 5627SOL    HW217340   3.019   2.492   7.026
 5628SOL     OW17341   3.089   3.432   6.379
 5628SOL    HW117342   3.110   3.506   6.314
 5628SOL    HW217343   3.157   3.432   6.452
 5629SOL     OW17344   2.321   3.014   6.327
 5629SOL    HW117345   2.250   2.987   6.392
 5629SOL    HW217346   2.295   2.986   6.234
 5630SOL     OW17347   3.133   3.659   6.177
 5630SOL    HW117348   3.177   3.723   6.113
 5630SOL    HW217349   3.083   3.711   6.247
 5631SOL     OW17350   2.894   2.411   5.602
 5631SOL    HW117351   2.853   2.493   5.563
 5631SOL    HW217352   2.958   2.437   5.675
 5632SOL     OW17353   2.728   2.316   6.228
 5632SOL    HW117354   2.696   2.388   6.166
 5632SOL    HW217355   2.752   2.235   6.175
 5633SOL     OW17356   2.879   1.901   6.339
 5633SOL    HW117357   2.807   1.906   6.270
 5633SOL    HW217358   2.855   1.832   6.408
 5634SOL     OW17359   3.291   3.035   6.453
 5634SOL    HW117360   3.236   2.951   6.446
 5634SOL    HW217361   3.317   3.064   6.361
 5635SOL     OW17362   3.328   2.452   6.578
 5635SOL    HW117363   3.298   2.357   6.585
 5635SOL    HW217364   3.401   2.468   6.644
 5636SOL     OW17365   3.719   2.695   5.963
 5636SOL    HW117366   3.761   2.631   6.027
 5636SOL    HW217367   3.681   2.644   5.885
 5637SOL     OW17368   2.350   3.247   5.760
 5637SOL    HW117369   2.263   3.232   5.807
 5637SOL    HW217370   2.333   3.273   5.665
 5638SOL     OW17371   3.526   3.142   6.243
 5638SOL    HW117372   3.625   3.150   6.257
 5638SOL    HW217373   3.481   3.226   6.274
 5639SOL     OW17374   3.252   2.437   5.664
 5639SOL    HW117375   3.198   2.416   5.745
 5639SOL    HW217376   3.343   2.396   5.673
 5640SOL     OW17377   2.389   2.118   5.914
 5640SOL    HW117378   2.416   2.059   5.839
 5640SOL    HW217379   2.389   2.213   5.883
 5641SOL     OW17380   3.616   3.085   7.174
 5641SOL    HW117381   3.707   3.046   7.161
 5641SOL    HW217382   3.624   3.181   7.198
 5642SOL     OW17383   2.926   3.209   6.926
 5642SOL    HW117384   2.846   3.186   6.981
 5642SOL    HW217385   3.009   3.183   6.975
 5643SOL     OW17386   3.454   3.491   7.211
 5643SOL    HW117387   3.481   3.525   7.121
 5643SOL    HW217388   3.533   3.453   7.257
 5644SOL     OW17389   2.973   3.057   6.686
 5644SOL    HW117390   2.933   3.101   6.767
 5644SOL    HW217391   2.932   3.094   6.603
 5645SOL     OW17392   3.500   2.961   6.665
 5645SOL    HW117393   3.505   3.042   6.724
 5645SOL    HW217394   3.414   2.963   6.614
 5646SOL     OW17395   2.777   1.951   6.988
 5646SOL    HW117396   2.802   1.931   6.893
 5646SOL    HW217397   2.849   2.007   7.030
 5647SOL     OW17398   2.842   2.978   7.305
 5647SOL    HW117399   2.743   2.984   7.315
 5647SOL    HW217400   2.865   2.898   7.249
 5648SOL     OW17401   2.567   2.912   5.954
 5648SOL    HW117402   2.553   2.919   6.053
 5648SOL    HW217403   2.651   2.861   5.936
 5649SOL     OW17404   2.272   2.675   6.837
 5649SOL    HW117405   2.358   2.687   6.887
 5649SOL    HW217406   2.230   2.588   6.864
 5650SOL     OW17407   3.136   2.248   6.848
 5650SOL    HW117408   3.157   2.322   6.912
 5650SOL    HW217409   3.047   2.265   6.805
 5651SOL     OW17410   1.926   3.426   6.917
 5651SOL    HW117411   1.880   3.508   6.883
 5651SOL    HW217412   2.024   3.445   6.926
 5652SOL     OW17413   2.229   2.962   6.087
 5652SOL    HW117414   2.222   3.045   6.031
 5652SOL    HW217415   2.233   2.882   6.027
 5653SOL     OW17416   3.114   3.210   5.974
 5653SOL    HW117417   3.164   3.287   6.014
 5653SOL    HW217418   3.019   3.212   6.006
 5654SOL     OW17419   3.134   3.307   6.728
 5654SOL    HW117420   3.181   3.320   6.815
 5654SOL    HW217421   3.068   3.233   6.737
 5655SOL     OW17422   3.444   2.501   6.058
 5655SOL    HW117423   3.413   2.562   6.131
 5655SOL    HW217424   3.494   2.553   5.989
 5656SOL     OW17425   2.216   3.372   6.915
 5656SOL    HW117426   2.195   3.328   6.828
 5656SOL    HW217427   2.313   3.398   6.918
 5657SOL     OW17428   3.449   2.641   7.256
 5657SOL    HW117429   3.357   2.679   7.251
 5657SOL    HW217430   3.509   2.688   7.191
 5658SOL     OW17431   2.875   1.967   7.356
 5658SOL    HW117432   2.881   2.052   7.304
 5658SOL    HW217433   2.907   1.891   7.299
 5659SOL     OW17434   2.435   2.732   6.615
 5659SOL    HW117435   2.479   2.821   6.606
 5659SOL    HW217436   2.372   2.732   6.692
 5660SOL     OW17437   3.222   2.724   6.631
 5660SOL    HW117438   3.147   2.724   6.565
 5660SOL    HW217439   3.259   2.632   6.640
 5661SOL     OW17440   3.071   2.387   5.861
 5661SOL    HW117441   3.084   2.303   5.915
 5661SOL    HW217442   3.042   2.461   5.921
 5662SOL     OW17443   1.899   3.172   6.868
 5662SOL    HW117444   1.952   3.123   6.936
 5662SOL    HW217445   1.921   3.270   6.873
 5663SOL     OW17446   2.594   2.496   6.650
 5663SOL    HW117447   2.653   2.470   6.574
 5663SOL    HW217448   2.566   2.592   6.639
 5664SOL     OW17449   3.590   2.797   7.440
 5664SOL    HW117450   3.544   2.790   7.351
 5664SOL    HW217451   3.528   2.841   7.506
 5665SOL     OW17452   3.484   2.229   5.960
 5665SOL    HW117453   3.486   2.153   6.024
 5665SOL    HW217454   3.436   2.306   6.000
 5666SOL     OW17455   2.885   2.628   6.552
 5666SOL    HW117456   2.900   2.649   6.648
 5666SOL    HW217457   2.855   2.533   6.543
 5667SOL     OW17458   2.842   3.435   7.286
 5667SOL    HW117459   2.822   3.479   7.198
 5667SOL    HW217460   2.881   3.344   7.270
 5668SOL     OW17461   3.721   3.380   7.191
 5668SOL    HW117462   3.735   3.407   7.096
 5668SOL    HW217463   3.804   3.402   7.244
 5669SOL     OW17464   2.212   2.760   7.390
 5669SOL    HW117465   2.288   2.804   7.438
 5669SOL    HW217466   2.247   2.713   7.308
 5670SOL     OW17467   3.402   2.136   5.711
 5670SOL    HW117468   3.341   2.061   5.734
 5670SOL    HW217469   3.424   2.188   5.794
 5671SOL     OW17470   3.165   2.700   5.628
 5671SOL    HW117471   3.199   2.607   5.643
 5671SOL    HW217472   3.183   2.727   5.533
 5672SOL     OW17473   2.930   3.195   6.435
 5672SOL    HW117474   2.937   3.111   6.380
 5672SOL    HW217475   2.992   3.264   6.399
 5673SOL     OW17476   3.000   2.242   7.264
 5673SOL    HW117477   2.955   2.305   7.328
 5673SOL    HW217478   3.093   2.273   7.247
 5674SOL     OW17479   3.022   2.069   7.063
 5674SOL    HW117480   3.022   2.133   7.140
 5674SOL    HW217481   3.050   2.117   6.980
 5675SOL     OW17482   1.870   3.188   5.786
 5675SOL    HW117483   1.777   3.209   5.755
 5675SOL    HW217484   1.880   3.089   5.799
 5676SOL     OW17485   1.950   3.663   6.513
 5676SOL    HW117486   1.908   3.577   6.486
 5676SOL    HW217487   2.044   3.666   6.479
 5677SOL     OW17488   2.366   3.430   6.496
 5677SOL    HW117489   2.432   3.504   6.505
 5677SOL    HW217490   2.410   3.351   6.454
 5678SOL     OW17491   2.864   2.658   6.824
 5678SOL    HW117492   2.905   2.626   6.910
 5678SOL    HW217493   2.768   2.631   6.821
 5679SOL     OW17494   3.231   2.812   7.246
 5679SOL    HW117495   3.270   2.901   7.266
 5679SOL    HW217496   3.241   2.792   7.149
 5680SOL     OW17497   2.677   2.434   5.911
 5680SOL    HW117498   2.684   2.345   5.865
 5680SOL    HW217499   2.583   2.468   5.903
 5681SOL     OW17500   3.519   2.466   6.792
 5681SOL    HW117501   3.481   2.397   6.854
 5681SOL    HW217502   3.601   2.430   6.748
 5682SOL     OW17503   2.114   3.426   7.330
 5682SOL    HW117504   2.084   3.483   7.406
 5682SOL    HW217505   2.107   3.329   7.356
 5683SOL     OW17506   2.792   3.540   7.051
 5683SOL    HW117507   2.768   3.522   6.956
 5683SOL    HW217508   2.822   3.634   7.061
 5684SOL     OW17509   2.335   2.362   5.777
 5684SOL    HW117510   2.396   2.442   5.781
 5684SOL    HW217511   2.240   2.393   5.784
 5685SOL     OW17512   2.021   2.999   7.052
 5685SOL    HW117513   2.043   2.938   7.128
 5685SOL    HW217514   2.031   2.950   6.966
 5686SOL     OW17515   3.209   2.921   6.820
 5686SOL    HW117516   3.233   2.858   6.746
 5686SOL    HW217517   3.119   2.961   6.802
 5687SOL     OW17518   3.164   2.717   5.895
 5687SOL    HW117519   3.078   2.686   5.937
 5687SOL    HW217520   3.160   2.703   5.796
 5688SOL     OW17521   3.621   3.609   6.740
 5688SOL    HW117522   3.682   3.639   6.667
 5688SOL    HW217523   3.583   3.520   6.718
 5689SOL     OW17524   3.114   3.593   6.714
 5689SOL    HW117525   3.198   3.598   6.660
 5689SOL    HW217526   3.091   3.497   6.732
 5690SOL     OW17527   1.945   3.120   6.608
 5690SOL    HW117528   1.940   3.119   6.708
 5690SOL    HW217529   1.862   3.079   6.570
 5691SOL     OW17530   2.550   3.524   7.302
 5691SOL    HW117531   2.494   3.605   7.311
 5691SOL    HW217532   2.602   3.528   7.216
 5692SOL     OW17533   3.588   1.997   6.109
 5692SOL    HW117534   3.661   1.980   6.042
 5692SOL    HW217535   3.557   1.910   6.147
 5693SOL     OW17536   3.250   3.435   6.063
 5693SOL    HW117537   3.317   3.447   5.989
 5693SOL    HW217538   3.210   3.524   6.086
 5694SOL     OW17539   1.992   3.656   7.437
 5694SOL    HW117540   1.951   3.582   7.490
 5694SOL    HW217541   2.056   3.707   7.495
 5695SOL     OW17542   3.142   2.789   6.258
 5695SOL    HW117543   3.202   2.708   6.260
 5695SOL    HW217544   3.182   2.858   6.198
 5696SOL     OW17545   2.692   3.135   7.008
 5696SOL    HW117546   2.687   3.168   7.103
 5696SOL    HW217547   2.606   3.154   6.962
 5697SOL     OW17548   2.534   3.478   5.740
 5697SOL    HW117549   2.543   3.488   5.641
 5697SOL    HW217550   2.494   3.389   5.761
 5698SOL     OW17551   3.512   3.582   6.980
 5698SOL    HW117552   3.565   3.592   6.896
 5698SOL    HW217553   3.485   3.672   7.014
 5699SOL     OW17554   3.703   2.037   6.549
 5699SOL    HW117555   3.742   1.952   6.513
 5699SOL    HW217556   3.605   2.039   6.530
 5700SOL     OW17557   3.056   3.474   5.617
 5700SOL    HW117558   3.062   3.381   5.654
 5700SOL    HW217559   2.997   3.474   5.537
 5701SOL     OW17560   2.684   2.864   6.958
 5701SOL    HW117561   2.724   2.863   6.866
 5701SOL    HW217562   2.694   2.956   6.998
 5702SOL     OW17563   2.778   2.772   5.877
 5702SOL    HW117564   2.841   2.810   5.809
 5702SOL    HW217565   2.818   2.689   5.916
 5703SOL     OW17566   3.366   3.469   5.630
 5703SOL    HW117567   3.274   3.506   5.637
 5703SOL    HW217568   3.404   3.489   5.540
 5704SOL     OW17569   2.234   3.150   7.076
 5704SOL    HW117570   2.221   3.243   7.042
 5704SOL    HW217571   2.150   3.098   7.063
 5705SOL     OW17572   3.476   3.154   6.875
 5705SOL    HW117573   3.536   3.157   6.955
 5705SOL    HW217574   3.401   3.218   6.888
 5706SOL     OW17575   2.901   2.960   6.282
 5706SOL    HW117576   2.831   2.913   6.336
 5706SOL    HW217577   2.960   2.892   6.239
 5707SOL     OW17578   2.876   2.098   6.557
 5707SOL    HW117579   2.868   2.062   6.464
 5707SOL    HW217580   2.874   2.022   6.622
 5708SOL     OW17581   2.452   3.349   6.077
 5708SOL    HW117582   2.494   3.291   6.007
 5708SOL    HW217583   2.408   3.428   6.033
 5709SOL     OW17584   3.571   2.247   6.967
 5709SOL    HW117585   3.644   2.316   6.971
 5709SOL    HW217586   3.599   2.172   6.908
 5710SOL     OW17587   2.117   3.210   5.876
 5710SOL    HW117588   2.021   3.211   5.849
 5710SOL    HW217589   2.129   3.263   5.960
 5711SOL     OW17590   1.967   2.875   7.312
 5711SOL    HW117591   1.890   2.842   7.366
 5711SOL    HW217592   2.052   2.845   7.354
 5712SOL     OW17593   1.937   2.207   5.619
 5712SOL    HW117594   1.845   2.179   5.590
 5712SOL    HW217595   1.968   2.284   5.563
 5713SOL     OW17596   3.302   2.718   6.984
 5713SOL    HW117597   3.245   2.770   6.921
 5713SOL    HW217598   3.398   2.730   6.960
 5714SOL     OW17599   3.045   3.197   5.705
 5714SOL    HW117600   2.946   3.186   5.707
 5714SOL    HW217601   3.079   3.212   5.798
 5715SOL     OW17602   2.475   2.704   7.017
 5715SOL    HW117603   2.531   2.785   7.000
 5715SOL    HW217604   2.534   2.624   7.020
 5716SOL     OW17605   3.355   3.629   6.545
 5716SOL    HW117606   3.388   3.693   6.476
 5716SOL    HW217607   3.421   3.623   6.620
 5717SOL     OW17608   3.312   3.082   7.219
 5717SOL    HW117609   3.303   3.072   7.318
 5717SOL    HW217610   3.408   3.075   7.193
 5718SOL     OW17611   2.252   3.603   7.146
 5718SOL    HW117612   2.161   3.644   7.144
 5718SOL    HW217613   2.245   3.509   7.178
 5719SOL     OW17614   3.536   2.745   6.840
 5719SOL    HW117615   3.509   2.656   6.803
 5719SOL    HW217616   3.537   2.813   6.767
 5720SOL     OW17617   3.087   2.187   6.035
 5720SOL    HW117618   3.152   2.113   6.024
 5720SOL    HW217619   3.107   2.237   6.119
 5721SOL     OW17620   3.639   2.204   7.228
 5721SOL    HW117621   3.622   2.235   7.134
 5721SOL    HW217622   3.555   2.167   7.266
 5722SOL     OW17623   3.592   2.796   7.103
 5722SOL    HW117624   3.630   2.887   7.118
 5722SOL    HW217625   3.584   2.779   7.004
 5723SOL     OW17626   2.721   3.236   5.602
 5723SOL    HW117627   2.675   3.251   5.690
 5723SOL    HW217628   2.765   3.321   5.572
 5724SOL     OW17629   2.523   3.652   6.539
 5724SOL    HW117630   2.477   3.740   6.526
 5724SOL    HW217631   2.622   3.664   6.532
 5725SOL     OW17632   2.721   2.818   6.447
 5725SOL    HW117633   2.775   2.749   6.495
 5725SOL    HW217634   2.689   2.887   6.513
 5726SOL     OW17635   2.945   2.846   5.673
 5726SOL    HW117636   2.922   2.899   5.591
 5726SOL    HW217637   3.026   2.790   5.654
 5727SOL     OW17638   3.723   3.431   6.437
 5727SOL    HW117639   3.652   3.419   6.367
 5727SOL    HW217640   3.724   3.352   6.497
 5728SOL     OW17641   2.083   3.176   7.430
 5728SOL    HW117642   2.018   3.103   7.409
 5728SOL    HW217643   2.087   3.190   7.528
 5729SOL     OW17644   1.941   3.102   6.239
 5729SOL    HW117645   1.940   3.055   6.327
 5729SOL    HW217646   2.023   3.074   6.188
 5730SOL     OW17647   2.534   3.253   7.210
 5730SOL    HW117648   2.456   3.203   7.248
 5730SOL    HW217649   2.531   3.348   7.241
 5731SOL     OW17650   3.686   2.054   6.813
 5731SOL    HW117651   3.682   1.964   6.857
 5731SOL    HW217652   3.689   2.043   6.714
 5732SOL     OW17653   3.567   3.349   6.690
 5732SOL    HW117654   3.474   3.324   6.663
 5732SOL    HW217655   3.593   3.299   6.772
 5733SOL     OW17656   2.674   3.448   6.273
 5733SOL    HW117657   2.706   3.458   6.179
 5733SOL    HW217658   2.595   3.386   6.275
 5734SOL     OW17659   3.286   2.076   6.698
 5734SOL    HW117660   3.338   2.011   6.753
 5734SOL    HW217661   3.237   2.139   6.759
 5735SOL     OW17662   2.863   1.896   6.740
 5735SOL    HW117663   2.800   1.824   6.709
 5735SOL    HW217664   2.956   1.860   6.740
 5736SOL     OW17665   2.632   3.192   5.887
 5736SOL    HW117666   2.586   3.105   5.904
 5736SOL    HW217667   2.723   3.189   5.928
 5737SOL     OW17668   2.480   3.429   6.870
 5737SOL    HW117669   2.475   3.511   6.927
 5737SOL    HW217670   2.569   3.426   6.825
 5738SOL     OW17671   3.214   1.914   5.754
 5738SOL    HW117672   3.249   1.873   5.670
 5738SOL    HW217673   3.124   1.876   5.774
 5739SOL     OW17674   3.162   2.315   6.277
 5739SOL    HW117675   3.103   2.395   6.281
 5739SOL    HW217676   3.177   2.280   6.370
 5740SOL     OW17677   3.455   2.083   6.468
 5740SOL    HW117678   3.371   2.082   6.522
 5740SOL    HW217679   3.457   2.166   6.412
 5741SOL     OW17680   1.901   2.939   5.886
 5741SOL    HW117681   2.000   2.928   5.877
 5741SOL    HW217682   1.861   2.853   5.918
 5742SOL     OW17683   2.737   3.508   5.923
 5742SOL    HW117684   2.660   3.473   5.869
 5742SOL    HW217685   2.705   3.579   5.985
 5743SOL     OW17686   1.881   2.230   8.095
 5743SOL    HW117687   1.799   2.273   8.134
 5743SOL    HW217688   1.853   2.157   8.032
 5744SOL     OW17689   2.431   3.137   8.613
 5744SOL    HW117690   2.338   3.130   8.576
 5744SOL    HW217691   2.442   3.226   8.657
 5745SOL     OW17692   3.417   3.373   8.151
 5745SOL    HW117693   3.360   3.357   8.232
 5745SOL    HW217694   3.358   3.383   8.071
 5746SOL     OW17695   2.997   2.565   8.165
 5746SOL    HW117696   3.054   2.643   8.140
 5746SOL    HW217697   2.937   2.591   8.241
 5747SOL     OW17698   3.617   2.469   7.679
 5747SOL    HW117699   3.605   2.456   7.580
 5747SOL    HW217700   3.587   2.388   7.728
 5748SOL     OW17701   2.630   3.006   8.471
 5748SOL    HW117702   2.552   3.023   8.531
 5748SOL    HW217703   2.664   3.093   8.435
 5749SOL     OW17704   2.712   2.660   9.271
 5749SOL    HW117705   2.708   2.736   9.336
 5749SOL    HW217706   2.734   2.696   9.180
 5750SOL     OW17707   2.547   2.874   8.113
 5750SOL    HW117708   2.616   2.858   8.183
 5750SOL    HW217709   2.474   2.931   8.151
 5751SOL     OW17710   2.548   3.023   9.251
 5751SOL    HW117711   2.608   3.102   9.265
 5751SOL    HW217712   2.462   3.054   9.210
 5752SOL     OW17713   2.197   3.297   8.509
 5752SOL    HW117714   2.119   3.266   8.456
 5752SOL    HW217715   2.255   3.355   8.452
 5753SOL     OW17716   3.322   3.367   8.787
 5753SOL    HW117717   3.346   3.461   8.813
 5753SOL    HW217718   3.306   3.313   8.869
 5754SOL     OW17719   2.300   2.254   8.947
 5754SOL    HW117720   2.382   2.198   8.956
 5754SOL    HW217721   2.219   2.196   8.951
 5755SOL     OW17722   3.465   2.309   8.185
 5755SOL    HW117723   3.391   2.355   8.135
 5755SOL    HW217724   3.516   2.377   8.238
 5756SOL     OW17725   2.093   3.575   7.931
 5756SOL    HW117726   2.127   3.652   7.985
 5756SOL    HW217727   2.137   3.575   7.841
 5757SOL     OW17728   2.989   3.203   9.138
 5757SOL    HW117729   3.036   3.203   9.226
 5757SOL    HW217730   2.941   3.116   9.127
 5758SOL     OW17731   2.092   3.296   7.986
 5758SOL    HW117732   2.066   3.392   7.986
 5758SOL    HW217733   2.021   3.242   8.031
 5759SOL     OW17734   2.102   2.953   8.334
 5759SOL    HW117735   2.116   2.869   8.386
 5759SOL    HW217736   2.047   3.017   8.389
 5760SOL     OW17737   2.482   3.648   8.887
 5760SOL    HW117738   2.390   3.631   8.922
 5760SOL    HW217739   2.510   3.740   8.913
 5761SOL     OW17740   2.468   2.826   7.571
 5761SOL    HW117741   2.475   2.910   7.517
 5761SOL    HW217742   2.514   2.839   7.659
 5762SOL     OW17743   3.456   1.976   8.928
 5762SOL    HW117744   3.438   2.043   8.856
 5762SOL    HW217745   3.453   2.022   9.017
 5763SOL     OW17746   1.984   2.505   8.011
 5763SOL    HW117747   1.939   2.417   8.028
 5763SOL    HW217748   1.983   2.559   8.095
 5764SOL     OW17749   3.704   3.629   7.807
 5764SOL    HW117750   3.758   3.600   7.887
 5764SOL    HW217751   3.734   3.719   7.778
 5765SOL     OW17752   1.889   3.458   7.565
 5765SOL    HW117753   1.870   3.362   7.586
 5765SOL    HW217754   1.856   3.516   7.640
 5766SOL     OW17755   3.551   2.784   8.060
 5766SOL    HW117756   3.646   2.755   8.068
 5766SOL    HW217757   3.543   2.849   7.985
 5767SOL     OW17758   3.503   2.970   7.880
 5767SOL    HW117759   3.589   2.972   7.828
 5767SOL    HW217760   3.517   3.017   7.968
 5768SOL     OW17761   1.975   2.599   9.045
 5768SOL    HW117762   2.063   2.586   9.090
 5768SOL    HW217763   1.962   2.696   9.023
 5769SOL     OW17764   2.475   3.227   8.174
 5769SOL    HW117765   2.426   3.140   8.183
 5769SOL    HW217766   2.452   3.270   8.087
 5770SOL     OW17767   3.155   3.090   8.871
 5770SOL    HW117768   3.192   3.017   8.813
 5770SOL    HW217769   3.207   3.095   8.956
 5771SOL     OW17770   2.671   1.866   7.950
 5771SOL    HW117771   2.711   1.957   7.941
 5771SOL    HW217772   2.571   1.874   7.956
 5772SOL     OW17773   2.059   2.838   8.712
 5772SOL    HW117774   2.148   2.793   8.698
 5772SOL    HW217775   1.986   2.773   8.693
 5773SOL     OW17776   3.387   2.861   7.638
 5773SOL    HW117777   3.324   2.785   7.651
 5773SOL    HW217778   3.435   2.879   7.724
 5774SOL     OW17779   3.049   3.654   9.064
 5774SOL    HW117780   3.073   3.714   8.988
 5774SOL    HW217781   3.056   3.559   9.034
 5775SOL     OW17782   2.179   2.113   9.249
 5775SOL    HW117783   2.250   2.184   9.255
 5775SOL    HW217784   2.091   2.152   9.277
 5776SOL     OW17785   3.328   3.279   8.401
 5776SOL    HW117786   3.269   3.285   8.481
 5776SOL    HW217787   3.313   3.191   8.355
 5777SOL     OW17788   3.529   3.576   8.020
 5777SOL    HW117789   3.488   3.553   7.932
 5777SOL    HW217790   3.511   3.502   8.085
 5778SOL     OW17791   2.460   2.591   7.718
 5778SOL    HW117792   2.484   2.660   7.650
 5778SOL    HW217793   2.382   2.624   7.772
 5779SOL     OW17794   3.143   2.207   8.392
 5779SOL    HW117795   3.057   2.157   8.379
 5779SOL    HW217796   3.205   2.153   8.448
 5780SOL     OW17797   3.438   3.524   7.755
 5780SOL    HW117798   3.527   3.570   7.758
 5780SOL    HW217799   3.417   3.500   7.660
 5781SOL     OW17800   2.669   2.467   8.913
 5781SOL    HW117801   2.622   2.464   9.002
 5781SOL    HW217802   2.618   2.412   8.847
 5782SOL     OW17803   3.256   2.331   9.122
 5782SOL    HW117804   3.236   2.374   9.210
 5782SOL    HW217805   3.334   2.269   9.131
 5783SOL     OW17806   2.835   2.752   9.020
 5783SOL    HW117807   2.881   2.668   8.991
 5783SOL    HW217808   2.779   2.786   8.945
 5784SOL     OW17809   2.853   2.272   8.690
 5784SOL    HW117810   2.776   2.306   8.744
 5784SOL    HW217811   2.819   2.221   8.611
 5785SOL     OW17812   2.903   2.563   7.877
 5785SOL    HW117813   2.929   2.559   7.973
 5785SOL    HW217814   2.818   2.512   7.863
 5786SOL     OW17815   1.938   2.673   8.237
 5786SOL    HW117816   2.037   2.661   8.246
 5786SOL    HW217817   1.914   2.768   8.258
 5787SOL     OW17818   1.992   3.683   9.019
 5787SOL    HW117819   1.982   3.668   9.118
 5787SOL    HW217820   1.906   3.719   8.983
 5788SOL     OW17821   2.727   2.210   7.643
 5788SOL    HW117822   2.786   2.273   7.594
 5788SOL    HW217823   2.746   2.116   7.614
 5789SOL     OW17824   3.581   2.447   9.279
 5789SOL    HW117825   3.555   2.536   9.243
 5789SOL    HW217826   3.579   2.379   9.206
 5790SOL     OW17827   3.224   3.006   7.993
 5790SOL    HW117828   3.307   2.977   7.945
 5790SOL    HW217829   3.175   3.073   7.937
 5791SOL     OW17830   2.412   2.058   8.333
 5791SOL    HW117831   2.407   2.053   8.433
 5791SOL    HW217832   2.414   2.154   8.304
 5792SOL     OW17833   2.870   3.318   7.925
 5792SOL    HW117834   2.824   3.390   7.873
 5792SOL    HW217835   2.866   3.338   8.023
 5793SOL     OW17836   2.213   3.663   8.301
 5793SOL    HW117837   2.263   3.577   8.307
 5793SOL    HW217838   2.278   3.740   8.298
 5794SOL     OW17839   3.657   2.928   8.321
 5794SOL    HW117840   3.595   2.913   8.245
 5794SOL    HW217841   3.605   2.939   8.406
 5795SOL     OW17842   3.089   3.412   8.954
 5795SOL    HW117843   3.095   3.335   9.018
 5795SOL    HW217844   3.037   3.386   8.874
 5796SOL     OW17845   2.183   2.805   7.690
 5796SOL    HW117846   2.265   2.844   7.648
 5796SOL    HW217847   2.156   2.723   7.641
 5797SOL     OW17848   3.320   2.597   8.176
 5797SOL    HW117849   3.315   2.532   8.251
 5797SOL    HW217850   3.400   2.656   8.189
 5798SOL     OW17851   2.323   3.128   9.175
 5798SOL    HW117852   2.273   3.129   9.089
 5798SOL    HW217853   2.260   3.110   9.251
 5799SOL     OW17854   2.973   3.638   7.685
 5799SOL    HW117855   2.913   3.576   7.735
 5799SOL    HW217856   3.004   3.594   7.600
 5800SOL     OW17857   3.494   3.239   7.529
 5800SOL    HW117858   3.462   3.333   7.519
 5800SOL    HW217859   3.418   3.176   7.517
 5801SOL     OW17860   2.326   3.605   7.771
 5801SOL    HW117861   2.359   3.644   7.857
 5801SOL    HW217862   2.402   3.598   7.706
 5802SOL     OW17863   3.262   1.969   7.874
 5802SOL    HW117864   3.238   1.932   7.784
 5802SOL    HW217865   3.361   1.985   7.878
 5803SOL     OW17866   2.111   3.647   8.689
 5803SOL    HW117867   2.168   3.582   8.739
 5803SOL    HW217868   2.095   3.614   8.596
 5804SOL     OW17869   2.802   3.560   8.352
 5804SOL    HW117870   2.882   3.503   8.373
 5804SOL    HW217871   2.753   3.520   8.275
 5805SOL     OW17872   2.244   2.562   7.928
 5805SOL    HW117873   2.289   2.472   7.925
 5805SOL    HW217874   2.150   2.551   7.961
 5806SOL     OW17875   3.409   2.084   9.177
 5806SOL    HW117876   3.404   2.121   9.269
 5806SOL    HW217877   3.337   2.015   9.165
 5807SOL     OW17878   2.643   2.126   9.197
 5807SOL    HW117879   2.710   2.065   9.240
 5807SOL    HW217880   2.570   2.145   9.262
 5808SOL     OW17881   2.750   3.376   8.643
 5808SOL    HW117882   2.727   3.351   8.549
 5808SOL    HW217883   2.811   3.307   8.682
 5809SOL     OW17884   3.213   2.452   8.881
 5809SOL    HW117885   3.241   2.409   8.966
 5809SOL    HW217886   3.238   2.548   8.882
 5810SOL     OW17887   2.665   3.264   8.372
 5810SOL    HW117888   2.755   3.278   8.330
 5810SOL    HW217889   2.594   3.266   8.301
 5811SOL     OW17890   2.784   2.365   8.347
 5811SOL    HW117891   2.759   2.356   8.251
 5811SOL    HW217892   2.832   2.283   8.378
 5812SOL     OW17893   2.401   1.926   7.960
 5812SOL    HW117894   2.320   1.927   8.018
 5812SOL    HW217895   2.404   2.009   7.905
 5813SOL     OW17896   3.296   3.050   7.489
 5813SOL    HW117897   3.328   2.974   7.546
 5813SOL    HW217898   3.204   3.077   7.519
 5814SOL     OW17899   2.797   2.098   7.928
 5814SOL    HW117900   2.749   2.139   7.850
 5814SOL    HW217901   2.896   2.096   7.909
 5815SOL     OW17902   2.938   2.545   8.912
 5815SOL    HW117903   2.858   2.484   8.915
 5815SOL    HW217904   3.019   2.492   8.888
 5816SOL     OW17905   3.089   3.432   8.241
 5816SOL    HW117906   3.110   3.506   8.176
 5816SOL    HW217907   3.157   3.432   8.314
 5817SOL     OW17908   2.321   3.014   8.189
 5817SOL    HW117909   2.250   2.987   8.254
 5817SOL    HW217910   2.295   2.986   8.096
 5818SOL     OW17911   3.133   3.659   8.039
 5818SOL    HW117912   3.177   3.723   7.975
 5818SOL    HW217913   3.083   3.711   8.109
 5819SOL     OW17914   2.894   2.411   7.464
 5819SOL    HW117915   2.853   2.493   7.425
 5819SOL    HW217916   2.958   2.437   7.537
 5820SOL     OW17917   1.940   2.418   8.834
 5820SOL    HW117918   2.032   2.417   8.793
 5820SOL    HW217919   1.934   2.492   8.901
 5821SOL     OW17920   2.423   2.084   8.595
 5821SOL    HW117921   2.461   2.000   8.632
 5821SOL    HW217922   2.335   2.103   8.639
 5822SOL     OW17923   2.728   2.316   8.090
 5822SOL    HW117924   2.696   2.388   8.028
 5822SOL    HW217925   2.752   2.235   8.037
 5823SOL     OW17926   2.879   1.901   8.201
 5823SOL    HW117927   2.807   1.906   8.132
 5823SOL    HW217928   2.855   1.832   8.270
 5824SOL     OW17929   3.291   3.035   8.315
 5824SOL    HW117930   3.236   2.951   8.308
 5824SOL    HW217931   3.317   3.064   8.223
 5825SOL     OW17932   3.328   2.452   8.440
 5825SOL    HW117933   3.298   2.357   8.447
 5825SOL    HW217934   3.401   2.468   8.506
 5826SOL     OW17935   3.719   2.695   7.825
 5826SOL    HW117936   3.761   2.631   7.889
 5826SOL    HW217937   3.681   2.644   7.747
 5827SOL     OW17938   2.350   3.247   7.622
 5827SOL    HW117939   2.263   3.232   7.669
 5827SOL    HW217940   2.333   3.273   7.527
 5828SOL     OW17941   3.526   3.142   8.105
 5828SOL    HW117942   3.625   3.150   8.119
 5828SOL    HW217943   3.481   3.226   8.136
 5829SOL     OW17944   3.252   2.437   7.526
 5829SOL    HW117945   3.198   2.416   7.607
 5829SOL    HW217946   3.343   2.396   7.535
 5830SOL     OW17947   3.616   3.085   9.036
 5830SOL    HW117948   3.707   3.046   9.023
 5830SOL    HW217949   3.624   3.181   9.060
 5831SOL     OW17950   2.926   3.209   8.788
 5831SOL    HW117951   2.846   3.186   8.843
 5831SOL    HW217952   3.009   3.183   8.837
 5832SOL     OW17953   3.454   3.491   9.073
 5832SOL    HW117954   3.481   3.525   8.983
 5832SOL    HW217955   3.533   3.453   9.119
 5833SOL     OW17956   2.973   3.057   8.548
 5833SOL    HW117957   2.933   3.101   8.629
 5833SOL    HW217958   2.932   3.094   8.465
 5834SOL     OW17959   3.500   2.961   8.527
 5834SOL    HW117960   3.505   3.042   8.586
 5834SOL    HW217961   3.414   2.963   8.476
 5835SOL     OW17962   2.777   1.951   8.850
 5835SOL    HW117963   2.802   1.931   8.755
 5835SOL    HW217964   2.849   2.007   8.892
 5836SOL     OW17965   2.842   2.978   9.167
 5836SOL    HW117966   2.743   2.984   9.177
 5836SOL    HW217967   2.865   2.898   9.111
 5837SOL     OW17968   2.567   2.912   7.816
 5837SOL    HW117969   2.553   2.919   7.915
 5837SOL    HW217970   2.651   2.861   7.798
 5838SOL     OW17971   2.272   2.675   8.699
 5838SOL    HW117972   2.358   2.687   8.749
 5838SOL    HW217973   2.230   2.588   8.726
 5839SOL     OW17974   3.136   2.248   8.710
 5839SOL    HW117975   3.157   2.322   8.774
 5839SOL    HW217976   3.047   2.265   8.667
 5840SOL     OW17977   1.926   3.426   8.779
 5840SOL    HW117978   1.880   3.508   8.745
 5840SOL    HW217979   2.024   3.445   8.788
 5841SOL     OW17980   2.229   2.962   7.949
 5841SOL    HW117981   2.222   3.045   7.893
 5841SOL    HW217982   2.233   2.882   7.889
 5842SOL     OW17983   2.428   2.399   8.313
 5842SOL    HW117984   2.440   2.465   8.239
 5842SOL    HW217985   2.474   2.433   8.396
 5843SOL     OW17986   3.114   3.210   7.836
 5843SOL    HW117987   3.164   3.287   7.876
 5843SOL    HW217988   3.019   3.212   7.868
 5844SOL     OW17989   3.134   3.307   8.590
 5844SOL    HW117990   3.181   3.320   8.677
 5844SOL    HW217991   3.068   3.233   8.599
 5845SOL     OW17992   3.444   2.501   7.920
 5845SOL    HW117993   3.413   2.562   7.993
 5845SOL    HW217994   3.494   2.553   7.851
 5846SOL     OW17995   2.216   3.372   8.777
 5846SOL    HW117996   2.195   3.328   8.690
 5846SOL    HW217997   2.313   3.398   8.780
 5847SOL     OW17998   2.264   2.613   9.046
 5847SOL    HW117999   2.332   2.668   8.999
 5847SOL    HW218000   2.304   2.525   9.073
 5848SOL     OW18001   3.449   2.641   9.118
 5848SOL    HW118002   3.357   2.679   9.113
 5848SOL    HW218003   3.509   2.688   9.053
 5849SOL     OW18004   2.875   1.967   9.218
 5849SOL    HW118005   2.881   2.052   9.166
 5849SOL    HW218006   2.907   1.891   9.161
 5850SOL     OW18007   2.366   1.912   9.188
 5850SOL    HW118008   2.324   1.855   9.118
 5850SOL    HW218009   2.300   1.981   9.220
 5851SOL     OW18010   2.435   2.732   8.477
 5851SOL    HW118011   2.479   2.821   8.468
 5851SOL    HW218012   2.372   2.732   8.554
 5852SOL     OW18013   3.222   2.724   8.493
 5852SOL    HW118014   3.147   2.724   8.427
 5852SOL    HW218015   3.259   2.632   8.502
 5853SOL     OW18016   3.071   2.387   7.723
 5853SOL    HW118017   3.084   2.303   7.777
 5853SOL    HW218018   3.042   2.461   7.783
 5854SOL     OW18019   2.169   2.075   8.679
 5854SOL    HW118020   2.146   2.112   8.769
 5854SOL    HW218021   2.139   1.980   8.673
 5855SOL     OW18022   1.899   3.172   8.730
 5855SOL    HW118023   1.952   3.123   8.798
 5855SOL    HW218024   1.921   3.270   8.735
 5856SOL     OW18025   2.594   2.496   8.512
 5856SOL    HW118026   2.653   2.470   8.436
 5856SOL    HW218027   2.566   2.592   8.501
 5857SOL     OW18028   3.590   2.797   9.302
 5857SOL    HW118029   3.544   2.790   9.213
 5857SOL    HW218030   3.528   2.841   9.368
 5858SOL     OW18031   3.484   2.229   7.822
 5858SOL    HW118032   3.486   2.153   7.886
 5858SOL    HW218033   3.436   2.306   7.862
 5859SOL     OW18034   2.885   2.628   8.414
 5859SOL    HW118035   2.900   2.649   8.510
 5859SOL    HW218036   2.855   2.533   8.405
 5860SOL     OW18037   2.842   3.435   9.148
 5860SOL    HW118038   2.822   3.479   9.060
 5860SOL    HW218039   2.881   3.344   9.132
 5861SOL     OW18040   3.721   3.380   9.053
 5861SOL    HW118041   3.735   3.407   8.958
 5861SOL    HW218042   3.804   3.402   9.106
 5862SOL     OW18043   2.212   2.760   9.252
 5862SOL    HW118044   2.288   2.804   9.300
 5862SOL    HW218045   2.247   2.713   9.170
 5863SOL     OW18046   3.402   2.136   7.573
 5863SOL    HW118047   3.341   2.061   7.596
 5863SOL    HW218048   3.424   2.188   7.656
 5864SOL     OW18049   3.165   2.700   7.490
 5864SOL    HW118050   3.199   2.607   7.505
 5864SOL    HW218051   3.183   2.727   7.395
 5865SOL     OW18052   2.930   3.195   8.297
 5865SOL    HW118053   2.937   3.111   8.242
 5865SOL    HW218054   2.992   3.264   8.261
 5866SOL     OW18055   2.181   2.672   8.397
 5866SOL    HW118056   2.274   2.708   8.402
 5866SOL    HW218057   2.175   2.587   8.449
 5867SOL     OW18058   2.201   2.371   8.454
 5867SOL    HW118059   2.149   2.288   8.437
 5867SOL    HW218060   2.278   2.376   8.390
 5868SOL     OW18061   3.000   2.242   9.126
 5868SOL    HW118062   2.955   2.305   9.190
 5868SOL    HW218063   3.093   2.273   9.109
 5869SOL     OW18064   3.022   2.069   8.925
 5869SOL    HW118065   3.022   2.133   9.002
 5869SOL    HW218066   3.050   2.117   8.842
 5870SOL     OW18067   1.870   3.188   7.648
 5870SOL    HW118068   1.777   3.209   7.617
 5870SOL    HW218069   1.880   3.089   7.661
 5871SOL     OW18070   1.950   3.663   8.375
 5871SOL    HW118071   1.908   3.577   8.348
 5871SOL    HW218072   2.044   3.666   8.341
 5872SOL     OW18073   2.366   3.430   8.358
 5872SOL    HW118074   2.432   3.504   8.367
 5872SOL    HW218075   2.410   3.351   8.316
 5873SOL     OW18076   2.864   2.658   8.686
 5873SOL    HW118077   2.905   2.626   8.772
 5873SOL    HW218078   2.768   2.631   8.683
 5874SOL     OW18079   1.902   2.406   8.562
 5874SOL    HW118080   1.987   2.373   8.521
 5874SOL    HW218081   1.915   2.421   8.660
 5875SOL     OW18082   2.051   2.382   9.170
 5875SOL    HW118083   2.110   2.342   9.100
 5875SOL    HW218084   1.993   2.453   9.129
 5876SOL     OW18085   3.231   2.812   9.108
 5876SOL    HW118086   3.270   2.901   9.128
 5876SOL    HW218087   3.241   2.792   9.011
 5877SOL     OW18088   2.677   2.434   7.773
 5877SOL    HW118089   2.684   2.345   7.727
 5877SOL    HW218090   2.583   2.468   7.765
 5878SOL     OW18091   3.519   2.466   8.654
 5878SOL    HW118092   3.481   2.397   8.716
 5878SOL    HW218093   3.601   2.430   8.610
 5879SOL     OW18094   2.114   3.426   9.192
 5879SOL    HW118095   2.084   3.483   9.268
 5879SOL    HW218096   2.107   3.329   9.218
 5880SOL     OW18097   2.533   2.326   8.717
 5880SOL    HW118098   2.499   2.237   8.687
 5880SOL    HW218099   2.559   2.380   8.637
 5881SOL     OW18100   2.792   3.540   8.913
 5881SOL    HW118101   2.768   3.522   8.818
 5881SOL    HW218102   2.822   3.634   8.923
 5882SOL     OW18103   2.021   2.999   8.914
 5882SOL    HW118104   2.043   2.938   8.990
 5882SOL    HW218105   2.031   2.950   8.828
 5883SOL     OW18106   3.209   2.921   8.682
 5883SOL    HW118107   3.233   2.858   8.608
 5883SOL    HW218108   3.119   2.961   8.664
 5884SOL     OW18109   3.164   2.717   7.757
 5884SOL    HW118110   3.078   2.686   7.799
 5884SOL    HW218111   3.160   2.703   7.658
 5885SOL     OW18112   3.621   3.609   8.602
 5885SOL    HW118113   3.682   3.639   8.529
 5885SOL    HW218114   3.583   3.520   8.580
 5886SOL     OW18115   3.114   3.593   8.576
 5886SOL    HW118116   3.198   3.598   8.522
 5886SOL    HW218117   3.091   3.497   8.594
 5887SOL     OW18118   1.945   3.120   8.470
 5887SOL    HW118119   1.940   3.119   8.570
 5887SOL    HW218120   1.862   3.079   8.432
 5888SOL     OW18121   2.550   3.524   9.164
 5888SOL    HW118122   2.494   3.605   9.173
 5888SOL    HW218123   2.602   3.528   9.078
 5889SOL     OW18124   3.588   1.997   7.971
 5889SOL    HW118125   3.661   1.980   7.904
 5889SOL    HW218126   3.557   1.910   8.009
 5890SOL     OW18127   3.250   3.435   7.925
 5890SOL    HW118128   3.317   3.447   7.851
 5890SOL    HW218129   3.210   3.524   7.948
 5891SOL     OW18130   1.992   3.656   9.299
 5891SOL    HW118131   1.951   3.582   9.352
 5891SOL    HW218132   2.056   3.707   9.357
 5892SOL     OW18133   3.142   2.789   8.120
 5892SOL    HW118134   3.202   2.708   8.122
 5892SOL    HW218135   3.182   2.858   8.060
 5893SOL     OW18136   2.692   3.135   8.870
 5893SOL    HW118137   2.687   3.168   8.965
 5893SOL    HW218138   2.606   3.154   8.824
 5894SOL     OW18139   2.534   3.478   7.602
 5894SOL    HW118140   2.543   3.488   7.503
 5894SOL    HW218141   2.494   3.389   7.623
 5895SOL     OW18142   3.512   3.582   8.842
 5895SOL    HW118143   3.565   3.592   8.758
 5895SOL    HW218144   3.485   3.672   8.876
 5896SOL     OW18145   3.703   2.037   8.411
 5896SOL    HW118146   3.742   1.952   8.375
 5896SOL    HW218147   3.605   2.039   8.392
 5897SOL     OW18148   3.056   3.474   7.479
 5897SOL    HW118149   3.062   3.381   7.516
 5897SOL    HW218150   2.997   3.474   7.399
 5898SOL     OW18151   2.684   2.864   8.820
 5898SOL    HW118152   2.724   2.863   8.728
 5898SOL    HW218153   2.694   2.956   8.860
 5899SOL     OW18154   2.778   2.772   7.739
 5899SOL    HW118155   2.841   2.810   7.671
 5899SOL    HW218156   2.818   2.689   7.778
 5900SOL     OW18157   3.366   3.469   7.492
 5900SOL    HW118158   3.274   3.506   7.499
 5900SOL    HW218159   3.404   3.489   7.402
 5901SOL     OW18160   2.234   3.150   8.938
 5901SOL    HW118161   2.221   3.243   8.904
 5901SOL    HW218162   2.150   3.098   8.925
 5902SOL     OW18163   3.476   3.154   8.737
 5902SOL    HW118164   3.536   3.157   8.817
 5902SOL    HW218165   3.401   3.218   8.750
 5903SOL     OW18166   2.901   2.960   8.144
 5903SOL    HW118167   2.831   2.913   8.198
 5903SOL    HW218168   2.960   2.892   8.101
 5904SOL     OW18169   2.876   2.098   8.419
 5904SOL    HW118170   2.868   2.062   8.326
 5904SOL    HW218171   2.874   2.022   8.484
 5905SOL     OW18172   2.452   3.349   7.939
 5905SOL    HW118173   2.494   3.291   7.869
 5905SOL    HW218174   2.408   3.428   7.895
 5906SOL     OW18175   3.571   2.247   8.829
 5906SOL    HW118176   3.644   2.316   8.833
 5906SOL    HW218177   3.599   2.172   8.770
 5907SOL     OW18178   2.117   3.210   7.738
 5907SOL    HW118179   2.021   3.211   7.711
 5907SOL    HW218180   2.129   3.263   7.822
 5908SOL     OW18181   1.967   2.875   9.174
 5908SOL    HW118182   1.890   2.842   9.228
 5908SOL    HW218183   2.052   2.845   9.216
 5909SOL     OW18184   2.534   2.065   8.937
 5909SOL    HW118185   2.624   2.049   8.897
 5909SOL    HW218186   2.542   2.070   9.036
 5910SOL     OW18187   3.302   2.718   8.846
 5910SOL    HW118188   3.245   2.770   8.783
 5910SOL    HW218189   3.398   2.730   8.822
 5911SOL     OW18190   3.045   3.197   7.567
 5911SOL    HW118191   2.946   3.186   7.569
 5911SOL    HW218192   3.079   3.212   7.660
 5912SOL     OW18193   2.475   2.704   8.879
 5912SOL    HW118194   2.531   2.785   8.862
 5912SOL    HW218195   2.534   2.624   8.882
 5913SOL     OW18196   3.355   3.629   8.407
 5913SOL    HW118197   3.388   3.693   8.338
 5913SOL    HW218198   3.421   3.623   8.482
 5914SOL     OW18199   2.578   2.427   9.156
 5914SOL    HW118200   2.597   2.492   9.230
 5914SOL    HW218201   2.638   2.347   9.165
 5915SOL     OW18202   3.312   3.082   9.081
 5915SOL    HW118203   3.303   3.072   9.180
 5915SOL    HW218204   3.408   3.075   9.055
 5916SOL     OW18205   2.252   3.603   9.008
 5916SOL    HW118206   2.161   3.644   9.006
 5916SOL    HW218207   2.245   3.509   9.040
 5917SOL     OW18208   3.536   2.745   8.702
 5917SOL    HW118209   3.509   2.656   8.665
 5917SOL    HW218210   3.537   2.813   8.629
 5918SOL     OW18211   3.087   2.187   7.897
 5918SOL    HW118212   3.152   2.113   7.886
 5918SOL    HW218213   3.107   2.237   7.981
 5919SOL     OW18214   2.456   2.607   8.100
 5919SOL    HW118215   2.506   2.692   8.081
 5919SOL    HW218216   2.368   2.609   8.052
 5920SOL     OW18217   3.639   2.204   9.090
 5920SOL    HW118218   3.622   2.235   8.996
 5920SOL    HW218219   3.555   2.167   9.128
 5921SOL     OW18220   3.592   2.796   8.965
 5921SOL    HW118221   3.630   2.887   8.980
 5921SOL    HW218222   3.584   2.779   8.866
 5922SOL     OW18223   2.721   3.236   7.464
 5922SOL    HW118224   2.675   3.251   7.552
 5922SOL    HW218225   2.765   3.321   7.434
 5923SOL     OW18226   2.523   3.652   8.401
 5923SOL    HW118227   2.477   3.740   8.388
 5923SOL    HW218228   2.622   3.664   8.394
 5924SOL     OW18229   2.721   2.818   8.309
 5924SOL    HW118230   2.775   2.749   8.357
 5924SOL    HW218231   2.689   2.887   8.375
 5925SOL     OW18232   2.945   2.846   7.535
 5925SOL    HW118233   2.922   2.899   7.453
 5925SOL    HW218234   3.026   2.790   7.516
 5926SOL     OW18235   3.723   3.431   8.299
 5926SOL    HW118236   3.652   3.419   8.229
 5926SOL    HW218237   3.724   3.352   8.359
 5927SOL     OW18238   2.083   3.176   9.292
 5927SOL    HW118239   2.018   3.103   9.271
 5927SOL    HW218240   2.087   3.190   9.390
 5928SOL     OW18241   1.941   3.102   8.101
 5928SOL    HW118242   1.940   3.055   8.189
 5928SOL    HW218243   2.023   3.074   8.050
 5929SOL     OW18244   2.534   3.253   9.072
 5929SOL    HW118245   2.456   3.203   9.110
 5929SOL    HW218246   2.531   3.348   9.103
 5930SOL     OW18247   3.686   2.054   8.675
 5930SOL    HW118248   3.682   1.964   8.719
 5930SOL    HW218249   3.689   2.043   8.576
 5931SOL     OW18250   3.567   3.349   8.552
 5931SOL    HW118251   3.474   3.324   8.525
 5931SOL    HW218252   3.593   3.299   8.634
 5932SOL     OW18253   2.179   2.409   8.728
 5932SOL    HW118254   2.217   2.350   8.800
 5932SOL    HW218255   2.219   2.383   8.640
 5933SOL     OW18256   2.674   3.448   8.135
 5933SOL    HW118257   2.706   3.458   8.041
 5933SOL    HW218258   2.595   3.386   8.137
 5934SOL     OW18259   3.286   2.076   8.560
 5934SOL    HW118260   3.338   2.011   8.615
 5934SOL    HW218261   3.237   2.139   8.621
 5935SOL     OW18262   2.863   1.896   8.602
 5935SOL    HW118263   2.800   1.824   8.571
 5935SOL    HW218264   2.956   1.860   8.602
 5936SOL     OW18265   2.632   3.192   7.749
 5936SOL    HW118266   2.586   3.105   7.766
 5936SOL    HW218267   2.723   3.189   7.790
 5937SOL     OW18268   2.480   3.429   8.732
 5937SOL    HW118269   2.475   3.511   8.789
 5937SOL    HW218270   2.569   3.426   8.687
 5938SOL     OW18271   3.214   1.914   7.616
 5938SOL    HW118272   3.249   1.873   7.532
 5938SOL    HW218273   3.124   1.876   7.636
 5939SOL     OW18274   3.162   2.315   8.139
 5939SOL    HW118275   3.103   2.395   8.143
 5939SOL    HW218276   3.177   2.280   8.232
 5940SOL     OW18277   3.455   2.083   8.330
 5940SOL    HW118278   3.371   2.082   8.384
 5940SOL    HW218279   3.457   2.166   8.274
 5941SOL     OW18280   1.901   2.939   7.748
 5941SOL    HW118281   2.000   2.928   7.739
 5941SOL    HW218282   1.861   2.853   7.780
 5942SOL     OW18283   2.737   3.508   7.785
 5942SOL    HW118284   2.660   3.473   7.731
 5942SOL    HW218285   2.705   3.579   7.847
 5943SOL     OW18286   2.092   2.490   9.423
 5943SOL    HW118287   1.999   2.488   9.460
 5943SOL    HW218288   2.093   2.451   9.331
 5944SOL     OW18289   1.881   2.230   9.957
 5944SOL    HW118290   1.799   2.273   9.996
 5944SOL    HW218291   1.853   2.157   9.894
 5945SOL     OW18292   2.431   3.137  10.475
 5945SOL    HW118293   2.338   3.130  10.438
 5945SOL    HW218294   2.442   3.226  10.519
 5946SOL     OW18295   3.417   3.373  10.013
 5946SOL    HW118296   3.360   3.357  10.094
 5946SOL    HW218297   3.358   3.383   9.933
 5947SOL     OW18298   2.997   2.565  10.027
 5947SOL    HW118299   3.054   2.643  10.002
 5947SOL    HW218300   2.937   2.591  10.103
 5948SOL     OW18301   3.617   2.469   9.541
 5948SOL    HW118302   3.605   2.456   9.442
 5948SOL    HW218303   3.587   2.388   9.590
 5949SOL     OW18304   2.630   3.006  10.333
 5949SOL    HW118305   2.552   3.023  10.393
 5949SOL    HW218306   2.664   3.093  10.297
 5950SOL     OW18307   2.712   2.660  11.133
 5950SOL    HW118308   2.708   2.736  11.198
 5950SOL    HW218309   2.734   2.696  11.042
 5951SOL     OW18310   2.547   2.874   9.975
 5951SOL    HW118311   2.616   2.858  10.045
 5951SOL    HW218312   2.474   2.931  10.013
 5952SOL     OW18313   2.548   3.023  11.113
 5952SOL    HW118314   2.608   3.102  11.127
 5952SOL    HW218315   2.462   3.054  11.072
 5953SOL     OW18316   2.197   3.297  10.371
 5953SOL    HW118317   2.119   3.266  10.318
 5953SOL    HW218318   2.255   3.355  10.314
 5954SOL     OW18319   3.322   3.367  10.649
 5954SOL    HW118320   3.346   3.461  10.675
 5954SOL    HW218321   3.306   3.313  10.731
 5955SOL     OW18322   2.300   2.254  10.809
 5955SOL    HW118323   2.382   2.198  10.818
 5955SOL    HW218324   2.219   2.196  10.813
 5956SOL     OW18325   3.465   2.309  10.047
 5956SOL    HW118326   3.391   2.355   9.997
 5956SOL    HW218327   3.516   2.377  10.100
 5957SOL     OW18328   2.093   3.575   9.793
 5957SOL    HW118329   2.127   3.652   9.847
 5957SOL    HW218330   2.137   3.575   9.703
 5958SOL     OW18331   2.989   3.203  11.000
 5958SOL    HW118332   3.036   3.203  11.088
 5958SOL    HW218333   2.941   3.116  10.989
 5959SOL     OW18334   2.092   3.296   9.848
 5959SOL    HW118335   2.066   3.392   9.848
 5959SOL    HW218336   2.021   3.242   9.893
 5960SOL     OW18337   2.102   2.953  10.196
 5960SOL    HW118338   2.116   2.869  10.248
 5960SOL    HW218339   2.047   3.017  10.251
 5961SOL     OW18340   2.482   3.648  10.749
 5961SOL    HW118341   2.390   3.631  10.784
 5961SOL    HW218342   2.510   3.740  10.775
 5962SOL     OW18343   2.468   2.826   9.433
 5962SOL    HW118344   2.475   2.910   9.379
 5962SOL    HW218345   2.514   2.839   9.521
 5963SOL     OW18346   3.456   1.976  10.790
 5963SOL    HW118347   3.438   2.043  10.718
 5963SOL    HW218348   3.453   2.022  10.879
 5964SOL     OW18349   1.984   2.505   9.873
 5964SOL    HW118350   1.939   2.417   9.890
 5964SOL    HW218351   1.983   2.559   9.957
 5965SOL     OW18352   3.704   3.629   9.669
 5965SOL    HW118353   3.758   3.600   9.749
 5965SOL    HW218354   3.734   3.719   9.640
 5966SOL     OW18355   1.889   3.458   9.427
 5966SOL    HW118356   1.870   3.362   9.448
 5966SOL    HW218357   1.856   3.516   9.502
 5967SOL     OW18358   3.551   2.784   9.922
 5967SOL    HW118359   3.646   2.755   9.930
 5967SOL    HW218360   3.543   2.849   9.847
 5968SOL     OW18361   3.503   2.970   9.742
 5968SOL    HW118362   3.589   2.972   9.690
 5968SOL    HW218363   3.517   3.017   9.830
 5969SOL     OW18364   1.975   2.599  10.907
 5969SOL    HW118365   2.063   2.586  10.952
 5969SOL    HW218366   1.962   2.696  10.885
 5970SOL     OW18367   2.475   3.227  10.036
 5970SOL    HW118368   2.426   3.140  10.045
 5970SOL    HW218369   2.452   3.270   9.949
 5971SOL     OW18370   3.155   3.090  10.733
 5971SOL    HW118371   3.192   3.017  10.675
 5971SOL    HW218372   3.207   3.095  10.818
 5972SOL     OW18373   2.671   1.866   9.812
 5972SOL    HW118374   2.711   1.957   9.803
 5972SOL    HW218375   2.571   1.874   9.818
 5973SOL     OW18376   2.059   2.838  10.574
 5973SOL    HW118377   2.148   2.793  10.560
 5973SOL    HW218378   1.986   2.773  10.555
 5974SOL     OW18379   3.387   2.861   9.500
 5974SOL    HW118380   3.324   2.785   9.513
 5974SOL    HW218381   3.435   2.879   9.586
 5975SOL     OW18382   3.049   3.654  10.926
 5975SOL    HW118383   3.073   3.714  10.850
 5975SOL    HW218384   3.056   3.559  10.896
 5976SOL     OW18385   2.179   2.113  11.111
 5976SOL    HW118386   2.250   2.184  11.117
 5976SOL    HW218387   2.091   2.152  11.139
 5977SOL     OW18388   3.328   3.279  10.263
 5977SOL    HW118389   3.269   3.285  10.343
 5977SOL    HW218390   3.313   3.191  10.217
 5978SOL     OW18391   3.529   3.576   9.882
 5978SOL    HW118392   3.488   3.553   9.794
 5978SOL    HW218393   3.511   3.502   9.947
 5979SOL     OW18394   2.460   2.591   9.580
 5979SOL    HW118395   2.484   2.660   9.512
 5979SOL    HW218396   2.382   2.624   9.634
 5980SOL     OW18397   3.143   2.207  10.254
 5980SOL    HW118398   3.057   2.157  10.241
 5980SOL    HW218399   3.205   2.153  10.310
 5981SOL     OW18400   3.438   3.524   9.617
 5981SOL    HW118401   3.527   3.570   9.620
 5981SOL    HW218402   3.417   3.500   9.522
 5982SOL     OW18403   2.669   2.467  10.775
 5982SOL    HW118404   2.622   2.464  10.864
 5982SOL    HW218405   2.618   2.412  10.709
 5983SOL     OW18406   3.256   2.331  10.984
 5983SOL    HW118407   3.236   2.374  11.072
 5983SOL    HW218408   3.334   2.269  10.993
 5984SOL     OW18409   2.835   2.752  10.882
 5984SOL    HW118410   2.881   2.668  10.853
 5984SOL    HW218411   2.779   2.786  10.807
 5985SOL     OW18412   2.853   2.272  10.552
 5985SOL    HW118413   2.776   2.306  10.606
 5985SOL    HW218414   2.819   2.221  10.473
 5986SOL     OW18415   2.903   2.563   9.739
 5986SOL    HW118416   2.929   2.559   9.835
 5986SOL    HW218417   2.818   2.512   9.725
 5987SOL     OW18418   1.938   2.673  10.099
 5987SOL    HW118419   2.037   2.661  10.108
 5987SOL    HW218420   1.914   2.768  10.120
 5988SOL     OW18421   1.992   3.683  10.881
 5988SOL    HW118422   1.982   3.668  10.980
 5988SOL    HW218423   1.906   3.719  10.845
 5989SOL     OW18424   2.727   2.210   9.505
 5989SOL    HW118425   2.786   2.273   9.456
 5989SOL    HW218426   2.746   2.116   9.476
 5990SOL     OW18427   3.581   2.447  11.141
 5990SOL    HW118428   3.555   2.536  11.105
 5990SOL    HW218429   3.579   2.379  11.068
 5991SOL     OW18430   3.224   3.006   9.855
 5991SOL    HW118431   3.307   2.977   9.807
 5991SOL    HW218432   3.175   3.073   9.799
 5992SOL     OW18433   2.412   2.058  10.195
 5992SOL    HW118434   2.407   2.053  10.295
 5992SOL    HW218435   2.414   2.154  10.166
 5993SOL     OW18436   2.870   3.318   9.787
 5993SOL    HW118437   2.824   3.390   9.735
 5993SOL    HW218438   2.866   3.338   9.885
 5994SOL     OW18439   2.213   3.663  10.163
 5994SOL    HW118440   2.263   3.577  10.169
 5994SOL    HW218441   2.278   3.740  10.160
 5995SOL     OW18442   3.657   2.928  10.183
 5995SOL    HW118443   3.595   2.913  10.107
 5995SOL    HW218444   3.605   2.939  10.268
 5996SOL     OW18445   3.089   3.412  10.816
 5996SOL    HW118446   3.095   3.335  10.880
 5996SOL    HW218447   3.037   3.386  10.736
 5997SOL     OW18448   2.183   2.805   9.552
 5997SOL    HW118449   2.265   2.844   9.510
 5997SOL    HW218450   2.156   2.723   9.503
 5998SOL     OW18451   3.320   2.597  10.038
 5998SOL    HW118452   3.315   2.532  10.113
 5998SOL    HW218453   3.400   2.656  10.051
 5999SOL     OW18454   2.323   3.128  11.037
 5999SOL    HW118455   2.273   3.129  10.951
 5999SOL    HW218456   2.260   3.110  11.113
 6000SOL     OW18457   2.973   3.638   9.547
 6000SOL    HW118458   2.913   3.576   9.597
 6000SOL    HW218459   3.004   3.594   9.462
 6001SOL     OW18460   3.494   3.239   9.391
 6001SOL    HW118461   3.462   3.333   9.381
 6001SOL    HW218462   3.418   3.176   9.379
 6002SOL     OW18463   2.326   3.605   9.633
 6002SOL    HW118464   2.359   3.644   9.719
 6002SOL    HW218465   2.402   3.598   9.568
 6003SOL     OW18466   3.262   1.969   9.736
 6003SOL    HW118467   3.238   1.932   9.646
 6003SOL    HW218468   3.361   1.985   9.740
 6004SOL     OW18469   2.111   3.647  10.551
 6004SOL    HW118470   2.168   3.582  10.601
 6004SOL    HW218471   2.095   3.614  10.458
 6005SOL     OW18472   2.802   3.560  10.214
 6005SOL    HW118473   2.882   3.503  10.235
 6005SOL    HW218474   2.753   3.520  10.137
 6006SOL     OW18475   2.244   2.562   9.790
 6006SOL    HW118476   2.289   2.472   9.787
 6006SOL    HW218477   2.150   2.551   9.823
 6007SOL     OW18478   3.409   2.084  11.039
 6007SOL    HW118479   3.404   2.121  11.131
 6007SOL    HW218480   3.337   2.015  11.027
 6008SOL     OW18481   2.476   1.984   9.427
 6008SOL    HW118482   2.574   1.962   9.434
 6008SOL    HW218483   2.445   1.967   9.334
 6009SOL     OW18484   2.643   2.126  11.059
 6009SOL    HW118485   2.710   2.065  11.102
 6009SOL    HW218486   2.570   2.145  11.124
 6010SOL     OW18487   2.750   3.376  10.505
 6010SOL    HW118488   2.727   3.351  10.411
 6010SOL    HW218489   2.811   3.307  10.544
 6011SOL     OW18490   3.213   2.452  10.743
 6011SOL    HW118491   3.241   2.409  10.828
 6011SOL    HW218492   3.238   2.548  10.744
 6012SOL     OW18493   2.665   3.264  10.234
 6012SOL    HW118494   2.755   3.278  10.192
 6012SOL    HW218495   2.594   3.266  10.163
 6013SOL     OW18496   2.784   2.365  10.209
 6013SOL    HW118497   2.759   2.356  10.113
 6013SOL    HW218498   2.832   2.283  10.240
 6014SOL     OW18499   2.401   1.926   9.822
 6014SOL    HW118500   2.320   1.927   9.880
 6014SOL    HW218501   2.404   2.009   9.767
 6015SOL     OW18502   3.296   3.050   9.351
 6015SOL    HW118503   3.328   2.974   9.408
 6015SOL    HW218504   3.204   3.077   9.381
 6016SOL     OW18505   2.797   2.098   9.790
 6016SOL    HW118506   2.749   2.139   9.712
 6016SOL    HW218507   2.896   2.096   9.771
 6017SOL     OW18508   2.938   2.545  10.774
 6017SOL    HW118509   2.858   2.484  10.777
 6017SOL    HW218510   3.019   2.492  10.750
 6018SOL     OW18511   3.089   3.432  10.103
 6018SOL    HW118512   3.110   3.506  10.038
 6018SOL    HW218513   3.157   3.432  10.176
 6019SOL     OW18514   2.321   3.014  10.051
 6019SOL    HW118515   2.250   2.987  10.116
 6019SOL    HW218516   2.295   2.986   9.958
 6020SOL     OW18517   3.133   3.659   9.901
 6020SOL    HW118518   3.177   3.723   9.837
 6020SOL    HW218519   3.083   3.711   9.971
 6021SOL     OW18520   2.894   2.411   9.326
 6021SOL    HW118521   2.853   2.493   9.287
 6021SOL    HW218522   2.958   2.437   9.399
 6022SOL     OW18523   1.940   2.418  10.696
 6022SOL    HW118524   2.032   2.417  10.655
 6022SOL    HW218525   1.934   2.492  10.763
 6023SOL     OW18526   2.423   2.084  10.457
 6023SOL    HW118527   2.461   2.000  10.494
 6023SOL    HW218528   2.335   2.103  10.501
 6024SOL     OW18529   2.728   2.316   9.952
 6024SOL    HW118530   2.696   2.388   9.890
 6024SOL    HW218531   2.752   2.235   9.899
 6025SOL     OW18532   2.879   1.901  10.063
 6025SOL    HW118533   2.807   1.906   9.994
 6025SOL    HW218534   2.855   1.832  10.132
 6026SOL     OW18535   3.291   3.035  10.177
 6026SOL    HW118536   3.236   2.951  10.170
 6026SOL    HW218537   3.317   3.064  10.085
 6027SOL     OW18538   3.328   2.452  10.302
 6027SOL    HW118539   3.298   2.357  10.309
 6027SOL    HW218540   3.401   2.468  10.368
 6028SOL     OW18541   3.719   2.695   9.687
 6028SOL    HW118542   3.761   2.631   9.751
 6028SOL    HW218543   3.681   2.644   9.609
 6029SOL     OW18544   2.350   3.247   9.484
 6029SOL    HW118545   2.263   3.232   9.531
 6029SOL    HW218546   2.333   3.273   9.389
 6030SOL     OW18547   3.526   3.142   9.967
 6030SOL    HW118548   3.625   3.150   9.981
 6030SOL    HW218549   3.481   3.226   9.998
 6031SOL     OW18550   3.252   2.437   9.388
 6031SOL    HW118551   3.198   2.416   9.469
 6031SOL    HW218552   3.343   2.396   9.397
 6032SOL     OW18553   2.389   2.118   9.638
 6032SOL    HW118554   2.416   2.059   9.563
 6032SOL    HW218555   2.389   2.213   9.607
 6033SOL     OW18556   3.616   3.085  10.898
 6033SOL    HW118557   3.707   3.046  10.885
 6033SOL    HW218558   3.624   3.181  10.922
 6034SOL     OW18559   2.926   3.209  10.650
 6034SOL    HW118560   2.846   3.186  10.705
 6034SOL    HW218561   3.009   3.183  10.699
 6035SOL     OW18562   3.454   3.491  10.935
 6035SOL    HW118563   3.481   3.525  10.845
 6035SOL    HW218564   3.533   3.453  10.981
 6036SOL     OW18565   2.973   3.057  10.410
 6036SOL    HW118566   2.933   3.101  10.491
 6036SOL    HW218567   2.932   3.094  10.327
 6037SOL     OW18568   3.500   2.961  10.389
 6037SOL    HW118569   3.505   3.042  10.448
 6037SOL    HW218570   3.414   2.963  10.338
 6038SOL     OW18571   2.777   1.951  10.712
 6038SOL    HW118572   2.802   1.931  10.617
 6038SOL    HW218573   2.849   2.007  10.754
 6039SOL     OW18574   2.842   2.978  11.029
 6039SOL    HW118575   2.743   2.984  11.039
 6039SOL    HW218576   2.865   2.898  10.973
 6040SOL     OW18577   2.567   2.912   9.678
 6040SOL    HW118578   2.553   2.919   9.777
 6040SOL    HW218579   2.651   2.861   9.660
 6041SOL     OW18580   2.272   2.675  10.561
 6041SOL    HW118581   2.358   2.687  10.611
 6041SOL    HW218582   2.230   2.588  10.588
 6042SOL     OW18583   3.136   2.248  10.572
 6042SOL    HW118584   3.157   2.322  10.636
 6042SOL    HW218585   3.047   2.265  10.529
 6043SOL     OW18586   1.926   3.426  10.641
 6043SOL    HW118587   1.880   3.508  10.607
 6043SOL    HW218588   2.024   3.445  10.650
 6044SOL     OW18589   2.229   2.962   9.811
 6044SOL    HW118590   2.222   3.045   9.755
 6044SOL    HW218591   2.233   2.882   9.751
 6045SOL     OW18592   2.428   2.399  10.175
 6045SOL    HW118593   2.440   2.465  10.101
 6045SOL    HW218594   2.474   2.433  10.258
 6046SOL     OW18595   3.114   3.210   9.698
 6046SOL    HW118596   3.164   3.287   9.738
 6046SOL    HW218597   3.019   3.212   9.730
 6047SOL     OW18598   3.134   3.307  10.452
 6047SOL    HW118599   3.181   3.320  10.539
 6047SOL    HW218600   3.068   3.233  10.461
 6048SOL     OW18601   3.444   2.501   9.782
 6048SOL    HW118602   3.413   2.562   9.855
 6048SOL    HW218603   3.494   2.553   9.713
 6049SOL     OW18604   2.216   3.372  10.639
 6049SOL    HW118605   2.195   3.328  10.552
 6049SOL    HW218606   2.313   3.398  10.642
 6050SOL     OW18607   2.264   2.613  10.908
 6050SOL    HW118608   2.332   2.668  10.861
 6050SOL    HW218609   2.304   2.525  10.935
 6051SOL     OW18610   3.449   2.641  10.980
 6051SOL    HW118611   3.357   2.679  10.975
 6051SOL    HW218612   3.509   2.688  10.915
 6052SOL     OW18613   2.875   1.967  11.080
 6052SOL    HW118614   2.881   2.052  11.028
 6052SOL    HW218615   2.907   1.891  11.023
 6053SOL     OW18616   2.366   1.912  11.050
 6053SOL    HW118617   2.324   1.855  10.980
 6053SOL    HW218618   2.300   1.981  11.082
 6054SOL     OW18619   2.435   2.732  10.339
 6054SOL    HW118620   2.479   2.821  10.330
 6054SOL    HW218621   2.372   2.732  10.416
 6055SOL     OW18622   3.222   2.724  10.355
 6055SOL    HW118623   3.147   2.724  10.289
 6055SOL    HW218624   3.259   2.632  10.364
 6056SOL     OW18625   3.071   2.387   9.585
 6056SOL    HW118626   3.084   2.303   9.639
 6056SOL    HW218627   3.042   2.461   9.645
 6057SOL     OW18628   1.899   3.172  10.592
 6057SOL    HW118629   1.952   3.123  10.660
 6057SOL    HW218630   1.921   3.270  10.597
 6058SOL     OW18631   2.594   2.496  10.374
 6058SOL    HW118632   2.653   2.470  10.298
 6058SOL    HW218633   2.566   2.592  10.363
 6059SOL     OW18634   3.590   2.797  11.164
 6059SOL    HW118635   3.544   2.790  11.075
 6059SOL    HW218636   3.528   2.841  11.230
 6060SOL     OW18637   3.484   2.229   9.684
 6060SOL    HW118638   3.486   2.153   9.748
 6060SOL    HW218639   3.436   2.306   9.724
 6061SOL     OW18640   2.885   2.628  10.276
 6061SOL    HW118641   2.900   2.649  10.372
 6061SOL    HW218642   2.855   2.533  10.267
 6062SOL     OW18643   2.842   3.435  11.010
 6062SOL    HW118644   2.822   3.479  10.922
 6062SOL    HW218645   2.881   3.344  10.994
 6063SOL     OW18646   3.721   3.380  10.915
 6063SOL    HW118647   3.735   3.407  10.820
 6063SOL    HW218648   3.804   3.402  10.968
 6064SOL     OW18649   2.212   2.760  11.114
 6064SOL    HW118650   2.288   2.804  11.162
 6064SOL    HW218651   2.247   2.713  11.032
 6065SOL     OW18652   3.402   2.136   9.435
 6065SOL    HW118653   3.341   2.061   9.458
 6065SOL    HW218654   3.424   2.188   9.518
 6066SOL     OW18655   3.165   2.700   9.352
 6066SOL    HW118656   3.199   2.607   9.367
 6066SOL    HW218657   3.183   2.727   9.257
 6067SOL     OW18658   2.930   3.195  10.159
 6067SOL    HW118659   2.937   3.111  10.104
 6067SOL    HW218660   2.992   3.264  10.123
 6068SOL     OW18661   2.181   2.672  10.259
 6068SOL    HW118662   2.274   2.708  10.264
 6068SOL    HW218663   2.175   2.587  10.311
 6069SOL     OW18664   2.201   2.371  10.316
 6069SOL    HW118665   2.149   2.288  10.299
 6069SOL    HW218666   2.278   2.376  10.252
 6070SOL     OW18667   3.000   2.242  10.988
 6070SOL    HW118668   2.955   2.305  11.052
 6070SOL    HW218669   3.093   2.273  10.971
 6071SOL     OW18670   3.022   2.069  10.787
 6071SOL    HW118671   3.022   2.133  10.864
 6071SOL    HW218672   3.050   2.117  10.704
 6072SOL     OW18673   1.870   3.188   9.510
 6072SOL    HW118674   1.777   3.209   9.479
 6072SOL    HW218675   1.880   3.089   9.523
 6073SOL     OW18676   1.950   3.663  10.237
 6073SOL    HW118677   1.908   3.577  10.210
 6073SOL    HW218678   2.044   3.666  10.203
 6074SOL     OW18679   2.366   3.430  10.220
 6074SOL    HW118680   2.432   3.504  10.229
 6074SOL    HW218681   2.410   3.351  10.178
 6075SOL     OW18682   2.864   2.658  10.548
 6075SOL    HW118683   2.905   2.626  10.634
 6075SOL    HW218684   2.768   2.631  10.545
 6076SOL     OW18685   1.902   2.406  10.424
 6076SOL    HW118686   1.987   2.373  10.383
 6076SOL    HW218687   1.915   2.421  10.522
 6077SOL     OW18688   2.051   2.382  11.032
 6077SOL    HW118689   2.110   2.342  10.962
 6077SOL    HW218690   1.993   2.453  10.991
 6078SOL     OW18691   3.231   2.812  10.970
 6078SOL    HW118692   3.270   2.901  10.990
 6078SOL    HW218693   3.241   2.792  10.873
 6079SOL     OW18694   2.677   2.434   9.635
 6079SOL    HW118695   2.684   2.345   9.589
 6079SOL    HW218696   2.583   2.468   9.627
 6080SOL     OW18697   3.519   2.466  10.516
 6080SOL    HW118698   3.481   2.397  10.578
 6080SOL    HW218699   3.601   2.430  10.472
 6081SOL     OW18700   2.114   3.426  11.054
 6081SOL    HW118701   2.084   3.483  11.130
 6081SOL    HW218702   2.107   3.329  11.080
 6082SOL     OW18703   2.533   2.326  10.579
 6082SOL    HW118704   2.499   2.237  10.549
 6082SOL    HW218705   2.559   2.380  10.499
 6083SOL     OW18706   2.792   3.540  10.775
 6083SOL    HW118707   2.768   3.522  10.680
 6083SOL    HW218708   2.822   3.634  10.785
 6084SOL     OW18709   2.335   2.362   9.501
 6084SOL    HW118710   2.396   2.442   9.505
 6084SOL    HW218711   2.240   2.393   9.508
 6085SOL     OW18712   2.021   2.999  10.776
 6085SOL    HW118713   2.043   2.938  10.852
 6085SOL    HW218714   2.031   2.950  10.690
 6086SOL     OW18715   3.209   2.921  10.544
 6086SOL    HW118716   3.233   2.858  10.470
 6086SOL    HW218717   3.119   2.961  10.526
 6087SOL     OW18718   3.164   2.717   9.619
 6087SOL    HW118719   3.078   2.686   9.661
 6087SOL    HW218720   3.160   2.703   9.520
 6088SOL     OW18721   3.621   3.609  10.464
 6088SOL    HW118722   3.682   3.639  10.391
 6088SOL    HW218723   3.583   3.520  10.442
 6089SOL     OW18724   3.114   3.593  10.438
 6089SOL    HW118725   3.198   3.598  10.384
 6089SOL    HW218726   3.091   3.497  10.456
 6090SOL     OW18727   1.945   3.120  10.332
 6090SOL    HW118728   1.940   3.119  10.432
 6090SOL    HW218729   1.862   3.079  10.294
 6091SOL     OW18730   2.550   3.524  11.026
 6091SOL    HW118731   2.494   3.605  11.035
 6091SOL    HW218732   2.602   3.528  10.940
 6092SOL     OW18733   3.588   1.997   9.833
 6092SOL    HW118734   3.661   1.980   9.766
 6092SOL    HW218735   3.557   1.910   9.871
 6093SOL     OW18736   3.250   3.435   9.787
 6093SOL    HW118737   3.317   3.447   9.713
 6093SOL    HW218738   3.210   3.524   9.810
 6094SOL     OW18739   1.992   3.656  11.161
 6094SOL    HW118740   1.951   3.582  11.214
 6094SOL    HW218741   2.056   3.707  11.219
 6095SOL     OW18742   3.142   2.789   9.982
 6095SOL    HW118743   3.202   2.708   9.984
 6095SOL    HW218744   3.182   2.858   9.922
 6096SOL     OW18745   2.692   3.135  10.732
 6096SOL    HW118746   2.687   3.168  10.827
 6096SOL    HW218747   2.606   3.154  10.686
 6097SOL     OW18748   2.534   3.478   9.464
 6097SOL    HW118749   2.543   3.488   9.365
 6097SOL    HW218750   2.494   3.389   9.485
 6098SOL     OW18751   3.512   3.582  10.704
 6098SOL    HW118752   3.565   3.592  10.620
 6098SOL    HW218753   3.485   3.672  10.738
 6099SOL     OW18754   3.703   2.037  10.273
 6099SOL    HW118755   3.742   1.952  10.237
 6099SOL    HW218756   3.605   2.039  10.254
 6100SOL     OW18757   3.056   3.474   9.341
 6100SOL    HW118758   3.062   3.381   9.378
 6100SOL    HW218759   2.997   3.474   9.261
 6101SOL     OW18760   2.684   2.864  10.682
 6101SOL    HW118761   2.724   2.863  10.590
 6101SOL    HW218762   2.694   2.956  10.722
 6102SOL     OW18763   2.778   2.772   9.601
 6102SOL    HW118764   2.841   2.810   9.533
 6102SOL    HW218765   2.818   2.689   9.640
 6103SOL     OW18766   3.366   3.469   9.354
 6103SOL    HW118767   3.274   3.506   9.361
 6103SOL    HW218768   3.404   3.489   9.264
 6104SOL     OW18769   2.234   3.150  10.800
 6104SOL    HW118770   2.221   3.243  10.766
 6104SOL    HW218771   2.150   3.098  10.787
 6105SOL     OW18772   3.476   3.154  10.599
 6105SOL    HW118773   3.536   3.157  10.679
 6105SOL    HW218774   3.401   3.218  10.612
 6106SOL     OW18775   2.901   2.960  10.006
 6106SOL    HW118776   2.831   2.913  10.060
 6106SOL    HW218777   2.960   2.892   9.963
 6107SOL     OW18778   2.876   2.098  10.281
 6107SOL    HW118779   2.868   2.062  10.188
 6107SOL    HW218780   2.874   2.022  10.346
 6108SOL     OW18781   2.452   3.349   9.801
 6108SOL    HW118782   2.494   3.291   9.731
 6108SOL    HW218783   2.408   3.428   9.757
 6109SOL     OW18784   3.571   2.247  10.691
 6109SOL    HW118785   3.644   2.316  10.695
 6109SOL    HW218786   3.599   2.172  10.632
 6110SOL     OW18787   2.117   3.210   9.600
 6110SOL    HW118788   2.021   3.211   9.573
 6110SOL    HW218789   2.129   3.263   9.684
 6111SOL     OW18790   1.967   2.875  11.036
 6111SOL    HW118791   1.890   2.842  11.090
 6111SOL    HW218792   2.052   2.845  11.078
 6112SOL     OW18793   2.534   2.065  10.799
 6112SOL    HW118794   2.624   2.049  10.759
 6112SOL    HW218795   2.542   2.070  10.898
 6113SOL     OW18796   3.302   2.718  10.708
 6113SOL    HW118797   3.245   2.770  10.645
 6113SOL    HW218798   3.398   2.730  10.684
 6114SOL     OW18799   3.045   3.197   9.429
 6114SOL    HW118800   2.946   3.186   9.431
 6114SOL    HW218801   3.079   3.212   9.522
 6115SOL     OW18802   2.475   2.704  10.741
 6115SOL    HW118803   2.531   2.785  10.724
 6115SOL    HW218804   2.534   2.624  10.744
 6116SOL     OW18805   3.355   3.629  10.269
 6116SOL    HW118806   3.388   3.693  10.200
 6116SOL    HW218807   3.421   3.623  10.344
 6117SOL     OW18808   2.578   2.427  11.018
 6117SOL    HW118809   2.597   2.492  11.092
 6117SOL    HW218810   2.638   2.347  11.027
 6118SOL     OW18811   3.312   3.082  10.943
 6118SOL    HW118812   3.303   3.072  11.042
 6118SOL    HW218813   3.408   3.075  10.917
 6119SOL     OW18814   2.252   3.603  10.870
 6119SOL    HW118815   2.161   3.644  10.868
 6119SOL    HW218816   2.245   3.509  10.902
 6120SOL     OW18817   3.536   2.745  10.564
 6120SOL    HW118818   3.509   2.656  10.527
 6120SOL    HW218819   3.537   2.813  10.491
 6121SOL     OW18820   3.087   2.187   9.759
 6121SOL    HW118821   3.152   2.113   9.748
 6121SOL    HW218822   3.107   2.237   9.843
 6122SOL     OW18823   2.456   2.607   9.962
 6122SOL    HW118824   2.506   2.692   9.943
 6122SOL    HW218825   2.368   2.609   9.914
 6123SOL     OW18826   3.639   2.204  10.952
 6123SOL    HW118827   3.622   2.235  10.858
 6123SOL    HW218828   3.555   2.167  10.990
 6124SOL     OW18829   3.592   2.796  10.827
 6124SOL    HW118830   3.630   2.887  10.842
 6124SOL    HW218831   3.584   2.779  10.728
 6125SOL     OW18832   2.721   3.236   9.326
 6125SOL    HW118833   2.675   3.251   9.414
 6125SOL    HW218834   2.765   3.321   9.296
 6126SOL     OW18835   2.523   3.652  10.263
 6126SOL    HW118836   2.477   3.740  10.250
 6126SOL    HW218837   2.622   3.664  10.256
 6127SOL     OW18838   2.721   2.818  10.171
 6127SOL    HW118839   2.775   2.749  10.219
 6127SOL    HW218840   2.689   2.887  10.237
 6128SOL     OW18841   2.945   2.846   9.397
 6128SOL    HW118842   2.922   2.899   9.315
 6128SOL    HW218843   3.026   2.790   9.378
 6129SOL     OW18844   3.723   3.431  10.161
 6129SOL    HW118845   3.652   3.419  10.091
 6129SOL    HW218846   3.724   3.352  10.221
 6130SOL     OW18847   2.083   3.176  11.154
 6130SOL    HW118848   2.018   3.103  11.133
 6130SOL    HW218849   2.087   3.190  11.252
 6131SOL     OW18850   1.941   3.102   9.963
 6131SOL    HW118851   1.940   3.055  10.051
 6131SOL    HW218852   2.023   3.074   9.912
 6132SOL     OW18853   2.534   3.253  10.934
 6132SOL    HW118854   2.456   3.203  10.972
 6132SOL    HW218855   2.531   3.348  10.965
 6133SOL     OW18856   3.686   2.054  10.537
 6133SOL    HW118857   3.682   1.964  10.581
 6133SOL    HW218858   3.689   2.043  10.438
 6134SOL     OW18859   2.290   2.286   9.830
 6134SOL    HW118860   2.320   2.214   9.768
 6134SOL    HW218861   2.251   2.246   9.913
 6135SOL     OW18862   3.567   3.349  10.414
 6135SOL    HW118863   3.474   3.324  10.387
 6135SOL    HW218864   3.593   3.299  10.496
 6136SOL     OW18865   2.179   2.409  10.590
 6136SOL    HW118866   2.217   2.350  10.662
 6136SOL    HW218867   2.219   2.383  10.502
 6137SOL     OW18868   2.674   3.448   9.997
 6137SOL    HW118869   2.706   3.458   9.903
 6137SOL    HW218870   2.595   3.386   9.999
 6138SOL     OW18871   3.286   2.076  10.422
 6138SOL    HW118872   3.338   2.011  10.477
 6138SOL    HW218873   3.237   2.139  10.483
 6139SOL     OW18874   2.863   1.896  10.464
 6139SOL    HW118875   2.800   1.824  10.433
 6139SOL    HW218876   2.956   1.860  10.464
 6140SOL     OW18877   2.632   3.192   9.611
 6140SOL    HW118878   2.586   3.105   9.628
 6140SOL    HW218879   2.723   3.189   9.652
 6141SOL     OW18880   2.480   3.429  10.594
 6141SOL    HW118881   2.475   3.511  10.651
 6141SOL    HW218882   2.569   3.426  10.549
 6142SOL     OW18883   3.214   1.914   9.478
 6142SOL    HW118884   3.249   1.873   9.394
 6142SOL    HW218885   3.124   1.876   9.498
 6143SOL     OW18886   3.162   2.315  10.001
 6143SOL    HW118887   3.103   2.395  10.005
 6143SOL    HW218888   3.177   2.280  10.094
 6144SOL     OW18889   3.455   2.083  10.192
 6144SOL    HW118890   3.371   2.082  10.246
 6144SOL    HW218891   3.457   2.166  10.136
 6145SOL     OW18892   1.901   2.939   9.610
 6145SOL    HW118893   2.000   2.928   9.601
 6145SOL    HW218894   1.861   2.853   9.642
 6146SOL     OW18895   2.737   3.508   9.647
 6146SOL    HW118896   2.660   3.473   9.593
 6146SOL    HW218897   2.705   3.579   9.709
 6147SOL     OW18898   2.092   2.490  11.285
 6147SOL    HW118899   1.999   2.488  11.322
 6147SOL    HW218900   2.093   2.451  11.193
 6148SOL     OW18901   1.881   2.230  11.819
 6148SOL    HW118902   1.799   2.273  11.858
 6148SOL    HW218903   1.853   2.157  11.756
 6149SOL     OW18904   2.431   3.137  12.337
 6149SOL    HW118905   2.338   3.130  12.300
 6149SOL    HW218906   2.442   3.226  12.381
 6150SOL     OW18907   3.417   3.373  11.875
 6150SOL    HW118908   3.360   3.357  11.956
 6150SOL    HW218909   3.358   3.383  11.795
 6151SOL     OW18910   2.997   2.565  11.889
 6151SOL    HW118911   3.054   2.643  11.864
 6151SOL    HW218912   2.937   2.591  11.965
 6152SOL     OW18913   3.617   2.469  11.403
 6152SOL    HW118914   3.605   2.456  11.304
 6152SOL    HW218915   3.587   2.388  11.452
 6153SOL     OW18916   2.630   3.006  12.195
 6153SOL    HW118917   2.552   3.023  12.255
 6153SOL    HW218918   2.664   3.093  12.159
 6154SOL     OW18919   2.712   2.660  12.995
 6154SOL    HW118920   2.708   2.736  13.060
 6154SOL    HW218921   2.734   2.696  12.904
 6155SOL     OW18922   2.547   2.874  11.837
 6155SOL    HW118923   2.616   2.858  11.907
 6155SOL    HW218924   2.474   2.931  11.875
 6156SOL     OW18925   2.548   3.023  12.975
 6156SOL    HW118926   2.608   3.102  12.989
 6156SOL    HW218927   2.462   3.054  12.934
 6157SOL     OW18928   2.197   3.297  12.233
 6157SOL    HW118929   2.119   3.266  12.180
 6157SOL    HW218930   2.255   3.355  12.176
 6158SOL     OW18931   3.322   3.367  12.511
 6158SOL    HW118932   3.346   3.461  12.537
 6158SOL    HW218933   3.306   3.313  12.593
 6159SOL     OW18934   2.300   2.254  12.671
 6159SOL    HW118935   2.382   2.198  12.680
 6159SOL    HW218936   2.219   2.196  12.675
 6160SOL     OW18937   3.465   2.309  11.909
 6160SOL    HW118938   3.391   2.355  11.859
 6160SOL    HW218939   3.516   2.377  11.962
 6161SOL     OW18940   2.093   3.575  11.655
 6161SOL    HW118941   2.127   3.652  11.709
 6161SOL    HW218942   2.137   3.575  11.565
 6162SOL     OW18943   2.989   3.203  12.862
 6162SOL    HW118944   3.036   3.203  12.950
 6162SOL    HW218945   2.941   3.116  12.851
 6163SOL     OW18946   2.092   3.296  11.710
 6163SOL    HW118947   2.066   3.392  11.710
 6163SOL    HW218948   2.021   3.242  11.755
 6164SOL     OW18949   2.102   2.953  12.058
 6164SOL    HW118950   2.116   2.869  12.110
 6164SOL    HW218951   2.047   3.017  12.113
 6165SOL     OW18952   2.482   3.648  12.611
 6165SOL    HW118953   2.390   3.631  12.646
 6165SOL    HW218954   2.510   3.740  12.637
 6166SOL     OW18955   2.468   2.826  11.295
 6166SOL    HW118956   2.475   2.910  11.241
 6166SOL    HW218957   2.514   2.839  11.383
 6167SOL     OW18958   3.456   1.976  12.652
 6167SOL    HW118959   3.438   2.043  12.580
 6167SOL    HW218960   3.453   2.022  12.741
 6168SOL     OW18961   1.984   2.505  11.735
 6168SOL    HW118962   1.939   2.417  11.752
 6168SOL    HW218963   1.983   2.559  11.819
 6169SOL     OW18964   3.704   3.629  11.531
 6169SOL    HW118965   3.758   3.600  11.611
 6169SOL    HW218966   3.734   3.719  11.502
 6170SOL     OW18967   1.889   3.458  11.289
 6170SOL    HW118968   1.870   3.362  11.310
 6170SOL    HW218969   1.856   3.516  11.364
 6171SOL     OW18970   3.551   2.784  11.784
 6171SOL    HW118971   3.646   2.755  11.792
 6171SOL    HW218972   3.543   2.849  11.709
 6172SOL     OW18973   3.503   2.970  11.604
 6172SOL    HW118974   3.589   2.972  11.552
 6172SOL    HW218975   3.517   3.017  11.692
 6173SOL     OW18976   1.975   2.599  12.769
 6173SOL    HW118977   2.063   2.586  12.814
 6173SOL    HW218978   1.962   2.696  12.747
 6174SOL     OW18979   2.475   3.227  11.898
 6174SOL    HW118980   2.426   3.140  11.907
 6174SOL    HW218981   2.452   3.270  11.811
 6175SOL     OW18982   3.155   3.090  12.595
 6175SOL    HW118983   3.192   3.017  12.537
 6175SOL    HW218984   3.207   3.095  12.680
 6176SOL     OW18985   2.671   1.866  11.674
 6176SOL    HW118986   2.711   1.957  11.665
 6176SOL    HW218987   2.571   1.874  11.680
 6177SOL     OW18988   2.059   2.838  12.436
 6177SOL    HW118989   2.148   2.793  12.422
 6177SOL    HW218990   1.986   2.773  12.417
 6178SOL     OW18991   3.387   2.861  11.362
 6178SOL    HW118992   3.324   2.785  11.375
 6178SOL    HW218993   3.435   2.879  11.448
 6179SOL     OW18994   3.049   3.654  12.788
 6179SOL    HW118995   3.073   3.714  12.712
 6179SOL    HW218996   3.056   3.559  12.758
 6180SOL     OW18997   2.179   2.113  12.973
 6180SOL    HW118998   2.250   2.184  12.979
 6180SOL    HW218999   2.091   2.152  13.001
 6181SOL     OW19000   3.328   3.279  12.125
 6181SOL    HW119001   3.269   3.285  12.205
 6181SOL    HW219002   3.313   3.191  12.079
 6182SOL     OW19003   3.529   3.576  11.744
 6182SOL    HW119004   3.488   3.553  11.656
 6182SOL    HW219005   3.511   3.502  11.809
 6183SOL     OW19006   2.460   2.591  11.442
 6183SOL    HW119007   2.484   2.660  11.374
 6183SOL    HW219008   2.382   2.624  11.496
 6184SOL     OW19009   3.143   2.207  12.116
 6184SOL    HW119010   3.057   2.157  12.103
 6184SOL    HW219011   3.205   2.153  12.172
 6185SOL     OW19012   3.438   3.524  11.479
 6185SOL    HW119013   3.527   3.570  11.482
 6185SOL    HW219014   3.417   3.500  11.384
 6186SOL     OW19015   2.669   2.467  12.637
 6186SOL    HW119016   2.622   2.464  12.726
 6186SOL    HW219017   2.618   2.412  12.571
 6187SOL     OW19018   3.256   2.331  12.846
 6187SOL    HW119019   3.236   2.374  12.934
 6187SOL    HW219020   3.334   2.269  12.855
 6188SOL     OW19021   2.835   2.752  12.744
 6188SOL    HW119022   2.881   2.668  12.715
 6188SOL    HW219023   2.779   2.786  12.669
 6189SOL     OW19024   2.853   2.272  12.414
 6189SOL    HW119025   2.776   2.306  12.468
 6189SOL    HW219026   2.819   2.221  12.335
 6190SOL     OW19027   2.903   2.563  11.601
 6190SOL    HW119028   2.929   2.559  11.697
 6190SOL    HW219029   2.818   2.512  11.587
 6191SOL     OW19030   1.938   2.673  11.961
 6191SOL    HW119031   2.037   2.661  11.970
 6191SOL    HW219032   1.914   2.768  11.982
 6192SOL     OW19033   1.992   3.683  12.743
 6192SOL    HW119034   1.982   3.668  12.842
 6192SOL    HW219035   1.906   3.719  12.707
 6193SOL     OW19036   2.727   2.210  11.367
 6193SOL    HW119037   2.786   2.273  11.318
 6193SOL    HW219038   2.746   2.116  11.338
 6194SOL     OW19039   3.581   2.447  13.003
 6194SOL    HW119040   3.555   2.536  12.967
 6194SOL    HW219041   3.579   2.379  12.930
 6195SOL     OW19042   3.224   3.006  11.717
 6195SOL    HW119043   3.307   2.977  11.669
 6195SOL    HW219044   3.175   3.073  11.661
 6196SOL     OW19045   2.412   2.058  12.057
 6196SOL    HW119046   2.407   2.053  12.157
 6196SOL    HW219047   2.414   2.154  12.028
 6197SOL     OW19048   2.870   3.318  11.649
 6197SOL    HW119049   2.824   3.390  11.597
 6197SOL    HW219050   2.866   3.338  11.747
 6198SOL     OW19051   2.213   3.663  12.025
 6198SOL    HW119052   2.263   3.577  12.031
 6198SOL    HW219053   2.278   3.740  12.022
 6199SOL     OW19054   3.657   2.928  12.045
 6199SOL    HW119055   3.595   2.913  11.969
 6199SOL    HW219056   3.605   2.939  12.130
 6200SOL     OW19057   3.089   3.412  12.678
 6200SOL    HW119058   3.095   3.335  12.742
 6200SOL    HW219059   3.037   3.386  12.598
 6201SOL     OW19060   2.183   2.805  11.414
 6201SOL    HW119061   2.265   2.844  11.372
 6201SOL    HW219062   2.156   2.723  11.365
 6202SOL     OW19063   3.320   2.597  11.900
 6202SOL    HW119064   3.315   2.532  11.975
 6202SOL    HW219065   3.400   2.656  11.913
 6203SOL     OW19066   2.323   3.128  12.899
 6203SOL    HW119067   2.273   3.129  12.813
 6203SOL    HW219068   2.260   3.110  12.975
 6204SOL     OW19069   2.973   3.638  11.409
 6204SOL    HW119070   2.913   3.576  11.459
 6204SOL    HW219071   3.004   3.594  11.324
 6205SOL     OW19072   3.494   3.239  11.253
 6205SOL    HW119073   3.462   3.333  11.243
 6205SOL    HW219074   3.418   3.176  11.241
 6206SOL     OW19075   2.326   3.605  11.495
 6206SOL    HW119076   2.359   3.644  11.581
 6206SOL    HW219077   2.402   3.598  11.430
 6207SOL     OW19078   3.262   1.969  11.598
 6207SOL    HW119079   3.238   1.932  11.508
 6207SOL    HW219080   3.361   1.985  11.602
 6208SOL     OW19081   2.111   3.647  12.413
 6208SOL    HW119082   2.168   3.582  12.463
 6208SOL    HW219083   2.095   3.614  12.320
 6209SOL     OW19084   2.802   3.560  12.076
 6209SOL    HW119085   2.882   3.503  12.097
 6209SOL    HW219086   2.753   3.520  11.999
 6210SOL     OW19087   2.244   2.562  11.652
 6210SOL    HW119088   2.289   2.472  11.649
 6210SOL    HW219089   2.150   2.551  11.685
 6211SOL     OW19090   3.409   2.084  12.901
 6211SOL    HW119091   3.404   2.121  12.993
 6211SOL    HW219092   3.337   2.015  12.889
 6212SOL     OW19093   2.476   1.984  11.289
 6212SOL    HW119094   2.574   1.962  11.296
 6212SOL    HW219095   2.445   1.967  11.196
 6213SOL     OW19096   2.643   2.126  12.921
 6213SOL    HW119097   2.710   2.065  12.964
 6213SOL    HW219098   2.570   2.145  12.986
 6214SOL     OW19099   2.750   3.376  12.367
 6214SOL    HW119100   2.727   3.351  12.273
 6214SOL    HW219101   2.811   3.307  12.406
 6215SOL     OW19102   3.213   2.452  12.605
 6215SOL    HW119103   3.241   2.409  12.690
 6215SOL    HW219104   3.238   2.548  12.606
 6216SOL     OW19105   2.665   3.264  12.096
 6216SOL    HW119106   2.755   3.278  12.054
 6216SOL    HW219107   2.594   3.266  12.025
 6217SOL     OW19108   2.784   2.365  12.071
 6217SOL    HW119109   2.759   2.356  11.975
 6217SOL    HW219110   2.832   2.283  12.102
 6218SOL     OW19111   2.401   1.926  11.684
 6218SOL    HW119112   2.320   1.927  11.742
 6218SOL    HW219113   2.404   2.009  11.629
 6219SOL     OW19114   3.296   3.050  11.213
 6219SOL    HW119115   3.328   2.974  11.270
 6219SOL    HW219116   3.204   3.077  11.243
 6220SOL     OW19117   2.797   2.098  11.652
 6220SOL    HW119118   2.749   2.139  11.574
 6220SOL    HW219119   2.896   2.096  11.633
 6221SOL     OW19120   2.938   2.545  12.636
 6221SOL    HW119121   2.858   2.484  12.639
 6221SOL    HW219122   3.019   2.492  12.612
 6222SOL     OW19123   3.089   3.432  11.965
 6222SOL    HW119124   3.110   3.506  11.900
 6222SOL    HW219125   3.157   3.432  12.038
 6223SOL     OW19126   2.321   3.014  11.913
 6223SOL    HW119127   2.250   2.987  11.978
 6223SOL    HW219128   2.295   2.986  11.820
 6224SOL     OW19129   3.133   3.659  11.763
 6224SOL    HW119130   3.177   3.723  11.699
 6224SOL    HW219131   3.083   3.711  11.833
 6225SOL     OW19132   2.894   2.411  11.188
 6225SOL    HW119133   2.853   2.493  11.149
 6225SOL    HW219134   2.958   2.437  11.261
 6226SOL     OW19135   1.940   2.418  12.558
 6226SOL    HW119136   2.032   2.417  12.517
 6226SOL    HW219137   1.934   2.492  12.625
 6227SOL     OW19138   2.423   2.084  12.319
 6227SOL    HW119139   2.461   2.000  12.356
 6227SOL    HW219140   2.335   2.103  12.363
 6228SOL     OW19141   2.728   2.316  11.814
 6228SOL    HW119142   2.696   2.388  11.752
 6228SOL    HW219143   2.752   2.235  11.761
 6229SOL     OW19144   2.879   1.901  11.925
 6229SOL    HW119145   2.807   1.906  11.856
 6229SOL    HW219146   2.855   1.832  11.994
 6230SOL     OW19147   3.291   3.035  12.039
 6230SOL    HW119148   3.236   2.951  12.032
 6230SOL    HW219149   3.317   3.064  11.947
 6231SOL     OW19150   3.328   2.452  12.164
 6231SOL    HW119151   3.298   2.357  12.171
 6231SOL    HW219152   3.401   2.468  12.230
 6232SOL     OW19153   3.719   2.695  11.549
 6232SOL    HW119154   3.761   2.631  11.613
 6232SOL    HW219155   3.681   2.644  11.471
 6233SOL     OW19156   2.350   3.247  11.346
 6233SOL    HW119157   2.263   3.232  11.393
 6233SOL    HW219158   2.333   3.273  11.251
 6234SOL     OW19159   3.526   3.142  11.829
 6234SOL    HW119160   3.625   3.150  11.843
 6234SOL    HW219161   3.481   3.226  11.860
 6235SOL     OW19162   3.252   2.437  11.250
 6235SOL    HW119163   3.198   2.416  11.331
 6235SOL    HW219164   3.343   2.396  11.259
 6236SOL     OW19165   2.389   2.118  11.500
 6236SOL    HW119166   2.416   2.059  11.425
 6236SOL    HW219167   2.389   2.213  11.469
 6237SOL     OW19168   3.616   3.085  12.760
 6237SOL    HW119169   3.707   3.046  12.747
 6237SOL    HW219170   3.624   3.181  12.784
 6238SOL     OW19171   2.926   3.209  12.512
 6238SOL    HW119172   2.846   3.186  12.567
 6238SOL    HW219173   3.009   3.183  12.561
 6239SOL     OW19174   3.454   3.491  12.797
 6239SOL    HW119175   3.481   3.525  12.707
 6239SOL    HW219176   3.533   3.453  12.843
 6240SOL     OW19177   2.973   3.057  12.272
 6240SOL    HW119178   2.933   3.101  12.353
 6240SOL    HW219179   2.932   3.094  12.189
 6241SOL     OW19180   3.500   2.961  12.251
 6241SOL    HW119181   3.505   3.042  12.310
 6241SOL    HW219182   3.414   2.963  12.200
 6242SOL     OW19183   2.777   1.951  12.574
 6242SOL    HW119184   2.802   1.931  12.479
 6242SOL    HW219185   2.849   2.007  12.616
 6243SOL     OW19186   2.842   2.978  12.891
 6243SOL    HW119187   2.743   2.984  12.901
 6243SOL    HW219188   2.865   2.898  12.835
 6244SOL     OW19189   2.567   2.912  11.540
 6244SOL    HW119190   2.553   2.919  11.639
 6244SOL    HW219191   2.651   2.861  11.522
 6245SOL     OW19192   2.272   2.675  12.423
 6245SOL    HW119193   2.358   2.687  12.473
 6245SOL    HW219194   2.230   2.588  12.450
 6246SOL     OW19195   3.136   2.248  12.434
 6246SOL    HW119196   3.157   2.322  12.498
 6246SOL    HW219197   3.047   2.265  12.391
 6247SOL     OW19198   1.926   3.426  12.503
 6247SOL    HW119199   1.880   3.508  12.469
 6247SOL    HW219200   2.024   3.445  12.512
 6248SOL     OW19201   2.229   2.962  11.673
 6248SOL    HW119202   2.222   3.045  11.617
 6248SOL    HW219203   2.233   2.882  11.613
 6249SOL     OW19204   2.428   2.399  12.037
 6249SOL    HW119205   2.440   2.465  11.963
 6249SOL    HW219206   2.474   2.433  12.120
 6250SOL     OW19207   3.114   3.210  11.560
 6250SOL    HW119208   3.164   3.287  11.600
 6250SOL    HW219209   3.019   3.212  11.592
 6251SOL     OW19210   3.134   3.307  12.314
 6251SOL    HW119211   3.181   3.320  12.401
 6251SOL    HW219212   3.068   3.233  12.323
 6252SOL     OW19213   3.444   2.501  11.644
 6252SOL    HW119214   3.413   2.562  11.717
 6252SOL    HW219215   3.494   2.553  11.575
 6253SOL     OW19216   2.216   3.372  12.501
 6253SOL    HW119217   2.195   3.328  12.414
 6253SOL    HW219218   2.313   3.398  12.504
 6254SOL     OW19219   2.264   2.613  12.770
 6254SOL    HW119220   2.332   2.668  12.723
 6254SOL    HW219221   2.304   2.525  12.797
 6255SOL     OW19222   3.449   2.641  12.842
 6255SOL    HW119223   3.357   2.679  12.837
 6255SOL    HW219224   3.509   2.688  12.777
 6256SOL     OW19225   2.875   1.967  12.942
 6256SOL    HW119226   2.881   2.052  12.890
 6256SOL    HW219227   2.907   1.891  12.885
 6257SOL     OW19228   2.366   1.912  12.912
 6257SOL    HW119229   2.324   1.855  12.842
 6257SOL    HW219230   2.300   1.981  12.944
 6258SOL     OW19231   2.435   2.732  12.201
 6258SOL    HW119232   2.479   2.821  12.192
 6258SOL    HW219233   2.372   2.732  12.278
 6259SOL     OW19234   3.222   2.724  12.217
 6259SOL    HW119235   3.147   2.724  12.151
 6259SOL    HW219236   3.259   2.632  12.226
 6260SOL     OW19237   3.071   2.387  11.447
 6260SOL    HW119238   3.084   2.303  11.501
 6260SOL    HW219239   3.042   2.461  11.507
 6261SOL     OW19240   1.899   3.172  12.454
 6261SOL    HW119241   1.952   3.123  12.522
 6261SOL    HW219242   1.921   3.270  12.459
 6262SOL     OW19243   2.594   2.496  12.236
 6262SOL    HW119244   2.653   2.470  12.160
 6262SOL    HW219245   2.566   2.592  12.225
 6263SOL     OW19246   3.590   2.797  13.026
 6263SOL    HW119247   3.544   2.790  12.937
 6263SOL    HW219248   3.528   2.841  13.092
 6264SOL     OW19249   3.484   2.229  11.546
 6264SOL    HW119250   3.486   2.153  11.610
 6264SOL    HW219251   3.436   2.306  11.586
 6265SOL     OW19252   2.885   2.628  12.138
 6265SOL    HW119253   2.900   2.649  12.234
 6265SOL    HW219254   2.855   2.533  12.129
 6266SOL     OW19255   2.842   3.435  12.872
 6266SOL    HW119256   2.822   3.479  12.784
 6266SOL    HW219257   2.881   3.344  12.856
 6267SOL     OW19258   3.721   3.380  12.777
 6267SOL    HW119259   3.735   3.407  12.682
 6267SOL    HW219260   3.804   3.402  12.830
 6268SOL     OW19261   2.212   2.760  12.976
 6268SOL    HW119262   2.288   2.804  13.024
 6268SOL    HW219263   2.247   2.713  12.894
 6269SOL     OW19264   3.402   2.136  11.297
 6269SOL    HW119265   3.341   2.061  11.320
 6269SOL    HW219266   3.424   2.188  11.380
 6270SOL     OW19267   3.165   2.700  11.214
 6270SOL    HW119268   3.199   2.607  11.229
 6270SOL    HW219269   3.183   2.727  11.119
 6271SOL     OW19270   2.930   3.195  12.021
 6271SOL    HW119271   2.937   3.111  11.966
 6271SOL    HW219272   2.992   3.264  11.985
 6272SOL     OW19273   2.181   2.672  12.121
 6272SOL    HW119274   2.274   2.708  12.126
 6272SOL    HW219275   2.175   2.587  12.173
 6273SOL     OW19276   2.201   2.371  12.178
 6273SOL    HW119277   2.149   2.288  12.161
 6273SOL    HW219278   2.278   2.376  12.114
 6274SOL     OW19279   3.000   2.242  12.850
 6274SOL    HW119280   2.955   2.305  12.914
 6274SOL    HW219281   3.093   2.273  12.833
 6275SOL     OW19282   3.022   2.069  12.649
 6275SOL    HW119283   3.022   2.133  12.726
 6275SOL    HW219284   3.050   2.117  12.566
 6276SOL     OW19285   1.870   3.188  11.372
 6276SOL    HW119286   1.777   3.209  11.341
 6276SOL    HW219287   1.880   3.089  11.385
 6277SOL     OW19288   1.950   3.663  12.099
 6277SOL    HW119289   1.908   3.577  12.072
 6277SOL    HW219290   2.044   3.666  12.065
 6278SOL     OW19291   2.366   3.430  12.082
 6278SOL    HW119292   2.432   3.504  12.091
 6278SOL    HW219293   2.410   3.351  12.040
 6279SOL     OW19294   2.864   2.658  12.410
 6279SOL    HW119295   2.905   2.626  12.496
 6279SOL    HW219296   2.768   2.631  12.407
 6280SOL     OW19297   1.902   2.406  12.286
 6280SOL    HW119298   1.987   2.373  12.245
 6280SOL    HW219299   1.915   2.421  12.384
 6281SOL     OW19300   2.051   2.382  12.894
 6281SOL    HW119301   2.110   2.342  12.824
 6281SOL    HW219302   1.993   2.453  12.853
 6282SOL     OW19303   3.231   2.812  12.832
 6282SOL    HW119304   3.270   2.901  12.852
 6282SOL    HW219305   3.241   2.792  12.735
 6283SOL     OW19306   2.677   2.434  11.497
 6283SOL    HW119307   2.684   2.345  11.451
 6283SOL    HW219308   2.583   2.468  11.489
 6284SOL     OW19309   3.519   2.466  12.378
 6284SOL    HW119310   3.481   2.397  12.440
 6284SOL    HW219311   3.601   2.430  12.334
 6285SOL     OW19312   2.114   3.426  12.916
 6285SOL    HW119313   2.084   3.483  12.992
 6285SOL    HW219314   2.107   3.329  12.942
 6286SOL     OW19315   2.533   2.326  12.441
 6286SOL    HW119316   2.499   2.237  12.411
 6286SOL    HW219317   2.559   2.380  12.361
 6287SOL     OW19318   2.792   3.540  12.637
 6287SOL    HW119319   2.768   3.522  12.542
 6287SOL    HW219320   2.822   3.634  12.647
 6288SOL     OW19321   2.335   2.362  11.363
 6288SOL    HW119322   2.396   2.442  11.367
 6288SOL    HW219323   2.240   2.393  11.370
 6289SOL     OW19324   2.021   2.999  12.638
 6289SOL    HW119325   2.043   2.938  12.714
 6289SOL    HW219326   2.031   2.950  12.552
 6290SOL     OW19327   3.209   2.921  12.406
 6290SOL    HW119328   3.233   2.858  12.332
 6290SOL    HW219329   3.119   2.961  12.388
 6291SOL     OW19330   3.164   2.717  11.481
 6291SOL    HW119331   3.078   2.686  11.523
 6291SOL    HW219332   3.160   2.703  11.382
 6292SOL     OW19333   3.621   3.609  12.326
 6292SOL    HW119334   3.682   3.639  12.253
 6292SOL    HW219335   3.583   3.520  12.304
 6293SOL     OW19336   3.114   3.593  12.300
 6293SOL    HW119337   3.198   3.598  12.246
 6293SOL    HW219338   3.091   3.497  12.318
 6294SOL     OW19339   1.945   3.120  12.194
 6294SOL    HW119340   1.940   3.119  12.294
 6294SOL    HW219341   1.862   3.079  12.156
 6295SOL     OW19342   2.550   3.524  12.888
 6295SOL    HW119343   2.494   3.605  12.897
 6295SOL    HW219344   2.602   3.528  12.802
 6296SOL     OW19345   3.588   1.997  11.695
 6296SOL    HW119346   3.661   1.980  11.628
 6296SOL    HW219347   3.557   1.910  11.733
 6297SOL     OW19348   3.250   3.435  11.649
 6297SOL    HW119349   3.317   3.447  11.575
 6297SOL    HW219350   3.210   3.524  11.672
 6298SOL     OW19351   1.992   3.656  13.023
 6298SOL    HW119352   1.951   3.582  13.076
 6298SOL    HW219353   2.056   3.707  13.081
 6299SOL     OW19354   3.142   2.789  11.844
 6299SOL    HW119355   3.202   2.708  11.846
 6299SOL    HW219356   3.182   2.858  11.784
 6300SOL     OW19357   2.692   3.135  12.594
 6300SOL    HW119358   2.687   3.168  12.689
 6300SOL    HW219359   2.606   3.154  12.548
 6301SOL     OW19360   2.534   3.478  11.326
 6301SOL    HW119361   2.543   3.488  11.227
 6301SOL    HW219362   2.494   3.389  11.347
 6302SOL     OW19363   3.512   3.582  12.566
 6302SOL    HW119364   3.565   3.592  12.482
 6302SOL    HW219365   3.485   3.672  12.600
 6303SOL     OW19366   3.703   2.037  12.135
 6303SOL    HW119367   3.742   1.952  12.099
 6303SOL    HW219368   3.605   2.039  12.116
 6304SOL     OW19369   3.056   3.474  11.203
 6304SOL    HW119370   3.062   3.381  11.240
 6304SOL    HW219371   2.997   3.474  11.123
 6305SOL     OW19372   2.684   2.864  12.544
 6305SOL    HW119373   2.724   2.863  12.452
 6305SOL    HW219374   2.694   2.956  12.584
 6306SOL     OW19375   2.778   2.772  11.463
 6306SOL    HW119376   2.841   2.810  11.395
 6306SOL    HW219377   2.818   2.689  11.502
 6307SOL     OW19378   3.366   3.469  11.216
 6307SOL    HW119379   3.274   3.506  11.223
 6307SOL    HW219380   3.404   3.489  11.126
 6308SOL     OW19381   2.234   3.150  12.662
 6308SOL    HW119382   2.221   3.243  12.628
 6308SOL    HW219383   2.150   3.098  12.649
 6309SOL     OW19384   3.476   3.154  12.461
 6309SOL    HW119385   3.536   3.157  12.541
 6309SOL    HW219386   3.401   3.218  12.474
 6310SOL     OW19387   2.901   2.960  11.868
 6310SOL    HW119388   2.831   2.913  11.922
 6310SOL    HW219389   2.960   2.892  11.825
 6311SOL     OW19390   2.876   2.098  12.143
 6311SOL    HW119391   2.868   2.062  12.050
 6311SOL    HW219392   2.874   2.022  12.208
 6312SOL     OW19393   2.452   3.349  11.663
 6312SOL    HW119394   2.494   3.291  11.593
 6312SOL    HW219395   2.408   3.428  11.619
 6313SOL     OW19396   3.571   2.247  12.553
 6313SOL    HW119397   3.644   2.316  12.557
 6313SOL    HW219398   3.599   2.172  12.494
 6314SOL     OW19399   2.117   3.210  11.462
 6314SOL    HW119400   2.021   3.211  11.435
 6314SOL    HW219401   2.129   3.263  11.546
 6315SOL     OW19402   1.967   2.875  12.898
 6315SOL    HW119403   1.890   2.842  12.952
 6315SOL    HW219404   2.052   2.845  12.940
 6316SOL     OW19405   2.534   2.065  12.661
 6316SOL    HW119406   2.624   2.049  12.621
 6316SOL    HW219407   2.542   2.070  12.760
 6317SOL     OW19408   3.302   2.718  12.570
 6317SOL    HW119409   3.245   2.770  12.507
 6317SOL    HW219410   3.398   2.730  12.546
 6318SOL     OW19411   3.045   3.197  11.291
 6318SOL    HW119412   2.946   3.186  11.293
 6318SOL    HW219413   3.079   3.212  11.384
 6319SOL     OW19414   2.475   2.704  12.603
 6319SOL    HW119415   2.531   2.785  12.586
 6319SOL    HW219416   2.534   2.624  12.606
 6320SOL     OW19417   3.355   3.629  12.131
 6320SOL    HW119418   3.388   3.693  12.062
 6320SOL    HW219419   3.421   3.623  12.206
 6321SOL     OW19420   2.578   2.427  12.880
 6321SOL    HW119421   2.597   2.492  12.954
 6321SOL    HW219422   2.638   2.347  12.889
 6322SOL     OW19423   3.312   3.082  12.805
 6322SOL    HW119424   3.303   3.072  12.904
 6322SOL    HW219425   3.408   3.075  12.779
 6323SOL     OW19426   2.252   3.603  12.732
 6323SOL    HW119427   2.161   3.644  12.730
 6323SOL    HW219428   2.245   3.509  12.764
 6324SOL     OW19429   3.536   2.745  12.426
 6324SOL    HW119430   3.509   2.656  12.389
 6324SOL    HW219431   3.537   2.813  12.353
 6325SOL     OW19432   3.087   2.187  11.621
 6325SOL    HW119433   3.152   2.113  11.610
 6325SOL    HW219434   3.107   2.237  11.705
 6326SOL     OW19435   2.456   2.607  11.824
 6326SOL    HW119436   2.506   2.692  11.805
 6326SOL    HW219437   2.368   2.609  11.776
 6327SOL     OW19438   3.639   2.204  12.814
 6327SOL    HW119439   3.622   2.235  12.720
 6327SOL    HW219440   3.555   2.167  12.852
 6328SOL     OW19441   3.592   2.796  12.689
 6328SOL    HW119442   3.630   2.887  12.704
 6328SOL    HW219443   3.584   2.779  12.590
 6329SOL     OW19444   2.721   3.236  11.188
 6329SOL    HW119445   2.675   3.251  11.276
 6329SOL    HW219446   2.765   3.321  11.158
 6330SOL     OW19447   2.523   3.652  12.125
 6330SOL    HW119448   2.477   3.740  12.112
 6330SOL    HW219449   2.622   3.664  12.118
 6331SOL     OW19450   2.721   2.818  12.033
 6331SOL    HW119451   2.775   2.749  12.081
 6331SOL    HW219452   2.689   2.887  12.099
 6332SOL     OW19453   2.945   2.846  11.259
 6332SOL    HW119454   2.922   2.899  11.177
 6332SOL    HW219455   3.026   2.790  11.240
 6333SOL     OW19456   3.723   3.431  12.023
 6333SOL    HW119457   3.652   3.419  11.953
 6333SOL    HW219458   3.724   3.352  12.083
 6334SOL     OW19459   2.083   3.176  13.016
 6334SOL    HW119460   2.018   3.103  12.995
 6334SOL    HW219461   2.087   3.190  13.114
 6335SOL     OW19462   1.941   3.102  11.825
 6335SOL    HW119463   1.940   3.055  11.913
 6335SOL    HW219464   2.023   3.074  11.774
 6336SOL     OW19465   2.534   3.253  12.796
 6336SOL    HW119466   2.456   3.203  12.834
 6336SOL    HW219467   2.531   3.348  12.827
 6337SOL     OW19468   3.686   2.054  12.399
 6337SOL    HW119469   3.682   1.964  12.443
 6337SOL    HW219470   3.689   2.043  12.300
 6338SOL     OW19471   2.290   2.286  11.692
 6338SOL    HW119472   2.320   2.214  11.630
 6338SOL    HW219473   2.251   2.246  11.775
 6339SOL     OW19474   3.567   3.349  12.276
 6339SOL    HW119475   3.474   3.324  12.249
 6339SOL    HW219476   3.593   3.299  12.358
 6340SOL     OW19477   2.179   2.409  12.452
 6340SOL    HW119478   2.217   2.350  12.524
 6340SOL    HW219479   2.219   2.383  12.364
 6341SOL     OW19480   2.674   3.448  11.859
 6341SOL    HW119481   2.706   3.458  11.765
 6341SOL    HW219482   2.595   3.386  11.861
 6342SOL     OW19483   3.286   2.076  12.284
 6342SOL    HW119484   3.338   2.011  12.339
 6342SOL    HW219485   3.237   2.139  12.345
 6343SOL     OW19486   2.863   1.896  12.326
 6343SOL    HW119487   2.800   1.824  12.295
 6343SOL    HW219488   2.956   1.860  12.326
 6344SOL     OW19489   2.632   3.192  11.473
 6344SOL    HW119490   2.586   3.105  11.490
 6344SOL    HW219491   2.723   3.189  11.514
 6345SOL     OW19492   2.480   3.429  12.456
 6345SOL    HW119493   2.475   3.511  12.513
 6345SOL    HW219494   2.569   3.426  12.411
 6346SOL     OW19495   3.214   1.914  11.340
 6346SOL    HW119496   3.249   1.873  11.256
 6346SOL    HW219497   3.124   1.876  11.360
 6347SOL     OW19498   3.162   2.315  11.863
 6347SOL    HW119499   3.103   2.395  11.867
 6347SOL    HW219500   3.177   2.280  11.956
 6348SOL     OW19501   3.455   2.083  12.054
 6348SOL    HW119502   3.371   2.082  12.108
 6348SOL    HW219503   3.457   2.166  11.998
 6349SOL     OW19504   1.901   2.939  11.472
 6349SOL    HW119505   2.000   2.928  11.463
 6349SOL    HW219506   1.861   2.853  11.504
 6350SOL     OW19507   2.737   3.508  11.509
 6350SOL    HW119508   2.660   3.473  11.455
 6350SOL    HW219509   2.705   3.579  11.571
 6351SOL     OW19510   2.092   2.490  13.147
 6351SOL    HW119511   1.999   2.488  13.184
 6351SOL    HW219512   2.093   2.451  13.055
 6352SOL     OW19513   1.881   2.230  13.681
 6352SOL    HW119514   1.799   2.273  13.720
 6352SOL    HW219515   1.853   2.157  13.618
 6353SOL     OW19516   3.417   3.373  13.737
 6353SOL    HW119517   3.360   3.357  13.818
 6353SOL    HW219518   3.358   3.383  13.657
 6354SOL     OW19519   2.997   2.565  13.751
 6354SOL    HW119520   3.054   2.643  13.726
 6354SOL    HW219521   2.937   2.591  13.827
 6355SOL     OW19522   3.617   2.469  13.265
 6355SOL    HW119523   3.605   2.456  13.166
 6355SOL    HW219524   3.587   2.388  13.314
 6356SOL     OW19525   2.547   2.874  13.699
 6356SOL    HW119526   2.616   2.858  13.769
 6356SOL    HW219527   2.474   2.931  13.737
 6357SOL     OW19528   3.465   2.309  13.771
 6357SOL    HW119529   3.391   2.355  13.721
 6357SOL    HW219530   3.516   2.377  13.824
 6358SOL     OW19531   2.093   3.575  13.517
 6358SOL    HW119532   2.127   3.652  13.571
 6358SOL    HW219533   2.137   3.575  13.427
 6359SOL     OW19534   2.092   3.296  13.572
 6359SOL    HW119535   2.066   3.392  13.572
 6359SOL    HW219536   2.021   3.242  13.617
 6360SOL     OW19537   2.102   2.953  13.920
 6360SOL    HW119538   2.116   2.869  13.972
 6360SOL    HW219539   2.047   3.017  13.975
 6361SOL     OW19540   2.468   2.826  13.157
 6361SOL    HW119541   2.475   2.910  13.103
 6361SOL    HW219542   2.514   2.839  13.245
 6362SOL     OW19543   1.984   2.505  13.597
 6362SOL    HW119544   1.939   2.417  13.614
 6362SOL    HW219545   1.983   2.559  13.681
 6363SOL     OW19546   3.704   3.629  13.393
 6363SOL    HW119547   3.758   3.600  13.473
 6363SOL    HW219548   3.734   3.719  13.364
 6364SOL     OW19549   1.889   3.458  13.151
 6364SOL    HW119550   1.870   3.362  13.172
 6364SOL    HW219551   1.856   3.516  13.226
 6365SOL     OW19552   3.551   2.784  13.646
 6365SOL    HW119553   3.646   2.755  13.654
 6365SOL    HW219554   3.543   2.849  13.571
 6366SOL     OW19555   3.503   2.970  13.466
 6366SOL    HW119556   3.589   2.972  13.414
 6366SOL    HW219557   3.517   3.017  13.554
 6367SOL     OW19558   2.475   3.227  13.760
 6367SOL    HW119559   2.426   3.140  13.769
 6367SOL    HW219560   2.452   3.270  13.673
 6368SOL     OW19561   2.671   1.866  13.536
 6368SOL    HW119562   2.711   1.957  13.527
 6368SOL    HW219563   2.571   1.874  13.542
 6369SOL     OW19564   3.387   2.861  13.224
 6369SOL    HW119565   3.324   2.785  13.237
 6369SOL    HW219566   3.435   2.879  13.310
 6370SOL     OW19567   3.529   3.576  13.606
 6370SOL    HW119568   3.488   3.553  13.518
 6370SOL    HW219569   3.511   3.502  13.671
 6371SOL     OW19570   2.460   2.591  13.304
 6371SOL    HW119571   2.484   2.660  13.236
 6371SOL    HW219572   2.382   2.624  13.358
 6372SOL     OW19573   3.143   2.207  13.978
 6372SOL    HW119574   3.057   2.157  13.965
 6372SOL    HW219575   3.205   2.153  14.034
 6373SOL     OW19576   3.438   3.524  13.341
 6373SOL    HW119577   3.527   3.570  13.344
 6373SOL    HW219578   3.417   3.500  13.246
 6374SOL     OW19579   2.903   2.563  13.463
 6374SOL    HW119580   2.929   2.559  13.559
 6374SOL    HW219581   2.818   2.512  13.449
 6375SOL     OW19582   1.938   2.673  13.823
 6375SOL    HW119583   2.037   2.661  13.832
 6375SOL    HW219584   1.914   2.768  13.844
 6376SOL     OW19585   2.727   2.210  13.229
 6376SOL    HW119586   2.786   2.273  13.180
 6376SOL    HW219587   2.746   2.116  13.200
 6377SOL     OW19588   3.224   3.006  13.579
 6377SOL    HW119589   3.307   2.977  13.531
 6377SOL    HW219590   3.175   3.073  13.523
 6378SOL     OW19591   2.870   3.318  13.511
 6378SOL    HW119592   2.824   3.390  13.459
 6378SOL    HW219593   2.866   3.338  13.609
 6379SOL     OW19594   2.213   3.663  13.887
 6379SOL    HW119595   2.263   3.577  13.893
 6379SOL    HW219596   2.278   3.740  13.884
 6380SOL     OW19597   3.657   2.928  13.907
 6380SOL    HW119598   3.595   2.913  13.831
 6380SOL    HW219599   3.605   2.939  13.992
 6381SOL     OW19600   2.183   2.805  13.276
 6381SOL    HW119601   2.265   2.844  13.234
 6381SOL    HW219602   2.156   2.723  13.227
 6382SOL     OW19603   3.320   2.597  13.762
 6382SOL    HW119604   3.315   2.532  13.837
 6382SOL    HW219605   3.400   2.656  13.775
 6383SOL     OW19606   2.973   3.638  13.271
 6383SOL    HW119607   2.913   3.576  13.321
 6383SOL    HW219608   3.004   3.594  13.186
 6384SOL     OW19609   3.494   3.239  13.115
 6384SOL    HW119610   3.462   3.333  13.105
 6384SOL    HW219611   3.418   3.176  13.103
 6385SOL     OW19612   2.326   3.605  13.357
 6385SOL    HW119613   2.359   3.644  13.443
 6385SOL    HW219614   2.402   3.598  13.292
 6386SOL     OW19615   3.262   1.969  13.460
 6386SOL    HW119616   3.238   1.932  13.370
 6386SOL    HW219617   3.361   1.985  13.464
 6387SOL     OW19618   2.802   3.560  13.938
 6387SOL    HW119619   2.882   3.503  13.959
 6387SOL    HW219620   2.753   3.520  13.861
 6388SOL     OW19621   2.244   2.562  13.514
 6388SOL    HW119622   2.289   2.472  13.511
 6388SOL    HW219623   2.150   2.551  13.547
 6389SOL     OW19624   2.476   1.984  13.151
 6389SOL    HW119625   2.574   1.962  13.158
 6389SOL    HW219626   2.445   1.967  13.058
 6390SOL     OW19627   2.401   1.926  13.546
 6390SOL    HW119628   2.320   1.927  13.604
 6390SOL    HW219629   2.404   2.009  13.491
 6391SOL     OW19630   3.296   3.050  13.075
 6391SOL    HW119631   3.328   2.974  13.132
 6391SOL    HW219632   3.204   3.077  13.105
 6392SOL     OW19633   2.797   2.098  13.514
 6392SOL    HW119634   2.749   2.139  13.436
 6392SOL    HW219635   2.896   2.096  13.495
 6393SOL     OW19636   2.321   3.014  13.775
 6393SOL    HW119637   2.250   2.987  13.840
 6393SOL    HW219638   2.295   2.986  13.682
 6394SOL     OW19639   3.133   3.659  13.625
 6394SOL    HW119640   3.177   3.723  13.561
 6394SOL    HW219641   3.083   3.711  13.695
 6395SOL     OW19642   2.894   2.411  13.050
 6395SOL    HW119643   2.853   2.493  13.011
 6395SOL    HW219644   2.958   2.437  13.123
 6396SOL     OW19645   2.728   2.316  13.676
 6396SOL    HW119646   2.696   2.388  13.614
 6396SOL    HW219647   2.752   2.235  13.623
 6397SOL     OW19648   2.879   1.901  13.787
 6397SOL    HW119649   2.807   1.906  13.718
 6397SOL    HW219650   2.855   1.832  13.856
 6398SOL     OW19651   3.719   2.695  13.411
 6398SOL    HW119652   3.761   2.631  13.475
 6398SOL    HW219653   3.681   2.644  13.333
 6399SOL     OW19654   2.350   3.247  13.208
 6399SOL    HW119655   2.263   3.232  13.255
 6399SOL    HW219656   2.333   3.273  13.113
 6400SOL     OW19657   3.526   3.142  13.691
 6400SOL    HW119658   3.625   3.150  13.705
 6400SOL    HW219659   3.481   3.226  13.722
 6401SOL     OW19660   3.252   2.437  13.112
 6401SOL    HW119661   3.198   2.416  13.193
 6401SOL    HW219662   3.343   2.396  13.121
 6402SOL     OW19663   2.389   2.118  13.362
 6402SOL    HW119664   2.416   2.059  13.287
 6402SOL    HW219665   2.389   2.213  13.331
 6403SOL     OW19666   2.567   2.912  13.402
 6403SOL    HW119667   2.553   2.919  13.501
 6403SOL    HW219668   2.651   2.861  13.384
 6404SOL     OW19669   2.229   2.962  13.535
 6404SOL    HW119670   2.222   3.045  13.479
 6404SOL    HW219671   2.233   2.882  13.475
 6405SOL     OW19672   2.428   2.399  13.899
 6405SOL    HW119673   2.440   2.465  13.825
 6405SOL    HW219674   2.474   2.433  13.982
 6406SOL     OW19675   3.114   3.210  13.422
 6406SOL    HW119676   3.164   3.287  13.462
 6406SOL    HW219677   3.019   3.212  13.454
 6407SOL     OW19678   3.444   2.501  13.506
 6407SOL    HW119679   3.413   2.562  13.579
 6407SOL    HW219680   3.494   2.553  13.437
 6408SOL     OW19681   3.071   2.387  13.309
 6408SOL    HW119682   3.084   2.303  13.363
 6408SOL    HW219683   3.042   2.461  13.369
 6409SOL     OW19684   3.484   2.229  13.408
 6409SOL    HW119685   3.486   2.153  13.472
 6409SOL    HW219686   3.436   2.306  13.448
 6410SOL     OW19687   3.402   2.136  13.159
 6410SOL    HW119688   3.341   2.061  13.182
 6410SOL    HW219689   3.424   2.188  13.242
 6411SOL     OW19690   3.165   2.700  13.076
 6411SOL    HW119691   3.199   2.607  13.091
 6411SOL    HW219692   3.183   2.727  12.981
 6412SOL     OW19693   1.870   3.188  13.234
 6412SOL    HW119694   1.777   3.209  13.203
 6412SOL    HW219695   1.880   3.089  13.247
 6413SOL     OW19696   2.677   2.434  13.359
 6413SOL    HW119697   2.684   2.345  13.313
 6413SOL    HW219698   2.583   2.468  13.351
 6414SOL     OW19699   2.335   2.362  13.225
 6414SOL    HW119700   2.396   2.442  13.229
 6414SOL    HW219701   2.240   2.393  13.232
 6415SOL     OW19702   3.164   2.717  13.343
 6415SOL    HW119703   3.078   2.686  13.385
 6415SOL    HW219704   3.160   2.703  13.244
 6416SOL     OW19705   3.588   1.997  13.557
 6416SOL    HW119706   3.661   1.980  13.490
 6416SOL    HW219707   3.557   1.910  13.595
 6417SOL     OW19708   3.250   3.435  13.511
 6417SOL    HW119709   3.317   3.447  13.437
 6417SOL    HW219710   3.210   3.524  13.534
 6418SOL     OW19711   3.142   2.789  13.706
 6418SOL    HW119712   3.202   2.708  13.708
 6418SOL    HW219713   3.182   2.858  13.646
 6419SOL     OW19714   2.534   3.478  13.188
 6419SOL    HW119715   2.543   3.488  13.089
 6419SOL    HW219716   2.494   3.389  13.209
 6420SOL     OW19717   3.703   2.037  13.997
 6420SOL    HW119718   3.742   1.952  13.961
 6420SOL    HW219719   3.605   2.039  13.978
 6421SOL     OW19720   2.125   2.188  13.754
 6421SOL    HW119721   2.046   2.239  13.720
 6421SOL    HW219722   2.116   2.173  13.852
 6422SOL     OW19723   3.056   3.474  13.065
 6422SOL    HW119724   3.062   3.381  13.102
 6422SOL    HW219725   2.997   3.474  12.985
 6423SOL     OW19726   2.778   2.772  13.325
 6423SOL    HW119727   2.841   2.810  13.257
 6423SOL    HW219728   2.818   2.689  13.364
 6424SOL     OW19729   3.366   3.469  13.078
 6424SOL    HW119730   3.274   3.506  13.085
 6424SOL    HW219731   3.404   3.489  12.988
 6425SOL     OW19732   2.901   2.960  13.730
 6425SOL    HW119733   2.831   2.913  13.784
 6425SOL    HW219734   2.960   2.892  13.687
 6426SOL     OW19735   2.452   3.349  13.525
 6426SOL    HW119736   2.494   3.291  13.455
 6426SOL    HW219737   2.408   3.428  13.481
 6427SOL     OW19738   2.117   3.210  13.324
 6427SOL    HW119739   2.021   3.211  13.297
 6427SOL    HW219740   2.129   3.263  13.408
 6428SOL     OW19741   3.045   3.197  13.153
 6428SOL    HW119742   2.946   3.186  13.155
 6428SOL    HW219743   3.079   3.212  13.246
 6429SOL     OW19744   3.087   2.187  13.483
 6429SOL    HW119745   3.152   2.113  13.472
 6429SOL    HW219746   3.107   2.237  13.567
 6430SOL     OW19747   2.456   2.607  13.686
 6430SOL    HW119748   2.506   2.692  13.667
 6430SOL    HW219749   2.368   2.609  13.638
 6431SOL     OW19750   2.721   3.236  13.050
 6431SOL    HW119751   2.675   3.251  13.138
 6431SOL    HW219752   2.765   3.321  13.020
 6432SOL     OW19753   2.523   3.652  13.987
 6432SOL    HW119754   2.477   3.740  13.974
 6432SOL    HW219755   2.622   3.664  13.980
 6433SOL     OW19756   2.721   2.818  13.895
 6433SOL    HW119757   2.775   2.749  13.943
 6433SOL    HW219758   2.689   2.887  13.961
 6434SOL     OW19759   2.945   2.846  13.121
 6434SOL    HW119760   2.922   2.899  13.039
 6434SOL    HW219761   3.026   2.790  13.102
 6435SOL     OW19762   1.941   3.102  13.687
 6435SOL    HW119763   1.940   3.055  13.775
 6435SOL    HW219764   2.023   3.074  13.636
 6436SOL     OW19765   2.290   2.286  13.554
 6436SOL    HW119766   2.320   2.214  13.492
 6436SOL    HW219767   2.251   2.246  13.637
 6437SOL     OW19768   3.567   3.349  14.138
 6437SOL    HW119769   3.474   3.324  14.111
 6437SOL    HW219770   3.593   3.299  14.220
 6438SOL     OW19771   2.674   3.448  13.721
 6438SOL    HW119772   2.706   3.458  13.627
 6438SOL    HW219773   2.595   3.386  13.723
 6439SOL     OW19774   2.632   3.192  13.335
 6439SOL    HW119775   2.586   3.105  13.352
 6439SOL    HW219776   2.723   3.189  13.376
 6440SOL     OW19777   3.214   1.914  13.202
 6440SOL    HW119778   3.249   1.873  13.118
 6440SOL    HW219779   3.124   1.876  13.222
 6441SOL     OW19780   3.162   2.315  13.725
 6441SOL    HW119781   3.103   2.395  13.729
 6441SOL    HW219782   3.177   2.280  13.818
 6442SOL     OW19783   1.901   2.939  13.334
 6442SOL    HW119784   2.000   2.928  13.325
 6442SOL    HW219785   1.861   2.853  13.366
 6443SOL     OW19786   2.737   3.508  13.371
 6443SOL    HW119787   2.660   3.473  13.317
 6443SOL    HW219788   2.705   3.579  13.433
 6444SOL     OW19789   2.087   3.999   0.996
 6444SOL    HW119790   2.122   3.982   1.088
 6444SOL    HW219791   1.999   3.954   0.984
 6445SOL     OW19792   1.881   4.092   0.647
 6445SOL    HW119793   1.799   4.135   0.686
 6445SOL    HW219794   1.853   4.019   0.584
 6446SOL     OW19795   3.617   4.331   0.231
 6446SOL    HW119796   3.605   4.318   0.132
 6446SOL    HW219797   3.587   4.250   0.280
 6447SOL     OW19798   2.300   4.116   1.499
 6447SOL    HW119799   2.382   4.060   1.508
 6447SOL    HW219800   2.219   4.058   1.503
 6448SOL     OW19801   3.456   3.838   1.480
 6448SOL    HW119802   3.438   3.905   1.408
 6448SOL    HW219803   3.453   3.884   1.569
 6449SOL     OW19804   2.671   3.728   0.502
 6449SOL    HW119805   2.711   3.819   0.493
 6449SOL    HW219806   2.571   3.736   0.508
 6450SOL     OW19807   3.143   4.069   0.944
 6450SOL    HW119808   3.057   4.019   0.931
 6450SOL    HW219809   3.205   4.015   1.000
 6451SOL     OW19810   2.412   3.920   0.885
 6451SOL    HW119811   2.407   3.915   0.985
 6451SOL    HW219812   2.414   4.016   0.856
 6452SOL     OW19813   2.064   4.009   1.498
 6452SOL    HW119814   1.984   4.069   1.485
 6452SOL    HW219815   2.054   3.960   1.584
 6453SOL     OW19816   3.262   3.831   0.426
 6453SOL    HW119817   3.238   3.794   0.336
 6453SOL    HW219818   3.361   3.847   0.430
 6454SOL     OW19819   3.409   3.946   1.729
 6454SOL    HW119820   3.404   3.983   1.821
 6454SOL    HW219821   3.337   3.877   1.717
 6455SOL     OW19822   2.643   3.988   1.749
 6455SOL    HW119823   2.710   3.927   1.792
 6455SOL    HW219824   2.570   4.007   1.814
 6456SOL     OW19825   2.401   3.788   0.512
 6456SOL    HW119826   2.320   3.789   0.570
 6456SOL    HW219827   2.404   3.871   0.457
 6457SOL     OW19828   2.159   3.759   0.171
 6457SOL    HW119829   2.208   3.843   0.150
 6457SOL    HW219830   2.221   3.694   0.216
 6458SOL     OW19831   2.423   3.946   1.147
 6458SOL    HW119832   2.461   3.862   1.184
 6458SOL    HW219833   2.335   3.965   1.191
 6459SOL     OW19834   2.879   3.763   0.753
 6459SOL    HW119835   2.807   3.768   0.684
 6459SOL    HW219836   2.855   3.694   0.822
 6460SOL     OW19837   2.777   3.813   1.402
 6460SOL    HW119838   2.802   3.793   1.307
 6460SOL    HW219839   2.849   3.869   1.444
 6461SOL     OW19840   3.136   4.110   1.262
 6461SOL    HW119841   3.157   4.184   1.326
 6461SOL    HW219842   3.047   4.127   1.219
 6462SOL     OW19843   2.366   3.774   1.740
 6462SOL    HW119844   2.324   3.717   1.670
 6462SOL    HW219845   2.300   3.843   1.772
 6463SOL     OW19846   2.169   3.937   1.231
 6463SOL    HW119847   2.146   3.974   1.321
 6463SOL    HW219848   2.139   3.842   1.225
 6464SOL     OW19849   3.402   3.998   0.125
 6464SOL    HW119850   3.341   3.923   0.148
 6464SOL    HW219851   3.424   4.050   0.208
 6465SOL     OW19852   3.022   3.931   1.477
 6465SOL    HW119853   3.022   3.995   1.554
 6465SOL    HW219854   3.050   3.979   1.394
 6466SOL     OW19855   2.765   3.810   0.133
 6466SOL    HW119856   2.816   3.811   0.047
 6466SOL    HW219857   2.821   3.768   0.204
 6467SOL     OW19858   3.588   3.859   0.523
 6467SOL    HW119859   3.661   3.842   0.456
 6467SOL    HW219860   3.557   3.772   0.561
 6468SOL     OW19861   3.703   3.899   0.963
 6468SOL    HW119862   3.742   3.814   0.927
 6468SOL    HW219863   3.605   3.901   0.944
 6469SOL     OW19864   2.534   3.927   1.489
 6469SOL    HW119865   2.624   3.911   1.449
 6469SOL    HW219866   2.542   3.932   1.588
 6470SOL     OW19867   1.934   3.890   0.318
 6470SOL    HW119868   1.917   3.973   0.264
 6470SOL    HW219869   2.024   3.853   0.296
 6471SOL     OW19870   3.087   4.049   0.449
 6471SOL    HW119871   3.152   3.975   0.438
 6471SOL    HW219872   3.107   4.099   0.533
 6472SOL     OW19873   3.639   4.066   1.642
 6472SOL    HW119874   3.622   4.097   1.548
 6472SOL    HW219875   3.555   4.029   1.680
 6473SOL     OW19876   3.686   3.916   1.227
 6473SOL    HW119877   3.682   3.826   1.271
 6473SOL    HW219878   3.689   3.905   1.128
 6474SOL     OW19879   3.286   3.938   1.112
 6474SOL    HW119880   3.338   3.873   1.167
 6474SOL    HW219881   3.237   4.001   1.173
 6475SOL     OW19882   2.863   3.758   1.154
 6475SOL    HW119883   2.800   3.686   1.123
 6475SOL    HW219884   2.956   3.722   1.154
 6476SOL     OW19885   3.214   3.776   0.168
 6476SOL    HW119886   3.249   3.735   0.084
 6476SOL    HW219887   3.124   3.738   0.188
 6477SOL     OW19888   3.162   4.177   0.691
 6477SOL    HW119889   3.103   4.257   0.695
 6477SOL    HW219890   3.177   4.142   0.784
 6478SOL     OW19891   3.455   3.945   0.882
 6478SOL    HW119892   3.371   3.944   0.936
 6478SOL    HW219893   3.457   4.028   0.826
 6479SOL     OW19894   2.087   3.999   2.858
 6479SOL    HW119895   2.122   3.982   2.950
 6479SOL    HW219896   1.999   3.954   2.846
 6480SOL     OW19897   1.881   4.092   2.509
 6480SOL    HW119898   1.799   4.135   2.548
 6480SOL    HW219899   1.853   4.019   2.446
 6481SOL     OW19900   3.617   4.331   2.093
 6481SOL    HW119901   3.605   4.318   1.994
 6481SOL    HW219902   3.587   4.250   2.142
 6482SOL     OW19903   2.300   4.116   3.361
 6482SOL    HW119904   2.382   4.060   3.370
 6482SOL    HW219905   2.219   4.058   3.365
 6483SOL     OW19906   3.456   3.838   3.342
 6483SOL    HW119907   3.438   3.905   3.270
 6483SOL    HW219908   3.453   3.884   3.431
 6484SOL     OW19909   2.671   3.728   2.364
 6484SOL    HW119910   2.711   3.819   2.355
 6484SOL    HW219911   2.571   3.736   2.370
 6485SOL     OW19912   3.143   4.069   2.806
 6485SOL    HW119913   3.057   4.019   2.793
 6485SOL    HW219914   3.205   4.015   2.862
 6486SOL     OW19915   2.412   3.920   2.747
 6486SOL    HW119916   2.407   3.915   2.847
 6486SOL    HW219917   2.414   4.016   2.718
 6487SOL     OW19918   2.064   4.009   3.360
 6487SOL    HW119919   1.984   4.069   3.347
 6487SOL    HW219920   2.054   3.960   3.446
 6488SOL     OW19921   3.262   3.831   2.288
 6488SOL    HW119922   3.238   3.794   2.198
 6488SOL    HW219923   3.361   3.847   2.292
 6489SOL     OW19924   3.409   3.946   3.591
 6489SOL    HW119925   3.404   3.983   3.683
 6489SOL    HW219926   3.337   3.877   3.579
 6490SOL     OW19927   2.476   3.846   1.979
 6490SOL    HW119928   2.574   3.824   1.986
 6490SOL    HW219929   2.445   3.829   1.886
 6491SOL     OW19930   2.643   3.988   3.611
 6491SOL    HW119931   2.710   3.927   3.654
 6491SOL    HW219932   2.570   4.007   3.676
 6492SOL     OW19933   2.401   3.788   2.374
 6492SOL    HW119934   2.320   3.789   2.432
 6492SOL    HW219935   2.404   3.871   2.319
 6493SOL     OW19936   2.159   3.759   2.033
 6493SOL    HW119937   2.208   3.843   2.012
 6493SOL    HW219938   2.221   3.694   2.078
 6494SOL     OW19939   2.423   3.946   3.009
 6494SOL    HW119940   2.461   3.862   3.046
 6494SOL    HW219941   2.335   3.965   3.053
 6495SOL     OW19942   2.879   3.763   2.615
 6495SOL    HW119943   2.807   3.768   2.546
 6495SOL    HW219944   2.855   3.694   2.684
 6496SOL     OW19945   2.777   3.813   3.264
 6496SOL    HW119946   2.802   3.793   3.169
 6496SOL    HW219947   2.849   3.869   3.306
 6497SOL     OW19948   3.136   4.110   3.124
 6497SOL    HW119949   3.157   4.184   3.188
 6497SOL    HW219950   3.047   4.127   3.081
 6498SOL     OW19951   2.366   3.774   3.602
 6498SOL    HW119952   2.324   3.717   3.532
 6498SOL    HW219953   2.300   3.843   3.634
 6499SOL     OW19954   2.169   3.937   3.093
 6499SOL    HW119955   2.146   3.974   3.183
 6499SOL    HW219956   2.139   3.842   3.087
 6500SOL     OW19957   3.402   3.998   1.987
 6500SOL    HW119958   3.341   3.923   2.010
 6500SOL    HW219959   3.424   4.050   2.070
 6501SOL     OW19960   3.022   3.931   3.339
 6501SOL    HW119961   3.022   3.995   3.416
 6501SOL    HW219962   3.050   3.979   3.256
 6502SOL     OW19963   2.765   3.810   1.995
 6502SOL    HW119964   2.816   3.811   1.909
 6502SOL    HW219965   2.821   3.768   2.066
 6503SOL     OW19966   3.588   3.859   2.385
 6503SOL    HW119967   3.661   3.842   2.318
 6503SOL    HW219968   3.557   3.772   2.423
 6504SOL     OW19969   3.703   3.899   2.825
 6504SOL    HW119970   3.742   3.814   2.789
 6504SOL    HW219971   3.605   3.901   2.806
 6505SOL     OW19972   2.534   3.927   3.351
 6505SOL    HW119973   2.624   3.911   3.311
 6505SOL    HW219974   2.542   3.932   3.450
 6506SOL     OW19975   1.937   4.069   1.895
 6506SOL    HW119976   1.845   4.041   1.866
 6506SOL    HW219977   1.968   4.146   1.839
 6507SOL     OW19978   1.934   3.890   2.180
 6507SOL    HW119979   1.917   3.973   2.126
 6507SOL    HW219980   2.024   3.853   2.158
 6508SOL     OW19981   3.087   4.049   2.311
 6508SOL    HW119982   3.152   3.975   2.300
 6508SOL    HW219983   3.107   4.099   2.395
 6509SOL     OW19984   3.639   4.066   3.504
 6509SOL    HW119985   3.622   4.097   3.410
 6509SOL    HW219986   3.555   4.029   3.542
 6510SOL     OW19987   3.686   3.916   3.089
 6510SOL    HW119988   3.682   3.826   3.133
 6510SOL    HW219989   3.689   3.905   2.990
 6511SOL     OW19990   3.286   3.938   2.974
 6511SOL    HW119991   3.338   3.873   3.029
 6511SOL    HW219992   3.237   4.001   3.035
 6512SOL     OW19993   2.863   3.758   3.016
 6512SOL    HW119994   2.800   3.686   2.985
 6512SOL    HW219995   2.956   3.722   3.016
 6513SOL     OW19996   3.214   3.776   2.030
 6513SOL    HW119997   3.249   3.735   1.946
 6513SOL    HW219998   3.124   3.738   2.050
 6514SOL     OW19999   3.162   4.177   2.553
 6514SOL    HW120000   3.103   4.257   2.557
 6514SOL    HW220001   3.177   4.142   2.646
 6515SOL     OW20002   3.455   3.945   2.744
 6515SOL    HW120003   3.371   3.944   2.798
 6515SOL    HW220004   3.457   4.028   2.688
 6516SOL     OW20005   2.087   3.999   4.720
 6516SOL    HW120006   2.122   3.982   4.812
 6516SOL    HW220007   1.999   3.954   4.708
 6517SOL     OW20008   1.881   4.092   4.371
 6517SOL    HW120009   1.799   4.135   4.410
 6517SOL    HW220010   1.853   4.019   4.308
 6518SOL     OW20011   3.617   4.331   3.955
 6518SOL    HW120012   3.605   4.318   3.856
 6518SOL    HW220013   3.587   4.250   4.004
 6519SOL     OW20014   2.300   4.116   5.223
 6519SOL    HW120015   2.382   4.060   5.232
 6519SOL    HW220016   2.219   4.058   5.227
 6520SOL     OW20017   3.456   3.838   5.204
 6520SOL    HW120018   3.438   3.905   5.132
 6520SOL    HW220019   3.453   3.884   5.293
 6521SOL     OW20020   2.671   3.728   4.226
 6521SOL    HW120021   2.711   3.819   4.217
 6521SOL    HW220022   2.571   3.736   4.232
 6522SOL     OW20023   3.143   4.069   4.668
 6522SOL    HW120024   3.057   4.019   4.655
 6522SOL    HW220025   3.205   4.015   4.724
 6523SOL     OW20026   2.412   3.920   4.609
 6523SOL    HW120027   2.407   3.915   4.709
 6523SOL    HW220028   2.414   4.016   4.580
 6524SOL     OW20029   2.064   4.009   5.222
 6524SOL    HW120030   1.984   4.069   5.209
 6524SOL    HW220031   2.054   3.960   5.308
 6525SOL     OW20032   3.262   3.831   4.150
 6525SOL    HW120033   3.238   3.794   4.060
 6525SOL    HW220034   3.361   3.847   4.154
 6526SOL     OW20035   3.409   3.946   5.453
 6526SOL    HW120036   3.404   3.983   5.545
 6526SOL    HW220037   3.337   3.877   5.441
 6527SOL     OW20038   2.476   3.846   3.841
 6527SOL    HW120039   2.574   3.824   3.848
 6527SOL    HW220040   2.445   3.829   3.748
 6528SOL     OW20041   2.643   3.988   5.473
 6528SOL    HW120042   2.710   3.927   5.516
 6528SOL    HW220043   2.570   4.007   5.538
 6529SOL     OW20044   2.401   3.788   4.236
 6529SOL    HW120045   2.320   3.789   4.294
 6529SOL    HW220046   2.404   3.871   4.181
 6530SOL     OW20047   2.159   3.759   3.895
 6530SOL    HW120048   2.208   3.843   3.874
 6530SOL    HW220049   2.221   3.694   3.940
 6531SOL     OW20050   2.423   3.946   4.871
 6531SOL    HW120051   2.461   3.862   4.908
 6531SOL    HW220052   2.335   3.965   4.915
 6532SOL     OW20053   2.879   3.763   4.477
 6532SOL    HW120054   2.807   3.768   4.408
 6532SOL    HW220055   2.855   3.694   4.546
 6533SOL     OW20056   2.777   3.813   5.126
 6533SOL    HW120057   2.802   3.793   5.031
 6533SOL    HW220058   2.849   3.869   5.168
 6534SOL     OW20059   3.136   4.110   4.986
 6534SOL    HW120060   3.157   4.184   5.050
 6534SOL    HW220061   3.047   4.127   4.943
 6535SOL     OW20062   2.366   3.774   5.464
 6535SOL    HW120063   2.324   3.717   5.394
 6535SOL    HW220064   2.300   3.843   5.496
 6536SOL     OW20065   2.169   3.937   4.955
 6536SOL    HW120066   2.146   3.974   5.045
 6536SOL    HW220067   2.139   3.842   4.949
 6537SOL     OW20068   3.402   3.998   3.849
 6537SOL    HW120069   3.341   3.923   3.872
 6537SOL    HW220070   3.424   4.050   3.932
 6538SOL     OW20071   3.022   3.931   5.201
 6538SOL    HW120072   3.022   3.995   5.278
 6538SOL    HW220073   3.050   3.979   5.118
 6539SOL     OW20074   2.765   3.810   3.857
 6539SOL    HW120075   2.816   3.811   3.771
 6539SOL    HW220076   2.821   3.768   3.928
 6540SOL     OW20077   3.588   3.859   4.247
 6540SOL    HW120078   3.661   3.842   4.180
 6540SOL    HW220079   3.557   3.772   4.285
 6541SOL     OW20080   3.703   3.899   4.687
 6541SOL    HW120081   3.742   3.814   4.651
 6541SOL    HW220082   3.605   3.901   4.668
 6542SOL     OW20083   2.534   3.927   5.213
 6542SOL    HW120084   2.624   3.911   5.173
 6542SOL    HW220085   2.542   3.932   5.312
 6543SOL     OW20086   1.937   4.069   3.757
 6543SOL    HW120087   1.845   4.041   3.728
 6543SOL    HW220088   1.968   4.146   3.701
 6544SOL     OW20089   1.934   3.890   4.042
 6544SOL    HW120090   1.917   3.973   3.988
 6544SOL    HW220091   2.024   3.853   4.020
 6545SOL     OW20092   3.087   4.049   4.173
 6545SOL    HW120093   3.152   3.975   4.162
 6545SOL    HW220094   3.107   4.099   4.257
 6546SOL     OW20095   3.639   4.066   5.366
 6546SOL    HW120096   3.622   4.097   5.272
 6546SOL    HW220097   3.555   4.029   5.404
 6547SOL     OW20098   3.686   3.916   4.951
 6547SOL    HW120099   3.682   3.826   4.995
 6547SOL    HW220100   3.689   3.905   4.852
 6548SOL     OW20101   3.286   3.938   4.836
 6548SOL    HW120102   3.338   3.873   4.891
 6548SOL    HW220103   3.237   4.001   4.897
 6549SOL     OW20104   2.863   3.758   4.878
 6549SOL    HW120105   2.800   3.686   4.847
 6549SOL    HW220106   2.956   3.722   4.878
 6550SOL     OW20107   3.214   3.776   3.892
 6550SOL    HW120108   3.249   3.735   3.808
 6550SOL    HW220109   3.124   3.738   3.912
 6551SOL     OW20110   3.162   4.177   4.415
 6551SOL    HW120111   3.103   4.257   4.419
 6551SOL    HW220112   3.177   4.142   4.508
 6552SOL     OW20113   3.455   3.945   4.606
 6552SOL    HW120114   3.371   3.944   4.660
 6552SOL    HW220115   3.457   4.028   4.550
 6553SOL     OW20116   2.087   3.999   6.582
 6553SOL    HW120117   2.122   3.982   6.674
 6553SOL    HW220118   1.999   3.954   6.570
 6554SOL     OW20119   1.881   4.092   6.233
 6554SOL    HW120120   1.799   4.135   6.272
 6554SOL    HW220121   1.853   4.019   6.170
 6555SOL     OW20122   3.617   4.331   5.817
 6555SOL    HW120123   3.605   4.318   5.718
 6555SOL    HW220124   3.587   4.250   5.866
 6556SOL     OW20125   2.300   4.116   7.085
 6556SOL    HW120126   2.382   4.060   7.094
 6556SOL    HW220127   2.219   4.058   7.089
 6557SOL     OW20128   3.456   3.838   7.066
 6557SOL    HW120129   3.438   3.905   6.994
 6557SOL    HW220130   3.453   3.884   7.155
 6558SOL     OW20131   2.671   3.728   6.088
 6558SOL    HW120132   2.711   3.819   6.079
 6558SOL    HW220133   2.571   3.736   6.094
 6559SOL     OW20134   3.143   4.069   6.530
 6559SOL    HW120135   3.057   4.019   6.517
 6559SOL    HW220136   3.205   4.015   6.586
 6560SOL     OW20137   2.412   3.920   6.471
 6560SOL    HW120138   2.407   3.915   6.571
 6560SOL    HW220139   2.414   4.016   6.442
 6561SOL     OW20140   2.064   4.009   7.084
 6561SOL    HW120141   1.984   4.069   7.071
 6561SOL    HW220142   2.054   3.960   7.170
 6562SOL     OW20143   3.262   3.831   6.012
 6562SOL    HW120144   3.238   3.794   5.922
 6562SOL    HW220145   3.361   3.847   6.016
 6563SOL     OW20146   3.409   3.946   7.315
 6563SOL    HW120147   3.404   3.983   7.407
 6563SOL    HW220148   3.337   3.877   7.303
 6564SOL     OW20149   2.476   3.846   5.703
 6564SOL    HW120150   2.574   3.824   5.710
 6564SOL    HW220151   2.445   3.829   5.610
 6565SOL     OW20152   2.643   3.988   7.335
 6565SOL    HW120153   2.710   3.927   7.378
 6565SOL    HW220154   2.570   4.007   7.400
 6566SOL     OW20155   2.401   3.788   6.098
 6566SOL    HW120156   2.320   3.789   6.156
 6566SOL    HW220157   2.404   3.871   6.043
 6567SOL     OW20158   2.159   3.759   5.757
 6567SOL    HW120159   2.208   3.843   5.736
 6567SOL    HW220160   2.221   3.694   5.802
 6568SOL     OW20161   2.423   3.946   6.733
 6568SOL    HW120162   2.461   3.862   6.770
 6568SOL    HW220163   2.335   3.965   6.777
 6569SOL     OW20164   2.879   3.763   6.339
 6569SOL    HW120165   2.807   3.768   6.270
 6569SOL    HW220166   2.855   3.694   6.408
 6570SOL     OW20167   2.777   3.813   6.988
 6570SOL    HW120168   2.802   3.793   6.893
 6570SOL    HW220169   2.849   3.869   7.030
 6571SOL     OW20170   3.136   4.110   6.848
 6571SOL    HW120171   3.157   4.184   6.912
 6571SOL    HW220172   3.047   4.127   6.805
 6572SOL     OW20173   2.366   3.774   7.326
 6572SOL    HW120174   2.324   3.717   7.256
 6572SOL    HW220175   2.300   3.843   7.358
 6573SOL     OW20176   2.169   3.937   6.817
 6573SOL    HW120177   2.146   3.974   6.907
 6573SOL    HW220178   2.139   3.842   6.811
 6574SOL     OW20179   3.402   3.998   5.711
 6574SOL    HW120180   3.341   3.923   5.734
 6574SOL    HW220181   3.424   4.050   5.794
 6575SOL     OW20182   3.022   3.931   7.063
 6575SOL    HW120183   3.022   3.995   7.140
 6575SOL    HW220184   3.050   3.979   6.980
 6576SOL     OW20185   2.765   3.810   5.719
 6576SOL    HW120186   2.816   3.811   5.633
 6576SOL    HW220187   2.821   3.768   5.790
 6577SOL     OW20188   3.588   3.859   6.109
 6577SOL    HW120189   3.661   3.842   6.042
 6577SOL    HW220190   3.557   3.772   6.147
 6578SOL     OW20191   3.703   3.899   6.549
 6578SOL    HW120192   3.742   3.814   6.513
 6578SOL    HW220193   3.605   3.901   6.530
 6579SOL     OW20194   2.534   3.927   7.075
 6579SOL    HW120195   2.624   3.911   7.035
 6579SOL    HW220196   2.542   3.932   7.174
 6580SOL     OW20197   1.937   4.069   5.619
 6580SOL    HW120198   1.845   4.041   5.590
 6580SOL    HW220199   1.968   4.146   5.563
 6581SOL     OW20200   1.934   3.890   5.904
 6581SOL    HW120201   1.917   3.973   5.850
 6581SOL    HW220202   2.024   3.853   5.882
 6582SOL     OW20203   3.087   4.049   6.035
 6582SOL    HW120204   3.152   3.975   6.024
 6582SOL    HW220205   3.107   4.099   6.119
 6583SOL     OW20206   3.639   4.066   7.228
 6583SOL    HW120207   3.622   4.097   7.134
 6583SOL    HW220208   3.555   4.029   7.266
 6584SOL     OW20209   3.686   3.916   6.813
 6584SOL    HW120210   3.682   3.826   6.857
 6584SOL    HW220211   3.689   3.905   6.714
 6585SOL     OW20212   3.286   3.938   6.698
 6585SOL    HW120213   3.338   3.873   6.753
 6585SOL    HW220214   3.237   4.001   6.759
 6586SOL     OW20215   2.863   3.758   6.740
 6586SOL    HW120216   2.800   3.686   6.709
 6586SOL    HW220217   2.956   3.722   6.740
 6587SOL     OW20218   3.214   3.776   5.754
 6587SOL    HW120219   3.249   3.735   5.670
 6587SOL    HW220220   3.124   3.738   5.774
 6588SOL     OW20221   3.162   4.177   6.277
 6588SOL    HW120222   3.103   4.257   6.281
 6588SOL    HW220223   3.177   4.142   6.370
 6589SOL     OW20224   3.455   3.945   6.468
 6589SOL    HW120225   3.371   3.944   6.522
 6589SOL    HW220226   3.457   4.028   6.412
 6590SOL     OW20227   2.087   3.999   8.444
 6590SOL    HW120228   2.122   3.982   8.536
 6590SOL    HW220229   1.999   3.954   8.432
 6591SOL     OW20230   1.881   4.092   8.095
 6591SOL    HW120231   1.799   4.135   8.134
 6591SOL    HW220232   1.853   4.019   8.032
 6592SOL     OW20233   3.617   4.331   7.679
 6592SOL    HW120234   3.605   4.318   7.580
 6592SOL    HW220235   3.587   4.250   7.728
 6593SOL     OW20236   2.300   4.116   8.947
 6593SOL    HW120237   2.382   4.060   8.956
 6593SOL    HW220238   2.219   4.058   8.951
 6594SOL     OW20239   3.456   3.838   8.928
 6594SOL    HW120240   3.438   3.905   8.856
 6594SOL    HW220241   3.453   3.884   9.017
 6595SOL     OW20242   2.671   3.728   7.950
 6595SOL    HW120243   2.711   3.819   7.941
 6595SOL    HW220244   2.571   3.736   7.956
 6596SOL     OW20245   3.143   4.069   8.392
 6596SOL    HW120246   3.057   4.019   8.379
 6596SOL    HW220247   3.205   4.015   8.448
 6597SOL     OW20248   2.412   3.920   8.333
 6597SOL    HW120249   2.407   3.915   8.433
 6597SOL    HW220250   2.414   4.016   8.304
 6598SOL     OW20251   2.064   4.009   8.946
 6598SOL    HW120252   1.984   4.069   8.933
 6598SOL    HW220253   2.054   3.960   9.032
 6599SOL     OW20254   3.262   3.831   7.874
 6599SOL    HW120255   3.238   3.794   7.784
 6599SOL    HW220256   3.361   3.847   7.878
 6600SOL     OW20257   3.409   3.946   9.177
 6600SOL    HW120258   3.404   3.983   9.269
 6600SOL    HW220259   3.337   3.877   9.165
 6601SOL     OW20260   2.476   3.846   7.565
 6601SOL    HW120261   2.574   3.824   7.572
 6601SOL    HW220262   2.445   3.829   7.472
 6602SOL     OW20263   2.643   3.988   9.197
 6602SOL    HW120264   2.710   3.927   9.240
 6602SOL    HW220265   2.570   4.007   9.262
 6603SOL     OW20266   2.401   3.788   7.960
 6603SOL    HW120267   2.320   3.789   8.018
 6603SOL    HW220268   2.404   3.871   7.905
 6604SOL     OW20269   2.159   3.759   7.619
 6604SOL    HW120270   2.208   3.843   7.598
 6604SOL    HW220271   2.221   3.694   7.664
 6605SOL     OW20272   2.423   3.946   8.595
 6605SOL    HW120273   2.461   3.862   8.632
 6605SOL    HW220274   2.335   3.965   8.639
 6606SOL     OW20275   2.879   3.763   8.201
 6606SOL    HW120276   2.807   3.768   8.132
 6606SOL    HW220277   2.855   3.694   8.270
 6607SOL     OW20278   2.777   3.813   8.850
 6607SOL    HW120279   2.802   3.793   8.755
 6607SOL    HW220280   2.849   3.869   8.892
 6608SOL     OW20281   3.136   4.110   8.710
 6608SOL    HW120282   3.157   4.184   8.774
 6608SOL    HW220283   3.047   4.127   8.667
 6609SOL     OW20284   2.366   3.774   9.188
 6609SOL    HW120285   2.324   3.717   9.118
 6609SOL    HW220286   2.300   3.843   9.220
 6610SOL     OW20287   2.169   3.937   8.679
 6610SOL    HW120288   2.146   3.974   8.769
 6610SOL    HW220289   2.139   3.842   8.673
 6611SOL     OW20290   3.402   3.998   7.573
 6611SOL    HW120291   3.341   3.923   7.596
 6611SOL    HW220292   3.424   4.050   7.656
 6612SOL     OW20293   3.022   3.931   8.925
 6612SOL    HW120294   3.022   3.995   9.002
 6612SOL    HW220295   3.050   3.979   8.842
 6613SOL     OW20296   2.765   3.810   7.581
 6613SOL    HW120297   2.816   3.811   7.495
 6613SOL    HW220298   2.821   3.768   7.652
 6614SOL     OW20299   3.588   3.859   7.971
 6614SOL    HW120300   3.661   3.842   7.904
 6614SOL    HW220301   3.557   3.772   8.009
 6615SOL     OW20302   3.703   3.899   8.411
 6615SOL    HW120303   3.742   3.814   8.375
 6615SOL    HW220304   3.605   3.901   8.392
 6616SOL     OW20305   2.534   3.927   8.937
 6616SOL    HW120306   2.624   3.911   8.897
 6616SOL    HW220307   2.542   3.932   9.036
 6617SOL     OW20308   1.937   4.069   7.481
 6617SOL    HW120309   1.845   4.041   7.452
 6617SOL    HW220310   1.968   4.146   7.425
 6618SOL     OW20311   1.934   3.890   7.766
 6618SOL    HW120312   1.917   3.973   7.712
 6618SOL    HW220313   2.024   3.853   7.744
 6619SOL     OW20314   3.087   4.049   7.897
 6619SOL    HW120315   3.152   3.975   7.886
 6619SOL    HW220316   3.107   4.099   7.981
 6620SOL     OW20317   3.639   4.066   9.090
 6620SOL    HW120318   3.622   4.097   8.996
 6620SOL    HW220319   3.555   4.029   9.128
 6621SOL     OW20320   3.686   3.916   8.675
 6621SOL    HW120321   3.682   3.826   8.719
 6621SOL    HW220322   3.689   3.905   8.576
 6622SOL     OW20323   3.286   3.938   8.560
 6622SOL    HW120324   3.338   3.873   8.615
 6622SOL    HW220325   3.237   4.001   8.621
 6623SOL     OW20326   2.863   3.758   8.602
 6623SOL    HW120327   2.800   3.686   8.571
 6623SOL    HW220328   2.956   3.722   8.602
 6624SOL     OW20329   3.214   3.776   7.616
 6624SOL    HW120330   3.249   3.735   7.532
 6624SOL    HW220331   3.124   3.738   7.636
 6625SOL     OW20332   3.162   4.177   8.139
 6625SOL    HW120333   3.103   4.257   8.143
 6625SOL    HW220334   3.177   4.142   8.232
 6626SOL     OW20335   3.455   3.945   8.330
 6626SOL    HW120336   3.371   3.944   8.384
 6626SOL    HW220337   3.457   4.028   8.274
 6627SOL     OW20338   2.087   3.999  10.306
 6627SOL    HW120339   2.122   3.982  10.398
 6627SOL    HW220340   1.999   3.954  10.294
 6628SOL     OW20341   1.881   4.092   9.957
 6628SOL    HW120342   1.799   4.135   9.996
 6628SOL    HW220343   1.853   4.019   9.894
 6629SOL     OW20344   3.617   4.331   9.541
 6629SOL    HW120345   3.605   4.318   9.442
 6629SOL    HW220346   3.587   4.250   9.590
 6630SOL     OW20347   2.300   4.116  10.809
 6630SOL    HW120348   2.382   4.060  10.818
 6630SOL    HW220349   2.219   4.058  10.813
 6631SOL     OW20350   3.456   3.838  10.790
 6631SOL    HW120351   3.438   3.905  10.718
 6631SOL    HW220352   3.453   3.884  10.879
 6632SOL     OW20353   2.671   3.728   9.812
 6632SOL    HW120354   2.711   3.819   9.803
 6632SOL    HW220355   2.571   3.736   9.818
 6633SOL     OW20356   3.143   4.069  10.254
 6633SOL    HW120357   3.057   4.019  10.241
 6633SOL    HW220358   3.205   4.015  10.310
 6634SOL     OW20359   2.412   3.920  10.195
 6634SOL    HW120360   2.407   3.915  10.295
 6634SOL    HW220361   2.414   4.016  10.166
 6635SOL     OW20362   2.064   4.009  10.808
 6635SOL    HW120363   1.984   4.069  10.795
 6635SOL    HW220364   2.054   3.960  10.894
 6636SOL     OW20365   3.262   3.831   9.736
 6636SOL    HW120366   3.238   3.794   9.646
 6636SOL    HW220367   3.361   3.847   9.740
 6637SOL     OW20368   3.409   3.946  11.039
 6637SOL    HW120369   3.404   3.983  11.131
 6637SOL    HW220370   3.337   3.877  11.027
 6638SOL     OW20371   2.476   3.846   9.427
 6638SOL    HW120372   2.574   3.824   9.434
 6638SOL    HW220373   2.445   3.829   9.334
 6639SOL     OW20374   2.643   3.988  11.059
 6639SOL    HW120375   2.710   3.927  11.102
 6639SOL    HW220376   2.570   4.007  11.124
 6640SOL     OW20377   2.401   3.788   9.822
 6640SOL    HW120378   2.320   3.789   9.880
 6640SOL    HW220379   2.404   3.871   9.767
 6641SOL     OW20380   2.159   3.759   9.481
 6641SOL    HW120381   2.208   3.843   9.460
 6641SOL    HW220382   2.221   3.694   9.526
 6642SOL     OW20383   2.423   3.946  10.457
 6642SOL    HW120384   2.461   3.862  10.494
 6642SOL    HW220385   2.335   3.965  10.501
 6643SOL     OW20386   2.879   3.763  10.063
 6643SOL    HW120387   2.807   3.768   9.994
 6643SOL    HW220388   2.855   3.694  10.132
 6644SOL     OW20389   2.777   3.813  10.712
 6644SOL    HW120390   2.802   3.793  10.617
 6644SOL    HW220391   2.849   3.869  10.754
 6645SOL     OW20392   3.136   4.110  10.572
 6645SOL    HW120393   3.157   4.184  10.636
 6645SOL    HW220394   3.047   4.127  10.529
 6646SOL     OW20395   2.366   3.774  11.050
 6646SOL    HW120396   2.324   3.717  10.980
 6646SOL    HW220397   2.300   3.843  11.082
 6647SOL     OW20398   2.169   3.937  10.541
 6647SOL    HW120399   2.146   3.974  10.631
 6647SOL    HW220400   2.139   3.842  10.535
 6648SOL     OW20401   3.402   3.998   9.435
 6648SOL    HW120402   3.341   3.923   9.458
 6648SOL    HW220403   3.424   4.050   9.518
 6649SOL     OW20404   3.022   3.931  10.787
 6649SOL    HW120405   3.022   3.995  10.864
 6649SOL    HW220406   3.050   3.979  10.704
 6650SOL     OW20407   2.765   3.810   9.443
 6650SOL    HW120408   2.816   3.811   9.357
 6650SOL    HW220409   2.821   3.768   9.514
 6651SOL     OW20410   3.588   3.859   9.833
 6651SOL    HW120411   3.661   3.842   9.766
 6651SOL    HW220412   3.557   3.772   9.871
 6652SOL     OW20413   3.703   3.899  10.273
 6652SOL    HW120414   3.742   3.814  10.237
 6652SOL    HW220415   3.605   3.901  10.254
 6653SOL     OW20416   2.534   3.927  10.799
 6653SOL    HW120417   2.624   3.911  10.759
 6653SOL    HW220418   2.542   3.932  10.898
 6654SOL     OW20419   1.937   4.069   9.343
 6654SOL    HW120420   1.845   4.041   9.314
 6654SOL    HW220421   1.968   4.146   9.287
 6655SOL     OW20422   1.934   3.890   9.628
 6655SOL    HW120423   1.917   3.973   9.574
 6655SOL    HW220424   2.024   3.853   9.606
 6656SOL     OW20425   3.087   4.049   9.759
 6656SOL    HW120426   3.152   3.975   9.748
 6656SOL    HW220427   3.107   4.099   9.843
 6657SOL     OW20428   3.639   4.066  10.952
 6657SOL    HW120429   3.622   4.097  10.858
 6657SOL    HW220430   3.555   4.029  10.990
 6658SOL     OW20431   3.686   3.916  10.537
 6658SOL    HW120432   3.682   3.826  10.581
 6658SOL    HW220433   3.689   3.905  10.438
 6659SOL     OW20434   3.286   3.938  10.422
 6659SOL    HW120435   3.338   3.873  10.477
 6659SOL    HW220436   3.237   4.001  10.483
 6660SOL     OW20437   2.863   3.758  10.464
 6660SOL    HW120438   2.800   3.686  10.433
 6660SOL    HW220439   2.956   3.722  10.464
 6661SOL     OW20440   3.214   3.776   9.478
 6661SOL    HW120441   3.249   3.735   9.394
 6661SOL    HW220442   3.124   3.738   9.498
 6662SOL     OW20443   3.162   4.177  10.001
 6662SOL    HW120444   3.103   4.257  10.005
 6662SOL    HW220445   3.177   4.142  10.094
 6663SOL     OW20446   3.455   3.945  10.192
 6663SOL    HW120447   3.371   3.944  10.246
 6663SOL    HW220448   3.457   4.028  10.136
 6664SOL     OW20449   2.087   3.999  12.168
 6664SOL    HW120450   2.122   3.982  12.260
 6664SOL    HW220451   1.999   3.954  12.156
 6665SOL     OW20452   1.881   4.092  11.819
 6665SOL    HW120453   1.799   4.135  11.858
 6665SOL    HW220454   1.853   4.019  11.756
 6666SOL     OW20455   3.617   4.331  11.403
 6666SOL    HW120456   3.605   4.318  11.304
 6666SOL    HW220457   3.587   4.250  11.452
 6667SOL     OW20458   2.300   4.116  12.671
 6667SOL    HW120459   2.382   4.060  12.680
 6667SOL    HW220460   2.219   4.058  12.675
 6668SOL     OW20461   3.456   3.838  12.652
 6668SOL    HW120462   3.438   3.905  12.580
 6668SOL    HW220463   3.453   3.884  12.741
 6669SOL     OW20464   2.671   3.728  11.674
 6669SOL    HW120465   2.711   3.819  11.665
 6669SOL    HW220466   2.571   3.736  11.680
 6670SOL     OW20467   3.143   4.069  12.116
 6670SOL    HW120468   3.057   4.019  12.103
 6670SOL    HW220469   3.205   4.015  12.172
 6671SOL     OW20470   2.412   3.920  12.057
 6671SOL    HW120471   2.407   3.915  12.157
 6671SOL    HW220472   2.414   4.016  12.028
 6672SOL     OW20473   2.064   4.009  12.670
 6672SOL    HW120474   1.984   4.069  12.657
 6672SOL    HW220475   2.054   3.960  12.756
 6673SOL     OW20476   3.262   3.831  11.598
 6673SOL    HW120477   3.238   3.794  11.508
 6673SOL    HW220478   3.361   3.847  11.602
 6674SOL     OW20479   3.409   3.946  12.901
 6674SOL    HW120480   3.404   3.983  12.993
 6674SOL    HW220481   3.337   3.877  12.889
 6675SOL     OW20482   2.476   3.846  11.289
 6675SOL    HW120483   2.574   3.824  11.296
 6675SOL    HW220484   2.445   3.829  11.196
 6676SOL     OW20485   2.643   3.988  12.921
 6676SOL    HW120486   2.710   3.927  12.964
 6676SOL    HW220487   2.570   4.007  12.986
 6677SOL     OW20488   2.401   3.788  11.684
 6677SOL    HW120489   2.320   3.789  11.742
 6677SOL    HW220490   2.404   3.871  11.629
 6678SOL     OW20491   2.159   3.759  11.343
 6678SOL    HW120492   2.208   3.843  11.322
 6678SOL    HW220493   2.221   3.694  11.388
 6679SOL     OW20494   2.423   3.946  12.319
 6679SOL    HW120495   2.461   3.862  12.356
 6679SOL    HW220496   2.335   3.965  12.363
 6680SOL     OW20497   2.879   3.763  11.925
 6680SOL    HW120498   2.807   3.768  11.856
 6680SOL    HW220499   2.855   3.694  11.994
 6681SOL     OW20500   2.777   3.813  12.574
 6681SOL    HW120501   2.802   3.793  12.479
 6681SOL    HW220502   2.849   3.869  12.616
 6682SOL     OW20503   3.136   4.110  12.434
 6682SOL    HW120504   3.157   4.184  12.498
 6682SOL    HW220505   3.047   4.127  12.391
 6683SOL     OW20506   2.366   3.774  12.912
 6683SOL    HW120507   2.324   3.717  12.842
 6683SOL    HW220508   2.300   3.843  12.944
 6684SOL     OW20509   2.169   3.937  12.403
 6684SOL    HW120510   2.146   3.974  12.493
 6684SOL    HW220511   2.139   3.842  12.397
 6685SOL     OW20512   3.402   3.998  11.297
 6685SOL    HW120513   3.341   3.923  11.320
 6685SOL    HW220514   3.424   4.050  11.380
 6686SOL     OW20515   3.022   3.931  12.649
 6686SOL    HW120516   3.022   3.995  12.726
 6686SOL    HW220517   3.050   3.979  12.566
 6687SOL     OW20518   2.765   3.810  11.305
 6687SOL    HW120519   2.816   3.811  11.219
 6687SOL    HW220520   2.821   3.768  11.376
 6688SOL     OW20521   3.588   3.859  11.695
 6688SOL    HW120522   3.661   3.842  11.628
 6688SOL    HW220523   3.557   3.772  11.733
 6689SOL     OW20524   3.703   3.899  12.135
 6689SOL    HW120525   3.742   3.814  12.099
 6689SOL    HW220526   3.605   3.901  12.116
 6690SOL     OW20527   2.534   3.927  12.661
 6690SOL    HW120528   2.624   3.911  12.621
 6690SOL    HW220529   2.542   3.932  12.760
 6691SOL     OW20530   1.937   4.069  11.205
 6691SOL    HW120531   1.845   4.041  11.176
 6691SOL    HW220532   1.968   4.146  11.149
 6692SOL     OW20533   1.934   3.890  11.490
 6692SOL    HW120534   1.917   3.973  11.436
 6692SOL    HW220535   2.024   3.853  11.468
 6693SOL     OW20536   3.087   4.049  11.621
 6693SOL    HW120537   3.152   3.975  11.610
 6693SOL    HW220538   3.107   4.099  11.705
 6694SOL     OW20539   3.639   4.066  12.814
 6694SOL    HW120540   3.622   4.097  12.720
 6694SOL    HW220541   3.555   4.029  12.852
 6695SOL     OW20542   3.686   3.916  12.399
 6695SOL    HW120543   3.682   3.826  12.443
 6695SOL    HW220544   3.689   3.905  12.300
 6696SOL     OW20545   3.286   3.938  12.284
 6696SOL    HW120546   3.338   3.873  12.339
 6696SOL    HW220547   3.237   4.001  12.345
 6697SOL     OW20548   2.863   3.758  12.326
 6697SOL    HW120549   2.800   3.686  12.295
 6697SOL    HW220550   2.956   3.722  12.326
 6698SOL     OW20551   3.214   3.776  11.340
 6698SOL    HW120552   3.249   3.735  11.256
 6698SOL    HW220553   3.124   3.738  11.360
 6699SOL     OW20554   3.162   4.177  11.863
 6699SOL    HW120555   3.103   4.257  11.867
 6699SOL    HW220556   3.177   4.142  11.956
 6700SOL     OW20557   3.455   3.945  12.054
 6700SOL    HW120558   3.371   3.944  12.108
 6700SOL    HW220559   3.457   4.028  11.998
 6701SOL     OW20560   1.881   4.092  13.681
 6701SOL    HW120561   1.799   4.135  13.720
 6701SOL    HW220562   1.853   4.019  13.618
 6702SOL     OW20563   3.617   4.331  13.265
 6702SOL    HW120564   3.605   4.318  13.166
 6702SOL    HW220565   3.587   4.250  13.314
 6703SOL     OW20566   3.465   4.171  13.771
 6703SOL    HW120567   3.391   4.217  13.721
 6703SOL    HW220568   3.516   4.239  13.824
 6704SOL     OW20569   2.671   3.728  13.536
 6704SOL    HW120570   2.711   3.819  13.527
 6704SOL    HW220571   2.571   3.736  13.542
 6705SOL     OW20572   3.262   3.831  13.460
 6705SOL    HW120573   3.238   3.794  13.370
 6705SOL    HW220574   3.361   3.847  13.464
 6706SOL     OW20575   2.476   3.846  13.151
 6706SOL    HW120576   2.574   3.824  13.158
 6706SOL    HW220577   2.445   3.829  13.058
 6707SOL     OW20578   2.401   3.788  13.546
 6707SOL    HW120579   2.320   3.789  13.604
 6707SOL    HW220580   2.404   3.871  13.491
 6708SOL     OW20581   2.159   3.759  13.205
 6708SOL    HW120582   2.208   3.843  13.184
 6708SOL    HW220583   2.221   3.694  13.250
 6709SOL     OW20584   2.879   3.763  13.787
 6709SOL    HW120585   2.807   3.768  13.718
 6709SOL    HW220586   2.855   3.694  13.856
 6710SOL     OW20587   3.402   3.998  13.159
 6710SOL    HW120588   3.341   3.923  13.182
 6710SOL    HW220589   3.424   4.050  13.242
 6711SOL     OW20590   2.765   3.810  13.167
 6711SOL    HW120591   2.816   3.811  13.081
 6711SOL    HW220592   2.821   3.768  13.238
 6712SOL     OW20593   3.588   3.859  13.557
 6712SOL    HW120594   3.661   3.842  13.490
 6712SOL    HW220595   3.557   3.772  13.595
 6713SOL     OW20596   3.703   3.899  13.997
 6713SOL    HW120597   3.742   3.814  13.961
 6713SOL    HW220598   3.605   3.901  13.978
 6714SOL     OW20599   1.937   4.069  13.067
 6714SOL    HW120600   1.845   4.041  13.038
 6714SOL    HW220601   1.968   4.146  13.011
 6715SOL     OW20602   1.934   3.890  13.352
 6715SOL    HW120603   1.917   3.973  13.298
 6715SOL    HW220604   2.024   3.853  13.330
 6716SOL     OW20605   3.087   4.049  13.483
 6716SOL    HW120606   3.152   3.975  13.472
 6716SOL    HW220607   3.107   4.099  13.567
 6717SOL     OW20608   3.214   3.776  13.202
 6717SOL    HW120609   3.249   3.735  13.118
 6717SOL    HW220610   3.124   3.738  13.222
 6718SOL     OW20611   3.162   4.177  13.725
 6718SOL    HW120612   3.103   4.257  13.729
 6718SOL    HW220613   3.177   4.142  13.818
 6719SOL     OW20614   3.954   0.628   0.113
 6719SOL    HW120615   3.861   0.626   0.150
 6719SOL    HW220616   3.955   0.589   0.021
 6720SOL     OW20617   3.949   0.275   0.996
 6720SOL    HW120618   3.984   0.258   1.088
 6720SOL    HW220619   3.861   0.230   0.984
 6721SOL     OW20620   3.743   0.368   0.647
 6721SOL    HW120621   3.661   0.411   0.686
 6721SOL    HW220622   3.715   0.295   0.584
 6722SOL     OW20623   4.059   1.435   1.061
 6722SOL    HW120624   3.981   1.404   1.008
 6722SOL    HW220625   4.117   1.493   1.004
 6723SOL     OW20626   3.955   1.713   0.483
 6723SOL    HW120627   3.989   1.790   0.537
 6723SOL    HW220628   3.999   1.713   0.393
 6724SOL     OW20629   3.954   1.434   0.538
 6724SOL    HW120630   3.928   1.530   0.538
 6724SOL    HW220631   3.883   1.380   0.583
 6725SOL     OW20632   3.846   0.643   0.563
 6725SOL    HW120633   3.801   0.555   0.580
 6725SOL    HW220634   3.845   0.697   0.647
 6726SOL     OW20635   3.751   1.596   0.117
 6726SOL    HW120636   3.732   1.500   0.138
 6726SOL    HW220637   3.718   1.654   0.192
 6727SOL     OW20638   3.837   0.737   1.597
 6727SOL    HW120639   3.925   0.724   1.642
 6727SOL    HW220640   3.824   0.834   1.575
 6728SOL     OW20641   3.800   0.811   0.789
 6728SOL    HW120642   3.899   0.799   0.798
 6728SOL    HW220643   3.776   0.906   0.810
 6729SOL     OW20644   3.854   1.821   1.571
 6729SOL    HW120645   3.844   1.806   1.670
 6729SOL    HW220646   3.768   1.857   1.535
 6730SOL     OW20647   3.926   0.285   1.498
 6730SOL    HW120648   3.846   0.345   1.485
 6730SOL    HW220649   3.916   0.236   1.584
 6731SOL     OW20650   3.802   0.556   1.386
 6731SOL    HW120651   3.894   0.555   1.345
 6731SOL    HW220652   3.796   0.630   1.453
 6732SOL     OW20653   3.788   1.564   1.331
 6732SOL    HW120654   3.742   1.646   1.297
 6732SOL    HW220655   3.886   1.583   1.340
 6733SOL     OW20656   4.091   1.100   0.501
 6733SOL    HW120657   4.084   1.183   0.445
 6733SOL    HW220658   4.095   1.020   0.441
 6734SOL     OW20659   4.031   0.213   1.231
 6734SOL    HW120660   4.008   0.250   1.321
 6734SOL    HW220661   4.001   0.118   1.225
 6735SOL     OW20662   3.761   1.310   1.282
 6735SOL    HW120663   3.814   1.261   1.350
 6735SOL    HW220664   3.783   1.408   1.287
 6736SOL     OW20665   3.732   1.326   0.200
 6736SOL    HW120666   3.639   1.347   0.169
 6736SOL    HW220667   3.742   1.227   0.213
 6737SOL     OW20668   3.812   1.801   0.927
 6737SOL    HW120669   3.770   1.715   0.900
 6737SOL    HW220670   3.906   1.804   0.893
 6738SOL     OW20671   4.228   1.568   0.910
 6738SOL    HW120672   4.294   1.642   0.919
 6738SOL    HW220673   4.272   1.489   0.868
 6739SOL     OW20674   3.764   0.544   1.114
 6739SOL    HW120675   3.849   0.511   1.073
 6739SOL    HW220676   3.777   0.559   1.212
 6740SOL     OW20677   3.913   0.520   1.722
 6740SOL    HW120678   3.972   0.480   1.652
 6740SOL    HW220679   3.855   0.591   1.681
 6741SOL     OW20680   3.976   1.564   1.744
 6741SOL    HW120681   3.946   1.621   1.820
 6741SOL    HW220682   3.969   1.467   1.770
 6742SOL     OW20683   3.883   1.137   1.466
 6742SOL    HW120684   3.905   1.076   1.542
 6742SOL    HW220685   3.893   1.088   1.380
 6743SOL     OW20686   3.807   1.258   1.022
 6743SOL    HW120687   3.802   1.257   1.122
 6743SOL    HW220688   3.724   1.217   0.984
 6744SOL     OW20689   3.854   1.794   1.851
 6744SOL    HW120690   3.813   1.720   1.904
 6744SOL    HW220691   3.918   1.845   1.909
 6745SOL     OW20692   3.799   0.345   0.033
 6745SOL    HW120693   3.707   0.317   0.004
 6745SOL    HW220694   3.830   0.422  -0.023
 6746SOL     OW20695   3.796   0.166   0.318
 6746SOL    HW120696   3.779   0.249   0.264
 6746SOL    HW220697   3.886   0.129   0.296
 6747SOL     OW20698   3.803   1.240   0.653
 6747SOL    HW120699   3.802   1.193   0.741
 6747SOL    HW220700   3.885   1.212   0.602
 6748SOL     OW20701   3.763   1.077   0.300
 6748SOL    HW120702   3.862   1.066   0.291
 6748SOL    HW220703   3.723   0.991   0.332
 6749SOL     OW20704   3.954   0.628   1.975
 6749SOL    HW120705   3.861   0.626   2.012
 6749SOL    HW220706   3.955   0.589   1.883
 6750SOL     OW20707   3.949   0.275   2.858
 6750SOL    HW120708   3.984   0.258   2.950
 6750SOL    HW220709   3.861   0.230   2.846
 6751SOL     OW20710   3.743   0.368   2.509
 6751SOL    HW120711   3.661   0.411   2.548
 6751SOL    HW220712   3.715   0.295   2.446
 6752SOL     OW20713   4.059   1.435   2.923
 6752SOL    HW120714   3.981   1.404   2.870
 6752SOL    HW220715   4.117   1.493   2.866
 6753SOL     OW20716   3.955   1.713   2.345
 6753SOL    HW120717   3.989   1.790   2.399
 6753SOL    HW220718   3.999   1.713   2.255
 6754SOL     OW20719   3.954   1.434   2.400
 6754SOL    HW120720   3.928   1.530   2.400
 6754SOL    HW220721   3.883   1.380   2.445
 6755SOL     OW20722   3.846   0.643   2.425
 6755SOL    HW120723   3.801   0.555   2.442
 6755SOL    HW220724   3.845   0.697   2.509
 6756SOL     OW20725   3.751   1.596   1.979
 6756SOL    HW120726   3.732   1.500   2.000
 6756SOL    HW220727   3.718   1.654   2.054
 6757SOL     OW20728   3.837   0.737   3.459
 6757SOL    HW120729   3.925   0.724   3.504
 6757SOL    HW220730   3.824   0.834   3.437
 6758SOL     OW20731   3.800   0.811   2.651
 6758SOL    HW120732   3.899   0.799   2.660
 6758SOL    HW220733   3.776   0.906   2.672
 6759SOL     OW20734   3.854   1.821   3.433
 6759SOL    HW120735   3.844   1.806   3.532
 6759SOL    HW220736   3.768   1.857   3.397
 6760SOL     OW20737   3.926   0.285   3.360
 6760SOL    HW120738   3.846   0.345   3.347
 6760SOL    HW220739   3.916   0.236   3.446
 6761SOL     OW20740   3.802   0.556   3.248
 6761SOL    HW120741   3.894   0.555   3.207
 6761SOL    HW220742   3.796   0.630   3.315
 6762SOL     OW20743   4.251   0.256   2.190
 6762SOL    HW120744   4.278   0.197   2.115
 6762SOL    HW220745   4.251   0.351   2.159
 6763SOL     OW20746   3.788   1.564   3.193
 6763SOL    HW120747   3.742   1.646   3.159
 6763SOL    HW220748   3.886   1.583   3.202
 6764SOL     OW20749   4.091   1.100   2.363
 6764SOL    HW120750   4.084   1.183   2.307
 6764SOL    HW220751   4.095   1.020   2.303
 6765SOL     OW20752   4.031   0.213   3.093
 6765SOL    HW120753   4.008   0.250   3.183
 6765SOL    HW220754   4.001   0.118   3.087
 6766SOL     OW20755   3.761   1.310   3.144
 6766SOL    HW120756   3.814   1.261   3.212
 6766SOL    HW220757   3.783   1.408   3.149
 6767SOL     OW20758   3.732   1.326   2.062
 6767SOL    HW120759   3.639   1.347   2.031
 6767SOL    HW220760   3.742   1.227   2.075
 6768SOL     OW20761   3.812   1.801   2.789
 6768SOL    HW120762   3.770   1.715   2.762
 6768SOL    HW220763   3.906   1.804   2.755
 6769SOL     OW20764   4.228   1.568   2.772
 6769SOL    HW120765   4.294   1.642   2.781
 6769SOL    HW220766   4.272   1.489   2.730
 6770SOL     OW20767   3.764   0.544   2.976
 6770SOL    HW120768   3.849   0.511   2.935
 6770SOL    HW220769   3.777   0.559   3.074
 6771SOL     OW20770   3.913   0.520   3.584
 6771SOL    HW120771   3.972   0.480   3.514
 6771SOL    HW220772   3.855   0.591   3.543
 6772SOL     OW20773   3.976   1.564   3.606
 6772SOL    HW120774   3.946   1.621   3.682
 6772SOL    HW220775   3.969   1.467   3.632
 6773SOL     OW20776   3.883   1.137   3.328
 6773SOL    HW120777   3.905   1.076   3.404
 6773SOL    HW220778   3.893   1.088   3.242
 6774SOL     OW20779   3.807   1.258   2.884
 6774SOL    HW120780   3.802   1.257   2.984
 6774SOL    HW220781   3.724   1.217   2.846
 6775SOL     OW20782   3.854   1.794   3.713
 6775SOL    HW120783   3.813   1.720   3.766
 6775SOL    HW220784   3.918   1.845   3.771
 6776SOL     OW20785   3.799   0.345   1.895
 6776SOL    HW120786   3.707   0.317   1.866
 6776SOL    HW220787   3.830   0.422   1.839
 6777SOL     OW20788   3.796   0.166   2.180
 6777SOL    HW120789   3.779   0.249   2.126
 6777SOL    HW220790   3.886   0.129   2.158
 6778SOL     OW20791   3.803   1.240   2.515
 6778SOL    HW120792   3.802   1.193   2.603
 6778SOL    HW220793   3.885   1.212   2.464
 6779SOL     OW20794   3.763   1.077   2.162
 6779SOL    HW120795   3.862   1.066   2.153
 6779SOL    HW220796   3.723   0.991   2.194
 6780SOL     OW20797   3.954   0.628   3.837
 6780SOL    HW120798   3.861   0.626   3.874
 6780SOL    HW220799   3.955   0.589   3.745
 6781SOL     OW20800   3.949   0.275   4.720
 6781SOL    HW120801   3.984   0.258   4.812
 6781SOL    HW220802   3.861   0.230   4.708
 6782SOL     OW20803   3.743   0.368   4.371
 6782SOL    HW120804   3.661   0.411   4.410
 6782SOL    HW220805   3.715   0.295   4.308
 6783SOL     OW20806   4.059   1.435   4.785
 6783SOL    HW120807   3.981   1.404   4.732
 6783SOL    HW220808   4.117   1.493   4.728
 6784SOL     OW20809   3.955   1.713   4.207
 6784SOL    HW120810   3.989   1.790   4.261
 6784SOL    HW220811   3.999   1.713   4.117
 6785SOL     OW20812   3.954   1.434   4.262
 6785SOL    HW120813   3.928   1.530   4.262
 6785SOL    HW220814   3.883   1.380   4.307
 6786SOL     OW20815   3.846   0.643   4.287
 6786SOL    HW120816   3.801   0.555   4.304
 6786SOL    HW220817   3.845   0.697   4.371
 6787SOL     OW20818   3.751   1.596   3.841
 6787SOL    HW120819   3.732   1.500   3.862
 6787SOL    HW220820   3.718   1.654   3.916
 6788SOL     OW20821   3.837   0.737   5.321
 6788SOL    HW120822   3.925   0.724   5.366
 6788SOL    HW220823   3.824   0.834   5.299
 6789SOL     OW20824   3.800   0.811   4.513
 6789SOL    HW120825   3.899   0.799   4.522
 6789SOL    HW220826   3.776   0.906   4.534
 6790SOL     OW20827   3.854   1.821   5.295
 6790SOL    HW120828   3.844   1.806   5.394
 6790SOL    HW220829   3.768   1.857   5.259
 6791SOL     OW20830   3.926   0.285   5.222
 6791SOL    HW120831   3.846   0.345   5.209
 6791SOL    HW220832   3.916   0.236   5.308
 6792SOL     OW20833   3.802   0.556   5.110
 6792SOL    HW120834   3.894   0.555   5.069
 6792SOL    HW220835   3.796   0.630   5.177
 6793SOL     OW20836   4.251   0.256   4.052
 6793SOL    HW120837   4.278   0.197   3.977
 6793SOL    HW220838   4.251   0.351   4.021
 6794SOL     OW20839   3.788   1.564   5.055
 6794SOL    HW120840   3.742   1.646   5.021
 6794SOL    HW220841   3.886   1.583   5.064
 6795SOL     OW20842   4.091   1.100   4.225
 6795SOL    HW120843   4.084   1.183   4.169
 6795SOL    HW220844   4.095   1.020   4.165
 6796SOL     OW20845   4.031   0.213   4.955
 6796SOL    HW120846   4.008   0.250   5.045
 6796SOL    HW220847   4.001   0.118   4.949
 6797SOL     OW20848   3.761   1.310   5.006
 6797SOL    HW120849   3.814   1.261   5.074
 6797SOL    HW220850   3.783   1.408   5.011
 6798SOL     OW20851   3.732   1.326   3.924
 6798SOL    HW120852   3.639   1.347   3.893
 6798SOL    HW220853   3.742   1.227   3.937
 6799SOL     OW20854   3.812   1.801   4.651
 6799SOL    HW120855   3.770   1.715   4.624
 6799SOL    HW220856   3.906   1.804   4.617
 6800SOL     OW20857   4.228   1.568   4.634
 6800SOL    HW120858   4.294   1.642   4.643
 6800SOL    HW220859   4.272   1.489   4.592
 6801SOL     OW20860   3.764   0.544   4.838
 6801SOL    HW120861   3.849   0.511   4.797
 6801SOL    HW220862   3.777   0.559   4.936
 6802SOL     OW20863   3.913   0.520   5.446
 6802SOL    HW120864   3.972   0.480   5.376
 6802SOL    HW220865   3.855   0.591   5.405
 6803SOL     OW20866   3.976   1.564   5.468
 6803SOL    HW120867   3.946   1.621   5.544
 6803SOL    HW220868   3.969   1.467   5.494
 6804SOL     OW20869   3.883   1.137   5.190
 6804SOL    HW120870   3.905   1.076   5.266
 6804SOL    HW220871   3.893   1.088   5.104
 6805SOL     OW20872   3.807   1.258   4.746
 6805SOL    HW120873   3.802   1.257   4.846
 6805SOL    HW220874   3.724   1.217   4.708
 6806SOL     OW20875   3.854   1.794   5.575
 6806SOL    HW120876   3.813   1.720   5.628
 6806SOL    HW220877   3.918   1.845   5.633
 6807SOL     OW20878   3.799   0.345   3.757
 6807SOL    HW120879   3.707   0.317   3.728
 6807SOL    HW220880   3.830   0.422   3.701
 6808SOL     OW20881   3.796   0.166   4.042
 6808SOL    HW120882   3.779   0.249   3.988
 6808SOL    HW220883   3.886   0.129   4.020
 6809SOL     OW20884   3.803   1.240   4.377
 6809SOL    HW120885   3.802   1.193   4.465
 6809SOL    HW220886   3.885   1.212   4.326
 6810SOL     OW20887   3.763   1.077   4.024
 6810SOL    HW120888   3.862   1.066   4.015
 6810SOL    HW220889   3.723   0.991   4.056
 6811SOL     OW20890   3.954   0.628   5.699
 6811SOL    HW120891   3.861   0.626   5.736
 6811SOL    HW220892   3.955   0.589   5.607
 6812SOL     OW20893   3.949   0.275   6.582
 6812SOL    HW120894   3.984   0.258   6.674
 6812SOL    HW220895   3.861   0.230   6.570
 6813SOL     OW20896   3.743   0.368   6.233
 6813SOL    HW120897   3.661   0.411   6.272
 6813SOL    HW220898   3.715   0.295   6.170
 6814SOL     OW20899   4.059   1.435   6.647
 6814SOL    HW120900   3.981   1.404   6.594
 6814SOL    HW220901   4.117   1.493   6.590
 6815SOL     OW20902   3.955   1.713   6.069
 6815SOL    HW120903   3.989   1.790   6.123
 6815SOL    HW220904   3.999   1.713   5.979
 6816SOL     OW20905   3.954   1.434   6.124
 6816SOL    HW120906   3.928   1.530   6.124
 6816SOL    HW220907   3.883   1.380   6.169
 6817SOL     OW20908   3.846   0.643   6.149
 6817SOL    HW120909   3.801   0.555   6.166
 6817SOL    HW220910   3.845   0.697   6.233
 6818SOL     OW20911   3.751   1.596   5.703
 6818SOL    HW120912   3.732   1.500   5.724
 6818SOL    HW220913   3.718   1.654   5.778
 6819SOL     OW20914   3.837   0.737   7.183
 6819SOL    HW120915   3.925   0.724   7.228
 6819SOL    HW220916   3.824   0.834   7.161
 6820SOL     OW20917   3.800   0.811   6.375
 6820SOL    HW120918   3.899   0.799   6.384
 6820SOL    HW220919   3.776   0.906   6.396
 6821SOL     OW20920   3.854   1.821   7.157
 6821SOL    HW120921   3.844   1.806   7.256
 6821SOL    HW220922   3.768   1.857   7.121
 6822SOL     OW20923   3.926   0.285   7.084
 6822SOL    HW120924   3.846   0.345   7.071
 6822SOL    HW220925   3.916   0.236   7.170
 6823SOL     OW20926   3.802   0.556   6.972
 6823SOL    HW120927   3.894   0.555   6.931
 6823SOL    HW220928   3.796   0.630   7.039
 6824SOL     OW20929   4.251   0.256   5.914
 6824SOL    HW120930   4.278   0.197   5.839
 6824SOL    HW220931   4.251   0.351   5.883
 6825SOL     OW20932   3.788   1.564   6.917
 6825SOL    HW120933   3.742   1.646   6.883
 6825SOL    HW220934   3.886   1.583   6.926
 6826SOL     OW20935   4.091   1.100   6.087
 6826SOL    HW120936   4.084   1.183   6.031
 6826SOL    HW220937   4.095   1.020   6.027
 6827SOL     OW20938   4.031   0.213   6.817
 6827SOL    HW120939   4.008   0.250   6.907
 6827SOL    HW220940   4.001   0.118   6.811
 6828SOL     OW20941   3.761   1.310   6.868
 6828SOL    HW120942   3.814   1.261   6.936
 6828SOL    HW220943   3.783   1.408   6.873
 6829SOL     OW20944   3.732   1.326   5.786
 6829SOL    HW120945   3.639   1.347   5.755
 6829SOL    HW220946   3.742   1.227   5.799
 6830SOL     OW20947   3.812   1.801   6.513
 6830SOL    HW120948   3.770   1.715   6.486
 6830SOL    HW220949   3.906   1.804   6.479
 6831SOL     OW20950   4.228   1.568   6.496
 6831SOL    HW120951   4.294   1.642   6.505
 6831SOL    HW220952   4.272   1.489   6.454
 6832SOL     OW20953   3.764   0.544   6.700
 6832SOL    HW120954   3.849   0.511   6.659
 6832SOL    HW220955   3.777   0.559   6.798
 6833SOL     OW20956   3.913   0.520   7.308
 6833SOL    HW120957   3.972   0.480   7.238
 6833SOL    HW220958   3.855   0.591   7.267
 6834SOL     OW20959   3.976   1.564   7.330
 6834SOL    HW120960   3.946   1.621   7.406
 6834SOL    HW220961   3.969   1.467   7.356
 6835SOL     OW20962   3.883   1.137   7.052
 6835SOL    HW120963   3.905   1.076   7.128
 6835SOL    HW220964   3.893   1.088   6.966
 6836SOL     OW20965   3.807   1.258   6.608
 6836SOL    HW120966   3.802   1.257   6.708
 6836SOL    HW220967   3.724   1.217   6.570
 6837SOL     OW20968   3.854   1.794   7.437
 6837SOL    HW120969   3.813   1.720   7.490
 6837SOL    HW220970   3.918   1.845   7.495
 6838SOL     OW20971   3.799   0.345   5.619
 6838SOL    HW120972   3.707   0.317   5.590
 6838SOL    HW220973   3.830   0.422   5.563
 6839SOL     OW20974   3.796   0.166   5.904
 6839SOL    HW120975   3.779   0.249   5.850
 6839SOL    HW220976   3.886   0.129   5.882
 6840SOL     OW20977   3.803   1.240   6.239
 6840SOL    HW120978   3.802   1.193   6.327
 6840SOL    HW220979   3.885   1.212   6.188
 6841SOL     OW20980   3.763   1.077   5.886
 6841SOL    HW120981   3.862   1.066   5.877
 6841SOL    HW220982   3.723   0.991   5.918
 6842SOL     OW20983   3.954   0.628   7.561
 6842SOL    HW120984   3.861   0.626   7.598
 6842SOL    HW220985   3.955   0.589   7.469
 6843SOL     OW20986   3.949   0.275   8.444
 6843SOL    HW120987   3.984   0.258   8.536
 6843SOL    HW220988   3.861   0.230   8.432
 6844SOL     OW20989   3.743   0.368   8.095
 6844SOL    HW120990   3.661   0.411   8.134
 6844SOL    HW220991   3.715   0.295   8.032
 6845SOL     OW20992   4.059   1.435   8.509
 6845SOL    HW120993   3.981   1.404   8.456
 6845SOL    HW220994   4.117   1.493   8.452
 6846SOL     OW20995   3.955   1.713   7.931
 6846SOL    HW120996   3.989   1.790   7.985
 6846SOL    HW220997   3.999   1.713   7.841
 6847SOL     OW20998   3.954   1.434   7.986
 6847SOL    HW120999   3.928   1.530   7.986
 6847SOL    HW221000   3.883   1.380   8.031
 6848SOL     OW21001   3.846   0.643   8.011
 6848SOL    HW121002   3.801   0.555   8.028
 6848SOL    HW221003   3.845   0.697   8.095
 6849SOL     OW21004   3.751   1.596   7.565
 6849SOL    HW121005   3.732   1.500   7.586
 6849SOL    HW221006   3.718   1.654   7.640
 6850SOL     OW21007   3.837   0.737   9.045
 6850SOL    HW121008   3.925   0.724   9.090
 6850SOL    HW221009   3.824   0.834   9.023
 6851SOL     OW21010   3.800   0.811   8.237
 6851SOL    HW121011   3.899   0.799   8.246
 6851SOL    HW221012   3.776   0.906   8.258
 6852SOL     OW21013   3.854   1.821   9.019
 6852SOL    HW121014   3.844   1.806   9.118
 6852SOL    HW221015   3.768   1.857   8.983
 6853SOL     OW21016   3.926   0.285   8.946
 6853SOL    HW121017   3.846   0.345   8.933
 6853SOL    HW221018   3.916   0.236   9.032
 6854SOL     OW21019   3.802   0.556   8.834
 6854SOL    HW121020   3.894   0.555   8.793
 6854SOL    HW221021   3.796   0.630   8.901
 6855SOL     OW21022   4.251   0.256   7.776
 6855SOL    HW121023   4.278   0.197   7.701
 6855SOL    HW221024   4.251   0.351   7.745
 6856SOL     OW21025   3.788   1.564   8.779
 6856SOL    HW121026   3.742   1.646   8.745
 6856SOL    HW221027   3.886   1.583   8.788
 6857SOL     OW21028   4.091   1.100   7.949
 6857SOL    HW121029   4.084   1.183   7.893
 6857SOL    HW221030   4.095   1.020   7.889
 6858SOL     OW21031   4.031   0.213   8.679
 6858SOL    HW121032   4.008   0.250   8.769
 6858SOL    HW221033   4.001   0.118   8.673
 6859SOL     OW21034   3.761   1.310   8.730
 6859SOL    HW121035   3.814   1.261   8.798
 6859SOL    HW221036   3.783   1.408   8.735
 6860SOL     OW21037   3.732   1.326   7.648
 6860SOL    HW121038   3.639   1.347   7.617
 6860SOL    HW221039   3.742   1.227   7.661
 6861SOL     OW21040   3.812   1.801   8.375
 6861SOL    HW121041   3.770   1.715   8.348
 6861SOL    HW221042   3.906   1.804   8.341
 6862SOL     OW21043   4.228   1.568   8.358
 6862SOL    HW121044   4.294   1.642   8.367
 6862SOL    HW221045   4.272   1.489   8.316
 6863SOL     OW21046   3.764   0.544   8.562
 6863SOL    HW121047   3.849   0.511   8.521
 6863SOL    HW221048   3.777   0.559   8.660
 6864SOL     OW21049   3.913   0.520   9.170
 6864SOL    HW121050   3.972   0.480   9.100
 6864SOL    HW221051   3.855   0.591   9.129
 6865SOL     OW21052   3.976   1.564   9.192
 6865SOL    HW121053   3.946   1.621   9.268
 6865SOL    HW221054   3.969   1.467   9.218
 6866SOL     OW21055   3.883   1.137   8.914
 6866SOL    HW121056   3.905   1.076   8.990
 6866SOL    HW221057   3.893   1.088   8.828
 6867SOL     OW21058   3.807   1.258   8.470
 6867SOL    HW121059   3.802   1.257   8.570
 6867SOL    HW221060   3.724   1.217   8.432
 6868SOL     OW21061   3.854   1.794   9.299
 6868SOL    HW121062   3.813   1.720   9.352
 6868SOL    HW221063   3.918   1.845   9.357
 6869SOL     OW21064   3.799   0.345   7.481
 6869SOL    HW121065   3.707   0.317   7.452
 6869SOL    HW221066   3.830   0.422   7.425
 6870SOL     OW21067   3.796   0.166   7.766
 6870SOL    HW121068   3.779   0.249   7.712
 6870SOL    HW221069   3.886   0.129   7.744
 6871SOL     OW21070   3.803   1.240   8.101
 6871SOL    HW121071   3.802   1.193   8.189
 6871SOL    HW221072   3.885   1.212   8.050
 6872SOL     OW21073   3.763   1.077   7.748
 6872SOL    HW121074   3.862   1.066   7.739
 6872SOL    HW221075   3.723   0.991   7.780
 6873SOL     OW21076   3.954   0.628   9.423
 6873SOL    HW121077   3.861   0.626   9.460
 6873SOL    HW221078   3.955   0.589   9.331
 6874SOL     OW21079   3.949   0.275  10.306
 6874SOL    HW121080   3.984   0.258  10.398
 6874SOL    HW221081   3.861   0.230  10.294
 6875SOL     OW21082   3.743   0.368   9.957
 6875SOL    HW121083   3.661   0.411   9.996
 6875SOL    HW221084   3.715   0.295   9.894
 6876SOL     OW21085   4.059   1.435  10.371
 6876SOL    HW121086   3.981   1.404  10.318
 6876SOL    HW221087   4.117   1.493  10.314
 6877SOL     OW21088   3.955   1.713   9.793
 6877SOL    HW121089   3.989   1.790   9.847
 6877SOL    HW221090   3.999   1.713   9.703
 6878SOL     OW21091   3.954   1.434   9.848
 6878SOL    HW121092   3.928   1.530   9.848
 6878SOL    HW221093   3.883   1.380   9.893
 6879SOL     OW21094   3.846   0.643   9.873
 6879SOL    HW121095   3.801   0.555   9.890
 6879SOL    HW221096   3.845   0.697   9.957
 6880SOL     OW21097   3.751   1.596   9.427
 6880SOL    HW121098   3.732   1.500   9.448
 6880SOL    HW221099   3.718   1.654   9.502
 6881SOL     OW21100   3.837   0.737  10.907
 6881SOL    HW121101   3.925   0.724  10.952
 6881SOL    HW221102   3.824   0.834  10.885
 6882SOL     OW21103   3.800   0.811  10.099
 6882SOL    HW121104   3.899   0.799  10.108
 6882SOL    HW221105   3.776   0.906  10.120
 6883SOL     OW21106   3.854   1.821  10.881
 6883SOL    HW121107   3.844   1.806  10.980
 6883SOL    HW221108   3.768   1.857  10.845
 6884SOL     OW21109   3.926   0.285  10.808
 6884SOL    HW121110   3.846   0.345  10.795
 6884SOL    HW221111   3.916   0.236  10.894
 6885SOL     OW21112   3.802   0.556  10.696
 6885SOL    HW121113   3.894   0.555  10.655
 6885SOL    HW221114   3.796   0.630  10.763
 6886SOL     OW21115   4.251   0.256   9.638
 6886SOL    HW121116   4.278   0.197   9.563
 6886SOL    HW221117   4.251   0.351   9.607
 6887SOL     OW21118   3.788   1.564  10.641
 6887SOL    HW121119   3.742   1.646  10.607
 6887SOL    HW221120   3.886   1.583  10.650
 6888SOL     OW21121   4.091   1.100   9.811
 6888SOL    HW121122   4.084   1.183   9.755
 6888SOL    HW221123   4.095   1.020   9.751
 6889SOL     OW21124   4.031   0.213  10.541
 6889SOL    HW121125   4.008   0.250  10.631
 6889SOL    HW221126   4.001   0.118  10.535
 6890SOL     OW21127   3.761   1.310  10.592
 6890SOL    HW121128   3.814   1.261  10.660
 6890SOL    HW221129   3.783   1.408  10.597
 6891SOL     OW21130   3.732   1.326   9.510
 6891SOL    HW121131   3.639   1.347   9.479
 6891SOL    HW221132   3.742   1.227   9.523
 6892SOL     OW21133   3.812   1.801  10.237
 6892SOL    HW121134   3.770   1.715  10.210
 6892SOL    HW221135   3.906   1.804  10.203
 6893SOL     OW21136   4.228   1.568  10.220
 6893SOL    HW121137   4.294   1.642  10.229
 6893SOL    HW221138   4.272   1.489  10.178
 6894SOL     OW21139   3.764   0.544  10.424
 6894SOL    HW121140   3.849   0.511  10.383
 6894SOL    HW221141   3.777   0.559  10.522
 6895SOL     OW21142   3.913   0.520  11.032
 6895SOL    HW121143   3.972   0.480  10.962
 6895SOL    HW221144   3.855   0.591  10.991
 6896SOL     OW21145   3.976   1.564  11.054
 6896SOL    HW121146   3.946   1.621  11.130
 6896SOL    HW221147   3.969   1.467  11.080
 6897SOL     OW21148   3.883   1.137  10.776
 6897SOL    HW121149   3.905   1.076  10.852
 6897SOL    HW221150   3.893   1.088  10.690
 6898SOL     OW21151   3.807   1.258  10.332
 6898SOL    HW121152   3.802   1.257  10.432
 6898SOL    HW221153   3.724   1.217  10.294
 6899SOL     OW21154   3.854   1.794  11.161
 6899SOL    HW121155   3.813   1.720  11.214
 6899SOL    HW221156   3.918   1.845  11.219
 6900SOL     OW21157   3.799   0.345   9.343
 6900SOL    HW121158   3.707   0.317   9.314
 6900SOL    HW221159   3.830   0.422   9.287
 6901SOL     OW21160   3.796   0.166   9.628
 6901SOL    HW121161   3.779   0.249   9.574
 6901SOL    HW221162   3.886   0.129   9.606
 6902SOL     OW21163   3.803   1.240   9.963
 6902SOL    HW121164   3.802   1.193  10.051
 6902SOL    HW221165   3.885   1.212   9.912
 6903SOL     OW21166   3.763   1.077   9.610
 6903SOL    HW121167   3.862   1.066   9.601
 6903SOL    HW221168   3.723   0.991   9.642
 6904SOL     OW21169   3.954   0.628  11.285
 6904SOL    HW121170   3.861   0.626  11.322
 6904SOL    HW221171   3.955   0.589  11.193
 6905SOL     OW21172   3.949   0.275  12.168
 6905SOL    HW121173   3.984   0.258  12.260
 6905SOL    HW221174   3.861   0.230  12.156
 6906SOL     OW21175   3.743   0.368  11.819
 6906SOL    HW121176   3.661   0.411  11.858
 6906SOL    HW221177   3.715   0.295  11.756
 6907SOL     OW21178   4.059   1.435  12.233
 6907SOL    HW121179   3.981   1.404  12.180
 6907SOL    HW221180   4.117   1.493  12.176
 6908SOL     OW21181   3.955   1.713  11.655
 6908SOL    HW121182   3.989   1.790  11.709
 6908SOL    HW221183   3.999   1.713  11.565
 6909SOL     OW21184   3.954   1.434  11.710
 6909SOL    HW121185   3.928   1.530  11.710
 6909SOL    HW221186   3.883   1.380  11.755
 6910SOL     OW21187   3.846   0.643  11.735
 6910SOL    HW121188   3.801   0.555  11.752
 6910SOL    HW221189   3.845   0.697  11.819
 6911SOL     OW21190   3.751   1.596  11.289
 6911SOL    HW121191   3.732   1.500  11.310
 6911SOL    HW221192   3.718   1.654  11.364
 6912SOL     OW21193   3.837   0.737  12.769
 6912SOL    HW121194   3.925   0.724  12.814
 6912SOL    HW221195   3.824   0.834  12.747
 6913SOL     OW21196   3.800   0.811  11.961
 6913SOL    HW121197   3.899   0.799  11.970
 6913SOL    HW221198   3.776   0.906  11.982
 6914SOL     OW21199   3.854   1.821  12.743
 6914SOL    HW121200   3.844   1.806  12.842
 6914SOL    HW221201   3.768   1.857  12.707
 6915SOL     OW21202   3.926   0.285  12.670
 6915SOL    HW121203   3.846   0.345  12.657
 6915SOL    HW221204   3.916   0.236  12.756
 6916SOL     OW21205   3.802   0.556  12.558
 6916SOL    HW121206   3.894   0.555  12.517
 6916SOL    HW221207   3.796   0.630  12.625
 6917SOL     OW21208   4.251   0.256  11.500
 6917SOL    HW121209   4.278   0.197  11.425
 6917SOL    HW221210   4.251   0.351  11.469
 6918SOL     OW21211   3.788   1.564  12.503
 6918SOL    HW121212   3.742   1.646  12.469
 6918SOL    HW221213   3.886   1.583  12.512
 6919SOL     OW21214   4.091   1.100  11.673
 6919SOL    HW121215   4.084   1.183  11.617
 6919SOL    HW221216   4.095   1.020  11.613
 6920SOL     OW21217   4.031   0.213  12.403
 6920SOL    HW121218   4.008   0.250  12.493
 6920SOL    HW221219   4.001   0.118  12.397
 6921SOL     OW21220   3.761   1.310  12.454
 6921SOL    HW121221   3.814   1.261  12.522
 6921SOL    HW221222   3.783   1.408  12.459
 6922SOL     OW21223   3.732   1.326  11.372
 6922SOL    HW121224   3.639   1.347  11.341
 6922SOL    HW221225   3.742   1.227  11.385
 6923SOL     OW21226   3.812   1.801  12.099
 6923SOL    HW121227   3.770   1.715  12.072
 6923SOL    HW221228   3.906   1.804  12.065
 6924SOL     OW21229   4.228   1.568  12.082
 6924SOL    HW121230   4.294   1.642  12.091
 6924SOL    HW221231   4.272   1.489  12.040
 6925SOL     OW21232   3.764   0.544  12.286
 6925SOL    HW121233   3.849   0.511  12.245
 6925SOL    HW221234   3.777   0.559  12.384
 6926SOL     OW21235   3.913   0.520  12.894
 6926SOL    HW121236   3.972   0.480  12.824
 6926SOL    HW221237   3.855   0.591  12.853
 6927SOL     OW21238   3.976   1.564  12.916
 6927SOL    HW121239   3.946   1.621  12.992
 6927SOL    HW221240   3.969   1.467  12.942
 6928SOL     OW21241   3.883   1.137  12.638
 6928SOL    HW121242   3.905   1.076  12.714
 6928SOL    HW221243   3.893   1.088  12.552
 6929SOL     OW21244   3.807   1.258  12.194
 6929SOL    HW121245   3.802   1.257  12.294
 6929SOL    HW221246   3.724   1.217  12.156
 6930SOL     OW21247   3.854   1.794  13.023
 6930SOL    HW121248   3.813   1.720  13.076
 6930SOL    HW221249   3.918   1.845  13.081
 6931SOL     OW21250   3.799   0.345  11.205
 6931SOL    HW121251   3.707   0.317  11.176
 6931SOL    HW221252   3.830   0.422  11.149
 6932SOL     OW21253   3.796   0.166  11.490
 6932SOL    HW121254   3.779   0.249  11.436
 6932SOL    HW221255   3.886   0.129  11.468
 6933SOL     OW21256   3.803   1.240  11.825
 6933SOL    HW121257   3.802   1.193  11.913
 6933SOL    HW221258   3.885   1.212  11.774
 6934SOL     OW21259   3.763   1.077  11.472
 6934SOL    HW121260   3.862   1.066  11.463
 6934SOL    HW221261   3.723   0.991  11.504
 6935SOL     OW21262   3.954   0.628  13.147
 6935SOL    HW121263   3.861   0.626  13.184
 6935SOL    HW221264   3.955   0.589  13.055
 6936SOL     OW21265   3.743   0.368  13.681
 6936SOL    HW121266   3.661   0.411  13.720
 6936SOL    HW221267   3.715   0.295  13.618
 6937SOL     OW21268   3.955   1.713  13.517
 6937SOL    HW121269   3.989   1.790  13.571
 6937SOL    HW221270   3.999   1.713  13.427
 6938SOL     OW21271   3.954   1.434  13.572
 6938SOL    HW121272   3.928   1.530  13.572
 6938SOL    HW221273   3.883   1.380  13.617
 6939SOL     OW21274   3.964   1.091  13.920
 6939SOL    HW121275   3.978   1.007  13.972
 6939SOL    HW221276   3.909   1.155  13.975
 6940SOL     OW21277   3.846   0.643  13.597
 6940SOL    HW121278   3.801   0.555  13.614
 6940SOL    HW221279   3.845   0.697  13.681
 6941SOL     OW21280   3.751   1.596  13.151
 6941SOL    HW121281   3.732   1.500  13.172
 6941SOL    HW221282   3.718   1.654  13.226
 6942SOL     OW21283   3.800   0.811  13.823
 6942SOL    HW121284   3.899   0.799  13.832
 6942SOL    HW221285   3.776   0.906  13.844
 6943SOL     OW21286   4.075   1.801  13.887
 6943SOL    HW121287   4.125   1.715  13.893
 6943SOL    HW221288   4.140   1.878  13.884
 6944SOL     OW21289   4.251   0.256  13.362
 6944SOL    HW121290   4.278   0.197  13.287
 6944SOL    HW221291   4.251   0.351  13.331
 6945SOL     OW21292   4.091   1.100  13.535
 6945SOL    HW121293   4.084   1.183  13.479
 6945SOL    HW221294   4.095   1.020  13.475
 6946SOL     OW21295   3.732   1.326  13.234
 6946SOL    HW121296   3.639   1.347  13.203
 6946SOL    HW221297   3.742   1.227  13.247
 6947SOL     OW21298   4.228   1.568  13.944
 6947SOL    HW121299   4.294   1.642  13.953
 6947SOL    HW221300   4.272   1.489  13.902
 6948SOL     OW21301   3.799   0.345  13.067
 6948SOL    HW121302   3.707   0.317  13.038
 6948SOL    HW221303   3.830   0.422  13.011
 6949SOL     OW21304   3.796   0.166  13.352
 6949SOL    HW121305   3.779   0.249  13.298
 6949SOL    HW221306   3.886   0.129  13.330
 6950SOL     OW21307   3.803   1.240  13.687
 6950SOL    HW121308   3.802   1.193  13.775
 6950SOL    HW221309   3.885   1.212  13.636
 6951SOL     OW21310   3.763   1.077  13.334
 6951SOL    HW121311   3.862   1.066  13.325
 6951SOL    HW221312   3.723   0.991  13.366
 6952SOL     OW21313   3.954   2.490   0.113
 6952SOL    HW121314   3.861   2.488   0.150
 6952SOL    HW221315   3.955   2.451   0.021
 6953SOL     OW21316   3.949   2.137   0.996
 6953SOL    HW121317   3.984   2.120   1.088
 6953SOL    HW221318   3.861   2.092   0.984
 6954SOL     OW21319   3.743   2.230   0.647
 6954SOL    HW121320   3.661   2.273   0.686
 6954SOL    HW221321   3.715   2.157   0.584
 6955SOL     OW21322   4.059   3.297   1.061
 6955SOL    HW121323   3.981   3.266   1.008
 6955SOL    HW221324   4.117   3.355   1.004
 6956SOL     OW21325   3.955   3.575   0.483
 6956SOL    HW121326   3.989   3.652   0.537
 6956SOL    HW221327   3.999   3.575   0.393
 6957SOL     OW21328   3.954   3.296   0.538
 6957SOL    HW121329   3.928   3.392   0.538
 6957SOL    HW221330   3.883   3.242   0.583
 6958SOL     OW21331   3.846   2.505   0.563
 6958SOL    HW121332   3.801   2.417   0.580
 6958SOL    HW221333   3.845   2.559   0.647
 6959SOL     OW21334   3.751   3.458   0.117
 6959SOL    HW121335   3.732   3.362   0.138
 6959SOL    HW221336   3.718   3.516   0.192
 6960SOL     OW21337   3.837   2.599   1.597
 6960SOL    HW121338   3.925   2.586   1.642
 6960SOL    HW221339   3.824   2.696   1.575
 6961SOL     OW21340   3.800   2.673   0.789
 6961SOL    HW121341   3.899   2.661   0.798
 6961SOL    HW221342   3.776   2.768   0.810
 6962SOL     OW21343   3.854   3.683   1.571
 6962SOL    HW121344   3.844   3.668   1.670
 6962SOL    HW221345   3.768   3.719   1.535
 6963SOL     OW21346   3.926   2.147   1.498
 6963SOL    HW121347   3.846   2.207   1.485
 6963SOL    HW221348   3.916   2.098   1.584
 6964SOL     OW21349   3.802   2.418   1.386
 6964SOL    HW121350   3.894   2.417   1.345
 6964SOL    HW221351   3.796   2.492   1.453
 6965SOL     OW21352   3.788   3.426   1.331
 6965SOL    HW121353   3.742   3.508   1.297
 6965SOL    HW221354   3.886   3.445   1.340
 6966SOL     OW21355   4.091   2.962   0.501
 6966SOL    HW121356   4.084   3.045   0.445
 6966SOL    HW221357   4.095   2.882   0.441
 6967SOL     OW21358   4.031   2.075   1.231
 6967SOL    HW121359   4.008   2.112   1.321
 6967SOL    HW221360   4.001   1.980   1.225
 6968SOL     OW21361   3.761   3.172   1.282
 6968SOL    HW121362   3.814   3.123   1.350
 6968SOL    HW221363   3.783   3.270   1.287
 6969SOL     OW21364   4.031   1.925   0.618
 6969SOL    HW121365   4.020   2.019   0.651
 6969SOL    HW221366   4.026   1.862   0.695
 6970SOL     OW21367   3.732   3.188   0.200
 6970SOL    HW121368   3.639   3.209   0.169
 6970SOL    HW221369   3.742   3.089   0.213
 6971SOL     OW21370   3.812   3.663   0.927
 6971SOL    HW121371   3.770   3.577   0.900
 6971SOL    HW221372   3.906   3.666   0.893
 6972SOL     OW21373   4.228   3.430   0.910
 6972SOL    HW121374   4.294   3.504   0.919
 6972SOL    HW221375   4.272   3.351   0.868
 6973SOL     OW21376   3.764   2.406   1.114
 6973SOL    HW121377   3.849   2.373   1.073
 6973SOL    HW221378   3.777   2.421   1.212
 6974SOL     OW21379   3.913   2.382   1.722
 6974SOL    HW121380   3.972   2.342   1.652
 6974SOL    HW221381   3.855   2.453   1.681
 6975SOL     OW21382   3.976   3.426   1.744
 6975SOL    HW121383   3.946   3.483   1.820
 6975SOL    HW221384   3.969   3.329   1.770
 6976SOL     OW21385   3.883   2.999   1.466
 6976SOL    HW121386   3.905   2.938   1.542
 6976SOL    HW221387   3.893   2.950   1.380
 6977SOL     OW21388   3.807   3.120   1.022
 6977SOL    HW121389   3.802   3.119   1.122
 6977SOL    HW221390   3.724   3.079   0.984
 6978SOL     OW21391   3.854   3.656   1.851
 6978SOL    HW121392   3.813   3.582   1.904
 6978SOL    HW221393   3.918   3.707   1.909
 6979SOL     OW21394   3.799   2.207   0.033
 6979SOL    HW121395   3.707   2.179   0.004
 6979SOL    HW221396   3.830   2.284  -0.023
 6980SOL     OW21397   3.796   2.028   0.318
 6980SOL    HW121398   3.779   2.111   0.264
 6980SOL    HW221399   3.886   1.991   0.296
 6981SOL     OW21400   3.803   3.102   0.653
 6981SOL    HW121401   3.802   3.055   0.741
 6981SOL    HW221402   3.885   3.074   0.602
 6982SOL     OW21403   3.763   2.939   0.300
 6982SOL    HW121404   3.862   2.928   0.291
 6982SOL    HW221405   3.723   2.853   0.332
 6983SOL     OW21406   3.954   2.490   1.975
 6983SOL    HW121407   3.861   2.488   2.012
 6983SOL    HW221408   3.955   2.451   1.883
 6984SOL     OW21409   3.949   2.137   2.858
 6984SOL    HW121410   3.984   2.120   2.950
 6984SOL    HW221411   3.861   2.092   2.846
 6985SOL     OW21412   3.743   2.230   2.509
 6985SOL    HW121413   3.661   2.273   2.548
 6985SOL    HW221414   3.715   2.157   2.446
 6986SOL     OW21415   4.059   3.297   2.923
 6986SOL    HW121416   3.981   3.266   2.870
 6986SOL    HW221417   4.117   3.355   2.866
 6987SOL     OW21418   3.955   3.575   2.345
 6987SOL    HW121419   3.989   3.652   2.399
 6987SOL    HW221420   3.999   3.575   2.255
 6988SOL     OW21421   3.954   3.296   2.400
 6988SOL    HW121422   3.928   3.392   2.400
 6988SOL    HW221423   3.883   3.242   2.445
 6989SOL     OW21424   3.846   2.505   2.425
 6989SOL    HW121425   3.801   2.417   2.442
 6989SOL    HW221426   3.845   2.559   2.509
 6990SOL     OW21427   3.751   3.458   1.979
 6990SOL    HW121428   3.732   3.362   2.000
 6990SOL    HW221429   3.718   3.516   2.054
 6991SOL     OW21430   3.837   2.599   3.459
 6991SOL    HW121431   3.925   2.586   3.504
 6991SOL    HW221432   3.824   2.696   3.437
 6992SOL     OW21433   3.800   2.673   2.651
 6992SOL    HW121434   3.899   2.661   2.660
 6992SOL    HW221435   3.776   2.768   2.672
 6993SOL     OW21436   3.854   3.683   3.433
 6993SOL    HW121437   3.844   3.668   3.532
 6993SOL    HW221438   3.768   3.719   3.397
 6994SOL     OW21439   3.926   2.147   3.360
 6994SOL    HW121440   3.846   2.207   3.347
 6994SOL    HW221441   3.916   2.098   3.446
 6995SOL     OW21442   4.021   1.897   2.033
 6995SOL    HW121443   4.070   1.981   2.012
 6995SOL    HW221444   4.083   1.832   2.078
 6996SOL     OW21445   3.802   2.418   3.248
 6996SOL    HW121446   3.894   2.417   3.207
 6996SOL    HW221447   3.796   2.492   3.315
 6997SOL     OW21448   4.251   2.118   2.190
 6997SOL    HW121449   4.278   2.059   2.115
 6997SOL    HW221450   4.251   2.213   2.159
 6998SOL     OW21451   3.788   3.426   3.193
 6998SOL    HW121452   3.742   3.508   3.159
 6998SOL    HW221453   3.886   3.445   3.202
 6999SOL     OW21454   4.091   2.962   2.363
 6999SOL    HW121455   4.084   3.045   2.307
 6999SOL    HW221456   4.095   2.882   2.303
 7000SOL     OW21457   4.031   2.075   3.093
 7000SOL    HW121458   4.008   2.112   3.183
 7000SOL    HW221459   4.001   1.980   3.087
 7001SOL     OW21460   3.761   3.172   3.144
 7001SOL    HW121461   3.814   3.123   3.212
 7001SOL    HW221462   3.783   3.270   3.149
 7002SOL     OW21463   4.031   1.925   2.480
 7002SOL    HW121464   4.020   2.019   2.513
 7002SOL    HW221465   4.026   1.862   2.557
 7003SOL     OW21466   3.732   3.188   2.062
 7003SOL    HW121467   3.639   3.209   2.031
 7003SOL    HW221468   3.742   3.089   2.075
 7004SOL     OW21469   3.812   3.663   2.789
 7004SOL    HW121470   3.770   3.577   2.762
 7004SOL    HW221471   3.906   3.666   2.755
 7005SOL     OW21472   4.228   3.430   2.772
 7005SOL    HW121473   4.294   3.504   2.781
 7005SOL    HW221474   4.272   3.351   2.730
 7006SOL     OW21475   3.764   2.406   2.976
 7006SOL    HW121476   3.849   2.373   2.935
 7006SOL    HW221477   3.777   2.421   3.074
 7007SOL     OW21478   3.913   2.382   3.584
 7007SOL    HW121479   3.972   2.342   3.514
 7007SOL    HW221480   3.855   2.453   3.543
 7008SOL     OW21481   3.976   3.426   3.606
 7008SOL    HW121482   3.946   3.483   3.682
 7008SOL    HW221483   3.969   3.329   3.632
 7009SOL     OW21484   3.883   2.999   3.328
 7009SOL    HW121485   3.905   2.938   3.404
 7009SOL    HW221486   3.893   2.950   3.242
 7010SOL     OW21487   3.807   3.120   2.884
 7010SOL    HW121488   3.802   3.119   2.984
 7010SOL    HW221489   3.724   3.079   2.846
 7011SOL     OW21490   3.854   3.656   3.713
 7011SOL    HW121491   3.813   3.582   3.766
 7011SOL    HW221492   3.918   3.707   3.771
 7012SOL     OW21493   3.799   2.207   1.895
 7012SOL    HW121494   3.707   2.179   1.866
 7012SOL    HW221495   3.830   2.284   1.839
 7013SOL     OW21496   3.796   2.028   2.180
 7013SOL    HW121497   3.779   2.111   2.126
 7013SOL    HW221498   3.886   1.991   2.158
 7014SOL     OW21499   3.803   3.102   2.515
 7014SOL    HW121500   3.802   3.055   2.603
 7014SOL    HW221501   3.885   3.074   2.464
 7015SOL     OW21502   3.763   2.939   2.162
 7015SOL    HW121503   3.862   2.928   2.153
 7015SOL    HW221504   3.723   2.853   2.194
 7016SOL     OW21505   3.954   2.490   3.837
 7016SOL    HW121506   3.861   2.488   3.874
 7016SOL    HW221507   3.955   2.451   3.745
 7017SOL     OW21508   3.949   2.137   4.720
 7017SOL    HW121509   3.984   2.120   4.812
 7017SOL    HW221510   3.861   2.092   4.708
 7018SOL     OW21511   3.743   2.230   4.371
 7018SOL    HW121512   3.661   2.273   4.410
 7018SOL    HW221513   3.715   2.157   4.308
 7019SOL     OW21514   4.059   3.297   4.785
 7019SOL    HW121515   3.981   3.266   4.732
 7019SOL    HW221516   4.117   3.355   4.728
 7020SOL     OW21517   3.955   3.575   4.207
 7020SOL    HW121518   3.989   3.652   4.261
 7020SOL    HW221519   3.999   3.575   4.117
 7021SOL     OW21520   3.954   3.296   4.262
 7021SOL    HW121521   3.928   3.392   4.262
 7021SOL    HW221522   3.883   3.242   4.307
 7022SOL     OW21523   3.846   2.505   4.287
 7022SOL    HW121524   3.801   2.417   4.304
 7022SOL    HW221525   3.845   2.559   4.371
 7023SOL     OW21526   3.751   3.458   3.841
 7023SOL    HW121527   3.732   3.362   3.862
 7023SOL    HW221528   3.718   3.516   3.916
 7024SOL     OW21529   3.837   2.599   5.321
 7024SOL    HW121530   3.925   2.586   5.366
 7024SOL    HW221531   3.824   2.696   5.299
 7025SOL     OW21532   3.800   2.673   4.513
 7025SOL    HW121533   3.899   2.661   4.522
 7025SOL    HW221534   3.776   2.768   4.534
 7026SOL     OW21535   3.854   3.683   5.295
 7026SOL    HW121536   3.844   3.668   5.394
 7026SOL    HW221537   3.768   3.719   5.259
 7027SOL     OW21538   3.926   2.147   5.222
 7027SOL    HW121539   3.846   2.207   5.209
 7027SOL    HW221540   3.916   2.098   5.308
 7028SOL     OW21541   4.021   1.897   3.895
 7028SOL    HW121542   4.070   1.981   3.874
 7028SOL    HW221543   4.083   1.832   3.940
 7029SOL     OW21544   3.802   2.418   5.110
 7029SOL    HW121545   3.894   2.417   5.069
 7029SOL    HW221546   3.796   2.492   5.177
 7030SOL     OW21547   4.251   2.118   4.052
 7030SOL    HW121548   4.278   2.059   3.977
 7030SOL    HW221549   4.251   2.213   4.021
 7031SOL     OW21550   3.788   3.426   5.055
 7031SOL    HW121551   3.742   3.508   5.021
 7031SOL    HW221552   3.886   3.445   5.064
 7032SOL     OW21553   4.091   2.962   4.225
 7032SOL    HW121554   4.084   3.045   4.169
 7032SOL    HW221555   4.095   2.882   4.165
 7033SOL     OW21556   4.031   2.075   4.955
 7033SOL    HW121557   4.008   2.112   5.045
 7033SOL    HW221558   4.001   1.980   4.949
 7034SOL     OW21559   3.761   3.172   5.006
 7034SOL    HW121560   3.814   3.123   5.074
 7034SOL    HW221561   3.783   3.270   5.011
 7035SOL     OW21562   4.031   1.925   4.342
 7035SOL    HW121563   4.020   2.019   4.375
 7035SOL    HW221564   4.026   1.862   4.419
 7036SOL     OW21565   3.732   3.188   3.924
 7036SOL    HW121566   3.639   3.209   3.893
 7036SOL    HW221567   3.742   3.089   3.937
 7037SOL     OW21568   3.812   3.663   4.651
 7037SOL    HW121569   3.770   3.577   4.624
 7037SOL    HW221570   3.906   3.666   4.617
 7038SOL     OW21571   4.228   3.430   4.634
 7038SOL    HW121572   4.294   3.504   4.643
 7038SOL    HW221573   4.272   3.351   4.592
 7039SOL     OW21574   3.764   2.406   4.838
 7039SOL    HW121575   3.849   2.373   4.797
 7039SOL    HW221576   3.777   2.421   4.936
 7040SOL     OW21577   3.913   2.382   5.446
 7040SOL    HW121578   3.972   2.342   5.376
 7040SOL    HW221579   3.855   2.453   5.405
 7041SOL     OW21580   3.976   3.426   5.468
 7041SOL    HW121581   3.946   3.483   5.544
 7041SOL    HW221582   3.969   3.329   5.494
 7042SOL     OW21583   3.883   2.999   5.190
 7042SOL    HW121584   3.905   2.938   5.266
 7042SOL    HW221585   3.893   2.950   5.104
 7043SOL     OW21586   3.807   3.120   4.746
 7043SOL    HW121587   3.802   3.119   4.846
 7043SOL    HW221588   3.724   3.079   4.708
 7044SOL     OW21589   3.854   3.656   5.575
 7044SOL    HW121590   3.813   3.582   5.628
 7044SOL    HW221591   3.918   3.707   5.633
 7045SOL     OW21592   3.799   2.207   3.757
 7045SOL    HW121593   3.707   2.179   3.728
 7045SOL    HW221594   3.830   2.284   3.701
 7046SOL     OW21595   3.796   2.028   4.042
 7046SOL    HW121596   3.779   2.111   3.988
 7046SOL    HW221597   3.886   1.991   4.020
 7047SOL     OW21598   3.803   3.102   4.377
 7047SOL    HW121599   3.802   3.055   4.465
 7047SOL    HW221600   3.885   3.074   4.326
 7048SOL     OW21601   3.763   2.939   4.024
 7048SOL    HW121602   3.862   2.928   4.015
 7048SOL    HW221603   3.723   2.853   4.056
 7049SOL     OW21604   3.954   2.490   5.699
 7049SOL    HW121605   3.861   2.488   5.736
 7049SOL    HW221606   3.955   2.451   5.607
 7050SOL     OW21607   3.949   2.137   6.582
 7050SOL    HW121608   3.984   2.120   6.674
 7050SOL    HW221609   3.861   2.092   6.570
 7051SOL     OW21610   3.743   2.230   6.233
 7051SOL    HW121611   3.661   2.273   6.272
 7051SOL    HW221612   3.715   2.157   6.170
 7052SOL     OW21613   4.059   3.297   6.647
 7052SOL    HW121614   3.981   3.266   6.594
 7052SOL    HW221615   4.117   3.355   6.590
 7053SOL     OW21616   3.955   3.575   6.069
 7053SOL    HW121617   3.989   3.652   6.123
 7053SOL    HW221618   3.999   3.575   5.979
 7054SOL     OW21619   3.954   3.296   6.124
 7054SOL    HW121620   3.928   3.392   6.124
 7054SOL    HW221621   3.883   3.242   6.169
 7055SOL     OW21622   3.846   2.505   6.149
 7055SOL    HW121623   3.801   2.417   6.166
 7055SOL    HW221624   3.845   2.559   6.233
 7056SOL     OW21625   3.751   3.458   5.703
 7056SOL    HW121626   3.732   3.362   5.724
 7056SOL    HW221627   3.718   3.516   5.778
 7057SOL     OW21628   3.837   2.599   7.183
 7057SOL    HW121629   3.925   2.586   7.228
 7057SOL    HW221630   3.824   2.696   7.161
 7058SOL     OW21631   3.800   2.673   6.375
 7058SOL    HW121632   3.899   2.661   6.384
 7058SOL    HW221633   3.776   2.768   6.396
 7059SOL     OW21634   3.854   3.683   7.157
 7059SOL    HW121635   3.844   3.668   7.256
 7059SOL    HW221636   3.768   3.719   7.121
 7060SOL     OW21637   3.926   2.147   7.084
 7060SOL    HW121638   3.846   2.207   7.071
 7060SOL    HW221639   3.916   2.098   7.170
 7061SOL     OW21640   4.021   1.897   5.757
 7061SOL    HW121641   4.070   1.981   5.736
 7061SOL    HW221642   4.083   1.832   5.802
 7062SOL     OW21643   3.802   2.418   6.972
 7062SOL    HW121644   3.894   2.417   6.931
 7062SOL    HW221645   3.796   2.492   7.039
 7063SOL     OW21646   4.251   2.118   5.914
 7063SOL    HW121647   4.278   2.059   5.839
 7063SOL    HW221648   4.251   2.213   5.883
 7064SOL     OW21649   3.788   3.426   6.917
 7064SOL    HW121650   3.742   3.508   6.883
 7064SOL    HW221651   3.886   3.445   6.926
 7065SOL     OW21652   4.091   2.962   6.087
 7065SOL    HW121653   4.084   3.045   6.031
 7065SOL    HW221654   4.095   2.882   6.027
 7066SOL     OW21655   4.031   2.075   6.817
 7066SOL    HW121656   4.008   2.112   6.907
 7066SOL    HW221657   4.001   1.980   6.811
 7067SOL     OW21658   3.761   3.172   6.868
 7067SOL    HW121659   3.814   3.123   6.936
 7067SOL    HW221660   3.783   3.270   6.873
 7068SOL     OW21661   4.031   1.925   6.204
 7068SOL    HW121662   4.020   2.019   6.237
 7068SOL    HW221663   4.026   1.862   6.281
 7069SOL     OW21664   3.732   3.188   5.786
 7069SOL    HW121665   3.639   3.209   5.755
 7069SOL    HW221666   3.742   3.089   5.799
 7070SOL     OW21667   3.812   3.663   6.513
 7070SOL    HW121668   3.770   3.577   6.486
 7070SOL    HW221669   3.906   3.666   6.479
 7071SOL     OW21670   4.228   3.430   6.496
 7071SOL    HW121671   4.294   3.504   6.505
 7071SOL    HW221672   4.272   3.351   6.454
 7072SOL     OW21673   3.764   2.406   6.700
 7072SOL    HW121674   3.849   2.373   6.659
 7072SOL    HW221675   3.777   2.421   6.798
 7073SOL     OW21676   3.913   2.382   7.308
 7073SOL    HW121677   3.972   2.342   7.238
 7073SOL    HW221678   3.855   2.453   7.267
 7074SOL     OW21679   3.976   3.426   7.330
 7074SOL    HW121680   3.946   3.483   7.406
 7074SOL    HW221681   3.969   3.329   7.356
 7075SOL     OW21682   3.883   2.999   7.052
 7075SOL    HW121683   3.905   2.938   7.128
 7075SOL    HW221684   3.893   2.950   6.966
 7076SOL     OW21685   3.807   3.120   6.608
 7076SOL    HW121686   3.802   3.119   6.708
 7076SOL    HW221687   3.724   3.079   6.570
 7077SOL     OW21688   3.854   3.656   7.437
 7077SOL    HW121689   3.813   3.582   7.490
 7077SOL    HW221690   3.918   3.707   7.495
 7078SOL     OW21691   3.799   2.207   5.619
 7078SOL    HW121692   3.707   2.179   5.590
 7078SOL    HW221693   3.830   2.284   5.563
 7079SOL     OW21694   3.796   2.028   5.904
 7079SOL    HW121695   3.779   2.111   5.850
 7079SOL    HW221696   3.886   1.991   5.882
 7080SOL     OW21697   3.803   3.102   6.239
 7080SOL    HW121698   3.802   3.055   6.327
 7080SOL    HW221699   3.885   3.074   6.188
 7081SOL     OW21700   3.763   2.939   5.886
 7081SOL    HW121701   3.862   2.928   5.877
 7081SOL    HW221702   3.723   2.853   5.918
 7082SOL     OW21703   3.954   2.490   7.561
 7082SOL    HW121704   3.861   2.488   7.598
 7082SOL    HW221705   3.955   2.451   7.469
 7083SOL     OW21706   3.949   2.137   8.444
 7083SOL    HW121707   3.984   2.120   8.536
 7083SOL    HW221708   3.861   2.092   8.432
 7084SOL     OW21709   3.743   2.230   8.095
 7084SOL    HW121710   3.661   2.273   8.134
 7084SOL    HW221711   3.715   2.157   8.032
 7085SOL     OW21712   4.059   3.297   8.509
 7085SOL    HW121713   3.981   3.266   8.456
 7085SOL    HW221714   4.117   3.355   8.452
 7086SOL     OW21715   3.955   3.575   7.931
 7086SOL    HW121716   3.989   3.652   7.985
 7086SOL    HW221717   3.999   3.575   7.841
 7087SOL     OW21718   3.954   3.296   7.986
 7087SOL    HW121719   3.928   3.392   7.986
 7087SOL    HW221720   3.883   3.242   8.031
 7088SOL     OW21721   3.846   2.505   8.011
 7088SOL    HW121722   3.801   2.417   8.028
 7088SOL    HW221723   3.845   2.559   8.095
 7089SOL     OW21724   3.751   3.458   7.565
 7089SOL    HW121725   3.732   3.362   7.586
 7089SOL    HW221726   3.718   3.516   7.640
 7090SOL     OW21727   3.837   2.599   9.045
 7090SOL    HW121728   3.925   2.586   9.090
 7090SOL    HW221729   3.824   2.696   9.023
 7091SOL     OW21730   3.800   2.673   8.237
 7091SOL    HW121731   3.899   2.661   8.246
 7091SOL    HW221732   3.776   2.768   8.258
 7092SOL     OW21733   3.854   3.683   9.019
 7092SOL    HW121734   3.844   3.668   9.118
 7092SOL    HW221735   3.768   3.719   8.983
 7093SOL     OW21736   3.926   2.147   8.946
 7093SOL    HW121737   3.846   2.207   8.933
 7093SOL    HW221738   3.916   2.098   9.032
 7094SOL     OW21739   4.021   1.897   7.619
 7094SOL    HW121740   4.070   1.981   7.598
 7094SOL    HW221741   4.083   1.832   7.664
 7095SOL     OW21742   3.802   2.418   8.834
 7095SOL    HW121743   3.894   2.417   8.793
 7095SOL    HW221744   3.796   2.492   8.901
 7096SOL     OW21745   4.251   2.118   7.776
 7096SOL    HW121746   4.278   2.059   7.701
 7096SOL    HW221747   4.251   2.213   7.745
 7097SOL     OW21748   3.788   3.426   8.779
 7097SOL    HW121749   3.742   3.508   8.745
 7097SOL    HW221750   3.886   3.445   8.788
 7098SOL     OW21751   4.091   2.962   7.949
 7098SOL    HW121752   4.084   3.045   7.893
 7098SOL    HW221753   4.095   2.882   7.889
 7099SOL     OW21754   4.031   2.075   8.679
 7099SOL    HW121755   4.008   2.112   8.769
 7099SOL    HW221756   4.001   1.980   8.673
 7100SOL     OW21757   3.761   3.172   8.730
 7100SOL    HW121758   3.814   3.123   8.798
 7100SOL    HW221759   3.783   3.270   8.735
 7101SOL     OW21760   4.031   1.925   8.066
 7101SOL    HW121761   4.020   2.019   8.099
 7101SOL    HW221762   4.026   1.862   8.143
 7102SOL     OW21763   3.732   3.188   7.648
 7102SOL    HW121764   3.639   3.209   7.617
 7102SOL    HW221765   3.742   3.089   7.661
 7103SOL     OW21766   3.812   3.663   8.375
 7103SOL    HW121767   3.770   3.577   8.348
 7103SOL    HW221768   3.906   3.666   8.341
 7104SOL     OW21769   4.228   3.430   8.358
 7104SOL    HW121770   4.294   3.504   8.367
 7104SOL    HW221771   4.272   3.351   8.316
 7105SOL     OW21772   3.764   2.406   8.562
 7105SOL    HW121773   3.849   2.373   8.521
 7105SOL    HW221774   3.777   2.421   8.660
 7106SOL     OW21775   3.913   2.382   9.170
 7106SOL    HW121776   3.972   2.342   9.100
 7106SOL    HW221777   3.855   2.453   9.129
 7107SOL     OW21778   3.976   3.426   9.192
 7107SOL    HW121779   3.946   3.483   9.268
 7107SOL    HW221780   3.969   3.329   9.218
 7108SOL     OW21781   3.883   2.999   8.914
 7108SOL    HW121782   3.905   2.938   8.990
 7108SOL    HW221783   3.893   2.950   8.828
 7109SOL     OW21784   3.807   3.120   8.470
 7109SOL    HW121785   3.802   3.119   8.570
 7109SOL    HW221786   3.724   3.079   8.432
 7110SOL     OW21787   3.854   3.656   9.299
 7110SOL    HW121788   3.813   3.582   9.352
 7110SOL    HW221789   3.918   3.707   9.357
 7111SOL     OW21790   3.799   2.207   7.481
 7111SOL    HW121791   3.707   2.179   7.452
 7111SOL    HW221792   3.830   2.284   7.425
 7112SOL     OW21793   3.796   2.028   7.766
 7112SOL    HW121794   3.779   2.111   7.712
 7112SOL    HW221795   3.886   1.991   7.744
 7113SOL     OW21796   3.803   3.102   8.101
 7113SOL    HW121797   3.802   3.055   8.189
 7113SOL    HW221798   3.885   3.074   8.050
 7114SOL     OW21799   3.763   2.939   7.748
 7114SOL    HW121800   3.862   2.928   7.739
 7114SOL    HW221801   3.723   2.853   7.780
 7115SOL     OW21802   3.954   2.490   9.423
 7115SOL    HW121803   3.861   2.488   9.460
 7115SOL    HW221804   3.955   2.451   9.331
 7116SOL     OW21805   3.949   2.137  10.306
 7116SOL    HW121806   3.984   2.120  10.398
 7116SOL    HW221807   3.861   2.092  10.294
 7117SOL     OW21808   3.743   2.230   9.957
 7117SOL    HW121809   3.661   2.273   9.996
 7117SOL    HW221810   3.715   2.157   9.894
 7118SOL     OW21811   4.059   3.297  10.371
 7118SOL    HW121812   3.981   3.266  10.318
 7118SOL    HW221813   4.117   3.355  10.314
 7119SOL     OW21814   3.955   3.575   9.793
 7119SOL    HW121815   3.989   3.652   9.847
 7119SOL    HW221816   3.999   3.575   9.703
 7120SOL     OW21817   3.954   3.296   9.848
 7120SOL    HW121818   3.928   3.392   9.848
 7120SOL    HW221819   3.883   3.242   9.893
 7121SOL     OW21820   3.846   2.505   9.873
 7121SOL    HW121821   3.801   2.417   9.890
 7121SOL    HW221822   3.845   2.559   9.957
 7122SOL     OW21823   3.751   3.458   9.427
 7122SOL    HW121824   3.732   3.362   9.448
 7122SOL    HW221825   3.718   3.516   9.502
 7123SOL     OW21826   3.837   2.599  10.907
 7123SOL    HW121827   3.925   2.586  10.952
 7123SOL    HW221828   3.824   2.696  10.885
 7124SOL     OW21829   3.800   2.673  10.099
 7124SOL    HW121830   3.899   2.661  10.108
 7124SOL    HW221831   3.776   2.768  10.120
 7125SOL     OW21832   3.854   3.683  10.881
 7125SOL    HW121833   3.844   3.668  10.980
 7125SOL    HW221834   3.768   3.719  10.845
 7126SOL     OW21835   3.926   2.147  10.808
 7126SOL    HW121836   3.846   2.207  10.795
 7126SOL    HW221837   3.916   2.098  10.894
 7127SOL     OW21838   4.021   1.897   9.481
 7127SOL    HW121839   4.070   1.981   9.460
 7127SOL    HW221840   4.083   1.832   9.526
 7128SOL     OW21841   3.802   2.418  10.696
 7128SOL    HW121842   3.894   2.417  10.655
 7128SOL    HW221843   3.796   2.492  10.763
 7129SOL     OW21844   4.251   2.118   9.638
 7129SOL    HW121845   4.278   2.059   9.563
 7129SOL    HW221846   4.251   2.213   9.607
 7130SOL     OW21847   3.788   3.426  10.641
 7130SOL    HW121848   3.742   3.508  10.607
 7130SOL    HW221849   3.886   3.445  10.650
 7131SOL     OW21850   4.091   2.962   9.811
 7131SOL    HW121851   4.084   3.045   9.755
 7131SOL    HW221852   4.095   2.882   9.751
 7132SOL     OW21853   4.031   2.075  10.541
 7132SOL    HW121854   4.008   2.112  10.631
 7132SOL    HW221855   4.001   1.980  10.535
 7133SOL     OW21856   3.761   3.172  10.592
 7133SOL    HW121857   3.814   3.123  10.660
 7133SOL    HW221858   3.783   3.270  10.597
 7134SOL     OW21859   4.031   1.925   9.928
 7134SOL    HW121860   4.020   2.019   9.961
 7134SOL    HW221861   4.026   1.862  10.005
 7135SOL     OW21862   3.732   3.188   9.510
 7135SOL    HW121863   3.639   3.209   9.479
 7135SOL    HW221864   3.742   3.089   9.523
 7136SOL     OW21865   3.812   3.663  10.237
 7136SOL    HW121866   3.770   3.577  10.210
 7136SOL    HW221867   3.906   3.666  10.203
 7137SOL     OW21868   4.228   3.430  10.220
 7137SOL    HW121869   4.294   3.504  10.229
 7137SOL    HW221870   4.272   3.351  10.178
 7138SOL     OW21871   3.764   2.406  10.424
 7138SOL    HW121872   3.849   2.373  10.383
 7138SOL    HW221873   3.777   2.421  10.522
 7139SOL     OW21874   3.913   2.382  11.032
 7139SOL    HW121875   3.972   2.342  10.962
 7139SOL    HW221876   3.855   2.453  10.991
 7140SOL     OW21877   3.976   3.426  11.054
 7140SOL    HW121878   3.946   3.483  11.130
 7140SOL    HW221879   3.969   3.329  11.080
 7141SOL     OW21880   3.883   2.999  10.776
 7141SOL    HW121881   3.905   2.938  10.852
 7141SOL    HW221882   3.893   2.950  10.690
 7142SOL     OW21883   3.807   3.120  10.332
 7142SOL    HW121884   3.802   3.119  10.432
 7142SOL    HW221885   3.724   3.079  10.294
 7143SOL     OW21886   3.854   3.656  11.161
 7143SOL    HW121887   3.813   3.582  11.214
 7143SOL    HW221888   3.918   3.707  11.219
 7144SOL     OW21889   3.799   2.207   9.343
 7144SOL    HW121890   3.707   2.179   9.314
 7144SOL    HW221891   3.830   2.284   9.287
 7145SOL     OW21892   3.796   2.028   9.628
 7145SOL    HW121893   3.779   2.111   9.574
 7145SOL    HW221894   3.886   1.991   9.606
 7146SOL     OW21895   3.803   3.102   9.963
 7146SOL    HW121896   3.802   3.055  10.051
 7146SOL    HW221897   3.885   3.074   9.912
 7147SOL     OW21898   3.763   2.939   9.610
 7147SOL    HW121899   3.862   2.928   9.601
 7147SOL    HW221900   3.723   2.853   9.642
 7148SOL     OW21901   3.954   2.490  11.285
 7148SOL    HW121902   3.861   2.488  11.322
 7148SOL    HW221903   3.955   2.451  11.193
 7149SOL     OW21904   3.949   2.137  12.168
 7149SOL    HW121905   3.984   2.120  12.260
 7149SOL    HW221906   3.861   2.092  12.156
 7150SOL     OW21907   3.743   2.230  11.819
 7150SOL    HW121908   3.661   2.273  11.858
 7150SOL    HW221909   3.715   2.157  11.756
 7151SOL     OW21910   4.059   3.297  12.233
 7151SOL    HW121911   3.981   3.266  12.180
 7151SOL    HW221912   4.117   3.355  12.176
 7152SOL     OW21913   3.955   3.575  11.655
 7152SOL    HW121914   3.989   3.652  11.709
 7152SOL    HW221915   3.999   3.575  11.565
 7153SOL     OW21916   3.954   3.296  11.710
 7153SOL    HW121917   3.928   3.392  11.710
 7153SOL    HW221918   3.883   3.242  11.755
 7154SOL     OW21919   3.846   2.505  11.735
 7154SOL    HW121920   3.801   2.417  11.752
 7154SOL    HW221921   3.845   2.559  11.819
 7155SOL     OW21922   3.751   3.458  11.289
 7155SOL    HW121923   3.732   3.362  11.310
 7155SOL    HW221924   3.718   3.516  11.364
 7156SOL     OW21925   3.837   2.599  12.769
 7156SOL    HW121926   3.925   2.586  12.814
 7156SOL    HW221927   3.824   2.696  12.747
 7157SOL     OW21928   3.800   2.673  11.961
 7157SOL    HW121929   3.899   2.661  11.970
 7157SOL    HW221930   3.776   2.768  11.982
 7158SOL     OW21931   3.854   3.683  12.743
 7158SOL    HW121932   3.844   3.668  12.842
 7158SOL    HW221933   3.768   3.719  12.707
 7159SOL     OW21934   3.926   2.147  12.670
 7159SOL    HW121935   3.846   2.207  12.657
 7159SOL    HW221936   3.916   2.098  12.756
 7160SOL     OW21937   4.021   1.897  11.343
 7160SOL    HW121938   4.070   1.981  11.322
 7160SOL    HW221939   4.083   1.832  11.388
 7161SOL     OW21940   3.802   2.418  12.558
 7161SOL    HW121941   3.894   2.417  12.517
 7161SOL    HW221942   3.796   2.492  12.625
 7162SOL     OW21943   4.251   2.118  11.500
 7162SOL    HW121944   4.278   2.059  11.425
 7162SOL    HW221945   4.251   2.213  11.469
 7163SOL     OW21946   3.788   3.426  12.503
 7163SOL    HW121947   3.742   3.508  12.469
 7163SOL    HW221948   3.886   3.445  12.512
 7164SOL     OW21949   4.091   2.962  11.673
 7164SOL    HW121950   4.084   3.045  11.617
 7164SOL    HW221951   4.095   2.882  11.613
 7165SOL     OW21952   4.031   2.075  12.403
 7165SOL    HW121953   4.008   2.112  12.493
 7165SOL    HW221954   4.001   1.980  12.397
 7166SOL     OW21955   3.761   3.172  12.454
 7166SOL    HW121956   3.814   3.123  12.522
 7166SOL    HW221957   3.783   3.270  12.459
 7167SOL     OW21958   4.031   1.925  11.790
 7167SOL    HW121959   4.020   2.019  11.823
 7167SOL    HW221960   4.026   1.862  11.867
 7168SOL     OW21961   3.732   3.188  11.372
 7168SOL    HW121962   3.639   3.209  11.341
 7168SOL    HW221963   3.742   3.089  11.385
 7169SOL     OW21964   3.812   3.663  12.099
 7169SOL    HW121965   3.770   3.577  12.072
 7169SOL    HW221966   3.906   3.666  12.065
 7170SOL     OW21967   4.228   3.430  12.082
 7170SOL    HW121968   4.294   3.504  12.091
 7170SOL    HW221969   4.272   3.351  12.040
 7171SOL     OW21970   3.764   2.406  12.286
 7171SOL    HW121971   3.849   2.373  12.245
 7171SOL    HW221972   3.777   2.421  12.384
 7172SOL     OW21973   3.913   2.382  12.894
 7172SOL    HW121974   3.972   2.342  12.824
 7172SOL    HW221975   3.855   2.453  12.853
 7173SOL     OW21976   3.976   3.426  12.916
 7173SOL    HW121977   3.946   3.483  12.992
 7173SOL    HW221978   3.969   3.329  12.942
 7174SOL     OW21979   3.883   2.999  12.638
 7174SOL    HW121980   3.905   2.938  12.714
 7174SOL    HW221981   3.893   2.950  12.552
 7175SOL     OW21982   3.807   3.120  12.194
 7175SOL    HW121983   3.802   3.119  12.294
 7175SOL    HW221984   3.724   3.079  12.156
 7176SOL     OW21985   3.854   3.656  13.023
 7176SOL    HW121986   3.813   3.582  13.076
 7176SOL    HW221987   3.918   3.707  13.081
 7177SOL     OW21988   3.799   2.207  11.205
 7177SOL    HW121989   3.707   2.179  11.176
 7177SOL    HW221990   3.830   2.284  11.149
 7178SOL     OW21991   3.796   2.028  11.490
 7178SOL    HW121992   3.779   2.111  11.436
 7178SOL    HW221993   3.886   1.991  11.468
 7179SOL     OW21994   3.803   3.102  11.825
 7179SOL    HW121995   3.802   3.055  11.913
 7179SOL    HW221996   3.885   3.074  11.774
 7180SOL     OW21997   3.763   2.939  11.472
 7180SOL    HW121998   3.862   2.928  11.463
 7180SOL    HW221999   3.723   2.853  11.504
 7181SOL     OW22000   3.954   2.490  13.147
 7181SOL    HW122001   3.861   2.488  13.184
 7181SOL    HW222002   3.955   2.451  13.055
 7182SOL     OW22003   3.743   2.230  13.681
 7182SOL    HW122004   3.661   2.273  13.720
 7182SOL    HW222005   3.715   2.157  13.618
 7183SOL     OW22006   3.955   3.575  13.517
 7183SOL    HW122007   3.989   3.652  13.571
 7183SOL    HW222008   3.999   3.575  13.427
 7184SOL     OW22009   3.954   3.296  13.572
 7184SOL    HW122010   3.928   3.392  13.572
 7184SOL    HW222011   3.883   3.242  13.617
 7185SOL     OW22012   3.964   2.953  13.920
 7185SOL    HW122013   3.978   2.869  13.972
 7185SOL    HW222014   3.909   3.017  13.975
 7186SOL     OW22015   3.846   2.505  13.597
 7186SOL    HW122016   3.801   2.417  13.614
 7186SOL    HW222017   3.845   2.559  13.681
 7187SOL     OW22018   3.751   3.458  13.151
 7187SOL    HW122019   3.732   3.362  13.172
 7187SOL    HW222020   3.718   3.516  13.226
 7188SOL     OW22021   3.800   2.673  13.823
 7188SOL    HW122022   3.899   2.661  13.832
 7188SOL    HW222023   3.776   2.768  13.844
 7189SOL     OW22024   4.075   3.663  13.887
 7189SOL    HW122025   4.125   3.577  13.893
 7189SOL    HW222026   4.140   3.740  13.884
 7190SOL     OW22027   4.021   1.897  13.205
 7190SOL    HW122028   4.070   1.981  13.184
 7190SOL    HW222029   4.083   1.832  13.250
 7191SOL     OW22030   4.251   2.118  13.362
 7191SOL    HW122031   4.278   2.059  13.287
 7191SOL    HW222032   4.251   2.213  13.331
 7192SOL     OW22033   4.091   2.962  13.535
 7192SOL    HW122034   4.084   3.045  13.479
 7192SOL    HW222035   4.095   2.882  13.475
 7193SOL     OW22036   4.031   1.925  13.652
 7193SOL    HW122037   4.020   2.019  13.685
 7193SOL    HW222038   4.026   1.862  13.729
 7194SOL     OW22039   3.732   3.188  13.234
 7194SOL    HW122040   3.639   3.209  13.203
 7194SOL    HW222041   3.742   3.089  13.247
 7195SOL     OW22042   4.228   3.430  13.944
 7195SOL    HW122043   4.294   3.504  13.953
 7195SOL    HW222044   4.272   3.351  13.902
 7196SOL     OW22045   3.799   2.207  13.067
 7196SOL    HW122046   3.707   2.179  13.038
 7196SOL    HW222047   3.830   2.284  13.011
 7197SOL     OW22048   3.796   2.028  13.352
 7197SOL    HW122049   3.779   2.111  13.298
 7197SOL    HW222050   3.886   1.991  13.330
 7198SOL     OW22051   3.803   3.102  13.687
 7198SOL    HW122052   3.802   3.055  13.775
 7198SOL    HW222053   3.885   3.074  13.636
 7199SOL     OW22054   3.763   2.939  13.334
 7199SOL    HW122055   3.862   2.928  13.325
 7199SOL    HW222056   3.723   2.853  13.366
 7200SOL     OW22057   3.949   3.999   0.996
 7200SOL    HW122058   3.984   3.982   1.088
 7200SOL    HW222059   3.861   3.954   0.984
 7201SOL     OW22060   3.743   4.092   0.647
 7201SOL    HW122061   3.661   4.135   0.686
 7201SOL    HW222062   3.715   4.019   0.584
 7202SOL     OW22063   3.926   4.009   1.498
 7202SOL    HW122064   3.846   4.069   1.485
 7202SOL    HW222065   3.916   3.960   1.584
 7203SOL     OW22066   4.021   3.759   0.171
 7203SOL    HW122067   4.070   3.843   0.150
 7203SOL    HW222068   4.083   3.694   0.216
 7204SOL     OW22069   4.031   3.937   1.231
 7204SOL    HW122070   4.008   3.974   1.321
 7204SOL    HW222071   4.001   3.842   1.225
 7205SOL     OW22072   4.031   3.787   0.618
 7205SOL    HW122073   4.020   3.881   0.651
 7205SOL    HW222074   4.026   3.724   0.695
 7206SOL     OW22075   3.796   3.890   0.318
 7206SOL    HW122076   3.779   3.973   0.264
 7206SOL    HW222077   3.886   3.853   0.296
 7207SOL     OW22078   3.949   3.999   2.858
 7207SOL    HW122079   3.984   3.982   2.950
 7207SOL    HW222080   3.861   3.954   2.846
 7208SOL     OW22081   3.743   4.092   2.509
 7208SOL    HW122082   3.661   4.135   2.548
 7208SOL    HW222083   3.715   4.019   2.446
 7209SOL     OW22084   3.926   4.009   3.360
 7209SOL    HW122085   3.846   4.069   3.347
 7209SOL    HW222086   3.916   3.960   3.446
 7210SOL     OW22087   4.021   3.759   2.033
 7210SOL    HW122088   4.070   3.843   2.012
 7210SOL    HW222089   4.083   3.694   2.078
 7211SOL     OW22090   4.031   3.937   3.093
 7211SOL    HW122091   4.008   3.974   3.183
 7211SOL    HW222092   4.001   3.842   3.087
 7212SOL     OW22093   4.031   3.787   2.480
 7212SOL    HW122094   4.020   3.881   2.513
 7212SOL    HW222095   4.026   3.724   2.557
 7213SOL     OW22096   3.799   4.069   1.895
 7213SOL    HW122097   3.707   4.041   1.866
 7213SOL    HW222098   3.830   4.146   1.839
 7214SOL     OW22099   3.796   3.890   2.180
 7214SOL    HW122100   3.779   3.973   2.126
 7214SOL    HW222101   3.886   3.853   2.158
 7215SOL     OW22102   3.949   3.999   4.720
 7215SOL    HW122103   3.984   3.982   4.812
 7215SOL    HW222104   3.861   3.954   4.708
 7216SOL     OW22105   3.743   4.092   4.371
 7216SOL    HW122106   3.661   4.135   4.410
 7216SOL    HW222107   3.715   4.019   4.308
 7217SOL     OW22108   3.926   4.009   5.222
 7217SOL    HW122109   3.846   4.069   5.209
 7217SOL    HW222110   3.916   3.960   5.308
 7218SOL     OW22111   4.021   3.759   3.895
 7218SOL    HW122112   4.070   3.843   3.874
 7218SOL    HW222113   4.083   3.694   3.940
 7219SOL     OW22114   4.031   3.937   4.955
 7219SOL    HW122115   4.008   3.974   5.045
 7219SOL    HW222116   4.001   3.842   4.949
 7220SOL     OW22117   4.031   3.787   4.342
 7220SOL    HW122118   4.020   3.881   4.375
 7220SOL    HW222119   4.026   3.724   4.419
 7221SOL     OW22120   3.799   4.069   3.757
 7221SOL    HW122121   3.707   4.041   3.728
 7221SOL    HW222122   3.830   4.146   3.701
 7222SOL     OW22123   3.796   3.890   4.042
 7222SOL    HW122124   3.779   3.973   3.988
 7222SOL    HW222125   3.886   3.853   4.020
 7223SOL     OW22126   3.949   3.999   6.582
 7223SOL    HW122127   3.984   3.982   6.674
 7223SOL    HW222128   3.861   3.954   6.570
 7224SOL     OW22129   3.743   4.092   6.233
 7224SOL    HW122130   3.661   4.135   6.272
 7224SOL    HW222131   3.715   4.019   6.170
 7225SOL     OW22132   3.926   4.009   7.084
 7225SOL    HW122133   3.846   4.069   7.071
 7225SOL    HW222134   3.916   3.960   7.170
 7226SOL     OW22135   4.021   3.759   5.757
 7226SOL    HW122136   4.070   3.843   5.736
 7226SOL    HW222137   4.083   3.694   5.802
 7227SOL     OW22138   4.031   3.937   6.817
 7227SOL    HW122139   4.008   3.974   6.907
 7227SOL    HW222140   4.001   3.842   6.811
 7228SOL     OW22141   4.031   3.787   6.204
 7228SOL    HW122142   4.020   3.881   6.237
 7228SOL    HW222143   4.026   3.724   6.281
 7229SOL     OW22144   3.799   4.069   5.619
 7229SOL    HW122145   3.707   4.041   5.590
 7229SOL    HW222146   3.830   4.146   5.563
 7230SOL     OW22147   3.796   3.890   5.904
 7230SOL    HW122148   3.779   3.973   5.850
 7230SOL    HW222149   3.886   3.853   5.882
 7231SOL     OW22150   3.949   3.999   8.444
 7231SOL    HW122151   3.984   3.982   8.536
 7231SOL    HW222152   3.861   3.954   8.432
 7232SOL     OW22153   3.743   4.092   8.095
 7232SOL    HW122154   3.661   4.135   8.134
 7232SOL    HW222155   3.715   4.019   8.032
 7233SOL     OW22156   3.926   4.009   8.946
 7233SOL    HW122157   3.846   4.069   8.933
 7233SOL    HW222158   3.916   3.960   9.032
 7234SOL     OW22159   4.021   3.759   7.619
 7234SOL    HW122160   4.070   3.843   7.598
 7234SOL    HW222161   4.083   3.694   7.664
 7235SOL     OW22162   4.031   3.937   8.679
 7235SOL    HW122163   4.008   3.974   8.769
 7235SOL    HW222164   4.001   3.842   8.673
 7236SOL     OW22165   4.031   3.787   8.066
 7236SOL    HW122166   4.020   3.881   8.099
 7236SOL    HW222167   4.026   3.724   8.143
 7237SOL     OW22168   3.799   4.069   7.481
 7237SOL    HW122169   3.707   4.041   7.452
 7237SOL    HW222170   3.830   4.146   7.425
 7238SOL     OW22171   3.796   3.890   7.766
 7238SOL    HW122172   3.779   3.973   7.712
 7238SOL    HW222173   3.886   3.853   7.744
 7239SOL     OW22174   3.949   3.999  10.306
 7239SOL    HW122175   3.984   3.982  10.398
 7239SOL    HW222176   3.861   3.954  10.294
 7240SOL     OW22177   3.743   4.092   9.957
 7240SOL    HW122178   3.661   4.135   9.996
 7240SOL    HW222179   3.715   4.019   9.894
 7241SOL     OW22180   3.926   4.009  10.808
 7241SOL    HW122181   3.846   4.069  10.795
 7241SOL    HW222182   3.916   3.960  10.894
 7242SOL     OW22183   4.021   3.759   9.481
 7242SOL    HW122184   4.070   3.843   9.460
 7242SOL    HW222185   4.083   3.694   9.526
 7243SOL     OW22186   4.031   3.937  10.541
 7243SOL    HW122187   4.008   3.974  10.631
 7243SOL    HW222188   4.001   3.842  10.535
 7244SOL     OW22189   4.031   3.787   9.928
 7244SOL    HW122190   4.020   3.881   9.961
 7244SOL    HW222191   4.026   3.724  10.005
 7245SOL     OW22192   3.799   4.069   9.343
 7245SOL    HW122193   3.707   4.041   9.314
 7245SOL    HW222194   3.830   4.146   9.287
 7246SOL     OW22195   3.796   3.890   9.628
 7246SOL    HW122196   3.779   3.973   9.574
 7246SOL    HW222197   3.886   3.853   9.606
 7247SOL     OW22198   3.949   3.999  12.168
 7247SOL    HW122199   3.984   3.982  12.260
 7247SOL    HW222200   3.861   3.954  12.156
 7248SOL     OW22201   3.743   4.092  11.819
 7248SOL    HW122202   3.661   4.135  11.858
 7248SOL    HW222203   3.715   4.019  11.756
 7249SOL     OW22204   3.926   4.009  12.670
 7249SOL    HW122205   3.846   4.069  12.657
 7249SOL    HW222206   3.916   3.960  12.756
 7250SOL     OW22207   4.021   3.759  11.343
 7250SOL    HW122208   4.070   3.843  11.322
 7250SOL    HW222209   4.083   3.694  11.388
 7251SOL     OW22210   4.031   3.937  12.403
 7251SOL    HW122211   4.008   3.974  12.493
 7251SOL    HW222212   4.001   3.842  12.397
 7252SOL     OW22213   4.031   3.787  11.790
 7252SOL    HW122214   4.020   3.881  11.823
 7252SOL    HW222215   4.026   3.724  11.867
 7253SOL     OW22216   3.799   4.069  11.205
 7253SOL    HW122217   3.707   4.041  11.176
 7253SOL    HW222218   3.830   4.146  11.149
 7254SOL     OW22219   3.796   3.890  11.490
 7254SOL    HW122220   3.779   3.973  11.436
 7254SOL    HW222221   3.886   3.853  11.468
 7255SOL     OW22222   3.743   4.092  13.681
 7255SOL    HW122223   3.661   4.135  13.720
 7255SOL    HW222224   3.715   4.019  13.618
 7256SOL     OW22225   4.021   3.759  13.205
 7256SOL    HW122226   4.070   3.843  13.184
 7256SOL    HW222227   4.083   3.694  13.250
 7257SOL     OW22228   4.031   3.787  13.652
 7257SOL    HW122229   4.020   3.881  13.685
 7257SOL    HW222230   4.026   3.724  13.729
 7258SOL     OW22231   3.799   4.069  13.067
 7258SOL    HW122232   3.707   4.041  13.038
 7258SOL    HW222233   3.830   4.146  13.011
 7259SOL     OW22234   3.796   3.890  13.352
 7259SOL    HW122235   3.779   3.973  13.298
 7259SOL    HW222236   3.886   3.853  13.330
   4.00000   4.00000  13.90000
