2aCDOH_1PEG_l11
21954
    1LIG      O    1   2.203   2.262   0.027
    1LIG      C    2   2.286   2.289   0.145
    1LIG     C1    3   2.212   2.245   0.278
    1LIG     O1    4   2.279   2.290   0.400
    1LIG     C2    5   2.218   2.237   0.522
    1LIG     C3    6   2.292   2.284   0.653
    1LIG     O2    7   2.234   2.221   0.772
    1LIG     C4    8   2.290   2.271   0.897
    1LIG     C5    9   2.214   2.211   1.022
    1LIG     O3   10   2.281   2.249   1.147
    1LIG     C6   11   2.213   2.207   1.269
    1LIG     C7   12   2.285   2.267   1.396
    1LIG     O4   13   2.211   2.237   1.519
    1LIG     C8   14   2.286   2.269   1.641
    1LIG     C9   15   2.208   2.225   1.770
    1LIG     O5   16   2.277   2.270   1.891
    1LIG    C10   17   2.224   2.216   2.016
    1LIG    C11   18   2.303   2.270   2.140
    1LIG     O6   19   2.254   2.208   2.264
    1LIG    C12   20   2.298   2.279   2.384
    1LIG    C13   21   2.221   2.228   2.512
    1LIG     O7   22   2.294   2.262   2.633
    1LIG    C14   23   2.220   2.245   2.757
    1LIG    C15   24   2.305   2.298   2.879
    1LIG     O8   25   2.261   2.237   3.004
    1LIG    C16   26   2.314   2.301   3.124
    1LIG    C17   27   2.246   2.239   3.250
    1LIG     O9   28   2.287   2.308   3.372
    1LIG    C18   29   2.226   2.249   3.491
    1LIG    C19   30   2.298   2.296   3.622
    1LIG    O10   31   2.225   2.252   3.740
    1LIG    C20   32   2.291   2.295   3.863
    1LIG    C21   33   2.212   2.244   3.989
    1LIG    O11   34   2.277   2.290   4.111
    1LIG    C22   35   2.218   2.238   4.233
    1LIG    C23   36   2.300   2.289   4.357
    1LIG    O12   37   2.252   2.228   4.481
    1LIG    C24   38   2.312   2.292   4.598
    1LIG    C25   39   2.240   2.244   4.728
    1LIG    O13   40   2.306   2.293   4.848
    1LIG    C26   41   2.238   2.245   4.968
    1LIG    C27   42   2.309   2.294   5.099
    1LIG    O14   43   2.238   2.242   5.214
    1LIG    C28   44   2.291   2.291   5.340
    1LIG    C29   45   2.203   2.239   5.459
    1LIG    O15   46   2.246   2.299   5.584
    1LIG    C30   47   2.205   2.224   5.702
    1LIG    C31   48   2.284   2.274   5.827
    1LIG    O16   49   2.216   2.233   5.948
    1LIG    C32   50   2.290   2.268   6.068
    1LIG    C33   51   2.208   2.227   6.194
    1LIG    O17   52   2.268   2.283   6.314
    1LIG    C34   53   2.197   2.249   6.435
    1LIG    C35   54   2.279   2.296   6.560
    1LIG    O18   55   2.219   2.242   6.681
    1LIG    C36   56   2.279   2.291   6.803
    1LIG    C37   57   2.215   2.220   6.927
    1LIG    O19   58   2.249   2.291   7.049
    1LIG    C38   59   2.204   2.225   7.170
    1LIG    C39   60   2.284   2.278   7.294
    1LIG    O20   61   2.222   2.234   7.418
    1LIG    C40   62   2.291   2.284   7.537
    1LIG    C41   63   2.214   2.238   7.665
    1LIG    O21   64   2.286   2.272   7.786
    1LIG    C42   65   2.211   2.236   7.906
    1LIG    C43   66   2.286   2.285   8.034
    1LIG    O22   67   2.232   2.218   8.152
    1LIG    C44   68   2.283   2.276   8.276
    1LIG    C45   69   2.209   2.217   8.400
    1LIG    O23   70   2.265   2.273   8.523
    1LIG    C46   71   2.210   2.217   8.645
    1LIG    C47   72   2.285   2.277   8.769
    1LIG    O24   73   2.211   2.252   8.893
    1LIG    C48   74   2.290   2.281   9.013
    1LIG    C49   75   2.217   2.234   9.143
    1LIG    O25   76   2.290   2.276   9.262
    1LIG    C50   77   2.230   2.230   9.387
    1LIG    C51   78   2.309   2.282   9.513
    1LIG    O26   79   2.254   2.224   9.636
    1LIG    C52   80   2.295   2.292   9.759
    1LIG    C53   81   2.212   2.240   9.882
    1LIG    O27   82   2.277   2.272  10.009
    1LIG    C54   83   2.208   2.225  10.129
    1LIG    C55   84   2.283   2.275  10.259
    1LIG    O28   85   2.222   2.221  10.382
    1LIG    C56   86   2.273   2.277  10.506
    1LIG    C57   87   2.208   2.207  10.632
    1LIG    O29   88   2.247   2.272  10.757
    1LIG    C58   89   2.186   2.215  10.878
    1LIG    C59   90   2.280   2.233  11.005
    1LIG      H   91   2.308   2.397   0.149
    1LIG     H1   92   2.381   2.236   0.138
    1LIG     H2   93   2.207   2.135   0.280
    1LIG     H3   94   2.109   2.283   0.278
    1LIG     H4   95   2.220   2.128   0.517
    1LIG     H5   96   2.113   2.268   0.526
    1LIG     H6   97   2.283   2.393   0.662
    1LIG     H7   98   2.398   2.259   0.646
    1LIG     H8   99   2.283   2.380   0.900
    1LIG     H9  100   2.397   2.243   0.903
    1LIG    H10  101   2.211   2.102   1.015
    1LIG    H11  102   2.111   2.249   1.023
    1LIG    H12  103   2.213   2.097   1.276
    1LIG    H13  104   2.109   2.241   1.267
    1LIG    H14  105   2.293   2.376   1.386
    1LIG    H15  106   2.386   2.226   1.403
    1LIG    H16  107   2.304   2.377   1.645
    1LIG    H17  108   2.383   2.218   1.639
    1LIG    H18  109   2.200   2.115   1.772
    1LIG    H19  110   2.107   2.267   1.769
    1LIG    H20  111   2.230   2.106   2.014
    1LIG    H21  112   2.119   2.245   2.026
    1LIG    H22  113   2.289   2.379   2.146
    1LIG    H23  114   2.410   2.250   2.129
    1LIG    H24  115   2.280   2.387   2.373
    1LIG    H25  116   2.406   2.264   2.398
    1LIG    H26  117   2.209   2.119   2.507
    1LIG    H27  118   2.121   2.274   2.514
    1LIG    H28  119   2.198   2.138   2.770
    1LIG    H29  120   2.125   2.299   2.751
    1LIG    H30  121   2.294   2.407   2.884
    1LIG    H31  122   2.410   2.274   2.864
    1LIG    H32  123   2.294   2.409   3.121
    1LIG    H33  124   2.423   2.286   3.128
    1LIG    H34  125   2.272   2.133   3.257
    1LIG    H35  126   2.138   2.248   3.238
    1LIG    H36  127   2.232   2.140   3.486
    1LIG    H37  128   2.120   2.279   3.496
    1LIG    H38  129   2.305   2.406   3.622
    1LIG    H39  130   2.399   2.254   3.624
    1LIG    H40  131   2.297   2.404   3.865
    1LIG    H41  132   2.393   2.254   3.865
    1LIG    H42  133   2.211   2.134   3.989
    1LIG    H43  134   2.109   2.280   3.986
    1LIG    H44  135   2.219   2.129   4.230
    1LIG    H45  136   2.113   2.271   4.241
    1LIG    H46  137   2.289   2.397   4.364
    1LIG    H47  138   2.406   2.264   4.344
    1LIG    H48  139   2.302   2.401   4.590
    1LIG    H49  140   2.418   2.267   4.603
    1LIG    H50  141   2.239   2.134   4.730
    1LIG    H51  142   2.136   2.280   4.727
    1LIG    H52  143   2.240   2.136   4.968
    1LIG    H53  144   2.134   2.279   4.968
    1LIG    H54  145   2.308   2.403   5.103
    1LIG    H55  146   2.412   2.259   5.100
    1LIG    H56  147   2.291   2.401   5.340
    1LIG    H57  148   2.394   2.256   5.351
    1LIG    H58  149   2.212   2.130   5.463
    1LIG    H59  150   2.098   2.264   5.440
    1LIG    H60  151   2.223   2.117   5.688
    1LIG    H61  152   2.098   2.239   5.718
    1LIG    H62  153   2.290   2.384   5.824
    1LIG    H63  154   2.386   2.234   5.826
    1LIG    H64  155   2.310   2.375   6.069
    1LIG    H65  156   2.386   2.215   6.067
    1LIG    H66  157   2.205   2.118   6.203
    1LIG    H67  158   2.106   2.264   6.186
    1LIG    H68  159   2.182   2.141   6.440
    1LIG    H69  160   2.098   2.297   6.435
    1LIG    H70  161   2.279   2.405   6.565
    1LIG    H71  162   2.382   2.260   6.553
    1LIG    H72  163   2.262   2.400   6.811
    1LIG    H73  164   2.387   2.273   6.802
    1LIG    H74  165   2.252   2.117   6.933
    1LIG    H75  166   2.106   2.217   6.916
    1LIG    H76  167   2.220   2.116   7.162
    1LIG    H77  168   2.097   2.243   7.184
    1LIG    H78  169   2.287   2.387   7.292
    1LIG    H79  170   2.387   2.240   7.290
    1LIG    H80  171   2.295   2.393   7.534
    1LIG    H81  172   2.393   2.245   7.539
    1LIG    H82  173   2.201   2.129   7.661
    1LIG    H83  174   2.115   2.284   7.667
    1LIG    H84  175   2.200   2.127   7.908
    1LIG    H85  176   2.111   2.281   7.902
    1LIG    H86  177   2.273   2.393   8.044
    1LIG    H87  178   2.393   2.262   8.025
    1LIG    H88  179   2.269   2.385   8.274
    1LIG    H89  180   2.391   2.255   8.284
    1LIG    H90  181   2.220   2.108   8.401
    1LIG    H91  182   2.102   2.242   8.395
    1LIG    H92  183   2.222   2.108   8.645
    1LIG    H93  184   2.103   2.240   8.651
    1LIG    H94  185   2.296   2.386   8.756
    1LIG    H95  186   2.385   2.233   8.776
    1LIG    H96  187   2.310   2.389   9.017
    1LIG    H97  188   2.387   2.230   9.006
    1LIG    H98  189   2.208   2.125   9.142
    1LIG    H99  190   2.116   2.277   9.146
    1LIG   H100  191   2.229   2.121   9.387
    1LIG   H101  192   2.127   2.267   9.393
    1LIG   H102  193   2.301   2.391   9.517
    1LIG   H103  194   2.416   2.255   9.504
    1LIG   H104  195   2.281   2.400   9.748
    1LIG   H105  196   2.402   2.273   9.776
    1LIG   H106  197   2.202   2.131   9.874
    1LIG   H107  198   2.111   2.283   9.879
    1LIG   H108  199   2.205   2.115  10.128
    1LIG   H109  200   2.105   2.262  10.130
    1LIG   H110  201   2.279   2.384  10.263
    1LIG   H111  202   2.388   2.243  10.256
    1LIG   H112  203   2.251   2.385  10.509
    1LIG   H113  204   2.382   2.265  10.510
    1LIG   H114  205   2.238   2.102  10.634
    1LIG   H115  206   2.098   2.210  10.622
    1LIG   H116  207   2.167   2.108  10.863
    1LIG   H117  208   2.090   2.265  10.896
    1LIG   H118  209   2.351   2.314  10.987
    1LIG   H119  210   2.336   2.140  11.020
    2MOL     C1  211   1.690   2.255   5.056
    2MOL     H1  212   1.602   2.320   5.041
    2MOL     O1  213   1.716   2.178   4.938
    2MOL     C2  214   1.837   2.099   4.944
    2MOL     H2  215   1.924   2.161   4.968
    2MOL     C3  216   1.861   2.039   4.804
    2MOL     H3  217   1.765   2.008   4.760
    2MOL     H4  218   1.923   1.950   4.814
    2MOL     O2  219   1.928   2.132   4.718
    2MOL     H5  220   1.975   2.074   4.655
    2MOL     C4  221   1.663   2.162   5.176
    2MOL     H6  222   1.568   2.109   5.159
    2MOL     O3  223   1.654   2.244   5.293
    2MOL     H7  224   1.718   2.316   5.276
    2MOL     C5  225   1.776   2.056   5.192
    2MOL     H8  226   1.864   2.108   5.234
    2MOL     O4  227   1.735   1.952   5.282
    2MOL     H9  228   1.691   1.996   5.359
    2MOL     C6  229   1.821   1.993   5.056
    2MOL    H10  230   1.747   1.919   5.023
    2MOL     O5  231   1.950   1.932   5.078
    2MOL     C7  232   1.968   1.792   5.043
    2MOL    H11  233   1.872   1.743   5.026
    2MOL     O6  234   2.050   1.782   4.924
    2MOL     C8  235   2.180   1.847   4.932
    2MOL    H12  236   2.166   1.953   4.953
    2MOL     C9  237   2.253   1.832   4.796
    2MOL    H13  238   2.272   1.726   4.778
    2MOL    H14  239   2.350   1.883   4.803
    2MOL     O7  240   2.180   1.888   4.687
    2MOL    H15  241   2.244   1.887   4.612
    2MOL    C10  242   2.040   1.722   5.160
    2MOL    H16  243   2.049   1.616   5.134
    2MOL     O8  244   1.959   1.735   5.276
    2MOL    H17  245   1.935   1.830   5.286
    2MOL    C11  246   2.183   1.781   5.181
    2MOL    H18  247   2.171   1.886   5.213
    2MOL     O9  248   2.256   1.708   5.280
    2MOL    H19  249   2.192   1.650   5.329
    2MOL    C12  250   2.261   1.781   5.047
    2MOL    H20  251   2.283   1.678   5.019
    2MOL    O10  252   2.384   1.857   5.066
    2MOL    C13  253   2.510   1.790   5.038
    2MOL    H21  254   2.495   1.683   5.020
    2MOL    O11  255   2.572   1.852   4.922
    2MOL    C14  256   2.600   1.995   4.932
    2MOL    H22  257   2.504   2.049   4.937
    2MOL    C15  258   2.675   2.042   4.803
    2MOL    H23  259   2.677   2.151   4.802
    2MOL    H24  260   2.618   2.010   4.715
    2MOL    O12  261   2.809   1.992   4.797
    2MOL    H25  262   2.817   1.929   4.722
    2MOL    C16  263   2.603   1.807   5.161
    2MOL    H26  264   2.699   1.760   5.139
    2MOL    O13  265   2.543   1.746   5.276
    2MOL    H27  266   2.446   1.747   5.259
    2MOL    C17  267   2.626   1.958   5.188
    2MOL    H28  268   2.529   2.003   5.211
    2MOL    O14  269   2.715   1.978   5.299
    2MOL    H29  270   2.684   1.919   5.372
    2MOL    C18  271   2.681   2.027   5.061
    2MOL    H30  272   2.786   1.997   5.048
    2MOL    O15  273   2.669   2.168   5.086
    2MOL    C19  274   2.789   2.248   5.073
    2MOL    H31  275   2.878   2.185   5.067
    2MOL    O16  276   2.776   2.329   4.953
    2MOL    C20  277   2.658   2.414   4.949
    2MOL    H32  278   2.568   2.351   4.954
    2MOL    C21  279   2.653   2.488   4.813
    2MOL    H33  280   2.563   2.550   4.808
    2MOL    H34  281   2.643   2.413   4.734
    2MOL    O17  282   2.769   2.569   4.791
    2MOL    H35  283   2.812   2.527   4.713
    2MOL    C22  284   2.799   2.339   5.197
    2MOL    H36  285   2.890   2.400   5.189
    2MOL    O18  286   2.804   2.258   5.313
    2MOL    H37  287   2.749   2.179   5.293
    2MOL    C23  288   2.676   2.432   5.206
    2MOL    H38  289   2.588   2.367   5.219
    2MOL    O19  290   2.686   2.521   5.319
    2MOL    H39  291   2.708   2.463   5.396
    2MOL    C24  292   2.656   2.509   5.072
    2MOL    H40  293   2.734   2.585   5.062
    2MOL    O20  294   2.525   2.568   5.082
    2MOL    C25  295   2.511   2.707   5.045
    2MOL    H41  296   2.608   2.753   5.028
    2MOL    O21  297   2.430   2.715   4.925
    2MOL    C26  298   2.301   2.650   4.935
    2MOL    H42  299   2.317   2.546   4.963
    2MOL    C27  300   2.231   2.645   4.796
    2MOL    H43  301   2.180   2.548   4.786
    2MOL    H44  302   2.306   2.650   4.716
    2MOL    O22  303   2.132   2.748   4.778
    2MOL    H45  304   2.053   2.710   4.824
    2MOL    C28  305   2.439   2.781   5.161
    2MOL    H46  306   2.433   2.887   5.136
    2MOL    O23  307   2.511   2.763   5.282
    2MOL    H47  308   2.556   2.675   5.275
    2MOL    C29  309   2.297   2.724   5.181
    2MOL    H48  310   2.308   2.620   5.215
    2MOL    O24  311   2.226   2.800   5.282
    2MOL    H49  312   2.295   2.821   5.349
    2MOL    C30  313   2.220   2.720   5.047
    2MOL    H50  314   2.197   2.823   5.016
    2MOL    O25  315   2.101   2.644   5.071
    2MOL    C31  316   1.975   2.708   5.048
    2MOL    H51  317   1.987   2.817   5.034
    2MOL    O26  318   1.917   2.648   4.929
    2MOL    C32  319   1.894   2.504   4.936
    2MOL    H52  320   1.989   2.451   4.948
    2MOL    C33  321   1.831   2.459   4.801
    2MOL    H53  322   1.760   2.535   4.767
    2MOL    H54  323   1.775   2.366   4.814
    2MOL    O27  324   1.932   2.439   4.702
    2MOL    H55  325   1.938   2.341   4.690
    2MOL    C34  326   1.886   2.683   5.171
    2MOL    H56  327   1.789   2.734   5.158
    2MOL    O28  328   1.951   2.731   5.289
    2MOL    H57  329   2.047   2.717   5.273
    2MOL    C35  330   1.863   2.532   5.188
    2MOL    H58  331   1.961   2.485   5.205
    2MOL    O29  332   1.778   2.505   5.300
    2MOL    H59  333   1.817   2.557   5.374
    2MOL    C36  334   1.805   2.472   5.059
    2MOL    H60  335   1.702   2.508   5.044
    2MOL    O30  336   1.808   2.331   5.085
    3MOL     C1  337   2.807   2.243   6.030
    3MOL     H1  338   2.897   2.305   6.044
    3MOL     O1  339   2.778   2.169   6.151
    3MOL     C2  340   2.656   2.092   6.145
    3MOL     H2  341   2.573   2.156   6.114
    3MOL     C3  342   2.623   2.042   6.289
    3MOL     H3  343   2.715   2.041   6.348
    3MOL     H4  344   2.585   1.939   6.286
    3MOL     O2  345   2.527   2.127   6.351
    3MOL     H5  346   2.448   2.070   6.370
    3MOL     C4  347   2.830   2.145   5.912
    3MOL     H6  348   2.922   2.089   5.931
    3MOL     O3  349   2.841   2.218   5.790
    3MOL     H7  350   2.805   2.307   5.808
    3MOL     C5  351   2.712   2.045   5.900
    3MOL     H8  352   2.626   2.104   5.866
    3MOL     O4  353   2.740   1.941   5.803
    3MOL     H9  354   2.793   1.984   5.730
    3MOL     C6  355   2.673   1.982   6.036
    3MOL    H10  356   2.750   1.910   6.067
    3MOL     O5  357   2.546   1.920   6.014
    3MOL     C7  358   2.530   1.782   6.049
    3MOL    H11  359   2.628   1.735   6.063
    3MOL     O6  360   2.450   1.774   6.169
    3MOL     C8  361   2.321   1.842   6.159
    3MOL    H12  362   2.335   1.947   6.131
    3MOL     C9  363   2.252   1.842   6.298
    3MOL    H13  364   2.241   1.739   6.334
    3MOL    H14  365   2.151   1.883   6.288
    3MOL     O7  366   2.325   1.921   6.392
    3MOL    H15  367   2.388   1.859   6.437
    3MOL    C10  368   2.457   1.710   5.932
    3MOL    H16  369   2.447   1.604   5.957
    3MOL     O8  370   2.534   1.726   5.813
    3MOL    H17  371   2.594   1.803   5.828
    3MOL    C11  372   2.314   1.769   5.914
    3MOL    H18  373   2.324   1.872   5.878
    3MOL     O9  374   2.239   1.693   5.818
    3MOL    H19  375   2.298   1.623   5.780
    3MOL    C12  376   2.237   1.772   6.049
    3MOL    H20  377   2.214   1.670   6.080
    3MOL    O10  378   2.118   1.850   6.027
    3MOL    C13  379   1.991   1.787   6.054
    3MOL    H21  380   2.004   1.681   6.077
    3MOL    O11  381   1.930   1.854   6.167
    3MOL    C14  382   1.904   1.996   6.149
    3MOL    H22  383   2.000   2.047   6.132
    3MOL    C15  384   1.845   2.055   6.280
    3MOL    H23  385   1.852   2.164   6.276
    3MOL    H24  386   1.909   2.022   6.362
    3MOL    O12  387   1.709   2.017   6.305
    3MOL    H25  388   1.655   2.100   6.314
    3MOL    C16  389   1.900   1.800   5.930
    3MOL    H26  390   1.805   1.749   5.950
    3MOL    O13  391   1.964   1.738   5.818
    3MOL    H27  392   2.059   1.729   5.843
    3MOL    C17  393   1.871   1.948   5.898
    3MOL    H28  394   1.967   1.996   5.873
    3MOL    O14  395   1.780   1.964   5.786
    3MOL    H29  396   1.829   1.938   5.705
    3MOL    C18  397   1.816   2.020   6.024
    3MOL    H30  398   1.713   1.987   6.043
    3MOL    O15  399   1.823   2.159   5.990
    3MOL    C19  400   1.706   2.242   6.007
    3MOL    H31  401   1.614   2.182   6.015
    3MOL    O16  402   1.725   2.322   6.126
    3MOL    C20  403   1.845   2.402   6.128
    3MOL    H32  404   1.931   2.337   6.111
    3MOL    C21  405   1.862   2.464   6.268
    3MOL    H33  406   1.962   2.507   6.276
    3MOL    H34  407   1.856   2.383   6.343
    3MOL    O17  408   1.763   2.563   6.298
    3MOL    H35  409   1.810   2.619   6.365
    3MOL    C22  410   1.697   2.334   5.883
    3MOL    H36  411   1.606   2.394   5.888
    3MOL    O18  412   1.694   2.247   5.770
    3MOL    H37  413   1.732   2.163   5.805
    3MOL    C23  414   1.822   2.427   5.875
    3MOL    H38  415   1.909   2.361   5.864
    3MOL    O19  416   1.817   2.519   5.763
    3MOL    H39  417   1.757   2.482   5.695
    3MOL    C24  418   1.841   2.502   6.009
    3MOL    H40  419   1.762   2.576   6.023
    3MOL    O20  420   1.970   2.566   5.996
    3MOL    C25  421   1.987   2.702   6.043
    3MOL    H41  422   1.890   2.749   6.067
    3MOL    O21  423   2.071   2.699   6.161
    3MOL    C26  424   2.198   2.632   6.140
    3MOL    H42  425   2.179   2.530   6.104
    3MOL    C27  426   2.273   2.616   6.275
    3MOL    H43  427   2.349   2.538   6.264
    3MOL    H44  428   2.202   2.582   6.351
    3MOL    O22  429   2.337   2.737   6.317
    3MOL    H45  430   2.430   2.726   6.284
    3MOL    C28  431   2.057   2.783   5.931
    3MOL    H46  432   2.071   2.887   5.966
    3MOL    O23  433   1.977   2.782   5.814
    3MOL    H47  434   1.937   2.692   5.811
    3MOL    C29  435   2.197   2.721   5.901
    3MOL    H48  436   2.180   2.620   5.863
    3MOL    O24  437   2.268   2.798   5.802
    3MOL    H49  438   2.206   2.809   5.726
    3MOL    C30  439   2.278   2.709   6.032
    3MOL    H50  440   2.301   2.810   6.068
    3MOL    O25  441   2.398   2.636   6.000
    3MOL    C31  442   2.522   2.699   6.038
    3MOL    H51  443   2.507   2.806   6.056
    3MOL    O26  444   2.570   2.635   6.159
    3MOL    C32  445   2.602   2.493   6.151
    3MOL    H52  446   2.510   2.436   6.134
    3MOL    C33  447   2.663   2.451   6.288
    3MOL    H53  448   2.722   2.535   6.326
    3MOL    H54  449   2.732   2.368   6.275
    3MOL    O27  450   2.562   2.415   6.383
    3MOL    H55  451   2.536   2.322   6.362
    3MOL    C34  452   2.625   2.684   5.924
    3MOL    H56  453   2.717   2.737   5.952
    3MOL    O28  454   2.570   2.742   5.805
    3MOL    H57  455   2.472   2.740   5.818
    3MOL    C35  456   2.657   2.535   5.900
    3MOL    H58  457   2.565   2.487   5.865
    3MOL    O29  458   2.761   2.516   5.803
    3MOL    H59  459   2.741   2.576   5.726
    3MOL    C36  460   2.699   2.465   6.032
    3MOL    H60  461   2.800   2.497   6.059
    3MOL    O30  462   2.693   2.325   6.000
    4SOL     OW  463   0.240   0.598   0.111
    4SOL    HW1  464   0.165   0.584   0.169
    4SOL    HW2  465   0.201   0.631   0.030
    5SOL     OW  466   0.192   0.299   0.986
    5SOL    HW1  467   0.218   0.263   1.071
    5SOL    HW2  468   0.130   0.235   0.951
    6SOL     OW  469   4.493   0.404   0.638
    6SOL    HW1  470   4.427   0.444   0.695
    6SOL    HW2  471   4.447   0.332   0.595
    7SOL     OW  472   0.570   1.302   1.189
    7SOL    HW1  473   0.484   1.307   1.146
    7SOL    HW2  474   0.586   1.390   1.222
    8SOL     OW  475   1.578   1.517   0.709
    8SOL    HW1  476   1.533   1.492   0.790
    8SOL    HW2  477   1.508   1.520   0.644
    9SOL     OW  478   1.145   0.696   0.687
    9SOL    HW1  479   1.188   0.782   0.683
    9SOL    HW2  480   1.091   0.700   0.766
   10SOL     OW  481   1.784   0.599   0.200
   10SOL    HW1  482   1.717   0.624   0.136
   10SOL    HW2  483   1.746   0.526   0.248
   11SOL     OW  484   0.737   1.134   1.049
   11SOL    HW1  485   0.674   1.173   1.108
   11SOL    HW2  486   0.780   1.208   1.006
   12SOL     OW  487   0.876   0.758   1.824
   12SOL    HW1  488   0.864   0.826   1.890
   12SOL    HW2  489   0.898   0.805   1.744
   13SOL     OW  490   0.683   0.991   0.647
   13SOL    HW1  491   0.751   0.985   0.714
   13SOL    HW2  492   0.617   1.048   0.685
   14SOL     OW  493   0.714   1.148   1.825
   14SOL    HW1  494   0.763   1.224   1.856
   14SOL    HW2  495   0.637   1.185   1.782
   15SOL     OW  496   0.334   1.415   1.065
   15SOL    HW1  497   0.254   1.391   1.019
   15SOL    HW2  498   0.381   1.471   1.004
   16SOL     OW  499   1.458   1.503   1.364
   16SOL    HW1  500   1.512   1.581   1.373
   16SOL    HW2  501   1.389   1.515   1.430
   17SOL     OW  502   0.444   0.382   1.469
   17SOL    HW1  503   0.532   0.346   1.466
   17SOL    HW2  504   0.398   0.328   1.533
   18SOL     OW  505   1.599   0.438   0.740
   18SOL    HW1  506   1.518   0.449   0.689
   18SOL    HW2  507   1.601   0.514   0.797
   19SOL     OW  508   0.245   1.693   0.472
   19SOL    HW1  509   0.235   1.778   0.515
   19SOL    HW2  510   0.317   1.707   0.410
   20SOL     OW  511   1.138   1.343   1.695
   20SOL    HW1  512   1.179   1.335   1.781
   20SOL    HW2  513   1.085   1.263   1.687
   21SOL     OW  514   0.247   1.428   0.527
   21SOL    HW1  515   0.238   1.523   0.526
   21SOL    HW2  516   0.188   1.399   0.597
   22SOL     OW  517   0.261   1.084   0.887
   22SOL    HW1  518   0.274   0.992   0.909
   22SOL    HW2  519   0.200   1.117   0.953
   23SOL     OW  520   0.599   1.795   1.427
   23SOL    HW1  521   0.517   1.778   1.472
   23SOL    HW2  522   0.624   1.884   1.454
   24SOL     OW  523   0.555   0.996   0.166
   24SOL    HW1  524   0.609   1.028   0.094
   24SOL    HW2  525   0.601   1.026   0.245
   25SOL     OW  526   1.569   0.123   1.456
   25SOL    HW1  527   1.618   0.186   1.404
   25SOL    HW2  528   1.563   0.163   1.543
   26SOL     OW  529   0.132   0.649   0.564
   26SOL    HW1  530   0.088   0.569   0.594
   26SOL    HW2  531   0.112   0.714   0.632
   27SOL     OW  532   1.846   1.753   0.320
   27SOL    HW1  533   1.913   1.728   0.383
   27SOL    HW2  534   1.863   1.846   0.301
   28SOL     OW  535   0.081   1.587   0.158
   28SOL    HW1  536   0.050   1.497   0.173
   28SOL    HW2  537   0.090   1.624   0.246
   29SOL     OW  538   1.691   0.921   0.647
   29SOL    HW1  539   1.773   0.877   0.622
   29SOL    HW2  540   1.669   0.974   0.571
   30SOL     OW  541   1.651   1.100   0.432
   30SOL    HW1  542   1.734   1.104   0.384
   30SOL    HW2  543   1.660   1.166   0.501
   31SOL     OW  544   0.091   0.765   1.551
   31SOL    HW1  545   0.176   0.746   1.512
   31SOL    HW2  546   0.101   0.851   1.592
   32SOL     OW  547   0.619   1.395   0.737
   32SOL    HW1  548   0.574   1.310   0.746
   32SOL    HW2  549   0.601   1.421   0.646
   33SOL     OW  550   1.282   1.233   1.420
   33SOL    HW1  551   1.312   1.165   1.359
   33SOL    HW2  552   1.343   1.228   1.493
   34SOL     OW  553   0.836   0.016   0.565
   34SOL    HW1  554   0.876   0.095   0.529
   34SOL    HW2  555   0.742   0.028   0.552
   35SOL     OW  556   0.177   0.945   1.274
   35SOL    HW1  557   0.267   0.920   1.256
   35SOL    HW2  558   0.134   0.943   1.189
   36SOL     OW  559   1.498   1.019   0.212
   36SOL    HW1  560   1.437   0.957   0.251
   36SOL    HW2  561   1.556   1.043   0.284
   37SOL     OW  562   1.182   1.817   1.629
   37SOL    HW1  563   1.187   1.878   1.555
   37SOL    HW2  564   1.201   1.732   1.590
   38SOL     OW  565   0.320   0.265   1.759
   38SOL    HW1  566   0.386   0.311   1.811
   38SOL    HW2  567   0.240   0.272   1.811
   39SOL     OW  568   1.467   1.418   0.942
   39SOL    HW1  569   1.402   1.435   1.010
   39SOL    HW2  570   1.452   1.327   0.917
   40SOL     OW  571   1.654   1.762   0.574
   40SOL    HW1  572   1.631   1.727   0.488
   40SOL    HW2  573   1.638   1.690   0.635
   41SOL     OW  574   0.591   0.710   0.267
   41SOL    HW1  575   0.592   0.798   0.229
   41SOL    HW2  576   0.526   0.715   0.337
   42SOL     OW  577   1.293   0.381   0.930
   42SOL    HW1  578   1.203   0.350   0.915
   42SOL    HW2  579   1.330   0.318   0.991
   43SOL     OW  580   1.581   1.674   0.317
   43SOL    HW1  581   1.673   1.697   0.306
   43SOL    HW2  582   1.551   1.655   0.228
   44SOL     OW  583   0.799   0.616   1.452
   44SOL    HW1  584   0.770   0.586   1.538
   44SOL    HW2  585   0.766   0.550   1.391
   45SOL     OW  586   1.389   0.486   1.676
   45SOL    HW1  587   1.394   0.530   1.761
   45SOL    HW2  588   1.457   0.418   1.680
   46SOL     OW  589   0.948   0.884   1.589
   46SOL    HW1  590   1.004   0.818   1.548
   46SOL    HW2  591   0.901   0.924   1.515
   47SOL     OW  592   1.001   0.418   1.229
   47SOL    HW1  593   0.909   0.423   1.256
   47SOL    HW2  594   1.000   0.362   1.151
   48SOL     OW  595   1.055   0.707   0.424
   48SOL    HW1  596   1.077   0.697   0.517
   48SOL    HW2  597   0.970   0.662   0.415
   49SOL     OW  598   0.093   0.818   0.783
   49SOL    HW1  599   0.175   0.819   0.833
   49SOL    HW2  600   0.024   0.822   0.850
   50SOL     OW  601   0.112   1.879   1.589
   50SOL    HW1  602   0.111   1.852   1.681
   50SOL    HW2  603   0.046   1.823   1.548
   51SOL     OW  604   0.877   0.357   0.220
   51SOL    HW1  605   0.924   0.410   0.155
   51SOL    HW2  606   0.887   0.267   0.189
   52SOL     OW  607   1.697   0.568   1.832
   52SOL    HW1  608   1.666   0.645   1.783
   52SOL    HW2  609   1.730   0.508   1.765
   53SOL     OW  610   1.385   1.143   0.541
   53SOL    HW1  611   1.462   1.132   0.486
   53SOL    HW2  612   1.330   1.205   0.493
   54SOL     OW  613   0.532   0.216   0.898
   54SOL    HW1  614   0.553   0.231   0.990
   54SOL    HW2  615   0.537   0.303   0.858
   55SOL     OW  616   0.993   1.442   0.472
   55SOL    HW1  617   0.967   1.518   0.420
   55SOL    HW2  618   0.967   1.464   0.561
   56SOL     OW  619   0.362   1.821   0.866
   56SOL    HW1  620   0.403   1.735   0.877
   56SOL    HW2  621   0.431   1.884   0.886
   57SOL     OW  622   1.803   1.048   0.875
   57SOL    HW1  623   1.750   1.029   0.797
   57SOL    HW2  624   1.739   1.056   0.945
   58SOL     OW  625   1.224   1.542   1.515
   58SOL    HW1  626   1.213   1.469   1.576
   58SOL    HW2  627   1.157   1.527   1.448
   59SOL     OW  628   0.299   0.944   0.294
   59SOL    HW1  629   0.379   0.969   0.248
   59SOL    HW2  630   0.314   0.854   0.321
   60SOL     OW  631   1.484   0.751   0.716
   60SOL    HW1  632   1.481   0.713   0.803
   60SOL    HW2  633   1.561   0.807   0.717
   61SOL     OW  634   0.473   1.269   1.736
   61SOL    HW1  635   0.447   1.276   1.644
   61SOL    HW2  636   0.391   1.266   1.784
   62SOL     OW  637   1.109   1.786   0.222
   62SOL    HW1  638   1.046   1.738   0.277
   62SOL    HW2  639   1.151   1.719   0.170
   63SOL     OW  640   0.146   0.263   1.519
   63SOL    HW1  641   0.121   0.347   1.479
   63SOL    HW2  642   0.191   0.288   1.600
   64SOL     OW  643   1.628   1.371   0.092
   64SOL    HW1  644   1.586   1.457   0.082
   64SOL    HW2  645   1.563   1.309   0.060
   65SOL     OW  646   0.469   1.742   0.316
   65SOL    HW1  647   0.512   1.799   0.379
   65SOL    HW2  648   0.540   1.707   0.263
   66SOL     OW  649   1.433   0.153   0.430
   66SOL    HW1  650   1.421   0.110   0.345
   66SOL    HW2  651   1.527   0.143   0.448
   67SOL     OW  652   0.241   1.784   1.218
   67SOL    HW1  653   0.289   1.706   1.247
   67SOL    HW2  654   0.201   1.758   1.135
   68SOL     OW  655   0.942   1.701   0.894
   68SOL    HW1  656   1.023   1.654   0.915
   68SOL    HW2  657   0.902   1.649   0.824
   69SOL     OW  658   0.388   0.690   0.461
   69SOL    HW1  659   0.417   0.601   0.479
   69SOL    HW2  660   0.298   0.694   0.493
   70SOL     OW  661   1.523   0.233   1.722
   70SOL    HW1  662   1.522   0.253   1.815
   70SOL    HW2  663   1.441   0.186   1.707
   71SOL     OW  664   0.606   0.100   0.140
   71SOL    HW1  665   0.700   0.080   0.140
   71SOL    HW2  666   0.575   0.067   0.055
   72SOL     OW  667   0.770   0.276   1.757
   72SOL    HW1  668   0.841   0.212   1.746
   72SOL    HW2  669   0.731   0.254   1.842
   73SOL     OW  670   0.875   1.524   1.196
   73SOL    HW1  671   0.857   1.485   1.110
   73SOL    HW2  672   0.944   1.470   1.233
   74SOL     OW  673   1.337   0.591   1.427
   74SOL    HW1  674   1.365   0.564   1.515
   74SOL    HW2  675   1.372   0.680   1.417
   75SOL     OW  676   0.820   1.384   0.951
   75SOL    HW1  677   0.906   1.375   0.909
   75SOL    HW2  678   0.759   1.395   0.879
   76SOL     OW  679   0.931   0.531   0.895
   76SOL    HW1  680   0.910   0.529   0.802
   76SOL    HW2  681   0.958   0.442   0.916
   77SOL     OW  682   0.576   0.080   0.519
   77SOL    HW1  683   0.490   0.061   0.557
   77SOL    HW2  684   0.557   0.141   0.448
   78SOL     OW  685   1.419   1.201   0.021
   78SOL    HW1  686   1.445   1.132   0.082
   78SOL    HW2  687   1.338   1.235   0.058
   79SOL     OW  688   0.307   0.039   0.186
   79SOL    HW1  689   0.393   0.074   0.162
   79SOL    HW2  690   0.323   4.488   0.265
   80SOL     OW  691   0.969   0.230   0.455
   80SOL    HW1  692   0.920   0.283   0.392
   80SOL    HW2  693   1.058   0.263   0.451
   81SOL     OW  694   1.081   0.689   1.453
   81SOL    HW1  695   1.013   0.621   1.452
   81SOL    HW2  696   1.163   0.642   1.443
   82SOL     OW  697   1.214   1.577   0.797
   82SOL    HW1  698   1.230   1.639   0.726
   82SOL    HW2  699   1.286   1.592   0.858
   83SOL     OW  700   0.476   1.157   0.731
   83SOL    HW1  701   0.410   1.136   0.797
   83SOL    HW2  702   0.430   1.149   0.647
   84SOL     OW  703   1.261   1.792   0.611
   84SOL    HW1  704   1.310   1.855   0.558
   84SOL    HW2  705   1.192   1.845   0.652
   85SOL     OW  706   1.020   0.513   0.047
   85SOL    HW1  707   0.981   0.598   0.029
   85SOL    HW2  708   1.091   0.531   0.108
   86SOL     OW  709   0.079   0.497   1.403
   86SOL    HW1  710   0.149   0.511   1.339
   86SOL    HW2  711   0.049   0.586   1.426
   87SOL     OW  712   0.551   0.255   1.169
   87SOL    HW1  713   0.579   0.175   1.213
   87SOL    HW2  714   0.456   0.256   1.181
   88SOL     OW  715   0.860   0.514   0.636
   88SOL    HW1  716   0.833   0.544   0.549
   88SOL    HW2  717   0.812   0.433   0.649
   89SOL     OW  718   0.923   0.005   0.826
   89SOL    HW1  719   0.897   0.013   0.734
   89SOL    HW2  720   0.959   4.417   0.833
   90SOL     OW  721   1.440   1.157   0.856
   90SOL    HW1  722   1.369   1.093   0.858
   90SOL    HW2  723   1.462   1.166   0.763
   91SOL     OW  724   1.464   0.612   0.958
   91SOL    HW1  725   1.405   0.537   0.959
   91SOL    HW2  726   1.517   0.602   1.037
   92SOL     OW  727   1.850   0.805   0.374
   92SOL    HW1  728   1.901   0.756   0.439
   92SOL    HW2  729   1.823   0.739   0.311
   93SOL     OW  730   0.499   1.423   0.171
   93SOL    HW1  731   0.421   1.396   0.219
   93SOL    HW2  732   0.497   1.371   0.091
   94SOL     OW  733   1.684   1.266   0.640
   94SOL    HW1  734   1.778   1.264   0.656
   94SOL    HW2  735   1.657   1.355   0.663
   95SOL     OW  736   1.391   0.562   0.078
   95SOL    HW1  737   1.326   0.552   0.148
   95SOL    HW2  738   1.438   0.479   0.078
   96SOL     OW  739   0.515   0.266   0.327
   96SOL    HW1  740   0.552   0.204   0.264
   96SOL    HW2  741   0.499   0.346   0.276
   97SOL     OW  742   1.746   1.243   1.554
   97SOL    HW1  743   1.834   1.206   1.543
   97SOL    HW2  744   1.762   1.332   1.585
   98SOL     OW  745   1.052   1.354   1.331
   98SOL    HW1  746   0.975   1.322   1.380
   98SOL    HW2  747   1.126   1.311   1.373
   99SOL     OW  748   1.611   1.629   1.660
   99SOL    HW1  749   1.603   1.666   1.572
   99SOL    HW2  750   1.693   1.580   1.658
  100SOL     OW  751   1.139   1.217   1.101
  100SOL    HW1  752   1.078   1.254   1.164
  100SOL    HW2  753   1.111   1.252   1.017
  101SOL     OW  754   1.620   1.094   1.074
  101SOL    HW1  755   1.612   1.158   1.145
  101SOL    HW2  756   1.547   1.113   1.016
  102SOL     OW  757   0.892   0.140   1.378
  102SOL    HW1  758   0.918   0.091   1.300
  102SOL    HW2  759   0.975   0.165   1.419
  103SOL     OW  760   0.984   1.116   1.724
  103SOL    HW1  761   0.893   1.132   1.750
  103SOL    HW2  762   0.980   1.036   1.671
  104SOL     OW  763   0.713   1.058   0.379
  104SOL    HW1  764   0.702   1.035   0.472
  104SOL    HW2  765   0.787   1.003   0.350
  105SOL     OW  766   0.434   0.835   1.252
  105SOL    HW1  767   0.501   0.847   1.320
  105SOL    HW2  768   0.381   0.763   1.284
  106SOL     OW  769   1.267   0.373   1.278
  106SOL    HW1  770   1.300   0.452   1.322
  106SOL    HW2  771   1.178   0.395   1.253
  107SOL     OW  772   0.066   1.567   1.352
  107SOL    HW1  773   0.044   1.658   1.336
  107SOL    HW2  774   0.162   1.565   1.353
  108SOL     OW  775   0.331   1.130   0.498
  108SOL    HW1  776   0.332   1.206   0.440
  108SOL    HW2  777   0.320   1.055   0.440
  109SOL     OW  778   0.556   0.507   0.849
  109SOL    HW1  779   0.565   0.568   0.776
  109SOL    HW2  780   0.618   0.538   0.915
  110SOL     OW  781   1.244   1.347   0.405
  110SOL    HW1  782   1.299   1.420   0.433
  110SOL    HW2  783   1.156   1.370   0.433
  111SOL     OW  784   1.295   1.463   1.148
  111SOL    HW1  785   1.349   1.470   1.227
  111SOL    HW2  786   1.241   1.385   1.163
  112SOL     OW  787   1.577   0.626   0.478
  112SOL    HW1  788   1.527   0.655   0.554
  112SOL    HW2  789   1.599   0.706   0.431
  113SOL     OW  790   0.344   1.535   1.306
  113SOL    HW1  791   0.333   1.486   1.225
  113SOL    HW2  792   0.438   1.547   1.315
  114SOL     OW  793   0.504   0.747   1.675
  114SOL    HW1  794   0.544   0.795   1.602
  114SOL    HW2  795   0.570   0.682   1.699
  115SOL     OW  796   1.613   0.783   1.689
  115SOL    HW1  797   1.527   0.824   1.682
  115SOL    HW2  798   1.665   0.824   1.620
  116SOL     OW  799   0.984   0.097   1.705
  116SOL    HW1  800   1.040   0.166   1.671
  116SOL    HW2  801   1.005   0.020   1.653
  117SOL     OW  802   0.496   0.037   1.756
  117SOL    HW1  803   0.483   4.490   1.674
  117SOL    HW2  804   0.433   0.109   1.752
  118SOL     OW  805   0.591   0.878   1.028
  118SOL    HW1  806   0.629   0.966   1.032
  118SOL    HW2  807   0.537   0.872   1.107
  119SOL     OW  808   1.336   0.857   1.015
  119SOL    HW1  809   1.248   0.838   0.982
  119SOL    HW2  810   1.385   0.775   1.001
  120SOL     OW  811   1.191   0.533   0.261
  120SOL    HW1  812   1.203   0.457   0.318
  120SOL    HW2  813   1.150   0.599   0.316
  121SOL     OW  814   0.281   0.209   1.234
  121SOL    HW1  815   0.235   0.227   1.316
  121SOL    HW2  816   0.332   0.130   1.253
  122SOL     OW  817   4.500   1.309   1.291
  122SOL    HW1  818   0.048   1.259   1.357
  122SOL    HW2  819   0.017   1.400   1.312
  123SOL     OW  820   0.716   0.626   1.043
  123SOL    HW1  821   0.795   0.614   0.991
  123SOL    HW2  822   0.689   0.716   1.025
  124SOL     OW  823   1.744   0.959   1.863
  124SOL    HW1  824   1.700   0.891   1.811
  124SOL    HW2  825   1.681   0.979   1.933
  125SOL     OW  826   0.323   0.066   0.620
  125SOL    HW1  827   0.298   0.156   0.643
  125SOL    HW2  828   0.311   0.016   0.700
  126SOL     OW  829   1.634   0.396   0.337
  126SOL    HW1  830   1.653   0.325   0.397
  126SOL    HW2  831   1.605   0.468   0.393
  127SOL     OW  832   1.039   0.770   0.960
  127SOL    HW1  833   1.024   0.785   1.053
  127SOL    HW2  834   1.007   0.681   0.944
  128SOL     OW  835   0.981   1.567   1.725
  128SOL    HW1  836   0.964   1.610   1.641
  128SOL    HW2  837   1.024   1.484   1.701
  129SOL     OW  838   1.851   1.497   1.604
  129SOL    HW1  839   1.870   1.530   1.516
  129SOL    HW2  840   1.931   1.514   1.653
  130SOL     OW  841   0.352   0.935   1.815
  130SOL    HW1  842   0.419   0.967   1.875
  130SOL    HW2  843   0.395   0.865   1.766
  131SOL     OW  844   1.508   0.300   0.100
  131SOL    HW1  845   1.470   0.217   0.129
  131SOL    HW2  846   1.558   0.331   0.176
  132SOL     OW  847   1.284   0.810   0.035
  132SOL    HW1  848   1.326   0.725   0.041
  132SOL    HW2  849   1.331   0.855  11.064
  133SOL     OW  850   1.071   1.342   0.859
  133SOL    HW1  851   1.078   1.270   0.795
  133SOL    HW2  852   1.126   1.411   0.823
  134SOL     OW  853   0.321   0.814   0.940
  134SOL    HW1  854   0.415   0.833   0.943
  134SOL    HW2  855   0.314   0.721   0.960
  135SOL     OW  856   0.323   0.535   0.981
  135SOL    HW1  857   0.277   0.453   0.968
  135SOL    HW2  858   0.403   0.527   0.928
  136SOL     OW  859   1.144   0.365   1.709
  136SOL    HW1  860   1.088   0.425   1.759
  136SOL    HW2  861   1.224   0.415   1.694
  137SOL     OW  862   1.141   0.220   1.476
  137SOL    HW1  863   1.145   0.282   1.548
  137SOL    HW2  864   1.192   0.261   1.406
  138SOL     OW  865   0.006   1.323   0.220
  138SOL    HW1  866   4.413   1.344   0.206
  138SOL    HW2  867   0.006   1.231   0.247
  139SOL     OW  868   0.109   1.760   0.943
  139SOL    HW1  869   0.067   1.723   0.865
  139SOL    HW2  870   0.195   1.788   0.913
  140SOL     OW  871   0.491   1.575   0.907
  140SOL    HW1  872   0.560   1.638   0.930
  140SOL    HW2  873   0.534   1.514   0.847
  141SOL     OW  874   0.968   0.791   1.221
  141SOL    HW1  875   1.028   0.774   1.294
  141SOL    HW2  876   0.889   0.742   1.244
  142SOL     OW  877   0.010   0.554   1.076
  142SOL    HW1  878   0.103   0.535   1.059
  142SOL    HW2  879   4.485   0.492   1.144
  143SOL     OW  880   0.176   0.545   1.720
  143SOL    HW1  881   0.266   0.535   1.688
  143SOL    HW2  882   0.142   0.619   1.670
  144SOL     OW  883   1.384   0.930   1.654
  144SOL    HW1  884   1.405   1.023   1.650
  144SOL    HW2  885   1.378   0.902   1.563
  145SOL     OW  886   0.815   0.581   0.370
  145SOL    HW1  887   0.824   0.502   0.317
  145SOL    HW2  888   0.740   0.627   0.333
  146SOL     OW  889   1.634   0.601   1.175
  146SOL    HW1  890   1.624   0.543   1.251
  146SOL    HW2  891   1.723   0.585   1.144
  147SOL     OW  892   0.271   1.564   1.736
  147SOL    HW1  893   0.205   1.610   1.788
  147SOL    HW2  894   0.260   1.472   1.760
  148SOL     OW  895   0.715   0.457   1.254
  148SOL    HW1  896   0.660   0.382   1.229
  148SOL    HW2  897   0.709   0.517   1.180
  149SOL     OW  898   0.917   1.678   1.475
  149SOL    HW1  899   0.895   1.636   1.392
  149SOL    HW2  900   0.912   1.772   1.456
  150SOL     OW  901   0.474   0.477   0.161
  150SOL    HW1  902   0.532   0.549   0.187
  150SOL    HW2  903   0.390   0.520   0.144
  151SOL     OW  904   0.154   1.144   1.455
  151SOL    HW1  905   0.141   1.098   1.538
  151SOL    HW2  906   0.164   1.074   1.391
  152SOL     OW  907   1.316   1.040   1.215
  152SOL    HW1  908   1.334   0.977   1.146
  152SOL    HW2  909   1.253   1.101   1.177
  153SOL     OW  910   1.309   0.847   0.312
  153SOL    HW1  911   1.233   0.814   0.361
  153SOL    HW2  912   1.288   0.830   0.221
  154SOL     OW  913   1.759   1.734   1.145
  154SOL    HW1  914   1.827   1.762   1.085
  154SOL    HW2  915   1.746   1.641   1.126
  155SOL     OW  916   1.240   1.733   1.098
  155SOL    HW1  917   1.325   1.759   1.062
  155SOL    HW2  918   1.251   1.640   1.121
  156SOL     OW  919   0.080   1.193   1.053
  156SOL    HW1  920   0.052   1.219   1.140
  156SOL    HW2  921   0.051   1.264   0.996
  157SOL     OW  922   0.682   1.675   1.743
  157SOL    HW1  923   0.620   1.746   1.729
  157SOL    HW2  924   0.753   1.692   1.680
  158SOL     OW  925   0.880   0.075   0.132
  158SOL    HW1  926   0.967   0.099   0.098
  158SOL    HW2  927   0.897   0.001   0.190
  159SOL     OW  928   1.721   0.137   0.477
  159SOL    HW1  929   1.787   0.151   0.410
  159SOL    HW2  930   1.754   0.063   0.528
  160SOL     OW  931   1.394   1.568   0.497
  160SOL    HW1  932   1.452   1.601   0.428
  160SOL    HW2  933   1.343   1.645   0.524
  161SOL     OW  934   0.112   1.806   1.855
  161SOL    HW1  935   0.073   1.736   1.907
  161SOL    HW2  936   0.179   1.844   1.913
  162SOL     OW  937   1.281   0.933   0.674
  162SOL    HW1  938   1.354   0.871   0.682
  162SOL    HW2  939   1.314   1.003   0.619
  163SOL     OW  940   0.799   1.280   1.420
  163SOL    HW1  941   0.773   1.322   1.502
  163SOL    HW2  942   0.726   1.297   1.360
  164SOL     OW  943   0.677   1.625   0.171
  164SOL    HW1  944   0.707   1.625   0.080
  164SOL    HW2  945   0.619   1.549   0.177
  165SOL     OW  946   1.613   1.729   1.389
  165SOL    HW1  947   1.666   1.733   1.310
  165SOL    HW2  948   1.601   1.821   1.415
  166SOL     OW  949   1.841   0.147   0.965
  166SOL    HW1  950   1.870   0.067   0.922
  166SOL    HW2  951   1.755   0.164   0.928
  167SOL     OW  952   0.251   0.318   0.707
  167SOL    HW1  953   0.165   0.353   0.682
  167SOL    HW2  954   0.246   0.308   0.802
  168SOL     OW  955   1.221   1.595   0.059
  168SOL    HW1  956   1.213   1.502   0.079
  168SOL    HW2  957   1.156   1.611  11.091
  169SOL     OW  958   0.826   1.010   1.378
  169SOL    HW1  959   0.868   1.001   1.292
  169SOL    HW2  960   0.820   1.105   1.392
  170SOL     OW  961   0.912   0.903   0.276
  170SOL    HW1  962   0.975   0.946   0.218
  170SOL    HW2  963   0.965   0.846   0.331
  171SOL     OW  964   1.495   1.621   0.055
  171SOL    HW1  965   1.399   1.613   0.055
  171SOL    HW2  966   1.517   1.637  11.063
  172SOL     OW  967   0.370   1.312   1.492
  172SOL    HW1  968   0.354   1.390   1.439
  172SOL    HW2  969   0.295   1.255   1.472
  173SOL     OW  970   1.605   1.286   1.276
  173SOL    HW1  971   1.666   1.270   1.348
  173SOL    HW2  972   1.546   1.353   1.311
  174SOL     OW  973   1.066   1.113   0.713
  174SOL    HW1  974   0.993   1.062   0.750
  174SOL    HW2  975   1.132   1.047   0.691
  175SOL     OW  976   1.002   0.247   1.015
  175SOL    HW1  977   1.009   0.234   0.921
  175SOL    HW2  978   0.987   0.159   1.051
  176SOL     OW  979   0.606   1.486   0.480
  176SOL    HW1  980   0.652   1.436   0.414
  176SOL    HW2  981   0.529   1.521   0.435
  177SOL     OW  982   1.729   0.395   1.373
  177SOL    HW1  983   1.804   0.453   1.373
  177SOL    HW2  984   1.754   0.322   1.316
  178SOL     OW  985   0.273   1.323   0.286
  178SOL    HW1  986   0.185   1.324   0.248
  178SOL    HW2  987   0.264   1.368   0.370
  179SOL     OW  988   0.115   0.994   1.693
  179SOL    HW1  989   0.056   1.050   1.743
  179SOL    HW2  990   0.196   0.994   1.743
  180SOL     OW  991   0.661   0.218   1.501
  180SOL    HW1  992   0.739   0.190   1.453
  180SOL    HW2  993   0.693   0.234   1.590
  181SOL     OW  994   0.053   0.345   0.034
  181SOL    HW1  995   4.469   0.301   0.047
  181SOL    HW2  996   0.045   0.426   0.083
  182SOL     OW  997   1.422   0.856   1.393
  182SOL    HW1  998   1.371   0.917   1.339
  182SOL    HW2  999   1.510   0.860   1.357
  183SOL     OW 1000   0.082   0.167   0.275
  183SOL    HW1 1001   0.090   0.260   0.254
  183SOL    HW2 1002   0.164   0.129   0.244
  184SOL     OW 1003   1.193   1.331   0.127
  184SOL    HW1 1004   1.098   1.319   0.115
  184SOL    HW2 1005   1.207   1.322   0.221
  185SOL     OW 1006   0.631   0.831   1.443
  185SOL    HW1 1007   0.687   0.907   1.425
  185SOL    HW2 1008   0.691   0.756   1.443
  186SOL     OW 1009   1.489   1.791   0.991
  186SOL    HW1 1010   1.515   1.858   0.927
  186SOL    HW2 1011   1.572   1.766   1.033
  187SOL     OW 1012   0.712   0.561   1.708
  187SOL    HW1 1013   0.769   0.616   1.763
  187SOL    HW2 1014   0.732   0.471   1.735
  188SOL     OW 1015   1.474   1.190   1.626
  188SOL    HW1 1016   1.463   1.208   1.719
  188SOL    HW2 1017   1.565   1.213   1.608
  189SOL     OW 1018   0.368   1.753   1.567
  189SOL    HW1 1019   0.284   1.794   1.549
  189SOL    HW2 1020   0.346   1.673   1.616
  190SOL     OW 1021   1.661   0.879   1.254
  190SOL    HW1 1022   1.656   0.794   1.210
  190SOL    HW2 1023   1.651   0.943   1.185
  191SOL     OW 1024   1.226   0.336   0.445
  191SOL    HW1 1025   1.297   0.274   0.429
  191SOL    HW2 1026   1.251   0.383   0.524
  192SOL     OW 1027   0.574   0.729   0.678
  192SOL    HW1 1028   0.619   0.813   0.667
  192SOL    HW2 1029   0.512   0.726   0.606
  193SOL     OW 1030   1.752   0.376   1.644
  193SOL    HW1 1031   1.739   0.389   1.550
  193SOL    HW2 1032   1.677   0.321   1.670
  194SOL     OW 1033   1.753   0.932   1.509
  194SOL    HW1 1034   1.738   1.026   1.523
  194SOL    HW2 1035   1.731   0.917   1.417
  195SOL     OW 1036   0.920   1.354   0.088
  195SOL    HW1 1037   0.857   1.344   0.160
  195SOL    HW2 1038   0.889   1.431   0.041
  196SOL     OW 1039   0.667   1.780   0.936
  196SOL    HW1 1040   0.650   1.872   0.917
  196SOL    HW2 1041   0.762   1.772   0.929
  197SOL     OW 1042   0.871   0.973   0.853
  197SOL    HW1 1043   0.925   0.903   0.889
  197SOL    HW2 1044   0.830   1.014   0.929
  198SOL     OW 1045   1.075   0.984   0.077
  198SOL    HW1 1046   1.044   1.002  11.088
  198SOL    HW2 1047   1.152   0.928   0.065
  199SOL     OW 1048   1.841   1.557   0.843
  199SOL    HW1 1049   1.764   1.546   0.787
  199SOL    HW2 1050   1.820   1.505   0.921
  200SOL     OW 1051   0.234   1.303   1.861
  200SOL    HW1 1052   0.141   1.284   1.848
  200SOL    HW2 1053   0.243   1.312   1.956
  201SOL     OW 1054   0.126   1.206   0.671
  201SOL    HW1 1055   0.160   1.172   0.754
  201SOL    HW2 1056   0.191   1.180   0.606
  202SOL     OW 1057   0.690   1.411   1.634
  202SOL    HW1 1058   0.610   1.368   1.666
  202SOL    HW2 1059   0.686   1.499   1.671
  203SOL     OW 1060   1.795   0.171   1.237
  203SOL    HW1 1061   1.787   0.077   1.254
  203SOL    HW2 1062   1.817   0.176   1.144
  204SOL     OW 1063   0.438   0.434   0.533
  204SOL    HW1 1064   0.460   0.363   0.472
  204SOL    HW2 1065   0.380   0.393   0.597
  205SOL     OW 1066   1.703   1.474   1.078
  205SOL    HW1 1067   1.620   1.458   1.033
  205SOL    HW2 1068   1.705   1.410   1.149
  206SOL     OW 1069   0.309   0.515   1.251
  206SOL    HW1 1070   0.372   0.450   1.283
  206SOL    HW2 1071   0.327   0.523   1.158
  207SOL     OW 1072   0.833   1.579   0.676
  207SOL    HW1 1073   0.807   1.645   0.612
  207SOL    HW2 1074   0.758   1.519   0.680
  208SOL     OW 1075   1.428   0.222   1.113
  208SOL    HW1 1076   1.464   0.150   1.165
  208SOL    HW2 1077   1.377   0.273   1.176
  209SOL     OW 1078   0.995   4.496   1.160
  209SOL    HW1 1079   0.961   4.407   1.153
  209SOL    HW2 1080   1.090   4.485   1.164
  210SOL     OW 1081   0.778   1.324   0.327
  210SOL    HW1 1082   0.752   1.233   0.345
  210SOL    HW2 1083   0.856   1.338   0.380
  211SOL     OW 1084   0.620   1.558   1.289
  211SOL    HW1 1085   0.619   1.640   1.338
  211SOL    HW2 1086   0.708   1.552   1.253
  212SOL     OW 1087   1.376   0.057   0.175
  212SOL    HW1 1088   1.404   4.475   0.134
  212SOL    HW2 1089   1.282   0.048   0.184
  213SOL     OW 1090   1.318   0.471   0.668
  213SOL    HW1 1091   1.263   0.550   0.669
  213SOL    HW2 1092   1.304   0.431   0.754
  214SOL     OW 1093   1.587   0.196   0.875
  214SOL    HW1 1094   1.529   0.214   0.949
  214SOL    HW2 1095   1.588   0.278   0.825
  215SOL     OW 1096   0.031   1.055   0.295
  215SOL    HW1 1097   0.121   1.024   0.290
  215SOL    HW2 1098   0.003   1.036   0.384
  216SOL     OW 1099   0.892   1.665   0.347
  216SOL    HW1 1100   0.816   1.647   0.292
  216SOL    HW2 1101   0.864   1.736   0.405
  217SOL     OW 1102   0.238   0.632   1.991
  217SOL    HW1 1103   0.166   0.599   2.044
  217SOL    HW2 1104   0.209   0.622   1.900
  218SOL     OW 1105   0.191   0.300   2.848
  218SOL    HW1 1106   0.217   0.263   2.933
  218SOL    HW2 1107   0.130   0.235   2.812
  219SOL     OW 1108   4.494   0.406   2.497
  219SOL    HW1 1109   4.423   0.442   2.549
  219SOL    HW2 1110   4.454   0.333   2.448
  220SOL     OW 1111   0.570   1.302   3.052
  220SOL    HW1 1112   0.485   1.307   3.009
  220SOL    HW2 1113   0.586   1.390   3.084
  221SOL     OW 1114   1.577   1.517   2.572
  221SOL    HW1 1115   1.532   1.492   2.653
  221SOL    HW2 1116   1.507   1.520   2.506
  222SOL     OW 1117   1.145   0.696   2.550
  222SOL    HW1 1118   1.187   0.782   2.543
  222SOL    HW2 1119   1.092   0.701   2.629
  223SOL     OW 1120   1.791   0.595   2.082
  223SOL    HW1 1121   1.758   0.592   1.992
  223SOL    HW2 1122   1.748   0.521   2.126
  224SOL     OW 1123   0.737   1.134   2.911
  224SOL    HW1 1124   0.674   1.173   2.971
  224SOL    HW2 1125   0.780   1.208   2.868
  225SOL     OW 1126   0.876   0.757   3.686
  225SOL    HW1 1127   0.863   0.826   3.752
  225SOL    HW2 1128   0.898   0.805   3.606
  226SOL     OW 1129   0.683   0.993   2.507
  226SOL    HW1 1130   0.751   0.987   2.574
  226SOL    HW2 1131   0.616   1.049   2.546
  227SOL     OW 1132   0.714   1.148   3.687
  227SOL    HW1 1133   0.763   1.224   3.719
  227SOL    HW2 1134   0.637   1.185   3.644
  228SOL     OW 1135   0.334   1.415   2.928
  228SOL    HW1 1136   0.255   1.389   2.881
  228SOL    HW2 1137   0.381   1.471   2.866
  229SOL     OW 1138   1.457   1.501   3.226
  229SOL    HW1 1139   1.513   1.579   3.235
  229SOL    HW2 1140   1.388   1.514   3.291
  230SOL     OW 1141   0.444   0.382   3.332
  230SOL    HW1 1142   0.532   0.345   3.329
  230SOL    HW2 1143   0.397   0.327   3.394
  231SOL     OW 1144   1.601   0.439   2.601
  231SOL    HW1 1145   1.522   0.453   2.548
  231SOL    HW2 1146   1.603   0.514   2.660
  232SOL     OW 1147   0.245   1.689   2.329
  232SOL    HW1 1148   0.227   1.774   2.371
  232SOL    HW2 1149   0.321   1.706   2.273
  233SOL     OW 1150   1.138   1.342   3.557
  233SOL    HW1 1151   1.179   1.335   3.643
  233SOL    HW2 1152   1.085   1.263   3.549
  234SOL     OW 1153   0.266   1.424   2.384
  234SOL    HW1 1154   0.248   1.518   2.389
  234SOL    HW2 1155   0.210   1.385   2.452
  235SOL     OW 1156   0.260   1.085   2.748
  235SOL    HW1 1157   0.273   0.993   2.770
  235SOL    HW2 1158   0.199   1.117   2.814
  236SOL     OW 1159   0.599   1.795   3.289
  236SOL    HW1 1160   0.517   1.778   3.334
  236SOL    HW2 1161   0.624   1.884   3.316
  237SOL     OW 1162   0.564   0.997   2.012
  237SOL    HW1 1163   0.617   1.034   1.941
  237SOL    HW2 1164   0.607   1.026   2.092
  238SOL     OW 1165   1.569   0.122   3.318
  238SOL    HW1 1166   1.618   0.185   3.265
  238SOL    HW2 1167   1.563   0.163   3.405
  239SOL     OW 1168   0.135   0.649   2.431
  239SOL    HW1 1169   0.088   0.570   2.458
  239SOL    HW2 1170   0.110   0.715   2.496
  240SOL     OW 1171   1.853   1.757   2.187
  240SOL    HW1 1172   1.918   1.733   2.253
  240SOL    HW2 1173   1.872   1.849   2.167
  241SOL     OW 1174   0.033   1.607   2.025
  241SOL    HW1 1175   0.013   1.513   2.018
  241SOL    HW2 1176   0.064   1.618   2.115
  242SOL     OW 1177   1.692   0.922   2.508
  242SOL    HW1 1178   1.772   0.876   2.482
  242SOL    HW2 1179   1.668   0.974   2.432
  243SOL     OW 1180   1.652   1.103   2.291
  243SOL    HW1 1181   1.739   1.101   2.250
  243SOL    HW2 1182   1.661   1.168   2.361
  244SOL     OW 1183   0.091   0.765   3.414
  244SOL    HW1 1184   0.176   0.746   3.375
  244SOL    HW2 1185   0.102   0.852   3.454
  245SOL     OW 1186   0.618   1.393   2.599
  245SOL    HW1 1187   0.573   1.309   2.607
  245SOL    HW2 1188   0.602   1.420   2.509
  246SOL     OW 1189   1.282   1.233   3.281
  246SOL    HW1 1190   1.312   1.165   3.221
  246SOL    HW2 1191   1.342   1.228   3.355
  247SOL     OW 1192   0.837   0.025   2.428
  247SOL    HW1 1193   0.875   0.108   2.398
  247SOL    HW2 1194   0.743   0.033   2.411
  248SOL     OW 1195   0.177   0.944   3.137
  248SOL    HW1 1196   0.267   0.919   3.119
  248SOL    HW2 1197   0.134   0.941   3.051
  249SOL     OW 1198   1.532   1.002   2.062
  249SOL    HW1 1199   1.463   0.945   2.095
  249SOL    HW2 1200   1.575   1.036   2.141
  250SOL     OW 1201   1.181   1.817   3.491
  250SOL    HW1 1202   1.187   1.878   3.418
  250SOL    HW2 1203   1.200   1.731   3.452
  251SOL     OW 1204   0.320   0.264   3.621
  251SOL    HW1 1205   0.386   0.311   3.673
  251SOL    HW2 1206   0.239   0.272   3.673
  252SOL     OW 1207   1.467   1.418   2.804
  252SOL    HW1 1208   1.402   1.435   2.872
  252SOL    HW2 1209   1.452   1.327   2.779
  253SOL     OW 1210   1.653   1.759   2.436
  253SOL    HW1 1211   1.630   1.724   2.350
  253SOL    HW2 1212   1.636   1.687   2.497
  254SOL     OW 1213   0.592   0.720   2.133
  254SOL    HW1 1214   0.590   0.807   2.092
  254SOL    HW2 1215   0.526   0.725   2.202
  255SOL     OW 1216   1.295   0.383   2.789
  255SOL    HW1 1217   1.207   0.351   2.768
  255SOL    HW2 1218   1.329   0.318   2.851
  256SOL     OW 1219   1.581   1.677   2.174
  256SOL    HW1 1220   1.673   1.700   2.163
  256SOL    HW2 1221   1.550   1.659   2.085
  257SOL     OW 1222   0.799   0.616   3.315
  257SOL    HW1 1223   0.770   0.586   3.401
  257SOL    HW2 1224   0.766   0.550   3.254
  258SOL     OW 1225   1.389   0.486   3.538
  258SOL    HW1 1226   1.394   0.530   3.623
  258SOL    HW2 1227   1.457   0.418   3.542
  259SOL     OW 1228   0.948   0.884   3.451
  259SOL    HW1 1229   1.004   0.818   3.410
  259SOL    HW2 1230   0.901   0.924   3.377
  260SOL     OW 1231   1.000   0.418   3.092
  260SOL    HW1 1232   0.909   0.425   3.120
  260SOL    HW2 1233   0.998   0.361   3.015
  261SOL     OW 1234   1.054   0.701   2.284
  261SOL    HW1 1235   1.076   0.692   2.377
  261SOL    HW2 1236   0.969   0.658   2.275
  262SOL     OW 1237   0.086   0.828   2.648
  262SOL    HW1 1238   0.171   0.824   2.692
  262SOL    HW2 1239   0.022   0.820   2.719
  263SOL     OW 1240   0.112   1.879   3.451
  263SOL    HW1 1241   0.111   1.852   3.543
  263SOL    HW2 1242   0.046   1.823   3.410
  264SOL     OW 1243   0.859   0.374   2.059
  264SOL    HW1 1244   0.917   0.408   1.991
  264SOL    HW2 1245   0.867   0.279   2.053
  265SOL     OW 1246   1.697   0.569   3.694
  265SOL    HW1 1247   1.666   0.645   3.645
  265SOL    HW2 1248   1.730   0.508   3.627
  266SOL     OW 1249   1.385   1.144   2.401
  266SOL    HW1 1250   1.464   1.134   2.348
  266SOL    HW2 1251   1.331   1.205   2.351
  267SOL     OW 1252   0.533   0.217   2.760
  267SOL    HW1 1253   0.553   0.231   2.853
  267SOL    HW2 1254   0.535   0.305   2.722
  268SOL     OW 1255   0.997   1.446   2.329
  268SOL    HW1 1256   0.970   1.522   2.278
  268SOL    HW2 1257   0.971   1.466   2.418
  269SOL     OW 1258   0.362   1.821   2.725
  269SOL    HW1 1259   0.403   1.735   2.737
  269SOL    HW2 1260   0.431   1.884   2.746
  270SOL     OW 1261   1.802   1.049   2.737
  270SOL    HW1 1262   1.751   1.029   2.658
  270SOL    HW2 1263   1.737   1.056   2.807
  271SOL     OW 1264   1.225   1.542   3.376
  271SOL    HW1 1265   1.213   1.469   3.438
  271SOL    HW2 1266   1.157   1.528   3.310
  272SOL     OW 1267   0.304   0.948   2.129
  272SOL    HW1 1268   0.385   0.974   2.084
  272SOL    HW2 1269   0.296   0.854   2.112
  273SOL     OW 1270   1.484   0.754   2.578
  273SOL    HW1 1271   1.481   0.714   2.665
  273SOL    HW2 1272   1.562   0.809   2.580
  274SOL     OW 1273   0.474   1.269   3.598
  274SOL    HW1 1274   0.448   1.276   3.506
  274SOL    HW2 1275   0.391   1.265   3.646
  275SOL     OW 1276   1.128   1.778   2.089
  275SOL    HW1 1277   1.050   1.741   2.131
  275SOL    HW2 1278   1.151   1.714   2.022
  276SOL     OW 1279   0.147   0.263   3.381
  276SOL    HW1 1280   0.122   0.347   3.341
  276SOL    HW2 1281   0.192   0.287   3.462
  277SOL     OW 1282   1.630   1.385   1.958
  277SOL    HW1 1283   1.589   1.469   1.940
  277SOL    HW2 1284   1.563   1.320   1.934
  278SOL     OW 1285   0.469   1.741   2.174
  278SOL    HW1 1286   0.515   1.795   2.239
  278SOL    HW2 1287   0.539   1.702   2.121
  279SOL     OW 1288   1.435   0.150   2.292
  279SOL    HW1 1289   1.418   0.093   2.217
  279SOL    HW2 1290   1.527   0.138   2.311
  280SOL     OW 1291   0.241   1.784   3.079
  280SOL    HW1 1292   0.288   1.706   3.109
  280SOL    HW2 1293   0.201   1.758   2.997
  281SOL     OW 1294   0.941   1.701   2.756
  281SOL    HW1 1295   1.022   1.654   2.779
  281SOL    HW2 1296   0.902   1.649   2.686
  282SOL     OW 1297   0.398   0.683   2.332
  282SOL    HW1 1298   0.422   0.592   2.350
  282SOL    HW2 1299   0.306   0.689   2.358
  283SOL     OW 1300   1.523   0.233   3.584
  283SOL    HW1 1301   1.522   0.253   3.677
  283SOL    HW2 1302   1.441   0.186   3.569
  284SOL     OW 1303   0.635   0.124   1.977
  284SOL    HW1 1304   0.722   0.087   1.993
  284SOL    HW2 1305   0.602   0.076   1.901
  285SOL     OW 1306   0.770   0.276   3.619
  285SOL    HW1 1307   0.841   0.212   3.608
  285SOL    HW2 1308   0.730   0.253   3.703
  286SOL     OW 1309   0.875   1.525   3.058
  286SOL    HW1 1310   0.857   1.485   2.972
  286SOL    HW2 1311   0.944   1.470   3.095
  287SOL     OW 1312   1.337   0.591   3.289
  287SOL    HW1 1313   1.365   0.564   3.377
  287SOL    HW2 1314   1.372   0.680   3.279
  288SOL     OW 1315   0.820   1.385   2.813
  288SOL    HW1 1316   0.905   1.375   2.770
  288SOL    HW2 1317   0.758   1.395   2.740
  289SOL     OW 1318   0.929   0.533   2.756
  289SOL    HW1 1319   0.911   0.527   2.662
  289SOL    HW2 1320   0.955   0.443   2.780
  290SOL     OW 1321   0.576   0.079   2.368
  290SOL    HW1 1322   0.492   0.062   2.412
  290SOL    HW2 1323   0.555   0.140   2.298
  291SOL     OW 1324   1.429   1.204   1.899
  291SOL    HW1 1325   1.458   1.129   1.951
  291SOL    HW2 1326   1.343   1.226   1.935
  292SOL     OW 1327   0.304   0.066   2.055
  292SOL    HW1 1328   0.384   0.117   2.062
  292SOL    HW2 1329   0.314   4.497   2.120
  293SOL     OW 1330   0.969   0.242   2.322
  293SOL    HW1 1331   0.914   0.310   2.284
  293SOL    HW2 1332   1.058   0.273   2.311
  294SOL     OW 1333   1.080   0.689   3.315
  294SOL    HW1 1334   1.013   0.622   3.314
  294SOL    HW2 1335   1.163   0.642   3.305
  295SOL     OW 1336   1.216   1.575   2.658
  295SOL    HW1 1337   1.230   1.639   2.589
  295SOL    HW2 1338   1.286   1.592   2.721
  296SOL     OW 1339   0.473   1.156   2.589
  296SOL    HW1 1340   0.407   1.136   2.656
  296SOL    HW2 1341   0.427   1.142   2.506
  297SOL     OW 1342   1.261   1.791   2.476
  297SOL    HW1 1343   1.309   1.854   2.423
  297SOL    HW2 1344   1.191   1.843   2.516
  298SOL     OW 1345   1.023   0.532   1.887
  298SOL    HW1 1346   0.979   0.616   1.871
  298SOL    HW2 1347   1.082   0.550   1.960
  299SOL     OW 1348   0.079   0.497   3.265
  299SOL    HW1 1349   0.148   0.511   3.200
  299SOL    HW2 1350   0.047   0.584   3.286
  300SOL     OW 1351   0.550   0.256   3.032
  300SOL    HW1 1352   0.579   0.176   3.076
  300SOL    HW2 1353   0.455   0.257   3.043
  301SOL     OW 1354   0.866   0.506   2.493
  301SOL    HW1 1355   0.833   0.541   2.410
  301SOL    HW2 1356   0.811   0.429   2.509
  302SOL     OW 1357   0.929   0.002   2.687
  302SOL    HW1 1358   0.900   0.012   2.597
  302SOL    HW2 1359   0.955   4.410   2.694
  303SOL     OW 1360   1.439   1.157   2.718
  303SOL    HW1 1361   1.368   1.092   2.721
  303SOL    HW2 1362   1.460   1.165   2.625
  304SOL     OW 1363   1.465   0.613   2.820
  304SOL    HW1 1364   1.406   0.538   2.820
  304SOL    HW2 1365   1.518   0.603   2.899
  305SOL     OW 1366   1.836   0.807   2.250
  305SOL    HW1 1367   1.897   0.760   2.307
  305SOL    HW2 1368   1.817   0.744   2.180
  306SOL     OW 1369   0.495   1.424   2.012
  306SOL    HW1 1370   0.416   1.398   2.058
  306SOL    HW2 1371   0.490   1.381   1.927
  307SOL     OW 1372   1.685   1.267   2.500
  307SOL    HW1 1373   1.779   1.264   2.517
  307SOL    HW2 1374   1.658   1.355   2.525
  308SOL     OW 1375   1.394   0.577   1.931
  308SOL    HW1 1376   1.331   0.559   2.000
  308SOL    HW2 1377   1.480   0.564   1.971
  309SOL     OW 1378   0.510   0.260   2.171
  309SOL    HW1 1379   0.567   0.216   2.109
  309SOL    HW2 1380   0.494   0.346   2.131
  310SOL     OW 1381   1.746   1.244   3.416
  310SOL    HW1 1382   1.834   1.207   3.405
  310SOL    HW2 1383   1.762   1.333   3.448
  311SOL     OW 1384   1.052   1.354   3.194
  311SOL    HW1 1385   0.975   1.322   3.242
  311SOL    HW2 1386   1.126   1.311   3.235
  312SOL     OW 1387   1.612   1.629   3.523
  312SOL    HW1 1388   1.601   1.663   3.434
  312SOL    HW2 1389   1.693   1.578   3.520
  313SOL     OW 1390   1.140   1.217   2.963
  313SOL    HW1 1391   1.078   1.254   3.027
  313SOL    HW2 1392   1.111   1.252   2.879
  314SOL     OW 1393   1.619   1.093   2.936
  314SOL    HW1 1394   1.612   1.158   3.007
  314SOL    HW2 1395   1.546   1.113   2.878
  315SOL     OW 1396   0.892   0.139   3.240
  315SOL    HW1 1397   0.918   0.090   3.162
  315SOL    HW2 1398   0.975   0.164   3.281
  316SOL     OW 1399   0.984   1.115   3.586
  316SOL    HW1 1400   0.893   1.132   3.612
  316SOL    HW2 1401   0.979   1.036   3.533
  317SOL     OW 1402   0.710   1.064   2.237
  317SOL    HW1 1403   0.696   1.041   2.329
  317SOL    HW2 1404   0.785   1.010   2.209
  318SOL     OW 1405   0.434   0.835   3.114
  318SOL    HW1 1406   0.500   0.846   3.182
  318SOL    HW2 1407   0.381   0.760   3.143
  319SOL     OW 1408   1.267   0.373   3.140
  319SOL    HW1 1409   1.300   0.452   3.183
  319SOL    HW2 1410   1.177   0.395   3.115
  320SOL     OW 1411   0.066   1.567   3.214
  320SOL    HW1 1412   0.044   1.658   3.198
  320SOL    HW2 1413   0.162   1.565   3.215
  321SOL     OW 1414   0.328   1.115   2.355
  321SOL    HW1 1415   0.339   1.193   2.299
  321SOL    HW2 1416   0.325   1.042   2.293
  322SOL     OW 1417   0.557   0.507   2.712
  322SOL    HW1 1418   0.566   0.569   2.639
  322SOL    HW2 1419   0.618   0.539   2.778
  323SOL     OW 1420   1.246   1.351   2.254
  323SOL    HW1 1421   1.302   1.421   2.287
  323SOL    HW2 1422   1.159   1.372   2.287
  324SOL     OW 1423   1.294   1.463   3.010
  324SOL    HW1 1424   1.349   1.469   3.089
  324SOL    HW2 1425   1.240   1.385   3.024
  325SOL     OW 1426   1.575   0.623   2.342
  325SOL    HW1 1427   1.525   0.661   2.414
  325SOL    HW2 1428   1.620   0.698   2.302
  326SOL     OW 1429   0.344   1.535   3.168
  326SOL    HW1 1430   0.333   1.486   3.087
  326SOL    HW2 1431   0.438   1.547   3.177
  327SOL     OW 1432   0.505   0.748   3.538
  327SOL    HW1 1433   0.543   0.795   3.465
  327SOL    HW2 1434   0.571   0.682   3.562
  328SOL     OW 1435   1.613   0.783   3.551
  328SOL    HW1 1436   1.527   0.824   3.544
  328SOL    HW2 1437   1.665   0.824   3.482
  329SOL     OW 1438   0.984   0.097   3.568
  329SOL    HW1 1439   1.040   0.166   3.533
  329SOL    HW2 1440   1.005   0.020   3.516
  330SOL     OW 1441   0.496   0.037   3.618
  330SOL    HW1 1442   0.483   4.490   3.536
  330SOL    HW2 1443   0.433   0.109   3.614
  331SOL     OW 1444   0.591   0.878   2.890
  331SOL    HW1 1445   0.629   0.966   2.894
  331SOL    HW2 1446   0.536   0.872   2.968
  332SOL     OW 1447   1.335   0.857   2.877
  332SOL    HW1 1448   1.247   0.838   2.844
  332SOL    HW2 1449   1.384   0.776   2.863
  333SOL     OW 1450   1.193   0.538   2.113
  333SOL    HW1 1451   1.204   0.460   2.168
  333SOL    HW2 1452   1.152   0.602   2.171
  334SOL     OW 1453   0.281   0.209   3.096
  334SOL    HW1 1454   0.234   0.227   3.178
  334SOL    HW2 1455   0.332   0.130   3.114
  335SOL     OW 1456   4.499   1.309   3.153
  335SOL    HW1 1457   0.048   1.259   3.219
  335SOL    HW2 1458   0.017   1.400   3.174
  336SOL     OW 1459   0.715   0.627   2.906
  336SOL    HW1 1460   0.794   0.615   2.853
  336SOL    HW2 1461   0.688   0.717   2.887
  337SOL     OW 1462   1.744   0.959   3.725
  337SOL    HW1 1463   1.700   0.892   3.673
  337SOL    HW2 1464   1.682   0.979   3.795
  338SOL     OW 1465   0.328   0.068   2.481
  338SOL    HW1 1466   0.301   0.157   2.506
  338SOL    HW2 1467   0.313   0.016   2.560
  339SOL     OW 1468   1.626   0.392   2.208
  339SOL    HW1 1469   1.648   0.324   2.272
  339SOL    HW2 1470   1.599   0.467   2.261
  340SOL     OW 1471   1.040   0.770   2.822
  340SOL    HW1 1472   1.025   0.785   2.915
  340SOL    HW2 1473   1.006   0.682   2.806
  341SOL     OW 1474   0.981   1.567   3.587
  341SOL    HW1 1475   0.964   1.610   3.503
  341SOL    HW2 1476   1.024   1.484   3.563
  342SOL     OW 1477   1.852   1.500   3.466
  342SOL    HW1 1478   1.874   1.528   3.377
  342SOL    HW2 1479   1.933   1.513   3.516
  343SOL     OW 1480   0.352   0.935   3.678
  343SOL    HW1 1481   0.419   0.967   3.737
  343SOL    HW2 1482   0.395   0.865   3.628
  344SOL     OW 1483   1.525   0.258   1.988
  344SOL    HW1 1484   1.461   0.198   2.027
  344SOL    HW2 1485   1.559   0.308   2.062
  345SOL     OW 1486   1.283   0.826   1.886
  345SOL    HW1 1487   1.325   0.740   1.891
  345SOL    HW2 1488   1.317   0.864   1.805
  346SOL     OW 1489   1.071   1.342   2.721
  346SOL    HW1 1490   1.078   1.270   2.658
  346SOL    HW2 1491   1.127   1.411   2.685
  347SOL     OW 1492   0.320   0.814   2.799
  347SOL    HW1 1493   0.414   0.832   2.802
  347SOL    HW2 1494   0.313   0.721   2.820
  348SOL     OW 1495   0.323   0.536   2.843
  348SOL    HW1 1496   0.277   0.453   2.829
  348SOL    HW2 1497   0.403   0.527   2.790
  349SOL     OW 1498   1.144   0.365   3.571
  349SOL    HW1 1499   1.088   0.425   3.621
  349SOL    HW2 1500   1.224   0.415   3.556
  350SOL     OW 1501   1.142   0.219   3.338
  350SOL    HW1 1502   1.145   0.282   3.410
  350SOL    HW2 1503   1.191   0.261   3.268
  351SOL     OW 1504   4.491   1.316   2.076
  351SOL    HW1 1505   4.399   1.334   2.057
  351SOL    HW2 1506   4.494   1.224   2.100
  352SOL     OW 1507   0.110   1.760   2.805
  352SOL    HW1 1508   0.067   1.722   2.728
  352SOL    HW2 1509   0.196   1.788   2.774
  353SOL     OW 1510   0.491   1.575   2.768
  353SOL    HW1 1511   0.560   1.637   2.792
  353SOL    HW2 1512   0.534   1.513   2.709
  354SOL     OW 1513   0.968   0.791   3.083
  354SOL    HW1 1514   1.028   0.773   3.156
  354SOL    HW2 1515   0.889   0.742   3.105
  355SOL     OW 1516   0.012   0.555   2.940
  355SOL    HW1 1517   0.103   0.533   2.922
  355SOL    HW2 1518   4.484   0.490   3.004
  356SOL     OW 1519   0.176   0.545   3.582
  356SOL    HW1 1520   0.266   0.534   3.550
  356SOL    HW2 1521   0.142   0.619   3.532
  357SOL     OW 1522   1.384   0.930   3.516
  357SOL    HW1 1523   1.405   1.023   3.512
  357SOL    HW2 1524   1.378   0.902   3.425
  358SOL     OW 1525   0.813   0.580   2.230
  358SOL    HW1 1526   0.819   0.508   2.167
  358SOL    HW2 1527   0.739   0.633   2.199
  359SOL     OW 1528   1.634   0.601   3.038
  359SOL    HW1 1529   1.624   0.543   3.113
  359SOL    HW2 1530   1.723   0.585   3.006
  360SOL     OW 1531   0.271   1.564   3.599
  360SOL    HW1 1532   0.205   1.610   3.650
  360SOL    HW2 1533   0.260   1.472   3.623
  361SOL     OW 1534   0.716   0.457   3.116
  361SOL    HW1 1535   0.660   0.383   3.092
  361SOL    HW2 1536   0.709   0.517   3.042
  362SOL     OW 1537   0.918   1.678   3.337
  362SOL    HW1 1538   0.894   1.636   3.254
  362SOL    HW2 1539   0.913   1.772   3.318
  363SOL     OW 1540   0.468   0.491   2.035
  363SOL    HW1 1541   0.531   0.559   2.060
  363SOL    HW2 1542   0.386   0.539   2.021
  364SOL     OW 1543   0.154   1.144   3.317
  364SOL    HW1 1544   0.141   1.098   3.400
  364SOL    HW2 1545   0.165   1.074   3.252
  365SOL     OW 1546   1.316   1.040   3.077
  365SOL    HW1 1547   1.334   0.977   3.008
  365SOL    HW2 1548   1.253   1.101   3.039
  366SOL     OW 1549   1.320   0.856   2.162
  366SOL    HW1 1550   1.247   0.828   2.217
  366SOL    HW2 1551   1.289   0.844   2.072
  367SOL     OW 1552   1.771   1.724   3.015
  367SOL    HW1 1553   1.838   1.755   2.953
  367SOL    HW2 1554   1.752   1.635   2.987
  368SOL     OW 1555   1.238   1.731   2.961
  368SOL    HW1 1556   1.322   1.758   2.924
  368SOL    HW2 1557   1.250   1.639   2.984
  369SOL     OW 1558   0.080   1.194   2.914
  369SOL    HW1 1559   0.052   1.219   3.002
  369SOL    HW2 1560   0.050   1.265   2.858
  370SOL     OW 1561   0.682   1.675   3.605
  370SOL    HW1 1562   0.620   1.746   3.591
  370SOL    HW2 1563   0.753   1.692   3.543
  371SOL     OW 1564   1.723   0.128   2.339
  371SOL    HW1 1565   1.787   0.145   2.270
  371SOL    HW2 1566   1.762   0.057   2.391
  372SOL     OW 1567   1.395   1.568   2.356
  372SOL    HW1 1568   1.451   1.603   2.287
  372SOL    HW2 1569   1.343   1.643   2.385
  373SOL     OW 1570   0.112   1.807   3.717
  373SOL    HW1 1571   0.073   1.736   3.769
  373SOL    HW2 1572   0.178   1.844   3.775
  374SOL     OW 1573   1.280   0.933   2.533
  374SOL    HW1 1574   1.354   0.872   2.544
  374SOL    HW2 1575   1.315   1.003   2.479
  375SOL     OW 1576   0.799   1.280   3.282
  375SOL    HW1 1577   0.773   1.322   3.363
  375SOL    HW2 1578   0.726   1.296   3.222
  376SOL     OW 1579   0.673   1.630   2.018
  376SOL    HW1 1580   0.685   1.644   1.924
  376SOL    HW2 1581   0.618   1.551   2.023
  377SOL     OW 1582   1.618   1.722   3.253
  377SOL    HW1 1583   1.669   1.730   3.172
  377SOL    HW2 1584   1.600   1.813   3.279
  378SOL     OW 1585   1.841   0.147   2.826
  378SOL    HW1 1586   1.871   0.067   2.781
  378SOL    HW2 1587   1.754   0.164   2.789
  379SOL     OW 1588   0.251   0.319   2.568
  379SOL    HW1 1589   0.166   0.354   2.542
  379SOL    HW2 1590   0.244   0.309   2.663
  380SOL     OW 1591   1.209   1.598   1.896
  380SOL    HW1 1592   1.198   1.507   1.923
  380SOL    HW2 1593   1.142   1.612   1.829
  381SOL     OW 1594   0.826   1.010   3.240
  381SOL    HW1 1595   0.867   1.001   3.154
  381SOL    HW2 1596   0.819   1.104   3.254
  382SOL     OW 1597   0.915   0.911   2.154
  382SOL    HW1 1598   0.975   0.944   2.087
  382SOL    HW2 1599   0.966   0.845   2.200
  383SOL     OW 1600   1.488   1.634   1.909
  383SOL    HW1 1601   1.395   1.620   1.893
  383SOL    HW2 1602   1.527   1.638   1.821
  384SOL     OW 1603   0.370   1.312   3.354
  384SOL    HW1 1604   0.354   1.390   3.301
  384SOL    HW2 1605   0.295   1.255   3.334
  385SOL     OW 1606   1.605   1.286   3.138
  385SOL    HW1 1607   1.666   1.269   3.210
  385SOL    HW2 1608   1.545   1.352   3.172
  386SOL     OW 1609   1.067   1.113   2.576
  386SOL    HW1 1610   0.993   1.064   2.611
  386SOL    HW2 1611   1.131   1.047   2.552
  387SOL     OW 1612   0.994   0.247   2.880
  387SOL    HW1 1613   1.007   0.235   2.786
  387SOL    HW2 1614   0.981   0.158   2.913
  388SOL     OW 1615   0.608   1.487   2.344
  388SOL    HW1 1616   0.658   1.439   2.278
  388SOL    HW2 1617   0.526   1.511   2.299
  389SOL     OW 1618   1.729   0.394   3.235
  389SOL    HW1 1619   1.804   0.453   3.235
  389SOL    HW2 1620   1.754   0.322   3.177
  390SOL     OW 1621   0.255   1.344   2.132
  390SOL    HW1 1622   0.160   1.336   2.122
  390SOL    HW2 1623   0.267   1.377   2.221
  391SOL     OW 1624   0.115   0.995   3.554
  391SOL    HW1 1625   0.056   1.050   3.605
  391SOL    HW2 1626   0.197   0.995   3.605
  392SOL     OW 1627   0.662   0.217   3.363
  392SOL    HW1 1628   0.739   0.189   3.315
  392SOL    HW2 1629   0.693   0.234   3.452
  393SOL     OW 1630   0.078   0.324   1.879
  393SOL    HW1 1631   4.488   0.326   1.909
  393SOL    HW2 1632   0.096   0.412   1.848
  394SOL     OW 1633   1.422   0.857   3.256
  394SOL    HW1 1634   1.371   0.917   3.201
  394SOL    HW2 1635   1.510   0.860   3.219
  395SOL     OW 1636   0.086   0.189   2.163
  395SOL    HW1 1637   0.077   0.273   2.117
  395SOL    HW2 1638   0.166   0.151   2.127
  396SOL     OW 1639   1.178   1.331   1.981
  396SOL    HW1 1640   1.087   1.303   1.981
  396SOL    HW2 1641   1.203   1.332   2.073
  397SOL     OW 1642   0.631   0.831   3.304
  397SOL    HW1 1643   0.687   0.907   3.287
  397SOL    HW2 1644   0.691   0.756   3.305
  398SOL     OW 1645   1.484   1.790   2.850
  398SOL    HW1 1646   1.503   1.859   2.786
  398SOL    HW2 1647   1.570   1.767   2.887
  399SOL     OW 1648   0.712   0.561   3.570
  399SOL    HW1 1649   0.768   0.615   3.625
  399SOL    HW2 1650   0.732   0.471   3.597
  400SOL     OW 1651   1.474   1.191   3.488
  400SOL    HW1 1652   1.463   1.208   3.581
  400SOL    HW2 1653   1.566   1.213   3.470
  401SOL     OW 1654   0.368   1.753   3.429
  401SOL    HW1 1655   0.284   1.794   3.411
  401SOL    HW2 1656   0.346   1.673   3.478
  402SOL     OW 1657   1.661   0.879   3.117
  402SOL    HW1 1658   1.656   0.794   3.072
  402SOL    HW2 1659   1.651   0.943   3.047
  403SOL     OW 1660   1.230   0.339   2.302
  403SOL    HW1 1661   1.300   0.276   2.289
  403SOL    HW2 1662   1.255   0.388   2.380
  404SOL     OW 1663   0.580   0.729   2.541
  404SOL    HW1 1664   0.623   0.814   2.528
  404SOL    HW2 1665   0.517   0.722   2.469
  405SOL     OW 1666   1.751   0.376   3.506
  405SOL    HW1 1667   1.739   0.389   3.412
  405SOL    HW2 1668   1.677   0.321   3.532
  406SOL     OW 1669   1.754   0.932   3.371
  406SOL    HW1 1670   1.738   1.026   3.385
  406SOL    HW2 1671   1.732   0.917   3.279
  407SOL     OW 1672   0.868   1.362   1.911
  407SOL    HW1 1673   0.828   1.388   1.995
  407SOL    HW2 1674   0.879   1.445   1.864
  408SOL     OW 1675   0.667   1.780   2.797
  408SOL    HW1 1676   0.650   1.872   2.779
  408SOL    HW2 1677   0.762   1.772   2.791
  409SOL     OW 1678   0.871   0.974   2.714
  409SOL    HW1 1679   0.924   0.903   2.751
  409SOL    HW2 1680   0.829   1.015   2.790
  410SOL     OW 1681   1.075   0.988   1.952
  410SOL    HW1 1682   1.054   1.041   1.875
  410SOL    HW2 1683   1.149   0.934   1.924
  411SOL     OW 1684   1.840   1.549   2.700
  411SOL    HW1 1685   1.760   1.541   2.647
  411SOL    HW2 1686   1.822   1.498   2.778
  412SOL     OW 1687   0.234   1.303   3.723
  412SOL    HW1 1688   0.142   1.283   3.709
  412SOL    HW2 1689   0.243   1.312   3.818
  413SOL     OW 1690   0.137   1.222   2.530
  413SOL    HW1 1691   0.160   1.182   2.614
  413SOL    HW2 1692   0.191   1.174   2.466
  414SOL     OW 1693   0.690   1.410   3.496
  414SOL    HW1 1694   0.610   1.368   3.528
  414SOL    HW2 1695   0.686   1.499   3.533
  415SOL     OW 1696   1.795   0.171   3.098
  415SOL    HW1 1697   1.787   0.077   3.116
  415SOL    HW2 1698   1.817   0.176   3.005
  416SOL     OW 1699   0.447   0.422   2.398
  416SOL    HW1 1700   0.455   0.355   2.330
  416SOL    HW2 1701   0.382   0.386   2.458
  417SOL     OW 1702   1.703   1.471   2.938
  417SOL    HW1 1703   1.620   1.456   2.894
  417SOL    HW2 1704   1.704   1.407   3.010
  418SOL     OW 1705   0.310   0.516   3.114
  418SOL    HW1 1706   0.373   0.451   3.144
  418SOL    HW2 1707   0.327   0.523   3.020
  419SOL     OW 1708   0.834   1.580   2.535
  419SOL    HW1 1709   0.809   1.647   2.472
  419SOL    HW2 1710   0.759   1.521   2.538
  420SOL     OW 1711   1.427   0.222   2.975
  420SOL    HW1 1712   1.464   0.150   3.027
  420SOL    HW2 1713   1.376   0.273   3.038
  421SOL     OW 1714   0.994   4.494   3.022
  421SOL    HW1 1715   0.962   4.404   3.018
  421SOL    HW2 1716   1.089   4.486   3.023
  422SOL     OW 1717   0.776   1.334   2.185
  422SOL    HW1 1718   0.751   1.242   2.195
  422SOL    HW2 1719   0.857   1.342   2.235
  423SOL     OW 1720   0.620   1.558   3.151
  423SOL    HW1 1721   0.619   1.641   3.200
  423SOL    HW2 1722   0.708   1.553   3.115
  424SOL     OW 1723   1.340   0.049   2.039
  424SOL    HW1 1724   1.376   4.474   1.991
  424SOL    HW2 1725   1.260   0.015   2.079
  425SOL     OW 1726   1.318   0.473   2.527
  425SOL    HW1 1727   1.263   0.551   2.529
  425SOL    HW2 1728   1.307   0.433   2.614
  426SOL     OW 1729   1.587   0.197   2.736
  426SOL    HW1 1730   1.529   0.214   2.811
  426SOL    HW2 1731   1.587   0.279   2.687
  427SOL     OW 1732   0.033   1.048   2.164
  427SOL    HW1 1733   0.124   1.020   2.150
  427SOL    HW2 1734   0.016   1.028   2.256
  428SOL     OW 1735   0.893   1.665   2.197
  428SOL    HW1 1736   0.817   1.650   2.141
  428SOL    HW2 1737   0.865   1.735   2.256
  429SOL     OW 1738   0.238   0.633   3.853
  429SOL    HW1 1739   0.166   0.600   3.905
  429SOL    HW2 1740   0.209   0.622   3.762
  430SOL     OW 1741   0.191   0.300   4.710
  430SOL    HW1 1742   0.217   0.263   4.795
  430SOL    HW2 1743   0.130   0.235   4.674
  431SOL     OW 1744   4.494   0.406   4.358
  431SOL    HW1 1745   4.423   0.442   4.410
  431SOL    HW2 1746   4.454   0.333   4.310
  432SOL     OW 1747   0.570   1.302   4.914
  432SOL    HW1 1748   0.485   1.306   4.871
  432SOL    HW2 1749   0.586   1.391   4.946
  433SOL     OW 1750   1.578   1.516   4.434
  433SOL    HW1 1751   1.534   1.492   4.515
  433SOL    HW2 1752   1.508   1.520   4.368
  434SOL     OW 1753   1.145   0.696   4.412
  434SOL    HW1 1754   1.187   0.782   4.405
  434SOL    HW2 1755   1.092   0.701   4.491
  435SOL     OW 1756   1.790   0.595   3.944
  435SOL    HW1 1757   1.758   0.592   3.855
  435SOL    HW2 1758   1.748   0.521   3.988
  436SOL     OW 1759   0.738   1.134   4.773
  436SOL    HW1 1760   0.674   1.174   4.833
  436SOL    HW2 1761   0.780   1.209   4.730
  437SOL     OW 1762   0.876   0.757   5.548
  437SOL    HW1 1763   0.862   0.826   5.613
  437SOL    HW2 1764   0.898   0.805   5.468
  438SOL     OW 1765   0.683   0.993   4.369
  438SOL    HW1 1766   0.751   0.987   4.436
  438SOL    HW2 1767   0.616   1.049   4.408
  439SOL     OW 1768   0.714   1.148   5.549
  439SOL    HW1 1769   0.763   1.224   5.581
  439SOL    HW2 1770   0.637   1.185   5.506
  440SOL     OW 1771   0.334   1.415   4.790
  440SOL    HW1 1772   0.254   1.389   4.743
  440SOL    HW2 1773   0.381   1.471   4.728
  441SOL     OW 1774   1.456   1.498   5.088
  441SOL    HW1 1775   1.512   1.574   5.101
  441SOL    HW2 1776   1.386   1.509   5.152
  442SOL     OW 1777   0.444   0.382   5.194
  442SOL    HW1 1778   0.533   0.345   5.191
  442SOL    HW2 1779   0.397   0.327   5.256
  443SOL     OW 1780   1.601   0.439   4.463
  443SOL    HW1 1781   1.522   0.452   4.410
  443SOL    HW2 1782   1.604   0.514   4.522
  444SOL     OW 1783   0.245   1.689   4.191
  444SOL    HW1 1784   0.226   1.774   4.232
  444SOL    HW2 1785   0.321   1.706   4.135
  445SOL     OW 1786   1.137   1.343   5.419
  445SOL    HW1 1787   1.179   1.335   5.505
  445SOL    HW2 1788   1.085   1.263   5.410
  446SOL     OW 1789   0.267   1.424   4.246
  446SOL    HW1 1790   0.249   1.518   4.251
  446SOL    HW2 1791   0.211   1.385   4.313
  447SOL     OW 1792   0.261   1.085   4.610
  447SOL    HW1 1793   0.273   0.993   4.632
  447SOL    HW2 1794   0.200   1.117   4.676
  448SOL     OW 1795   0.600   1.795   5.152
  448SOL    HW1 1796   0.518   1.777   5.197
  448SOL    HW2 1797   0.624   1.884   5.179
  449SOL     OW 1798   0.564   0.997   3.874
  449SOL    HW1 1799   0.617   1.034   3.803
  449SOL    HW2 1800   0.607   1.026   3.954
  450SOL     OW 1801   1.569   0.122   5.180
  450SOL    HW1 1802   1.618   0.185   5.127
  450SOL    HW2 1803   1.563   0.163   5.267
  451SOL     OW 1804   0.136   0.649   4.294
  451SOL    HW1 1805   0.088   0.570   4.321
  451SOL    HW2 1806   0.110   0.715   4.358
  452SOL     OW 1807   1.847   1.749   4.048
  452SOL    HW1 1808   1.913   1.728   4.114
  452SOL    HW2 1809   1.862   1.842   4.028
  453SOL     OW 1810   0.033   1.606   3.887
  453SOL    HW1 1811   0.013   1.513   3.880
  453SOL    HW2 1812   0.064   1.617   3.977
  454SOL     OW 1813   1.692   0.922   4.370
  454SOL    HW1 1814   1.772   0.876   4.344
  454SOL    HW2 1815   1.668   0.974   4.294
  455SOL     OW 1816   1.652   1.103   4.154
  455SOL    HW1 1817   1.739   1.101   4.113
  455SOL    HW2 1818   1.661   1.168   4.224
  456SOL     OW 1819   0.091   0.765   5.276
  456SOL    HW1 1820   0.176   0.746   5.237
  456SOL    HW2 1821   0.102   0.852   5.316
  457SOL     OW 1822   0.618   1.393   4.461
  457SOL    HW1 1823   0.573   1.309   4.469
  457SOL    HW2 1824   0.602   1.420   4.371
  458SOL     OW 1825   1.281   1.232   5.144
  458SOL    HW1 1826   1.311   1.164   5.084
  458SOL    HW2 1827   1.341   1.227   5.218
  459SOL     OW 1828   0.837   0.025   4.291
  459SOL    HW1 1829   0.875   0.108   4.260
  459SOL    HW2 1830   0.744   0.033   4.273
  460SOL     OW 1831   0.177   0.944   4.999
  460SOL    HW1 1832   0.267   0.919   4.981
  460SOL    HW2 1833   0.134   0.942   4.913
  461SOL     OW 1834   1.532   1.002   3.924
  461SOL    HW1 1835   1.463   0.945   3.957
  461SOL    HW2 1836   1.575   1.036   4.003
  462SOL     OW 1837   1.182   1.816   5.353
  462SOL    HW1 1838   1.186   1.878   5.280
  462SOL    HW2 1839   1.200   1.731   5.314
  463SOL     OW 1840   0.320   0.264   5.484
  463SOL    HW1 1841   0.386   0.311   5.535
  463SOL    HW2 1842   0.239   0.272   5.535
  464SOL     OW 1843   1.469   1.416   4.667
  464SOL    HW1 1844   1.402   1.435   4.734
  464SOL    HW2 1845   1.452   1.326   4.641
  465SOL     OW 1846   1.653   1.763   4.294
  465SOL    HW1 1847   1.629   1.723   4.211
  465SOL    HW2 1848   1.640   1.693   4.359
  466SOL     OW 1849   0.592   0.720   3.995
  466SOL    HW1 1850   0.590   0.807   3.954
  466SOL    HW2 1851   0.526   0.725   4.064
  467SOL     OW 1852   1.295   0.383   4.651
  467SOL    HW1 1853   1.207   0.351   4.630
  467SOL    HW2 1854   1.330   0.319   4.713
  468SOL     OW 1855   1.578   1.674   4.035
  468SOL    HW1 1856   1.670   1.696   4.026
  468SOL    HW2 1857   1.548   1.658   3.946
  469SOL     OW 1858   0.799   0.616   5.177
  469SOL    HW1 1859   0.770   0.586   5.263
  469SOL    HW2 1860   0.766   0.550   5.116
  470SOL     OW 1861   1.389   0.486   5.400
  470SOL    HW1 1862   1.394   0.530   5.485
  470SOL    HW2 1863   1.457   0.418   5.404
  471SOL     OW 1864   0.948   0.884   5.313
  471SOL    HW1 1865   1.004   0.818   5.272
  471SOL    HW2 1866   0.901   0.924   5.239
  472SOL     OW 1867   1.000   0.418   4.954
  472SOL    HW1 1868   0.909   0.425   4.982
  472SOL    HW2 1869   0.998   0.361   4.877
  473SOL     OW 1870   1.054   0.701   4.146
  473SOL    HW1 1871   1.076   0.692   4.239
  473SOL    HW2 1872   0.969   0.658   4.137
  474SOL     OW 1873   0.086   0.828   4.511
  474SOL    HW1 1874   0.171   0.824   4.554
  474SOL    HW2 1875   0.022   0.821   4.582
  475SOL     OW 1876   0.112   1.878   5.313
  475SOL    HW1 1877   0.111   1.852   5.405
  475SOL    HW2 1878   0.045   1.823   5.272
  476SOL     OW 1879   0.859   0.374   3.922
  476SOL    HW1 1880   0.917   0.408   3.854
  476SOL    HW2 1881   0.867   0.279   3.915
  477SOL     OW 1882   1.697   0.568   5.556
  477SOL    HW1 1883   1.666   0.644   5.507
  477SOL    HW2 1884   1.730   0.508   5.489
  478SOL     OW 1885   1.384   1.144   4.262
  478SOL    HW1 1886   1.464   1.134   4.210
  478SOL    HW2 1887   1.331   1.206   4.213
  479SOL     OW 1888   0.533   0.217   4.622
  479SOL    HW1 1889   0.554   0.231   4.715
  479SOL    HW2 1890   0.535   0.305   4.584
  480SOL     OW 1891   0.997   1.446   4.191
  480SOL    HW1 1892   0.970   1.522   4.139
  480SOL    HW2 1893   0.971   1.466   4.280
  481SOL     OW 1894   0.362   1.821   4.587
  481SOL    HW1 1895   0.403   1.735   4.599
  481SOL    HW2 1896   0.431   1.883   4.608
  482SOL     OW 1897   1.802   1.047   4.599
  482SOL    HW1 1898   1.751   1.028   4.520
  482SOL    HW2 1899   1.736   1.055   4.668
  483SOL     OW 1900   1.224   1.541   5.238
  483SOL    HW1 1901   1.212   1.469   5.300
  483SOL    HW2 1902   1.155   1.528   5.173
  484SOL     OW 1903   0.304   0.948   3.991
  484SOL    HW1 1904   0.385   0.974   3.946
  484SOL    HW2 1905   0.296   0.854   3.974
  485SOL     OW 1906   1.484   0.754   4.440
  485SOL    HW1 1907   1.481   0.714   4.527
  485SOL    HW2 1908   1.562   0.809   4.442
  486SOL     OW 1909   0.474   1.269   5.459
  486SOL    HW1 1910   0.448   1.276   5.368
  486SOL    HW2 1911   0.391   1.265   5.508
  487SOL     OW 1912   1.128   1.779   3.951
  487SOL    HW1 1913   1.051   1.741   3.993
  487SOL    HW2 1914   1.151   1.714   3.884
  488SOL     OW 1915   0.147   0.263   5.243
  488SOL    HW1 1916   0.122   0.347   5.203
  488SOL    HW2 1917   0.192   0.288   5.324
  489SOL     OW 1918   1.631   1.385   3.819
  489SOL    HW1 1919   1.589   1.469   3.803
  489SOL    HW2 1920   1.564   1.320   3.796
  490SOL     OW 1921   0.469   1.741   4.036
  490SOL    HW1 1922   0.515   1.795   4.101
  490SOL    HW2 1923   0.538   1.702   3.983
  491SOL     OW 1924   1.435   0.150   4.154
  491SOL    HW1 1925   1.418   0.093   4.079
  491SOL    HW2 1926   1.527   0.137   4.174
  492SOL     OW 1927   0.241   1.785   4.941
  492SOL    HW1 1928   0.288   1.706   4.970
  492SOL    HW2 1929   0.200   1.759   4.858
  493SOL     OW 1930   0.942   1.700   4.618
  493SOL    HW1 1931   1.023   1.653   4.639
  493SOL    HW2 1932   0.902   1.650   4.547
  494SOL     OW 1933   0.398   0.683   4.195
  494SOL    HW1 1934   0.422   0.592   4.212
  494SOL    HW2 1935   0.306   0.689   4.220
  495SOL     OW 1936   1.523   0.233   5.446
  495SOL    HW1 1937   1.522   0.253   5.539
  495SOL    HW2 1938   1.441   0.186   5.431
  496SOL     OW 1939   0.635   0.124   3.839
  496SOL    HW1 1940   0.722   0.087   3.855
  496SOL    HW2 1941   0.602   0.076   3.763
  497SOL     OW 1942   0.770   0.276   5.481
  497SOL    HW1 1943   0.841   0.212   5.470
  497SOL    HW2 1944   0.730   0.253   5.565
  498SOL     OW 1945   0.875   1.525   4.920
  498SOL    HW1 1946   0.857   1.486   4.835
  498SOL    HW2 1947   0.944   1.470   4.958
  499SOL     OW 1948   1.337   0.591   5.151
  499SOL    HW1 1949   1.365   0.564   5.239
  499SOL    HW2 1950   1.372   0.680   5.141
  500SOL     OW 1951   0.820   1.385   4.675
  500SOL    HW1 1952   0.905   1.376   4.632
  500SOL    HW2 1953   0.758   1.395   4.603
  501SOL     OW 1954   0.930   0.533   4.618
  501SOL    HW1 1955   0.911   0.527   4.524
  501SOL    HW2 1956   0.955   0.444   4.642
  502SOL     OW 1957   0.576   0.079   4.231
  502SOL    HW1 1958   0.493   0.063   4.274
  502SOL    HW2 1959   0.556   0.140   4.160
  503SOL     OW 1960   1.430   1.204   3.762
  503SOL    HW1 1961   1.458   1.129   3.814
  503SOL    HW2 1962   1.344   1.227   3.797
  504SOL     OW 1963   0.304   0.066   3.917
  504SOL    HW1 1964   0.384   0.118   3.924
  504SOL    HW2 1965   0.314   4.497   3.982
  505SOL     OW 1966   0.969   0.242   4.184
  505SOL    HW1 1967   0.914   0.310   4.145
  505SOL    HW2 1968   1.058   0.273   4.173
  506SOL     OW 1969   1.080   0.690   5.177
  506SOL    HW1 1970   1.013   0.622   5.176
  506SOL    HW2 1971   1.163   0.642   5.167
  507SOL     OW 1972   1.216   1.577   4.521
  507SOL    HW1 1973   1.229   1.640   4.450
  507SOL    HW2 1974   1.288   1.594   4.582
  508SOL     OW 1975   0.473   1.156   4.451
  508SOL    HW1 1976   0.407   1.136   4.518
  508SOL    HW2 1977   0.427   1.142   4.368
  509SOL     OW 1978   1.260   1.791   4.337
  509SOL    HW1 1979   1.309   1.853   4.284
  509SOL    HW2 1980   1.191   1.843   4.378
  510SOL     OW 1981   1.023   0.532   3.749
  510SOL    HW1 1982   0.979   0.615   3.733
  510SOL    HW2 1983   1.082   0.550   3.822
  511SOL     OW 1984   0.079   0.497   5.127
  511SOL    HW1 1985   0.148   0.511   5.062
  511SOL    HW2 1986   0.047   0.584   5.148
  512SOL     OW 1987   0.550   0.256   4.894
  512SOL    HW1 1988   0.579   0.176   4.938
  512SOL    HW2 1989   0.455   0.257   4.905
  513SOL     OW 1990   0.866   0.506   4.355
  513SOL    HW1 1991   0.834   0.541   4.272
  513SOL    HW2 1992   0.811   0.429   4.371
  514SOL     OW 1993   0.929   0.002   4.549
  514SOL    HW1 1994   0.901   0.012   4.459
  514SOL    HW2 1995   0.956   4.410   4.556
  515SOL     OW 1996   1.439   1.157   4.580
  515SOL    HW1 1997   1.368   1.092   4.582
  515SOL    HW2 1998   1.461   1.165   4.487
  516SOL     OW 1999   1.465   0.613   4.682
  516SOL    HW1 2000   1.406   0.538   4.682
  516SOL    HW2 2001   1.518   0.603   4.761
  517SOL     OW 2002   1.836   0.807   4.112
  517SOL    HW1 2003   1.897   0.760   4.169
  517SOL    HW2 2004   1.817   0.744   4.042
  518SOL     OW 2005   0.495   1.424   3.874
  518SOL    HW1 2006   0.416   1.398   3.920
  518SOL    HW2 2007   0.490   1.381   3.789
  519SOL     OW 2008   1.685   1.266   4.362
  519SOL    HW1 2009   1.779   1.264   4.380
  519SOL    HW2 2010   1.658   1.355   4.386
  520SOL     OW 2011   1.394   0.577   3.792
  520SOL    HW1 2012   1.331   0.559   3.862
  520SOL    HW2 2013   1.480   0.564   3.833
  521SOL     OW 2014   0.510   0.260   4.033
  521SOL    HW1 2015   0.567   0.216   3.971
  521SOL    HW2 2016   0.493   0.346   3.993
  522SOL     OW 2017   1.742   1.239   5.272
  522SOL    HW1 2018   1.828   1.201   5.257
  522SOL    HW2 2019   1.760   1.328   5.303
  523SOL     OW 2020   1.051   1.355   5.056
  523SOL    HW1 2021   0.975   1.322   5.104
  523SOL    HW2 2022   1.126   1.311   5.098
  524SOL     OW 2023   1.599   1.611   5.386
  524SOL    HW1 2024   1.595   1.648   5.298
  524SOL    HW2 2025   1.682   1.561   5.387
  525SOL     OW 2026   1.141   1.219   4.826
  525SOL    HW1 2027   1.078   1.254   4.888
  525SOL    HW2 2028   1.111   1.252   4.741
  526SOL     OW 2029   1.620   1.094   4.799
  526SOL    HW1 2030   1.613   1.157   4.871
  526SOL    HW2 2031   1.546   1.114   4.742
  527SOL     OW 2032   0.893   0.139   5.102
  527SOL    HW1 2033   0.918   0.090   5.024
  527SOL    HW2 2034   0.976   0.164   5.143
  528SOL     OW 2035   0.983   1.115   5.448
  528SOL    HW1 2036   0.893   1.132   5.474
  528SOL    HW2 2037   0.979   1.036   5.395
  529SOL     OW 2038   0.710   1.064   4.099
  529SOL    HW1 2039   0.696   1.041   4.190
  529SOL    HW2 2040   0.785   1.010   4.071
  530SOL     OW 2041   0.433   0.834   4.975
  530SOL    HW1 2042   0.500   0.845   5.044
  530SOL    HW2 2043   0.381   0.760   5.004
  531SOL     OW 2044   1.267   0.373   5.002
  531SOL    HW1 2045   1.300   0.452   5.045
  531SOL    HW2 2046   1.177   0.395   4.977
  532SOL     OW 2047   0.066   1.567   5.076
  532SOL    HW1 2048   0.042   1.658   5.062
  532SOL    HW2 2049   0.161   1.566   5.077
  533SOL     OW 2050   0.328   1.115   4.217
  533SOL    HW1 2051   0.339   1.192   4.161
  533SOL    HW2 2052   0.325   1.042   4.155
  534SOL     OW 2053   0.557   0.507   4.574
  534SOL    HW1 2054   0.566   0.569   4.501
  534SOL    HW2 2055   0.618   0.539   4.640
  535SOL     OW 2056   1.246   1.351   4.116
  535SOL    HW1 2057   1.302   1.421   4.149
  535SOL    HW2 2058   1.159   1.372   4.149
  536SOL     OW 2059   1.294   1.463   4.870
  536SOL    HW1 2060   1.347   1.467   4.950
  536SOL    HW2 2061   1.239   1.385   4.881
  537SOL     OW 2062   1.575   0.623   4.204
  537SOL    HW1 2063   1.525   0.661   4.276
  537SOL    HW2 2064   1.620   0.698   4.164
  538SOL     OW 2065   0.343   1.536   5.030
  538SOL    HW1 2066   0.333   1.486   4.949
  538SOL    HW2 2067   0.438   1.547   5.039
  539SOL     OW 2068   0.505   0.748   5.401
  539SOL    HW1 2069   0.543   0.795   5.327
  539SOL    HW2 2070   0.571   0.683   5.424
  540SOL     OW 2071   1.612   0.782   5.414
  540SOL    HW1 2072   1.526   0.823   5.407
  540SOL    HW2 2073   1.664   0.822   5.345
  541SOL     OW 2074   0.984   0.097   5.430
  541SOL    HW1 2075   1.040   0.166   5.394
  541SOL    HW2 2076   1.005   0.020   5.378
  542SOL     OW 2077   0.496   0.037   5.480
  542SOL    HW1 2078   0.483   4.490   5.398
  542SOL    HW2 2079   0.433   0.109   5.477
  543SOL     OW 2080   0.591   0.878   4.752
  543SOL    HW1 2081   0.628   0.966   4.756
  543SOL    HW2 2082   0.536   0.872   4.830
  544SOL     OW 2083   1.335   0.857   4.739
  544SOL    HW1 2084   1.247   0.838   4.707
  544SOL    HW2 2085   1.384   0.776   4.725
  545SOL     OW 2086   1.193   0.538   3.975
  545SOL    HW1 2087   1.204   0.460   4.030
  545SOL    HW2 2088   1.152   0.602   4.033
  546SOL     OW 2089   0.281   0.209   4.958
  546SOL    HW1 2090   0.234   0.228   5.040
  546SOL    HW2 2091   0.332   0.131   4.977
  547SOL     OW 2092   4.500   1.308   5.015
  547SOL    HW1 2093   0.049   1.259   5.081
  547SOL    HW2 2094   0.017   1.400   5.036
  548SOL     OW 2095   0.716   0.627   4.768
  548SOL    HW1 2096   0.794   0.615   4.715
  548SOL    HW2 2097   0.688   0.717   4.749
  549SOL     OW 2098   1.743   0.958   5.587
  549SOL    HW1 2099   1.700   0.891   5.535
  549SOL    HW2 2100   1.681   0.978   5.657
  550SOL     OW 2101   0.328   0.068   4.343
  550SOL    HW1 2102   0.301   0.157   4.368
  550SOL    HW2 2103   0.313   0.016   4.422
  551SOL     OW 2104   1.626   0.391   4.070
  551SOL    HW1 2105   1.648   0.324   4.134
  551SOL    HW2 2106   1.599   0.466   4.123
  552SOL     OW 2107   1.040   0.770   4.684
  552SOL    HW1 2108   1.024   0.785   4.777
  552SOL    HW2 2109   1.006   0.682   4.668
  553SOL     OW 2110   0.979   1.566   5.446
  553SOL    HW1 2111   0.963   1.610   5.362
  553SOL    HW2 2112   1.021   1.484   5.423
  554SOL     OW 2113   1.848   1.489   5.339
  554SOL    HW1 2114   1.867   1.573   5.297
  554SOL    HW2 2115   1.926   1.470   5.391
  555SOL     OW 2116   0.352   0.935   5.540
  555SOL    HW1 2117   0.419   0.968   5.599
  555SOL    HW2 2118   0.395   0.866   5.490
  556SOL     OW 2119   1.525   0.258   3.850
  556SOL    HW1 2120   1.461   0.198   3.889
  556SOL    HW2 2121   1.559   0.308   3.923
  557SOL     OW 2122   1.283   0.826   3.748
  557SOL    HW1 2123   1.325   0.740   3.753
  557SOL    HW2 2124   1.317   0.864   3.667
  558SOL     OW 2125   1.071   1.343   4.583
  558SOL    HW1 2126   1.078   1.271   4.520
  558SOL    HW2 2127   1.127   1.412   4.547
  559SOL     OW 2128   0.320   0.814   4.661
  559SOL    HW1 2129   0.414   0.832   4.664
  559SOL    HW2 2130   0.313   0.721   4.682
  560SOL     OW 2131   0.323   0.535   4.705
  560SOL    HW1 2132   0.277   0.453   4.691
  560SOL    HW2 2133   0.403   0.527   4.652
  561SOL     OW 2134   1.144   0.365   5.433
  561SOL    HW1 2135   1.088   0.425   5.483
  561SOL    HW2 2136   1.224   0.415   5.418
  562SOL     OW 2137   1.142   0.219   5.200
  562SOL    HW1 2138   1.145   0.282   5.272
  562SOL    HW2 2139   1.192   0.261   5.130
  563SOL     OW 2140   4.491   1.316   3.938
  563SOL    HW1 2141   4.399   1.334   3.919
  563SOL    HW2 2142   4.494   1.224   3.962
  564SOL     OW 2143   0.110   1.760   4.668
  564SOL    HW1 2144   0.067   1.722   4.591
  564SOL    HW2 2145   0.196   1.788   4.636
  565SOL     OW 2146   0.491   1.575   4.631
  565SOL    HW1 2147   0.560   1.637   4.654
  565SOL    HW2 2148   0.534   1.513   4.571
  566SOL     OW 2149   0.968   0.791   4.945
  566SOL    HW1 2150   1.028   0.773   5.018
  566SOL    HW2 2151   0.889   0.742   4.967
  567SOL     OW 2152   0.012   0.555   4.803
  567SOL    HW1 2153   0.103   0.533   4.784
  567SOL    HW2 2154   4.483   0.489   4.866
  568SOL     OW 2155   0.176   0.545   5.443
  568SOL    HW1 2156   0.266   0.534   5.411
  568SOL    HW2 2157   0.142   0.619   5.394
  569SOL     OW 2158   1.383   0.929   5.379
  569SOL    HW1 2159   1.404   1.023   5.375
  569SOL    HW2 2160   1.378   0.902   5.287
  570SOL     OW 2161   0.813   0.580   4.092
  570SOL    HW1 2162   0.819   0.509   4.029
  570SOL    HW2 2163   0.739   0.633   4.061
  571SOL     OW 2164   1.634   0.601   4.900
  571SOL    HW1 2165   1.624   0.543   4.975
  571SOL    HW2 2166   1.723   0.585   4.868
  572SOL     OW 2167   0.272   1.564   5.461
  572SOL    HW1 2168   0.205   1.610   5.512
  572SOL    HW2 2169   0.261   1.472   5.485
  573SOL     OW 2170   0.716   0.457   4.978
  573SOL    HW1 2171   0.661   0.382   4.954
  573SOL    HW2 2172   0.709   0.517   4.904
  574SOL     OW 2173   0.919   1.678   5.196
  574SOL    HW1 2174   0.896   1.636   5.114
  574SOL    HW2 2175   0.912   1.771   5.178
  575SOL     OW 2176   0.468   0.491   3.897
  575SOL    HW1 2177   0.531   0.559   3.922
  575SOL    HW2 2178   0.386   0.539   3.884
  576SOL     OW 2179   0.155   1.144   5.179
  576SOL    HW1 2180   0.141   1.098   5.262
  576SOL    HW2 2181   0.165   1.074   5.115
  577SOL     OW 2182   1.317   1.042   4.939
  577SOL    HW1 2183   1.334   0.977   4.870
  577SOL    HW2 2184   1.254   1.102   4.900
  578SOL     OW 2185   1.320   0.856   4.024
  578SOL    HW1 2186   1.247   0.828   4.079
  578SOL    HW2 2187   1.289   0.844   3.934
  579SOL     OW 2188   1.718   1.735   4.833
  579SOL    HW1 2189   1.785   1.765   4.770
  579SOL    HW2 2190   1.720   1.640   4.825
  580SOL     OW 2191   1.240   1.735   4.828
  580SOL    HW1 2192   1.322   1.761   4.785
  580SOL    HW2 2193   1.252   1.642   4.847
  581SOL     OW 2194   0.080   1.194   4.776
  581SOL    HW1 2195   0.052   1.219   4.864
  581SOL    HW2 2196   0.050   1.265   4.720
  582SOL     OW 2197   0.681   1.675   5.467
  582SOL    HW1 2198   0.618   1.746   5.454
  582SOL    HW2 2199   0.751   1.693   5.404
  583SOL     OW 2200   1.723   0.128   4.201
  583SOL    HW1 2201   1.787   0.145   4.132
  583SOL    HW2 2202   1.762   0.057   4.253
  584SOL     OW 2203   1.395   1.568   4.219
  584SOL    HW1 2204   1.451   1.602   4.149
  584SOL    HW2 2205   1.342   1.643   4.247
  585SOL     OW 2206   0.113   1.806   5.579
  585SOL    HW1 2207   0.073   1.736   5.631
  585SOL    HW2 2208   0.179   1.844   5.637
  586SOL     OW 2209   1.280   0.933   4.396
  586SOL    HW1 2210   1.354   0.872   4.406
  586SOL    HW2 2211   1.315   1.004   4.341
  587SOL     OW 2212   0.798   1.280   5.144
  587SOL    HW1 2213   0.772   1.322   5.225
  587SOL    HW2 2214   0.725   1.296   5.084
  588SOL     OW 2215   0.673   1.630   3.880
  588SOL    HW1 2216   0.685   1.644   3.786
  588SOL    HW2 2217   0.618   1.551   3.885
  589SOL     OW 2218   1.624   1.718   5.122
  589SOL    HW1 2219   1.648   1.730   5.030
  589SOL    HW2 2220   1.660   1.795   5.166
  590SOL     OW 2221   1.841   0.146   4.688
  590SOL    HW1 2222   1.871   0.068   4.643
  590SOL    HW2 2223   1.755   0.164   4.651
  591SOL     OW 2224   0.251   0.319   4.430
  591SOL    HW1 2225   0.166   0.354   4.404
  591SOL    HW2 2226   0.244   0.309   4.525
  592SOL     OW 2227   1.209   1.598   3.758
  592SOL    HW1 2228   1.197   1.507   3.785
  592SOL    HW2 2229   1.142   1.612   3.691
  593SOL     OW 2230   0.826   1.010   5.102
  593SOL    HW1 2231   0.867   1.001   5.016
  593SOL    HW2 2232   0.819   1.104   5.116
  594SOL     OW 2233   0.915   0.912   4.016
  594SOL    HW1 2234   0.975   0.945   3.949
  594SOL    HW2 2235   0.966   0.845   4.062
  595SOL     OW 2236   1.488   1.633   3.771
  595SOL    HW1 2237   1.395   1.620   3.755
  595SOL    HW2 2238   1.527   1.637   3.683
  596SOL     OW 2239   0.370   1.312   5.215
  596SOL    HW1 2240   0.354   1.391   5.163
  596SOL    HW2 2241   0.296   1.255   5.196
  597SOL     OW 2242   1.613   1.284   5.005
  597SOL    HW1 2243   1.668   1.267   5.082
  597SOL    HW2 2244   1.549   1.349   5.035
  598SOL     OW 2245   1.067   1.113   4.438
  598SOL    HW1 2246   0.993   1.064   4.473
  598SOL    HW2 2247   1.131   1.047   4.414
  599SOL     OW 2248   0.994   0.247   4.742
  599SOL    HW1 2249   1.007   0.235   4.648
  599SOL    HW2 2250   0.981   0.158   4.775
  600SOL     OW 2251   0.608   1.487   4.206
  600SOL    HW1 2252   0.658   1.439   4.140
  600SOL    HW2 2253   0.526   1.510   4.162
  601SOL     OW 2254   1.729   0.395   5.097
  601SOL    HW1 2255   1.804   0.453   5.097
  601SOL    HW2 2256   1.754   0.322   5.039
  602SOL     OW 2257   0.255   1.344   3.994
  602SOL    HW1 2258   0.160   1.336   3.984
  602SOL    HW2 2259   0.267   1.377   4.083
  603SOL     OW 2260   0.115   0.995   5.417
  603SOL    HW1 2261   0.055   1.050   5.467
  603SOL    HW2 2262   0.196   0.995   5.467
  604SOL     OW 2263   0.662   0.217   5.225
  604SOL    HW1 2264   0.740   0.189   5.177
  604SOL    HW2 2265   0.693   0.234   5.314
  605SOL     OW 2266   0.078   0.324   3.741
  605SOL    HW1 2267   4.487   0.326   3.771
  605SOL    HW2 2268   0.096   0.412   3.710
  606SOL     OW 2269   1.421   0.857   5.118
  606SOL    HW1 2270   1.371   0.917   5.063
  606SOL    HW2 2271   1.510   0.859   5.081
  607SOL     OW 2272   0.087   0.189   4.025
  607SOL    HW1 2273   0.077   0.273   3.979
  607SOL    HW2 2274   0.167   0.151   3.989
  608SOL     OW 2275   1.178   1.331   3.843
  608SOL    HW1 2276   1.087   1.303   3.843
  608SOL    HW2 2277   1.203   1.332   3.935
  609SOL     OW 2278   0.630   0.830   5.166
  609SOL    HW1 2279   0.686   0.906   5.149
  609SOL    HW2 2280   0.691   0.756   5.166
  610SOL     OW 2281   1.477   1.801   4.709
  610SOL    HW1 2282   1.501   1.870   4.647
  610SOL    HW2 2283   1.560   1.774   4.748
  611SOL     OW 2284   0.712   0.560   5.432
  611SOL    HW1 2285   0.768   0.615   5.487
  611SOL    HW2 2286   0.732   0.471   5.459
  612SOL     OW 2287   1.472   1.190   5.351
  612SOL    HW1 2288   1.463   1.209   5.444
  612SOL    HW2 2289   1.563   1.211   5.331
  613SOL     OW 2290   0.368   1.753   5.291
  613SOL    HW1 2291   0.284   1.794   5.273
  613SOL    HW2 2292   0.346   1.673   5.340
  614SOL     OW 2293   1.660   0.878   4.978
  614SOL    HW1 2294   1.656   0.793   4.934
  614SOL    HW2 2295   1.651   0.942   4.908
  615SOL     OW 2296   1.230   0.339   4.164
  615SOL    HW1 2297   1.300   0.276   4.151
  615SOL    HW2 2298   1.255   0.388   4.242
  616SOL     OW 2299   0.580   0.729   4.403
  616SOL    HW1 2300   0.623   0.814   4.390
  616SOL    HW2 2301   0.517   0.722   4.331
  617SOL     OW 2302   1.751   0.376   5.368
  617SOL    HW1 2303   1.739   0.389   5.274
  617SOL    HW2 2304   1.677   0.321   5.394
  618SOL     OW 2305   1.749   0.930   5.233
  618SOL    HW1 2306   1.734   1.024   5.246
  618SOL    HW2 2307   1.729   0.915   5.141
  619SOL     OW 2308   0.868   1.362   3.774
  619SOL    HW1 2309   0.828   1.388   3.857
  619SOL    HW2 2310   0.879   1.445   3.726
  620SOL     OW 2311   0.667   1.780   4.660
  620SOL    HW1 2312   0.650   1.872   4.641
  620SOL    HW2 2313   0.763   1.772   4.653
  621SOL     OW 2314   0.871   0.974   4.576
  621SOL    HW1 2315   0.924   0.903   4.613
  621SOL    HW2 2316   0.829   1.015   4.652
  622SOL     OW 2317   1.075   0.989   3.814
  622SOL    HW1 2318   1.054   1.041   3.737
  622SOL    HW2 2319   1.149   0.934   3.786
  623SOL     OW 2320   1.848   1.532   4.562
  623SOL    HW1 2321   1.765   1.530   4.514
  623SOL    HW2 2322   1.829   1.484   4.643
  624SOL     OW 2323   0.235   1.303   5.585
  624SOL    HW1 2324   0.142   1.284   5.571
  624SOL    HW2 2325   0.243   1.312   5.680
  625SOL     OW 2326   0.138   1.223   4.392
  625SOL    HW1 2327   0.159   1.183   4.476
  625SOL    HW2 2328   0.191   1.174   4.329
  626SOL     OW 2329   0.690   1.411   5.359
  626SOL    HW1 2330   0.610   1.368   5.390
  626SOL    HW2 2331   0.686   1.499   5.395
  627SOL     OW 2332   1.795   0.171   4.960
  627SOL    HW1 2333   1.788   0.077   4.978
  627SOL    HW2 2334   1.817   0.176   4.867
  628SOL     OW 2335   0.447   0.422   4.260
  628SOL    HW1 2336   0.455   0.355   4.192
  628SOL    HW2 2337   0.382   0.386   4.320
  629SOL     OW 2338   1.706   1.465   4.802
  629SOL    HW1 2339   1.622   1.447   4.759
  629SOL    HW2 2340   1.707   1.406   4.877
  630SOL     OW 2341   0.310   0.517   4.975
  630SOL    HW1 2342   0.373   0.451   5.006
  630SOL    HW2 2343   0.327   0.524   4.881
  631SOL     OW 2344   0.834   1.580   4.397
  631SOL    HW1 2345   0.809   1.647   4.334
  631SOL    HW2 2346   0.759   1.521   4.400
  632SOL     OW 2347   1.427   0.222   4.837
  632SOL    HW1 2348   1.464   0.150   4.888
  632SOL    HW2 2349   1.376   0.273   4.900
  633SOL     OW 2350   0.994   4.494   4.884
  633SOL    HW1 2351   0.961   4.404   4.880
  633SOL    HW2 2352   1.089   4.486   4.885
  634SOL     OW 2353   0.776   1.334   4.047
  634SOL    HW1 2354   0.751   1.242   4.057
  634SOL    HW2 2355   0.857   1.342   4.097
  635SOL     OW 2356   0.620   1.558   5.013
  635SOL    HW1 2357   0.619   1.640   5.062
  635SOL    HW2 2358   0.708   1.553   4.977
  636SOL     OW 2359   1.340   0.049   3.901
  636SOL    HW1 2360   1.376   4.474   3.853
  636SOL    HW2 2361   1.260   0.015   3.941
  637SOL     OW 2362   1.318   0.473   4.389
  637SOL    HW1 2363   1.263   0.551   4.391
  637SOL    HW2 2364   1.307   0.433   4.476
  638SOL     OW 2365   1.587   0.197   4.598
  638SOL    HW1 2366   1.529   0.214   4.672
  638SOL    HW2 2367   1.587   0.279   4.549
  639SOL     OW 2368   0.033   1.048   4.026
  639SOL    HW1 2369   0.124   1.020   4.012
  639SOL    HW2 2370   0.016   1.028   4.118
  640SOL     OW 2371   0.893   1.665   4.059
  640SOL    HW1 2372   0.817   1.650   4.003
  640SOL    HW2 2373   0.865   1.736   4.118
  641SOL     OW 2374   0.238   0.632   5.715
  641SOL    HW1 2375   0.166   0.600   5.767
  641SOL    HW2 2376   0.209   0.622   5.624
  642SOL     OW 2377   0.191   0.300   6.572
  642SOL    HW1 2378   0.217   0.263   6.657
  642SOL    HW2 2379   0.130   0.235   6.536
  643SOL     OW 2380   4.494   0.405   6.220
  643SOL    HW1 2381   4.423   0.442   6.272
  643SOL    HW2 2382   4.455   0.333   6.172
  644SOL     OW 2383   0.570   1.302   6.776
  644SOL    HW1 2384   0.485   1.307   6.733
  644SOL    HW2 2385   0.586   1.390   6.808
  645SOL     OW 2386   1.563   1.503   6.297
  645SOL    HW1 2387   1.525   1.480   6.382
  645SOL    HW2 2388   1.488   1.506   6.238
  646SOL     OW 2389   1.145   0.696   6.274
  646SOL    HW1 2390   1.187   0.782   6.267
  646SOL    HW2 2391   1.092   0.701   6.353
  647SOL     OW 2392   1.791   0.594   5.807
  647SOL    HW1 2393   1.758   0.591   5.717
  647SOL    HW2 2394   1.748   0.520   5.850
  648SOL     OW 2395   0.738   1.134   6.635
  648SOL    HW1 2396   0.674   1.174   6.695
  648SOL    HW2 2397   0.780   1.209   6.592
  649SOL     OW 2398   0.876   0.757   7.410
  649SOL    HW1 2399   0.863   0.826   7.476
  649SOL    HW2 2400   0.898   0.805   7.330
  650SOL     OW 2401   0.683   0.993   6.231
  650SOL    HW1 2402   0.751   0.987   6.298
  650SOL    HW2 2403   0.616   1.049   6.270
  651SOL     OW 2404   0.714   1.148   7.411
  651SOL    HW1 2405   0.763   1.224   7.443
  651SOL    HW2 2406   0.637   1.185   7.368
  652SOL     OW 2407   0.334   1.415   6.652
  652SOL    HW1 2408   0.254   1.390   6.605
  652SOL    HW2 2409   0.381   1.471   6.590
  653SOL     OW 2410   1.458   1.503   6.951
  653SOL    HW1 2411   1.513   1.581   6.961
  653SOL    HW2 2412   1.388   1.514   7.015
  654SOL     OW 2413   0.444   0.382   7.056
  654SOL    HW1 2414   0.533   0.345   7.053
  654SOL    HW2 2415   0.397   0.327   7.118
  655SOL     OW 2416   1.601   0.439   6.325
  655SOL    HW1 2417   1.522   0.452   6.272
  655SOL    HW2 2418   1.603   0.513   6.385
  656SOL     OW 2419   0.246   1.689   6.054
  656SOL    HW1 2420   0.227   1.773   6.095
  656SOL    HW2 2421   0.321   1.706   5.997
  657SOL     OW 2422   1.138   1.343   7.281
  657SOL    HW1 2423   1.179   1.335   7.367
  657SOL    HW2 2424   1.085   1.263   7.273
  658SOL     OW 2425   0.267   1.424   6.109
  658SOL    HW1 2426   0.249   1.517   6.113
  658SOL    HW2 2427   0.210   1.385   6.176
  659SOL     OW 2428   0.260   1.085   6.472
  659SOL    HW1 2429   0.273   0.993   6.494
  659SOL    HW2 2430   0.199   1.117   6.538
  660SOL     OW 2431   0.600   1.795   7.013
  660SOL    HW1 2432   0.517   1.778   7.058
  660SOL    HW2 2433   0.624   1.883   7.040
  661SOL     OW 2434   0.564   0.997   5.736
  661SOL    HW1 2435   0.617   1.034   5.665
  661SOL    HW2 2436   0.607   1.026   5.816
  662SOL     OW 2437   1.569   0.123   7.042
  662SOL    HW1 2438   1.618   0.186   6.990
  662SOL    HW2 2439   1.563   0.163   7.129
  663SOL     OW 2440   0.136   0.649   6.155
  663SOL    HW1 2441   0.089   0.570   6.182
  663SOL    HW2 2442   0.110   0.715   6.220
  664SOL     OW 2443   0.033   1.606   5.748
  664SOL    HW1 2444   0.013   1.513   5.741
  664SOL    HW2 2445   0.063   1.618   5.839
  665SOL     OW 2446   1.693   0.922   6.232
  665SOL    HW1 2447   1.771   0.875   6.202
  665SOL    HW2 2448   1.667   0.976   6.157
  666SOL     OW 2449   1.651   1.102   6.014
  666SOL    HW1 2450   1.737   1.098   5.973
  666SOL    HW2 2451   1.660   1.167   6.084
  667SOL     OW 2452   0.091   0.765   7.139
  667SOL    HW1 2453   0.176   0.746   7.099
  667SOL    HW2 2454   0.102   0.852   7.178
  668SOL     OW 2455   0.618   1.393   6.323
  668SOL    HW1 2456   0.573   1.309   6.331
  668SOL    HW2 2457   0.602   1.420   6.233
  669SOL     OW 2458   1.282   1.233   7.005
  669SOL    HW1 2459   1.312   1.165   6.945
  669SOL    HW2 2460   1.342   1.228   7.079
  670SOL     OW 2461   0.837   0.025   6.152
  670SOL    HW1 2462   0.875   0.108   6.122
  670SOL    HW2 2463   0.744   0.033   6.135
  671SOL     OW 2464   0.177   0.944   6.861
  671SOL    HW1 2465   0.267   0.919   6.843
  671SOL    HW2 2466   0.134   0.941   6.775
  672SOL     OW 2467   1.532   1.002   5.786
  672SOL    HW1 2468   1.463   0.944   5.818
  672SOL    HW2 2469   1.574   1.035   5.865
  673SOL     OW 2470   1.181   1.817   7.215
  673SOL    HW1 2471   1.186   1.879   7.143
  673SOL    HW2 2472   1.201   1.732   7.175
  674SOL     OW 2473   0.320   0.264   7.345
  674SOL    HW1 2474   0.386   0.311   7.397
  674SOL    HW2 2475   0.239   0.272   7.397
  675SOL     OW 2476   1.468   1.412   6.536
  675SOL    HW1 2477   1.401   1.432   6.602
  675SOL    HW2 2478   1.450   1.322   6.510
  676SOL     OW 2479   1.651   1.708   6.138
  676SOL    HW1 2480   1.612   1.679   6.055
  676SOL    HW2 2481   1.627   1.640   6.201
  677SOL     OW 2482   0.592   0.720   5.857
  677SOL    HW1 2483   0.590   0.807   5.816
  677SOL    HW2 2484   0.526   0.725   5.926
  678SOL     OW 2485   1.295   0.383   6.513
  678SOL    HW1 2486   1.207   0.351   6.492
  678SOL    HW2 2487   1.329   0.318   6.575
  679SOL     OW 2488   1.560   1.662   5.880
  679SOL    HW1 2489   1.651   1.679   5.856
  679SOL    HW2 2490   1.515   1.648   5.797
  680SOL     OW 2491   0.799   0.616   7.039
  680SOL    HW1 2492   0.770   0.586   7.125
  680SOL    HW2 2493   0.766   0.550   6.978
  681SOL     OW 2494   1.389   0.486   7.262
  681SOL    HW1 2495   1.394   0.530   7.347
  681SOL    HW2 2496   1.457   0.418   7.267
  682SOL     OW 2497   0.948   0.885   7.175
  682SOL    HW1 2498   1.004   0.818   7.134
  682SOL    HW2 2499   0.901   0.924   7.101
  683SOL     OW 2500   1.000   0.418   6.816
  683SOL    HW1 2501   0.909   0.424   6.844
  683SOL    HW2 2502   0.998   0.361   6.739
  684SOL     OW 2503   1.054   0.701   6.008
  684SOL    HW1 2504   1.076   0.692   6.101
  684SOL    HW2 2505   0.969   0.658   5.999
  685SOL     OW 2506   0.086   0.828   6.372
  685SOL    HW1 2507   0.171   0.824   6.416
  685SOL    HW2 2508   0.022   0.820   6.443
  686SOL     OW 2509   0.112   1.878   7.175
  686SOL    HW1 2510   0.111   1.851   7.267
  686SOL    HW2 2511   0.045   1.823   7.134
  687SOL     OW 2512   0.859   0.374   5.785
  687SOL    HW1 2513   0.917   0.408   5.716
  687SOL    HW2 2514   0.867   0.279   5.777
  688SOL     OW 2515   1.697   0.568   7.418
  688SOL    HW1 2516   1.666   0.645   7.369
  688SOL    HW2 2517   1.730   0.508   7.351
  689SOL     OW 2518   1.386   1.145   6.127
  689SOL    HW1 2519   1.464   1.133   6.073
  689SOL    HW2 2520   1.330   1.205   6.077
  690SOL     OW 2521   0.533   0.217   6.484
  690SOL    HW1 2522   0.554   0.231   6.577
  690SOL    HW2 2523   0.535   0.305   6.446
  691SOL     OW 2524   0.995   1.445   6.053
  691SOL    HW1 2525   0.968   1.521   6.002
  691SOL    HW2 2526   0.970   1.465   6.143
  692SOL     OW 2527   0.362   1.821   6.449
  692SOL    HW1 2528   0.403   1.735   6.461
  692SOL    HW2 2529   0.431   1.884   6.470
  693SOL     OW 2530   1.803   1.052   6.458
  693SOL    HW1 2531   1.752   1.029   6.380
  693SOL    HW2 2532   1.739   1.058   6.528
  694SOL     OW 2533   1.225   1.542   7.100
  694SOL    HW1 2534   1.213   1.469   7.162
  694SOL    HW2 2535   1.155   1.529   7.035
  695SOL     OW 2536   0.304   0.948   5.853
  695SOL    HW1 2537   0.385   0.974   5.808
  695SOL    HW2 2538   0.296   0.854   5.836
  696SOL     OW 2539   1.484   0.754   6.302
  696SOL    HW1 2540   1.481   0.713   6.389
  696SOL    HW2 2541   1.563   0.809   6.305
  697SOL     OW 2542   0.474   1.269   7.322
  697SOL    HW1 2543   0.448   1.276   7.230
  697SOL    HW2 2544   0.391   1.266   7.370
  698SOL     OW 2545   1.124   1.773   5.814
  698SOL    HW1 2546   1.046   1.737   5.856
  698SOL    HW2 2547   1.146   1.710   5.746
  699SOL     OW 2548   0.147   0.263   7.105
  699SOL    HW1 2549   0.122   0.347   7.065
  699SOL    HW2 2550   0.192   0.287   7.186
  700SOL     OW 2551   1.636   1.387   5.681
  700SOL    HW1 2552   1.591   1.469   5.662
  700SOL    HW2 2553   1.572   1.319   5.659
  701SOL     OW 2554   0.469   1.741   5.898
  701SOL    HW1 2555   0.515   1.795   5.963
  701SOL    HW2 2556   0.538   1.702   5.845
  702SOL     OW 2557   1.434   0.150   6.016
  702SOL    HW1 2558   1.418   0.093   5.941
  702SOL    HW2 2559   1.527   0.137   6.036
  703SOL     OW 2560   0.241   1.784   6.803
  703SOL    HW1 2561   0.288   1.706   6.833
  703SOL    HW2 2562   0.201   1.758   6.720
  704SOL     OW 2563   0.940   1.701   6.481
  704SOL    HW1 2564   1.018   1.652   6.507
  704SOL    HW2 2565   0.902   1.650   6.410
  705SOL     OW 2566   0.398   0.683   6.057
  705SOL    HW1 2567   0.422   0.592   6.074
  705SOL    HW2 2568   0.306   0.689   6.082
  706SOL     OW 2569   1.523   0.233   7.308
  706SOL    HW1 2570   1.522   0.253   7.401
  706SOL    HW2 2571   1.441   0.186   7.293
  707SOL     OW 2572   0.636   0.125   5.700
  707SOL    HW1 2573   0.722   0.087   5.717
  707SOL    HW2 2574   0.602   0.076   5.625
  708SOL     OW 2575   0.770   0.276   7.343
  708SOL    HW1 2576   0.841   0.212   7.332
  708SOL    HW2 2577   0.730   0.253   7.427
  709SOL     OW 2578   0.875   1.524   6.781
  709SOL    HW1 2579   0.856   1.485   6.696
  709SOL    HW2 2580   0.944   1.469   6.819
  710SOL     OW 2581   1.337   0.591   7.013
  710SOL    HW1 2582   1.365   0.564   7.101
  710SOL    HW2 2583   1.372   0.680   7.003
  711SOL     OW 2584   0.820   1.384   6.536
  711SOL    HW1 2585   0.905   1.375   6.494
  711SOL    HW2 2586   0.758   1.395   6.464
  712SOL     OW 2587   0.930   0.533   6.480
  712SOL    HW1 2588   0.911   0.527   6.386
  712SOL    HW2 2589   0.955   0.444   6.504
  713SOL     OW 2590   0.576   0.079   6.093
  713SOL    HW1 2591   0.493   0.063   6.136
  713SOL    HW2 2592   0.555   0.140   6.022
  714SOL     OW 2593   1.433   1.205   5.625
  714SOL    HW1 2594   1.460   1.129   5.676
  714SOL    HW2 2595   1.347   1.228   5.660
  715SOL     OW 2596   0.303   0.066   5.780
  715SOL    HW1 2597   0.384   0.118   5.787
  715SOL    HW2 2598   0.314   4.497   5.844
  716SOL     OW 2599   0.969   0.242   6.046
  716SOL    HW1 2600   0.914   0.310   6.006
  716SOL    HW2 2601   1.058   0.273   6.036
  717SOL     OW 2602   1.080   0.690   7.039
  717SOL    HW1 2603   1.013   0.622   7.038
  717SOL    HW2 2604   1.163   0.641   7.029
  718SOL     OW 2605   1.220   1.574   6.382
  718SOL    HW1 2606   1.232   1.640   6.313
  718SOL    HW2 2607   1.285   1.597   6.448
  719SOL     OW 2608   0.473   1.156   6.313
  719SOL    HW1 2609   0.407   1.136   6.380
  719SOL    HW2 2610   0.427   1.142   6.230
  720SOL     OW 2611   1.258   1.794   6.200
  720SOL    HW1 2612   1.300   1.857   6.142
  720SOL    HW2 2613   1.188   1.843   6.242
  721SOL     OW 2614   1.023   0.532   5.611
  721SOL    HW1 2615   0.979   0.615   5.595
  721SOL    HW2 2616   1.082   0.550   5.684
  722SOL     OW 2617   0.079   0.497   6.989
  722SOL    HW1 2618   0.148   0.511   6.924
  722SOL    HW2 2619   0.047   0.584   7.010
  723SOL     OW 2620   0.550   0.256   6.756
  723SOL    HW1 2621   0.579   0.176   6.800
  723SOL    HW2 2622   0.455   0.257   6.767
  724SOL     OW 2623   0.866   0.506   6.217
  724SOL    HW1 2624   0.834   0.541   6.134
  724SOL    HW2 2625   0.811   0.429   6.233
  725SOL     OW 2626   0.930   0.002   6.411
  725SOL    HW1 2627   0.901   0.012   6.320
  725SOL    HW2 2628   0.956   4.410   6.418
  726SOL     OW 2629   1.437   1.155   6.442
  726SOL    HW1 2630   1.367   1.089   6.448
  726SOL    HW2 2631   1.454   1.163   6.349
  727SOL     OW 2632   1.465   0.613   6.543
  727SOL    HW1 2633   1.406   0.538   6.544
  727SOL    HW2 2634   1.518   0.602   6.623
  728SOL     OW 2635   1.835   0.804   5.976
  728SOL    HW1 2636   1.896   0.757   6.033
  728SOL    HW2 2637   1.816   0.742   5.905
  729SOL     OW 2638   0.495   1.424   5.736
  729SOL    HW1 2639   0.415   1.398   5.782
  729SOL    HW2 2640   0.489   1.382   5.651
  730SOL     OW 2641   1.688   1.266   6.220
  730SOL    HW1 2642   1.782   1.268   6.239
  730SOL    HW2 2643   1.656   1.351   6.249
  731SOL     OW 2644   1.394   0.577   5.655
  731SOL    HW1 2645   1.331   0.559   5.724
  731SOL    HW2 2646   1.480   0.564   5.695
  732SOL     OW 2647   0.509   0.260   5.894
  732SOL    HW1 2648   0.567   0.216   5.832
  732SOL    HW2 2649   0.493   0.346   5.855
  733SOL     OW 2650   1.745   1.243   7.139
  733SOL    HW1 2651   1.833   1.206   7.128
  733SOL    HW2 2652   1.760   1.332   7.171
  734SOL     OW 2653   1.051   1.353   6.917
  734SOL    HW1 2654   0.975   1.322   6.965
  734SOL    HW2 2655   1.125   1.311   6.959
  735SOL     OW 2656   1.610   1.628   7.247
  735SOL    HW1 2657   1.601   1.664   7.159
  735SOL    HW2 2658   1.692   1.578   7.244
  736SOL     OW 2659   1.139   1.216   6.687
  736SOL    HW1 2660   1.077   1.253   6.750
  736SOL    HW2 2661   1.111   1.251   6.603
  737SOL     OW 2662   1.621   1.094   6.660
  737SOL    HW1 2663   1.614   1.159   6.730
  737SOL    HW2 2664   1.547   1.113   6.603
  738SOL     OW 2665   0.893   0.139   6.964
  738SOL    HW1 2666   0.918   0.090   6.886
  738SOL    HW2 2667   0.976   0.164   7.005
  739SOL     OW 2668   0.984   1.116   7.310
  739SOL    HW1 2669   0.893   1.132   7.336
  739SOL    HW2 2670   0.979   1.036   7.257
  740SOL     OW 2671   0.710   1.064   5.961
  740SOL    HW1 2672   0.696   1.041   6.052
  740SOL    HW2 2673   0.785   1.010   5.933
  741SOL     OW 2674   0.434   0.835   6.838
  741SOL    HW1 2675   0.500   0.846   6.906
  741SOL    HW2 2676   0.381   0.760   6.867
  742SOL     OW 2677   1.267   0.373   6.864
  742SOL    HW1 2678   1.300   0.452   6.907
  742SOL    HW2 2679   1.177   0.395   6.839
  743SOL     OW 2680   0.066   1.567   6.938
  743SOL    HW1 2681   0.043   1.658   6.923
  743SOL    HW2 2682   0.162   1.566   6.939
  744SOL     OW 2683   0.328   1.115   6.079
  744SOL    HW1 2684   0.339   1.193   6.023
  744SOL    HW2 2685   0.325   1.042   6.017
  745SOL     OW 2686   0.557   0.508   6.436
  745SOL    HW1 2687   0.566   0.569   6.363
  745SOL    HW2 2688   0.618   0.539   6.502
  746SOL     OW 2689   1.243   1.348   5.979
  746SOL    HW1 2690   1.298   1.419   6.012
  746SOL    HW2 2691   1.155   1.368   6.011
  747SOL     OW 2692   1.292   1.462   6.737
  747SOL    HW1 2693   1.347   1.468   6.815
  747SOL    HW2 2694   1.238   1.384   6.753
  748SOL     OW 2695   1.575   0.623   6.066
  748SOL    HW1 2696   1.525   0.661   6.138
  748SOL    HW2 2697   1.620   0.698   6.026
  749SOL     OW 2698   0.344   1.535   6.892
  749SOL    HW1 2699   0.333   1.486   6.811
  749SOL    HW2 2700   0.438   1.547   6.901
  750SOL     OW 2701   0.505   0.748   7.262
  750SOL    HW1 2702   0.543   0.795   7.189
  750SOL    HW2 2703   0.571   0.682   7.286
  751SOL     OW 2704   1.613   0.783   7.275
  751SOL    HW1 2705   1.527   0.824   7.268
  751SOL    HW2 2706   1.665   0.824   7.206
  752SOL     OW 2707   0.984   0.097   7.292
  752SOL    HW1 2708   1.040   0.166   7.256
  752SOL    HW2 2709   1.005   0.020   7.239
  753SOL     OW 2710   0.496   0.037   7.342
  753SOL    HW1 2711   0.483   4.490   7.260
  753SOL    HW2 2712   0.433   0.109   7.338
  754SOL     OW 2713   0.591   0.878   6.614
  754SOL    HW1 2714   0.629   0.966   6.618
  754SOL    HW2 2715   0.536   0.872   6.692
  755SOL     OW 2716   1.335   0.857   6.600
  755SOL    HW1 2717   1.247   0.837   6.569
  755SOL    HW2 2718   1.384   0.776   6.587
  756SOL     OW 2719   1.193   0.538   5.837
  756SOL    HW1 2720   1.204   0.460   5.892
  756SOL    HW2 2721   1.152   0.602   5.895
  757SOL     OW 2722   0.281   0.209   6.820
  757SOL    HW1 2723   0.235   0.227   6.902
  757SOL    HW2 2724   0.332   0.130   6.838
  758SOL     OW 2725   4.499   1.309   6.877
  758SOL    HW1 2726   0.048   1.259   6.943
  758SOL    HW2 2727   0.017   1.400   6.898
  759SOL     OW 2728   0.716   0.627   6.630
  759SOL    HW1 2729   0.794   0.615   6.577
  759SOL    HW2 2730   0.688   0.717   6.611
  760SOL     OW 2731   1.744   0.960   7.448
  760SOL    HW1 2732   1.700   0.892   7.397
  760SOL    HW2 2733   1.681   0.979   7.518
  761SOL     OW 2734   0.328   0.068   6.205
  761SOL    HW1 2735   0.301   0.157   6.230
  761SOL    HW2 2736   0.313   0.016   6.284
  762SOL     OW 2737   1.626   0.391   5.932
  762SOL    HW1 2738   1.648   0.323   5.996
  762SOL    HW2 2739   1.599   0.466   5.985
  763SOL     OW 2740   1.040   0.770   6.546
  763SOL    HW1 2741   1.025   0.785   6.639
  763SOL    HW2 2742   1.007   0.682   6.530
  764SOL     OW 2743   0.981   1.567   7.310
  764SOL    HW1 2744   0.965   1.610   7.227
  764SOL    HW2 2745   1.024   1.484   7.287
  765SOL     OW 2746   1.849   1.498   7.190
  765SOL    HW1 2747   1.871   1.526   7.102
  765SOL    HW2 2748   1.930   1.511   7.240
  766SOL     OW 2749   0.352   0.935   7.402
  766SOL    HW1 2750   0.419   0.967   7.461
  766SOL    HW2 2751   0.395   0.865   7.352
  767SOL     OW 2752   1.525   0.258   5.712
  767SOL    HW1 2753   1.461   0.198   5.751
  767SOL    HW2 2754   1.559   0.308   5.786
  768SOL     OW 2755   1.283   0.826   5.611
  768SOL    HW1 2756   1.324   0.740   5.615
  768SOL    HW2 2757   1.316   0.864   5.529
  769SOL     OW 2758   1.072   1.343   6.445
  769SOL    HW1 2759   1.078   1.271   6.382
  769SOL    HW2 2760   1.128   1.411   6.409
  770SOL     OW 2761   0.320   0.814   6.523
  770SOL    HW1 2762   0.414   0.832   6.526
  770SOL    HW2 2763   0.313   0.721   6.544
  771SOL     OW 2764   0.323   0.535   6.567
  771SOL    HW1 2765   0.277   0.453   6.553
  771SOL    HW2 2766   0.403   0.527   6.514
  772SOL     OW 2767   1.144   0.366   7.295
  772SOL    HW1 2768   1.088   0.425   7.345
  772SOL    HW2 2769   1.224   0.415   7.280
  773SOL     OW 2770   1.142   0.219   7.062
  773SOL    HW1 2771   1.145   0.282   7.134
  773SOL    HW2 2772   1.192   0.261   6.992
  774SOL     OW 2773   4.491   1.316   5.800
  774SOL    HW1 2774   4.399   1.334   5.781
  774SOL    HW2 2775   4.494   1.224   5.824
  775SOL     OW 2776   0.110   1.759   6.529
  775SOL    HW1 2777   0.067   1.722   6.452
  775SOL    HW2 2778   0.196   1.787   6.498
  776SOL     OW 2779   0.491   1.575   6.492
  776SOL    HW1 2780   0.560   1.637   6.515
  776SOL    HW2 2781   0.533   1.513   6.433
  777SOL     OW 2782   0.968   0.791   6.807
  777SOL    HW1 2783   1.028   0.773   6.880
  777SOL    HW2 2784   0.889   0.742   6.829
  778SOL     OW 2785   0.012   0.555   6.665
  778SOL    HW1 2786   0.103   0.533   6.646
  778SOL    HW2 2787   4.484   0.489   6.728
  779SOL     OW 2788   0.176   0.545   7.306
  779SOL    HW1 2789   0.266   0.534   7.274
  779SOL    HW2 2790   0.142   0.619   7.256
  780SOL     OW 2791   1.384   0.930   7.241
  780SOL    HW1 2792   1.404   1.023   7.236
  780SOL    HW2 2793   1.378   0.902   7.149
  781SOL     OW 2794   0.813   0.581   5.954
  781SOL    HW1 2795   0.819   0.509   5.891
  781SOL    HW2 2796   0.739   0.634   5.923
  782SOL     OW 2797   1.634   0.602   6.762
  782SOL    HW1 2798   1.623   0.544   6.837
  782SOL    HW2 2799   1.723   0.586   6.730
  783SOL     OW 2800   0.271   1.564   7.322
  783SOL    HW1 2801   0.205   1.610   7.374
  783SOL    HW2 2802   0.260   1.472   7.347
  784SOL     OW 2803   0.716   0.457   6.840
  784SOL    HW1 2804   0.660   0.383   6.816
  784SOL    HW2 2805   0.709   0.517   6.766
  785SOL     OW 2806   0.920   1.678   7.060
  785SOL    HW1 2807   0.895   1.636   6.977
  785SOL    HW2 2808   0.914   1.772   7.042
  786SOL     OW 2809   0.468   0.491   5.759
  786SOL    HW1 2810   0.531   0.559   5.784
  786SOL    HW2 2811   0.386   0.539   5.746
  787SOL     OW 2812   0.154   1.144   7.041
  787SOL    HW1 2813   0.141   1.098   7.124
  787SOL    HW2 2814   0.165   1.074   6.976
  788SOL     OW 2815   1.317   1.040   6.801
  788SOL    HW1 2816   1.334   0.977   6.732
  788SOL    HW2 2817   1.253   1.101   6.762
  789SOL     OW 2818   1.320   0.856   5.886
  789SOL    HW1 2819   1.246   0.827   5.941
  789SOL    HW2 2820   1.289   0.844   5.797
  790SOL     OW 2821   1.764   1.730   6.742
  790SOL    HW1 2822   1.830   1.762   6.680
  790SOL    HW2 2823   1.748   1.639   6.715
  791SOL     OW 2824   1.236   1.729   6.685
  791SOL    HW1 2825   1.321   1.754   6.648
  791SOL    HW2 2826   1.246   1.637   6.710
  792SOL     OW 2827   0.080   1.194   6.638
  792SOL    HW1 2828   0.052   1.219   6.726
  792SOL    HW2 2829   0.050   1.265   6.582
  793SOL     OW 2830   0.682   1.675   7.329
  793SOL    HW1 2831   0.619   1.746   7.316
  793SOL    HW2 2832   0.752   1.693   7.267
  794SOL     OW 2833   1.723   0.128   6.063
  794SOL    HW1 2834   1.787   0.145   5.994
  794SOL    HW2 2835   1.762   0.057   6.115
  795SOL     OW 2836   1.383   1.567   6.078
  795SOL    HW1 2837   1.433   1.600   6.004
  795SOL    HW2 2838   1.334   1.643   6.109
  796SOL     OW 2839   0.112   1.806   7.441
  796SOL    HW1 2840   0.073   1.736   7.494
  796SOL    HW2 2841   0.179   1.844   7.499
  797SOL     OW 2842   1.280   0.932   6.257
  797SOL    HW1 2843   1.354   0.872   6.268
  797SOL    HW2 2844   1.315   1.004   6.203
  798SOL     OW 2845   0.798   1.280   7.006
  798SOL    HW1 2846   0.772   1.322   7.087
  798SOL    HW2 2847   0.725   1.296   6.946
  799SOL     OW 2848   0.672   1.629   5.742
  799SOL    HW1 2849   0.684   1.644   5.648
  799SOL    HW2 2850   0.617   1.551   5.747
  800SOL     OW 2851   1.616   1.729   6.980
  800SOL    HW1 2852   1.667   1.733   6.899
  800SOL    HW2 2853   1.601   1.820   7.004
  801SOL     OW 2854   1.841   0.146   6.550
  801SOL    HW1 2855   1.871   0.067   6.505
  801SOL    HW2 2856   1.755   0.164   6.513
  802SOL     OW 2857   0.251   0.319   6.292
  802SOL    HW1 2858   0.166   0.354   6.266
  802SOL    HW2 2859   0.244   0.309   6.387
  803SOL     OW 2860   1.199   1.596   5.619
  803SOL    HW1 2861   1.190   1.504   5.646
  803SOL    HW2 2862   1.132   1.608   5.553
  804SOL     OW 2863   0.826   1.010   6.964
  804SOL    HW1 2864   0.867   1.001   6.878
  804SOL    HW2 2865   0.819   1.104   6.978
  805SOL     OW 2866   0.916   0.912   5.878
  805SOL    HW1 2867   0.975   0.945   5.811
  805SOL    HW2 2868   0.966   0.845   5.924
  806SOL     OW 2869   1.473   1.628   5.626
  806SOL    HW1 2870   1.380   1.616   5.609
  806SOL    HW2 2871   1.513   1.629   5.539
  807SOL     OW 2872   0.370   1.312   7.077
  807SOL    HW1 2873   0.355   1.390   7.025
  807SOL    HW2 2874   0.295   1.255   7.058
  808SOL     OW 2875   1.607   1.286   6.863
  808SOL    HW1 2876   1.664   1.268   6.938
  808SOL    HW2 2877   1.547   1.354   6.896
  809SOL     OW 2878   1.067   1.113   6.300
  809SOL    HW1 2879   0.993   1.064   6.335
  809SOL    HW2 2880   1.131   1.046   6.276
  810SOL     OW 2881   0.994   0.247   6.604
  810SOL    HW1 2882   1.007   0.235   6.509
  810SOL    HW2 2883   0.981   0.158   6.637
  811SOL     OW 2884   0.608   1.487   6.068
  811SOL    HW1 2885   0.657   1.439   6.002
  811SOL    HW2 2886   0.526   1.510   6.024
  812SOL     OW 2887   1.729   0.395   6.959
  812SOL    HW1 2888   1.804   0.453   6.959
  812SOL    HW2 2889   1.754   0.322   6.901
  813SOL     OW 2890   0.255   1.343   5.857
  813SOL    HW1 2891   0.160   1.336   5.846
  813SOL    HW2 2892   0.267   1.377   5.946
  814SOL     OW 2893   0.116   0.996   7.278
  814SOL    HW1 2894   0.056   1.050   7.329
  814SOL    HW2 2895   0.197   0.995   7.329
  815SOL     OW 2896   0.662   0.217   7.087
  815SOL    HW1 2897   0.740   0.189   7.039
  815SOL    HW2 2898   0.693   0.234   7.176
  816SOL     OW 2899   0.078   0.324   5.603
  816SOL    HW1 2900   4.487   0.326   5.633
  816SOL    HW2 2901   0.096   0.413   5.572
  817SOL     OW 2902   1.422   0.857   6.979
  817SOL    HW1 2903   1.371   0.917   6.925
  817SOL    HW2 2904   1.510   0.860   6.943
  818SOL     OW 2905   0.086   0.190   5.887
  818SOL    HW1 2906   0.077   0.273   5.840
  818SOL    HW2 2907   0.166   0.151   5.851
  819SOL     OW 2908   1.177   1.330   5.704
  819SOL    HW1 2909   1.086   1.301   5.704
  819SOL    HW2 2910   1.202   1.330   5.797
  820SOL     OW 2911   0.631   0.831   7.028
  820SOL    HW1 2912   0.687   0.906   7.011
  820SOL    HW2 2913   0.691   0.756   7.029
  821SOL     OW 2914   1.485   1.768   6.571
  821SOL    HW1 2915   1.507   1.819   6.494
  821SOL    HW2 2916   1.567   1.760   6.620
  822SOL     OW 2917   0.712   0.561   7.294
  822SOL    HW1 2918   0.768   0.615   7.349
  822SOL    HW2 2919   0.732   0.471   7.321
  823SOL     OW 2920   1.473   1.190   7.212
  823SOL    HW1 2921   1.462   1.208   7.305
  823SOL    HW2 2922   1.565   1.213   7.194
  824SOL     OW 2923   0.368   1.753   7.153
  824SOL    HW1 2924   0.284   1.794   7.135
  824SOL    HW2 2925   0.346   1.673   7.202
  825SOL     OW 2926   1.661   0.879   6.840
  825SOL    HW1 2927   1.656   0.794   6.796
  825SOL    HW2 2928   1.651   0.943   6.770
  826SOL     OW 2929   1.230   0.339   6.026
  826SOL    HW1 2930   1.300   0.276   6.013
  826SOL    HW2 2931   1.255   0.388   6.105
  827SOL     OW 2932   0.580   0.729   6.265
  827SOL    HW1 2933   0.623   0.814   6.251
  827SOL    HW2 2934   0.518   0.722   6.193
  828SOL     OW 2935   1.751   0.376   7.230
  828SOL    HW1 2936   1.739   0.389   7.136
  828SOL    HW2 2937   1.678   0.321   7.256
  829SOL     OW 2938   1.754   0.932   7.095
  829SOL    HW1 2939   1.738   1.026   7.108
  829SOL    HW2 2940   1.731   0.917   7.003
  830SOL     OW 2941   0.868   1.362   5.636
  830SOL    HW1 2942   0.828   1.387   5.720
  830SOL    HW2 2943   0.878   1.445   5.589
  831SOL     OW 2944   0.666   1.780   6.521
  831SOL    HW1 2945   0.649   1.873   6.503
  831SOL    HW2 2946   0.762   1.772   6.515
  832SOL     OW 2947   0.871   0.974   6.438
  832SOL    HW1 2948   0.924   0.903   6.475
  832SOL    HW2 2949   0.829   1.015   6.514
  833SOL     OW 2950   1.076   0.989   5.676
  833SOL    HW1 2951   1.054   1.041   5.599
  833SOL    HW2 2952   1.149   0.934   5.648
  834SOL     OW 2953   1.848   1.556   6.424
  834SOL    HW1 2954   1.768   1.555   6.371
  834SOL    HW2 2955   1.827   1.503   6.501
  835SOL     OW 2956   0.235   1.303   7.447
  835SOL    HW1 2957   0.142   1.283   7.433
  835SOL    HW2 2958   0.243   1.312   7.542
  836SOL     OW 2959   0.137   1.222   6.254
  836SOL    HW1 2960   0.160   1.182   6.338
  836SOL    HW2 2961   0.191   1.174   6.190
  837SOL     OW 2962   0.690   1.411   7.220
  837SOL    HW1 2963   0.610   1.368   7.252
  837SOL    HW2 2964   0.686   1.499   7.257
  838SOL     OW 2965   1.796   0.171   6.822
  838SOL    HW1 2966   1.787   0.078   6.840
  838SOL    HW2 2967   1.818   0.175   6.729
  839SOL     OW 2968   0.447   0.422   6.122
  839SOL    HW1 2969   0.455   0.355   6.054
  839SOL    HW2 2970   0.382   0.386   6.182
  840SOL     OW 2971   1.705   1.475   6.663
  840SOL    HW1 2972   1.621   1.459   6.619
  840SOL    HW2 2973   1.708   1.411   6.734
  841SOL     OW 2974   0.310   0.516   6.838
  841SOL    HW1 2975   0.373   0.451   6.868
  841SOL    HW2 2976   0.327   0.523   6.744
  842SOL     OW 2977   0.835   1.580   6.260
  842SOL    HW1 2978   0.810   1.647   6.197
  842SOL    HW2 2979   0.759   1.520   6.262
  843SOL     OW 2980   1.427   0.222   6.699
  843SOL    HW1 2981   1.463   0.150   6.750
  843SOL    HW2 2982   1.376   0.273   6.762
  844SOL     OW 2983   0.994   4.494   6.746
  844SOL    HW1 2984   0.961   4.404   6.742
  844SOL    HW2 2985   1.089   4.486   6.747
  845SOL     OW 2986   0.776   1.334   5.909
  845SOL    HW1 2987   0.751   1.242   5.919
  845SOL    HW2 2988   0.857   1.342   5.959
  846SOL     OW 2989   0.620   1.558   6.875
  846SOL    HW1 2990   0.619   1.640   6.924
  846SOL    HW2 2991   0.708   1.553   6.838
  847SOL     OW 2992   1.340   0.049   5.763
  847SOL    HW1 2993   1.376   4.474   5.715
  847SOL    HW2 2994   1.260   0.015   5.803
  848SOL     OW 2995   1.318   0.473   6.251
  848SOL    HW1 2996   1.263   0.551   6.253
  848SOL    HW2 2997   1.307   0.433   6.337
  849SOL     OW 2998   1.587   0.197   6.461
  849SOL    HW1 2999   1.529   0.214   6.535
  849SOL    HW2 3000   1.587   0.279   6.411
  850SOL     OW 3001   0.034   1.048   5.888
  850SOL    HW1 3002   0.124   1.020   5.874
  850SOL    HW2 3003   0.016   1.028   5.980
  851SOL     OW 3004   0.890   1.663   5.922
  851SOL    HW1 3005   0.814   1.649   5.866
  851SOL    HW2 3006   0.863   1.734   5.980
  852SOL     OW 3007   0.238   0.633   7.576
  852SOL    HW1 3008   0.165   0.600   7.629
  852SOL    HW2 3009   0.209   0.621   7.486
  853SOL     OW 3010   0.191   0.300   8.434
  853SOL    HW1 3011   0.217   0.263   8.519
  853SOL    HW2 3012   0.130   0.235   8.398
  854SOL     OW 3013   4.494   0.406   8.082
  854SOL    HW1 3014   4.423   0.442   8.134
  854SOL    HW2 3015   4.455   0.333   8.034
  855SOL     OW 3016   0.570   1.302   8.638
  855SOL    HW1 3017   0.485   1.307   8.595
  855SOL    HW2 3018   0.586   1.390   8.670
  856SOL     OW 3019   1.577   1.517   8.157
  856SOL    HW1 3020   1.533   1.492   8.238
  856SOL    HW2 3021   1.507   1.520   8.092
  857SOL     OW 3022   1.145   0.696   8.136
  857SOL    HW1 3023   1.187   0.782   8.129
  857SOL    HW2 3024   1.092   0.701   8.215
  858SOL     OW 3025   1.791   0.595   7.668
  858SOL    HW1 3026   1.758   0.591   7.578
  858SOL    HW2 3027   1.748   0.521   7.712
  859SOL     OW 3028   0.737   1.134   8.497
  859SOL    HW1 3029   0.674   1.173   8.557
  859SOL    HW2 3030   0.780   1.208   8.454
  860SOL     OW 3031   0.876   0.758   9.272
  860SOL    HW1 3032   0.863   0.826   9.338
  860SOL    HW2 3033   0.898   0.805   9.192
  861SOL     OW 3034   0.683   0.993   8.093
  861SOL    HW1 3035   0.751   0.987   8.160
  861SOL    HW2 3036   0.616   1.049   8.132
  862SOL     OW 3037   0.714   1.148   9.273
  862SOL    HW1 3038   0.763   1.224   9.305
  862SOL    HW2 3039   0.637   1.185   9.230
  863SOL     OW 3040   0.334   1.415   8.514
  863SOL    HW1 3041   0.255   1.389   8.467
  863SOL    HW2 3042   0.381   1.471   8.452
  864SOL     OW 3043   1.458   1.504   8.812
  864SOL    HW1 3044   1.512   1.582   8.822
  864SOL    HW2 3045   1.389   1.515   8.877
  865SOL     OW 3046   0.444   0.382   8.918
  865SOL    HW1 3047   0.532   0.345   8.915
  865SOL    HW2 3048   0.398   0.327   8.981
  866SOL     OW 3049   1.601   0.439   8.187
  866SOL    HW1 3050   1.522   0.452   8.134
  866SOL    HW2 3051   1.603   0.514   8.247
  867SOL     OW 3052   0.245   1.689   7.915
  867SOL    HW1 3053   0.228   1.774   7.957
  867SOL    HW2 3054   0.321   1.705   7.859
  868SOL     OW 3055   1.138   1.343   9.143
  868SOL    HW1 3056   1.179   1.335   9.229
  868SOL    HW2 3057   1.085   1.263   9.135
  869SOL     OW 3058   0.266   1.424   7.970
  869SOL    HW1 3059   0.248   1.518   7.975
  869SOL    HW2 3060   0.210   1.385   8.038
  870SOL     OW 3061   0.260   1.085   8.334
  870SOL    HW1 3062   0.273   0.993   8.356
  870SOL    HW2 3063   0.199   1.117   8.400
  871SOL     OW 3064   0.599   1.795   8.874
  871SOL    HW1 3065   0.517   1.778   8.920
  871SOL    HW2 3066   0.624   1.884   8.902
  872SOL     OW 3067   0.564   0.997   7.598
  872SOL    HW1 3068   0.617   1.034   7.527
  872SOL    HW2 3069   0.607   1.026   7.678
  873SOL     OW 3070   1.569   0.123   8.904
  873SOL    HW1 3071   1.618   0.186   8.852
  873SOL    HW2 3072   1.563   0.163   8.991
  874SOL     OW 3073   0.135   0.648   8.017
  874SOL    HW1 3074   0.088   0.570   8.044
  874SOL    HW2 3075   0.110   0.715   8.082
  875SOL     OW 3076   1.845   1.749   7.774
  875SOL    HW1 3077   1.913   1.729   7.839
  875SOL    HW2 3078   1.860   1.842   7.753
  876SOL     OW 3079   0.033   1.607   7.611
  876SOL    HW1 3080   0.013   1.513   7.604
  876SOL    HW2 3081   0.064   1.618   7.701
  877SOL     OW 3082   1.692   0.922   8.094
  877SOL    HW1 3083   1.772   0.876   8.067
  877SOL    HW2 3084   1.668   0.974   8.018
  878SOL     OW 3085   1.652   1.103   7.877
  878SOL    HW1 3086   1.739   1.101   7.837
  878SOL    HW2 3087   1.660   1.168   7.947
  879SOL     OW 3088   0.091   0.765   9.001
  879SOL    HW1 3089   0.176   0.746   8.961
  879SOL    HW2 3090   0.102   0.852   9.040
  880SOL     OW 3091   0.618   1.393   8.185
  880SOL    HW1 3092   0.573   1.309   8.193
  880SOL    HW2 3093   0.602   1.420   8.095
  881SOL     OW 3094   1.282   1.233   8.867
  881SOL    HW1 3095   1.312   1.165   8.807
  881SOL    HW2 3096   1.343   1.228   8.941
  882SOL     OW 3097   0.837   0.025   8.014
  882SOL    HW1 3098   0.875   0.108   7.984
  882SOL    HW2 3099   0.743   0.033   7.997
  883SOL     OW 3100   0.177   0.944   8.723
  883SOL    HW1 3101   0.267   0.919   8.705
  883SOL    HW2 3102   0.134   0.941   8.637
  884SOL     OW 3103   1.532   1.002   7.648
  884SOL    HW1 3104   1.463   0.945   7.681
  884SOL    HW2 3105   1.575   1.036   7.727
  885SOL     OW 3106   1.183   1.817   9.077
  885SOL    HW1 3107   1.186   1.879   9.003
  885SOL    HW2 3108   1.200   1.732   9.037
  886SOL     OW 3109   0.320   0.264   9.207
  886SOL    HW1 3110   0.386   0.311   9.259
  886SOL    HW2 3111   0.240   0.272   9.259
  887SOL     OW 3112   1.468   1.418   8.391
  887SOL    HW1 3113   1.403   1.435   8.458
  887SOL    HW2 3114   1.453   1.327   8.366
  888SOL     OW 3115   1.654   1.760   8.021
  888SOL    HW1 3116   1.631   1.724   7.936
  888SOL    HW2 3117   1.636   1.688   8.083
  889SOL     OW 3118   0.592   0.720   7.719
  889SOL    HW1 3119   0.590   0.807   7.678
  889SOL    HW2 3120   0.527   0.725   7.788
  890SOL     OW 3121   1.295   0.383   8.375
  890SOL    HW1 3122   1.207   0.351   8.354
  890SOL    HW2 3123   1.329   0.318   8.437
  891SOL     OW 3124   1.578   1.674   7.760
  891SOL    HW1 3125   1.670   1.697   7.751
  891SOL    HW2 3126   1.548   1.658   7.671
  892SOL     OW 3127   0.799   0.616   8.901
  892SOL    HW1 3128   0.770   0.586   8.987
  892SOL    HW2 3129   0.766   0.550   8.840
  893SOL     OW 3130   1.389   0.486   9.124
  893SOL    HW1 3131   1.394   0.530   9.209
  893SOL    HW2 3132   1.457   0.418   9.129
  894SOL     OW 3133   0.948   0.884   9.037
  894SOL    HW1 3134   1.004   0.818   8.996
  894SOL    HW2 3135   0.901   0.924   8.963
  895SOL     OW 3136   1.000   0.418   8.678
  895SOL    HW1 3137   0.909   0.424   8.706
  895SOL    HW2 3138   0.998   0.361   8.601
  896SOL     OW 3139   1.054   0.701   7.870
  896SOL    HW1 3140   1.076   0.692   7.963
  896SOL    HW2 3141   0.969   0.658   7.861
  897SOL     OW 3142   0.086   0.828   8.234
  897SOL    HW1 3143   0.171   0.824   8.278
  897SOL    HW2 3144   0.022   0.820   8.305
  898SOL     OW 3145   0.112   1.878   9.037
  898SOL    HW1 3146   0.111   1.852   9.129
  898SOL    HW2 3147   0.046   1.823   8.996
  899SOL     OW 3148   0.859   0.374   7.646
  899SOL    HW1 3149   0.917   0.408   7.578
  899SOL    HW2 3150   0.867   0.279   7.639
  900SOL     OW 3151   1.697   0.568   9.280
  900SOL    HW1 3152   1.666   0.645   9.231
  900SOL    HW2 3153   1.730   0.508   9.213
  901SOL     OW 3154   1.384   1.144   7.987
  901SOL    HW1 3155   1.463   1.134   7.934
  901SOL    HW2 3156   1.330   1.206   7.938
  902SOL     OW 3157   0.533   0.217   8.346
  902SOL    HW1 3158   0.553   0.231   8.439
  902SOL    HW2 3159   0.535   0.305   8.308
  903SOL     OW 3160   0.997   1.445   7.914
  903SOL    HW1 3161   0.970   1.522   7.863
  903SOL    HW2 3162   0.971   1.466   8.004
  904SOL     OW 3163   0.362   1.821   8.311
  904SOL    HW1 3164   0.403   1.735   8.323
  904SOL    HW2 3165   0.431   1.884   8.332
  905SOL     OW 3166   1.803   1.050   8.322
  905SOL    HW1 3167   1.751   1.029   8.244
  905SOL    HW2 3168   1.738   1.057   8.392
  906SOL     OW 3169   1.225   1.542   8.962
  906SOL    HW1 3170   1.213   1.469   9.024
  906SOL    HW2 3171   1.157   1.528   8.896
  907SOL     OW 3172   0.304   0.948   7.715
  907SOL    HW1 3173   0.385   0.974   7.670
  907SOL    HW2 3174   0.296   0.854   7.698
  908SOL     OW 3175   1.484   0.754   8.164
  908SOL    HW1 3176   1.481   0.713   8.251
  908SOL    HW2 3177   1.562   0.809   8.166
  909SOL     OW 3178   0.474   1.269   9.184
  909SOL    HW1 3179   0.448   1.276   9.092
  909SOL    HW2 3180   0.391   1.266   9.232
  910SOL     OW 3181   1.127   1.778   7.675
  910SOL    HW1 3182   1.050   1.741   7.717
  910SOL    HW2 3183   1.151   1.714   7.608
  911SOL     OW 3184   0.147   0.263   8.967
  911SOL    HW1 3185   0.122   0.347   8.927
  911SOL    HW2 3186   0.192   0.287   9.048
  912SOL     OW 3187   1.631   1.383   7.543
  912SOL    HW1 3188   1.590   1.468   7.527
  912SOL    HW2 3189   1.563   1.319   7.520
  913SOL     OW 3190   0.469   1.741   7.761
  913SOL    HW1 3191   0.515   1.795   7.825
  913SOL    HW2 3192   0.539   1.702   7.707
  914SOL     OW 3193   1.435   0.150   7.878
  914SOL    HW1 3194   1.418   0.093   7.803
  914SOL    HW2 3195   1.527   0.137   7.898
  915SOL     OW 3196   0.241   1.784   8.666
  915SOL    HW1 3197   0.288   1.706   8.695
  915SOL    HW2 3198   0.201   1.758   8.583
  916SOL     OW 3199   0.941   1.701   8.342
  916SOL    HW1 3200   1.022   1.654   8.365
  916SOL    HW2 3201   0.902   1.649   8.272
  917SOL     OW 3202   0.398   0.683   7.918
  917SOL    HW1 3203   0.422   0.592   7.936
  917SOL    HW2 3204   0.306   0.689   7.944
  918SOL     OW 3205   1.523   0.233   9.170
  918SOL    HW1 3206   1.522   0.253   9.263
  918SOL    HW2 3207   1.441   0.186   9.155
  919SOL     OW 3208   0.635   0.124   7.563
  919SOL    HW1 3209   0.722   0.087   7.579
  919SOL    HW2 3210   0.602   0.076   7.487
  920SOL     OW 3211   0.770   0.276   9.205
  920SOL    HW1 3212   0.841   0.212   9.194
  920SOL    HW2 3213   0.731   0.254   9.290
  921SOL     OW 3214   0.875   1.524   8.644
  921SOL    HW1 3215   0.856   1.485   8.558
  921SOL    HW2 3216   0.944   1.470   8.681
  922SOL     OW 3217   1.337   0.591   8.875
  922SOL    HW1 3218   1.365   0.564   8.963
  922SOL    HW2 3219   1.372   0.680   8.865
  923SOL     OW 3220   0.820   1.384   8.399
  923SOL    HW1 3221   0.905   1.375   8.356
  923SOL    HW2 3222   0.758   1.395   8.326
  924SOL     OW 3223   0.929   0.533   8.342
  924SOL    HW1 3224   0.911   0.527   8.248
  924SOL    HW2 3225   0.955   0.443   8.366
  925SOL     OW 3226   0.576   0.079   7.954
  925SOL    HW1 3227   0.492   0.062   7.997
  925SOL    HW2 3228   0.555   0.140   7.884
  926SOL     OW 3229   1.429   1.203   7.485
  926SOL    HW1 3230   1.457   1.129   7.538
  926SOL    HW2 3231   1.343   1.227   7.521
  927SOL     OW 3232   0.303   0.066   7.641
  927SOL    HW1 3233   0.384   0.118   7.648
  927SOL    HW2 3234   0.314   4.497   7.706
  928SOL     OW 3235   0.969   0.242   7.908
  928SOL    HW1 3236   0.914   0.310   7.869
  928SOL    HW2 3237   1.058   0.273   7.897
  929SOL     OW 3238   1.080   0.690   8.901
  929SOL    HW1 3239   1.013   0.622   8.900
  929SOL    HW2 3240   1.163   0.642   8.891
  930SOL     OW 3241   1.216   1.575   8.244
  930SOL    HW1 3242   1.230   1.639   8.174
  930SOL    HW2 3243   1.286   1.593   8.307
  931SOL     OW 3244   0.473   1.156   8.175
  931SOL    HW1 3245   0.407   1.136   8.242
  931SOL    HW2 3246   0.427   1.142   8.092
  932SOL     OW 3247   1.261   1.791   8.062
  932SOL    HW1 3248   1.310   1.854   8.009
  932SOL    HW2 3249   1.191   1.843   8.102
  933SOL     OW 3250   1.023   0.532   7.473
  933SOL    HW1 3251   0.979   0.615   7.457
  933SOL    HW2 3252   1.082   0.550   7.546
  934SOL     OW 3253   0.079   0.497   8.851
  934SOL    HW1 3254   0.148   0.511   8.786
  934SOL    HW2 3255   0.048   0.584   8.872
  935SOL     OW 3256   0.550   0.256   8.618
  935SOL    HW1 3257   0.579   0.176   8.662
  935SOL    HW2 3258   0.455   0.257   8.629
  936SOL     OW 3259   0.866   0.506   8.079
  936SOL    HW1 3260   0.833   0.541   7.996
  936SOL    HW2 3261   0.811   0.429   8.095
  937SOL     OW 3262   0.930   0.002   8.273
  937SOL    HW1 3263   0.901   0.012   8.182
  937SOL    HW2 3264   0.956   4.410   8.280
  938SOL     OW 3265   1.439   1.157   8.304
  938SOL    HW1 3266   1.368   1.093   8.308
  938SOL    HW2 3267   1.459   1.165   8.211
  939SOL     OW 3268   1.465   0.613   8.405
  939SOL    HW1 3269   1.406   0.538   8.406
  939SOL    HW2 3270   1.518   0.602   8.485
  940SOL     OW 3271   1.836   0.806   7.836
  940SOL    HW1 3272   1.897   0.760   7.893
  940SOL    HW2 3273   1.817   0.744   7.766
  941SOL     OW 3274   0.495   1.424   7.598
  941SOL    HW1 3275   0.416   1.398   7.644
  941SOL    HW2 3276   0.489   1.381   7.513
  942SOL     OW 3277   1.684   1.267   8.085
  942SOL    HW1 3278   1.778   1.266   8.103
  942SOL    HW2 3279   1.656   1.355   8.110
  943SOL     OW 3280   1.394   0.577   7.517
  943SOL    HW1 3281   1.331   0.559   7.586
  943SOL    HW2 3282   1.479   0.564   7.558
  944SOL     OW 3283   0.509   0.260   7.756
  944SOL    HW1 3284   0.567   0.216   7.694
  944SOL    HW2 3285   0.493   0.346   7.717
  945SOL     OW 3286   1.746   1.243   9.002
  945SOL    HW1 3287   1.834   1.207   8.991
  945SOL    HW2 3288   1.761   1.332   9.034
  946SOL     OW 3289   1.052   1.354   8.779
  946SOL    HW1 3290   0.975   1.322   8.828
  946SOL    HW2 3291   1.126   1.311   8.821
  947SOL     OW 3292   1.611   1.630   9.108
  947SOL    HW1 3293   1.601   1.665   9.019
  947SOL    HW2 3294   1.692   1.579   9.105
  948SOL     OW 3295   1.140   1.217   8.549
  948SOL    HW1 3296   1.078   1.254   8.613
  948SOL    HW2 3297   1.111   1.252   8.465
  949SOL     OW 3298   1.620   1.094   8.522
  949SOL    HW1 3299   1.613   1.158   8.593
  949SOL    HW2 3300   1.547   1.113   8.464
  950SOL     OW 3301   0.892   0.139   8.826
  950SOL    HW1 3302   0.918   0.090   8.748
  950SOL    HW2 3303   0.975   0.164   8.867
  951SOL     OW 3304   0.984   1.116   9.172
  951SOL    HW1 3305   0.893   1.132   9.198
  951SOL    HW2 3306   0.979   1.036   9.119
  952SOL     OW 3307   0.710   1.064   7.823
  952SOL    HW1 3308   0.696   1.041   7.915
  952SOL    HW2 3309   0.785   1.010   7.795
  953SOL     OW 3310   0.434   0.835   8.700
  953SOL    HW1 3311   0.500   0.846   8.768
  953SOL    HW2 3312   0.381   0.761   8.730
  954SOL     OW 3313   1.267   0.373   8.726
  954SOL    HW1 3314   1.300   0.452   8.769
  954SOL    HW2 3315   1.177   0.395   8.701
  955SOL     OW 3316   0.066   1.567   8.800
  955SOL    HW1 3317   0.044   1.658   8.784
  955SOL    HW2 3318   0.162   1.565   8.801
  956SOL     OW 3319   0.328   1.115   7.941
  956SOL    HW1 3320   0.339   1.193   7.885
  956SOL    HW2 3321   0.325   1.042   7.879
  957SOL     OW 3322   0.557   0.507   8.298
  957SOL    HW1 3323   0.566   0.569   8.225
  957SOL    HW2 3324   0.618   0.539   8.364
  958SOL     OW 3325   1.246   1.351   7.840
  958SOL    HW1 3326   1.302   1.422   7.873
  958SOL    HW2 3327   1.159   1.372   7.873
  959SOL     OW 3328   1.295   1.463   8.596
  959SOL    HW1 3329   1.349   1.469   8.675
  959SOL    HW2 3330   1.241   1.385   8.610
  960SOL     OW 3331   1.575   0.623   7.928
  960SOL    HW1 3332   1.525   0.660   8.000
  960SOL    HW2 3333   1.619   0.698   7.888
  961SOL     OW 3334   0.344   1.535   8.755
  961SOL    HW1 3335   0.333   1.486   8.673
  961SOL    HW2 3336   0.438   1.547   8.763
  962SOL     OW 3337   0.505   0.747   9.124
  962SOL    HW1 3338   0.544   0.795   9.051
  962SOL    HW2 3339   0.570   0.682   9.148
  963SOL     OW 3340   1.613   0.783   9.137
  963SOL    HW1 3341   1.527   0.824   9.130
  963SOL    HW2 3342   1.665   0.824   9.068
  964SOL     OW 3343   0.984   0.097   9.154
  964SOL    HW1 3344   1.040   0.166   9.119
  964SOL    HW2 3345   1.005   0.020   9.101
  965SOL     OW 3346   0.496   0.037   9.204
  965SOL    HW1 3347   0.483   4.490   9.122
  965SOL    HW2 3348   0.433   0.109   9.200
  966SOL     OW 3349   0.591   0.878   8.476
  966SOL    HW1 3350   0.629   0.966   8.480
  966SOL    HW2 3351   0.536   0.872   8.554
  967SOL     OW 3352   1.336   0.857   8.463
  967SOL    HW1 3353   1.247   0.838   8.431
  967SOL    HW2 3354   1.384   0.776   8.449
  968SOL     OW 3355   1.193   0.538   7.699
  968SOL    HW1 3356   1.204   0.460   7.754
  968SOL    HW2 3357   1.152   0.602   7.757
  969SOL     OW 3358   0.281   0.209   8.682
  969SOL    HW1 3359   0.235   0.227   8.764
  969SOL    HW2 3360   0.332   0.130   8.700
  970SOL     OW 3361   4.499   1.309   8.739
  970SOL    HW1 3362   0.048   1.259   8.805
  970SOL    HW2 3363   0.017   1.400   8.760
  971SOL     OW 3364   0.715   0.627   8.492
  971SOL    HW1 3365   0.794   0.615   8.439
  971SOL    HW2 3366   0.688   0.717   8.473
  972SOL     OW 3367   1.743   0.959   9.310
  972SOL    HW1 3368   1.700   0.891   9.259
  972SOL    HW2 3369   1.681   0.979   9.381
  973SOL     OW 3370   0.328   0.068   8.067
  973SOL    HW1 3371   0.301   0.157   8.092
  973SOL    HW2 3372   0.313   0.016   8.146
  974SOL     OW 3373   1.627   0.392   7.794
  974SOL    HW1 3374   1.648   0.324   7.858
  974SOL    HW2 3375   1.600   0.467   7.847
  975SOL     OW 3376   1.040   0.770   8.408
  975SOL    HW1 3377   1.025   0.785   8.501
  975SOL    HW2 3378   1.007   0.682   8.392
  976SOL     OW 3379   0.982   1.567   9.172
  976SOL    HW1 3380   0.964   1.610   9.089
  976SOL    HW2 3381   1.024   1.484   9.149
  977SOL     OW 3382   1.850   1.499   9.052
  977SOL    HW1 3383   1.872   1.527   8.964
  977SOL    HW2 3384   1.930   1.512   9.103
  978SOL     OW 3385   0.352   0.935   9.263
  978SOL    HW1 3386   0.419   0.967   9.323
  978SOL    HW2 3387   0.395   0.865   9.214
  979SOL     OW 3388   1.525   0.258   7.574
  979SOL    HW1 3389   1.461   0.198   7.613
  979SOL    HW2 3390   1.559   0.308   7.648
  980SOL     OW 3391   1.283   0.826   7.472
  980SOL    HW1 3392   1.325   0.740   7.477
  980SOL    HW2 3393   1.317   0.864   7.391
  981SOL     OW 3394   1.071   1.342   8.307
  981SOL    HW1 3395   1.078   1.271   8.244
  981SOL    HW2 3396   1.127   1.411   8.271
  982SOL     OW 3397   0.320   0.814   8.385
  982SOL    HW1 3398   0.414   0.832   8.388
  982SOL    HW2 3399   0.313   0.721   8.406
  983SOL     OW 3400   0.323   0.536   8.429
  983SOL    HW1 3401   0.277   0.453   8.416
  983SOL    HW2 3402   0.403   0.527   8.376
  984SOL     OW 3403   1.144   0.365   9.157
  984SOL    HW1 3404   1.088   0.425   9.207
  984SOL    HW2 3405   1.224   0.415   9.142
  985SOL     OW 3406   1.142   0.219   8.924
  985SOL    HW1 3407   1.145   0.282   8.996
  985SOL    HW2 3408   1.192   0.261   8.854
  986SOL     OW 3409   4.491   1.316   7.662
  986SOL    HW1 3410   4.399   1.334   7.643
  986SOL    HW2 3411   4.494   1.224   7.686
  987SOL     OW 3412   0.110   1.759   8.391
  987SOL    HW1 3413   0.067   1.722   8.313
  987SOL    HW2 3414   0.196   1.788   8.360
  988SOL     OW 3415   0.491   1.575   8.354
  988SOL    HW1 3416   0.560   1.637   8.378
  988SOL    HW2 3417   0.534   1.513   8.295
  989SOL     OW 3418   0.968   0.791   8.669
  989SOL    HW1 3419   1.028   0.773   8.742
  989SOL    HW2 3420   0.889   0.742   8.691
  990SOL     OW 3421   0.012   0.555   8.526
  990SOL    HW1 3422   0.103   0.534   8.508
  990SOL    HW2 3423   4.484   0.490   8.590
  991SOL     OW 3424   0.176   0.545   9.168
  991SOL    HW1 3425   0.266   0.534   9.136
  991SOL    HW2 3426   0.142   0.619   9.118
  992SOL     OW 3427   1.384   0.930   9.103
  992SOL    HW1 3428   1.405   1.023   9.098
  992SOL    HW2 3429   1.378   0.902   9.011
  993SOL     OW 3430   0.813   0.580   7.816
  993SOL    HW1 3431   0.819   0.509   7.753
  993SOL    HW2 3432   0.739   0.633   7.785
  994SOL     OW 3433   1.634   0.602   8.624
  994SOL    HW1 3434   1.623   0.543   8.699
  994SOL    HW2 3435   1.723   0.585   8.592
  995SOL     OW 3436   0.271   1.564   9.185
  995SOL    HW1 3437   0.205   1.610   9.236
  995SOL    HW2 3438   0.260   1.472   9.209
  996SOL     OW 3439   0.715   0.457   8.702
  996SOL    HW1 3440   0.660   0.383   8.678
  996SOL    HW2 3441   0.709   0.517   8.628
  997SOL     OW 3442   0.918   1.678   8.923
  997SOL    HW1 3443   0.894   1.636   8.840
  997SOL    HW2 3444   0.913   1.772   8.904
  998SOL     OW 3445   0.468   0.492   7.621
  998SOL    HW1 3446   0.531   0.559   7.646
  998SOL    HW2 3447   0.386   0.539   7.608
  999SOL     OW 3448   0.154   1.144   8.903
  999SOL    HW1 3449   0.141   1.098   8.986
  999SOL    HW2 3450   0.165   1.074   8.838
 1000SOL     OW 3451   1.316   1.040   8.663
 1000SOL    HW1 3452   1.334   0.977   8.594
 1000SOL    HW2 3453   1.253   1.101   8.625
 1001SOL     OW 3454   1.320   0.856   7.748
 1001SOL    HW1 3455   1.247   0.828   7.803
 1001SOL    HW2 3456   1.289   0.844   7.658
 1002SOL     OW 3457   1.760   1.732   8.595
 1002SOL    HW1 3458   1.828   1.761   8.533
 1002SOL    HW2 3459   1.746   1.640   8.573
 1003SOL     OW 3460   1.240   1.732   8.545
 1003SOL    HW1 3461   1.325   1.759   8.510
 1003SOL    HW2 3462   1.252   1.640   8.569
 1004SOL     OW 3463   0.080   1.194   8.500
 1004SOL    HW1 3464   0.052   1.219   8.588
 1004SOL    HW2 3465   0.050   1.265   8.444
 1005SOL     OW 3466   0.682   1.675   9.191
 1005SOL    HW1 3467   0.620   1.746   9.177
 1005SOL    HW2 3468   0.753   1.693   9.129
 1006SOL     OW 3469   1.723   0.128   7.925
 1006SOL    HW1 3470   1.787   0.145   7.856
 1006SOL    HW2 3471   1.762   0.057   7.977
 1007SOL     OW 3472   1.394   1.568   7.943
 1007SOL    HW1 3473   1.451   1.602   7.873
 1007SOL    HW2 3474   1.342   1.643   7.971
 1008SOL     OW 3475   0.112   1.806   9.303
 1008SOL    HW1 3476   0.073   1.736   9.355
 1008SOL    HW2 3477   0.179   1.844   9.361
 1009SOL     OW 3478   1.280   0.933   8.119
 1009SOL    HW1 3479   1.354   0.872   8.130
 1009SOL    HW2 3480   1.315   1.003   8.065
 1010SOL     OW 3481   0.799   1.280   8.868
 1010SOL    HW1 3482   0.773   1.322   8.950
 1010SOL    HW2 3483   0.726   1.296   8.808
 1011SOL     OW 3484   0.673   1.629   7.604
 1011SOL    HW1 3485   0.685   1.644   7.510
 1011SOL    HW2 3486   0.618   1.551   7.609
 1012SOL     OW 3487   1.616   1.731   8.839
 1012SOL    HW1 3488   1.666   1.733   8.757
 1012SOL    HW2 3489   1.604   1.822   8.862
 1013SOL     OW 3490   1.841   0.146   8.412
 1013SOL    HW1 3491   1.870   0.067   8.367
 1013SOL    HW2 3492   1.754   0.164   8.375
 1014SOL     OW 3493   0.251   0.319   8.154
 1014SOL    HW1 3494   0.166   0.354   8.128
 1014SOL    HW2 3495   0.244   0.309   8.249
 1015SOL     OW 3496   1.209   1.598   7.482
 1015SOL    HW1 3497   1.197   1.507   7.509
 1015SOL    HW2 3498   1.142   1.612   7.415
 1016SOL     OW 3499   0.826   1.010   8.826
 1016SOL    HW1 3500   0.867   1.001   8.740
 1016SOL    HW2 3501   0.819   1.104   8.840
 1017SOL     OW 3502   0.915   0.911   7.740
 1017SOL    HW1 3503   0.975   0.944   7.672
 1017SOL    HW2 3504   0.966   0.845   7.786
 1018SOL     OW 3505   1.488   1.631   7.496
 1018SOL    HW1 3506   1.394   1.619   7.480
 1018SOL    HW2 3507   1.527   1.637   7.408
 1019SOL     OW 3508   0.370   1.312   8.940
 1019SOL    HW1 3509   0.355   1.390   8.887
 1019SOL    HW2 3510   0.295   1.255   8.920
 1020SOL     OW 3511   1.606   1.286   8.725
 1020SOL    HW1 3512   1.665   1.269   8.798
 1020SOL    HW2 3513   1.546   1.353   8.758
 1021SOL     OW 3514   1.067   1.113   8.162
 1021SOL    HW1 3515   0.993   1.064   8.197
 1021SOL    HW2 3516   1.131   1.046   8.138
 1022SOL     OW 3517   0.994   0.247   8.466
 1022SOL    HW1 3518   1.007   0.235   8.371
 1022SOL    HW2 3519   0.981   0.158   8.499
 1023SOL     OW 3520   0.608   1.487   7.930
 1023SOL    HW1 3521   0.658   1.439   7.864
 1023SOL    HW2 3522   0.527   1.511   7.885
 1024SOL     OW 3523   1.729   0.394   8.821
 1024SOL    HW1 3524   1.804   0.453   8.821
 1024SOL    HW2 3525   1.754   0.322   8.763
 1025SOL     OW 3526   0.255   1.344   7.718
 1025SOL    HW1 3527   0.160   1.336   7.708
 1025SOL    HW2 3528   0.267   1.377   7.807
 1026SOL     OW 3529   0.116   0.996   9.140
 1026SOL    HW1 3530   0.056   1.050   9.191
 1026SOL    HW2 3531   0.197   0.995   9.191
 1027SOL     OW 3532   0.662   0.217   8.949
 1027SOL    HW1 3533   0.740   0.189   8.901
 1027SOL    HW2 3534   0.693   0.234   9.038
 1028SOL     OW 3535   0.078   0.324   7.465
 1028SOL    HW1 3536   4.487   0.326   7.495
 1028SOL    HW2 3537   0.096   0.413   7.434
 1029SOL     OW 3538   1.422   0.857   8.842
 1029SOL    HW1 3539   1.371   0.917   8.787
 1029SOL    HW2 3540   1.510   0.860   8.805
 1030SOL     OW 3541   0.086   0.189   7.749
 1030SOL    HW1 3542   0.077   0.273   7.703
 1030SOL    HW2 3543   0.166   0.151   7.713
 1031SOL     OW 3544   1.178   1.331   7.566
 1031SOL    HW1 3545   1.086   1.303   7.567
 1031SOL    HW2 3546   1.203   1.333   7.659
 1032SOL     OW 3547   0.631   0.831   8.890
 1032SOL    HW1 3548   0.687   0.907   8.873
 1032SOL    HW2 3549   0.691   0.756   8.891
 1033SOL     OW 3550   1.490   1.791   8.439
 1033SOL    HW1 3551   1.513   1.859   8.376
 1033SOL    HW2 3552   1.573   1.767   8.481
 1034SOL     OW 3553   0.712   0.561   9.156
 1034SOL    HW1 3554   0.769   0.615   9.211
 1034SOL    HW2 3555   0.732   0.471   9.183
 1035SOL     OW 3556   1.474   1.191   9.074
 1035SOL    HW1 3557   1.463   1.208   9.167
 1035SOL    HW2 3558   1.565   1.213   9.056
 1036SOL     OW 3559   0.368   1.753   9.015
 1036SOL    HW1 3560   0.284   1.794   8.997
 1036SOL    HW2 3561   0.346   1.673   9.064
 1037SOL     OW 3562   1.661   0.879   8.703
 1037SOL    HW1 3563   1.656   0.794   8.658
 1037SOL    HW2 3564   1.651   0.943   8.632
 1038SOL     OW 3565   1.230   0.339   7.888
 1038SOL    HW1 3566   1.300   0.276   7.874
 1038SOL    HW2 3567   1.255   0.388   7.966
 1039SOL     OW 3568   0.580   0.729   8.127
 1039SOL    HW1 3569   0.623   0.814   8.114
 1039SOL    HW2 3570   0.517   0.722   8.055
 1040SOL     OW 3571   1.751   0.376   9.092
 1040SOL    HW1 3572   1.739   0.389   8.998
 1040SOL    HW2 3573   1.678   0.321   9.118
 1041SOL     OW 3574   1.754   0.932   8.957
 1041SOL    HW1 3575   1.738   1.026   8.971
 1041SOL    HW2 3576   1.732   0.917   8.865
 1042SOL     OW 3577   0.868   1.362   7.498
 1042SOL    HW1 3578   0.829   1.388   7.581
 1042SOL    HW2 3579   0.879   1.445   7.450
 1043SOL     OW 3580   0.667   1.780   8.383
 1043SOL    HW1 3581   0.650   1.872   8.365
 1043SOL    HW2 3582   0.762   1.772   8.377
 1044SOL     OW 3583   0.871   0.974   8.300
 1044SOL    HW1 3584   0.924   0.903   8.337
 1044SOL    HW2 3585   0.829   1.015   8.376
 1045SOL     OW 3586   1.075   0.988   7.538
 1045SOL    HW1 3587   1.054   1.041   7.461
 1045SOL    HW2 3588   1.149   0.934   7.510
 1046SOL     OW 3589   1.840   1.556   8.290
 1046SOL    HW1 3590   1.763   1.546   8.235
 1046SOL    HW2 3591   1.820   1.504   8.368
 1047SOL     OW 3592   0.234   1.303   9.310
 1047SOL    HW1 3593   0.142   1.283   9.296
 1047SOL    HW2 3594   0.243   1.312   9.404
 1048SOL     OW 3595   0.137   1.221   8.116
 1048SOL    HW1 3596   0.160   1.182   8.200
 1048SOL    HW2 3597   0.191   1.175   8.052
 1049SOL     OW 3598   0.690   1.411   9.082
 1049SOL    HW1 3599   0.610   1.368   9.114
 1049SOL    HW2 3600   0.686   1.499   9.119
 1050SOL     OW 3601   1.795   0.171   8.684
 1050SOL    HW1 3602   1.787   0.077   8.702
 1050SOL    HW2 3603   1.818   0.175   8.591
 1051SOL     OW 3604   0.447   0.422   7.984
 1051SOL    HW1 3605   0.455   0.355   7.916
 1051SOL    HW2 3606   0.382   0.386   8.044
 1052SOL     OW 3607   1.703   1.474   8.526
 1052SOL    HW1 3608   1.620   1.458   8.481
 1052SOL    HW2 3609   1.704   1.409   8.597
 1053SOL     OW 3610   0.310   0.516   8.700
 1053SOL    HW1 3611   0.373   0.451   8.731
 1053SOL    HW2 3612   0.327   0.523   8.606
 1054SOL     OW 3613   0.835   1.580   8.121
 1054SOL    HW1 3614   0.810   1.648   8.059
 1054SOL    HW2 3615   0.759   1.521   8.124
 1055SOL     OW 3616   1.427   0.222   8.561
 1055SOL    HW1 3617   1.463   0.150   8.613
 1055SOL    HW2 3618   1.376   0.273   8.624
 1056SOL     OW 3619   0.994   4.494   8.608
 1056SOL    HW1 3620   0.962   4.404   8.604
 1056SOL    HW2 3621   1.089   4.486   8.609
 1057SOL     OW 3622   0.776   1.334   7.771
 1057SOL    HW1 3623   0.751   1.242   7.781
 1057SOL    HW2 3624   0.857   1.342   7.821
 1058SOL     OW 3625   0.620   1.558   8.737
 1058SOL    HW1 3626   0.619   1.641   8.786
 1058SOL    HW2 3627   0.708   1.552   8.701
 1059SOL     OW 3628   1.340   0.049   7.625
 1059SOL    HW1 3629   1.376   4.474   7.577
 1059SOL    HW2 3630   1.260   0.015   7.665
 1060SOL     OW 3631   1.318   0.473   8.113
 1060SOL    HW1 3632   1.263   0.551   8.115
 1060SOL    HW2 3633   1.307   0.433   8.200
 1061SOL     OW 3634   1.587   0.197   8.322
 1061SOL    HW1 3635   1.529   0.214   8.397
 1061SOL    HW2 3636   1.587   0.279   8.273
 1062SOL     OW 3637   0.034   1.048   7.750
 1062SOL    HW1 3638   0.124   1.020   7.736
 1062SOL    HW2 3639   0.016   1.028   7.842
 1063SOL     OW 3640   0.892   1.665   7.783
 1063SOL    HW1 3641   0.816   1.650   7.727
 1063SOL    HW2 3642   0.865   1.735   7.842
 1064SOL     OW 3643   0.238   0.633   9.438
 1064SOL    HW1 3644   0.165   0.600   9.491
 1064SOL    HW2 3645   0.209   0.621   9.348
 1065SOL     OW 3646   0.195   0.297  10.298
 1065SOL    HW1 3647   0.219   0.262  10.384
 1065SOL    HW2 3648   0.133   0.233  10.263
 1066SOL     OW 3649   4.495   0.406   9.945
 1066SOL    HW1 3650   4.423   0.442   9.997
 1066SOL    HW2 3651   4.455   0.334   9.896
 1067SOL     OW 3652   0.570   1.301  10.502
 1067SOL    HW1 3653   0.486   1.305  10.456
 1067SOL    HW2 3654   0.585   1.390  10.533
 1068SOL     OW 3655   1.578   1.518  10.019
 1068SOL    HW1 3656   1.535   1.493  10.100
 1068SOL    HW2 3657   1.508   1.521   9.954
 1069SOL     OW 3658   1.145   0.696   9.998
 1069SOL    HW1 3659   1.187   0.782   9.993
 1069SOL    HW2 3660   1.092   0.700  10.077
 1070SOL     OW 3661   1.791   0.595   9.530
 1070SOL    HW1 3662   1.758   0.591   9.440
 1070SOL    HW2 3663   1.748   0.521   9.574
 1071SOL     OW 3664   0.738   1.135  10.359
 1071SOL    HW1 3665   0.674   1.174  10.419
 1071SOL    HW2 3666   0.779   1.209  10.316
 1072SOL     OW 3667   0.873   0.752   0.029
 1072SOL    HW1 3668   0.874   0.805   0.109
 1072SOL    HW2 3669   0.902   0.811  11.060
 1073SOL     OW 3670   0.683   0.993   9.955
 1073SOL    HW1 3671   0.751   0.987  10.022
 1073SOL    HW2 3672   0.616   1.049   9.994
 1074SOL     OW 3673   0.335   1.413  10.374
 1074SOL    HW1 3674   0.256   1.388  10.328
 1074SOL    HW2 3675   0.382   1.470  10.313
 1075SOL     OW 3676   1.462   1.502  10.668
 1075SOL    HW1 3677   1.521   1.578  10.673
 1075SOL    HW2 3678   1.392   1.522  10.730
 1076SOL     OW 3679   0.440   0.380  10.778
 1076SOL    HW1 3680   0.518   0.325  10.773
 1076SOL    HW2 3681   0.408   0.368  10.868
 1077SOL     OW 3682   1.601   0.439  10.049
 1077SOL    HW1 3683   1.522   0.453   9.997
 1077SOL    HW2 3684   1.604   0.514  10.108
 1078SOL     OW 3685   0.245   1.689   9.777
 1078SOL    HW1 3686   0.227   1.773   9.819
 1078SOL    HW2 3687   0.321   1.706   9.721
 1079SOL     OW 3688   0.267   1.424   9.832
 1079SOL    HW1 3689   0.249   1.518   9.837
 1079SOL    HW2 3690   0.211   1.385   9.899
 1080SOL     OW 3691   0.261   1.085  10.197
 1080SOL    HW1 3692   0.273   0.992  10.218
 1080SOL    HW2 3693   0.199   1.117  10.263
 1081SOL     OW 3694   0.600   1.794  10.733
 1081SOL    HW1 3695   0.522   1.778  10.785
 1081SOL    HW2 3696   0.627   1.883  10.758
 1082SOL     OW 3697   0.564   0.997   9.460
 1082SOL    HW1 3698   0.617   1.034   9.389
 1082SOL    HW2 3699   0.607   1.026   9.540
 1083SOL     OW 3700   1.549   0.142  10.800
 1083SOL    HW1 3701   1.580   0.202  10.733
 1083SOL    HW2 3702   1.626   0.126  10.855
 1084SOL     OW 3703   0.135   0.649   9.879
 1084SOL    HW1 3704   0.089   0.570   9.907
 1084SOL    HW2 3705   0.110   0.715   9.943
 1085SOL     OW 3706   1.842   1.751   9.632
 1085SOL    HW1 3707   1.912   1.725   9.692
 1085SOL    HW2 3708   1.857   1.843   9.614
 1086SOL     OW 3709   0.033   1.606   9.473
 1086SOL    HW1 3710   0.013   1.513   9.466
 1086SOL    HW2 3711   0.064   1.618   9.563
 1087SOL     OW 3712   1.692   0.922   9.957
 1087SOL    HW1 3713   1.772   0.876   9.930
 1087SOL    HW2 3714   1.668   0.974   9.880
 1088SOL     OW 3715   1.652   1.103   9.739
 1088SOL    HW1 3716   1.739   1.101   9.699
 1088SOL    HW2 3717   1.660   1.168   9.809
 1089SOL     OW 3718   0.076   0.775  10.899
 1089SOL    HW1 3719   0.157   0.741  10.861
 1089SOL    HW2 3720   0.094   0.867  10.916
 1090SOL     OW 3721   0.618   1.393  10.048
 1090SOL    HW1 3722   0.572   1.309  10.055
 1090SOL    HW2 3723   0.602   1.420   9.957
 1091SOL     OW 3724   1.280   1.235  10.755
 1091SOL    HW1 3725   1.305   1.173  10.687
 1091SOL    HW2 3726   1.337   1.215  10.829
 1092SOL     OW 3727   0.837   0.024   9.876
 1092SOL    HW1 3728   0.874   0.107   9.846
 1092SOL    HW2 3729   0.743   0.033   9.859
 1093SOL     OW 3730   0.171   0.941  10.587
 1093SOL    HW1 3731   0.261   0.912  10.573
 1093SOL    HW2 3732   0.132   0.941  10.500
 1094SOL     OW 3733   1.532   1.002   9.510
 1094SOL    HW1 3734   1.463   0.945   9.543
 1094SOL    HW2 3735   1.575   1.035   9.589
 1095SOL     OW 3736   1.198   1.810  10.933
 1095SOL    HW1 3737   1.191   1.876  10.865
 1095SOL    HW2 3738   1.211   1.728  10.886
 1096SOL     OW 3739   0.319   0.320  11.034
 1096SOL    HW1 3740   0.382   0.350  11.100
 1096SOL    HW2 3741   0.235   0.319  11.079
 1097SOL     OW 3742   1.470   1.419  10.252
 1097SOL    HW1 3743   1.404   1.437  10.319
 1097SOL    HW2 3744   1.455   1.328  10.227
 1098SOL     OW 3745   1.653   1.761   9.882
 1098SOL    HW1 3746   1.631   1.725   9.797
 1098SOL    HW2 3747   1.638   1.690   9.944
 1099SOL     OW 3748   0.592   0.720   9.581
 1099SOL    HW1 3749   0.590   0.807   9.540
 1099SOL    HW2 3750   0.526   0.725   9.650
 1100SOL     OW 3751   1.294   0.384  10.236
 1100SOL    HW1 3752   1.206   0.351  10.216
 1100SOL    HW2 3753   1.329   0.321  10.299
 1101SOL     OW 3754   1.576   1.674   9.622
 1101SOL    HW1 3755   1.668   1.697   9.612
 1101SOL    HW2 3756   1.546   1.658   9.532
 1102SOL     OW 3757   0.803   0.615  10.758
 1102SOL    HW1 3758   0.772   0.587  10.844
 1102SOL    HW2 3759   0.771   0.548  10.698
 1103SOL     OW 3760   0.966   0.903  10.916
 1103SOL    HW1 3761   1.016   0.835  10.871
 1103SOL    HW2 3762   0.916   0.945  10.847
 1104SOL     OW 3763   1.004   0.422  10.535
 1104SOL    HW1 3764   0.913   0.426  10.565
 1104SOL    HW2 3765   1.001   0.363  10.460
 1105SOL     OW 3766   1.054   0.701   9.732
 1105SOL    HW1 3767   1.076   0.692   9.825
 1105SOL    HW2 3768   0.969   0.658   9.723
 1106SOL     OW 3769   0.086   0.828  10.096
 1106SOL    HW1 3770   0.170   0.824  10.140
 1106SOL    HW2 3771   0.022   0.819  10.166
 1107SOL     OW 3772   0.112   1.851  10.902
 1107SOL    HW1 3773   0.107   1.788  10.973
 1107SOL    HW2 3774   0.043   1.824  10.841
 1108SOL     OW 3775   0.859   0.374   9.507
 1108SOL    HW1 3776   0.917   0.408   9.439
 1108SOL    HW2 3777   0.867   0.279   9.501
 1109SOL     OW 3778   1.384   1.143   9.848
 1109SOL    HW1 3779   1.463   1.133   9.795
 1109SOL    HW2 3780   1.330   1.205   9.799
 1110SOL     OW 3781   0.535   0.219  10.209
 1110SOL    HW1 3782   0.552   0.231  10.303
 1110SOL    HW2 3783   0.535   0.308  10.173
 1111SOL     OW 3784   0.997   1.446   9.777
 1111SOL    HW1 3785   0.970   1.522   9.725
 1111SOL    HW2 3786   0.971   1.467   9.866
 1112SOL     OW 3787   0.361   1.821  10.173
 1112SOL    HW1 3788   0.403   1.736  10.185
 1112SOL    HW2 3789   0.430   1.884  10.195
 1113SOL     OW 3790   1.803   1.049  10.184
 1113SOL    HW1 3791   1.751   1.028  10.107
 1113SOL    HW2 3792   1.739   1.056  10.255
 1114SOL     OW 3793   1.230   1.535  10.815
 1114SOL    HW1 3794   1.240   1.443  10.839
 1114SOL    HW2 3795   1.153   1.537  10.758
 1115SOL     OW 3796   0.304   0.948   9.577
 1115SOL    HW1 3797   0.385   0.974   9.532
 1115SOL    HW2 3798   0.296   0.854   9.560
 1116SOL     OW 3799   1.484   0.754  10.027
 1116SOL    HW1 3800   1.480   0.714  10.114
 1116SOL    HW2 3801   1.562   0.808  10.029
 1117SOL     OW 3802   0.462   1.263  11.049
 1117SOL    HW1 3803   0.426   1.288  10.964
 1117SOL    HW2 3804   0.405   1.193  11.080
 1118SOL     OW 3805   1.127   1.778   9.537
 1118SOL    HW1 3806   1.050   1.741   9.579
 1118SOL    HW2 3807   1.151   1.714   9.470
 1119SOL     OW 3808   0.152   0.255  10.817
 1119SOL    HW1 3809   0.120   0.339  10.784
 1119SOL    HW2 3810   0.214   0.279  10.886
 1120SOL     OW 3811   1.631   1.384   9.405
 1120SOL    HW1 3812   1.589   1.469   9.389
 1120SOL    HW2 3813   1.564   1.320   9.382
 1121SOL     OW 3814   0.469   1.741   9.622
 1121SOL    HW1 3815   0.515   1.795   9.686
 1121SOL    HW2 3816   0.539   1.702   9.569
 1122SOL     OW 3817   1.435   0.150   9.740
 1122SOL    HW1 3818   1.418   0.093   9.665
 1122SOL    HW2 3819   1.528   0.138   9.760
 1123SOL     OW 3820   0.240   1.785  10.528
 1123SOL    HW1 3821   0.288   1.708  10.559
 1123SOL    HW2 3822   0.203   1.758  10.444
 1124SOL     OW 3823   0.943   1.700  10.204
 1124SOL    HW1 3824   1.025   1.654  10.223
 1124SOL    HW2 3825   0.903   1.649  10.134
 1125SOL     OW 3826   0.398   0.683   9.780
 1125SOL    HW1 3827   0.422   0.592   9.798
 1125SOL    HW2 3828   0.306   0.690   9.806
 1126SOL     OW 3829   0.635   0.124   9.425
 1126SOL    HW1 3830   0.722   0.087   9.441
 1126SOL    HW2 3831   0.602   0.076   9.349
 1127SOL     OW 3832   0.751   0.283  11.049
 1127SOL    HW1 3833   0.821   0.220  11.058
 1127SOL    HW2 3834   0.697   0.271   0.027
 1128SOL     OW 3835   0.876   1.525  10.506
 1128SOL    HW1 3836   0.857   1.487  10.420
 1128SOL    HW2 3837   0.946   1.470  10.541
 1129SOL     OW 3838   1.343   0.595  10.756
 1129SOL    HW1 3839   1.397   0.574  10.832
 1129SOL    HW2 3840   1.369   0.684  10.732
 1130SOL     OW 3841   0.820   1.385  10.261
 1130SOL    HW1 3842   0.905   1.375  10.218
 1130SOL    HW2 3843   0.758   1.395  10.188
 1131SOL     OW 3844   0.930   0.533  10.204
 1131SOL    HW1 3845   0.911   0.527  10.110
 1131SOL    HW2 3846   0.955   0.444  10.229
 1132SOL     OW 3847   0.576   0.078   9.816
 1132SOL    HW1 3848   0.492   0.062   9.859
 1132SOL    HW2 3849   0.555   0.140   9.746
 1133SOL     OW 3850   1.429   1.204   9.347
 1133SOL    HW1 3851   1.458   1.129   9.399
 1133SOL    HW2 3852   1.344   1.227   9.383
 1134SOL     OW 3853   0.303   0.066   9.503
 1134SOL    HW1 3854   0.384   0.118   9.510
 1134SOL    HW2 3855   0.314   4.497   9.568
 1135SOL     OW 3856   0.969   0.241   9.770
 1135SOL    HW1 3857   0.914   0.310   9.732
 1135SOL    HW2 3858   1.058   0.273   9.759
 1136SOL     OW 3859   1.080   0.699  10.770
 1136SOL    HW1 3860   1.009   0.634  10.772
 1136SOL    HW2 3861   1.160   0.646  10.770
 1137SOL     OW 3862   1.214   1.578  10.107
 1137SOL    HW1 3863   1.229   1.640  10.037
 1137SOL    HW2 3864   1.286   1.593  10.169
 1138SOL     OW 3865   0.472   1.156  10.037
 1138SOL    HW1 3866   0.407   1.136  10.104
 1138SOL    HW2 3867   0.427   1.142   9.954
 1139SOL     OW 3868   1.260   1.791   9.924
 1139SOL    HW1 3869   1.309   1.853   9.870
 1139SOL    HW2 3870   1.191   1.844   9.964
 1140SOL     OW 3871   1.023   0.532   9.335
 1140SOL    HW1 3872   0.979   0.616   9.319
 1140SOL    HW2 3873   1.082   0.550   9.408
 1141SOL     OW 3874   0.073   0.493  10.710
 1141SOL    HW1 3875   0.150   0.508  10.654
 1141SOL    HW2 3876   0.058   0.577  10.753
 1142SOL     OW 3877   0.550   0.249  10.482
 1142SOL    HW1 3878   0.577   0.167  10.521
 1142SOL    HW2 3879   0.456   0.255  10.499
 1143SOL     OW 3880   0.866   0.506   9.941
 1143SOL    HW1 3881   0.833   0.541   9.858
 1143SOL    HW2 3882   0.811   0.428   9.957
 1144SOL     OW 3883   0.932   0.002  10.134
 1144SOL    HW1 3884   0.901   0.012  10.044
 1144SOL    HW2 3885   0.957   4.410  10.141
 1145SOL     OW 3886   1.439   1.159  10.166
 1145SOL    HW1 3887   1.370   1.093  10.169
 1145SOL    HW2 3888   1.461   1.166  10.073
 1146SOL     OW 3889   1.465   0.615  10.269
 1146SOL    HW1 3890   1.405   0.540  10.269
 1146SOL    HW2 3891   1.518   0.604  10.348
 1147SOL     OW 3892   1.836   0.807   9.698
 1147SOL    HW1 3893   1.897   0.760   9.755
 1147SOL    HW2 3894   1.817   0.744   9.628
 1148SOL     OW 3895   0.496   1.424   9.460
 1148SOL    HW1 3896   0.416   1.398   9.506
 1148SOL    HW2 3897   0.490   1.381   9.375
 1149SOL     OW 3898   1.683   1.267   9.948
 1149SOL    HW1 3899   1.777   1.264   9.965
 1149SOL    HW2 3900   1.656   1.356   9.972
 1150SOL     OW 3901   1.394   0.577   9.379
 1150SOL    HW1 3902   1.331   0.559   9.448
 1150SOL    HW2 3903   1.479   0.564   9.420
 1151SOL     OW 3904   0.509   0.260   9.619
 1151SOL    HW1 3905   0.567   0.216   9.557
 1151SOL    HW2 3906   0.493   0.346   9.579
 1152SOL     OW 3907   1.753   1.227  10.836
 1152SOL    HW1 3908   1.845   1.202  10.829
 1152SOL    HW2 3909   1.755   1.311  10.883
 1153SOL     OW 3910   1.053   1.352  10.645
 1153SOL    HW1 3911   0.973   1.320  10.688
 1153SOL    HW2 3912   1.124   1.305  10.688
 1154SOL     OW 3913   1.143   1.222  10.410
 1154SOL    HW1 3914   1.075   1.253  10.470
 1154SOL    HW2 3915   1.115   1.253  10.324
 1155SOL     OW 3916   1.622   1.095  10.386
 1155SOL    HW1 3917   1.617   1.158  10.458
 1155SOL    HW2 3918   1.547   1.115  10.330
 1156SOL     OW 3919   0.889   0.136  10.689
 1156SOL    HW1 3920   0.916   0.088  10.611
 1156SOL    HW2 3921   0.971   0.166  10.728
 1157SOL     OW 3922   0.710   1.064   9.685
 1157SOL    HW1 3923   0.696   1.041   9.776
 1157SOL    HW2 3924   0.785   1.010   9.657
 1158SOL     OW 3925   0.427   0.829  10.564
 1158SOL    HW1 3926   0.496   0.837  10.630
 1158SOL    HW2 3927   0.379   0.750  10.589
 1159SOL     OW 3928   1.271   0.383  10.591
 1159SOL    HW1 3929   1.300   0.459  10.641
 1159SOL    HW2 3930   1.181   0.406  10.564
 1160SOL     OW 3931   0.065   1.576  10.672
 1160SOL    HW1 3932   0.046   1.664  10.639
 1160SOL    HW2 3933   0.161   1.570  10.670
 1161SOL     OW 3934   0.329   1.115   9.803
 1161SOL    HW1 3935   0.339   1.192   9.748
 1161SOL    HW2 3936   0.325   1.042   9.741
 1162SOL     OW 3937   0.555   0.508  10.161
 1162SOL    HW1 3938   0.565   0.569  10.088
 1162SOL    HW2 3939   0.617   0.539  10.227
 1163SOL     OW 3940   1.246   1.351   9.702
 1163SOL    HW1 3941   1.302   1.421   9.735
 1163SOL    HW2 3942   1.159   1.372   9.735
 1164SOL     OW 3943   1.294   1.465  10.455
 1164SOL    HW1 3944   1.350   1.468  10.532
 1164SOL    HW2 3945   1.242   1.385  10.466
 1165SOL     OW 3946   1.575   0.623   9.790
 1165SOL    HW1 3947   1.525   0.661   9.862
 1165SOL    HW2 3948   1.620   0.699   9.751
 1166SOL     OW 3949   0.343   1.534  10.615
 1166SOL    HW1 3950   0.332   1.485  10.533
 1166SOL    HW2 3951   0.437   1.548  10.622
 1167SOL     OW 3952   0.506   0.741  10.967
 1167SOL    HW1 3953   0.552   0.784  10.895
 1167SOL    HW2 3954   0.566   0.673  10.997
 1168SOL     OW 3955   1.606   0.747  10.960
 1168SOL    HW1 3956   1.526   0.796  10.939
 1168SOL    HW2 3957   1.676   0.800  10.922
 1169SOL     OW 3958   0.589   0.877  10.341
 1169SOL    HW1 3959   0.626   0.965  10.345
 1169SOL    HW2 3960   0.533   0.871  10.418
 1170SOL     OW 3961   1.338   0.861  10.334
 1170SOL    HW1 3962   1.250   0.843  10.300
 1170SOL    HW2 3963   1.387   0.781  10.319
 1171SOL     OW 3964   1.193   0.538   9.561
 1171SOL    HW1 3965   1.204   0.460   9.616
 1171SOL    HW2 3966   1.151   0.602   9.619
 1172SOL     OW 3967   0.281   0.208  10.549
 1172SOL    HW1 3968   0.242   0.225  10.635
 1172SOL    HW2 3969   0.327   0.125  10.560
 1173SOL     OW 3970   4.500   1.317  10.599
 1173SOL    HW1 3971   0.049   1.265  10.663
 1173SOL    HW2 3972   0.015   1.407  10.626
 1174SOL     OW 3973   0.716   0.627  10.354
 1174SOL    HW1 3974   0.794   0.615  10.301
 1174SOL    HW2 3975   0.687   0.716  10.336
 1175SOL     OW 3976   0.328   0.069   9.929
 1175SOL    HW1 3977   0.301   0.157   9.953
 1175SOL    HW2 3978   0.315   0.017  10.009
 1176SOL     OW 3979   1.626   0.392   9.656
 1176SOL    HW1 3980   1.648   0.324   9.720
 1176SOL    HW2 3981   1.599   0.467   9.709
 1177SOL     OW 3982   1.038   0.771  10.271
 1177SOL    HW1 3983   1.023   0.786  10.365
 1177SOL    HW2 3984   1.006   0.683  10.255
 1178SOL     OW 3985   0.973   1.574  11.003
 1178SOL    HW1 3986   0.959   1.623  10.922
 1178SOL    HW2 3987   0.982   1.483  10.974
 1179SOL     OW 3988   1.848   1.479  10.910
 1179SOL    HW1 3989   1.872   1.520  10.827
 1179SOL    HW2 3990   1.906   1.519  10.975
 1180SOL     OW 3991   0.354   0.936  11.086
 1180SOL    HW1 3992   0.419   0.958   0.053
 1180SOL    HW2 3993   0.393   0.863  11.038
 1181SOL     OW 3994   1.525   0.258   9.436
 1181SOL    HW1 3995   1.461   0.198   9.475
 1181SOL    HW2 3996   1.559   0.308   9.510
 1182SOL     OW 3997   1.283   0.826   9.334
 1182SOL    HW1 3998   1.325   0.740   9.339
 1182SOL    HW2 3999   1.317   0.864   9.253
 1183SOL     OW 4000   1.071   1.342  10.168
 1183SOL    HW1 4001   1.077   1.271  10.105
 1183SOL    HW2 4002   1.126   1.411  10.132
 1184SOL     OW 4003   0.319   0.813  10.247
 1184SOL    HW1 4004   0.413   0.831  10.250
 1184SOL    HW2 4005   0.312   0.720  10.270
 1185SOL     OW 4006   0.323   0.534  10.297
 1185SOL    HW1 4007   0.278   0.451  10.284
 1185SOL    HW2 4008   0.402   0.527  10.243
 1186SOL     OW 4009   1.143   0.211  10.773
 1186SOL    HW1 4010   1.200   0.214  10.850
 1186SOL    HW2 4011   1.185   0.268  10.709
 1187SOL     OW 4012   4.491   1.316   9.524
 1187SOL    HW1 4013   4.399   1.334   9.505
 1187SOL    HW2 4014   4.494   1.224   9.548
 1188SOL     OW 4015   0.109   1.756  10.252
 1188SOL    HW1 4016   0.067   1.720  10.173
 1188SOL    HW2 4017   0.194   1.787  10.221
 1189SOL     OW 4018   0.492   1.575  10.216
 1189SOL    HW1 4019   0.561   1.638  10.238
 1189SOL    HW2 4020   0.534   1.513  10.157
 1190SOL     OW 4021   0.967   0.793  10.535
 1190SOL    HW1 4022   1.027   0.778  10.607
 1190SOL    HW2 4023   0.891   0.738  10.554
 1191SOL     OW 4024   0.011   0.556  10.383
 1191SOL    HW1 4025   0.105   0.541  10.368
 1191SOL    HW2 4026   4.492   0.508  10.463
 1192SOL     OW 4027   0.812   0.580   9.678
 1192SOL    HW1 4028   0.819   0.508   9.615
 1192SOL    HW2 4029   0.739   0.633   9.647
 1193SOL     OW 4030   1.634   0.601  10.486
 1193SOL    HW1 4031   1.623   0.547  10.565
 1193SOL    HW2 4032   1.724   0.585  10.458
 1194SOL     OW 4033   0.253   1.578  11.044
 1194SOL    HW1 4034   0.199   1.590   0.022
 1194SOL    HW2 4035   0.237   1.488  11.018
 1195SOL     OW 4036   0.720   0.452  10.562
 1195SOL    HW1 4037   0.663   0.378  10.540
 1195SOL    HW2 4038   0.711   0.512  10.489
 1196SOL     OW 4039   0.939   1.677  10.749
 1196SOL    HW1 4040   0.909   1.639  10.667
 1196SOL    HW2 4041   0.921   1.771  10.740
 1197SOL     OW 4042   0.467   0.492   9.483
 1197SOL    HW1 4043   0.531   0.559   9.508
 1197SOL    HW2 4044   0.386   0.539   9.470
 1198SOL     OW 4045   0.157   1.152  10.756
 1198SOL    HW1 4046   0.135   1.114  10.841
 1198SOL    HW2 4047   0.165   1.077  10.697
 1199SOL     OW 4048   1.315   1.049  10.537
 1199SOL    HW1 4049   1.336   0.982  10.472
 1199SOL    HW2 4050   1.254   1.108  10.492
 1200SOL     OW 4051   1.320   0.856   9.610
 1200SOL    HW1 4052   1.247   0.828   9.665
 1200SOL    HW2 4053   1.289   0.844   9.520
 1201SOL     OW 4054   1.773   1.737  10.460
 1201SOL    HW1 4055   1.836   1.764  10.394
 1201SOL    HW2 4056   1.753   1.646  10.438
 1202SOL     OW 4057   1.240   1.734  10.409
 1202SOL    HW1 4058   1.324   1.760  10.372
 1202SOL    HW2 4059   1.252   1.642  10.431
 1203SOL     OW 4060   0.080   1.195  10.363
 1203SOL    HW1 4061   0.053   1.222  10.451
 1203SOL    HW2 4062   0.050   1.265  10.306
 1204SOL     OW 4063   1.723   0.128   9.787
 1204SOL    HW1 4064   1.787   0.145   9.718
 1204SOL    HW2 4065   1.762   0.057   9.839
 1205SOL     OW 4066   1.394   1.568   9.805
 1205SOL    HW1 4067   1.450   1.602   9.736
 1205SOL    HW2 4068   1.342   1.643   9.833
 1206SOL     OW 4069   1.280   0.933   9.983
 1206SOL    HW1 4070   1.354   0.872   9.992
 1206SOL    HW2 4071   1.315   1.004   9.928
 1207SOL     OW 4072   0.802   1.279  10.728
 1207SOL    HW1 4073   0.772   1.315  10.811
 1207SOL    HW2 4074   0.730   1.297  10.667
 1208SOL     OW 4075   0.673   1.629   9.466
 1208SOL    HW1 4076   0.685   1.644   9.372
 1208SOL    HW2 4077   0.618   1.551   9.471
 1209SOL     OW 4078   1.608   1.729  10.683
 1209SOL    HW1 4079   1.669   1.740  10.610
 1209SOL    HW2 4080   1.600   1.817  10.721
 1210SOL     OW 4081   1.840   0.148  10.275
 1210SOL    HW1 4082   1.869   0.067  10.233
 1210SOL    HW2 4083   1.753   0.165  10.237
 1211SOL     OW 4084   0.251   0.319  10.017
 1211SOL    HW1 4085   0.166   0.354   9.992
 1211SOL    HW2 4086   0.246   0.310  10.113
 1212SOL     OW 4087   1.209   1.598   9.344
 1212SOL    HW1 4088   1.197   1.507   9.371
 1212SOL    HW2 4089   1.142   1.612   9.277
 1213SOL     OW 4090   0.832   1.009  10.697
 1213SOL    HW1 4091   0.874   0.992  10.613
 1213SOL    HW2 4092   0.825   1.104  10.703
 1214SOL     OW 4093   0.915   0.911   9.602
 1214SOL    HW1 4094   0.975   0.945   9.535
 1214SOL    HW2 4095   0.966   0.845   9.648
 1215SOL     OW 4096   1.488   1.632   9.356
 1215SOL    HW1 4097   1.394   1.620   9.341
 1215SOL    HW2 4098   1.527   1.637   9.269
 1216SOL     OW 4099   0.353   1.332  10.815
 1216SOL    HW1 4100   0.346   1.403  10.751
 1216SOL    HW2 4101   0.288   1.268  10.787
 1217SOL     OW 4102   1.611   1.283  10.592
 1217SOL    HW1 4103   1.663   1.258  10.668
 1217SOL    HW2 4104   1.555   1.353  10.623
 1218SOL     OW 4105   1.067   1.113  10.024
 1218SOL    HW1 4106   0.993   1.063  10.059
 1218SOL    HW2 4107   1.131   1.047  10.001
 1219SOL     OW 4108   0.995   0.248  10.326
 1219SOL    HW1 4109   1.007   0.235  10.232
 1219SOL    HW2 4110   0.981   0.159  10.360
 1220SOL     OW 4111   0.608   1.487   9.792
 1220SOL    HW1 4112   0.658   1.439   9.726
 1220SOL    HW2 4113   0.527   1.511   9.748
 1221SOL     OW 4114   1.722   0.391  10.697
 1221SOL    HW1 4115   1.798   0.449  10.700
 1221SOL    HW2 4116   1.748   0.321  10.636
 1222SOL     OW 4117   0.255   1.344   9.581
 1222SOL    HW1 4118   0.160   1.336   9.571
 1222SOL    HW2 4119   0.267   1.377   9.669
 1223SOL     OW 4120   0.118   1.026  10.995
 1223SOL    HW1 4121   0.069   1.061  11.070
 1223SOL    HW2 4122   0.204   1.004  11.031
 1224SOL     OW 4123   0.648   0.199  10.803
 1224SOL    HW1 4124   0.727   0.175  10.754
 1224SOL    HW2 4125   0.681   0.233  10.887
 1225SOL     OW 4126   0.078   0.324   9.327
 1225SOL    HW1 4127   4.488   0.326   9.357
 1225SOL    HW2 4128   0.096   0.413   9.296
 1226SOL     OW 4129   1.425   0.853  10.713
 1226SOL    HW1 4130   1.373   0.919  10.668
 1226SOL    HW2 4131   1.513   0.861  10.675
 1227SOL     OW 4132   0.086   0.189   9.611
 1227SOL    HW1 4133   0.077   0.273   9.565
 1227SOL    HW2 4134   0.166   0.151   9.575
 1228SOL     OW 4135   1.178   1.331   9.428
 1228SOL    HW1 4136   1.087   1.303   9.429
 1228SOL    HW2 4137   1.203   1.332   9.521
 1229SOL     OW 4138   0.635   0.829  10.744
 1229SOL    HW1 4139   0.693   0.904  10.732
 1229SOL    HW2 4140   0.694   0.753  10.743
 1230SOL     OW 4141   1.487   1.793  10.298
 1230SOL    HW1 4142   1.512   1.861  10.236
 1230SOL    HW2 4143   1.569   1.764  10.337
 1231SOL     OW 4144   0.712   0.563  11.011
 1231SOL    HW1 4145   0.768   0.618  11.066
 1231SOL    HW2 4146   0.735   0.473  11.034
 1232SOL     OW 4147   0.380   1.755  10.883
 1232SOL    HW1 4148   0.302   1.810  10.870
 1232SOL    HW2 4149   0.351   1.685  10.941
 1233SOL     OW 4150   1.661   0.880  10.567
 1233SOL    HW1 4151   1.656   0.795  10.523
 1233SOL    HW2 4152   1.652   0.944  10.496
 1234SOL     OW 4153   1.230   0.339   9.750
 1234SOL    HW1 4154   1.300   0.276   9.737
 1234SOL    HW2 4155   1.255   0.388   9.828
 1235SOL     OW 4156   0.580   0.729   9.989
 1235SOL    HW1 4157   0.623   0.814   9.976
 1235SOL    HW2 4158   0.517   0.722   9.917
 1236SOL     OW 4159   1.741   0.319  10.968
 1236SOL    HW1 4160   1.725   0.355  10.880
 1236SOL    HW2 4161   1.660   0.337  11.016
 1237SOL     OW 4162   1.752   0.935  10.823
 1237SOL    HW1 4163   1.740   1.029  10.836
 1237SOL    HW2 4164   1.731   0.921  10.730
 1238SOL     OW 4165   0.868   1.362   9.359
 1238SOL    HW1 4166   0.828   1.388   9.443
 1238SOL    HW2 4167   0.879   1.445   9.312
 1239SOL     OW 4168   0.668   1.780  10.245
 1239SOL    HW1 4169   0.648   1.872  10.228
 1239SOL    HW2 4170   0.763   1.773  10.238
 1240SOL     OW 4171   0.871   0.974  10.163
 1240SOL    HW1 4172   0.924   0.903  10.199
 1240SOL    HW2 4173   0.829   1.014  10.239
 1241SOL     OW 4174   1.075   0.988   9.400
 1241SOL    HW1 4175   1.054   1.041   9.323
 1241SOL    HW2 4176   1.149   0.934   9.372
 1242SOL     OW 4177   1.843   1.557  10.151
 1242SOL    HW1 4178   1.764   1.546  10.098
 1242SOL    HW2 4179   1.828   1.502  10.228
 1243SOL     OW 4180   0.138   1.222   9.978
 1243SOL    HW1 4181   0.159   1.183  10.063
 1243SOL    HW2 4182   0.191   1.174   9.915
 1244SOL     OW 4183   0.682   1.401  10.943
 1244SOL    HW1 4184   0.618   1.346  10.988
 1244SOL    HW2 4185   0.631   1.475  10.911
 1245SOL     OW 4186   1.787   0.173  10.547
 1245SOL    HW1 4187   1.814   0.084  10.570
 1245SOL    HW2 4188   1.807   0.180  10.453
 1246SOL     OW 4189   0.446   0.422   9.846
 1246SOL    HW1 4190   0.455   0.355   9.778
 1246SOL    HW2 4191   0.382   0.387   9.907
 1247SOL     OW 4192   1.703   1.479  10.393
 1247SOL    HW1 4193   1.621   1.460  10.348
 1247SOL    HW2 4194   1.707   1.414  10.463
 1248SOL     OW 4195   0.310   0.521  10.572
 1248SOL    HW1 4196   0.366   0.453  10.608
 1248SOL    HW2 4197   0.329   0.521  10.478
 1249SOL     OW 4198   0.834   1.581   9.983
 1249SOL    HW1 4199   0.811   1.649   9.921
 1249SOL    HW2 4200   0.759   1.522   9.984
 1250SOL     OW 4201   1.426   0.226  10.423
 1250SOL    HW1 4202   1.467   0.158  10.475
 1250SOL    HW2 4203   1.377   0.278  10.486
 1251SOL     OW 4204   0.993   4.496  10.468
 1251SOL    HW1 4205   0.961   4.405  10.463
 1251SOL    HW2 4206   1.088   4.488  10.465
 1252SOL     OW 4207   0.776   1.334   9.634
 1252SOL    HW1 4208   0.751   1.242   9.643
 1252SOL    HW2 4209   0.858   1.342   9.683
 1253SOL     OW 4210   0.621   1.555  10.605
 1253SOL    HW1 4211   0.618   1.640  10.648
 1253SOL    HW2 4212   0.708   1.551  10.566
 1254SOL     OW 4213   1.340   0.049   9.487
 1254SOL    HW1 4214   1.375   4.474   9.439
 1254SOL    HW2 4215   1.260   0.015   9.527
 1255SOL     OW 4216   1.318   0.473   9.975
 1255SOL    HW1 4217   1.263   0.551   9.977
 1255SOL    HW2 4218   1.307   0.433  10.061
 1256SOL     OW 4219   1.586   0.197  10.184
 1256SOL    HW1 4220   1.527   0.215  10.258
 1256SOL    HW2 4221   1.587   0.279  10.135
 1257SOL     OW 4222   0.033   1.048   9.612
 1257SOL    HW1 4223   0.124   1.020   9.598
 1257SOL    HW2 4224   0.016   1.028   9.704
 1258SOL     OW 4225   0.892   1.665   9.645
 1258SOL    HW1 4226   0.816   1.650   9.589
 1258SOL    HW2 4227   0.865   1.735   9.704
 1259SOL     OW 4228   0.235   2.451   0.103
 1259SOL    HW1 4229   0.164   2.439   0.166
 1259SOL    HW2 4230   0.195   2.498   0.030
 1260SOL     OW 4231   0.212   2.133   0.988
 1260SOL    HW1 4232   0.248   2.106   1.072
 1260SOL    HW2 4233   0.136   2.076   0.975
 1261SOL     OW 4234   0.004   2.271   0.638
 1261SOL    HW1 4235   4.425   2.306   0.678
 1261SOL    HW2 4236   4.475   2.191   0.594
 1262SOL     OW 4237   0.570   3.163   1.189
 1262SOL    HW1 4238   0.484   3.169   1.146
 1262SOL    HW2 4239   0.586   3.252   1.222
 1263SOL     OW 4240   1.578   3.379   0.709
 1263SOL    HW1 4241   1.533   3.353   0.789
 1263SOL    HW2 4242   1.509   3.382   0.643
 1264SOL     OW 4243   1.135   2.563   0.693
 1264SOL    HW1 4244   1.183   2.645   0.682
 1264SOL    HW2 4245   1.087   2.573   0.775
 1265SOL     OW 4246   1.780   2.466   0.211
 1265SOL    HW1 4247   1.721   2.476   0.137
 1265SOL    HW2 4248   1.752   2.384   0.253
 1266SOL     OW 4249   0.738   2.996   1.049
 1266SOL    HW1 4250   0.674   3.035   1.108
 1266SOL    HW2 4251   0.780   3.070   1.006
 1267SOL     OW 4252   0.879   2.617   1.824
 1267SOL    HW1 4253   0.866   2.686   1.890
 1267SOL    HW2 4254   0.900   2.664   1.744
 1268SOL     OW 4255   0.684   2.854   0.647
 1268SOL    HW1 4256   0.751   2.849   0.714
 1268SOL    HW2 4257   0.617   2.912   0.685
 1269SOL     OW 4258   0.714   3.010   1.825
 1269SOL    HW1 4259   0.763   3.086   1.856
 1269SOL    HW2 4260   0.637   3.047   1.782
 1270SOL     OW 4261   0.334   3.276   1.066
 1270SOL    HW1 4262   0.253   3.253   1.020
 1270SOL    HW2 4263   0.381   3.333   1.005
 1271SOL     OW 4264   1.458   3.365   1.365
 1271SOL    HW1 4265   1.512   3.443   1.375
 1271SOL    HW2 4266   1.388   3.376   1.429
 1272SOL     OW 4267   0.457   2.255   1.469
 1272SOL    HW1 4268   0.534   2.198   1.481
 1272SOL    HW2 4269   0.382   2.199   1.490
 1273SOL     OW 4270   1.596   2.299   0.748
 1273SOL    HW1 4271   1.525   2.312   0.686
 1273SOL    HW2 4272   1.594   2.376   0.804
 1274SOL     OW 4273   0.244   3.557   0.471
 1274SOL    HW1 4274   0.236   3.641   0.516
 1274SOL    HW2 4275   0.315   3.569   0.409
 1275SOL     OW 4276   1.137   3.205   1.695
 1275SOL    HW1 4277   1.178   3.197   1.781
 1275SOL    HW2 4278   1.085   3.125   1.686
 1276SOL     OW 4279   0.251   3.291   0.526
 1276SOL    HW1 4280   0.239   3.386   0.527
 1276SOL    HW2 4281   0.193   3.259   0.596
 1277SOL     OW 4282   0.262   2.946   0.887
 1277SOL    HW1 4283   0.273   2.853   0.909
 1277SOL    HW2 4284   0.201   2.979   0.953
 1278SOL     OW 4285   0.601   3.656   1.428
 1278SOL    HW1 4286   0.519   3.638   1.473
 1278SOL    HW2 4287   0.625   3.745   1.454
 1279SOL     OW 4288   0.555   2.857   0.166
 1279SOL    HW1 4289   0.609   2.889   0.094
 1279SOL    HW2 4290   0.600   2.887   0.245
 1280SOL     OW 4291   1.587   1.993   1.458
 1280SOL    HW1 4292   1.621   2.071   1.415
 1280SOL    HW2 4293   1.570   2.021   1.548
 1281SOL     OW 4294   0.133   2.518   0.566
 1281SOL    HW1 4295   0.093   2.436   0.595
 1281SOL    HW2 4296   0.108   2.582   0.634
 1282SOL     OW 4297   1.846   3.613   0.323
 1282SOL    HW1 4298   1.916   3.590   0.384
 1282SOL    HW2 4299   1.861   3.706   0.305
 1283SOL     OW 4300   0.082   3.447   0.157
 1283SOL    HW1 4301   0.051   3.358   0.172
 1283SOL    HW2 4302   0.084   3.488   0.244
 1284SOL     OW 4303   1.691   2.782   0.646
 1284SOL    HW1 4304   1.769   2.735   0.616
 1284SOL    HW2 4305   1.666   2.836   0.571
 1285SOL     OW 4306   1.649   2.962   0.432
 1285SOL    HW1 4307   1.733   2.965   0.385
 1285SOL    HW2 4308   1.659   3.028   0.501
 1286SOL     OW 4309   0.101   2.624   1.554
 1286SOL    HW1 4310   0.186   2.609   1.512
 1286SOL    HW2 4311   0.109   2.712   1.592
 1287SOL     OW 4312   0.619   3.256   0.737
 1287SOL    HW1 4313   0.575   3.172   0.746
 1287SOL    HW2 4314   0.602   3.283   0.646
 1288SOL     OW 4315   1.282   3.096   1.419
 1288SOL    HW1 4316   1.311   3.027   1.359
 1288SOL    HW2 4317   1.342   3.090   1.494
 1289SOL     OW 4318   0.827   1.869   0.522
 1289SOL    HW1 4319   0.866   1.953   0.498
 1289SOL    HW2 4320   0.733   1.885   0.523
 1290SOL     OW 4321   0.175   2.804   1.274
 1290SOL    HW1 4322   0.266   2.781   1.256
 1290SOL    HW2 4323   0.134   2.810   1.188
 1291SOL     OW 4324   1.495   2.882   0.212
 1291SOL    HW1 4325   1.434   2.820   0.252
 1291SOL    HW2 4326   1.555   2.906   0.283
 1292SOL     OW 4327   1.182   3.679   1.628
 1292SOL    HW1 4328   1.186   3.740   1.554
 1292SOL    HW2 4329   1.200   3.594   1.589
 1293SOL     OW 4330   0.342   2.120   1.825
 1293SOL    HW1 4331   0.382   2.197   1.865
 1293SOL    HW2 4332   0.249   2.129   1.845
 1294SOL     OW 4333   1.468   3.281   0.942
 1294SOL    HW1 4334   1.402   3.298   1.010
 1294SOL    HW2 4335   1.454   3.190   0.917
 1295SOL     OW 4336   1.652   3.625   0.576
 1295SOL    HW1 4337   1.631   3.590   0.489
 1295SOL    HW2 4338   1.637   3.551   0.635
 1296SOL     OW 4339   0.594   2.569   0.271
 1296SOL    HW1 4340   0.598   2.656   0.231
 1296SOL    HW2 4341   0.528   2.577   0.340
 1297SOL     OW 4342   1.280   2.236   0.937
 1297SOL    HW1 4343   1.191   2.200   0.944
 1297SOL    HW2 4344   1.334   2.180   0.993
 1298SOL     OW 4345   1.581   3.535   0.317
 1298SOL    HW1 4346   1.674   3.557   0.308
 1298SOL    HW2 4347   1.552   3.517   0.228
 1299SOL     OW 4348   0.791   2.476   1.447
 1299SOL    HW1 4349   0.764   2.448   1.534
 1299SOL    HW2 4350   0.759   2.407   1.389
 1300SOL     OW 4351   1.392   2.337   1.678
 1300SOL    HW1 4352   1.397   2.380   1.763
 1300SOL    HW2 4353   1.444   2.257   1.688
 1301SOL     OW 4354   0.948   2.745   1.588
 1301SOL    HW1 4355   1.004   2.678   1.548
 1301SOL    HW2 4356   0.903   2.786   1.514
 1302SOL     OW 4357   0.996   2.271   1.228
 1302SOL    HW1 4358   0.905   2.285   1.255
 1302SOL    HW2 4359   0.989   2.227   1.143
 1303SOL     OW 4360   1.056   2.567   0.425
 1303SOL    HW1 4361   1.076   2.560   0.518
 1303SOL    HW2 4362   0.972   2.521   0.416
 1304SOL     OW 4363   0.088   2.689   0.786
 1304SOL    HW1 4364   0.171   2.684   0.833
 1304SOL    HW2 4365   0.021   2.683   0.854
 1305SOL     OW 4366   0.117   3.731   1.589
 1305SOL    HW1 4367   0.112   3.705   1.681
 1305SOL    HW2 4368   0.045   3.684   1.547
 1306SOL     OW 4369   0.893   2.211   0.216
 1306SOL    HW1 4370   0.934   2.272   0.155
 1306SOL    HW2 4371   0.903   2.125   0.175
 1307SOL     OW 4372   1.706   2.436   1.833
 1307SOL    HW1 4373   1.671   2.512   1.787
 1307SOL    HW2 4374   1.721   2.371   1.765
 1308SOL     OW 4375   1.384   3.003   0.541
 1308SOL    HW1 4376   1.462   2.992   0.486
 1308SOL    HW2 4377   1.330   3.066   0.492
 1309SOL     OW 4378   0.557   2.036   0.899
 1309SOL    HW1 4379   0.559   2.068   0.989
 1309SOL    HW2 4380   0.555   2.115   0.845
 1310SOL     OW 4381   0.993   3.304   0.472
 1310SOL    HW1 4382   0.967   3.380   0.420
 1310SOL    HW2 4383   0.967   3.326   0.562
 1311SOL     OW 4384   0.362   3.681   0.864
 1311SOL    HW1 4385   0.403   3.595   0.876
 1311SOL    HW2 4386   0.431   3.744   0.885
 1312SOL     OW 4387   1.803   2.907   0.875
 1312SOL    HW1 4388   1.752   2.890   0.796
 1312SOL    HW2 4389   1.737   2.916   0.944
 1313SOL     OW 4390   1.225   3.404   1.514
 1313SOL    HW1 4391   1.213   3.332   1.576
 1313SOL    HW2 4392   1.156   3.391   1.449
 1314SOL     OW 4393   0.299   2.805   0.295
 1314SOL    HW1 4394   0.378   2.830   0.248
 1314SOL    HW2 4395   0.315   2.716   0.326
 1315SOL     OW 4396   1.482   2.615   0.719
 1315SOL    HW1 4397   1.481   2.576   0.806
 1315SOL    HW2 4398   1.561   2.669   0.718
 1316SOL     OW 4399   0.474   3.131   1.735
 1316SOL    HW1 4400   0.448   3.139   1.643
 1316SOL    HW2 4401   0.391   3.127   1.783
 1317SOL     OW 4402   1.109   3.648   0.222
 1317SOL    HW1 4403   1.046   3.601   0.277
 1317SOL    HW2 4404   1.151   3.581   0.170
 1318SOL     OW 4405   0.210   2.132   1.487
 1318SOL    HW1 4406   0.149   2.205   1.493
 1318SOL    HW2 4407   0.177   2.068   1.551
 1319SOL     OW 4408   1.628   3.233   0.092
 1319SOL    HW1 4409   1.586   3.318   0.083
 1319SOL    HW2 4410   1.563   3.171   0.059
 1320SOL     OW 4411   0.468   3.606   0.314
 1320SOL    HW1 4412   0.511   3.662   0.378
 1320SOL    HW2 4413   0.539   3.568   0.263
 1321SOL     OW 4414   1.400   1.969   0.440
 1321SOL    HW1 4415   1.395   1.949   0.346
 1321SOL    HW2 4416   1.494   1.975   0.458
 1322SOL     OW 4417   0.247   3.653   1.216
 1322SOL    HW1 4418   0.292   3.574   1.246
 1322SOL    HW2 4419   0.204   3.626   1.135
 1323SOL     OW 4420   0.942   3.562   0.894
 1323SOL    HW1 4421   1.024   3.515   0.915
 1323SOL    HW2 4422   0.902   3.511   0.824
 1324SOL     OW 4423   0.386   2.558   0.459
 1324SOL    HW1 4424   0.412   2.467   0.474
 1324SOL    HW2 4425   0.297   2.564   0.494
 1325SOL     OW 4426   1.519   2.085   1.723
 1325SOL    HW1 4427   1.529   2.103   1.816
 1325SOL    HW2 4428   1.455   2.014   1.718
 1326SOL     OW 4429   0.623   1.969   0.123
 1326SOL    HW1 4430   0.708   1.926   0.119
 1326SOL    HW2 4431   0.575   1.935   0.047
 1327SOL     OW 4432   0.762   2.144   1.755
 1327SOL    HW1 4433   0.844   2.095   1.751
 1327SOL    HW2 4434   0.716   2.107   1.830
 1328SOL     OW 4435   0.875   3.387   1.196
 1328SOL    HW1 4436   0.857   3.348   1.111
 1328SOL    HW2 4437   0.944   3.332   1.233
 1329SOL     OW 4438   1.336   2.452   1.433
 1329SOL    HW1 4439   1.368   2.421   1.518
 1329SOL    HW2 4440   1.375   2.539   1.424
 1330SOL     OW 4441   0.821   3.246   0.951
 1330SOL    HW1 4442   0.906   3.237   0.908
 1330SOL    HW2 4443   0.759   3.257   0.879
 1331SOL     OW 4444   0.930   2.372   0.898
 1331SOL    HW1 4445   0.904   2.362   0.807
 1331SOL    HW2 4446   0.959   2.284   0.924
 1332SOL     OW 4447   0.563   1.924   0.498
 1332SOL    HW1 4448   0.482   1.920   0.549
 1332SOL    HW2 4449   0.554   2.003   0.445
 1333SOL     OW 4450   1.418   3.064   0.020
 1333SOL    HW1 4451   1.445   2.995   0.081
 1333SOL    HW2 4452   1.337   3.098   0.057
 1334SOL     OW 4453   0.281   1.910   0.189
 1334SOL    HW1 4454   0.324   1.965   0.123
 1334SOL    HW2 4455   0.349   1.849   0.218
 1335SOL     OW 4456   0.946   2.111   0.465
 1335SOL    HW1 4457   0.919   2.150   0.382
 1335SOL    HW2 4458   1.041   2.127   0.470
 1336SOL     OW 4459   1.080   2.549   1.453
 1336SOL    HW1 4460   1.017   2.477   1.457
 1336SOL    HW2 4461   1.165   2.505   1.448
 1337SOL     OW 4462   1.214   3.439   0.797
 1337SOL    HW1 4463   1.228   3.502   0.726
 1337SOL    HW2 4464   1.287   3.454   0.857
 1338SOL     OW 4465   0.476   3.019   0.731
 1338SOL    HW1 4466   0.410   2.998   0.797
 1338SOL    HW2 4467   0.430   3.011   0.647
 1339SOL     OW 4468   1.261   3.653   0.612
 1339SOL    HW1 4469   1.310   3.715   0.558
 1339SOL    HW2 4470   1.192   3.706   0.652
 1340SOL     OW 4471   1.009   2.390   0.051
 1340SOL    HW1 4472   0.975   2.479   0.040
 1340SOL    HW2 4473   1.089   2.402   0.103
 1341SOL     OW 4474   0.070   2.363   1.410
 1341SOL    HW1 4475   0.142   2.365   1.348
 1341SOL    HW2 4476   0.059   2.455   1.437
 1342SOL     OW 4477   0.559   2.089   1.173
 1342SOL    HW1 4478   0.605   2.017   1.216
 1342SOL    HW2 4479   0.467   2.077   1.196
 1343SOL     OW 4480   0.866   2.321   0.639
 1343SOL    HW1 4481   0.827   2.376   0.571
 1343SOL    HW2 4482   0.889   2.240   0.593
 1344SOL     OW 4483   1.019   1.918   0.745
 1344SOL    HW1 4484   0.959   1.912   0.671
 1344SOL    HW2 4485   0.996   1.844   0.801
 1345SOL     OW 4486   1.441   3.021   0.855
 1345SOL    HW1 4487   1.369   2.957   0.856
 1345SOL    HW2 4488   1.465   3.029   0.763
 1346SOL     OW 4489   1.464   2.474   0.962
 1346SOL    HW1 4490   1.405   2.399   0.966
 1346SOL    HW2 4491   1.519   2.466   1.040
 1347SOL     OW 4492   1.845   2.666   0.390
 1347SOL    HW1 4493   1.904   2.616   0.446
 1347SOL    HW2 4494   1.820   2.605   0.320
 1348SOL     OW 4495   0.499   3.285   0.172
 1348SOL    HW1 4496   0.421   3.258   0.219
 1348SOL    HW2 4497   0.497   3.234   0.091
 1349SOL     OW 4498   1.682   3.126   0.642
 1349SOL    HW1 4499   1.777   3.124   0.656
 1349SOL    HW2 4500   1.657   3.216   0.662
 1350SOL     OW 4501   1.385   2.422   0.079
 1350SOL    HW1 4502   1.324   2.407   0.151
 1350SOL    HW2 4503   1.440   2.343   0.077
 1351SOL     OW 4504   0.529   2.128   0.323
 1351SOL    HW1 4505   0.561   2.068   0.256
 1351SOL    HW2 4506   0.506   2.207   0.275
 1352SOL     OW 4507   1.745   3.105   1.552
 1352SOL    HW1 4508   1.832   3.068   1.543
 1352SOL    HW2 4509   1.760   3.194   1.585
 1353SOL     OW 4510   1.051   3.216   1.331
 1353SOL    HW1 4511   0.975   3.184   1.380
 1353SOL    HW2 4512   1.126   3.173   1.373
 1354SOL     OW 4513   1.610   3.492   1.662
 1354SOL    HW1 4514   1.600   3.526   1.573
 1354SOL    HW2 4515   1.690   3.440   1.659
 1355SOL     OW 4516   1.140   3.079   1.101
 1355SOL    HW1 4517   1.078   3.116   1.164
 1355SOL    HW2 4518   1.111   3.114   1.017
 1356SOL     OW 4519   1.620   2.957   1.074
 1356SOL    HW1 4520   1.612   3.021   1.145
 1356SOL    HW2 4521   1.547   2.977   1.016
 1357SOL     OW 4522   0.918   1.953   1.388
 1357SOL    HW1 4523   0.940   1.934   1.297
 1357SOL    HW2 4524   0.997   1.992   1.425
 1358SOL     OW 4525   0.984   2.977   1.723
 1358SOL    HW1 4526   0.893   2.993   1.749
 1358SOL    HW2 4527   0.979   2.898   1.670
 1359SOL     OW 4528   0.713   2.920   0.379
 1359SOL    HW1 4529   0.702   2.898   0.471
 1359SOL    HW2 4530   0.787   2.866   0.351
 1360SOL     OW 4531   0.435   2.699   1.255
 1360SOL    HW1 4532   0.505   2.714   1.318
 1360SOL    HW2 4533   0.381   2.631   1.296
 1361SOL     OW 4534   1.262   2.235   1.284
 1361SOL    HW1 4535   1.294   2.313   1.329
 1361SOL    HW2 4536   1.172   2.255   1.261
 1362SOL     OW 4537   0.065   3.430   1.349
 1362SOL    HW1 4538   0.040   3.522   1.342
 1362SOL    HW2 4539   0.161   3.431   1.350
 1363SOL     OW 4540   0.331   2.991   0.498
 1363SOL    HW1 4541   0.332   3.068   0.441
 1363SOL    HW2 4542   0.319   2.917   0.439
 1364SOL     OW 4543   0.551   2.383   0.853
 1364SOL    HW1 4544   0.565   2.442   0.779
 1364SOL    HW2 4545   0.615   2.410   0.918
 1365SOL     OW 4546   1.244   3.209   0.405
 1365SOL    HW1 4547   1.299   3.282   0.433
 1365SOL    HW2 4548   1.156   3.232   0.434
 1366SOL     OW 4549   1.295   3.325   1.148
 1366SOL    HW1 4550   1.348   3.331   1.227
 1366SOL    HW2 4551   1.240   3.247   1.161
 1367SOL     OW 4552   1.574   2.479   0.486
 1367SOL    HW1 4553   1.524   2.522   0.556
 1367SOL    HW2 4554   1.606   2.551   0.432
 1368SOL     OW 4555   0.343   3.400   1.305
 1368SOL    HW1 4556   0.332   3.350   1.225
 1368SOL    HW2 4557   0.438   3.411   1.314
 1369SOL     OW 4558   0.500   2.608   1.672
 1369SOL    HW1 4559   0.539   2.656   1.599
 1369SOL    HW2 4560   0.566   2.542   1.696
 1370SOL     OW 4561   1.612   2.648   1.692
 1370SOL    HW1 4562   1.526   2.688   1.685
 1370SOL    HW2 4563   1.663   2.689   1.622
 1371SOL     OW 4564   0.995   2.000   1.753
 1371SOL    HW1 4565   1.054   2.073   1.733
 1371SOL    HW2 4566   1.044   1.922   1.729
 1372SOL     OW 4567   0.496   1.904   1.752
 1372SOL    HW1 4568   0.449   1.850   1.687
 1372SOL    HW2 4569   0.441   1.981   1.764
 1373SOL     OW 4570   0.591   2.738   1.029
 1373SOL    HW1 4571   0.627   2.827   1.032
 1373SOL    HW2 4572   0.536   2.732   1.107
 1374SOL     OW 4573   1.338   2.719   1.017
 1374SOL    HW1 4574   1.251   2.702   0.981
 1374SOL    HW2 4575   1.387   2.638   1.004
 1375SOL     OW 4576   1.193   2.383   0.269
 1375SOL    HW1 4577   1.203   2.307   0.325
 1375SOL    HW2 4578   1.153   2.449   0.325
 1376SOL     OW 4579   0.299   2.047   1.239
 1376SOL    HW1 4580   0.265   2.075   1.324
 1376SOL    HW2 4581   0.280   1.953   1.236
 1377SOL     OW 4582   4.500   3.171   1.290
 1377SOL    HW1 4583   0.049   3.122   1.357
 1377SOL    HW2 4584   0.017   3.263   1.310
 1378SOL     OW 4585   0.718   2.488   1.047
 1378SOL    HW1 4586   0.796   2.476   0.994
 1378SOL    HW2 4587   0.690   2.578   1.030
 1379SOL     OW 4588   1.742   2.824   1.864
 1379SOL    HW1 4589   1.699   2.757   1.811
 1379SOL    HW2 4590   1.680   2.843   1.934
 1380SOL     OW 4591   0.322   1.929   0.619
 1380SOL    HW1 4592   0.290   2.017   0.640
 1380SOL    HW2 4593   0.324   1.884   0.703
 1381SOL     OW 4594   1.629   2.245   0.351
 1381SOL    HW1 4595   1.659   2.179   0.413
 1381SOL    HW2 4596   1.603   2.319   0.406
 1382SOL     OW 4597   1.030   2.620   0.956
 1382SOL    HW1 4598   1.018   2.636   1.050
 1382SOL    HW2 4599   1.003   2.529   0.944
 1383SOL     OW 4600   0.982   3.429   1.724
 1383SOL    HW1 4601   0.965   3.472   1.640
 1383SOL    HW2 4602   1.024   3.346   1.701
 1384SOL     OW 4603   1.848   3.360   1.603
 1384SOL    HW1 4604   1.871   3.389   1.515
 1384SOL    HW2 4605   1.928   3.373   1.654
 1385SOL     OW 4606   0.352   2.796   1.814
 1385SOL    HW1 4607   0.419   2.827   1.875
 1385SOL    HW2 4608   0.395   2.726   1.765
 1386SOL     OW 4609   1.520   2.176   0.107
 1386SOL    HW1 4610   1.467   2.098   0.124
 1386SOL    HW2 4611   1.562   2.195   0.191
 1387SOL     OW 4612   1.284   2.671   0.036
 1387SOL    HW1 4613   1.324   2.585   0.043
 1387SOL    HW2 4614   1.339   2.718  11.073
 1388SOL     OW 4615   1.071   3.204   0.859
 1388SOL    HW1 4616   1.078   3.132   0.795
 1388SOL    HW2 4617   1.126   3.273   0.822
 1389SOL     OW 4618   0.319   2.672   0.939
 1389SOL    HW1 4619   0.413   2.691   0.943
 1389SOL    HW2 4620   0.312   2.579   0.960
 1390SOL     OW 4621   0.316   2.389   0.983
 1390SOL    HW1 4622   0.278   2.302   0.969
 1390SOL    HW2 4623   0.397   2.388   0.932
 1391SOL     OW 4624   1.135   2.234   1.686
 1391SOL    HW1 4625   1.088   2.287   1.750
 1391SOL    HW2 4626   1.221   2.275   1.680
 1392SOL     OW 4627   1.159   2.057   1.473
 1392SOL    HW1 4628   1.148   2.120   1.544
 1392SOL    HW2 4629   1.203   2.106   1.404
 1393SOL     OW 4630   0.006   3.185   0.220
 1393SOL    HW1 4631   4.413   3.205   0.207
 1393SOL    HW2 4632   0.006   3.093   0.247
 1394SOL     OW 4633   0.109   3.624   0.944
 1394SOL    HW1 4634   0.066   3.587   0.866
 1394SOL    HW2 4635   0.195   3.651   0.913
 1395SOL     OW 4636   0.492   3.436   0.908
 1395SOL    HW1 4637   0.560   3.499   0.931
 1395SOL    HW2 4638   0.534   3.375   0.847
 1396SOL     OW 4639   0.968   2.647   1.220
 1396SOL    HW1 4640   1.028   2.630   1.292
 1396SOL    HW2 4641   0.886   2.605   1.247
 1397SOL     OW 4642   0.015   2.416   1.067
 1397SOL    HW1 4643   0.110   2.410   1.058
 1397SOL    HW2 4644   4.497   2.380   1.154
 1398SOL     OW 4645   0.179   2.398   1.720
 1398SOL    HW1 4646   0.262   2.369   1.682
 1398SOL    HW2 4647   0.155   2.476   1.670
 1399SOL     OW 4648   1.381   2.792   1.655
 1399SOL    HW1 4649   1.402   2.885   1.651
 1399SOL    HW2 4650   1.377   2.764   1.564
 1400SOL     OW 4651   0.819   2.435   0.376
 1400SOL    HW1 4652   0.828   2.358   0.320
 1400SOL    HW2 4653   0.744   2.482   0.341
 1401SOL     OW 4654   1.635   2.468   1.178
 1401SOL    HW1 4655   1.625   2.407   1.251
 1401SOL    HW2 4656   1.726   2.455   1.149
 1402SOL     OW 4657   0.273   3.425   1.738
 1402SOL    HW1 4658   0.206   3.472   1.788
 1402SOL    HW2 4659   0.261   3.333   1.763
 1403SOL     OW 4660   0.718   2.306   1.249
 1403SOL    HW1 4661   0.658   2.234   1.227
 1403SOL    HW2 4662   0.706   2.369   1.178
 1404SOL     OW 4663   0.919   3.540   1.473
 1404SOL    HW1 4664   0.895   3.498   1.391
 1404SOL    HW2 4665   0.912   3.634   1.455
 1405SOL     OW 4666   0.473   2.341   0.163
 1405SOL    HW1 4667   0.530   2.413   0.191
 1405SOL    HW2 4668   0.389   2.383   0.143
 1406SOL     OW 4669   0.155   3.006   1.454
 1406SOL    HW1 4670   0.142   2.962   1.537
 1406SOL    HW2 4671   0.165   2.935   1.390
 1407SOL     OW 4672   1.317   2.903   1.216
 1407SOL    HW1 4673   1.336   2.840   1.147
 1407SOL    HW2 4674   1.254   2.964   1.177
 1408SOL     OW 4675   1.305   2.710   0.313
 1408SOL    HW1 4676   1.231   2.672   0.360
 1408SOL    HW2 4677   1.288   2.691   0.221
 1409SOL     OW 4678   1.785   3.593   1.164
 1409SOL    HW1 4679   1.844   3.619   1.093
 1409SOL    HW2 4680   1.754   3.506   1.138
 1410SOL     OW 4681   1.239   3.595   1.102
 1410SOL    HW1 4682   1.322   3.621   1.062
 1410SOL    HW2 4683   1.251   3.502   1.123
 1411SOL     OW 4684   0.081   3.055   1.053
 1411SOL    HW1 4685   0.052   3.081   1.140
 1411SOL    HW2 4686   0.051   3.125   0.995
 1412SOL     OW 4687   0.682   3.537   1.743
 1412SOL    HW1 4688   0.618   3.607   1.728
 1412SOL    HW2 4689   0.752   3.554   1.680
 1413SOL     OW 4690   0.927   1.956   0.088
 1413SOL    HW1 4691   0.967   1.918   0.009
 1413SOL    HW2 4692   0.974   1.914   0.160
 1414SOL     OW 4693   1.727   2.023   0.499
 1414SOL    HW1 4694   1.796   2.005   0.434
 1414SOL    HW2 4695   1.710   1.937   0.539
 1415SOL     OW 4696   1.394   3.430   0.497
 1415SOL    HW1 4697   1.452   3.463   0.428
 1415SOL    HW2 4698   1.344   3.506   0.524
 1416SOL     OW 4699   0.112   3.667   1.855
 1416SOL    HW1 4700   0.072   3.597   1.907
 1416SOL    HW2 4701   0.178   3.705   1.913
 1417SOL     OW 4702   1.279   2.793   0.673
 1417SOL    HW1 4703   1.352   2.732   0.682
 1417SOL    HW2 4704   1.313   2.863   0.617
 1418SOL     OW 4705   0.798   3.142   1.420
 1418SOL    HW1 4706   0.772   3.184   1.502
 1418SOL    HW2 4707   0.725   3.158   1.360
 1419SOL     OW 4708   0.676   3.488   0.170
 1419SOL    HW1 4709   0.708   3.486   0.080
 1419SOL    HW2 4710   0.619   3.412   0.177
 1420SOL     OW 4711   1.617   3.590   1.394
 1420SOL    HW1 4712   1.673   3.593   1.316
 1420SOL    HW2 4713   1.603   3.682   1.417
 1421SOL     OW 4714   1.853   2.042   0.967
 1421SOL    HW1 4715   1.887   1.955   0.946
 1421SOL    HW2 4716   1.766   2.044   0.926
 1422SOL     OW 4717   0.257   2.179   0.714
 1422SOL    HW1 4718   0.174   2.220   0.690
 1422SOL    HW2 4719   0.250   2.164   0.808
 1423SOL     OW 4720   1.221   3.457   0.059
 1423SOL    HW1 4721   1.213   3.364   0.079
 1423SOL    HW2 4722   1.155   3.473  11.091
 1424SOL     OW 4723   0.829   2.873   1.377
 1424SOL    HW1 4724   0.869   2.866   1.290
 1424SOL    HW2 4725   0.821   2.967   1.393
 1425SOL     OW 4726   0.915   2.767   0.278
 1425SOL    HW1 4727   0.978   2.810   0.220
 1425SOL    HW2 4728   0.968   2.708   0.332
 1426SOL     OW 4729   1.494   3.484   0.055
 1426SOL    HW1 4730   1.399   3.475   0.055
 1426SOL    HW2 4731   1.517   3.496  11.063
 1427SOL     OW 4732   0.370   3.175   1.490
 1427SOL    HW1 4733   0.354   3.254   1.439
 1427SOL    HW2 4734   0.296   3.118   1.471
 1428SOL     OW 4735   1.606   3.148   1.279
 1428SOL    HW1 4736   1.663   3.128   1.354
 1428SOL    HW2 4737   1.545   3.214   1.312
 1429SOL     OW 4738   1.066   2.974   0.714
 1429SOL    HW1 4739   0.993   2.924   0.750
 1429SOL    HW2 4740   1.131   2.909   0.689
 1430SOL     OW 4741   1.027   2.106   0.966
 1430SOL    HW1 4742   1.024   2.060   0.882
 1430SOL    HW2 4743   1.021   2.036   1.031
 1431SOL     OW 4744   0.606   3.348   0.480
 1431SOL    HW1 4745   0.652   3.298   0.413
 1431SOL    HW2 4746   0.526   3.379   0.437
 1432SOL     OW 4747   1.725   2.263   1.382
 1432SOL    HW1 4748   1.800   2.323   1.385
 1432SOL    HW2 4749   1.753   2.192   1.324
 1433SOL     OW 4750   0.273   3.185   0.286
 1433SOL    HW1 4751   0.185   3.186   0.249
 1433SOL    HW2 4752   0.265   3.230   0.370
 1434SOL     OW 4753   0.116   2.858   1.690
 1434SOL    HW1 4754   0.055   2.911   1.742
 1434SOL    HW2 4755   0.197   2.858   1.742
 1435SOL     OW 4756   0.678   2.059   1.498
 1435SOL    HW1 4757   0.762   2.034   1.459
 1435SOL    HW2 4758   0.701   2.089   1.586
 1436SOL     OW 4759   0.061   2.201   0.002
 1436SOL    HW1 4760   4.489   2.150   0.039
 1436SOL    HW2 4761   0.060   2.283   0.051
 1437SOL     OW 4762   1.423   2.719   1.395
 1437SOL    HW1 4763   1.372   2.779   1.340
 1437SOL    HW2 4764   1.511   2.722   1.359
 1438SOL     OW 4765   0.077   2.023   0.317
 1438SOL    HW1 4766   0.086   2.115   0.290
 1438SOL    HW2 4767   0.151   1.979   0.276
 1439SOL     OW 4768   1.192   3.193   0.127
 1439SOL    HW1 4769   1.098   3.181   0.116
 1439SOL    HW2 4770   1.206   3.184   0.221
 1440SOL     OW 4771   0.633   2.696   1.443
 1440SOL    HW1 4772   0.691   2.770   1.426
 1440SOL    HW2 4773   0.690   2.620   1.442
 1441SOL     OW 4774   1.482   3.654   0.985
 1441SOL    HW1 4775   1.505   3.724   0.924
 1441SOL    HW2 4776   1.567   3.618   1.013
 1442SOL     OW 4777   0.711   2.424   1.705
 1442SOL    HW1 4778   0.769   2.477   1.761
 1442SOL    HW2 4779   0.727   2.334   1.732
 1443SOL     OW 4780   1.473   3.053   1.626
 1443SOL    HW1 4781   1.462   3.070   1.720
 1443SOL    HW2 4782   1.564   3.074   1.608
 1444SOL     OW 4783   0.371   3.613   1.568
 1444SOL    HW1 4784   0.286   3.654   1.550
 1444SOL    HW2 4785   0.349   3.533   1.616
 1445SOL     OW 4786   1.661   2.743   1.254
 1445SOL    HW1 4787   1.655   2.658   1.211
 1445SOL    HW2 4788   1.651   2.807   1.183
 1446SOL     OW 4789   1.216   2.179   0.461
 1446SOL    HW1 4790   1.279   2.107   0.453
 1446SOL    HW2 4791   1.247   2.230   0.536
 1447SOL     OW 4792   0.583   2.592   0.671
 1447SOL    HW1 4793   0.623   2.678   0.661
 1447SOL    HW2 4794   0.516   2.588   0.602
 1448SOL     OW 4795   1.740   2.234   1.654
 1448SOL    HW1 4796   1.726   2.251   1.561
 1448SOL    HW2 4797   1.669   2.174   1.679
 1449SOL     OW 4798   1.748   2.797   1.509
 1449SOL    HW1 4799   1.735   2.891   1.521
 1449SOL    HW2 4800   1.729   2.781   1.417
 1450SOL     OW 4801   0.919   3.216   0.088
 1450SOL    HW1 4802   0.857   3.205   0.160
 1450SOL    HW2 4803   0.888   3.293   0.041
 1451SOL     OW 4804   0.668   3.640   0.936
 1451SOL    HW1 4805   0.649   3.732   0.918
 1451SOL    HW2 4806   0.763   3.633   0.929
 1452SOL     OW 4807   0.871   2.834   0.853
 1452SOL    HW1 4808   0.921   2.761   0.890
 1452SOL    HW2 4809   0.830   2.876   0.929
 1453SOL     OW 4810   1.075   2.846   0.076
 1453SOL    HW1 4811   1.046   2.864  11.086
 1453SOL    HW2 4812   1.152   2.790   0.065
 1454SOL     OW 4813   1.842   3.415   0.840
 1454SOL    HW1 4814   1.763   3.404   0.787
 1454SOL    HW2 4815   1.832   3.352   0.911
 1455SOL     OW 4816   0.235   3.165   1.861
 1455SOL    HW1 4817   0.143   3.143   1.847
 1455SOL    HW2 4818   0.243   3.173   1.956
 1456SOL     OW 4819   0.130   3.076   0.672
 1456SOL    HW1 4820   0.159   3.038   0.755
 1456SOL    HW2 4821   0.192   3.043   0.607
 1457SOL     OW 4822   0.690   3.273   1.635
 1457SOL    HW1 4823   0.611   3.230   1.666
 1457SOL    HW2 4824   0.686   3.361   1.671
 1458SOL     OW 4825   1.818   2.065   1.233
 1458SOL    HW1 4826   1.848   1.980   1.265
 1458SOL    HW2 4827   1.828   2.059   1.138
 1459SOL     OW 4828   0.430   2.300   0.523
 1459SOL    HW1 4829   0.466   2.229   0.471
 1459SOL    HW2 4830   0.382   2.257   0.594
 1460SOL     OW 4831   1.694   3.346   1.090
 1460SOL    HW1 4832   1.616   3.328   1.037
 1460SOL    HW2 4833   1.695   3.277   1.156
 1461SOL     OW 4834   0.295   2.357   1.252
 1461SOL    HW1 4835   0.362   2.296   1.282
 1461SOL    HW2 4836   0.316   2.371   1.159
 1462SOL     OW 4837   0.833   3.440   0.676
 1462SOL    HW1 4838   0.806   3.504   0.611
 1462SOL    HW2 4839   0.758   3.380   0.682
 1463SOL     OW 4840   1.430   2.095   1.117
 1463SOL    HW1 4841   1.452   2.011   1.158
 1463SOL    HW2 4842   1.378   2.141   1.183
 1464SOL     OW 4843   1.009   1.878   1.131
 1464SOL    HW1 4844   0.954   1.813   1.088
 1464SOL    HW2 4845   1.096   1.839   1.133
 1465SOL     OW 4846   0.778   3.186   0.326
 1465SOL    HW1 4847   0.752   3.096   0.344
 1465SOL    HW2 4848   0.856   3.200   0.380
 1466SOL     OW 4849   0.620   3.419   1.289
 1466SOL    HW1 4850   0.620   3.502   1.338
 1466SOL    HW2 4851   0.708   3.414   1.252
 1467SOL     OW 4852   1.351   1.925   0.168
 1467SOL    HW1 4853   1.373   1.872   0.092
 1467SOL    HW2 4854   1.263   1.895   0.193
 1468SOL     OW 4855   1.297   2.327   0.677
 1468SOL    HW1 4856   1.245   2.408   0.679
 1468SOL    HW2 4857   1.291   2.293   0.766
 1469SOL     OW 4858   1.589   2.053   0.888
 1469SOL    HW1 4859   1.534   2.079   0.962
 1469SOL    HW2 4860   1.587   2.129   0.829
 1470SOL     OW 4861   0.030   2.917   0.296
 1470SOL    HW1 4862   0.120   2.885   0.291
 1470SOL    HW2 4863   0.002   2.897   0.385
 1471SOL     OW 4864   0.892   3.528   0.348
 1471SOL    HW1 4865   0.815   3.510   0.293
 1471SOL    HW2 4866   0.865   3.600   0.405
 1472SOL     OW 4867   0.239   2.495   1.988
 1472SOL    HW1 4868   0.166   2.463   2.041
 1472SOL    HW2 4869   0.212   2.478   1.898
 1473SOL     OW 4870   0.212   2.133   2.850
 1473SOL    HW1 4871   0.249   2.106   2.934
 1473SOL    HW2 4872   0.136   2.077   2.837
 1474SOL     OW 4873   0.003   2.272   2.502
 1474SOL    HW1 4874   4.423   2.307   2.541
 1474SOL    HW2 4875   4.473   2.196   2.452
 1475SOL     OW 4876   0.570   3.163   3.052
 1475SOL    HW1 4877   0.484   3.168   3.009
 1475SOL    HW2 4878   0.586   3.252   3.084
 1476SOL     OW 4879   1.577   3.379   2.571
 1476SOL    HW1 4880   1.532   3.354   2.652
 1476SOL    HW2 4881   1.507   3.383   2.505
 1477SOL     OW 4882   1.135   2.562   2.554
 1477SOL    HW1 4883   1.182   2.644   2.543
 1477SOL    HW2 4884   1.086   2.572   2.636
 1478SOL     OW 4885   1.796   2.457   2.084
 1478SOL    HW1 4886   1.758   2.457   1.996
 1478SOL    HW2 4887   1.752   2.385   2.129
 1479SOL     OW 4888   0.738   2.996   2.911
 1479SOL    HW1 4889   0.674   3.035   2.971
 1479SOL    HW2 4890   0.780   3.071   2.869
 1480SOL     OW 4891   0.879   2.617   3.686
 1480SOL    HW1 4892   0.865   2.686   3.751
 1480SOL    HW2 4893   0.900   2.664   3.605
 1481SOL     OW 4894   0.684   2.857   2.506
 1481SOL    HW1 4895   0.751   2.851   2.574
 1481SOL    HW2 4896   0.616   2.913   2.545
 1482SOL     OW 4897   0.715   3.010   3.687
 1482SOL    HW1 4898   0.763   3.086   3.718
 1482SOL    HW2 4899   0.637   3.047   3.644
 1483SOL     OW 4900   0.334   3.276   2.929
 1483SOL    HW1 4901   0.254   3.252   2.882
 1483SOL    HW2 4902   0.381   3.332   2.867
 1484SOL     OW 4903   1.458   3.365   3.226
 1484SOL    HW1 4904   1.512   3.444   3.237
 1484SOL    HW2 4905   1.388   3.376   3.291
 1485SOL     OW 4906   0.457   2.255   3.332
 1485SOL    HW1 4907   0.534   2.198   3.343
 1485SOL    HW2 4908   0.383   2.199   3.352
 1486SOL     OW 4909   1.590   2.300   2.607
 1486SOL    HW1 4910   1.514   2.316   2.551
 1486SOL    HW2 4911   1.593   2.375   2.665
 1487SOL     OW 4912   0.244   3.552   2.329
 1487SOL    HW1 4913   0.228   3.636   2.371
 1487SOL    HW2 4914   0.320   3.568   2.272
 1488SOL     OW 4915   1.137   3.204   3.557
 1488SOL    HW1 4916   1.178   3.197   3.643
 1488SOL    HW2 4917   1.085   3.125   3.548
 1489SOL     OW 4918   0.269   3.286   2.384
 1489SOL    HW1 4919   0.249   3.380   2.389
 1489SOL    HW2 4920   0.212   3.247   2.451
 1490SOL     OW 4921   0.262   2.946   2.749
 1490SOL    HW1 4922   0.273   2.854   2.770
 1490SOL    HW2 4923   0.201   2.979   2.814
 1491SOL     OW 4924   0.602   3.656   3.290
 1491SOL    HW1 4925   0.519   3.638   3.335
 1491SOL    HW2 4926   0.625   3.745   3.316
 1492SOL     OW 4927   0.565   2.857   2.011
 1492SOL    HW1 4928   0.617   2.895   1.940
 1492SOL    HW2 4929   0.608   2.886   2.091
 1493SOL     OW 4930   1.586   1.978   3.331
 1493SOL    HW1 4931   1.629   2.035   3.267
 1493SOL    HW2 4932   1.569   2.035   3.406
 1494SOL     OW 4933   0.136   2.518   2.432
 1494SOL    HW1 4934   0.094   2.436   2.460
 1494SOL    HW2 4935   0.108   2.582   2.497
 1495SOL     OW 4936   1.844   3.611   2.189
 1495SOL    HW1 4937   1.914   3.588   2.250
 1495SOL    HW2 4938   1.859   3.704   2.169
 1496SOL     OW 4939   0.033   3.467   2.025
 1496SOL    HW1 4940   0.013   3.374   2.017
 1496SOL    HW2 4941   0.062   3.479   2.115
 1497SOL     OW 4942   1.692   2.782   2.508
 1497SOL    HW1 4943   1.770   2.734   2.480
 1497SOL    HW2 4944   1.667   2.834   2.431
 1498SOL     OW 4945   1.651   2.964   2.292
 1498SOL    HW1 4946   1.737   2.961   2.252
 1498SOL    HW2 4947   1.658   3.029   2.362
 1499SOL     OW 4948   0.101   2.624   3.416
 1499SOL    HW1 4949   0.186   2.609   3.374
 1499SOL    HW2 4950   0.109   2.712   3.454
 1500SOL     OW 4951   0.618   3.255   2.599
 1500SOL    HW1 4952   0.573   3.171   2.607
 1500SOL    HW2 4953   0.602   3.282   2.509
 1501SOL     OW 4954   1.282   3.096   3.281
 1501SOL    HW1 4955   1.311   3.027   3.221
 1501SOL    HW2 4956   1.342   3.090   3.356
 1502SOL     OW 4957   0.828   1.869   2.379
 1502SOL    HW1 4958   0.868   1.952   2.353
 1502SOL    HW2 4959   0.734   1.886   2.381
 1503SOL     OW 4960   0.175   2.805   3.136
 1503SOL    HW1 4961   0.266   2.780   3.118
 1503SOL    HW2 4962   0.134   2.810   3.050
 1504SOL     OW 4963   1.531   2.865   2.062
 1504SOL    HW1 4964   1.462   2.807   2.094
 1504SOL    HW2 4965   1.574   2.897   2.142
 1505SOL     OW 4966   1.182   3.680   3.490
 1505SOL    HW1 4967   1.186   3.740   3.416
 1505SOL    HW2 4968   1.200   3.594   3.451
 1506SOL     OW 4969   0.342   2.120   3.687
 1506SOL    HW1 4970   0.382   2.197   3.727
 1506SOL    HW2 4971   0.249   2.129   3.707
 1507SOL     OW 4972   1.469   3.281   2.805
 1507SOL    HW1 4973   1.403   3.298   2.872
 1507SOL    HW2 4974   1.454   3.190   2.779
 1508SOL     OW 4975   1.652   3.624   2.436
 1508SOL    HW1 4976   1.631   3.588   2.350
 1508SOL    HW2 4977   1.636   3.551   2.497
 1509SOL     OW 4978   0.597   2.574   2.135
 1509SOL    HW1 4979   0.597   2.660   2.093
 1509SOL    HW2 4980   0.531   2.581   2.204
 1510SOL     OW 4981   1.277   2.237   2.798
 1510SOL    HW1 4982   1.189   2.201   2.806
 1510SOL    HW2 4983   1.330   2.182   2.857
 1511SOL     OW 4984   1.577   3.537   2.174
 1511SOL    HW1 4985   1.670   3.559   2.165
 1511SOL    HW2 4986   1.548   3.521   2.085
 1512SOL     OW 4987   0.791   2.475   3.309
 1512SOL    HW1 4988   0.764   2.447   3.396
 1512SOL    HW2 4989   0.759   2.407   3.251
 1513SOL     OW 4990   1.392   2.338   3.540
 1513SOL    HW1 4991   1.396   2.382   3.625
 1513SOL    HW2 4992   1.444   2.258   3.551
 1514SOL     OW 4993   0.948   2.745   3.450
 1514SOL    HW1 4994   1.004   2.678   3.410
 1514SOL    HW2 4995   0.903   2.786   3.376
 1515SOL     OW 4996   0.996   2.270   3.090
 1515SOL    HW1 4997   0.905   2.285   3.117
 1515SOL    HW2 4998   0.989   2.227   3.005
 1516SOL     OW 4999   1.056   2.561   2.285
 1516SOL    HW1 5000   1.076   2.556   2.378
 1516SOL    HW2 5001   0.973   2.516   2.275
 1517SOL     OW 5002   0.083   2.694   2.651
 1517SOL    HW1 5003   0.168   2.687   2.694
 1517SOL    HW2 5004   0.019   2.682   2.721
 1518SOL     OW 5005   0.118   3.730   3.450
 1518SOL    HW1 5006   0.112   3.704   3.542
 1518SOL    HW2 5007   0.045   3.684   3.409
 1519SOL     OW 5008   0.899   2.213   2.059
 1519SOL    HW1 5009   0.941   2.275   1.999
 1519SOL    HW2 5010   0.901   2.129   2.012
 1520SOL     OW 5011   1.702   2.432   3.693
 1520SOL    HW1 5012   1.668   2.508   3.647
 1520SOL    HW2 5013   1.729   2.372   3.624
 1521SOL     OW 5014   1.383   3.005   2.402
 1521SOL    HW1 5015   1.462   2.994   2.349
 1521SOL    HW2 5016   1.329   3.067   2.352
 1522SOL     OW 5017   0.557   2.037   2.761
 1522SOL    HW1 5018   0.559   2.069   2.851
 1522SOL    HW2 5019   0.555   2.116   2.707
 1523SOL     OW 5020   0.997   3.308   2.329
 1523SOL    HW1 5021   0.970   3.384   2.278
 1523SOL    HW2 5022   0.971   3.328   2.418
 1524SOL     OW 5023   0.362   3.681   2.723
 1524SOL    HW1 5024   0.403   3.595   2.737
 1524SOL    HW2 5025   0.430   3.744   2.746
 1525SOL     OW 5026   1.802   2.910   2.735
 1525SOL    HW1 5027   1.751   2.890   2.657
 1525SOL    HW2 5028   1.737   2.918   2.805
 1526SOL     OW 5029   1.225   3.404   3.376
 1526SOL    HW1 5030   1.213   3.332   3.438
 1526SOL    HW2 5031   1.156   3.391   3.311
 1527SOL     OW 5032   0.304   2.810   2.129
 1527SOL    HW1 5033   0.385   2.835   2.083
 1527SOL    HW2 5034   0.296   2.716   2.113
 1528SOL     OW 5035   1.483   2.615   2.581
 1528SOL    HW1 5036   1.481   2.576   2.668
 1528SOL    HW2 5037   1.562   2.670   2.581
 1529SOL     OW 5038   0.474   3.131   3.597
 1529SOL    HW1 5039   0.448   3.138   3.505
 1529SOL    HW2 5040   0.391   3.127   3.645
 1530SOL     OW 5041   1.127   3.641   2.088
 1530SOL    HW1 5042   1.050   3.604   2.131
 1530SOL    HW2 5043   1.151   3.576   2.021
 1531SOL     OW 5044   0.211   2.131   3.349
 1531SOL    HW1 5045   0.149   2.205   3.355
 1531SOL    HW2 5046   0.178   2.068   3.412
 1532SOL     OW 5047   1.631   3.246   1.956
 1532SOL    HW1 5048   1.589   3.331   1.941
 1532SOL    HW2 5049   1.563   3.182   1.934
 1533SOL     OW 5050   0.469   3.604   2.174
 1533SOL    HW1 5051   0.515   3.657   2.238
 1533SOL    HW2 5052   0.538   3.564   2.121
 1534SOL     OW 5053   1.398   1.969   2.307
 1534SOL    HW1 5054   1.392   1.943   2.215
 1534SOL    HW2 5055   1.492   1.975   2.324
 1535SOL     OW 5056   0.248   3.653   3.077
 1535SOL    HW1 5057   0.292   3.574   3.108
 1535SOL    HW2 5058   0.203   3.626   2.997
 1536SOL     OW 5059   0.942   3.562   2.756
 1536SOL    HW1 5060   1.022   3.515   2.778
 1536SOL    HW2 5061   0.902   3.511   2.686
 1537SOL     OW 5062   0.398   2.552   2.331
 1537SOL    HW1 5063   0.416   2.459   2.344
 1537SOL    HW2 5064   0.306   2.562   2.357
 1538SOL     OW 5065   1.524   2.094   3.586
 1538SOL    HW1 5066   1.532   2.111   3.680
 1538SOL    HW2 5067   1.467   2.017   3.580
 1539SOL     OW 5068   0.651   1.977   1.960
 1539SOL    HW1 5069   0.704   1.901   1.983
 1539SOL    HW2 5070   0.596   1.947   1.888
 1540SOL     OW 5071   0.762   2.144   3.617
 1540SOL    HW1 5072   0.844   2.095   3.613
 1540SOL    HW2 5073   0.716   2.107   3.692
 1541SOL     OW 5074   0.875   3.387   3.058
 1541SOL    HW1 5075   0.857   3.348   2.972
 1541SOL    HW2 5076   0.944   3.332   3.095
 1542SOL     OW 5077   1.336   2.452   3.295
 1542SOL    HW1 5078   1.368   2.421   3.380
 1542SOL    HW2 5079   1.375   2.539   3.285
 1543SOL     OW 5080   0.820   3.247   2.813
 1543SOL    HW1 5081   0.905   3.237   2.770
 1543SOL    HW2 5082   0.758   3.257   2.741
 1544SOL     OW 5083   0.930   2.372   2.759
 1544SOL    HW1 5084   0.904   2.362   2.667
 1544SOL    HW2 5085   0.958   2.284   2.785
 1545SOL     OW 5086   0.564   1.926   2.352
 1545SOL    HW1 5087   0.484   1.923   2.405
 1545SOL    HW2 5088   0.552   2.002   2.295
 1546SOL     OW 5089   1.429   3.066   1.899
 1546SOL    HW1 5090   1.458   2.991   1.952
 1546SOL    HW2 5091   1.343   3.089   1.935
 1547SOL     OW 5092   0.296   1.905   2.037
 1547SOL    HW1 5093   0.358   1.969   2.003
 1547SOL    HW2 5094   0.350   1.841   2.083
 1548SOL     OW 5095   0.946   2.113   2.316
 1548SOL    HW1 5096   0.921   2.150   2.231
 1548SOL    HW2 5097   1.040   2.129   2.322
 1549SOL     OW 5098   1.080   2.549   3.315
 1549SOL    HW1 5099   1.016   2.477   3.319
 1549SOL    HW2 5100   1.165   2.506   3.310
 1550SOL     OW 5101   1.216   3.438   2.658
 1550SOL    HW1 5102   1.229   3.502   2.588
 1550SOL    HW2 5103   1.287   3.455   2.720
 1551SOL     OW 5104   0.473   3.018   2.589
 1551SOL    HW1 5105   0.407   2.998   2.656
 1551SOL    HW2 5106   0.427   3.004   2.506
 1552SOL     OW 5107   1.260   3.652   2.476
 1552SOL    HW1 5108   1.309   3.714   2.422
 1552SOL    HW2 5109   1.190   3.705   2.516
 1553SOL     OW 5110   1.026   2.391   1.889
 1553SOL    HW1 5111   0.983   2.475   1.871
 1553SOL    HW2 5112   1.090   2.412   1.958
 1554SOL     OW 5113   0.070   2.363   3.273
 1554SOL    HW1 5114   0.142   2.365   3.210
 1554SOL    HW2 5115   0.058   2.454   3.299
 1555SOL     OW 5116   0.559   2.089   3.035
 1555SOL    HW1 5117   0.605   2.017   3.079
 1555SOL    HW2 5118   0.467   2.077   3.058
 1556SOL     OW 5119   0.867   2.319   2.499
 1556SOL    HW1 5120   0.825   2.375   2.434
 1556SOL    HW2 5121   0.890   2.240   2.450
 1557SOL     OW 5122   1.019   1.918   2.607
 1557SOL    HW1 5123   0.959   1.911   2.532
 1557SOL    HW2 5124   0.995   1.844   2.663
 1558SOL     OW 5125   1.439   3.020   2.718
 1558SOL    HW1 5126   1.368   2.957   2.721
 1558SOL    HW2 5127   1.460   3.028   2.625
 1559SOL     OW 5128   1.465   2.476   2.825
 1559SOL    HW1 5129   1.406   2.400   2.830
 1559SOL    HW2 5130   1.523   2.466   2.900
 1560SOL     OW 5131   1.836   2.667   2.255
 1560SOL    HW1 5132   1.894   2.617   2.313
 1560SOL    HW2 5133   1.817   2.607   2.183
 1561SOL     OW 5134   0.495   3.287   2.013
 1561SOL    HW1 5135   0.415   3.260   2.058
 1561SOL    HW2 5136   0.489   3.245   1.927
 1562SOL     OW 5137   1.681   3.129   2.500
 1562SOL    HW1 5138   1.776   3.127   2.516
 1562SOL    HW2 5139   1.655   3.218   2.523
 1563SOL     OW 5140   1.393   2.434   1.933
 1563SOL    HW1 5141   1.330   2.413   2.002
 1563SOL    HW2 5142   1.477   2.405   1.968
 1564SOL     OW 5143   0.527   2.121   2.165
 1564SOL    HW1 5144   0.579   2.078   2.098
 1564SOL    HW2 5145   0.501   2.205   2.126
 1565SOL     OW 5146   1.744   3.105   3.414
 1565SOL    HW1 5147   1.832   3.068   3.406
 1565SOL    HW2 5148   1.759   3.194   3.446
 1566SOL     OW 5149   1.051   3.216   3.193
 1566SOL    HW1 5150   0.975   3.184   3.242
 1566SOL    HW2 5151   1.126   3.173   3.235
 1567SOL     OW 5152   1.610   3.492   3.524
 1567SOL    HW1 5153   1.600   3.526   3.435
 1567SOL    HW2 5154   1.690   3.440   3.521
 1568SOL     OW 5155   1.140   3.080   2.963
 1568SOL    HW1 5156   1.078   3.116   3.027
 1568SOL    HW2 5157   1.111   3.114   2.879
 1569SOL     OW 5158   1.621   2.958   2.936
 1569SOL    HW1 5159   1.613   3.021   3.007
 1569SOL    HW2 5160   1.547   2.977   2.879
 1570SOL     OW 5161   0.918   1.953   3.251
 1570SOL    HW1 5162   0.940   1.934   3.160
 1570SOL    HW2 5163   0.997   1.992   3.288
 1571SOL     OW 5164   0.984   2.977   3.586
 1571SOL    HW1 5165   0.893   2.993   3.612
 1571SOL    HW2 5166   0.980   2.897   3.532
 1572SOL     OW 5167   0.711   2.926   2.236
 1572SOL    HW1 5168   0.697   2.904   2.328
 1572SOL    HW2 5169   0.785   2.872   2.209
 1573SOL     OW 5170   0.434   2.699   3.117
 1573SOL    HW1 5171   0.505   2.714   3.180
 1573SOL    HW2 5172   0.381   2.631   3.158
 1574SOL     OW 5173   1.262   2.235   3.146
 1574SOL    HW1 5174   1.294   2.313   3.191
 1574SOL    HW2 5175   1.172   2.255   3.123
 1575SOL     OW 5176   0.065   3.429   3.211
 1575SOL    HW1 5177   0.039   3.521   3.205
 1575SOL    HW2 5178   0.161   3.431   3.212
 1576SOL     OW 5179   0.329   2.977   2.354
 1576SOL    HW1 5180   0.339   3.054   2.299
 1576SOL    HW2 5181   0.326   2.903   2.293
 1577SOL     OW 5182   0.551   2.383   2.715
 1577SOL    HW1 5183   0.565   2.443   2.641
 1577SOL    HW2 5184   0.615   2.410   2.780
 1578SOL     OW 5185   1.246   3.213   2.254
 1578SOL    HW1 5186   1.302   3.283   2.287
 1578SOL    HW2 5187   1.159   3.234   2.287
 1579SOL     OW 5188   1.295   3.325   3.010
 1579SOL    HW1 5189   1.348   3.330   3.089
 1579SOL    HW2 5190   1.240   3.247   3.023
 1580SOL     OW 5191   1.574   2.483   2.344
 1580SOL    HW1 5192   1.524   2.524   2.414
 1580SOL    HW2 5193   1.625   2.554   2.305
 1581SOL     OW 5194   0.343   3.401   3.168
 1581SOL    HW1 5195   0.332   3.350   3.087
 1581SOL    HW2 5196   0.438   3.411   3.176
 1582SOL     OW 5197   0.501   2.609   3.535
 1582SOL    HW1 5198   0.539   2.656   3.461
 1582SOL    HW2 5199   0.566   2.543   3.558
 1583SOL     OW 5200   1.613   2.646   3.554
 1583SOL    HW1 5201   1.526   2.686   3.546
 1583SOL    HW2 5202   1.664   2.687   3.484
 1584SOL     OW 5203   0.995   2.000   3.615
 1584SOL    HW1 5204   1.055   2.072   3.595
 1584SOL    HW2 5205   1.044   1.922   3.591
 1585SOL     OW 5206   0.496   1.904   3.614
 1585SOL    HW1 5207   0.449   1.850   3.549
 1585SOL    HW2 5208   0.441   1.981   3.626
 1586SOL     OW 5209   0.591   2.738   2.892
 1586SOL    HW1 5210   0.627   2.826   2.894
 1586SOL    HW2 5211   0.535   2.732   2.969
 1587SOL     OW 5212   1.338   2.720   2.878
 1587SOL    HW1 5213   1.250   2.701   2.843
 1587SOL    HW2 5214   1.387   2.639   2.866
 1588SOL     OW 5215   1.197   2.388   2.121
 1588SOL    HW1 5216   1.206   2.310   2.176
 1588SOL    HW2 5217   1.156   2.453   2.178
 1589SOL     OW 5218   0.299   2.047   3.101
 1589SOL    HW1 5219   0.265   2.075   3.186
 1589SOL    HW2 5220   0.280   1.953   3.098
 1590SOL     OW 5221   4.500   3.171   3.152
 1590SOL    HW1 5222   0.049   3.122   3.219
 1590SOL    HW2 5223   0.017   3.263   3.172
 1591SOL     OW 5224   0.718   2.488   2.910
 1591SOL    HW1 5225   0.796   2.476   2.855
 1591SOL    HW2 5226   0.690   2.578   2.892
 1592SOL     OW 5227   1.743   2.823   3.726
 1592SOL    HW1 5228   1.700   2.756   3.673
 1592SOL    HW2 5229   1.680   2.842   3.796
 1593SOL     OW 5230   0.325   1.930   2.478
 1593SOL    HW1 5231   0.291   2.016   2.500
 1593SOL    HW2 5232   0.327   1.883   2.561
 1594SOL     OW 5233   1.626   2.245   2.218
 1594SOL    HW1 5234   1.654   2.181   2.282
 1594SOL    HW2 5235   1.599   2.321   2.270
 1595SOL     OW 5236   1.030   2.620   2.818
 1595SOL    HW1 5237   1.018   2.636   2.911
 1595SOL    HW2 5238   1.003   2.529   2.806
 1596SOL     OW 5239   0.982   3.429   3.586
 1596SOL    HW1 5240   0.965   3.472   3.502
 1596SOL    HW2 5241   1.024   3.346   3.563
 1597SOL     OW 5242   1.848   3.361   3.465
 1597SOL    HW1 5243   1.871   3.389   3.377
 1597SOL    HW2 5244   1.928   3.372   3.517
 1598SOL     OW 5245   0.352   2.796   3.677
 1598SOL    HW1 5246   0.419   2.827   3.737
 1598SOL    HW2 5247   0.394   2.726   3.627
 1599SOL     OW 5248   1.525   2.132   1.987
 1599SOL    HW1 5249   1.464   2.065   2.018
 1599SOL    HW2 5250   1.561   2.171   2.066
 1600SOL     OW 5251   1.284   2.685   1.888
 1600SOL    HW1 5252   1.327   2.599   1.893
 1600SOL    HW2 5253   1.317   2.723   1.807
 1601SOL     OW 5254   1.071   3.204   2.721
 1601SOL    HW1 5255   1.078   3.133   2.658
 1601SOL    HW2 5256   1.127   3.273   2.685
 1602SOL     OW 5257   0.318   2.673   2.800
 1602SOL    HW1 5258   0.412   2.690   2.802
 1602SOL    HW2 5259   0.311   2.579   2.820
 1603SOL     OW 5260   0.316   2.389   2.845
 1603SOL    HW1 5261   0.278   2.302   2.831
 1603SOL    HW2 5262   0.397   2.388   2.794
 1604SOL     OW 5263   1.135   2.234   3.548
 1604SOL    HW1 5264   1.088   2.287   3.612
 1604SOL    HW2 5265   1.221   2.275   3.542
 1605SOL     OW 5266   1.159   2.057   3.335
 1605SOL    HW1 5267   1.148   2.120   3.406
 1605SOL    HW2 5268   1.203   2.107   3.266
 1606SOL     OW 5269   4.491   3.178   2.077
 1606SOL    HW1 5270   4.399   3.195   2.058
 1606SOL    HW2 5271   4.494   3.085   2.100
 1607SOL     OW 5272   0.110   3.624   2.806
 1607SOL    HW1 5273   0.067   3.586   2.729
 1607SOL    HW2 5274   0.196   3.651   2.774
 1608SOL     OW 5275   0.491   3.436   2.769
 1608SOL    HW1 5276   0.560   3.498   2.792
 1608SOL    HW2 5277   0.534   3.374   2.710
 1609SOL     OW 5278   0.968   2.647   3.082
 1609SOL    HW1 5279   1.028   2.630   3.154
 1609SOL    HW2 5280   0.886   2.605   3.108
 1610SOL     OW 5281   0.015   2.417   2.929
 1610SOL    HW1 5282   0.110   2.411   2.920
 1610SOL    HW2 5283   4.497   2.380   3.015
 1611SOL     OW 5284   0.179   2.398   3.582
 1611SOL    HW1 5285   0.262   2.369   3.543
 1611SOL    HW2 5286   0.155   2.476   3.532
 1612SOL     OW 5287   1.382   2.792   3.517
 1612SOL    HW1 5288   1.403   2.885   3.513
 1612SOL    HW2 5289   1.378   2.764   3.426
 1613SOL     OW 5290   0.820   2.432   2.232
 1613SOL    HW1 5291   0.826   2.357   2.171
 1613SOL    HW2 5292   0.745   2.482   2.200
 1614SOL     OW 5293   1.645   2.466   3.033
 1614SOL    HW1 5294   1.637   2.409   3.109
 1614SOL    HW2 5295   1.734   2.452   3.001
 1615SOL     OW 5296   0.273   3.425   3.601
 1615SOL    HW1 5297   0.206   3.472   3.650
 1615SOL    HW2 5298   0.261   3.333   3.625
 1616SOL     OW 5299   0.718   2.305   3.111
 1616SOL    HW1 5300   0.659   2.234   3.089
 1616SOL    HW2 5301   0.707   2.369   3.040
 1617SOL     OW 5302   0.919   3.540   3.335
 1617SOL    HW1 5303   0.895   3.498   3.253
 1617SOL    HW2 5304   0.912   3.634   3.317
 1618SOL     OW 5305   0.466   2.350   2.030
 1618SOL    HW1 5306   0.529   2.416   2.059
 1618SOL    HW2 5307   0.384   2.399   2.021
 1619SOL     OW 5308   0.155   3.006   3.316
 1619SOL    HW1 5309   0.142   2.962   3.399
 1619SOL    HW2 5310   0.165   2.935   3.252
 1620SOL     OW 5311   1.317   2.904   3.078
 1620SOL    HW1 5312   1.335   2.840   3.009
 1620SOL    HW2 5313   1.254   2.964   3.039
 1621SOL     OW 5314   1.318   2.720   2.163
 1621SOL    HW1 5315   1.246   2.687   2.216
 1621SOL    HW2 5316   1.290   2.705   2.072
 1622SOL     OW 5317   1.784   3.593   3.025
 1622SOL    HW1 5318   1.843   3.620   2.954
 1622SOL    HW2 5319   1.754   3.506   2.999
 1623SOL     OW 5320   1.239   3.595   2.963
 1623SOL    HW1 5321   1.322   3.621   2.923
 1623SOL    HW2 5322   1.251   3.502   2.985
 1624SOL     OW 5323   0.081   3.055   2.914
 1624SOL    HW1 5324   0.052   3.081   3.002
 1624SOL    HW2 5325   0.050   3.126   2.857
 1625SOL     OW 5326   0.682   3.537   3.605
 1625SOL    HW1 5327   0.618   3.607   3.591
 1625SOL    HW2 5328   0.752   3.555   3.542
 1626SOL     OW 5329   1.721   2.019   2.364
 1626SOL    HW1 5330   1.786   2.000   2.296
 1626SOL    HW2 5331   1.703   1.934   2.404
 1627SOL     OW 5332   1.395   3.430   2.357
 1627SOL    HW1 5333   1.451   3.465   2.288
 1627SOL    HW2 5334   1.342   3.505   2.385
 1628SOL     OW 5335   0.112   3.667   3.717
 1628SOL    HW1 5336   0.072   3.597   3.769
 1628SOL    HW2 5337   0.178   3.704   3.775
 1629SOL     OW 5338   1.279   2.792   2.532
 1629SOL    HW1 5339   1.352   2.732   2.543
 1629SOL    HW2 5340   1.313   2.863   2.478
 1630SOL     OW 5341   0.798   3.142   3.282
 1630SOL    HW1 5342   0.772   3.184   3.364
 1630SOL    HW2 5343   0.725   3.158   3.222
 1631SOL     OW 5344   0.673   3.492   2.018
 1631SOL    HW1 5345   0.685   3.506   1.924
 1631SOL    HW2 5346   0.618   3.413   2.023
 1632SOL     OW 5347   1.617   3.591   3.256
 1632SOL    HW1 5348   1.673   3.594   3.178
 1632SOL    HW2 5349   1.603   3.682   3.279
 1633SOL     OW 5350   1.804   1.993   2.841
 1633SOL    HW1 5351   1.849   1.918   2.802
 1633SOL    HW2 5352   1.727   2.006   2.786
 1634SOL     OW 5353   0.256   2.178   2.574
 1634SOL    HW1 5354   0.173   2.219   2.551
 1634SOL    HW2 5355   0.249   2.164   2.669
 1635SOL     OW 5356   1.208   3.460   1.896
 1635SOL    HW1 5357   1.197   3.369   1.923
 1635SOL    HW2 5358   1.141   3.473   1.829
 1636SOL     OW 5359   0.829   2.873   3.239
 1636SOL    HW1 5360   0.868   2.866   3.152
 1636SOL    HW2 5361   0.821   2.967   3.255
 1637SOL     OW 5362   0.917   2.773   2.154
 1637SOL    HW1 5363   0.976   2.806   2.087
 1637SOL    HW2 5364   0.968   2.706   2.200
 1638SOL     OW 5365   1.487   3.495   1.910
 1638SOL    HW1 5366   1.394   3.482   1.894
 1638SOL    HW2 5367   1.526   3.500   1.823
 1639SOL     OW 5368   0.370   3.175   3.352
 1639SOL    HW1 5369   0.354   3.254   3.301
 1639SOL    HW2 5370   0.296   3.118   3.333
 1640SOL     OW 5371   1.607   3.149   3.142
 1640SOL    HW1 5372   1.663   3.128   3.217
 1640SOL    HW2 5373   1.546   3.215   3.174
 1641SOL     OW 5374   1.067   2.975   2.577
 1641SOL    HW1 5375   0.993   2.925   2.612
 1641SOL    HW2 5376   1.131   2.908   2.551
 1642SOL     OW 5377   1.026   2.106   2.827
 1642SOL    HW1 5378   1.023   2.060   2.743
 1642SOL    HW2 5379   1.020   2.036   2.893
 1643SOL     OW 5380   0.608   3.350   2.344
 1643SOL    HW1 5381   0.657   3.301   2.278
 1643SOL    HW2 5382   0.525   3.371   2.301
 1644SOL     OW 5383   1.720   2.274   3.242
 1644SOL    HW1 5384   1.802   2.324   3.240
 1644SOL    HW2 5385   1.739   2.196   3.189
 1645SOL     OW 5386   0.255   3.205   2.133
 1645SOL    HW1 5387   0.160   3.198   2.123
 1645SOL    HW2 5388   0.267   3.239   2.222
 1646SOL     OW 5389   0.116   2.858   3.552
 1646SOL    HW1 5390   0.055   2.911   3.604
 1646SOL    HW2 5391   0.197   2.858   3.604
 1647SOL     OW 5392   0.678   2.059   3.360
 1647SOL    HW1 5393   0.762   2.034   3.321
 1647SOL    HW2 5394   0.701   2.090   3.448
 1648SOL     OW 5395   0.077   2.194   1.886
 1648SOL    HW1 5396   4.489   2.214   1.918
 1648SOL    HW2 5397   0.102   2.272   1.837
 1649SOL     OW 5398   1.423   2.718   3.257
 1649SOL    HW1 5399   1.373   2.779   3.202
 1649SOL    HW2 5400   1.511   2.721   3.220
 1650SOL     OW 5401   0.087   2.029   2.162
 1650SOL    HW1 5402   0.084   2.111   2.114
 1650SOL    HW2 5403   0.162   1.982   2.125
 1651SOL     OW 5404   1.178   3.193   1.981
 1651SOL    HW1 5405   1.086   3.165   1.981
 1651SOL    HW2 5406   1.203   3.194   2.073
 1652SOL     OW 5407   0.633   2.696   3.305
 1652SOL    HW1 5408   0.691   2.770   3.288
 1652SOL    HW2 5409   0.690   2.619   3.304
 1653SOL     OW 5410   1.483   3.653   2.847
 1653SOL    HW1 5411   1.505   3.724   2.786
 1653SOL    HW2 5412   1.567   3.620   2.877
 1654SOL     OW 5413   0.711   2.424   3.567
 1654SOL    HW1 5414   0.769   2.477   3.623
 1654SOL    HW2 5415   0.727   2.334   3.594
 1655SOL     OW 5416   1.473   3.053   3.488
 1655SOL    HW1 5417   1.462   3.070   3.582
 1655SOL    HW2 5418   1.564   3.074   3.470
 1656SOL     OW 5419   0.371   3.612   3.430
 1656SOL    HW1 5420   0.286   3.653   3.412
 1656SOL    HW2 5421   0.350   3.533   3.478
 1657SOL     OW 5422   1.662   2.741   3.115
 1657SOL    HW1 5423   1.659   2.656   3.072
 1657SOL    HW2 5424   1.651   2.804   3.044
 1658SOL     OW 5425   1.217   2.183   2.318
 1658SOL    HW1 5426   1.277   2.109   2.314
 1658SOL    HW2 5427   1.246   2.233   2.394
 1659SOL     OW 5428   0.586   2.593   2.535
 1659SOL    HW1 5429   0.625   2.679   2.522
 1659SOL    HW2 5430   0.521   2.585   2.465
 1660SOL     OW 5431   1.754   2.226   3.513
 1660SOL    HW1 5432   1.730   2.255   3.425
 1660SOL    HW2 5433   1.678   2.175   3.542
 1661SOL     OW 5434   1.747   2.796   3.371
 1661SOL    HW1 5435   1.734   2.890   3.382
 1661SOL    HW2 5436   1.729   2.780   3.279
 1662SOL     OW 5437   0.868   3.224   1.912
 1662SOL    HW1 5438   0.828   3.249   1.995
 1662SOL    HW2 5439   0.879   3.307   1.865
 1663SOL     OW 5440   0.668   3.640   2.798
 1663SOL    HW1 5441   0.649   3.733   2.780
 1663SOL    HW2 5442   0.763   3.633   2.791
 1664SOL     OW 5443   0.871   2.835   2.715
 1664SOL    HW1 5444   0.920   2.762   2.751
 1664SOL    HW2 5445   0.830   2.876   2.791
 1665SOL     OW 5446   1.076   2.850   1.951
 1665SOL    HW1 5447   1.055   2.902   1.874
 1665SOL    HW2 5448   1.150   2.795   1.924
 1666SOL     OW 5449   1.841   3.415   2.702
 1666SOL    HW1 5450   1.762   3.405   2.649
 1666SOL    HW2 5451   1.829   3.355   2.775
 1667SOL     OW 5452   0.235   3.165   3.724
 1667SOL    HW1 5453   0.143   3.143   3.709
 1667SOL    HW2 5454   0.243   3.173   3.819
 1668SOL     OW 5455   0.138   3.085   2.530
 1668SOL    HW1 5456   0.159   3.046   2.614
 1668SOL    HW2 5457   0.191   3.036   2.467
 1669SOL     OW 5458   0.690   3.273   3.497
 1669SOL    HW1 5459   0.611   3.230   3.528
 1669SOL    HW2 5460   0.686   3.361   3.533
 1670SOL     OW 5461   1.760   2.038   3.112
 1670SOL    HW1 5462   1.834   1.986   3.143
 1670SOL    HW2 5463   1.761   2.028   3.017
 1671SOL     OW 5464   0.432   2.291   2.384
 1671SOL    HW1 5465   0.461   2.218   2.330
 1671SOL    HW2 5466   0.381   2.250   2.454
 1672SOL     OW 5467   1.696   3.345   2.950
 1672SOL    HW1 5468   1.617   3.327   2.899
 1672SOL    HW2 5469   1.697   3.277   3.018
 1673SOL     OW 5470   0.295   2.357   3.113
 1673SOL    HW1 5471   0.362   2.296   3.144
 1673SOL    HW2 5472   0.315   2.371   3.021
 1674SOL     OW 5473   0.834   3.441   2.535
 1674SOL    HW1 5474   0.809   3.508   2.472
 1674SOL    HW2 5475   0.759   3.381   2.539
 1675SOL     OW 5476   1.428   2.096   2.977
 1675SOL    HW1 5477   1.457   2.015   3.020
 1675SOL    HW2 5478   1.378   2.142   3.043
 1676SOL     OW 5479   1.008   1.878   2.994
 1676SOL    HW1 5480   0.953   1.813   2.950
 1676SOL    HW2 5481   1.095   1.838   2.995
 1677SOL     OW 5482   0.776   3.196   2.185
 1677SOL    HW1 5483   0.751   3.104   2.195
 1677SOL    HW2 5484   0.857   3.204   2.235
 1678SOL     OW 5485   0.620   3.420   3.151
 1678SOL    HW1 5486   0.620   3.502   3.200
 1678SOL    HW2 5487   0.708   3.414   3.114
 1679SOL     OW 5488   1.362   1.910   2.038
 1679SOL    HW1 5489   1.398   1.839   1.986
 1679SOL    HW2 5490   1.272   1.884   2.056
 1680SOL     OW 5491   1.298   2.328   2.539
 1680SOL    HW1 5492   1.245   2.408   2.540
 1680SOL    HW2 5493   1.290   2.293   2.628
 1681SOL     OW 5494   1.560   2.047   2.733
 1681SOL    HW1 5495   1.512   2.077   2.810
 1681SOL    HW2 5496   1.567   2.125   2.677
 1682SOL     OW 5497   0.034   2.911   2.164
 1682SOL    HW1 5498   0.124   2.882   2.150
 1682SOL    HW2 5499   0.016   2.890   2.256
 1683SOL     OW 5500   0.893   3.527   2.198
 1683SOL    HW1 5501   0.816   3.512   2.142
 1683SOL    HW2 5502   0.865   3.598   2.256
 1684SOL     OW 5503   0.239   2.495   3.850
 1684SOL    HW1 5504   0.166   2.463   3.903
 1684SOL    HW2 5505   0.212   2.478   3.760
 1685SOL     OW 5506   0.212   2.133   4.712
 1685SOL    HW1 5507   0.248   2.106   4.796
 1685SOL    HW2 5508   0.136   2.077   4.699
 1686SOL     OW 5509   0.003   2.272   4.364
 1686SOL    HW1 5510   4.423   2.307   4.404
 1686SOL    HW2 5511   4.473   2.196   4.314
 1687SOL     OW 5512   0.570   3.163   4.913
 1687SOL    HW1 5513   0.484   3.168   4.871
 1687SOL    HW2 5514   0.586   3.252   4.946
 1688SOL     OW 5515   1.577   3.378   4.433
 1688SOL    HW1 5516   1.532   3.354   4.514
 1688SOL    HW2 5517   1.508   3.382   4.367
 1689SOL     OW 5518   1.136   2.561   4.416
 1689SOL    HW1 5519   1.183   2.644   4.405
 1689SOL    HW2 5520   1.087   2.572   4.498
 1690SOL     OW 5521   1.789   2.459   3.947
 1690SOL    HW1 5522   1.756   2.454   3.857
 1690SOL    HW2 5523   1.752   2.382   3.990
 1691SOL     OW 5524   0.739   2.996   4.774
 1691SOL    HW1 5525   0.675   3.036   4.833
 1691SOL    HW2 5526   0.781   3.071   4.731
 1692SOL     OW 5527   0.880   2.617   5.549
 1692SOL    HW1 5528   0.864   2.685   5.614
 1692SOL    HW2 5529   0.900   2.665   5.469
 1693SOL     OW 5530   0.684   2.857   4.368
 1693SOL    HW1 5531   0.751   2.851   4.436
 1693SOL    HW2 5532   0.616   2.913   4.406
 1694SOL     OW 5533   0.715   3.010   5.548
 1694SOL    HW1 5534   0.763   3.086   5.580
 1694SOL    HW2 5535   0.637   3.046   5.506
 1695SOL     OW 5536   0.334   3.276   4.791
 1695SOL    HW1 5537   0.253   3.252   4.745
 1695SOL    HW2 5538   0.381   3.332   4.729
 1696SOL     OW 5539   1.455   3.369   5.088
 1696SOL    HW1 5540   1.510   3.447   5.099
 1696SOL    HW2 5541   1.385   3.380   5.153
 1697SOL     OW 5542   0.458   2.256   5.193
 1697SOL    HW1 5543   0.534   2.199   5.204
 1697SOL    HW2 5544   0.383   2.200   5.213
 1698SOL     OW 5545   1.600   2.301   4.469
 1698SOL    HW1 5546   1.517   2.300   4.420
 1698SOL    HW2 5547   1.619   2.394   4.480
 1699SOL     OW 5548   0.244   3.552   4.190
 1699SOL    HW1 5549   0.227   3.636   4.232
 1699SOL    HW2 5550   0.320   3.568   4.134
 1700SOL     OW 5551   1.137   3.205   5.419
 1700SOL    HW1 5552   1.178   3.197   5.505
 1700SOL    HW2 5553   1.084   3.125   5.410
 1701SOL     OW 5554   0.270   3.286   4.247
 1701SOL    HW1 5555   0.249   3.380   4.251
 1701SOL    HW2 5556   0.213   3.247   4.313
 1702SOL     OW 5557   0.263   2.946   4.611
 1702SOL    HW1 5558   0.273   2.854   4.632
 1702SOL    HW2 5559   0.201   2.979   4.677
 1703SOL     OW 5560   0.603   3.655   5.153
 1703SOL    HW1 5561   0.519   3.638   5.197
 1703SOL    HW2 5562   0.625   3.744   5.178
 1704SOL     OW 5563   0.565   2.857   3.873
 1704SOL    HW1 5564   0.617   2.895   3.802
 1704SOL    HW2 5565   0.608   2.886   3.953
 1705SOL     OW 5566   0.136   2.518   4.295
 1705SOL    HW1 5567   0.094   2.436   4.322
 1705SOL    HW2 5568   0.108   2.582   4.360
 1706SOL     OW 5569   1.844   3.611   4.051
 1706SOL    HW1 5570   1.915   3.588   4.112
 1706SOL    HW2 5571   1.859   3.704   4.031
 1707SOL     OW 5572   0.033   3.467   3.887
 1707SOL    HW1 5573   0.013   3.374   3.879
 1707SOL    HW2 5574   0.062   3.479   3.977
 1708SOL     OW 5575   1.687   2.782   4.372
 1708SOL    HW1 5576   1.770   2.739   4.352
 1708SOL    HW2 5577   1.666   2.833   4.294
 1709SOL     OW 5578   1.652   2.964   4.155
 1709SOL    HW1 5579   1.738   2.962   4.114
 1709SOL    HW2 5580   1.660   3.028   4.225
 1710SOL     OW 5581   0.102   2.624   5.277
 1710SOL    HW1 5582   0.187   2.610   5.236
 1710SOL    HW2 5583   0.109   2.711   5.316
 1711SOL     OW 5584   0.618   3.255   4.461
 1711SOL    HW1 5585   0.573   3.171   4.469
 1711SOL    HW2 5586   0.602   3.283   4.371
 1712SOL     OW 5587   1.280   3.097   5.141
 1712SOL    HW1 5588   1.311   3.028   5.083
 1712SOL    HW2 5589   1.340   3.093   5.216
 1713SOL     OW 5590   0.829   1.869   4.241
 1713SOL    HW1 5591   0.868   1.952   4.215
 1713SOL    HW2 5592   0.735   1.886   4.243
 1714SOL     OW 5593   0.176   2.804   4.998
 1714SOL    HW1 5594   0.266   2.780   4.979
 1714SOL    HW2 5595   0.134   2.810   4.913
 1715SOL     OW 5596   1.531   2.865   3.925
 1715SOL    HW1 5597   1.462   2.807   3.957
 1715SOL    HW2 5598   1.574   2.898   4.004
 1716SOL     OW 5599   1.183   3.680   5.352
 1716SOL    HW1 5600   1.187   3.741   5.279
 1716SOL    HW2 5601   1.201   3.594   5.314
 1717SOL     OW 5602   0.342   2.120   5.549
 1717SOL    HW1 5603   0.382   2.197   5.590
 1717SOL    HW2 5604   0.249   2.128   5.569
 1718SOL     OW 5605   1.469   3.282   4.668
 1718SOL    HW1 5606   1.402   3.299   4.734
 1718SOL    HW2 5607   1.453   3.192   4.640
 1719SOL     OW 5608   1.652   3.624   4.298
 1719SOL    HW1 5609   1.631   3.588   4.212
 1719SOL    HW2 5610   1.636   3.551   4.358
 1720SOL     OW 5611   0.597   2.574   3.997
 1720SOL    HW1 5612   0.597   2.660   3.954
 1720SOL    HW2 5613   0.531   2.581   4.066
 1721SOL     OW 5614   1.273   2.243   4.658
 1721SOL    HW1 5615   1.186   2.205   4.667
 1721SOL    HW2 5616   1.330   2.185   4.711
 1722SOL     OW 5617   1.578   3.537   4.036
 1722SOL    HW1 5618   1.670   3.559   4.027
 1722SOL    HW2 5619   1.548   3.521   3.947
 1723SOL     OW 5620   0.798   2.474   5.172
 1723SOL    HW1 5621   0.768   2.447   5.259
 1723SOL    HW2 5622   0.764   2.407   5.113
 1724SOL     OW 5623   1.397   2.335   5.397
 1724SOL    HW1 5624   1.400   2.367   5.487
 1724SOL    HW2 5625   1.471   2.275   5.390
 1725SOL     OW 5626   0.949   2.746   5.312
 1725SOL    HW1 5627   1.005   2.678   5.272
 1725SOL    HW2 5628   0.904   2.786   5.238
 1726SOL     OW 5629   0.998   2.270   4.951
 1726SOL    HW1 5630   0.907   2.284   4.979
 1726SOL    HW2 5631   0.990   2.227   4.866
 1727SOL     OW 5632   1.056   2.561   4.147
 1727SOL    HW1 5633   1.076   2.555   4.241
 1727SOL    HW2 5634   0.973   2.516   4.137
 1728SOL     OW 5635   0.082   2.695   4.513
 1728SOL    HW1 5636   0.167   2.687   4.556
 1728SOL    HW2 5637   0.019   2.682   4.584
 1729SOL     OW 5638   0.117   3.730   5.312
 1729SOL    HW1 5639   0.112   3.704   5.404
 1729SOL    HW2 5640   0.045   3.684   5.271
 1730SOL     OW 5641   0.899   2.213   3.921
 1730SOL    HW1 5642   0.941   2.274   3.861
 1730SOL    HW2 5643   0.900   2.129   3.874
 1731SOL     OW 5644   1.666   2.446   5.555
 1731SOL    HW1 5645   1.630   2.525   5.514
 1731SOL    HW2 5646   1.666   2.381   5.485
 1732SOL     OW 5647   1.383   3.004   4.263
 1732SOL    HW1 5648   1.462   2.994   4.210
 1732SOL    HW2 5649   1.329   3.066   4.214
 1733SOL     OW 5650   0.557   2.037   4.623
 1733SOL    HW1 5651   0.559   2.069   4.713
 1733SOL    HW2 5652   0.555   2.115   4.569
 1734SOL     OW 5653   0.997   3.308   4.191
 1734SOL    HW1 5654   0.970   3.384   4.139
 1734SOL    HW2 5655   0.970   3.329   4.280
 1735SOL     OW 5656   0.362   3.680   4.585
 1735SOL    HW1 5657   0.403   3.595   4.599
 1735SOL    HW2 5658   0.430   3.744   4.607
 1736SOL     OW 5659   1.798   2.911   4.602
 1736SOL    HW1 5660   1.746   2.893   4.523
 1736SOL    HW2 5661   1.732   2.925   4.670
 1737SOL     OW 5662   1.224   3.405   5.239
 1737SOL    HW1 5663   1.213   3.332   5.300
 1737SOL    HW2 5664   1.153   3.394   5.175
 1738SOL     OW 5665   0.304   2.810   3.991
 1738SOL    HW1 5666   0.385   2.835   3.946
 1738SOL    HW2 5667   0.296   2.716   3.975
 1739SOL     OW 5668   1.485   2.611   4.448
 1739SOL    HW1 5669   1.482   2.581   4.539
 1739SOL    HW2 5670   1.560   2.671   4.445
 1740SOL     OW 5671   0.474   3.131   5.459
 1740SOL    HW1 5672   0.448   3.138   5.367
 1740SOL    HW2 5673   0.392   3.127   5.507
 1741SOL     OW 5674   1.128   3.641   3.950
 1741SOL    HW1 5675   1.050   3.604   3.993
 1741SOL    HW2 5676   1.151   3.576   3.884
 1742SOL     OW 5677   0.212   2.132   5.212
 1742SOL    HW1 5678   0.150   2.205   5.216
 1742SOL    HW2 5679   0.178   2.068   5.275
 1743SOL     OW 5680   1.630   3.245   3.819
 1743SOL    HW1 5681   1.589   3.331   3.803
 1743SOL    HW2 5682   1.563   3.182   3.795
 1744SOL     OW 5683   0.469   3.604   4.035
 1744SOL    HW1 5684   0.515   3.657   4.100
 1744SOL    HW2 5685   0.538   3.564   3.983
 1745SOL     OW 5686   1.399   1.969   4.169
 1745SOL    HW1 5687   1.393   1.943   4.077
 1745SOL    HW2 5688   1.492   1.972   4.188
 1746SOL     OW 5689   0.248   3.653   4.939
 1746SOL    HW1 5690   0.291   3.574   4.970
 1746SOL    HW2 5691   0.203   3.626   4.859
 1747SOL     OW 5692   0.941   3.562   4.618
 1747SOL    HW1 5693   1.021   3.514   4.641
 1747SOL    HW2 5694   0.902   3.511   4.548
 1748SOL     OW 5695   0.398   2.552   4.193
 1748SOL    HW1 5696   0.417   2.459   4.207
 1748SOL    HW2 5697   0.306   2.562   4.220
 1749SOL     OW 5698   1.541   2.034   5.490
 1749SOL    HW1 5699   1.545   2.050   5.584
 1749SOL    HW2 5700   1.458   1.986   5.478
 1750SOL     OW 5701   0.651   1.977   3.822
 1750SOL    HW1 5702   0.704   1.900   3.845
 1750SOL    HW2 5703   0.596   1.947   3.750
 1751SOL     OW 5704   0.762   2.144   5.479
 1751SOL    HW1 5705   0.844   2.095   5.475
 1751SOL    HW2 5706   0.716   2.107   5.554
 1752SOL     OW 5707   0.875   3.387   4.919
 1752SOL    HW1 5708   0.856   3.348   4.834
 1752SOL    HW2 5709   0.943   3.332   4.956
 1753SOL     OW 5710   1.341   2.450   5.154
 1753SOL    HW1 5711   1.368   2.419   5.240
 1753SOL    HW2 5712   1.373   2.540   5.149
 1754SOL     OW 5713   0.820   3.247   4.675
 1754SOL    HW1 5714   0.906   3.237   4.632
 1754SOL    HW2 5715   0.758   3.257   4.602
 1755SOL     OW 5716   0.930   2.372   4.621
 1755SOL    HW1 5717   0.905   2.362   4.529
 1755SOL    HW2 5718   0.958   2.284   4.647
 1756SOL     OW 5719   0.564   1.926   4.214
 1756SOL    HW1 5720   0.484   1.924   4.267
 1756SOL    HW2 5721   0.553   2.002   4.156
 1757SOL     OW 5722   1.429   3.066   3.761
 1757SOL    HW1 5723   1.458   2.991   3.813
 1757SOL    HW2 5724   1.343   3.088   3.797
 1758SOL     OW 5725   0.296   1.905   3.899
 1758SOL    HW1 5726   0.358   1.969   3.864
 1758SOL    HW2 5727   0.350   1.841   3.945
 1759SOL     OW 5728   0.946   2.114   4.178
 1759SOL    HW1 5729   0.921   2.150   4.093
 1759SOL    HW2 5730   1.040   2.129   4.184
 1760SOL     OW 5731   1.080   2.547   5.178
 1760SOL    HW1 5732   1.009   2.483   5.182
 1760SOL    HW2 5733   1.160   2.495   5.172
 1761SOL     OW 5734   1.217   3.438   4.520
 1761SOL    HW1 5735   1.229   3.501   4.450
 1761SOL    HW2 5736   1.287   3.458   4.583
 1762SOL     OW 5737   0.473   3.018   4.451
 1762SOL    HW1 5738   0.408   2.998   4.518
 1762SOL    HW2 5739   0.427   3.004   4.368
 1763SOL     OW 5740   1.260   3.652   4.338
 1763SOL    HW1 5741   1.309   3.714   4.284
 1763SOL    HW2 5742   1.190   3.705   4.377
 1764SOL     OW 5743   1.026   2.391   3.751
 1764SOL    HW1 5744   0.983   2.475   3.732
 1764SOL    HW2 5745   1.090   2.412   3.819
 1765SOL     OW 5746   0.069   2.362   5.136
 1765SOL    HW1 5747   0.140   2.365   5.071
 1765SOL    HW2 5748   0.056   2.453   5.161
 1766SOL     OW 5749   0.560   2.090   4.897
 1766SOL    HW1 5750   0.605   2.018   4.941
 1766SOL    HW2 5751   0.467   2.078   4.920
 1767SOL     OW 5752   0.868   2.319   4.360
 1767SOL    HW1 5753   0.825   2.375   4.295
 1767SOL    HW2 5754   0.891   2.240   4.312
 1768SOL     OW 5755   1.017   1.919   4.470
 1768SOL    HW1 5756   0.959   1.912   4.394
 1768SOL    HW2 5757   0.995   1.844   4.525
 1769SOL     OW 5758   1.440   3.024   4.579
 1769SOL    HW1 5759   1.368   2.960   4.581
 1769SOL    HW2 5760   1.464   3.030   4.487
 1770SOL     OW 5761   1.449   2.462   4.701
 1770SOL    HW1 5762   1.381   2.399   4.678
 1770SOL    HW2 5763   1.510   2.413   4.756
 1771SOL     OW 5764   1.836   2.666   4.119
 1771SOL    HW1 5765   1.899   2.618   4.173
 1771SOL    HW2 5766   1.816   2.606   4.048
 1772SOL     OW 5767   0.495   3.287   3.874
 1772SOL    HW1 5768   0.415   3.260   3.920
 1772SOL    HW2 5769   0.488   3.245   3.789
 1773SOL     OW 5770   1.682   3.126   4.366
 1773SOL    HW1 5771   1.777   3.123   4.380
 1773SOL    HW2 5772   1.657   3.216   4.386
 1774SOL     OW 5773   1.393   2.434   3.795
 1774SOL    HW1 5774   1.330   2.413   3.864
 1774SOL    HW2 5775   1.477   2.401   3.827
 1775SOL     OW 5776   0.527   2.121   4.027
 1775SOL    HW1 5777   0.580   2.078   3.960
 1775SOL    HW2 5778   0.502   2.204   3.988
 1776SOL     OW 5779   1.726   3.122   5.274
 1776SOL    HW1 5780   1.801   3.063   5.284
 1776SOL    HW2 5781   1.759   3.207   5.302
 1777SOL     OW 5782   1.050   3.215   5.053
 1777SOL    HW1 5783   0.974   3.184   5.102
 1777SOL    HW2 5784   1.125   3.173   5.095
 1778SOL     OW 5785   1.610   3.492   5.385
 1778SOL    HW1 5786   1.600   3.526   5.296
 1778SOL    HW2 5787   1.691   3.441   5.382
 1779SOL     OW 5788   1.139   3.076   4.825
 1779SOL    HW1 5789   1.078   3.114   4.888
 1779SOL    HW2 5790   1.111   3.112   4.740
 1780SOL     OW 5791   1.619   2.976   4.800
 1780SOL    HW1 5792   1.611   3.039   4.871
 1780SOL    HW2 5793   1.545   2.996   4.742
 1781SOL     OW 5794   0.917   1.953   5.112
 1781SOL    HW1 5795   0.940   1.934   5.021
 1781SOL    HW2 5796   0.997   1.991   5.150
 1782SOL     OW 5797   0.983   2.977   5.447
 1782SOL    HW1 5798   0.893   2.994   5.473
 1782SOL    HW2 5799   0.979   2.898   5.394
 1783SOL     OW 5800   0.711   2.926   4.098
 1783SOL    HW1 5801   0.697   2.904   4.190
 1783SOL    HW2 5802   0.785   2.872   4.071
 1784SOL     OW 5803   0.435   2.698   4.980
 1784SOL    HW1 5804   0.506   2.713   5.042
 1784SOL    HW2 5805   0.381   2.630   5.020
 1785SOL     OW 5806   1.263   2.232   5.010
 1785SOL    HW1 5807   1.294   2.312   5.053
 1785SOL    HW2 5808   1.172   2.253   4.985
 1786SOL     OW 5809   0.065   3.429   5.073
 1786SOL    HW1 5810   0.038   3.521   5.067
 1786SOL    HW2 5811   0.160   3.432   5.074
 1787SOL     OW 5812   0.329   2.977   4.217
 1787SOL    HW1 5813   0.338   3.054   4.161
 1787SOL    HW2 5814   0.326   2.903   4.155
 1788SOL     OW 5815   0.552   2.382   4.577
 1788SOL    HW1 5816   0.566   2.442   4.503
 1788SOL    HW2 5817   0.616   2.410   4.642
 1789SOL     OW 5818   1.246   3.213   4.117
 1789SOL    HW1 5819   1.302   3.283   4.149
 1789SOL    HW2 5820   1.159   3.235   4.149
 1790SOL     OW 5821   1.294   3.325   4.872
 1790SOL    HW1 5822   1.347   3.332   4.951
 1790SOL    HW2 5823   1.238   3.249   4.887
 1791SOL     OW 5824   1.580   2.481   4.212
 1791SOL    HW1 5825   1.525   2.524   4.278
 1791SOL    HW2 5826   1.623   2.554   4.166
 1792SOL     OW 5827   0.343   3.401   5.030
 1792SOL    HW1 5828   0.332   3.350   4.949
 1792SOL    HW2 5829   0.438   3.411   5.038
 1793SOL     OW 5830   0.502   2.611   5.399
 1793SOL    HW1 5831   0.538   2.656   5.322
 1793SOL    HW2 5832   0.567   2.544   5.421
 1794SOL     OW 5833   1.585   2.671   5.424
 1794SOL    HW1 5834   1.503   2.720   5.419
 1794SOL    HW2 5835   1.604   2.648   5.333
 1795SOL     OW 5836   0.995   2.001   5.477
 1795SOL    HW1 5837   1.056   2.072   5.458
 1795SOL    HW2 5838   1.044   1.921   5.454
 1796SOL     OW 5839   0.496   1.904   5.476
 1796SOL    HW1 5840   0.448   1.851   5.411
 1796SOL    HW2 5841   0.440   1.981   5.489
 1797SOL     OW 5842   0.591   2.737   4.754
 1797SOL    HW1 5843   0.626   2.826   4.756
 1797SOL    HW2 5844   0.535   2.732   4.831
 1798SOL     OW 5845   1.339   2.715   4.744
 1798SOL    HW1 5846   1.253   2.698   4.705
 1798SOL    HW2 5847   1.384   2.631   4.741
 1799SOL     OW 5848   1.197   2.388   3.983
 1799SOL    HW1 5849   1.206   2.310   4.038
 1799SOL    HW2 5850   1.156   2.453   4.040
 1800SOL     OW 5851   0.299   2.047   4.963
 1800SOL    HW1 5852   0.265   2.075   5.048
 1800SOL    HW2 5853   0.280   1.953   4.959
 1801SOL     OW 5854   0.000   3.170   5.014
 1801SOL    HW1 5855   0.049   3.122   5.081
 1801SOL    HW2 5856   0.017   3.262   5.034
 1802SOL     OW 5857   0.719   2.489   4.772
 1802SOL    HW1 5858   0.796   2.477   4.717
 1802SOL    HW2 5859   0.690   2.578   4.754
 1803SOL     OW 5860   1.721   2.851   5.585
 1803SOL    HW1 5861   1.685   2.785   5.527
 1803SOL    HW2 5862   1.661   2.853   5.660
 1804SOL     OW 5863   0.326   1.930   4.340
 1804SOL    HW1 5864   0.291   2.017   4.362
 1804SOL    HW2 5865   0.327   1.883   4.423
 1805SOL     OW 5866   1.627   2.245   4.080
 1805SOL    HW1 5867   1.657   2.179   4.142
 1805SOL    HW2 5868   1.603   2.320   4.135
 1806SOL     OW 5869   1.031   2.619   4.679
 1806SOL    HW1 5870   1.019   2.636   4.773
 1806SOL    HW2 5871   1.003   2.529   4.667
 1807SOL     OW 5872   0.982   3.430   5.448
 1807SOL    HW1 5873   0.965   3.473   5.364
 1807SOL    HW2 5874   1.023   3.347   5.425
 1808SOL     OW 5875   1.850   3.363   5.325
 1808SOL    HW1 5876   1.874   3.391   5.237
 1808SOL    HW2 5877   1.930   3.375   5.376
 1809SOL     OW 5878   0.352   2.798   5.539
 1809SOL    HW1 5879   0.419   2.829   5.600
 1809SOL    HW2 5880   0.395   2.728   5.490
 1810SOL     OW 5881   1.522   2.136   3.850
 1810SOL    HW1 5882   1.463   2.068   3.881
 1810SOL    HW2 5883   1.560   2.172   3.930
 1811SOL     OW 5884   1.285   2.685   3.751
 1811SOL    HW1 5885   1.327   2.599   3.756
 1811SOL    HW2 5886   1.318   2.723   3.669
 1812SOL     OW 5887   1.072   3.205   4.583
 1812SOL    HW1 5888   1.078   3.133   4.520
 1812SOL    HW2 5889   1.128   3.274   4.547
 1813SOL     OW 5890   0.318   2.672   4.662
 1813SOL    HW1 5891   0.412   2.690   4.663
 1813SOL    HW2 5892   0.311   2.579   4.682
 1814SOL     OW 5893   0.317   2.389   4.706
 1814SOL    HW1 5894   0.278   2.302   4.692
 1814SOL    HW2 5895   0.398   2.388   4.655
 1815SOL     OW 5896   1.139   2.233   5.410
 1815SOL    HW1 5897   1.093   2.287   5.474
 1815SOL    HW2 5898   1.227   2.270   5.406
 1816SOL     OW 5899   1.159   2.055   5.197
 1816SOL    HW1 5900   1.149   2.117   5.269
 1816SOL    HW2 5901   1.202   2.106   5.128
 1817SOL     OW 5902   4.491   3.178   3.938
 1817SOL    HW1 5903   4.399   3.195   3.920
 1817SOL    HW2 5904   4.494   3.085   3.962
 1818SOL     OW 5905   0.110   3.624   4.668
 1818SOL    HW1 5906   0.067   3.586   4.592
 1818SOL    HW2 5907   0.196   3.651   4.636
 1819SOL     OW 5908   0.491   3.436   4.631
 1819SOL    HW1 5909   0.560   3.498   4.654
 1819SOL    HW2 5910   0.534   3.374   4.572
 1820SOL     OW 5911   0.969   2.646   4.943
 1820SOL    HW1 5912   1.028   2.628   5.016
 1820SOL    HW2 5913   0.886   2.605   4.968
 1821SOL     OW 5914   0.015   2.418   4.791
 1821SOL    HW1 5915   0.110   2.410   4.783
 1821SOL    HW2 5916   4.495   2.377   4.875
 1822SOL     OW 5917   0.178   2.398   5.444
 1822SOL    HW1 5918   0.261   2.370   5.405
 1822SOL    HW2 5919   0.154   2.476   5.394
 1823SOL     OW 5920   1.356   2.805   5.380
 1823SOL    HW1 5921   1.380   2.898   5.375
 1823SOL    HW2 5922   1.356   2.776   5.288
 1824SOL     OW 5923   0.820   2.432   4.093
 1824SOL    HW1 5924   0.826   2.358   4.033
 1824SOL    HW2 5925   0.745   2.483   4.062
 1825SOL     OW 5926   0.274   3.425   5.463
 1825SOL    HW1 5927   0.206   3.472   5.512
 1825SOL    HW2 5928   0.261   3.333   5.487
 1826SOL     OW 5929   0.720   2.306   4.974
 1826SOL    HW1 5930   0.660   2.235   4.952
 1826SOL    HW2 5931   0.708   2.369   4.903
 1827SOL     OW 5932   0.922   3.539   5.196
 1827SOL    HW1 5933   0.895   3.498   5.114
 1827SOL    HW2 5934   0.914   3.633   5.179
 1828SOL     OW 5935   0.466   2.350   3.892
 1828SOL    HW1 5936   0.529   2.416   3.921
 1828SOL    HW2 5937   0.384   2.399   3.883
 1829SOL     OW 5938   0.156   3.006   5.178
 1829SOL    HW1 5939   0.142   2.961   5.262
 1829SOL    HW2 5940   0.165   2.935   5.115
 1830SOL     OW 5941   1.314   2.900   4.943
 1830SOL    HW1 5942   1.335   2.836   4.875
 1830SOL    HW2 5943   1.251   2.960   4.902
 1831SOL     OW 5944   1.318   2.718   4.026
 1831SOL    HW1 5945   1.245   2.686   4.078
 1831SOL    HW2 5946   1.292   2.704   3.935
 1832SOL     OW 5947   1.782   3.594   4.885
 1832SOL    HW1 5948   1.842   3.620   4.815
 1832SOL    HW2 5949   1.753   3.506   4.860
 1833SOL     OW 5950   1.239   3.595   4.824
 1833SOL    HW1 5951   1.322   3.621   4.785
 1833SOL    HW2 5952   1.250   3.502   4.846
 1834SOL     OW 5953   0.081   3.055   4.776
 1834SOL    HW1 5954   0.053   3.081   4.864
 1834SOL    HW2 5955   0.050   3.126   4.720
 1835SOL     OW 5956   0.681   3.537   5.468
 1835SOL    HW1 5957   0.617   3.607   5.453
 1835SOL    HW2 5958   0.750   3.555   5.404
 1836SOL     OW 5959   1.728   2.023   4.224
 1836SOL    HW1 5960   1.795   2.003   4.158
 1836SOL    HW2 5961   1.709   1.939   4.264
 1837SOL     OW 5962   1.395   3.430   4.219
 1837SOL    HW1 5963   1.451   3.464   4.150
 1837SOL    HW2 5964   1.343   3.505   4.247
 1838SOL     OW 5965   0.113   3.667   5.579
 1838SOL    HW1 5966   0.072   3.597   5.631
 1838SOL    HW2 5967   0.179   3.704   5.638
 1839SOL     OW 5968   1.280   2.791   4.394
 1839SOL    HW1 5969   1.354   2.731   4.405
 1839SOL    HW2 5970   1.314   2.862   4.340
 1840SOL     OW 5971   0.798   3.142   5.144
 1840SOL    HW1 5972   0.772   3.185   5.226
 1840SOL    HW2 5973   0.725   3.158   5.085
 1841SOL     OW 5974   0.673   3.491   3.880
 1841SOL    HW1 5975   0.685   3.506   3.786
 1841SOL    HW2 5976   0.618   3.413   3.885
 1842SOL     OW 5977   1.618   3.591   5.118
 1842SOL    HW1 5978   1.672   3.594   5.039
 1842SOL    HW2 5979   1.604   3.683   5.141
 1843SOL     OW 5980   0.255   2.178   4.436
 1843SOL    HW1 5981   0.173   2.219   4.413
 1843SOL    HW2 5982   0.249   2.164   4.531
 1844SOL     OW 5983   1.208   3.460   3.758
 1844SOL    HW1 5984   1.197   3.369   3.785
 1844SOL    HW2 5985   1.141   3.473   3.691
 1845SOL     OW 5986   0.830   2.873   5.101
 1845SOL    HW1 5987   0.866   2.868   5.013
 1845SOL    HW2 5988   0.820   2.967   5.118
 1846SOL     OW 5989   0.917   2.773   4.016
 1846SOL    HW1 5990   0.976   2.806   3.949
 1846SOL    HW2 5991   0.968   2.706   4.062
 1847SOL     OW 5992   1.487   3.495   3.772
 1847SOL    HW1 5993   1.394   3.482   3.756
 1847SOL    HW2 5994   1.526   3.500   3.685
 1848SOL     OW 5995   0.371   3.175   5.214
 1848SOL    HW1 5996   0.354   3.254   5.163
 1848SOL    HW2 5997   0.297   3.118   5.195
 1849SOL     OW 5998   1.609   3.156   5.011
 1849SOL    HW1 5999   1.656   3.131   5.091
 1849SOL    HW2 6000   1.547   3.223   5.040
 1850SOL     OW 6001   1.067   2.975   4.439
 1850SOL    HW1 6002   0.993   2.926   4.474
 1850SOL    HW2 6003   1.130   2.908   4.412
 1851SOL     OW 6004   1.027   2.106   4.690
 1851SOL    HW1 6005   1.024   2.061   4.606
 1851SOL    HW2 6006   1.021   2.036   4.755
 1852SOL     OW 6007   0.608   3.350   4.206
 1852SOL    HW1 6008   0.657   3.301   4.140
 1852SOL    HW2 6009   0.524   3.370   4.164
 1853SOL     OW 6010   0.255   3.205   3.995
 1853SOL    HW1 6011   0.160   3.198   3.985
 1853SOL    HW2 6012   0.268   3.239   4.084
 1854SOL     OW 6013   0.116   2.858   5.415
 1854SOL    HW1 6014   0.055   2.911   5.466
 1854SOL    HW2 6015   0.197   2.858   5.467
 1855SOL     OW 6016   0.678   2.059   5.222
 1855SOL    HW1 6017   0.762   2.034   5.183
 1855SOL    HW2 6018   0.701   2.090   5.310
 1856SOL     OW 6019   0.077   2.194   3.748
 1856SOL    HW1 6020   4.488   2.213   3.779
 1856SOL    HW2 6021   0.102   2.272   3.699
 1857SOL     OW 6022   1.426   2.717   5.122
 1857SOL    HW1 6023   1.367   2.775   5.074
 1857SOL    HW2 6024   1.506   2.717   5.071
 1858SOL     OW 6025   0.087   2.029   4.024
 1858SOL    HW1 6026   0.083   2.111   3.975
 1858SOL    HW2 6027   0.162   1.983   3.987
 1859SOL     OW 6028   1.177   3.193   3.843
 1859SOL    HW1 6029   1.086   3.165   3.843
 1859SOL    HW2 6030   1.202   3.194   3.935
 1860SOL     OW 6031   0.635   2.694   5.166
 1860SOL    HW1 6032   0.692   2.768   5.150
 1860SOL    HW2 6033   0.693   2.618   5.166
 1861SOL     OW 6034   1.483   3.653   4.709
 1861SOL    HW1 6035   1.504   3.724   4.648
 1861SOL    HW2 6036   1.568   3.622   4.740
 1862SOL     OW 6037   0.712   2.424   5.428
 1862SOL    HW1 6038   0.769   2.476   5.485
 1862SOL    HW2 6039   0.727   2.334   5.455
 1863SOL     OW 6040   1.465   3.058   5.350
 1863SOL    HW1 6041   1.459   3.074   5.444
 1863SOL    HW2 6042   1.555   3.081   5.327
 1864SOL     OW 6043   0.371   3.612   5.292
 1864SOL    HW1 6044   0.286   3.653   5.274
 1864SOL    HW2 6045   0.350   3.533   5.340
 1865SOL     OW 6046   1.635   2.741   4.946
 1865SOL    HW1 6047   1.714   2.708   4.904
 1865SOL    HW2 6048   1.617   2.824   4.901
 1866SOL     OW 6049   1.218   2.183   4.180
 1866SOL    HW1 6050   1.277   2.108   4.175
 1866SOL    HW2 6051   1.248   2.233   4.255
 1867SOL     OW 6052   0.586   2.593   4.398
 1867SOL    HW1 6053   0.625   2.679   4.384
 1867SOL    HW2 6054   0.521   2.584   4.328
 1868SOL     OW 6055   0.869   3.224   3.774
 1868SOL    HW1 6056   0.829   3.249   3.857
 1868SOL    HW2 6057   0.879   3.307   3.727
 1869SOL     OW 6058   0.668   3.640   4.660
 1869SOL    HW1 6059   0.649   3.732   4.642
 1869SOL    HW2 6060   0.763   3.633   4.653
 1870SOL     OW 6061   0.871   2.836   4.577
 1870SOL    HW1 6062   0.920   2.762   4.613
 1870SOL    HW2 6063   0.830   2.877   4.653
 1871SOL     OW 6064   1.076   2.850   3.813
 1871SOL    HW1 6065   1.056   2.902   3.736
 1871SOL    HW2 6066   1.150   2.795   3.786
 1872SOL     OW 6067   1.840   3.415   4.565
 1872SOL    HW1 6068   1.761   3.404   4.512
 1872SOL    HW2 6069   1.829   3.354   4.637
 1873SOL     OW 6070   0.235   3.165   5.585
 1873SOL    HW1 6071   0.143   3.144   5.571
 1873SOL    HW2 6072   0.243   3.173   5.681
 1874SOL     OW 6073   0.138   3.087   4.391
 1874SOL    HW1 6074   0.157   3.047   4.476
 1874SOL    HW2 6075   0.190   3.036   4.329
 1875SOL     OW 6076   0.691   3.273   5.359
 1875SOL    HW1 6077   0.611   3.230   5.390
 1875SOL    HW2 6078   0.686   3.361   5.396
 1876SOL     OW 6079   0.433   2.291   4.246
 1876SOL    HW1 6080   0.461   2.218   4.192
 1876SOL    HW2 6081   0.382   2.250   4.316
 1877SOL     OW 6082   1.696   3.344   4.814
 1877SOL    HW1 6083   1.618   3.327   4.762
 1877SOL    HW2 6084   1.693   3.279   4.884
 1878SOL     OW 6085   0.293   2.358   4.974
 1878SOL    HW1 6086   0.360   2.297   5.006
 1878SOL    HW2 6087   0.314   2.372   4.882
 1879SOL     OW 6088   0.835   3.441   4.397
 1879SOL    HW1 6089   0.809   3.508   4.334
 1879SOL    HW2 6090   0.759   3.382   4.401
 1880SOL     OW 6091   1.423   2.098   4.835
 1880SOL    HW1 6092   1.432   2.007   4.863
 1880SOL    HW2 6093   1.373   2.140   4.905
 1881SOL     OW 6094   1.009   1.878   4.856
 1881SOL    HW1 6095   0.954   1.813   4.812
 1881SOL    HW2 6096   1.096   1.839   4.858
 1882SOL     OW 6097   0.776   3.196   4.047
 1882SOL    HW1 6098   0.751   3.104   4.056
 1882SOL    HW2 6099   0.857   3.204   4.097
 1883SOL     OW 6100   0.620   3.419   5.013
 1883SOL    HW1 6101   0.620   3.501   5.063
 1883SOL    HW2 6102   0.708   3.414   4.976
 1884SOL     OW 6103   1.363   1.911   3.901
 1884SOL    HW1 6104   1.398   1.840   3.847
 1884SOL    HW2 6105   1.272   1.885   3.919
 1885SOL     OW 6106   1.301   2.328   4.399
 1885SOL    HW1 6107   1.248   2.408   4.399
 1885SOL    HW2 6108   1.290   2.292   4.487
 1886SOL     OW 6109   1.559   2.046   4.597
 1886SOL    HW1 6110   1.524   2.081   4.679
 1886SOL    HW2 6111   1.585   2.123   4.547
 1887SOL     OW 6112   0.033   2.911   4.026
 1887SOL    HW1 6113   0.123   2.882   4.012
 1887SOL    HW2 6114   0.016   2.890   4.118
 1888SOL     OW 6115   0.893   3.527   4.059
 1888SOL    HW1 6116   0.816   3.512   4.003
 1888SOL    HW2 6117   0.865   3.598   4.118
 1889SOL     OW 6118   0.239   2.494   5.712
 1889SOL    HW1 6119   0.166   2.463   5.765
 1889SOL    HW2 6120   0.212   2.479   5.622
 1890SOL     OW 6121   0.212   2.134   6.574
 1890SOL    HW1 6122   0.249   2.106   6.658
 1890SOL    HW2 6123   0.136   2.078   6.561
 1891SOL     OW 6124   0.002   2.272   6.225
 1891SOL    HW1 6125   4.422   2.308   6.264
 1891SOL    HW2 6126   4.473   2.196   6.175
 1892SOL     OW 6127   0.570   3.164   6.776
 1892SOL    HW1 6128   0.485   3.169   6.733
 1892SOL    HW2 6129   0.586   3.252   6.808
 1893SOL     OW 6130   1.572   3.387   6.299
 1893SOL    HW1 6131   1.529   3.358   6.379
 1893SOL    HW2 6132   1.502   3.389   6.234
 1894SOL     OW 6133   1.135   2.561   6.277
 1894SOL    HW1 6134   1.182   2.644   6.268
 1894SOL    HW2 6135   1.086   2.570   6.358
 1895SOL     OW 6136   0.738   2.996   6.635
 1895SOL    HW1 6137   0.674   3.035   6.695
 1895SOL    HW2 6138   0.780   3.071   6.593
 1896SOL     OW 6139   0.879   2.617   7.410
 1896SOL    HW1 6140   0.867   2.686   7.476
 1896SOL    HW2 6141   0.900   2.664   7.330
 1897SOL     OW 6142   0.683   2.857   6.230
 1897SOL    HW1 6143   0.751   2.851   6.298
 1897SOL    HW2 6144   0.616   2.913   6.269
 1898SOL     OW 6145   0.714   3.010   7.410
 1898SOL    HW1 6146   0.763   3.086   7.442
 1898SOL    HW2 6147   0.637   3.046   7.368
 1899SOL     OW 6148   0.334   3.276   6.653
 1899SOL    HW1 6149   0.254   3.252   6.606
 1899SOL    HW2 6150   0.381   3.332   6.591
 1900SOL     OW 6151   1.457   3.367   6.951
 1900SOL    HW1 6152   1.511   3.445   6.961
 1900SOL    HW2 6153   1.387   3.377   7.016
 1901SOL     OW 6154   0.457   2.255   7.056
 1901SOL    HW1 6155   0.533   2.199   7.067
 1901SOL    HW2 6156   0.382   2.199   7.076
 1902SOL     OW 6157   1.570   2.250   6.349
 1902SOL    HW1 6158   1.481   2.270   6.319
 1902SOL    HW2 6159   1.621   2.328   6.327
 1903SOL     OW 6160   0.244   3.552   6.053
 1903SOL    HW1 6161   0.227   3.636   6.095
 1903SOL    HW2 6162   0.320   3.568   5.996
 1904SOL     OW 6163   1.137   3.205   7.281
 1904SOL    HW1 6164   1.178   3.197   7.368
 1904SOL    HW2 6165   1.085   3.125   7.272
 1905SOL     OW 6166   0.269   3.286   6.108
 1905SOL    HW1 6167   0.249   3.380   6.113
 1905SOL    HW2 6168   0.213   3.247   6.175
 1906SOL     OW 6169   0.262   2.947   6.473
 1906SOL    HW1 6170   0.273   2.854   6.494
 1906SOL    HW2 6171   0.201   2.979   6.538
 1907SOL     OW 6172   0.601   3.656   7.014
 1907SOL    HW1 6173   0.519   3.639   7.059
 1907SOL    HW2 6174   0.625   3.745   7.040
 1908SOL     OW 6175   0.565   2.857   5.735
 1908SOL    HW1 6176   0.618   2.895   5.665
 1908SOL    HW2 6177   0.608   2.886   5.815
 1909SOL     OW 6178   1.591   1.990   7.051
 1909SOL    HW1 6179   1.622   2.067   7.003
 1909SOL    HW2 6180   1.569   2.024   7.138
 1910SOL     OW 6181   0.136   2.518   6.157
 1910SOL    HW1 6182   0.094   2.436   6.184
 1910SOL    HW2 6183   0.108   2.582   6.222
 1911SOL     OW 6184   1.846   3.611   5.914
 1911SOL    HW1 6185   1.916   3.588   5.975
 1911SOL    HW2 6186   1.860   3.703   5.894
 1912SOL     OW 6187   0.033   3.467   5.748
 1912SOL    HW1 6188   0.013   3.374   5.741
 1912SOL    HW2 6189   0.061   3.478   5.839
 1913SOL     OW 6190   1.692   2.832   6.241
 1913SOL    HW1 6191   1.714   2.740   6.227
 1913SOL    HW2 6192   1.674   2.865   6.153
 1914SOL     OW 6193   1.656   2.985   6.000
 1914SOL    HW1 6194   1.723   3.021   5.941
 1914SOL    HW2 6195   1.657   3.043   6.076
 1915SOL     OW 6196   0.101   2.625   7.141
 1915SOL    HW1 6197   0.186   2.609   7.098
 1915SOL    HW2 6198   0.109   2.712   7.178
 1916SOL     OW 6199   0.619   3.255   6.323
 1916SOL    HW1 6200   0.573   3.171   6.331
 1916SOL    HW2 6201   0.602   3.283   6.233
 1917SOL     OW 6202   1.282   3.097   7.006
 1917SOL    HW1 6203   1.311   3.028   6.946
 1917SOL    HW2 6204   1.342   3.091   7.080
 1918SOL     OW 6205   0.828   1.868   6.103
 1918SOL    HW1 6206   0.868   1.951   6.077
 1918SOL    HW2 6207   0.734   1.886   6.105
 1919SOL     OW 6208   0.175   2.805   6.860
 1919SOL    HW1 6209   0.266   2.781   6.842
 1919SOL    HW2 6210   0.134   2.809   6.774
 1920SOL     OW 6211   1.528   2.867   5.787
 1920SOL    HW1 6212   1.460   2.809   5.821
 1920SOL    HW2 6213   1.572   2.899   5.866
 1921SOL     OW 6214   1.182   3.679   7.214
 1921SOL    HW1 6215   1.186   3.740   7.140
 1921SOL    HW2 6216   1.200   3.594   7.175
 1922SOL     OW 6217   0.342   2.120   7.410
 1922SOL    HW1 6218   0.382   2.197   7.451
 1922SOL    HW2 6219   0.249   2.129   7.431
 1923SOL     OW 6220   1.468   3.281   6.529
 1923SOL    HW1 6221   1.402   3.297   6.597
 1923SOL    HW2 6222   1.454   3.190   6.503
 1924SOL     OW 6223   1.652   3.625   6.160
 1924SOL    HW1 6224   1.632   3.588   6.074
 1924SOL    HW2 6225   1.635   3.554   6.222
 1925SOL     OW 6226   0.597   2.574   5.859
 1925SOL    HW1 6227   0.597   2.660   5.817
 1925SOL    HW2 6228   0.531   2.581   5.928
 1926SOL     OW 6229   1.282   2.225   6.521
 1926SOL    HW1 6230   1.196   2.188   6.538
 1926SOL    HW2 6231   1.342   2.172   6.573
 1927SOL     OW 6232   1.578   3.537   5.898
 1927SOL    HW1 6233   1.671   3.559   5.890
 1927SOL    HW2 6234   1.549   3.522   5.809
 1928SOL     OW 6235   0.790   2.476   7.033
 1928SOL    HW1 6236   0.764   2.448   7.120
 1928SOL    HW2 6237   0.759   2.407   6.974
 1929SOL     OW 6238   1.392   2.337   7.264
 1929SOL    HW1 6239   1.397   2.380   7.349
 1929SOL    HW2 6240   1.447   2.259   7.273
 1930SOL     OW 6241   0.949   2.745   7.174
 1930SOL    HW1 6242   1.004   2.678   7.134
 1930SOL    HW2 6243   0.903   2.785   7.101
 1931SOL     OW 6244   0.994   2.271   6.814
 1931SOL    HW1 6245   0.903   2.284   6.839
 1931SOL    HW2 6246   0.990   2.228   6.728
 1932SOL     OW 6247   1.057   2.562   6.008
 1932SOL    HW1 6248   1.076   2.556   6.102
 1932SOL    HW2 6249   0.973   2.516   5.998
 1933SOL     OW 6250   0.083   2.694   6.375
 1933SOL    HW1 6251   0.168   2.687   6.418
 1933SOL    HW2 6252   0.019   2.682   6.445
 1934SOL     OW 6253   0.117   3.731   7.175
 1934SOL    HW1 6254   0.112   3.705   7.267
 1934SOL    HW2 6255   0.045   3.684   7.133
 1935SOL     OW 6256   0.899   2.213   5.782
 1935SOL    HW1 6257   0.941   2.274   5.722
 1935SOL    HW2 6258   0.900   2.129   5.736
 1936SOL     OW 6259   1.696   2.436   7.422
 1936SOL    HW1 6260   1.665   2.509   7.369
 1936SOL    HW2 6261   1.723   2.370   7.358
 1937SOL     OW 6262   1.380   3.002   6.122
 1937SOL    HW1 6263   1.461   3.003   6.070
 1937SOL    HW2 6264   1.324   3.066   6.078
 1938SOL     OW 6265   0.557   2.037   6.485
 1938SOL    HW1 6266   0.559   2.068   6.575
 1938SOL    HW2 6267   0.556   2.116   6.432
 1939SOL     OW 6268   0.997   3.308   6.053
 1939SOL    HW1 6269   0.969   3.384   6.002
 1939SOL    HW2 6270   0.970   3.328   6.142
 1940SOL     OW 6271   0.362   3.680   6.447
 1940SOL    HW1 6272   0.403   3.595   6.461
 1940SOL    HW2 6273   0.430   3.744   6.470
 1941SOL     OW 6274   1.788   2.968   6.460
 1941SOL    HW1 6275   1.744   2.931   6.383
 1941SOL    HW2 6276   1.725   2.958   6.531
 1942SOL     OW 6277   1.224   3.404   7.100
 1942SOL    HW1 6278   1.213   3.332   7.162
 1942SOL    HW2 6279   1.156   3.390   7.035
 1943SOL     OW 6280   0.304   2.810   5.853
 1943SOL    HW1 6281   0.385   2.834   5.808
 1943SOL    HW2 6282   0.296   2.716   5.837
 1944SOL     OW 6283   1.473   2.609   6.328
 1944SOL    HW1 6284   1.454   2.560   6.407
 1944SOL    HW2 6285   1.569   2.614   6.325
 1945SOL     OW 6286   0.474   3.132   7.321
 1945SOL    HW1 6287   0.448   3.139   7.229
 1945SOL    HW2 6288   0.391   3.127   7.369
 1946SOL     OW 6289   1.128   3.641   5.812
 1946SOL    HW1 6290   1.050   3.604   5.855
 1946SOL    HW2 6291   1.151   3.576   5.746
 1947SOL     OW 6292   0.210   2.132   7.073
 1947SOL    HW1 6293   0.149   2.205   7.079
 1947SOL    HW2 6294   0.177   2.069   7.137
 1948SOL     OW 6295   1.627   3.249   5.681
 1948SOL    HW1 6296   1.588   3.335   5.666
 1948SOL    HW2 6297   1.559   3.186   5.657
 1949SOL     OW 6298   0.469   3.604   5.898
 1949SOL    HW1 6299   0.515   3.657   5.962
 1949SOL    HW2 6300   0.538   3.564   5.845
 1950SOL     OW 6301   1.395   1.967   6.018
 1950SOL    HW1 6302   1.383   1.951   5.924
 1950SOL    HW2 6303   1.483   1.934   6.037
 1951SOL     OW 6304   0.247   3.653   6.802
 1951SOL    HW1 6305   0.292   3.574   6.832
 1951SOL    HW2 6306   0.204   3.626   6.721
 1952SOL     OW 6307   0.941   3.562   6.480
 1952SOL    HW1 6308   1.021   3.514   6.503
 1952SOL    HW2 6309   0.902   3.511   6.409
 1953SOL     OW 6310   0.398   2.552   6.055
 1953SOL    HW1 6311   0.416   2.459   6.068
 1953SOL    HW2 6312   0.306   2.562   6.081
 1954SOL     OW 6313   1.522   2.087   7.309
 1954SOL    HW1 6314   1.533   2.107   7.402
 1954SOL    HW2 6315   1.455   2.019   7.306
 1955SOL     OW 6316   0.651   1.977   5.684
 1955SOL    HW1 6317   0.704   1.900   5.707
 1955SOL    HW2 6318   0.596   1.947   5.612
 1956SOL     OW 6319   0.762   2.144   7.341
 1956SOL    HW1 6320   0.844   2.095   7.337
 1956SOL    HW2 6321   0.716   2.108   7.417
 1957SOL     OW 6322   0.875   3.388   6.782
 1957SOL    HW1 6323   0.857   3.348   6.697
 1957SOL    HW2 6324   0.944   3.332   6.820
 1958SOL     OW 6325   1.336   2.454   7.020
 1958SOL    HW1 6326   1.368   2.422   7.104
 1958SOL    HW2 6327   1.376   2.540   7.010
 1959SOL     OW 6328   0.820   3.247   6.537
 1959SOL    HW1 6329   0.905   3.237   6.494
 1959SOL    HW2 6330   0.758   3.257   6.465
 1960SOL     OW 6331   0.931   2.371   6.483
 1960SOL    HW1 6332   0.905   2.361   6.392
 1960SOL    HW2 6333   0.962   2.285   6.510
 1961SOL     OW 6334   0.564   1.926   6.076
 1961SOL    HW1 6335   0.484   1.923   6.129
 1961SOL    HW2 6336   0.552   2.002   6.018
 1962SOL     OW 6337   1.427   3.068   5.624
 1962SOL    HW1 6338   1.455   2.993   5.676
 1962SOL    HW2 6339   1.341   3.091   5.659
 1963SOL     OW 6340   0.296   1.905   5.761
 1963SOL    HW1 6341   0.358   1.970   5.728
 1963SOL    HW2 6342   0.350   1.841   5.807
 1964SOL     OW 6343   0.946   2.113   6.040
 1964SOL    HW1 6344   0.921   2.150   5.955
 1964SOL    HW2 6345   1.040   2.130   6.046
 1965SOL     OW 6346   1.080   2.549   7.039
 1965SOL    HW1 6347   1.018   2.476   7.042
 1965SOL    HW2 6348   1.166   2.507   7.034
 1966SOL     OW 6349   1.217   3.437   6.382
 1966SOL    HW1 6350   1.230   3.502   6.312
 1966SOL    HW2 6351   1.286   3.455   6.445
 1967SOL     OW 6352   0.473   3.018   6.313
 1967SOL    HW1 6353   0.408   2.998   6.380
 1967SOL    HW2 6354   0.427   3.004   6.230
 1968SOL     OW 6355   1.260   3.653   6.201
 1968SOL    HW1 6356   1.309   3.715   6.147
 1968SOL    HW2 6357   1.190   3.705   6.240
 1969SOL     OW 6358   1.029   2.391   5.613
 1969SOL    HW1 6359   0.985   2.474   5.595
 1969SOL    HW2 6360   1.092   2.412   5.682
 1970SOL     OW 6361   0.070   2.363   6.997
 1970SOL    HW1 6362   0.143   2.365   6.935
 1970SOL    HW2 6363   0.059   2.455   7.023
 1971SOL     OW 6364   0.559   2.089   6.759
 1971SOL    HW1 6365   0.605   2.018   6.804
 1971SOL    HW2 6366   0.467   2.076   6.782
 1972SOL     OW 6367   0.867   2.318   6.223
 1972SOL    HW1 6368   0.824   2.375   6.159
 1972SOL    HW2 6369   0.890   2.239   6.174
 1973SOL     OW 6370   1.022   1.915   6.329
 1973SOL    HW1 6371   0.961   1.910   6.256
 1973SOL    HW2 6372   0.997   1.842   6.386
 1974SOL     OW 6373   1.435   3.021   6.444
 1974SOL    HW1 6374   1.369   2.953   6.449
 1974SOL    HW2 6375   1.459   3.024   6.351
 1975SOL     OW 6376   1.446   2.473   6.566
 1975SOL    HW1 6377   1.405   2.387   6.560
 1975SOL    HW2 6378   1.515   2.463   6.632
 1976SOL     OW 6379   0.495   3.286   5.737
 1976SOL    HW1 6380   0.415   3.260   5.783
 1976SOL    HW2 6381   0.488   3.245   5.651
 1977SOL     OW 6382   1.674   3.147   6.208
 1977SOL    HW1 6383   1.767   3.142   6.230
 1977SOL    HW2 6384   1.647   3.233   6.241
 1978SOL     OW 6385   1.390   2.430   5.653
 1978SOL    HW1 6386   1.332   2.409   5.726
 1978SOL    HW2 6387   1.478   2.414   5.687
 1979SOL     OW 6388   0.527   2.121   5.889
 1979SOL    HW1 6389   0.580   2.078   5.822
 1979SOL    HW2 6390   0.502   2.204   5.850
 1980SOL     OW 6391   1.744   3.106   7.139
 1980SOL    HW1 6392   1.831   3.067   7.132
 1980SOL    HW2 6393   1.760   3.195   7.171
 1981SOL     OW 6394   1.051   3.217   6.918
 1981SOL    HW1 6395   0.975   3.185   6.967
 1981SOL    HW2 6396   1.126   3.174   6.960
 1982SOL     OW 6397   1.610   3.492   7.248
 1982SOL    HW1 6398   1.600   3.526   7.159
 1982SOL    HW2 6399   1.690   3.440   7.245
 1983SOL     OW 6400   1.140   3.081   6.688
 1983SOL    HW1 6401   1.077   3.117   6.750
 1983SOL    HW2 6402   1.111   3.115   6.603
 1984SOL     OW 6403   1.613   2.957   6.669
 1984SOL    HW1 6404   1.607   3.021   6.739
 1984SOL    HW2 6405   1.535   2.972   6.615
 1985SOL     OW 6406   0.918   1.953   6.975
 1985SOL    HW1 6407   0.940   1.934   6.884
 1985SOL    HW2 6408   0.997   1.992   7.012
 1986SOL     OW 6409   0.983   2.977   7.309
 1986SOL    HW1 6410   0.893   2.993   7.335
 1986SOL    HW2 6411   0.980   2.898   7.256
 1987SOL     OW 6412   0.711   2.926   5.960
 1987SOL    HW1 6413   0.697   2.904   6.052
 1987SOL    HW2 6414   0.785   2.872   5.933
 1988SOL     OW 6415   0.434   2.700   6.841
 1988SOL    HW1 6416   0.505   2.715   6.903
 1988SOL    HW2 6417   0.381   2.632   6.882
 1989SOL     OW 6418   1.259   2.234   6.876
 1989SOL    HW1 6419   1.292   2.314   6.917
 1989SOL    HW2 6420   1.169   2.257   6.850
 1990SOL     OW 6421   0.065   3.430   6.935
 1990SOL    HW1 6422   0.040   3.522   6.928
 1990SOL    HW2 6423   0.161   3.431   6.936
 1991SOL     OW 6424   0.329   2.977   6.079
 1991SOL    HW1 6425   0.338   3.054   6.023
 1991SOL    HW2 6426   0.325   2.903   6.017
 1992SOL     OW 6427   0.551   2.383   6.439
 1992SOL    HW1 6428   0.565   2.443   6.365
 1992SOL    HW2 6429   0.615   2.410   6.504
 1993SOL     OW 6430   1.245   3.214   5.979
 1993SOL    HW1 6431   1.301   3.284   6.011
 1993SOL    HW2 6432   1.158   3.235   6.011
 1994SOL     OW 6433   1.294   3.325   6.734
 1994SOL    HW1 6434   1.347   3.330   6.813
 1994SOL    HW2 6435   1.241   3.247   6.746
 1995SOL     OW 6436   1.514   2.560   6.055
 1995SOL    HW1 6437   1.483   2.555   6.145
 1995SOL    HW2 6438   1.458   2.625   6.013
 1996SOL     OW 6439   0.343   3.401   6.892
 1996SOL    HW1 6440   0.332   3.350   6.811
 1996SOL    HW2 6441   0.438   3.411   6.900
 1997SOL     OW 6442   0.500   2.608   7.258
 1997SOL    HW1 6443   0.539   2.655   7.185
 1997SOL    HW2 6444   0.565   2.542   7.282
 1998SOL     OW 6445   1.613   2.647   7.275
 1998SOL    HW1 6446   1.526   2.687   7.269
 1998SOL    HW2 6447   1.664   2.688   7.206
 1999SOL     OW 6448   0.995   2.000   7.340
 1999SOL    HW1 6449   1.054   2.073   7.320
 1999SOL    HW2 6450   1.044   1.922   7.316
 2000SOL     OW 6451   0.496   1.903   7.338
 2000SOL    HW1 6452   0.449   1.850   7.273
 2000SOL    HW2 6453   0.441   1.980   7.350
 2001SOL     OW 6454   0.591   2.738   6.615
 2001SOL    HW1 6455   0.627   2.826   6.618
 2001SOL    HW2 6456   0.535   2.732   6.693
 2002SOL     OW 6457   1.333   2.723   6.605
 2002SOL    HW1 6458   1.246   2.703   6.569
 2002SOL    HW2 6459   1.381   2.641   6.599
 2003SOL     OW 6460   1.199   2.389   5.846
 2003SOL    HW1 6461   1.206   2.311   5.901
 2003SOL    HW2 6462   1.157   2.454   5.902
 2004SOL     OW 6463   0.298   2.047   6.825
 2004SOL    HW1 6464   0.264   2.075   6.910
 2004SOL    HW2 6465   0.280   1.953   6.822
 2005SOL     OW 6466   4.500   3.171   6.876
 2005SOL    HW1 6467   0.049   3.122   6.942
 2005SOL    HW2 6468   0.017   3.263   6.896
 2006SOL     OW 6469   0.718   2.488   6.633
 2006SOL    HW1 6470   0.796   2.476   6.580
 2006SOL    HW2 6471   0.691   2.578   6.616
 2007SOL     OW 6472   1.742   2.823   7.448
 2007SOL    HW1 6473   1.700   2.755   7.397
 2007SOL    HW2 6474   1.680   2.842   7.519
 2008SOL     OW 6475   0.325   1.930   6.202
 2008SOL    HW1 6476   0.291   2.017   6.224
 2008SOL    HW2 6477   0.326   1.883   6.285
 2009SOL     OW 6478   1.028   2.621   6.541
 2009SOL    HW1 6479   1.017   2.637   6.635
 2009SOL    HW2 6480   1.003   2.529   6.530
 2010SOL     OW 6481   0.982   3.429   7.310
 2010SOL    HW1 6482   0.965   3.472   7.226
 2010SOL    HW2 6483   1.024   3.346   7.287
 2011SOL     OW 6484   1.848   3.361   7.190
 2011SOL    HW1 6485   1.871   3.390   7.102
 2011SOL    HW2 6486   1.928   3.372   7.241
 2012SOL     OW 6487   0.352   2.796   7.400
 2012SOL    HW1 6488   0.419   2.827   7.461
 2012SOL    HW2 6489   0.394   2.726   7.351
 2013SOL     OW 6490   1.280   2.684   5.616
 2013SOL    HW1 6491   1.321   2.597   5.615
 2013SOL    HW2 6492   1.306   2.722   5.532
 2014SOL     OW 6493   1.071   3.205   6.445
 2014SOL    HW1 6494   1.077   3.133   6.381
 2014SOL    HW2 6495   1.127   3.273   6.408
 2015SOL     OW 6496   0.318   2.673   6.524
 2015SOL    HW1 6497   0.412   2.691   6.526
 2015SOL    HW2 6498   0.311   2.580   6.544
 2016SOL     OW 6499   0.316   2.389   6.569
 2016SOL    HW1 6500   0.278   2.302   6.555
 2016SOL    HW2 6501   0.397   2.388   6.518
 2017SOL     OW 6502   1.135   2.233   7.274
 2017SOL    HW1 6503   1.088   2.287   7.337
 2017SOL    HW2 6504   1.222   2.274   7.267
 2018SOL     OW 6505   1.159   2.056   7.061
 2018SOL    HW1 6506   1.148   2.119   7.132
 2018SOL    HW2 6507   1.202   2.106   6.991
 2019SOL     OW 6508   4.491   3.178   5.800
 2019SOL    HW1 6509   4.399   3.195   5.781
 2019SOL    HW2 6510   4.494   3.085   5.824
 2020SOL     OW 6511   0.110   3.624   6.530
 2020SOL    HW1 6512   0.067   3.586   6.453
 2020SOL    HW2 6513   0.196   3.651   6.498
 2021SOL     OW 6514   0.491   3.436   6.493
 2021SOL    HW1 6515   0.560   3.498   6.516
 2021SOL    HW2 6516   0.534   3.374   6.433
 2022SOL     OW 6517   0.967   2.648   6.806
 2022SOL    HW1 6518   1.028   2.631   6.878
 2022SOL    HW2 6519   0.886   2.605   6.833
 2023SOL     OW 6520   0.016   2.418   6.653
 2023SOL    HW1 6521   0.111   2.411   6.644
 2023SOL    HW2 6522   4.498   2.380   6.740
 2024SOL     OW 6523   0.179   2.398   7.306
 2024SOL    HW1 6524   0.263   2.369   7.268
 2024SOL    HW2 6525   0.155   2.476   7.256
 2025SOL     OW 6526   1.382   2.792   7.241
 2025SOL    HW1 6527   1.403   2.886   7.237
 2025SOL    HW2 6528   1.378   2.764   7.150
 2026SOL     OW 6529   0.821   2.432   5.955
 2026SOL    HW1 6530   0.826   2.357   5.895
 2026SOL    HW2 6531   0.745   2.482   5.925
 2027SOL     OW 6532   1.647   2.466   6.760
 2027SOL    HW1 6533   1.637   2.404   6.832
 2027SOL    HW2 6534   1.734   2.447   6.725
 2028SOL     OW 6535   0.273   3.425   7.324
 2028SOL    HW1 6536   0.206   3.472   7.374
 2028SOL    HW2 6537   0.261   3.333   7.349
 2029SOL     OW 6538   0.717   2.305   6.835
 2029SOL    HW1 6539   0.658   2.234   6.812
 2029SOL    HW2 6540   0.706   2.369   6.764
 2030SOL     OW 6541   0.919   3.540   7.060
 2030SOL    HW1 6542   0.895   3.498   6.977
 2030SOL    HW2 6543   0.912   3.634   7.041
 2031SOL     OW 6544   0.466   2.350   5.754
 2031SOL    HW1 6545   0.530   2.416   5.783
 2031SOL    HW2 6546   0.384   2.398   5.744
 2032SOL     OW 6547   0.155   3.006   7.039
 2032SOL    HW1 6548   0.142   2.962   7.123
 2032SOL    HW2 6549   0.165   2.935   6.976
 2033SOL     OW 6550   1.316   2.906   6.804
 2033SOL    HW1 6551   1.333   2.841   6.736
 2033SOL    HW2 6552   1.253   2.966   6.765
 2034SOL     OW 6553   1.321   2.715   5.893
 2034SOL    HW1 6554   1.243   2.694   5.944
 2034SOL    HW2 6555   1.293   2.706   5.802
 2035SOL     OW 6556   1.784   3.593   6.748
 2035SOL    HW1 6557   1.843   3.619   6.678
 2035SOL    HW2 6558   1.754   3.505   6.723
 2036SOL     OW 6559   1.239   3.595   6.687
 2036SOL    HW1 6560   1.322   3.621   6.647
 2036SOL    HW2 6561   1.250   3.502   6.709
 2037SOL     OW 6562   0.081   3.055   6.638
 2037SOL    HW1 6563   0.052   3.081   6.726
 2037SOL    HW2 6564   0.050   3.126   6.581
 2038SOL     OW 6565   0.682   3.537   7.330
 2038SOL    HW1 6566   0.619   3.607   7.314
 2038SOL    HW2 6567   0.752   3.554   7.267
 2039SOL     OW 6568   1.394   3.431   6.080
 2039SOL    HW1 6569   1.451   3.465   6.012
 2039SOL    HW2 6570   1.342   3.506   6.108
 2040SOL     OW 6571   0.112   3.667   7.442
 2040SOL    HW1 6572   0.072   3.597   7.493
 2040SOL    HW2 6573   0.178   3.705   7.499
 2041SOL     OW 6574   1.278   2.793   6.261
 2041SOL    HW1 6575   1.353   2.739   6.284
 2041SOL    HW2 6576   1.315   2.862   6.206
 2042SOL     OW 6577   0.798   3.142   7.005
 2042SOL    HW1 6578   0.772   3.184   7.087
 2042SOL    HW2 6579   0.724   3.157   6.946
 2043SOL     OW 6580   0.673   3.491   5.742
 2043SOL    HW1 6581   0.684   3.506   5.648
 2043SOL    HW2 6582   0.618   3.413   5.748
 2044SOL     OW 6583   1.617   3.591   6.980
 2044SOL    HW1 6584   1.673   3.594   6.902
 2044SOL    HW2 6585   1.603   3.683   7.003
 2045SOL     OW 6586   1.814   2.031   6.594
 2045SOL    HW1 6587   1.858   1.951   6.564
 2045SOL    HW2 6588   1.750   2.050   6.526
 2046SOL     OW 6589   0.255   2.178   6.298
 2046SOL    HW1 6590   0.172   2.219   6.275
 2046SOL    HW2 6591   0.249   2.164   6.393
 2047SOL     OW 6592   1.209   3.460   5.620
 2047SOL    HW1 6593   1.197   3.369   5.647
 2047SOL    HW2 6594   1.142   3.474   5.554
 2048SOL     OW 6595   0.829   2.873   6.964
 2048SOL    HW1 6596   0.869   2.865   6.877
 2048SOL    HW2 6597   0.821   2.967   6.978
 2049SOL     OW 6598   0.916   2.772   5.877
 2049SOL    HW1 6599   0.975   2.807   5.811
 2049SOL    HW2 6600   0.967   2.705   5.923
 2050SOL     OW 6601   1.487   3.496   5.633
 2050SOL    HW1 6602   1.394   3.482   5.617
 2050SOL    HW2 6603   1.526   3.501   5.546
 2051SOL     OW 6604   0.370   3.175   7.077
 2051SOL    HW1 6605   0.354   3.254   7.025
 2051SOL    HW2 6606   0.296   3.118   7.057
 2052SOL     OW 6607   1.606   3.150   6.869
 2052SOL    HW1 6608   1.662   3.130   6.944
 2052SOL    HW2 6609   1.545   3.217   6.901
 2053SOL     OW 6610   1.065   2.976   6.299
 2053SOL    HW1 6611   0.991   2.926   6.335
 2053SOL    HW2 6612   1.129   2.909   6.276
 2054SOL     OW 6613   1.026   2.105   6.554
 2054SOL    HW1 6614   1.025   2.060   6.470
 2054SOL    HW2 6615   1.020   2.034   6.619
 2055SOL     OW 6616   0.608   3.349   6.067
 2055SOL    HW1 6617   0.657   3.301   6.001
 2055SOL    HW2 6618   0.524   3.370   6.025
 2056SOL     OW 6619   1.734   2.265   6.980
 2056SOL    HW1 6620   1.804   2.330   6.976
 2056SOL    HW2 6621   1.768   2.190   6.932
 2057SOL     OW 6622   0.255   3.205   5.857
 2057SOL    HW1 6623   0.160   3.198   5.847
 2057SOL    HW2 6624   0.267   3.239   5.946
 2058SOL     OW 6625   0.117   2.859   7.276
 2058SOL    HW1 6626   0.055   2.911   7.328
 2058SOL    HW2 6627   0.197   2.858   7.328
 2059SOL     OW 6628   0.678   2.058   7.084
 2059SOL    HW1 6629   0.762   2.034   7.045
 2059SOL    HW2 6630   0.701   2.089   7.172
 2060SOL     OW 6631   0.077   2.194   5.610
 2060SOL    HW1 6632   4.488   2.213   5.641
 2060SOL    HW2 6633   0.102   2.272   5.561
 2061SOL     OW 6634   1.423   2.720   6.981
 2061SOL    HW1 6635   1.373   2.780   6.927
 2061SOL    HW2 6636   1.511   2.721   6.943
 2062SOL     OW 6637   0.087   2.029   5.887
 2062SOL    HW1 6638   0.083   2.111   5.838
 2062SOL    HW2 6639   0.162   1.983   5.850
 2063SOL     OW 6640   1.177   3.192   5.705
 2063SOL    HW1 6641   1.086   3.165   5.704
 2063SOL    HW2 6642   1.202   3.194   5.797
 2064SOL     OW 6643   0.632   2.697   7.029
 2064SOL    HW1 6644   0.691   2.770   7.013
 2064SOL    HW2 6645   0.689   2.620   7.028
 2065SOL     OW 6646   1.483   3.654   6.571
 2065SOL    HW1 6647   1.505   3.724   6.510
 2065SOL    HW2 6648   1.567   3.620   6.601
 2066SOL     OW 6649   0.711   2.424   7.292
 2066SOL    HW1 6650   0.769   2.477   7.347
 2066SOL    HW2 6651   0.728   2.334   7.319
 2067SOL     OW 6652   1.473   3.053   7.213
 2067SOL    HW1 6653   1.462   3.070   7.306
 2067SOL    HW2 6654   1.564   3.074   7.195
 2068SOL     OW 6655   0.371   3.613   7.154
 2068SOL    HW1 6656   0.286   3.654   7.136
 2068SOL    HW2 6657   0.349   3.533   7.202
 2069SOL     OW 6658   1.662   2.739   6.841
 2069SOL    HW1 6659   1.660   2.654   6.797
 2069SOL    HW2 6660   1.650   2.802   6.770
 2070SOL     OW 6661   1.218   2.185   6.042
 2070SOL    HW1 6662   1.278   2.111   6.034
 2070SOL    HW2 6663   1.247   2.232   6.120
 2071SOL     OW 6664   0.586   2.592   6.259
 2071SOL    HW1 6665   0.625   2.679   6.246
 2071SOL    HW2 6666   0.521   2.584   6.189
 2072SOL     OW 6667   1.758   2.226   7.256
 2072SOL    HW1 6668   1.753   2.243   7.162
 2072SOL    HW2 6669   1.684   2.168   7.274
 2073SOL     OW 6670   1.750   2.797   7.095
 2073SOL    HW1 6671   1.733   2.891   7.105
 2073SOL    HW2 6672   1.730   2.779   7.003
 2074SOL     OW 6673   0.870   3.224   5.637
 2074SOL    HW1 6674   0.829   3.247   5.720
 2074SOL    HW2 6675   0.878   3.307   5.590
 2075SOL     OW 6676   0.668   3.640   6.522
 2075SOL    HW1 6677   0.649   3.733   6.504
 2075SOL    HW2 6678   0.763   3.633   6.515
 2076SOL     OW 6679   0.870   2.836   6.438
 2076SOL    HW1 6680   0.920   2.762   6.474
 2076SOL    HW2 6681   0.829   2.876   6.515
 2077SOL     OW 6682   1.076   2.853   5.677
 2077SOL    HW1 6683   1.054   2.904   5.598
 2077SOL    HW2 6684   1.147   2.796   5.649
 2078SOL     OW 6685   1.839   3.417   6.427
 2078SOL    HW1 6686   1.759   3.407   6.375
 2078SOL    HW2 6687   1.829   3.356   6.499
 2079SOL     OW 6688   0.235   3.165   7.448
 2079SOL    HW1 6689   0.143   3.143   7.433
 2079SOL    HW2 6690   0.243   3.173   7.543
 2080SOL     OW 6691   0.139   3.087   6.254
 2080SOL    HW1 6692   0.158   3.047   6.339
 2080SOL    HW2 6693   0.190   3.036   6.191
 2081SOL     OW 6694   0.690   3.273   7.220
 2081SOL    HW1 6695   0.611   3.230   7.251
 2081SOL    HW2 6696   0.686   3.361   7.257
 2082SOL     OW 6697   1.834   2.049   6.860
 2082SOL    HW1 6698   1.870   1.963   6.878
 2082SOL    HW2 6699   1.824   2.051   6.765
 2083SOL     OW 6700   0.432   2.291   6.108
 2083SOL    HW1 6701   0.461   2.218   6.054
 2083SOL    HW2 6702   0.381   2.251   6.178
 2084SOL     OW 6703   1.696   3.344   6.675
 2084SOL    HW1 6704   1.617   3.326   6.624
 2084SOL    HW2 6705   1.697   3.276   6.743
 2085SOL     OW 6706   0.295   2.357   6.838
 2085SOL    HW1 6707   0.362   2.296   6.869
 2085SOL    HW2 6708   0.316   2.371   6.745
 2086SOL     OW 6709   0.834   3.441   6.260
 2086SOL    HW1 6710   0.808   3.507   6.196
 2086SOL    HW2 6711   0.760   3.381   6.264
 2087SOL     OW 6712   1.420   2.088   6.711
 2087SOL    HW1 6713   1.447   2.008   6.756
 2087SOL    HW2 6714   1.370   2.137   6.775
 2088SOL     OW 6715   1.007   1.877   6.719
 2088SOL    HW1 6716   0.952   1.812   6.675
 2088SOL    HW2 6717   1.094   1.838   6.720
 2089SOL     OW 6718   0.777   3.196   5.908
 2089SOL    HW1 6719   0.751   3.104   5.919
 2089SOL    HW2 6720   0.857   3.204   5.959
 2090SOL     OW 6721   0.620   3.420   6.875
 2090SOL    HW1 6722   0.620   3.502   6.924
 2090SOL    HW2 6723   0.708   3.415   6.838
 2091SOL     OW 6724   1.355   1.905   5.752
 2091SOL    HW1 6725   1.390   1.834   5.698
 2091SOL    HW2 6726   1.266   1.878   5.773
 2092SOL     OW 6727   1.296   2.324   6.269
 2092SOL    HW1 6728   1.244   2.404   6.268
 2092SOL    HW2 6729   1.285   2.288   6.357
 2093SOL     OW 6730   0.033   2.911   5.888
 2093SOL    HW1 6731   0.123   2.882   5.874
 2093SOL    HW2 6732   0.015   2.890   5.980
 2094SOL     OW 6733   0.893   3.527   5.922
 2094SOL    HW1 6734   0.816   3.512   5.866
 2094SOL    HW2 6735   0.865   3.598   5.980
 2095SOL     OW 6736   0.238   2.496   7.574
 2095SOL    HW1 6737   0.165   2.463   7.627
 2095SOL    HW2 6738   0.213   2.477   7.484
 2096SOL     OW 6739   0.212   2.133   8.436
 2096SOL    HW1 6740   0.249   2.106   8.520
 2096SOL    HW2 6741   0.136   2.077   8.423
 2097SOL     OW 6742   0.003   2.272   8.088
 2097SOL    HW1 6743   4.423   2.307   8.127
 2097SOL    HW2 6744   4.473   2.196   8.038
 2098SOL     OW 6745   0.570   3.163   8.638
 2098SOL    HW1 6746   0.484   3.169   8.595
 2098SOL    HW2 6747   0.586   3.252   8.670
 2099SOL     OW 6748   1.577   3.380   8.157
 2099SOL    HW1 6749   1.532   3.354   8.238
 2099SOL    HW2 6750   1.508   3.383   8.091
 2100SOL     OW 6751   1.134   2.562   8.140
 2100SOL    HW1 6752   1.182   2.644   8.129
 2100SOL    HW2 6753   1.086   2.573   8.222
 2101SOL     OW 6754   1.788   2.461   7.672
 2101SOL    HW1 6755   1.755   2.456   7.583
 2101SOL    HW2 6756   1.753   2.383   7.715
 2102SOL     OW 6757   0.738   2.996   8.497
 2102SOL    HW1 6758   0.674   3.035   8.557
 2102SOL    HW2 6759   0.780   3.071   8.454
 2103SOL     OW 6760   0.879   2.617   9.272
 2103SOL    HW1 6761   0.867   2.686   9.337
 2103SOL    HW2 6762   0.900   2.664   9.191
 2104SOL     OW 6763   0.684   2.857   8.092
 2104SOL    HW1 6764   0.751   2.851   8.160
 2104SOL    HW2 6765   0.616   2.913   8.131
 2105SOL     OW 6766   0.714   3.010   9.273
 2105SOL    HW1 6767   0.763   3.086   9.304
 2105SOL    HW2 6768   0.637   3.047   9.230
 2106SOL     OW 6769   0.334   3.277   8.515
 2106SOL    HW1 6770   0.254   3.252   8.468
 2106SOL    HW2 6771   0.381   3.333   8.453
 2107SOL     OW 6772   1.458   3.365   8.813
 2107SOL    HW1 6773   1.512   3.443   8.823
 2107SOL    HW2 6774   1.388   3.376   8.877
 2108SOL     OW 6775   0.457   2.255   8.918
 2108SOL    HW1 6776   0.533   2.198   8.929
 2108SOL    HW2 6777   0.382   2.199   8.938
 2109SOL     OW 6778   1.595   2.297   8.195
 2109SOL    HW1 6779   1.524   2.312   8.133
 2109SOL    HW2 6780   1.596   2.375   8.251
 2110SOL     OW 6781   0.244   3.552   7.915
 2110SOL    HW1 6782   0.228   3.636   7.957
 2110SOL    HW2 6783   0.320   3.567   7.858
 2111SOL     OW 6784   1.137   3.205   9.143
 2111SOL    HW1 6785   1.179   3.197   9.229
 2111SOL    HW2 6786   1.085   3.125   9.134
 2112SOL     OW 6787   0.268   3.286   7.971
 2112SOL    HW1 6788   0.249   3.380   7.975
 2112SOL    HW2 6789   0.212   3.247   8.037
 2113SOL     OW 6790   0.262   2.946   8.334
 2113SOL    HW1 6791   0.273   2.854   8.356
 2113SOL    HW2 6792   0.200   2.979   8.400
 2114SOL     OW 6793   0.601   3.656   8.876
 2114SOL    HW1 6794   0.519   3.638   8.921
 2114SOL    HW2 6795   0.625   3.745   8.902
 2115SOL     OW 6796   0.565   2.857   7.597
 2115SOL    HW1 6797   0.617   2.895   7.526
 2115SOL    HW2 6798   0.608   2.886   7.677
 2116SOL     OW 6799   1.597   1.994   8.909
 2116SOL    HW1 6800   1.626   2.075   8.865
 2116SOL    HW2 6801   1.567   2.023   8.995
 2117SOL     OW 6802   0.135   2.518   8.018
 2117SOL    HW1 6803   0.094   2.436   8.046
 2117SOL    HW2 6804   0.108   2.582   8.083
 2118SOL     OW 6805   1.844   3.611   7.775
 2118SOL    HW1 6806   1.914   3.588   7.836
 2118SOL    HW2 6807   1.859   3.704   7.755
 2119SOL     OW 6808   0.033   3.467   7.611
 2119SOL    HW1 6809   0.013   3.374   7.603
 2119SOL    HW2 6810   0.062   3.479   7.701
 2120SOL     OW 6811   1.693   2.782   8.094
 2120SOL    HW1 6812   1.770   2.733   8.065
 2120SOL    HW2 6813   1.668   2.834   8.018
 2121SOL     OW 6814   1.651   2.964   7.878
 2121SOL    HW1 6815   1.738   2.961   7.838
 2121SOL    HW2 6816   1.659   3.029   7.948
 2122SOL     OW 6817   0.101   2.624   9.002
 2122SOL    HW1 6818   0.186   2.609   8.960
 2122SOL    HW2 6819   0.109   2.712   9.040
 2123SOL     OW 6820   0.618   3.255   8.185
 2123SOL    HW1 6821   0.573   3.171   8.193
 2123SOL    HW2 6822   0.602   3.283   8.095
 2124SOL     OW 6823   1.282   3.096   8.867
 2124SOL    HW1 6824   1.311   3.027   8.807
 2124SOL    HW2 6825   1.342   3.090   8.941
 2125SOL     OW 6826   0.828   1.868   7.965
 2125SOL    HW1 6827   0.868   1.951   7.939
 2125SOL    HW2 6828   0.734   1.886   7.967
 2126SOL     OW 6829   0.175   2.805   8.722
 2126SOL    HW1 6830   0.266   2.781   8.704
 2126SOL    HW2 6831   0.134   2.810   8.636
 2127SOL     OW 6832   1.531   2.865   7.648
 2127SOL    HW1 6833   1.462   2.807   7.680
 2127SOL    HW2 6834   1.574   2.897   7.728
 2128SOL     OW 6835   1.182   3.679   9.076
 2128SOL    HW1 6836   1.186   3.740   9.002
 2128SOL    HW2 6837   1.200   3.594   9.037
 2129SOL     OW 6838   0.342   2.120   9.272
 2129SOL    HW1 6839   0.382   2.197   9.313
 2129SOL    HW2 6840   0.249   2.129   9.293
 2130SOL     OW 6841   1.468   3.281   8.390
 2130SOL    HW1 6842   1.403   3.298   8.458
 2130SOL    HW2 6843   1.454   3.190   8.365
 2131SOL     OW 6844   1.651   3.624   8.022
 2131SOL    HW1 6845   1.631   3.588   7.936
 2131SOL    HW2 6846   1.636   3.551   8.083
 2132SOL     OW 6847   0.597   2.574   7.721
 2132SOL    HW1 6848   0.598   2.659   7.679
 2132SOL    HW2 6849   0.531   2.581   7.790
 2133SOL     OW 6850   1.279   2.236   8.384
 2133SOL    HW1 6851   1.191   2.200   8.392
 2133SOL    HW2 6852   1.333   2.180   8.440
 2134SOL     OW 6853   1.577   3.537   7.760
 2134SOL    HW1 6854   1.670   3.559   7.752
 2134SOL    HW2 6855   1.548   3.521   7.671
 2135SOL     OW 6856   0.790   2.476   8.895
 2135SOL    HW1 6857   0.764   2.448   8.982
 2135SOL    HW2 6858   0.759   2.407   8.837
 2136SOL     OW 6859   1.390   2.337   9.126
 2136SOL    HW1 6860   1.396   2.380   9.211
 2136SOL    HW2 6861   1.447   2.260   9.133
 2137SOL     OW 6862   0.948   2.745   9.036
 2137SOL    HW1 6863   1.004   2.678   8.996
 2137SOL    HW2 6864   0.903   2.786   8.962
 2138SOL     OW 6865   0.995   2.271   8.676
 2138SOL    HW1 6866   0.905   2.285   8.703
 2138SOL    HW2 6867   0.989   2.228   8.591
 2139SOL     OW 6868   1.056   2.561   7.871
 2139SOL    HW1 6869   1.076   2.556   7.964
 2139SOL    HW2 6870   0.973   2.516   7.861
 2140SOL     OW 6871   0.084   2.693   8.236
 2140SOL    HW1 6872   0.169   2.687   8.280
 2140SOL    HW2 6873   0.020   2.682   8.307
 2141SOL     OW 6874   0.118   3.730   9.036
 2141SOL    HW1 6875   0.112   3.704   9.128
 2141SOL    HW2 6876   0.045   3.684   8.994
 2142SOL     OW 6877   0.899   2.212   7.645
 2142SOL    HW1 6878   0.941   2.275   7.585
 2142SOL    HW2 6879   0.903   2.129   7.598
 2143SOL     OW 6880   1.708   2.444   9.284
 2143SOL    HW1 6881   1.672   2.517   9.234
 2143SOL    HW2 6882   1.719   2.374   9.220
 2144SOL     OW 6883   1.384   3.005   7.988
 2144SOL    HW1 6884   1.462   2.993   7.935
 2144SOL    HW2 6885   1.330   3.066   7.938
 2145SOL     OW 6886   0.557   2.036   8.347
 2145SOL    HW1 6887   0.558   2.069   8.437
 2145SOL    HW2 6888   0.556   2.116   8.293
 2146SOL     OW 6889   0.997   3.308   7.915
 2146SOL    HW1 6890   0.970   3.384   7.864
 2146SOL    HW2 6891   0.971   3.328   8.004
 2147SOL     OW 6892   0.362   3.681   8.309
 2147SOL    HW1 6893   0.403   3.595   8.323
 2147SOL    HW2 6894   0.430   3.744   8.332
 2148SOL     OW 6895   1.803   2.911   8.321
 2148SOL    HW1 6896   1.753   2.888   8.243
 2148SOL    HW2 6897   1.738   2.918   8.390
 2149SOL     OW 6898   1.225   3.404   8.962
 2149SOL    HW1 6899   1.213   3.332   9.024
 2149SOL    HW2 6900   1.156   3.390   8.897
 2150SOL     OW 6901   0.304   2.810   7.715
 2150SOL    HW1 6902   0.385   2.835   7.670
 2150SOL    HW2 6903   0.296   2.716   7.699
 2151SOL     OW 6904   1.483   2.616   8.168
 2151SOL    HW1 6905   1.481   2.576   8.254
 2151SOL    HW2 6906   1.563   2.669   8.168
 2152SOL     OW 6907   0.474   3.132   9.183
 2152SOL    HW1 6908   0.448   3.139   9.091
 2152SOL    HW2 6909   0.391   3.127   9.231
 2153SOL     OW 6910   1.127   3.641   7.674
 2153SOL    HW1 6911   1.051   3.604   7.717
 2153SOL    HW2 6912   1.151   3.576   7.607
 2154SOL     OW 6913   0.210   2.132   8.935
 2154SOL    HW1 6914   0.149   2.205   8.941
 2154SOL    HW2 6915   0.177   2.068   8.999
 2155SOL     OW 6916   1.631   3.246   7.542
 2155SOL    HW1 6917   1.589   3.331   7.527
 2155SOL    HW2 6918   1.564   3.182   7.520
 2156SOL     OW 6919   0.469   3.604   7.760
 2156SOL    HW1 6920   0.515   3.657   7.824
 2156SOL    HW2 6921   0.538   3.564   7.707
 2157SOL     OW 6922   1.400   1.969   7.894
 2157SOL    HW1 6923   1.393   1.944   7.802
 2157SOL    HW2 6924   1.494   1.978   7.910
 2158SOL     OW 6925   0.248   3.653   8.664
 2158SOL    HW1 6926   0.292   3.574   8.694
 2158SOL    HW2 6927   0.204   3.626   8.583
 2159SOL     OW 6928   0.942   3.562   8.342
 2159SOL    HW1 6929   1.022   3.515   8.364
 2159SOL    HW2 6930   0.902   3.511   8.272
 2160SOL     OW 6931   0.397   2.552   7.917
 2160SOL    HW1 6932   0.416   2.459   7.930
 2160SOL    HW2 6933   0.306   2.562   7.943
 2161SOL     OW 6934   1.515   2.081   9.167
 2161SOL    HW1 6935   1.528   2.102   9.260
 2161SOL    HW2 6936   1.449   2.012   9.168
 2162SOL     OW 6937   0.650   1.977   7.547
 2162SOL    HW1 6938   0.705   1.901   7.568
 2162SOL    HW2 6939   0.596   1.947   7.474
 2163SOL     OW 6940   0.762   2.144   9.203
 2163SOL    HW1 6941   0.844   2.095   9.199
 2163SOL    HW2 6942   0.716   2.108   9.279
 2164SOL     OW 6943   0.875   3.387   8.644
 2164SOL    HW1 6944   0.857   3.348   8.558
 2164SOL    HW2 6945   0.944   3.332   8.681
 2165SOL     OW 6946   1.335   2.453   8.882
 2165SOL    HW1 6947   1.368   2.420   8.966
 2165SOL    HW2 6948   1.376   2.539   8.872
 2166SOL     OW 6949   0.820   3.247   8.399
 2166SOL    HW1 6950   0.905   3.237   8.356
 2166SOL    HW2 6951   0.758   3.257   8.327
 2167SOL     OW 6952   0.930   2.372   8.345
 2167SOL    HW1 6953   0.904   2.362   8.253
 2167SOL    HW2 6954   0.959   2.284   8.371
 2168SOL     OW 6955   0.564   1.926   7.938
 2168SOL    HW1 6956   0.484   1.923   7.991
 2168SOL    HW2 6957   0.552   2.002   7.881
 2169SOL     OW 6958   1.429   3.066   7.486
 2169SOL    HW1 6959   1.458   2.991   7.537
 2169SOL    HW2 6960   1.344   3.088   7.521
 2170SOL     OW 6961   0.296   1.904   7.623
 2170SOL    HW1 6962   0.358   1.969   7.589
 2170SOL    HW2 6963   0.350   1.841   7.669
 2171SOL     OW 6964   0.946   2.113   7.902
 2171SOL    HW1 6965   0.921   2.150   7.817
 2171SOL    HW2 6966   1.040   2.129   7.908
 2172SOL     OW 6967   1.080   2.549   8.901
 2172SOL    HW1 6968   1.017   2.477   8.905
 2172SOL    HW2 6969   1.165   2.507   8.897
 2173SOL     OW 6970   1.216   3.438   8.244
 2173SOL    HW1 6971   1.229   3.502   8.174
 2173SOL    HW2 6972   1.287   3.454   8.306
 2174SOL     OW 6973   0.473   3.018   8.175
 2174SOL    HW1 6974   0.407   2.998   8.242
 2174SOL    HW2 6975   0.427   3.004   8.092
 2175SOL     OW 6976   1.260   3.652   8.062
 2175SOL    HW1 6977   1.309   3.714   8.008
 2175SOL    HW2 6978   1.190   3.705   8.102
 2176SOL     OW 6979   1.026   2.391   7.476
 2176SOL    HW1 6980   0.984   2.475   7.457
 2176SOL    HW2 6981   1.091   2.412   7.543
 2177SOL     OW 6982   0.070   2.364   8.858
 2177SOL    HW1 6983   0.143   2.365   8.796
 2177SOL    HW2 6984   0.059   2.455   8.885
 2178SOL     OW 6985   0.559   2.089   8.621
 2178SOL    HW1 6986   0.605   2.017   8.665
 2178SOL    HW2 6987   0.467   2.076   8.644
 2179SOL     OW 6988   0.867   2.319   8.085
 2179SOL    HW1 6989   0.825   2.375   8.019
 2179SOL    HW2 6990   0.891   2.239   8.036
 2180SOL     OW 6991   1.019   1.918   8.193
 2180SOL    HW1 6992   0.959   1.911   8.118
 2180SOL    HW2 6993   0.995   1.844   8.249
 2181SOL     OW 6994   1.439   3.021   8.304
 2181SOL    HW1 6995   1.368   2.956   8.307
 2181SOL    HW2 6996   1.460   3.028   8.210
 2182SOL     OW 6997   1.465   2.475   8.411
 2182SOL    HW1 6998   1.406   2.399   8.414
 2182SOL    HW2 6999   1.520   2.466   8.488
 2183SOL     OW 7000   1.836   2.669   7.842
 2183SOL    HW1 7001   1.894   2.618   7.899
 2183SOL    HW2 7002   1.814   2.609   7.771
 2184SOL     OW 7003   0.495   3.287   7.599
 2184SOL    HW1 7004   0.415   3.260   7.645
 2184SOL    HW2 7005   0.489   3.244   7.513
 2185SOL     OW 7006   1.682   3.129   8.085
 2185SOL    HW1 7007   1.776   3.127   8.102
 2185SOL    HW2 7008   1.655   3.218   8.109
 2186SOL     OW 7009   1.393   2.436   7.518
 2186SOL    HW1 7010   1.333   2.412   7.589
 2186SOL    HW2 7011   1.479   2.407   7.549
 2187SOL     OW 7012   0.527   2.121   7.752
 2187SOL    HW1 7013   0.579   2.078   7.684
 2187SOL    HW2 7014   0.501   2.205   7.712
 2188SOL     OW 7015   1.744   3.106   9.000
 2188SOL    HW1 7016   1.832   3.068   8.991
 2188SOL    HW2 7017   1.759   3.194   9.032
 2189SOL     OW 7018   1.051   3.216   8.780
 2189SOL    HW1 7019   0.975   3.184   8.828
 2189SOL    HW2 7020   1.126   3.173   8.821
 2190SOL     OW 7021   1.610   3.492   9.110
 2190SOL    HW1 7022   1.600   3.526   9.021
 2190SOL    HW2 7023   1.690   3.440   9.107
 2191SOL     OW 7024   1.140   3.080   8.549
 2191SOL    HW1 7025   1.078   3.116   8.613
 2191SOL    HW2 7026   1.111   3.114   8.465
 2192SOL     OW 7027   1.621   2.958   8.522
 2192SOL    HW1 7028   1.614   3.021   8.593
 2192SOL    HW2 7029   1.547   2.977   8.464
 2193SOL     OW 7030   0.918   1.953   8.837
 2193SOL    HW1 7031   0.940   1.934   8.746
 2193SOL    HW2 7032   0.997   1.992   8.873
 2194SOL     OW 7033   0.984   2.977   9.171
 2194SOL    HW1 7034   0.893   2.993   9.197
 2194SOL    HW2 7035   0.980   2.898   9.118
 2195SOL     OW 7036   0.711   2.926   7.822
 2195SOL    HW1 7037   0.697   2.903   7.914
 2195SOL    HW2 7038   0.785   2.872   7.795
 2196SOL     OW 7039   0.434   2.699   8.703
 2196SOL    HW1 7040   0.505   2.715   8.766
 2196SOL    HW2 7041   0.381   2.631   8.744
 2197SOL     OW 7042   1.262   2.235   8.732
 2197SOL    HW1 7043   1.295   2.313   8.777
 2197SOL    HW2 7044   1.172   2.256   8.709
 2198SOL     OW 7045   0.065   3.429   8.797
 2198SOL    HW1 7046   0.039   3.522   8.791
 2198SOL    HW2 7047   0.161   3.431   8.798
 2199SOL     OW 7048   0.329   2.977   7.940
 2199SOL    HW1 7049   0.339   3.054   7.885
 2199SOL    HW2 7050   0.325   2.903   7.879
 2200SOL     OW 7051   0.551   2.383   8.301
 2200SOL    HW1 7052   0.565   2.443   8.228
 2200SOL    HW2 7053   0.615   2.410   8.366
 2201SOL     OW 7054   1.246   3.213   7.840
 2201SOL    HW1 7055   1.302   3.283   7.873
 2201SOL    HW2 7056   1.159   3.234   7.873
 2202SOL     OW 7057   1.295   3.325   8.596
 2202SOL    HW1 7058   1.348   3.330   8.675
 2202SOL    HW2 7059   1.241   3.247   8.608
 2203SOL     OW 7060   1.573   2.479   7.934
 2203SOL    HW1 7061   1.524   2.524   8.002
 2203SOL    HW2 7062   1.623   2.548   7.890
 2204SOL     OW 7063   0.343   3.400   8.754
 2204SOL    HW1 7064   0.332   3.350   8.673
 2204SOL    HW2 7065   0.438   3.411   8.762
 2205SOL     OW 7066   0.500   2.608   9.120
 2205SOL    HW1 7067   0.539   2.656   9.047
 2205SOL    HW2 7068   0.566   2.542   9.144
 2206SOL     OW 7069   1.611   2.651   9.140
 2206SOL    HW1 7070   1.524   2.690   9.131
 2206SOL    HW2 7071   1.662   2.689   9.068
 2207SOL     OW 7072   0.995   2.000   9.201
 2207SOL    HW1 7073   1.054   2.073   9.181
 2207SOL    HW2 7074   1.044   1.922   9.177
 2208SOL     OW 7075   0.496   1.903   9.200
 2208SOL    HW1 7076   0.449   1.850   9.135
 2208SOL    HW2 7077   0.441   1.981   9.212
 2209SOL     OW 7078   0.591   2.738   8.477
 2209SOL    HW1 7079   0.628   2.826   8.480
 2209SOL    HW2 7080   0.535   2.732   8.555
 2210SOL     OW 7081   1.338   2.720   8.464
 2210SOL    HW1 7082   1.251   2.701   8.429
 2210SOL    HW2 7083   1.387   2.639   8.453
 2211SOL     OW 7084   1.197   2.388   7.707
 2211SOL    HW1 7085   1.207   2.310   7.762
 2211SOL    HW2 7086   1.156   2.453   7.765
 2212SOL     OW 7087   0.299   2.047   8.687
 2212SOL    HW1 7088   0.264   2.075   8.772
 2212SOL    HW2 7089   0.280   1.953   8.684
 2213SOL     OW 7090   4.499   3.171   8.738
 2213SOL    HW1 7091   0.049   3.122   8.804
 2213SOL    HW2 7092   0.017   3.263   8.758
 2214SOL     OW 7093   0.718   2.488   8.496
 2214SOL    HW1 7094   0.796   2.476   8.441
 2214SOL    HW2 7095   0.690   2.578   8.478
 2215SOL     OW 7096   1.743   2.825   9.312
 2215SOL    HW1 7097   1.700   2.758   9.259
 2215SOL    HW2 7098   1.680   2.843   9.382
 2216SOL     OW 7099   0.325   1.929   8.064
 2216SOL    HW1 7100   0.291   2.016   8.086
 2216SOL    HW2 7101   0.326   1.882   8.147
 2217SOL     OW 7102   1.625   2.243   7.803
 2217SOL    HW1 7103   1.656   2.179   7.866
 2217SOL    HW2 7104   1.600   2.319   7.857
 2218SOL     OW 7105   1.030   2.620   8.404
 2218SOL    HW1 7106   1.018   2.636   8.497
 2218SOL    HW2 7107   1.003   2.529   8.392
 2219SOL     OW 7108   0.982   3.429   9.172
 2219SOL    HW1 7109   0.965   3.472   9.088
 2219SOL    HW2 7110   1.024   3.346   9.149
 2220SOL     OW 7111   1.848   3.361   9.052
 2220SOL    HW1 7112   1.871   3.389   8.963
 2220SOL    HW2 7113   1.928   3.372   9.103
 2221SOL     OW 7114   0.352   2.796   9.262
 2221SOL    HW1 7115   0.419   2.827   9.323
 2221SOL    HW2 7116   0.395   2.726   9.213
 2222SOL     OW 7117   1.522   2.135   7.572
 2222SOL    HW1 7118   1.462   2.067   7.604
 2222SOL    HW2 7119   1.560   2.172   7.651
 2223SOL     OW 7120   1.284   2.685   7.474
 2223SOL    HW1 7121   1.326   2.600   7.480
 2223SOL    HW2 7122   1.317   2.723   7.393
 2224SOL     OW 7123   1.071   3.204   8.307
 2224SOL    HW1 7124   1.078   3.132   8.244
 2224SOL    HW2 7125   1.127   3.273   8.270
 2225SOL     OW 7126   0.318   2.673   8.386
 2225SOL    HW1 7127   0.412   2.691   8.388
 2225SOL    HW2 7128   0.311   2.580   8.406
 2226SOL     OW 7129   0.316   2.389   8.431
 2226SOL    HW1 7130   0.278   2.302   8.417
 2226SOL    HW2 7131   0.397   2.388   8.380
 2227SOL     OW 7132   1.134   2.233   9.135
 2227SOL    HW1 7133   1.088   2.287   9.199
 2227SOL    HW2 7134   1.221   2.273   9.129
 2228SOL     OW 7135   1.159   2.057   8.921
 2228SOL    HW1 7136   1.148   2.120   8.992
 2228SOL    HW2 7137   1.203   2.106   8.852
 2229SOL     OW 7138   4.491   3.178   7.663
 2229SOL    HW1 7139   4.399   3.195   7.644
 2229SOL    HW2 7140   4.494   3.085   7.686
 2230SOL     OW 7141   0.110   3.624   8.391
 2230SOL    HW1 7142   0.067   3.586   8.315
 2230SOL    HW2 7143   0.196   3.651   8.360
 2231SOL     OW 7144   0.491   3.436   8.355
 2231SOL    HW1 7145   0.560   3.498   8.378
 2231SOL    HW2 7146   0.534   3.374   8.296
 2232SOL     OW 7147   0.967   2.647   8.668
 2232SOL    HW1 7148   1.028   2.630   8.740
 2232SOL    HW2 7149   0.886   2.605   8.695
 2233SOL     OW 7150   0.015   2.417   8.515
 2233SOL    HW1 7151   0.110   2.411   8.506
 2233SOL    HW2 7152   4.498   2.381   8.602
 2234SOL     OW 7153   0.179   2.398   9.168
 2234SOL    HW1 7154   0.262   2.369   9.130
 2234SOL    HW2 7155   0.155   2.476   9.118
 2235SOL     OW 7156   1.379   2.793   9.103
 2235SOL    HW1 7157   1.401   2.886   9.098
 2235SOL    HW2 7158   1.375   2.765   9.012
 2236SOL     OW 7159   0.820   2.431   7.818
 2236SOL    HW1 7160   0.826   2.357   7.758
 2236SOL    HW2 7161   0.745   2.482   7.786
 2237SOL     OW 7162   1.640   2.468   8.625
 2237SOL    HW1 7163   1.633   2.406   8.698
 2237SOL    HW2 7164   1.730   2.458   8.594
 2238SOL     OW 7165   0.273   3.425   9.187
 2238SOL    HW1 7166   0.206   3.472   9.236
 2238SOL    HW2 7167   0.261   3.333   9.211
 2239SOL     OW 7168   0.718   2.305   8.697
 2239SOL    HW1 7169   0.658   2.234   8.675
 2239SOL    HW2 7170   0.706   2.369   8.626
 2240SOL     OW 7171   0.919   3.540   8.921
 2240SOL    HW1 7172   0.895   3.498   8.839
 2240SOL    HW2 7173   0.912   3.634   8.903
 2241SOL     OW 7174   0.465   2.350   7.616
 2241SOL    HW1 7175   0.529   2.416   7.645
 2241SOL    HW2 7176   0.384   2.399   7.607
 2242SOL     OW 7177   0.155   3.006   8.901
 2242SOL    HW1 7178   0.142   2.962   8.985
 2242SOL    HW2 7179   0.165   2.935   8.838
 2243SOL     OW 7180   1.317   2.904   8.664
 2243SOL    HW1 7181   1.336   2.840   8.595
 2243SOL    HW2 7182   1.254   2.964   8.625
 2244SOL     OW 7183   1.318   2.720   7.749
 2244SOL    HW1 7184   1.246   2.686   7.802
 2244SOL    HW2 7185   1.290   2.705   7.658
 2245SOL     OW 7186   1.784   3.593   8.611
 2245SOL    HW1 7187   1.843   3.620   8.540
 2245SOL    HW2 7188   1.754   3.506   8.586
 2246SOL     OW 7189   1.239   3.595   8.550
 2246SOL    HW1 7190   1.322   3.621   8.510
 2246SOL    HW2 7191   1.250   3.502   8.571
 2247SOL     OW 7192   0.081   3.055   8.500
 2247SOL    HW1 7193   0.052   3.081   8.588
 2247SOL    HW2 7194   0.050   3.126   8.443
 2248SOL     OW 7195   0.682   3.537   9.192
 2248SOL    HW1 7196   0.618   3.607   9.176
 2248SOL    HW2 7197   0.752   3.554   9.129
 2249SOL     OW 7198   1.725   2.021   7.947
 2249SOL    HW1 7199   1.793   2.004   7.882
 2249SOL    HW2 7200   1.709   1.935   7.987
 2250SOL     OW 7201   1.395   3.430   7.943
 2250SOL    HW1 7202   1.451   3.465   7.874
 2250SOL    HW2 7203   1.343   3.505   7.971
 2251SOL     OW 7204   0.112   3.667   9.303
 2251SOL    HW1 7205   0.072   3.597   9.355
 2251SOL    HW2 7206   0.178   3.705   9.361
 2252SOL     OW 7207   1.279   2.792   8.119
 2252SOL    HW1 7208   1.352   2.732   8.130
 2252SOL    HW2 7209   1.313   2.863   8.065
 2253SOL     OW 7210   0.798   3.142   8.868
 2253SOL    HW1 7211   0.772   3.184   8.949
 2253SOL    HW2 7212   0.725   3.158   8.808
 2254SOL     OW 7213   0.673   3.492   7.604
 2254SOL    HW1 7214   0.685   3.506   7.510
 2254SOL    HW2 7215   0.618   3.413   7.610
 2255SOL     OW 7216   1.617   3.590   8.842
 2255SOL    HW1 7217   1.673   3.593   8.764
 2255SOL    HW2 7218   1.603   3.682   8.865
 2256SOL     OW 7219   1.854   2.042   8.413
 2256SOL    HW1 7220   1.887   1.955   8.391
 2256SOL    HW2 7221   1.767   2.046   8.373
 2257SOL     OW 7222   0.256   2.177   8.160
 2257SOL    HW1 7223   0.173   2.219   8.137
 2257SOL    HW2 7224   0.250   2.164   8.255
 2258SOL     OW 7225   1.208   3.460   7.482
 2258SOL    HW1 7226   1.197   3.368   7.509
 2258SOL    HW2 7227   1.141   3.473   7.416
 2259SOL     OW 7228   0.829   2.873   8.825
 2259SOL    HW1 7229   0.869   2.866   8.739
 2259SOL    HW2 7230   0.821   2.967   8.840
 2260SOL     OW 7231   0.917   2.773   7.740
 2260SOL    HW1 7232   0.976   2.806   7.673
 2260SOL    HW2 7233   0.968   2.706   7.786
 2261SOL     OW 7234   1.487   3.496   7.496
 2261SOL    HW1 7235   1.393   3.482   7.480
 2261SOL    HW2 7236   1.526   3.500   7.409
 2262SOL     OW 7237   0.370   3.175   8.939
 2262SOL    HW1 7238   0.354   3.254   8.887
 2262SOL    HW2 7239   0.296   3.118   8.919
 2263SOL     OW 7240   1.607   3.148   8.728
 2263SOL    HW1 7241   1.662   3.128   8.803
 2263SOL    HW2 7242   1.546   3.215   8.760
 2264SOL     OW 7243   1.067   2.975   8.163
 2264SOL    HW1 7244   0.993   2.925   8.198
 2264SOL    HW2 7245   1.131   2.908   8.137
 2265SOL     OW 7246   1.026   2.106   8.414
 2265SOL    HW1 7247   1.024   2.060   8.330
 2265SOL    HW2 7248   1.021   2.036   8.479
 2266SOL     OW 7249   0.608   3.350   7.930
 2266SOL    HW1 7250   0.658   3.301   7.864
 2266SOL    HW2 7251   0.525   3.370   7.886
 2267SOL     OW 7252   1.723   2.266   8.813
 2267SOL    HW1 7253   1.801   2.315   8.839
 2267SOL    HW2 7254   1.757   2.191   8.764
 2268SOL     OW 7255   0.255   3.205   7.719
 2268SOL    HW1 7256   0.160   3.198   7.709
 2268SOL    HW2 7257   0.267   3.239   7.808
 2269SOL     OW 7258   0.117   2.858   9.138
 2269SOL    HW1 7259   0.055   2.911   9.190
 2269SOL    HW2 7260   0.197   2.858   9.190
 2270SOL     OW 7261   0.678   2.059   8.946
 2270SOL    HW1 7262   0.762   2.034   8.907
 2270SOL    HW2 7263   0.701   2.089   9.034
 2271SOL     OW 7264   0.077   2.194   7.471
 2271SOL    HW1 7265   4.489   2.214   7.504
 2271SOL    HW2 7266   0.103   2.272   7.422
 2272SOL     OW 7267   1.423   2.719   8.843
 2272SOL    HW1 7268   1.373   2.780   8.788
 2272SOL    HW2 7269   1.511   2.722   8.807
 2273SOL     OW 7270   0.086   2.028   7.747
 2273SOL    HW1 7271   0.084   2.111   7.700
 2273SOL    HW2 7272   0.162   1.982   7.711
 2274SOL     OW 7273   1.178   3.193   7.567
 2274SOL    HW1 7274   1.087   3.164   7.567
 2274SOL    HW2 7275   1.203   3.194   7.659
 2275SOL     OW 7276   0.632   2.697   8.891
 2275SOL    HW1 7277   0.691   2.770   8.875
 2275SOL    HW2 7278   0.689   2.620   8.890
 2276SOL     OW 7279   1.483   3.654   8.433
 2276SOL    HW1 7280   1.505   3.724   8.372
 2276SOL    HW2 7281   1.567   3.619   8.462
 2277SOL     OW 7282   0.711   2.424   9.154
 2277SOL    HW1 7283   0.769   2.477   9.209
 2277SOL    HW2 7284   0.728   2.334   9.181
 2278SOL     OW 7285   1.473   3.053   9.074
 2278SOL    HW1 7286   1.462   3.070   9.168
 2278SOL    HW2 7287   1.564   3.074   9.056
 2279SOL     OW 7288   0.371   3.612   9.016
 2279SOL    HW1 7289   0.286   3.653   8.998
 2279SOL    HW2 7290   0.350   3.533   9.064
 2280SOL     OW 7291   1.661   2.742   8.702
 2280SOL    HW1 7292   1.656   2.656   8.661
 2280SOL    HW2 7293   1.651   2.804   8.631
 2281SOL     OW 7294   1.217   2.182   7.904
 2281SOL    HW1 7295   1.278   2.109   7.899
 2281SOL    HW2 7296   1.246   2.233   7.980
 2282SOL     OW 7297   0.585   2.593   8.121
 2282SOL    HW1 7298   0.625   2.679   8.108
 2282SOL    HW2 7299   0.521   2.585   8.051
 2283SOL     OW 7300   1.742   2.234   9.121
 2283SOL    HW1 7301   1.792   2.210   9.043
 2283SOL    HW2 7302   1.666   2.175   9.120
 2284SOL     OW 7303   1.752   2.794   8.956
 2284SOL    HW1 7304   1.737   2.888   8.968
 2284SOL    HW2 7305   1.731   2.778   8.865
 2285SOL     OW 7306   0.867   3.224   7.498
 2285SOL    HW1 7307   0.828   3.249   7.581
 2285SOL    HW2 7308   0.879   3.307   7.451
 2286SOL     OW 7309   0.668   3.640   8.384
 2286SOL    HW1 7310   0.649   3.733   8.366
 2286SOL    HW2 7311   0.763   3.633   8.377
 2287SOL     OW 7312   0.871   2.835   8.301
 2287SOL    HW1 7313   0.920   2.762   8.337
 2287SOL    HW2 7314   0.830   2.876   8.377
 2288SOL     OW 7315   1.075   2.850   7.537
 2288SOL    HW1 7316   1.055   2.902   7.459
 2288SOL    HW2 7317   1.149   2.795   7.510
 2289SOL     OW 7318   1.841   3.415   8.288
 2289SOL    HW1 7319   1.762   3.404   8.236
 2289SOL    HW2 7320   1.831   3.353   8.360
 2290SOL     OW 7321   0.235   3.165   9.310
 2290SOL    HW1 7322   0.143   3.143   9.295
 2290SOL    HW2 7323   0.243   3.173   9.405
 2291SOL     OW 7324   0.138   3.085   8.116
 2291SOL    HW1 7325   0.159   3.045   8.200
 2291SOL    HW2 7326   0.191   3.036   8.052
 2292SOL     OW 7327   0.690   3.273   9.082
 2292SOL    HW1 7328   0.610   3.230   9.114
 2292SOL    HW2 7329   0.686   3.361   9.119
 2293SOL     OW 7330   1.821   2.056   8.679
 2293SOL    HW1 7331   1.846   1.967   8.704
 2293SOL    HW2 7332   1.831   2.058   8.584
 2294SOL     OW 7333   0.432   2.291   7.970
 2294SOL    HW1 7334   0.462   2.218   7.916
 2294SOL    HW2 7335   0.381   2.250   8.040
 2295SOL     OW 7336   1.695   3.346   8.537
 2295SOL    HW1 7337   1.617   3.327   8.486
 2295SOL    HW2 7338   1.697   3.277   8.604
 2296SOL     OW 7339   0.295   2.357   8.700
 2296SOL    HW1 7340   0.362   2.296   8.730
 2296SOL    HW2 7341   0.316   2.371   8.607
 2297SOL     OW 7342   0.834   3.441   8.122
 2297SOL    HW1 7343   0.808   3.508   8.058
 2297SOL    HW2 7344   0.759   3.381   8.126
 2298SOL     OW 7345   1.429   2.095   8.564
 2298SOL    HW1 7346   1.455   2.014   8.608
 2298SOL    HW2 7347   1.379   2.143   8.630
 2299SOL     OW 7348   1.009   1.878   8.579
 2299SOL    HW1 7349   0.954   1.813   8.536
 2299SOL    HW2 7350   1.096   1.839   8.581
 2300SOL     OW 7351   0.776   3.196   7.771
 2300SOL    HW1 7352   0.751   3.104   7.781
 2300SOL    HW2 7353   0.857   3.204   7.821
 2301SOL     OW 7354   0.620   3.420   8.737
 2301SOL    HW1 7355   0.620   3.502   8.786
 2301SOL    HW2 7356   0.708   3.414   8.700
 2302SOL     OW 7357   1.362   1.911   7.626
 2302SOL    HW1 7358   1.397   1.840   7.572
 2302SOL    HW2 7359   1.272   1.884   7.644
 2303SOL     OW 7360   1.296   2.327   8.124
 2303SOL    HW1 7361   1.244   2.408   8.127
 2303SOL    HW2 7362   1.291   2.293   8.213
 2304SOL     OW 7363   1.589   2.053   8.336
 2304SOL    HW1 7364   1.534   2.079   8.410
 2304SOL    HW2 7365   1.587   2.128   8.277
 2305SOL     OW 7366   0.034   2.911   7.750
 2305SOL    HW1 7367   0.124   2.882   7.735
 2305SOL    HW2 7368   0.016   2.890   7.842
 2306SOL     OW 7369   0.893   3.527   7.784
 2306SOL    HW1 7370   0.817   3.512   7.728
 2306SOL    HW2 7371   0.865   3.598   7.842
 2307SOL     OW 7372   0.238   2.496   9.436
 2307SOL    HW1 7373   0.166   2.463   9.489
 2307SOL    HW2 7374   0.212   2.477   9.346
 2308SOL     OW 7375   0.214   2.134  10.298
 2308SOL    HW1 7376   0.249   2.107  10.383
 2308SOL    HW2 7377   0.134   2.081  10.287
 2309SOL     OW 7378   0.003   2.272   9.950
 2309SOL    HW1 7379   4.423   2.307   9.989
 2309SOL    HW2 7380   4.474   2.195   9.901
 2310SOL     OW 7381   0.569   3.163  10.502
 2310SOL    HW1 7382   0.485   3.167  10.456
 2310SOL    HW2 7383   0.585   3.252  10.533
 2311SOL     OW 7384   1.578   3.380  10.019
 2311SOL    HW1 7385   1.533   3.354  10.100
 2311SOL    HW2 7386   1.508   3.383   9.953
 2312SOL     OW 7387   1.134   2.562  10.003
 2312SOL    HW1 7388   1.182   2.644   9.992
 2312SOL    HW2 7389   1.086   2.573  10.085
 2313SOL     OW 7390   1.792   2.459   9.536
 2313SOL    HW1 7391   1.757   2.460   9.447
 2313SOL    HW2 7392   1.753   2.382   9.577
 2314SOL     OW 7393   0.739   2.997  10.360
 2314SOL    HW1 7394   0.675   3.036  10.419
 2314SOL    HW2 7395   0.780   3.071  10.316
 2315SOL     OW 7396   0.866   2.627   0.030
 2315SOL    HW1 7397   0.871   2.680   0.110
 2315SOL    HW2 7398   0.898   2.684  11.061
 2316SOL     OW 7399   0.684   2.857   9.954
 2316SOL    HW1 7400   0.751   2.851  10.022
 2316SOL    HW2 7401   0.616   2.913   9.993
 2317SOL     OW 7402   0.335   3.275  10.375
 2317SOL    HW1 7403   0.255   3.249  10.329
 2317SOL    HW2 7404   0.381   3.332  10.313
 2318SOL     OW 7405   1.462   3.363  10.668
 2318SOL    HW1 7406   1.520   3.438  10.673
 2318SOL    HW2 7407   1.391   3.383  10.730
 2319SOL     OW 7408   0.458   2.249  10.761
 2319SOL    HW1 7409   0.535   2.195  10.775
 2319SOL    HW2 7410   0.386   2.199  10.800
 2320SOL     OW 7411   1.594   2.298  10.059
 2320SOL    HW1 7412   1.522   2.313   9.997
 2320SOL    HW2 7413   1.597   2.377  10.112
 2321SOL     OW 7414   0.245   3.552   9.776
 2321SOL    HW1 7415   0.229   3.636   9.819
 2321SOL    HW2 7416   0.320   3.567   9.720
 2322SOL     OW 7417   0.269   3.286   9.833
 2322SOL    HW1 7418   0.249   3.380   9.837
 2322SOL    HW2 7419   0.213   3.247   9.899
 2323SOL     OW 7420   0.262   2.946  10.198
 2323SOL    HW1 7421   0.272   2.853  10.218
 2323SOL    HW2 7422   0.201   2.979  10.263
 2324SOL     OW 7423   0.601   3.655  10.734
 2324SOL    HW1 7424   0.522   3.639  10.786
 2324SOL    HW2 7425   0.627   3.744  10.758
 2325SOL     OW 7426   0.565   2.857   9.459
 2325SOL    HW1 7427   0.617   2.895   9.388
 2325SOL    HW2 7428   0.608   2.886   9.539
 2326SOL     OW 7429   1.604   1.986  10.780
 2326SOL    HW1 7430   1.622   2.064  10.726
 2326SOL    HW2 7431   1.627   2.013  10.869
 2327SOL     OW 7432   0.135   2.518   9.880
 2327SOL    HW1 7433   0.094   2.436   9.908
 2327SOL    HW2 7434   0.108   2.582   9.945
 2328SOL     OW 7435   1.844   3.611   9.637
 2328SOL    HW1 7436   1.914   3.588   9.698
 2328SOL    HW2 7437   1.859   3.704   9.617
 2329SOL     OW 7438   0.033   3.467   9.473
 2329SOL    HW1 7439   0.013   3.374   9.465
 2329SOL    HW2 7440   0.062   3.479   9.563
 2330SOL     OW 7441   1.692   2.781   9.956
 2330SOL    HW1 7442   1.770   2.733   9.928
 2330SOL    HW2 7443   1.668   2.833   9.879
 2331SOL     OW 7444   1.651   2.964   9.740
 2331SOL    HW1 7445   1.737   2.961   9.700
 2331SOL    HW2 7446   1.658   3.029   9.810
 2332SOL     OW 7447   0.087   2.634  10.898
 2332SOL    HW1 7448   0.168   2.603  10.858
 2332SOL    HW2 7449   0.101   2.727  10.913
 2333SOL     OW 7450   0.618   3.255  10.047
 2333SOL    HW1 7451   0.573   3.171  10.055
 2333SOL    HW2 7452   0.602   3.282   9.957
 2334SOL     OW 7453   1.279   3.097  10.756
 2334SOL    HW1 7454   1.305   3.034  10.688
 2334SOL    HW2 7455   1.336   3.076  10.830
 2335SOL     OW 7456   0.828   1.868   9.827
 2335SOL    HW1 7457   0.868   1.951   9.801
 2335SOL    HW2 7458   0.734   1.886   9.829
 2336SOL     OW 7459   0.170   2.803  10.587
 2336SOL    HW1 7460   0.260   2.775  10.571
 2336SOL    HW2 7461   0.130   2.806  10.500
 2337SOL     OW 7462   1.531   2.865   9.511
 2337SOL    HW1 7463   1.462   2.807   9.542
 2337SOL    HW2 7464   1.574   2.897   9.590
 2338SOL     OW 7465   1.198   3.674  10.933
 2338SOL    HW1 7466   1.192   3.741  10.865
 2338SOL    HW2 7467   1.210   3.592  10.885
 2339SOL     OW 7468   0.342   2.125   0.016
 2339SOL    HW1 7469   0.389   2.200   0.053
 2339SOL    HW2 7470   0.251   2.154   0.010
 2340SOL     OW 7471   1.470   3.281  10.252
 2340SOL    HW1 7472   1.403   3.299  10.319
 2340SOL    HW2 7473   1.455   3.190  10.227
 2341SOL     OW 7474   1.651   3.624   9.884
 2341SOL    HW1 7475   1.631   3.588   9.798
 2341SOL    HW2 7476   1.637   3.551   9.945
 2342SOL     OW 7477   0.597   2.574   9.583
 2342SOL    HW1 7478   0.597   2.659   9.541
 2342SOL    HW2 7479   0.531   2.581   9.652
 2343SOL     OW 7480   1.279   2.237  10.247
 2343SOL    HW1 7481   1.191   2.200  10.254
 2343SOL    HW2 7482   1.333   2.181  10.303
 2344SOL     OW 7483   1.577   3.537   9.622
 2344SOL    HW1 7484   1.670   3.558   9.614
 2344SOL    HW2 7485   1.548   3.521   9.533
 2345SOL     OW 7486   0.800   2.474  10.753
 2345SOL    HW1 7487   0.770   2.449  10.840
 2345SOL    HW2 7488   0.766   2.405  10.696
 2346SOL     OW 7489   0.967   2.768  10.915
 2346SOL    HW1 7490   1.017   2.699  10.871
 2346SOL    HW2 7491   0.917   2.810  10.845
 2347SOL     OW 7492   0.999   2.270  10.536
 2347SOL    HW1 7493   0.909   2.283  10.562
 2347SOL    HW2 7494   0.993   2.227  10.450
 2348SOL     OW 7495   1.056   2.561   9.733
 2348SOL    HW1 7496   1.076   2.555   9.827
 2348SOL    HW2 7497   0.973   2.516   9.723
 2349SOL     OW 7498   0.083   2.694  10.099
 2349SOL    HW1 7499   0.168   2.686  10.142
 2349SOL    HW2 7500   0.019   2.681  10.169
 2350SOL     OW 7501   0.111   3.710  10.904
 2350SOL    HW1 7502   0.106   3.645  10.974
 2350SOL    HW2 7503   0.043   3.684  10.842
 2351SOL     OW 7504   0.899   2.212   9.507
 2351SOL    HW1 7505   0.941   2.275   9.447
 2351SOL    HW2 7506   0.902   2.129   9.460
 2352SOL     OW 7507   1.383   3.005   9.849
 2352SOL    HW1 7508   1.462   2.993   9.797
 2352SOL    HW2 7509   1.330   3.066   9.799
 2353SOL     OW 7510   0.557   2.035  10.210
 2353SOL    HW1 7511   0.557   2.067  10.301
 2353SOL    HW2 7512   0.555   2.115  10.157
 2354SOL     OW 7513   0.997   3.308   9.777
 2354SOL    HW1 7514   0.970   3.384   9.725
 2354SOL    HW2 7515   0.971   3.329   9.866
 2355SOL     OW 7516   0.361   3.681  10.172
 2355SOL    HW1 7517   0.404   3.596  10.185
 2355SOL    HW2 7518   0.429   3.745  10.193
 2356SOL     OW 7519   1.803   2.909  10.183
 2356SOL    HW1 7520   1.751   2.888  10.105
 2356SOL    HW2 7521   1.739   2.918  10.253
 2357SOL     OW 7522   1.230   3.399  10.815
 2357SOL    HW1 7523   1.240   3.307  10.841
 2357SOL    HW2 7524   1.153   3.399  10.758
 2358SOL     OW 7525   0.304   2.810   9.577
 2358SOL    HW1 7526   0.385   2.835   9.532
 2358SOL    HW2 7527   0.296   2.716   9.561
 2359SOL     OW 7528   1.483   2.616  10.030
 2359SOL    HW1 7529   1.481   2.577  10.117
 2359SOL    HW2 7530   1.562   2.670  10.029
 2360SOL     OW 7531   0.463   3.125  11.049
 2360SOL    HW1 7532   0.426   3.150  10.964
 2360SOL    HW2 7533   0.405   3.056  11.081
 2361SOL     OW 7534   1.127   3.641   9.536
 2361SOL    HW1 7535   1.050   3.604   9.579
 2361SOL    HW2 7536   1.151   3.576   9.469
 2362SOL     OW 7537   0.201   2.134  10.799
 2362SOL    HW1 7538   0.149   2.214  10.807
 2362SOL    HW2 7539   0.184   2.086  10.880
 2363SOL     OW 7540   1.631   3.246   9.404
 2363SOL    HW1 7541   1.589   3.331   9.389
 2363SOL    HW2 7542   1.564   3.182   9.381
 2364SOL     OW 7543   0.469   3.604   9.622
 2364SOL    HW1 7544   0.515   3.657   9.686
 2364SOL    HW2 7545   0.538   3.564   9.569
 2365SOL     OW 7546   1.398   1.969   9.755
 2365SOL    HW1 7547   1.392   1.943   9.663
 2365SOL    HW2 7548   1.492   1.976   9.772
 2366SOL     OW 7549   0.243   3.651  10.527
 2366SOL    HW1 7550   0.290   3.574  10.559
 2366SOL    HW2 7551   0.205   3.623  10.444
 2367SOL     OW 7552   0.943   3.562  10.205
 2367SOL    HW1 7553   1.026   3.516  10.223
 2367SOL    HW2 7554   0.903   3.511  10.135
 2368SOL     OW 7555   0.398   2.552   9.779
 2368SOL    HW1 7556   0.416   2.459   9.792
 2368SOL    HW2 7557   0.306   2.562   9.805
 2369SOL     OW 7558   0.651   1.977   9.408
 2369SOL    HW1 7559   0.705   1.901   9.430
 2369SOL    HW2 7560   0.596   1.947   9.336
 2370SOL     OW 7561   0.759   2.150  11.047
 2370SOL    HW1 7562   0.831   2.097  11.081
 2370SOL    HW2 7563   0.691   2.143   0.014
 2371SOL     OW 7564   0.875   3.386  10.506
 2371SOL    HW1 7565   0.857   3.350  10.420
 2371SOL    HW2 7566   0.946   3.332  10.541
 2372SOL     OW 7567   1.341   2.457  10.760
 2372SOL    HW1 7568   1.399   2.436  10.833
 2372SOL    HW2 7569   1.367   2.546  10.734
 2373SOL     OW 7570   0.820   3.247  10.261
 2373SOL    HW1 7571   0.905   3.238  10.218
 2373SOL    HW2 7572   0.758   3.257  10.188
 2374SOL     OW 7573   0.930   2.372  10.207
 2374SOL    HW1 7574   0.905   2.362  10.115
 2374SOL    HW2 7575   0.959   2.285  10.233
 2375SOL     OW 7576   0.564   1.926   9.800
 2375SOL    HW1 7577   0.484   1.923   9.853
 2375SOL    HW2 7578   0.552   2.002   9.743
 2376SOL     OW 7579   1.429   3.066   9.347
 2376SOL    HW1 7580   1.458   2.991   9.399
 2376SOL    HW2 7581   1.343   3.088   9.383
 2377SOL     OW 7582   0.296   1.905   9.485
 2377SOL    HW1 7583   0.358   1.969   9.451
 2377SOL    HW2 7584   0.350   1.841   9.531
 2378SOL     OW 7585   0.946   2.113   9.764
 2378SOL    HW1 7586   0.921   2.150   9.679
 2378SOL    HW2 7587   1.040   2.129   9.770
 2379SOL     OW 7588   1.079   2.561  10.770
 2379SOL    HW1 7589   1.011   2.495  10.775
 2379SOL    HW2 7590   1.161   2.512  10.774
 2380SOL     OW 7591   1.214   3.440  10.108
 2380SOL    HW1 7592   1.228   3.502  10.037
 2380SOL    HW2 7593   1.286   3.457  10.169
 2381SOL     OW 7594   0.473   3.018  10.037
 2381SOL    HW1 7595   0.407   2.998  10.104
 2381SOL    HW2 7596   0.427   3.004   9.954
 2382SOL     OW 7597   1.260   3.653   9.924
 2382SOL    HW1 7598   1.309   3.714   9.870
 2382SOL    HW2 7599   1.190   3.705   9.963
 2383SOL     OW 7600   1.026   2.391   9.338
 2383SOL    HW1 7601   0.983   2.475   9.319
 2383SOL    HW2 7602   1.090   2.412   9.405
 2384SOL     OW 7603   0.064   2.368  10.712
 2384SOL    HW1 7604   0.141   2.369  10.656
 2384SOL    HW2 7605   0.065   2.453  10.756
 2385SOL     OW 7606   0.557   2.089  10.483
 2385SOL    HW1 7607   0.601   2.018  10.531
 2385SOL    HW2 7608   0.465   2.081  10.507
 2386SOL     OW 7609   0.867   2.319   9.946
 2386SOL    HW1 7610   0.825   2.375   9.881
 2386SOL    HW2 7611   0.891   2.240   9.898
 2387SOL     OW 7612   1.018   1.918  10.055
 2387SOL    HW1 7613   0.959   1.912   9.980
 2387SOL    HW2 7614   0.995   1.844  10.110
 2388SOL     OW 7615   1.439   3.021  10.166
 2388SOL    HW1 7616   1.369   2.956  10.169
 2388SOL    HW2 7617   1.462   3.029  10.073
 2389SOL     OW 7618   1.464   2.479  10.274
 2389SOL    HW1 7619   1.407   2.402  10.277
 2389SOL    HW2 7620   1.522   2.468  10.350
 2390SOL     OW 7621   1.836   2.670   9.702
 2390SOL    HW1 7622   1.891   2.619   9.761
 2390SOL    HW2 7623   1.815   2.609   9.631
 2391SOL     OW 7624   0.495   3.287   9.461
 2391SOL    HW1 7625   0.415   3.260   9.507
 2391SOL    HW2 7626   0.489   3.244   9.375
 2392SOL     OW 7627   1.681   3.129   9.948
 2392SOL    HW1 7628   1.775   3.126   9.965
 2392SOL    HW2 7629   1.655   3.218   9.971
 2393SOL     OW 7630   1.393   2.435   9.382
 2393SOL    HW1 7631   1.331   2.412   9.451
 2393SOL    HW2 7632   1.478   2.404   9.415
 2394SOL     OW 7633   0.527   2.121   9.613
 2394SOL    HW1 7634   0.579   2.078   9.546
 2394SOL    HW2 7635   0.501   2.204   9.574
 2395SOL     OW 7636   1.752   3.092  10.836
 2395SOL    HW1 7637   1.844   3.064  10.833
 2395SOL    HW2 7638   1.754   3.176  10.882
 2396SOL     OW 7639   1.053   3.214  10.644
 2396SOL    HW1 7640   0.973   3.182  10.688
 2396SOL    HW2 7641   1.124   3.167  10.688
 2397SOL     OW 7642   1.142   3.083  10.410
 2397SOL    HW1 7643   1.075   3.116  10.470
 2397SOL    HW2 7644   1.115   3.115  10.324
 2398SOL     OW 7645   1.623   2.958  10.385
 2398SOL    HW1 7646   1.618   3.020  10.457
 2398SOL    HW2 7647   1.548   2.978  10.330
 2399SOL     OW 7648   0.920   1.958  10.693
 2399SOL    HW1 7649   0.943   1.939  10.603
 2399SOL    HW2 7650   0.999   1.997  10.731
 2400SOL     OW 7651   0.711   2.926   9.683
 2400SOL    HW1 7652   0.697   2.903   9.775
 2400SOL    HW2 7653   0.785   2.872   9.657
 2401SOL     OW 7654   0.428   2.692  10.568
 2401SOL    HW1 7655   0.500   2.703  10.630
 2401SOL    HW2 7656   0.375   2.622  10.605
 2402SOL     OW 7657   1.265   2.239  10.602
 2402SOL    HW1 7658   1.295   2.318  10.647
 2402SOL    HW2 7659   1.175   2.260  10.575
 2403SOL     OW 7660   0.065   3.439  10.671
 2403SOL    HW1 7661   0.045   3.527  10.639
 2403SOL    HW2 7662   0.161   3.434  10.668
 2404SOL     OW 7663   0.329   2.977   9.803
 2404SOL    HW1 7664   0.339   3.054   9.747
 2404SOL    HW2 7665   0.326   2.903   9.742
 2405SOL     OW 7666   0.552   2.382  10.163
 2405SOL    HW1 7667   0.565   2.442  10.090
 2405SOL    HW2 7668   0.616   2.410  10.229
 2406SOL     OW 7669   1.246   3.213   9.702
 2406SOL    HW1 7670   1.302   3.283   9.735
 2406SOL    HW2 7671   1.159   3.235   9.735
 2407SOL     OW 7672   1.294   3.326  10.454
 2407SOL    HW1 7673   1.350   3.330  10.532
 2407SOL    HW2 7674   1.242   3.247  10.466
 2408SOL     OW 7675   1.573   2.479   9.796
 2408SOL    HW1 7676   1.524   2.524   9.864
 2408SOL    HW2 7677   1.624   2.548   9.752
 2409SOL     OW 7678   0.342   3.398  10.614
 2409SOL    HW1 7679   0.331   3.349  10.533
 2409SOL    HW2 7680   0.437   3.411  10.622
 2410SOL     OW 7681   0.503   2.601  10.966
 2410SOL    HW1 7682   0.550   2.645  10.895
 2410SOL    HW2 7683   0.563   2.533  10.995
 2411SOL     OW 7684   1.598   2.609  10.953
 2411SOL    HW1 7685   1.521   2.661  10.929
 2411SOL    HW2 7686   1.672   2.660  10.920
 2412SOL     OW 7687   0.589   2.737  10.342
 2412SOL    HW1 7688   0.625   2.826  10.345
 2412SOL    HW2 7689   0.532   2.731  10.419
 2413SOL     OW 7690   1.340   2.725  10.336
 2413SOL    HW1 7691   1.254   2.707  10.298
 2413SOL    HW2 7692   1.389   2.644  10.322
 2414SOL     OW 7693   1.196   2.388   9.569
 2414SOL    HW1 7694   1.206   2.310   9.624
 2414SOL    HW2 7695   1.156   2.453   9.626
 2415SOL     OW 7696   0.295   2.048  10.551
 2415SOL    HW1 7697   0.261   2.078  10.636
 2415SOL    HW2 7698   0.277   1.955  10.549
 2416SOL     OW 7699   0.000   3.179  10.599
 2416SOL    HW1 7700   0.049   3.127  10.663
 2416SOL    HW2 7701   0.015   3.270  10.625
 2417SOL     OW 7702   0.719   2.489  10.358
 2417SOL    HW1 7703   0.796   2.477  10.302
 2417SOL    HW2 7704   0.689   2.578  10.341
 2418SOL     OW 7705   0.325   1.930   9.926
 2418SOL    HW1 7706   0.291   2.016   9.948
 2418SOL    HW2 7707   0.326   1.883  10.009
 2419SOL     OW 7708   1.623   2.243   9.665
 2419SOL    HW1 7709   1.656   2.179   9.728
 2419SOL    HW2 7710   1.599   2.319   9.718
 2420SOL     OW 7711   1.028   2.621  10.266
 2420SOL    HW1 7712   1.017   2.637  10.360
 2420SOL    HW2 7713   1.002   2.530  10.254
 2421SOL     OW 7714   0.973   3.436  11.003
 2421SOL    HW1 7715   0.959   3.485  10.922
 2421SOL    HW2 7716   0.980   3.345  10.975
 2422SOL     OW 7717   1.845   3.344  10.910
 2422SOL    HW1 7718   1.872   3.385  10.828
 2422SOL    HW2 7719   1.909   3.375  10.974
 2423SOL     OW 7720   0.353   2.796  11.086
 2423SOL    HW1 7721   0.419   2.818   0.052
 2423SOL    HW2 7722   0.392   2.723  11.038
 2424SOL     OW 7723   1.523   2.133   9.432
 2424SOL    HW1 7724   1.462   2.067   9.464
 2424SOL    HW2 7725   1.561   2.171   9.511
 2425SOL     OW 7726   1.285   2.685   9.336
 2425SOL    HW1 7727   1.328   2.599   9.342
 2425SOL    HW2 7728   1.317   2.723   9.255
 2426SOL     OW 7729   1.072   3.204  10.168
 2426SOL    HW1 7730   1.078   3.133  10.105
 2426SOL    HW2 7731   1.127   3.274  10.132
 2427SOL     OW 7732   0.318   2.672  10.248
 2427SOL    HW1 7733   0.412   2.689  10.250
 2427SOL    HW2 7734   0.310   2.579  10.270
 2428SOL     OW 7735   0.317   2.389  10.295
 2428SOL    HW1 7736   0.279   2.302  10.282
 2428SOL    HW2 7737   0.398   2.387  10.243
 2429SOL     OW 7738   1.159   2.058  10.786
 2429SOL    HW1 7739   1.176   2.109  10.865
 2429SOL    HW2 7740   1.201   2.108  10.716
 2430SOL     OW 7741   4.491   3.178   9.525
 2430SOL    HW1 7742   4.399   3.195   9.506
 2430SOL    HW2 7743   4.494   3.085   9.549
 2431SOL     OW 7744   0.109   3.621  10.253
 2431SOL    HW1 7745   0.067   3.584  10.175
 2431SOL    HW2 7746   0.195   3.650  10.221
 2432SOL     OW 7747   0.492   3.437  10.217
 2432SOL    HW1 7748   0.561   3.499  10.239
 2432SOL    HW2 7749   0.534   3.375  10.157
 2433SOL     OW 7750   0.967   2.650  10.532
 2433SOL    HW1 7751   1.027   2.637  10.605
 2433SOL    HW2 7752   0.888   2.602  10.556
 2434SOL     OW 7753   0.016   2.417  10.380
 2434SOL    HW1 7754   0.111   2.411  10.371
 2434SOL    HW2 7755   4.498   2.388  10.470
 2435SOL     OW 7756   0.820   2.432   9.680
 2435SOL    HW1 7757   0.826   2.357   9.619
 2435SOL    HW2 7758   0.745   2.482   9.648
 2436SOL     OW 7759   1.645   2.466  10.484
 2436SOL    HW1 7760   1.637   2.408  10.560
 2436SOL    HW2 7761   1.733   2.452  10.452
 2437SOL     OW 7762   0.255   3.439  11.045
 2437SOL    HW1 7763   0.201   3.451   0.022
 2437SOL    HW2 7764   0.238   3.348  11.017
 2438SOL     OW 7765   0.722   2.304  10.557
 2438SOL    HW1 7766   0.659   2.234  10.537
 2438SOL    HW2 7767   0.709   2.367  10.487
 2439SOL     OW 7768   0.939   3.539  10.749
 2439SOL    HW1 7769   0.909   3.501  10.666
 2439SOL    HW2 7770   0.920   3.633  10.740
 2440SOL     OW 7771   0.466   2.350   9.478
 2440SOL    HW1 7772   0.529   2.416   9.507
 2440SOL    HW2 7773   0.384   2.399   9.469
 2441SOL     OW 7774   0.158   3.014  10.755
 2441SOL    HW1 7775   0.136   2.977  10.840
 2441SOL    HW2 7776   0.165   2.938  10.697
 2442SOL     OW 7777   1.315   2.912  10.537
 2442SOL    HW1 7778   1.337   2.846  10.472
 2442SOL    HW2 7779   1.254   2.971  10.492
 2443SOL     OW 7780   1.318   2.720   9.611
 2443SOL    HW1 7781   1.245   2.686   9.663
 2443SOL    HW2 7782   1.291   2.705   9.520
 2444SOL     OW 7783   1.789   3.595  10.469
 2444SOL    HW1 7784   1.847   3.621  10.397
 2444SOL    HW2 7785   1.758   3.508  10.445
 2445SOL     OW 7786   1.238   3.596  10.410
 2445SOL    HW1 7787   1.322   3.622  10.371
 2445SOL    HW2 7788   1.251   3.503  10.432
 2446SOL     OW 7789   0.081   3.057  10.363
 2446SOL    HW1 7790   0.053   3.084  10.451
 2446SOL    HW2 7791   0.050   3.127  10.305
 2447SOL     OW 7792   1.727   2.022   9.812
 2447SOL    HW1 7793   1.793   2.006   9.745
 2447SOL    HW2 7794   1.709   1.936   9.849
 2448SOL     OW 7795   1.395   3.430   9.805
 2448SOL    HW1 7796   1.451   3.464   9.736
 2448SOL    HW2 7797   1.342   3.505   9.833
 2449SOL     OW 7798   1.279   2.793   9.982
 2449SOL    HW1 7799   1.352   2.732   9.992
 2449SOL    HW2 7800   1.313   2.863   9.927
 2450SOL     OW 7801   0.802   3.141  10.729
 2450SOL    HW1 7802   0.772   3.177  10.812
 2450SOL    HW2 7803   0.730   3.159  10.668
 2451SOL     OW 7804   0.673   3.492   9.466
 2451SOL    HW1 7805   0.685   3.506   9.372
 2451SOL    HW2 7806   0.618   3.413   9.471
 2452SOL     OW 7807   1.609   3.588  10.682
 2452SOL    HW1 7808   1.674   3.598  10.613
 2452SOL    HW2 7809   1.598   3.677  10.718
 2453SOL     OW 7810   1.848   2.045  10.280
 2453SOL    HW1 7811   1.883   1.959  10.258
 2453SOL    HW2 7812   1.761   2.047  10.238
 2454SOL     OW 7813   0.256   2.178  10.022
 2454SOL    HW1 7814   0.173   2.219  10.000
 2454SOL    HW2 7815   0.251   2.164  10.117
 2455SOL     OW 7816   1.208   3.460   9.344
 2455SOL    HW1 7817   1.197   3.368   9.371
 2455SOL    HW2 7818   1.141   3.473   9.277
 2456SOL     OW 7819   0.834   2.872  10.695
 2456SOL    HW1 7820   0.874   2.858  10.609
 2456SOL    HW2 7821   0.825   2.967  10.703
 2457SOL     OW 7822   0.917   2.773   9.602
 2457SOL    HW1 7823   0.976   2.806   9.535
 2457SOL    HW2 7824   0.968   2.706   9.648
 2458SOL     OW 7825   1.487   3.496   9.358
 2458SOL    HW1 7826   1.394   3.482   9.342
 2458SOL    HW2 7827   1.526   3.500   9.271
 2459SOL     OW 7828   0.354   3.195  10.814
 2459SOL    HW1 7829   0.346   3.266  10.751
 2459SOL    HW2 7830   0.288   3.131  10.787
 2460SOL     OW 7831   1.613   3.145  10.593
 2460SOL    HW1 7832   1.664   3.120  10.670
 2460SOL    HW2 7833   1.555   3.215  10.624
 2461SOL     OW 7834   1.067   2.975  10.025
 2461SOL    HW1 7835   0.993   2.925  10.060
 2461SOL    HW2 7836   1.130   2.909   9.999
 2462SOL     OW 7837   1.027   2.107  10.275
 2462SOL    HW1 7838   1.024   2.061  10.191
 2462SOL    HW2 7839   1.021   2.036  10.340
 2463SOL     OW 7840   0.608   3.350   9.792
 2463SOL    HW1 7841   0.658   3.301   9.726
 2463SOL    HW2 7842   0.525   3.371   9.749
 2464SOL     OW 7843   1.726   2.259  10.696
 2464SOL    HW1 7844   1.801   2.319  10.702
 2464SOL    HW2 7845   1.758   2.187  10.641
 2465SOL     OW 7846   0.255   3.205   9.581
 2465SOL    HW1 7847   0.160   3.198   9.571
 2465SOL    HW2 7848   0.268   3.239   9.670
 2466SOL     OW 7849   0.118   2.888  10.994
 2466SOL    HW1 7850   0.066   2.916  11.069
 2466SOL    HW2 7851   0.204   2.866  11.031
 2467SOL     OW 7852   0.681   2.058  10.797
 2467SOL    HW1 7853   0.764   2.033  10.757
 2467SOL    HW2 7854   0.706   2.096  10.882
 2468SOL     OW 7855   0.077   2.194   9.334
 2468SOL    HW1 7856   4.489   2.214   9.366
 2468SOL    HW2 7857   0.102   2.272   9.285
 2469SOL     OW 7858   1.424   2.714  10.711
 2469SOL    HW1 7859   1.374   2.782  10.666
 2469SOL    HW2 7860   1.512   2.722  10.674
 2470SOL     OW 7861   0.086   2.028   9.609
 2470SOL    HW1 7862   0.084   2.111   9.562
 2470SOL    HW2 7863   0.162   1.982   9.573
 2471SOL     OW 7864   1.178   3.193   9.429
 2471SOL    HW1 7865   1.086   3.164   9.429
 2471SOL    HW2 7866   1.203   3.194   9.521
 2472SOL     OW 7867   0.637   2.692  10.746
 2472SOL    HW1 7868   0.696   2.767  10.733
 2472SOL    HW2 7869   0.694   2.616  10.743
 2473SOL     OW 7870   1.482   3.653  10.293
 2473SOL    HW1 7871   1.506   3.724  10.234
 2473SOL    HW2 7872   1.566   3.620  10.326
 2474SOL     OW 7873   0.716   2.431  11.009
 2474SOL    HW1 7874   0.769   2.489  11.064
 2474SOL    HW2 7875   0.744   2.343  11.035
 2475SOL     OW 7876   0.380   3.618  10.883
 2475SOL    HW1 7877   0.301   3.671  10.871
 2475SOL    HW2 7878   0.351   3.547  10.942
 2476SOL     OW 7879   1.662   2.743  10.567
 2476SOL    HW1 7880   1.658   2.658  10.523
 2476SOL    HW2 7881   1.653   2.806  10.495
 2477SOL     OW 7882   1.217   2.183   9.766
 2477SOL    HW1 7883   1.277   2.109   9.761
 2477SOL    HW2 7884   1.246   2.233   9.842
 2478SOL     OW 7885   0.586   2.593   9.984
 2478SOL    HW1 7886   0.625   2.679   9.970
 2478SOL    HW2 7887   0.521   2.584   9.914
 2479SOL     OW 7888   1.734   2.178  10.975
 2479SOL    HW1 7889   1.721   2.224  10.893
 2479SOL    HW2 7890   1.659   2.203  11.029
 2480SOL     OW 7891   1.748   2.802  10.823
 2480SOL    HW1 7892   1.735   2.896  10.836
 2480SOL    HW2 7893   1.727   2.787  10.731
 2481SOL     OW 7894   0.868   3.225   9.360
 2481SOL    HW1 7895   0.828   3.250   9.443
 2481SOL    HW2 7896   0.879   3.307   9.312
 2482SOL     OW 7897   0.668   3.641  10.245
 2482SOL    HW1 7898   0.649   3.733  10.228
 2482SOL    HW2 7899   0.763   3.635  10.238
 2483SOL     OW 7900   0.870   2.836  10.163
 2483SOL    HW1 7901   0.920   2.762  10.199
 2483SOL    HW2 7902   0.829   2.876  10.239
 2484SOL     OW 7903   1.076   2.850   9.399
 2484SOL    HW1 7904   1.055   2.902   9.321
 2484SOL    HW2 7905   1.150   2.795   9.372
 2485SOL     OW 7906   1.842   3.414  10.149
 2485SOL    HW1 7907   1.762   3.404  10.097
 2485SOL    HW2 7908   1.830   3.356  10.224
 2486SOL     OW 7909   0.139   3.086   9.978
 2486SOL    HW1 7910   0.159   3.045  10.063
 2486SOL    HW2 7911   0.190   3.036   9.915
 2487SOL     OW 7912   0.682   3.263  10.943
 2487SOL    HW1 7913   0.618   3.208  10.989
 2487SOL    HW2 7914   0.630   3.337  10.910
 2488SOL     OW 7915   1.819   2.053  10.548
 2488SOL    HW1 7916   1.838   1.961  10.566
 2488SOL    HW2 7917   1.830   2.063  10.454
 2489SOL     OW 7918   0.432   2.291   9.832
 2489SOL    HW1 7919   0.461   2.218   9.778
 2489SOL    HW2 7920   0.382   2.251   9.902
 2490SOL     OW 7921   1.699   3.346  10.399
 2490SOL    HW1 7922   1.619   3.326  10.349
 2490SOL    HW2 7923   1.702   3.278  10.467
 2491SOL     OW 7924   0.296   2.364  10.567
 2491SOL    HW1 7925   0.362   2.306  10.604
 2491SOL    HW2 7926   0.320   2.372  10.474
 2492SOL     OW 7927   0.834   3.442   9.984
 2492SOL    HW1 7928   0.810   3.510   9.921
 2492SOL    HW2 7929   0.759   3.383   9.985
 2493SOL     OW 7930   1.427   2.095  10.428
 2493SOL    HW1 7931   1.445   2.010  10.467
 2493SOL    HW2 7932   1.379   2.143  10.496
 2494SOL     OW 7933   1.009   1.878  10.439
 2494SOL    HW1 7934   0.955   1.814  10.392
 2494SOL    HW2 7935   1.096   1.838  10.442
 2495SOL     OW 7936   0.776   3.196   9.633
 2495SOL    HW1 7937   0.751   3.104   9.642
 2495SOL    HW2 7938   0.857   3.204   9.683
 2496SOL     OW 7939   0.621   3.417  10.605
 2496SOL    HW1 7940   0.618   3.502  10.648
 2496SOL    HW2 7941   0.708   3.412  10.566
 2497SOL     OW 7942   1.362   1.911   9.487
 2497SOL    HW1 7943   1.398   1.839   9.434
 2497SOL    HW2 7944   1.271   1.884   9.505
 2498SOL     OW 7945   1.296   2.328   9.987
 2498SOL    HW1 7946   1.244   2.408   9.989
 2498SOL    HW2 7947   1.291   2.293  10.076
 2499SOL     OW 7948   1.584   2.053  10.197
 2499SOL    HW1 7949   1.531   2.080  10.272
 2499SOL    HW2 7950   1.584   2.128  10.139
 2500SOL     OW 7951   0.034   2.911   9.612
 2500SOL    HW1 7952   0.124   2.882   9.598
 2500SOL    HW2 7953   0.016   2.889   9.704
 2501SOL     OW 7954   0.892   3.527   9.646
 2501SOL    HW1 7955   0.817   3.512   9.590
 2501SOL    HW2 7956   0.865   3.598   9.704
 2502SOL     OW 7957   0.192   4.291   0.098
 2502SOL    HW1 7958   0.130   4.297   0.171
 2502SOL    HW2 7959   0.224   4.381   0.086
 2503SOL     OW 7960   0.210   3.986   0.986
 2503SOL    HW1 7961   0.243   3.961   1.072
 2503SOL    HW2 7962   0.131   3.933   0.974
 2504SOL     OW 7963   4.489   4.104   0.619
 2504SOL    HW1 7964   4.399   4.125   0.644
 2504SOL    HW2 7965   4.486   4.011   0.594
 2505SOL     OW 7966   1.715   4.331   0.246
 2505SOL    HW1 7967   1.757   4.325   0.160
 2505SOL    HW2 7968   1.702   4.239   0.273
 2506SOL     OW 7969   0.733   0.282   0.685
 2506SOL    HW1 7970   0.725   0.216   0.754
 2506SOL    HW2 7971   0.654   0.271   0.632
 2507SOL     OW 7972   0.455   4.106   1.486
 2507SOL    HW1 7973   0.535   4.053   1.484
 2507SOL    HW2 7974   0.385   4.042   1.494
 2508SOL     OW 7975   1.610   4.162   0.745
 2508SOL    HW1 7976   1.575   4.202   0.666
 2508SOL    HW2 7977   1.576   4.217   0.817
 2509SOL     OW 7978   1.595   3.853   1.463
 2509SOL    HW1 7979   1.624   3.932   1.418
 2509SOL    HW2 7980   1.572   3.884   1.551
 2510SOL     OW 7981   0.139   4.328   0.654
 2510SOL    HW1 7982   0.084   4.251   0.638
 2510SOL    HW2 7983   0.108   4.392   0.590
 2511SOL     OW 7984   0.149   4.498   1.586
 2511SOL    HW1 7985   0.242   4.481   1.573
 2511SOL    HW2 7986   0.137   0.088   1.553
 2512SOL     OW 7987   0.829   3.736   0.520
 2512SOL    HW1 7988   0.866   3.821   0.497
 2512SOL    HW2 7989   0.734   3.751   0.522
 2513SOL     OW 7990   0.326   3.980   1.813
 2513SOL    HW1 7991   0.363   4.061   1.847
 2513SOL    HW2 7992   0.234   3.983   1.838
 2514SOL     OW 7993   1.277   4.091   0.937
 2514SOL    HW1 7994   1.188   4.056   0.944
 2514SOL    HW2 7995   1.329   4.035   0.995
 2515SOL     OW 7996   0.841   4.274   1.435
 2515SOL    HW1 7997   0.801   4.280   1.522
 2515SOL    HW2 7998   0.768   4.256   1.376
 2516SOL     OW 7999   1.392   4.201   1.678
 2516SOL    HW1 8000   1.400   4.246   1.762
 2516SOL    HW2 8001   1.445   4.122   1.688
 2517SOL     OW 8002   1.004   4.168   1.234
 2517SOL    HW1 8003   0.947   4.196   1.306
 2517SOL    HW2 8004   0.948   4.113   1.180
 2518SOL     OW 8005   1.059   4.412   0.403
 2518SOL    HW1 8006   1.052   4.476   0.474
 2518SOL    HW2 8007   0.969   4.384   0.387
 2519SOL     OW 8008   0.067   0.093   0.853
 2519SOL    HW1 8009   0.150   0.047   0.869
 2519SOL    HW2 8010   0.039   0.064   0.767
 2520SOL     OW 8011   0.896   4.074   0.208
 2520SOL    HW1 8012   0.936   4.136   0.147
 2520SOL    HW2 8013   0.909   3.989   0.167
 2521SOL     OW 8014   1.722   4.308   1.837
 2521SOL    HW1 8015   1.746   4.391   1.796
 2521SOL    HW2 8016   1.736   4.242   1.769
 2522SOL     OW 8017   0.555   3.894   0.900
 2522SOL    HW1 8018   0.557   3.926   0.990
 2522SOL    HW2 8019   0.547   3.973   0.846
 2523SOL     OW 8020   1.491   4.473   0.743
 2523SOL    HW1 8021   1.485   4.412   0.817
 2523SOL    HW2 8022   1.535   0.050   0.778
 2524SOL     OW 8023   0.186   3.999   1.483
 2524SOL    HW1 8024   0.153   4.082   1.519
 2524SOL    HW2 8025   0.178   3.937   1.556
 2525SOL     OW 8026   1.400   3.825   0.439
 2525SOL    HW1 8027   1.397   3.808   0.345
 2525SOL    HW2 8028   1.493   3.834   0.459
 2526SOL     OW 8029   0.342   4.386   0.406
 2526SOL    HW1 8030   0.380   4.307   0.446
 2526SOL    HW2 8031   0.319   4.442   0.480
 2527SOL     OW 8032   1.521   3.950   1.722
 2527SOL    HW1 8033   1.531   3.969   1.815
 2527SOL    HW2 8034   1.455   3.881   1.719
 2528SOL     OW 8035   0.624   3.835   0.120
 2528SOL    HW1 8036   0.707   3.788   0.120
 2528SOL    HW2 8037   0.573   3.796   0.050
 2529SOL     OW 8038   0.761   3.997   1.754
 2529SOL    HW1 8039   0.844   3.950   1.750
 2529SOL    HW2 8040   0.717   3.962   1.831
 2530SOL     OW 8041   1.333   4.319   1.436
 2530SOL    HW1 8042   1.357   4.281   1.521
 2530SOL    HW2 8043   1.392   4.393   1.426
 2531SOL     OW 8044   0.934   4.221   0.895
 2531SOL    HW1 8045   0.908   4.208   0.804
 2531SOL    HW2 8046   0.971   4.138   0.922
 2532SOL     OW 8047   0.563   3.788   0.495
 2532SOL    HW1 8048   0.483   3.783   0.547
 2532SOL    HW2 8049   0.554   3.867   0.442
 2533SOL     OW 8050   0.280   3.772   0.188
 2533SOL    HW1 8051   0.325   3.825   0.122
 2533SOL    HW2 8052   0.347   3.710   0.218
 2534SOL     OW 8053   0.944   3.983   0.462
 2534SOL    HW1 8054   0.921   4.017   0.375
 2534SOL    HW2 8055   1.039   3.994   0.467
 2535SOL     OW 8056   1.069   4.387   1.549
 2535SOL    HW1 8057   0.995   4.352   1.500
 2535SOL    HW2 8058   1.145   4.368   1.495
 2536SOL     OW 8059   1.011   4.260   0.038
 2536SOL    HW1 8060   1.039   4.289  11.052
 2536SOL    HW2 8061   1.089   4.265   0.092
 2537SOL     OW 8062   0.065   4.265   1.362
 2537SOL    HW1 8063   0.159   4.265   1.344
 2537SOL    HW2 8064   0.053   4.337   1.425
 2538SOL     OW 8065   0.557   3.953   1.170
 2538SOL    HW1 8066   0.601   3.883   1.217
 2538SOL    HW2 8067   0.465   3.945   1.195
 2539SOL     OW 8068   0.863   4.192   0.637
 2539SOL    HW1 8069   0.853   4.265   0.576
 2539SOL    HW2 8070   0.885   4.117   0.582
 2540SOL     OW 8071   1.019   3.776   0.742
 2540SOL    HW1 8072   0.958   3.770   0.669
 2540SOL    HW2 8073   0.995   3.702   0.799
 2541SOL     OW 8074   1.478   4.298   0.950
 2541SOL    HW1 8075   1.405   4.239   0.968
 2541SOL    HW2 8076   1.524   4.306   1.033
 2542SOL     OW 8077   1.403   4.290   0.078
 2542SOL    HW1 8078   1.333   4.271   0.140
 2542SOL    HW2 8079   1.456   4.211   0.076
 2543SOL     OW 8080   0.531   3.995   0.323
 2543SOL    HW1 8081   0.563   3.936   0.255
 2543SOL    HW2 8082   0.501   4.073   0.275
 2544SOL     OW 8083   0.917   3.817   1.387
 2544SOL    HW1 8084   0.941   3.795   1.297
 2544SOL    HW2 8085   0.997   3.854   1.424
 2545SOL     OW 8086   0.462   0.010   1.282
 2545SOL    HW1 8087   0.524   4.497   1.354
 2545SOL    HW2 8088   0.430   4.422   1.262
 2546SOL     OW 8089   1.264   4.099   1.285
 2546SOL    HW1 8090   1.296   4.177   1.330
 2546SOL    HW2 8091   1.176   4.123   1.255
 2547SOL     OW 8092   0.548   4.240   0.865
 2547SOL    HW1 8093   0.566   4.260   0.774
 2547SOL    HW2 8094   0.617   4.284   0.914
 2548SOL     OW 8095   1.569   4.321   0.502
 2548SOL    HW1 8096   1.539   4.392   0.559
 2548SOL    HW2 8097   1.616   4.365   0.431
 2549SOL     OW 8098   0.997   3.860   1.757
 2549SOL    HW1 8099   1.056   3.932   1.737
 2549SOL    HW2 8100   1.045   3.781   1.731
 2550SOL     OW 8101   0.492   3.767   1.753
 2550SOL    HW1 8102   0.448   3.712   1.688
 2550SOL    HW2 8103   0.435   3.843   1.763
 2551SOL     OW 8104   1.202   4.239   0.254
 2551SOL    HW1 8105   1.212   4.163   0.311
 2551SOL    HW2 8106   1.159   4.305   0.309
 2552SOL     OW 8107   0.296   3.917   1.243
 2552SOL    HW1 8108   0.251   3.946   1.322
 2552SOL    HW2 8109   0.280   3.823   1.239
 2553SOL     OW 8110   0.741   4.358   1.026
 2553SOL    HW1 8111   0.814   4.313   0.981
 2553SOL    HW2 8112   0.762   4.451   1.017
 2554SOL     OW 8113   1.756   0.118   1.844
 2554SOL    HW1 8114   1.678   0.145   1.795
 2554SOL    HW2 8115   1.729   0.121   1.936
 2555SOL     OW 8116   0.323   3.790   0.618
 2555SOL    HW1 8117   0.293   3.878   0.640
 2555SOL    HW2 8118   0.325   3.744   0.702
 2556SOL     OW 8119   1.619   4.090   0.356
 2556SOL    HW1 8120   1.655   4.024   0.416
 2556SOL    HW2 8121   1.588   4.160   0.414
 2557SOL     OW 8122   1.525   4.032   0.104
 2557SOL    HW1 8123   1.467   3.957   0.118
 2557SOL    HW2 8124   1.563   4.050   0.190
 2558SOL     OW 8125   0.325   0.011   0.895
 2558SOL    HW1 8126   0.401   0.068   0.904
 2558SOL    HW2 8127   0.348   4.433   0.946
 2559SOL     OW 8128   0.325   4.233   1.018
 2559SOL    HW1 8129   0.279   4.152   0.996
 2559SOL    HW2 8130   0.401   4.233   0.960
 2560SOL     OW 8131   1.139   4.088   1.690
 2560SOL    HW1 8132   1.086   4.147   1.743
 2560SOL    HW2 8133   1.223   4.133   1.680
 2561SOL     OW 8134   1.159   3.919   1.470
 2561SOL    HW1 8135   1.149   3.979   1.544
 2561SOL    HW2 8136   1.203   3.971   1.403
 2562SOL     OW 8137   0.011   4.258   1.081
 2562SOL    HW1 8138   0.103   4.275   1.060
 2562SOL    HW2 8139   0.009   4.248   1.176
 2563SOL     OW 8140   0.162   4.231   1.657
 2563SOL    HW1 8141   0.257   4.221   1.667
 2563SOL    HW2 8142   0.149   4.324   1.638
 2564SOL     OW 8143   0.814   4.313   0.326
 2564SOL    HW1 8144   0.827   4.226   0.288
 2564SOL    HW2 8145   0.723   4.312   0.357
 2565SOL     OW 8146   1.630   4.305   1.177
 2565SOL    HW1 8147   1.631   4.249   1.255
 2565SOL    HW2 8148   1.720   4.303   1.145
 2566SOL     OW 8149   0.662   4.203   1.243
 2566SOL    HW1 8150   0.629   4.119   1.211
 2566SOL    HW2 8151   0.680   4.253   1.163
 2567SOL     OW 8152   0.455   4.207   0.167
 2567SOL    HW1 8153   0.510   4.285   0.162
 2567SOL    HW2 8154   0.365   4.240   0.169
 2568SOL     OW 8155   0.930   3.817   0.084
 2568SOL    HW1 8156   0.968   3.777   0.005
 2568SOL    HW2 8157   0.977   3.776   0.156
 2569SOL     OW 8158   1.729   3.884   0.506
 2569SOL    HW1 8159   1.796   3.868   0.439
 2569SOL    HW2 8160   1.711   3.798   0.543
 2570SOL     OW 8161   1.276   0.128   0.666
 2570SOL    HW1 8162   1.336   0.066   0.708
 2570SOL    HW2 8163   1.319   0.150   0.584
 2571SOL     OW 8164   1.841   3.890   0.965
 2571SOL    HW1 8165   1.870   3.802   0.941
 2571SOL    HW2 8166   1.755   3.899   0.925
 2572SOL     OW 8167   0.268   4.040   0.717
 2572SOL    HW1 8168   0.193   4.096   0.694
 2572SOL    HW2 8169   0.256   4.023   0.811
 2573SOL     OW 8170   1.064   0.281   0.752
 2573SOL    HW1 8171   1.000   0.284   0.682
 2573SOL    HW2 8172   1.134   0.225   0.718
 2574SOL     OW 8173   1.029   3.963   0.957
 2574SOL    HW1 8174   1.026   3.912   0.875
 2574SOL    HW2 8175   1.021   3.897   1.026
 2575SOL     OW 8176   1.732   4.111   1.385
 2575SOL    HW1 8177   1.802   4.176   1.382
 2575SOL    HW2 8178   1.761   4.042   1.325
 2576SOL     OW 8179   0.678   3.920   1.496
 2576SOL    HW1 8180   0.761   3.896   1.456
 2576SOL    HW2 8181   0.701   3.950   1.584
 2577SOL     OW 8182   0.069   4.067  11.094
 2577SOL    HW1 8183   4.481   4.072   0.030
 2577SOL    HW2 8184   0.109   4.151   0.017
 2578SOL     OW 8185   0.082   3.891   0.320
 2578SOL    HW1 8186   0.073   3.969   0.266
 2578SOL    HW2 8187   0.154   3.842   0.281
 2579SOL     OW 8188   0.722   4.264   1.682
 2579SOL    HW1 8189   0.718   4.315   1.763
 2579SOL    HW2 8190   0.737   4.174   1.712
 2580SOL     OW 8191   1.216   4.036   0.452
 2580SOL    HW1 8192   1.279   3.964   0.447
 2580SOL    HW2 8193   1.243   4.086   0.529
 2581SOL     OW 8194   1.752   4.094   1.660
 2581SOL    HW1 8195   1.741   4.107   1.566
 2581SOL    HW2 8196   1.680   4.036   1.685
 2582SOL     OW 8197   1.103   0.209   0.038
 2582SOL    HW1 8198   1.088   0.303   0.023
 2582SOL    HW2 8199   1.182   0.189  11.088
 2583SOL     OW 8200   1.813   3.902   1.236
 2583SOL    HW1 8201   1.815   3.807   1.248
 2583SOL    HW2 8202   1.823   3.914   1.141
 2584SOL     OW 8203   0.447   4.165   0.535
 2584SOL    HW1 8204   0.475   4.093   0.479
 2584SOL    HW2 8205   0.391   4.123   0.601
 2585SOL     OW 8206   0.331   4.267   1.287
 2585SOL    HW1 8207   0.383   4.195   1.325
 2585SOL    HW2 8208   0.330   4.248   1.193
 2586SOL     OW 8209   1.427   3.952   1.117
 2586SOL    HW1 8210   1.440   3.866   1.157
 2586SOL    HW2 8211   1.379   4.002   1.184
 2587SOL     OW 8212   1.008   3.739   1.132
 2587SOL    HW1 8213   0.953   3.674   1.087
 2587SOL    HW2 8214   1.095   3.700   1.134
 2588SOL     OW 8215   1.352   3.786   0.165
 2588SOL    HW1 8216   1.374   3.728   0.093
 2588SOL    HW2 8217   1.264   3.759   0.191
 2589SOL     OW 8218   1.290   4.172   0.674
 2589SOL    HW1 8219   1.284   4.267   0.684
 2589SOL    HW2 8220   1.291   4.139   0.764
 2590SOL     OW 8221   1.582   3.915   0.885
 2590SOL    HW1 8222   1.529   3.944   0.959
 2590SOL    HW2 8223   1.583   3.990   0.825
 2591SOL     OW 8224   0.211   4.269   1.971
 2591SOL    HW1 8225   0.157   4.281   2.048
 2591SOL    HW2 8226   0.193   4.345   1.916
 2592SOL     OW 8227   0.210   3.986   2.848
 2592SOL    HW1 8228   0.243   3.961   2.934
 2592SOL    HW2 8229   0.131   3.934   2.837
 2593SOL     OW 8230   4.490   4.106   2.485
 2593SOL    HW1 8231   4.401   4.131   2.508
 2593SOL    HW2 8232   4.482   4.017   2.451
 2594SOL     OW 8233   1.703   4.337   2.108
 2594SOL    HW1 8234   1.718   4.333   2.013
 2594SOL    HW2 8235   1.712   4.247   2.137
 2595SOL     OW 8236   0.723   0.285   2.544
 2595SOL    HW1 8237   0.710   0.220   2.613
 2595SOL    HW2 8238   0.639   0.288   2.497
 2596SOL     OW 8239   0.455   4.106   3.348
 2596SOL    HW1 8240   0.535   4.054   3.345
 2596SOL    HW2 8241   0.385   4.042   3.356
 2597SOL     OW 8242   1.608   4.160   2.607
 2597SOL    HW1 8243   1.568   4.197   2.529
 2597SOL    HW2 8244   1.577   4.215   2.679
 2598SOL     OW 8245   1.595   3.853   3.325
 2598SOL    HW1 8246   1.624   3.933   3.280
 2598SOL    HW2 8247   1.572   3.884   3.413
 2599SOL     OW 8248   0.142   4.331   2.516
 2599SOL    HW1 8249   0.088   4.254   2.502
 2599SOL    HW2 8250   0.109   4.395   2.453
 2600SOL     OW 8251   0.149   4.498   3.448
 2600SOL    HW1 8252   0.242   4.481   3.435
 2600SOL    HW2 8253   0.137   0.088   3.415
 2601SOL     OW 8254   0.829   3.732   2.379
 2601SOL    HW1 8255   0.868   3.815   2.353
 2601SOL    HW2 8256   0.734   3.749   2.380
 2602SOL     OW 8257   0.326   3.980   3.675
 2602SOL    HW1 8258   0.363   4.061   3.709
 2602SOL    HW2 8259   0.234   3.983   3.700
 2603SOL     OW 8260   1.277   4.090   2.799
 2603SOL    HW1 8261   1.188   4.056   2.806
 2603SOL    HW2 8262   1.329   4.034   2.857
 2604SOL     OW 8263   0.841   4.274   3.297
 2604SOL    HW1 8264   0.801   4.280   3.384
 2604SOL    HW2 8265   0.768   4.255   3.238
 2605SOL     OW 8266   1.392   4.201   3.540
 2605SOL    HW1 8267   1.400   4.246   3.624
 2605SOL    HW2 8268   1.445   4.122   3.550
 2606SOL     OW 8269   1.003   4.169   3.096
 2606SOL    HW1 8270   0.947   4.197   3.168
 2606SOL    HW2 8271   0.947   4.112   3.042
 2607SOL     OW 8272   1.052   4.419   2.262
 2607SOL    HW1 8273   1.042   4.471   2.341
 2607SOL    HW2 8274   0.970   4.369   2.255
 2608SOL     OW 8275   0.068   0.094   2.714
 2608SOL    HW1 8276   0.151   0.048   2.729
 2608SOL    HW2 8277   0.039   0.062   2.628
 2609SOL     OW 8278   0.900   4.067   2.050
 2609SOL    HW1 8279   0.940   4.131   1.991
 2609SOL    HW2 8280   0.909   3.983   2.004
 2610SOL     OW 8281   1.722   4.308   3.699
 2610SOL    HW1 8282   1.747   4.391   3.658
 2610SOL    HW2 8283   1.736   4.243   3.631
 2611SOL     OW 8284   0.555   3.895   2.762
 2611SOL    HW1 8285   0.557   3.926   2.852
 2611SOL    HW2 8286   0.548   3.974   2.709
 2612SOL     OW 8287   1.495   4.473   2.602
 2612SOL    HW1 8288   1.487   4.413   2.677
 2612SOL    HW2 8289   1.538   0.050   2.639
 2613SOL     OW 8290   0.185   4.000   3.345
 2613SOL    HW1 8291   0.153   4.083   3.379
 2613SOL    HW2 8292   0.178   3.939   3.419
 2614SOL     OW 8293   1.398   3.826   2.306
 2614SOL    HW1 8294   1.393   3.802   2.213
 2614SOL    HW2 8295   1.491   3.835   2.323
 2615SOL     OW 8296   0.346   4.390   2.263
 2615SOL    HW1 8297   0.375   4.309   2.306
 2615SOL    HW2 8298   0.322   4.447   2.336
 2616SOL     OW 8299   1.521   3.950   3.584
 2616SOL    HW1 8300   1.531   3.969   3.677
 2616SOL    HW2 8301   1.455   3.881   3.581
 2617SOL     OW 8302   0.648   3.838   1.961
 2617SOL    HW1 8303   0.701   3.762   1.984
 2617SOL    HW2 8304   0.593   3.808   1.888
 2618SOL     OW 8305   0.761   3.997   3.616
 2618SOL    HW1 8306   0.844   3.950   3.613
 2618SOL    HW2 8307   0.717   3.962   3.693
 2619SOL     OW 8308   1.333   4.319   3.298
 2619SOL    HW1 8309   1.357   4.281   3.383
 2619SOL    HW2 8310   1.392   4.394   3.288
 2620SOL     OW 8311   0.931   4.221   2.751
 2620SOL    HW1 8312   0.907   4.206   2.660
 2620SOL    HW2 8313   0.969   4.138   2.780
 2621SOL     OW 8314   0.564   3.789   2.350
 2621SOL    HW1 8315   0.484   3.786   2.403
 2621SOL    HW2 8316   0.553   3.866   2.294
 2622SOL     OW 8317   0.295   3.766   2.037
 2622SOL    HW1 8318   0.358   3.830   2.001
 2622SOL    HW2 8319   0.350   3.703   2.083
 2623SOL     OW 8320   0.946   3.975   2.313
 2623SOL    HW1 8321   0.923   4.009   2.226
 2623SOL    HW2 8322   1.040   3.990   2.320
 2624SOL     OW 8323   1.069   4.387   3.411
 2624SOL    HW1 8324   0.995   4.352   3.362
 2624SOL    HW2 8325   1.145   4.368   3.357
 2625SOL     OW 8326   1.030   4.255   1.893
 2625SOL    HW1 8327   1.017   4.344   1.861
 2625SOL    HW2 8328   1.095   4.264   1.963
 2626SOL     OW 8329   0.065   4.265   3.224
 2626SOL    HW1 8330   0.159   4.265   3.205
 2626SOL    HW2 8331   0.052   4.337   3.286
 2627SOL     OW 8332   0.557   3.953   3.032
 2627SOL    HW1 8333   0.601   3.882   3.079
 2627SOL    HW2 8334   0.465   3.945   3.057
 2628SOL     OW 8335   0.867   4.183   2.493
 2628SOL    HW1 8336   0.844   4.247   2.425
 2628SOL    HW2 8337   0.889   4.103   2.444
 2629SOL     OW 8338   1.018   3.776   2.604
 2629SOL    HW1 8339   0.958   3.770   2.529
 2629SOL    HW2 8340   0.994   3.702   2.660
 2630SOL     OW 8341   1.479   4.299   2.810
 2630SOL    HW1 8342   1.405   4.240   2.829
 2630SOL    HW2 8343   1.525   4.307   2.894
 2631SOL     OW 8344   1.407   4.299   1.937
 2631SOL    HW1 8345   1.344   4.265   2.000
 2631SOL    HW2 8346   1.490   4.260   1.963
 2632SOL     OW 8347   0.533   3.989   2.167
 2632SOL    HW1 8348   0.581   3.943   2.098
 2632SOL    HW2 8349   0.512   4.074   2.128
 2633SOL     OW 8350   0.917   3.817   3.249
 2633SOL    HW1 8351   0.941   3.795   3.159
 2633SOL    HW2 8352   0.997   3.854   3.286
 2634SOL     OW 8353   0.461   0.010   3.144
 2634SOL    HW1 8354   0.523   4.497   3.216
 2634SOL    HW2 8355   0.429   4.422   3.124
 2635SOL     OW 8356   1.264   4.099   3.146
 2635SOL    HW1 8357   1.296   4.177   3.192
 2635SOL    HW2 8358   1.176   4.123   3.117
 2636SOL     OW 8359   0.548   4.239   2.726
 2636SOL    HW1 8360   0.566   4.262   2.635
 2636SOL    HW2 8361   0.617   4.283   2.776
 2637SOL     OW 8362   1.567   4.322   2.364
 2637SOL    HW1 8363   1.546   4.391   2.428
 2637SOL    HW2 8364   1.618   4.366   2.297
 2638SOL     OW 8365   0.997   3.860   3.619
 2638SOL    HW1 8366   1.056   3.932   3.599
 2638SOL    HW2 8367   1.045   3.781   3.593
 2639SOL     OW 8368   0.492   3.767   3.615
 2639SOL    HW1 8369   0.448   3.712   3.550
 2639SOL    HW2 8370   0.434   3.842   3.625
 2640SOL     OW 8371   1.204   4.248   2.118
 2640SOL    HW1 8372   1.214   4.169   2.172
 2640SOL    HW2 8373   1.157   4.309   2.174
 2641SOL     OW 8374   0.296   3.917   3.105
 2641SOL    HW1 8375   0.251   3.946   3.184
 2641SOL    HW2 8376   0.280   3.823   3.101
 2642SOL     OW 8377   0.741   4.357   2.887
 2642SOL    HW1 8378   0.813   4.313   2.841
 2642SOL    HW2 8379   0.763   4.450   2.881
 2643SOL     OW 8380   1.756   0.118   3.706
 2643SOL    HW1 8381   1.678   0.144   3.657
 2643SOL    HW2 8382   1.729   0.121   3.798
 2644SOL     OW 8383   0.326   3.791   2.477
 2644SOL    HW1 8384   0.293   3.878   2.500
 2644SOL    HW2 8385   0.327   3.742   2.559
 2645SOL     OW 8386   1.615   4.088   2.225
 2645SOL    HW1 8387   1.653   4.026   2.287
 2645SOL    HW2 8388   1.586   4.161   2.280
 2646SOL     OW 8389   1.516   4.000   1.986
 2646SOL    HW1 8390   1.457   3.929   2.013
 2646SOL    HW2 8391   1.555   4.031   2.068
 2647SOL     OW 8392   0.325   0.011   2.759
 2647SOL    HW1 8393   0.402   0.068   2.767
 2647SOL    HW2 8394   0.348   4.433   2.809
 2648SOL     OW 8395   0.326   4.233   2.880
 2648SOL    HW1 8396   0.279   4.152   2.858
 2648SOL    HW2 8397   0.402   4.233   2.822
 2649SOL     OW 8398   1.139   4.088   3.552
 2649SOL    HW1 8399   1.086   4.147   3.605
 2649SOL    HW2 8400   1.223   4.133   3.542
 2650SOL     OW 8401   1.159   3.919   3.332
 2650SOL    HW1 8402   1.149   3.979   3.406
 2650SOL    HW2 8403   1.203   3.971   3.265
 2651SOL     OW 8404   0.011   4.259   2.943
 2651SOL    HW1 8405   0.103   4.275   2.922
 2651SOL    HW2 8406   0.009   4.248   3.038
 2652SOL     OW 8407   0.162   4.231   3.519
 2652SOL    HW1 8408   0.257   4.222   3.529
 2652SOL    HW2 8409   0.149   4.324   3.500
 2653SOL     OW 8410   0.822   4.274   2.224
 2653SOL    HW1 8411   0.832   4.201   2.162
 2653SOL    HW2 8412   0.732   4.304   2.212
 2654SOL     OW 8413   1.630   4.305   3.038
 2654SOL    HW1 8414   1.630   4.249   3.116
 2654SOL    HW2 8415   1.720   4.302   3.006
 2655SOL     OW 8416   0.663   4.202   3.104
 2655SOL    HW1 8417   0.628   4.119   3.073
 2655SOL    HW2 8418   0.680   4.253   3.025
 2656SOL     OW 8419   0.472   4.229   2.050
 2656SOL    HW1 8420   0.483   4.303   2.109
 2656SOL    HW2 8421   0.382   4.238   2.018
 2657SOL     OW 8422   1.733   3.883   2.371
 2657SOL    HW1 8423   1.799   3.866   2.304
 2657SOL    HW2 8424   1.713   3.797   2.406
 2658SOL     OW 8425   1.279   0.130   2.531
 2658SOL    HW1 8426   1.339   0.066   2.570
 2658SOL    HW2 8427   1.323   0.158   2.451
 2659SOL     OW 8428   1.841   3.890   2.827
 2659SOL    HW1 8429   1.870   3.802   2.803
 2659SOL    HW2 8430   1.755   3.899   2.788
 2660SOL     OW 8431   0.265   4.039   2.578
 2660SOL    HW1 8432   0.187   4.088   2.554
 2660SOL    HW2 8433   0.255   4.023   2.672
 2661SOL     OW 8434   0.898   0.089   2.054
 2661SOL    HW1 8435   0.978   0.123   2.014
 2661SOL    HW2 8436   0.925   0.061   2.142
 2662SOL     OW 8437   1.070   0.284   2.620
 2662SOL    HW1 8438   1.009   0.295   2.548
 2662SOL    HW2 8439   1.137   0.224   2.586
 2663SOL     OW 8440   1.028   3.963   2.818
 2663SOL    HW1 8441   1.025   3.912   2.737
 2663SOL    HW2 8442   1.020   3.897   2.887
 2664SOL     OW 8443   1.732   4.111   3.247
 2664SOL    HW1 8444   1.802   4.176   3.245
 2664SOL    HW2 8445   1.761   4.043   3.187
 2665SOL     OW 8446   0.678   3.920   3.358
 2665SOL    HW1 8447   0.761   3.896   3.319
 2665SOL    HW2 8448   0.701   3.950   3.446
 2666SOL     OW 8449   0.064   4.046   1.918
 2666SOL    HW1 8450   4.478   4.077   1.889
 2666SOL    HW2 8451   0.115   4.125   1.933
 2667SOL     OW 8452   0.085   3.892   2.159
 2667SOL    HW1 8453   0.070   3.958   2.092
 2667SOL    HW2 8454   0.162   3.845   2.129
 2668SOL     OW 8455   0.722   4.264   3.544
 2668SOL    HW1 8456   0.717   4.316   3.625
 2668SOL    HW2 8457   0.737   4.175   3.574
 2669SOL     OW 8458   1.218   4.041   2.311
 2669SOL    HW1 8459   1.278   3.966   2.309
 2669SOL    HW2 8460   1.243   4.089   2.390
 2670SOL     OW 8461   1.752   4.094   3.522
 2670SOL    HW1 8462   1.741   4.107   3.428
 2670SOL    HW2 8463   1.680   4.036   3.548
 2671SOL     OW 8464   1.118   0.215   1.959
 2671SOL    HW1 8465   1.119   0.261   1.875
 2671SOL    HW2 8466   1.209   0.190   1.974
 2672SOL     OW 8467   1.813   3.903   3.098
 2672SOL    HW1 8468   1.815   3.808   3.110
 2672SOL    HW2 8469   1.823   3.915   3.003
 2673SOL     OW 8470   0.439   4.162   2.389
 2673SOL    HW1 8471   0.467   4.087   2.337
 2673SOL    HW2 8472   0.386   4.124   2.458
 2674SOL     OW 8473   0.331   4.267   3.149
 2674SOL    HW1 8474   0.383   4.195   3.187
 2674SOL    HW2 8475   0.330   4.248   3.055
 2675SOL     OW 8476   1.427   3.952   2.980
 2675SOL    HW1 8477   1.441   3.867   3.020
 2675SOL    HW2 8478   1.379   4.002   3.046
 2676SOL     OW 8479   1.008   3.740   2.994
 2676SOL    HW1 8480   0.953   3.675   2.950
 2676SOL    HW2 8481   1.095   3.701   2.996
 2677SOL     OW 8482   1.362   3.772   2.036
 2677SOL    HW1 8483   1.398   3.699   1.985
 2677SOL    HW2 8484   1.272   3.746   2.054
 2678SOL     OW 8485   1.291   4.173   2.537
 2678SOL    HW1 8486   1.282   4.268   2.549
 2678SOL    HW2 8487   1.292   4.138   2.626
 2679SOL     OW 8488   1.582   3.914   2.747
 2679SOL    HW1 8489   1.529   3.944   2.821
 2679SOL    HW2 8490   1.583   3.989   2.687
 2680SOL     OW 8491   0.211   4.269   3.833
 2680SOL    HW1 8492   0.157   4.281   3.911
 2680SOL    HW2 8493   0.192   4.345   3.778
 2681SOL     OW 8494   0.210   3.986   4.710
 2681SOL    HW1 8495   0.243   3.961   4.796
 2681SOL    HW2 8496   0.131   3.934   4.699
 2682SOL     OW 8497   4.490   4.106   4.347
 2682SOL    HW1 8498   4.401   4.132   4.371
 2682SOL    HW2 8499   4.482   4.017   4.313
 2683SOL     OW 8500   1.702   4.337   3.970
 2683SOL    HW1 8501   1.718   4.334   3.875
 2683SOL    HW2 8502   1.712   4.247   3.999
 2684SOL     OW 8503   0.723   0.285   4.406
 2684SOL    HW1 8504   0.709   0.220   4.475
 2684SOL    HW2 8505   0.640   0.288   4.359
 2685SOL     OW 8506   0.455   4.106   5.209
 2685SOL    HW1 8507   0.535   4.053   5.207
 2685SOL    HW2 8508   0.385   4.042   5.218
 2686SOL     OW 8509   1.608   4.160   4.469
 2686SOL    HW1 8510   1.569   4.198   4.391
 2686SOL    HW2 8511   1.577   4.215   4.541
 2687SOL     OW 8512   1.596   3.854   5.188
 2687SOL    HW1 8513   1.624   3.933   5.142
 2687SOL    HW2 8514   1.572   3.884   5.275
 2688SOL     OW 8515   0.143   4.331   4.378
 2688SOL    HW1 8516   0.088   4.254   4.364
 2688SOL    HW2 8517   0.109   4.395   4.315
 2689SOL     OW 8518   0.149   4.499   5.310
 2689SOL    HW1 8519   0.242   4.481   5.297
 2689SOL    HW2 8520   0.137   0.088   5.278
 2690SOL     OW 8521   0.829   3.731   4.241
 2690SOL    HW1 8522   0.868   3.814   4.215
 2690SOL    HW2 8523   0.735   3.749   4.243
 2691SOL     OW 8524   0.326   3.980   5.537
 2691SOL    HW1 8525   0.363   4.061   5.571
 2691SOL    HW2 8526   0.234   3.983   5.562
 2692SOL     OW 8527   1.277   4.090   4.661
 2692SOL    HW1 8528   1.188   4.056   4.668
 2692SOL    HW2 8529   1.329   4.034   4.719
 2693SOL     OW 8530   0.841   4.274   5.159
 2693SOL    HW1 8531   0.801   4.280   5.246
 2693SOL    HW2 8532   0.768   4.255   5.100
 2694SOL     OW 8533   1.392   4.202   5.402
 2694SOL    HW1 8534   1.400   4.247   5.486
 2694SOL    HW2 8535   1.445   4.122   5.412
 2695SOL     OW 8536   1.003   4.168   4.958
 2695SOL    HW1 8537   0.947   4.197   5.030
 2695SOL    HW2 8538   0.947   4.113   4.904
 2696SOL     OW 8539   1.052   4.419   4.124
 2696SOL    HW1 8540   1.042   4.471   4.203
 2696SOL    HW2 8541   0.970   4.369   4.117
 2697SOL     OW 8542   0.068   0.094   4.576
 2697SOL    HW1 8543   0.151   0.048   4.591
 2697SOL    HW2 8544   0.039   0.062   4.490
 2698SOL     OW 8545   0.900   4.067   3.912
 2698SOL    HW1 8546   0.940   4.131   3.853
 2698SOL    HW2 8547   0.909   3.983   3.866
 2699SOL     OW 8548   1.722   4.308   5.561
 2699SOL    HW1 8549   1.747   4.391   5.520
 2699SOL    HW2 8550   1.736   4.242   5.493
 2700SOL     OW 8551   0.556   3.895   4.624
 2700SOL    HW1 8552   0.557   3.926   4.714
 2700SOL    HW2 8553   0.548   3.974   4.570
 2701SOL     OW 8554   1.495   4.473   4.464
 2701SOL    HW1 8555   1.487   4.413   4.539
 2701SOL    HW2 8556   1.538   0.050   4.501
 2702SOL     OW 8557   0.186   4.000   5.207
 2702SOL    HW1 8558   0.152   4.083   5.240
 2702SOL    HW2 8559   0.178   3.940   5.282
 2703SOL     OW 8560   1.398   3.826   4.168
 2703SOL    HW1 8561   1.393   3.802   4.075
 2703SOL    HW2 8562   1.491   3.835   4.185
 2704SOL     OW 8563   0.347   4.390   4.125
 2704SOL    HW1 8564   0.375   4.309   4.168
 2704SOL    HW2 8565   0.322   4.447   4.198
 2705SOL     OW 8566   1.521   3.950   5.446
 2705SOL    HW1 8567   1.531   3.969   5.539
 2705SOL    HW2 8568   1.454   3.882   5.443
 2706SOL     OW 8569   0.648   3.838   3.823
 2706SOL    HW1 8570   0.701   3.762   3.846
 2706SOL    HW2 8571   0.593   3.808   3.750
 2707SOL     OW 8572   0.761   3.997   5.478
 2707SOL    HW1 8573   0.844   3.950   5.475
 2707SOL    HW2 8574   0.717   3.962   5.555
 2708SOL     OW 8575   1.333   4.319   5.160
 2708SOL    HW1 8576   1.357   4.281   5.245
 2708SOL    HW2 8577   1.392   4.394   5.150
 2709SOL     OW 8578   0.931   4.221   4.613
 2709SOL    HW1 8579   0.907   4.206   4.521
 2709SOL    HW2 8580   0.969   4.138   4.642
 2710SOL     OW 8581   0.564   3.789   4.212
 2710SOL    HW1 8582   0.484   3.786   4.265
 2710SOL    HW2 8583   0.553   3.866   4.156
 2711SOL     OW 8584   0.295   3.767   3.899
 2711SOL    HW1 8585   0.358   3.830   3.863
 2711SOL    HW2 8586   0.350   3.703   3.945
 2712SOL     OW 8587   0.946   3.975   4.175
 2712SOL    HW1 8588   0.923   4.008   4.088
 2712SOL    HW2 8589   1.040   3.990   4.182
 2713SOL     OW 8590   1.069   4.387   5.273
 2713SOL    HW1 8591   0.995   4.352   5.224
 2713SOL    HW2 8592   1.145   4.368   5.219
 2714SOL     OW 8593   1.030   4.255   3.755
 2714SOL    HW1 8594   1.017   4.344   3.722
 2714SOL    HW2 8595   1.095   4.264   3.825
 2715SOL     OW 8596   0.066   4.263   5.087
 2715SOL    HW1 8597   0.159   4.265   5.068
 2715SOL    HW2 8598   0.052   4.337   5.148
 2716SOL     OW 8599   0.557   3.953   4.894
 2716SOL    HW1 8600   0.601   3.883   4.941
 2716SOL    HW2 8601   0.465   3.945   4.919
 2717SOL     OW 8602   0.867   4.183   4.355
 2717SOL    HW1 8603   0.844   4.247   4.287
 2717SOL    HW2 8604   0.889   4.103   4.306
 2718SOL     OW 8605   1.019   3.776   4.466
 2718SOL    HW1 8606   0.958   3.770   4.391
 2718SOL    HW2 8607   0.995   3.702   4.522
 2719SOL     OW 8608   1.478   4.299   4.672
 2719SOL    HW1 8609   1.405   4.240   4.691
 2719SOL    HW2 8610   1.525   4.307   4.756
 2720SOL     OW 8611   1.407   4.299   3.799
 2720SOL    HW1 8612   1.344   4.265   3.862
 2720SOL    HW2 8613   1.490   4.260   3.825
 2721SOL     OW 8614   0.533   3.989   4.029
 2721SOL    HW1 8615   0.581   3.943   3.960
 2721SOL    HW2 8616   0.512   4.074   3.990
 2722SOL     OW 8617   0.918   3.817   5.111
 2722SOL    HW1 8618   0.941   3.795   5.021
 2722SOL    HW2 8619   0.997   3.854   5.148
 2723SOL     OW 8620   0.461   0.010   5.006
 2723SOL    HW1 8621   0.523   4.497   5.078
 2723SOL    HW2 8622   0.429   4.423   4.986
 2724SOL     OW 8623   1.264   4.099   5.009
 2724SOL    HW1 8624   1.296   4.177   5.054
 2724SOL    HW2 8625   1.176   4.123   4.979
 2725SOL     OW 8626   0.548   4.239   4.588
 2725SOL    HW1 8627   0.566   4.262   4.497
 2725SOL    HW2 8628   0.617   4.283   4.638
 2726SOL     OW 8629   1.567   4.322   4.227
 2726SOL    HW1 8630   1.546   4.391   4.290
 2726SOL    HW2 8631   1.618   4.366   4.159
 2727SOL     OW 8632   0.997   3.860   5.481
 2727SOL    HW1 8633   1.056   3.932   5.461
 2727SOL    HW2 8634   1.045   3.782   5.456
 2728SOL     OW 8635   0.492   3.767   5.477
 2728SOL    HW1 8636   0.448   3.712   5.412
 2728SOL    HW2 8637   0.434   3.842   5.487
 2729SOL     OW 8638   1.204   4.248   3.980
 2729SOL    HW1 8639   1.214   4.169   4.034
 2729SOL    HW2 8640   1.157   4.309   4.036
 2730SOL     OW 8641   0.296   3.917   4.967
 2730SOL    HW1 8642   0.251   3.946   5.046
 2730SOL    HW2 8643   0.280   3.823   4.963
 2731SOL     OW 8644   0.741   4.357   4.749
 2731SOL    HW1 8645   0.813   4.313   4.703
 2731SOL    HW2 8646   0.763   4.450   4.743
 2732SOL     OW 8647   1.756   0.119   5.568
 2732SOL    HW1 8648   1.678   0.145   5.519
 2732SOL    HW2 8649   1.729   0.121   5.660
 2733SOL     OW 8650   0.326   3.791   4.339
 2733SOL    HW1 8651   0.293   3.878   4.362
 2733SOL    HW2 8652   0.327   3.743   4.421
 2734SOL     OW 8653   1.615   4.088   4.087
 2734SOL    HW1 8654   1.653   4.026   4.149
 2734SOL    HW2 8655   1.586   4.161   4.142
 2735SOL     OW 8656   1.516   4.000   3.848
 2735SOL    HW1 8657   1.457   3.929   3.875
 2735SOL    HW2 8658   1.555   4.031   3.930
 2736SOL     OW 8659   0.325   0.011   4.621
 2736SOL    HW1 8660   0.402   0.068   4.629
 2736SOL    HW2 8661   0.348   4.433   4.671
 2737SOL     OW 8662   0.326   4.233   4.742
 2737SOL    HW1 8663   0.279   4.152   4.720
 2737SOL    HW2 8664   0.402   4.233   4.684
 2738SOL     OW 8665   1.139   4.088   5.414
 2738SOL    HW1 8666   1.086   4.146   5.467
 2738SOL    HW2 8667   1.223   4.133   5.404
 2739SOL     OW 8668   1.159   3.919   5.194
 2739SOL    HW1 8669   1.149   3.979   5.268
 2739SOL    HW2 8670   1.203   3.971   5.127
 2740SOL     OW 8671   0.011   4.259   4.804
 2740SOL    HW1 8672   0.103   4.275   4.784
 2740SOL    HW2 8673   0.009   4.247   4.899
 2741SOL     OW 8674   0.162   4.231   5.382
 2741SOL    HW1 8675   0.257   4.222   5.391
 2741SOL    HW2 8676   0.149   4.324   5.362
 2742SOL     OW 8677   0.822   4.274   4.086
 2742SOL    HW1 8678   0.832   4.201   4.024
 2742SOL    HW2 8679   0.732   4.304   4.074
 2743SOL     OW 8680   1.630   4.305   4.900
 2743SOL    HW1 8681   1.631   4.249   4.978
 2743SOL    HW2 8682   1.720   4.302   4.868
 2744SOL     OW 8683   0.663   4.202   4.966
 2744SOL    HW1 8684   0.629   4.118   4.935
 2744SOL    HW2 8685   0.680   4.252   4.887
 2745SOL     OW 8686   0.472   4.229   3.912
 2745SOL    HW1 8687   0.483   4.303   3.972
 2745SOL    HW2 8688   0.382   4.238   3.880
 2746SOL     OW 8689   1.733   3.883   4.233
 2746SOL    HW1 8690   1.799   3.866   4.166
 2746SOL    HW2 8691   1.713   3.796   4.268
 2747SOL     OW 8692   1.280   0.130   4.393
 2747SOL    HW1 8693   1.339   0.066   4.432
 2747SOL    HW2 8694   1.323   0.158   4.312
 2748SOL     OW 8695   1.841   3.890   4.689
 2748SOL    HW1 8696   1.870   3.802   4.665
 2748SOL    HW2 8697   1.755   3.899   4.650
 2749SOL     OW 8698   0.265   4.039   4.440
 2749SOL    HW1 8699   0.186   4.088   4.416
 2749SOL    HW2 8700   0.255   4.023   4.534
 2750SOL     OW 8701   0.898   0.089   3.916
 2750SOL    HW1 8702   0.978   0.123   3.876
 2750SOL    HW2 8703   0.925   0.061   4.004
 2751SOL     OW 8704   1.070   0.284   4.482
 2751SOL    HW1 8705   1.009   0.295   4.410
 2751SOL    HW2 8706   1.137   0.224   4.448
 2752SOL     OW 8707   1.028   3.963   4.680
 2752SOL    HW1 8708   1.026   3.912   4.599
 2752SOL    HW2 8709   1.020   3.898   4.749
 2753SOL     OW 8710   1.732   4.111   5.109
 2753SOL    HW1 8711   1.802   4.177   5.107
 2753SOL    HW2 8712   1.761   4.043   5.049
 2754SOL     OW 8713   0.678   3.919   5.220
 2754SOL    HW1 8714   0.762   3.896   5.181
 2754SOL    HW2 8715   0.700   3.950   5.308
 2755SOL     OW 8716   0.064   4.046   3.780
 2755SOL    HW1 8717   4.478   4.078   3.751
 2755SOL    HW2 8718   0.115   4.125   3.795
 2756SOL     OW 8719   0.085   3.893   4.021
 2756SOL    HW1 8720   0.070   3.959   3.954
 2756SOL    HW2 8721   0.162   3.845   3.991
 2757SOL     OW 8722   0.722   4.264   5.406
 2757SOL    HW1 8723   0.717   4.315   5.487
 2757SOL    HW2 8724   0.738   4.175   5.436
 2758SOL     OW 8725   1.217   4.041   4.173
 2758SOL    HW1 8726   1.278   3.966   4.171
 2758SOL    HW2 8727   1.243   4.089   4.252
 2759SOL     OW 8728   1.752   4.094   5.385
 2759SOL    HW1 8729   1.741   4.107   5.290
 2759SOL    HW2 8730   1.680   4.036   5.409
 2760SOL     OW 8731   1.118   0.215   3.821
 2760SOL    HW1 8732   1.119   0.261   3.737
 2760SOL    HW2 8733   1.209   0.190   3.836
 2761SOL     OW 8734   1.812   3.903   4.960
 2761SOL    HW1 8735   1.816   3.808   4.972
 2761SOL    HW2 8736   1.822   3.915   4.865
 2762SOL     OW 8737   0.440   4.162   4.251
 2762SOL    HW1 8738   0.467   4.087   4.199
 2762SOL    HW2 8739   0.385   4.124   4.321
 2763SOL     OW 8740   0.331   4.267   5.011
 2763SOL    HW1 8741   0.383   4.196   5.049
 2763SOL    HW2 8742   0.330   4.248   4.917
 2764SOL     OW 8743   1.427   3.952   4.842
 2764SOL    HW1 8744   1.442   3.867   4.883
 2764SOL    HW2 8745   1.379   4.003   4.908
 2765SOL     OW 8746   1.008   3.740   4.856
 2765SOL    HW1 8747   0.953   3.675   4.812
 2765SOL    HW2 8748   1.095   3.701   4.857
 2766SOL     OW 8749   1.362   3.772   3.898
 2766SOL    HW1 8750   1.398   3.699   3.847
 2766SOL    HW2 8751   1.272   3.746   3.916
 2767SOL     OW 8752   1.291   4.173   4.399
 2767SOL    HW1 8753   1.282   4.268   4.411
 2767SOL    HW2 8754   1.292   4.138   4.488
 2768SOL     OW 8755   1.582   3.914   4.609
 2768SOL    HW1 8756   1.529   3.944   4.683
 2768SOL    HW2 8757   1.583   3.989   4.549
 2769SOL     OW 8758   0.211   4.269   5.695
 2769SOL    HW1 8759   0.157   4.281   5.773
 2769SOL    HW2 8760   0.192   4.345   5.640
 2770SOL     OW 8761   0.210   3.986   6.572
 2770SOL    HW1 8762   0.243   3.961   6.658
 2770SOL    HW2 8763   0.131   3.933   6.561
 2771SOL     OW 8764   4.491   4.106   6.209
 2771SOL    HW1 8765   4.401   4.131   6.232
 2771SOL    HW2 8766   4.482   4.017   6.174
 2772SOL     OW 8767   1.703   4.337   5.831
 2772SOL    HW1 8768   1.718   4.333   5.737
 2772SOL    HW2 8769   1.712   4.247   5.861
 2773SOL     OW 8770   0.723   0.285   6.268
 2773SOL    HW1 8771   0.709   0.220   6.337
 2773SOL    HW2 8772   0.640   0.288   6.221
 2774SOL     OW 8773   0.455   4.106   7.072
 2774SOL    HW1 8774   0.535   4.054   7.069
 2774SOL    HW2 8775   0.385   4.042   7.080
 2775SOL     OW 8776   1.608   4.160   6.331
 2775SOL    HW1 8777   1.568   4.197   6.253
 2775SOL    HW2 8778   1.577   4.215   6.403
 2776SOL     OW 8779   1.595   3.854   7.049
 2776SOL    HW1 8780   1.624   3.933   7.004
 2776SOL    HW2 8781   1.571   3.884   7.137
 2777SOL     OW 8782   0.142   4.332   6.240
 2777SOL    HW1 8783   0.088   4.254   6.226
 2777SOL    HW2 8784   0.109   4.396   6.177
 2778SOL     OW 8785   0.149   4.498   7.172
 2778SOL    HW1 8786   0.242   4.480   7.159
 2778SOL    HW2 8787   0.137   0.088   7.140
 2779SOL     OW 8788   0.829   3.732   6.103
 2779SOL    HW1 8789   0.868   3.815   6.077
 2779SOL    HW2 8790   0.735   3.749   6.104
 2780SOL     OW 8791   0.326   3.980   7.399
 2780SOL    HW1 8792   0.363   4.061   7.433
 2780SOL    HW2 8793   0.234   3.983   7.424
 2781SOL     OW 8794   1.277   4.090   6.523
 2781SOL    HW1 8795   1.188   4.056   6.530
 2781SOL    HW2 8796   1.329   4.034   6.581
 2782SOL     OW 8797   0.841   4.274   7.021
 2782SOL    HW1 8798   0.801   4.280   7.108
 2782SOL    HW2 8799   0.768   4.255   6.962
 2783SOL     OW 8800   1.393   4.201   7.264
 2783SOL    HW1 8801   1.400   4.246   7.348
 2783SOL    HW2 8802   1.445   4.122   7.274
 2784SOL     OW 8803   1.003   4.169   6.819
 2784SOL    HW1 8804   0.947   4.197   6.892
 2784SOL    HW2 8805   0.948   4.112   6.767
 2785SOL     OW 8806   1.052   4.419   5.986
 2785SOL    HW1 8807   1.042   4.471   6.065
 2785SOL    HW2 8808   0.970   4.369   5.979
 2786SOL     OW 8809   0.068   0.094   6.437
 2786SOL    HW1 8810   0.151   0.048   6.453
 2786SOL    HW2 8811   0.039   0.062   6.352
 2787SOL     OW 8812   0.900   4.067   5.774
 2787SOL    HW1 8813   0.940   4.131   5.715
 2787SOL    HW2 8814   0.909   3.983   5.728
 2788SOL     OW 8815   1.722   4.308   7.423
 2788SOL    HW1 8816   1.747   4.391   7.382
 2788SOL    HW2 8817   1.736   4.242   7.355
 2789SOL     OW 8818   0.556   3.895   6.486
 2789SOL    HW1 8819   0.557   3.926   6.576
 2789SOL    HW2 8820   0.548   3.974   6.433
 2790SOL     OW 8821   1.496   4.473   6.326
 2790SOL    HW1 8822   1.487   4.413   6.400
 2790SOL    HW2 8823   1.538   0.050   6.363
 2791SOL     OW 8824   0.186   3.999   7.069
 2791SOL    HW1 8825   0.153   4.082   7.103
 2791SOL    HW2 8826   0.178   3.939   7.143
 2792SOL     OW 8827   1.398   3.826   6.030
 2792SOL    HW1 8828   1.393   3.802   5.937
 2792SOL    HW2 8829   1.492   3.835   6.047
 2793SOL     OW 8830   0.347   4.390   5.987
 2793SOL    HW1 8831   0.375   4.309   6.030
 2793SOL    HW2 8832   0.322   4.447   6.060
 2794SOL     OW 8833   1.521   3.950   7.308
 2794SOL    HW1 8834   1.531   3.969   7.401
 2794SOL    HW2 8835   1.455   3.880   7.305
 2795SOL     OW 8836   0.648   3.838   5.685
 2795SOL    HW1 8837   0.701   3.762   5.708
 2795SOL    HW2 8838   0.593   3.808   5.612
 2796SOL     OW 8839   0.761   3.997   7.340
 2796SOL    HW1 8840   0.844   3.950   7.336
 2796SOL    HW2 8841   0.717   3.962   7.417
 2797SOL     OW 8842   1.333   4.319   7.022
 2797SOL    HW1 8843   1.357   4.281   7.107
 2797SOL    HW2 8844   1.392   4.393   7.012
 2798SOL     OW 8845   0.931   4.222   6.475
 2798SOL    HW1 8846   0.907   4.206   6.383
 2798SOL    HW2 8847   0.969   4.139   6.504
 2799SOL     OW 8848   0.564   3.789   6.074
 2799SOL    HW1 8849   0.484   3.786   6.127
 2799SOL    HW2 8850   0.553   3.866   6.018
 2800SOL     OW 8851   0.295   3.767   5.761
 2800SOL    HW1 8852   0.358   3.830   5.726
 2800SOL    HW2 8853   0.350   3.703   5.807
 2801SOL     OW 8854   0.946   3.975   6.037
 2801SOL    HW1 8855   0.923   4.009   5.950
 2801SOL    HW2 8856   1.040   3.990   6.044
 2802SOL     OW 8857   1.069   4.387   7.135
 2802SOL    HW1 8858   0.995   4.352   7.086
 2802SOL    HW2 8859   1.145   4.368   7.080
 2803SOL     OW 8860   1.030   4.255   5.617
 2803SOL    HW1 8861   1.017   4.344   5.584
 2803SOL    HW2 8862   1.095   4.264   5.687
 2804SOL     OW 8863   0.065   4.264   6.949
 2804SOL    HW1 8864   0.159   4.265   6.930
 2804SOL    HW2 8865   0.052   4.337   7.010
 2805SOL     OW 8866   0.557   3.953   6.756
 2805SOL    HW1 8867   0.601   3.882   6.803
 2805SOL    HW2 8868   0.465   3.945   6.781
 2806SOL     OW 8869   0.867   4.183   6.217
 2806SOL    HW1 8870   0.844   4.247   6.149
 2806SOL    HW2 8871   0.889   4.104   6.168
 2807SOL     OW 8872   1.019   3.776   6.327
 2807SOL    HW1 8873   0.958   3.769   6.253
 2807SOL    HW2 8874   0.995   3.702   6.384
 2808SOL     OW 8875   1.478   4.299   6.534
 2808SOL    HW1 8876   1.405   4.240   6.553
 2808SOL    HW2 8877   1.525   4.307   6.618
 2809SOL     OW 8878   1.407   4.299   5.661
 2809SOL    HW1 8879   1.344   4.265   5.724
 2809SOL    HW2 8880   1.490   4.260   5.688
 2810SOL     OW 8881   0.533   3.989   5.891
 2810SOL    HW1 8882   0.581   3.943   5.822
 2810SOL    HW2 8883   0.512   4.074   5.852
 2811SOL     OW 8884   0.917   3.817   6.973
 2811SOL    HW1 8885   0.941   3.795   6.883
 2811SOL    HW2 8886   0.997   3.854   7.010
 2812SOL     OW 8887   0.461   0.010   6.868
 2812SOL    HW1 8888   0.523   4.497   6.940
 2812SOL    HW2 8889   0.429   4.422   6.848
 2813SOL     OW 8890   1.264   4.099   6.870
 2813SOL    HW1 8891   1.296   4.177   6.916
 2813SOL    HW2 8892   1.176   4.123   6.841
 2814SOL     OW 8893   0.548   4.239   6.450
 2814SOL    HW1 8894   0.566   4.262   6.359
 2814SOL    HW2 8895   0.617   4.282   6.500
 2815SOL     OW 8896   1.566   4.322   6.088
 2815SOL    HW1 8897   1.546   4.391   6.152
 2815SOL    HW2 8898   1.618   4.367   6.021
 2816SOL     OW 8899   0.997   3.860   7.343
 2816SOL    HW1 8900   1.056   3.932   7.322
 2816SOL    HW2 8901   1.045   3.781   7.317
 2817SOL     OW 8902   0.492   3.767   7.339
 2817SOL    HW1 8903   0.448   3.712   7.274
 2817SOL    HW2 8904   0.435   3.843   7.349
 2818SOL     OW 8905   1.204   4.248   5.842
 2818SOL    HW1 8906   1.214   4.169   5.896
 2818SOL    HW2 8907   1.157   4.310   5.898
 2819SOL     OW 8908   0.296   3.917   6.829
 2819SOL    HW1 8909   0.251   3.946   6.908
 2819SOL    HW2 8910   0.280   3.823   6.825
 2820SOL     OW 8911   0.741   4.357   6.611
 2820SOL    HW1 8912   0.813   4.313   6.565
 2820SOL    HW2 8913   0.763   4.450   6.605
 2821SOL     OW 8914   1.757   0.119   7.430
 2821SOL    HW1 8915   1.678   0.145   7.382
 2821SOL    HW2 8916   1.729   0.121   7.522
 2822SOL     OW 8917   0.326   3.791   6.201
 2822SOL    HW1 8918   0.294   3.878   6.224
 2822SOL    HW2 8919   0.327   3.743   6.283
 2823SOL     OW 8920   1.615   4.089   5.949
 2823SOL    HW1 8921   1.653   4.026   6.010
 2823SOL    HW2 8922   1.586   4.161   6.004
 2824SOL     OW 8923   1.516   4.000   5.710
 2824SOL    HW1 8924   1.457   3.929   5.737
 2824SOL    HW2 8925   1.555   4.031   5.792
 2825SOL     OW 8926   0.325   0.011   6.483
 2825SOL    HW1 8927   0.402   0.068   6.491
 2825SOL    HW2 8928   0.348   4.433   6.533
 2826SOL     OW 8929   0.326   4.233   6.604
 2826SOL    HW1 8930   0.279   4.152   6.582
 2826SOL    HW2 8931   0.402   4.233   6.546
 2827SOL     OW 8932   1.139   4.088   7.275
 2827SOL    HW1 8933   1.086   4.146   7.329
 2827SOL    HW2 8934   1.223   4.133   7.266
 2828SOL     OW 8935   1.159   3.919   7.056
 2828SOL    HW1 8936   1.149   3.979   7.130
 2828SOL    HW2 8937   1.203   3.971   6.989
 2829SOL     OW 8938   0.011   4.259   6.667
 2829SOL    HW1 8939   0.103   4.275   6.646
 2829SOL    HW2 8940   0.009   4.248   6.762
 2830SOL     OW 8941   0.162   4.231   7.243
 2830SOL    HW1 8942   0.257   4.221   7.253
 2830SOL    HW2 8943   0.149   4.324   7.224
 2831SOL     OW 8944   0.822   4.274   5.948
 2831SOL    HW1 8945   0.832   4.201   5.886
 2831SOL    HW2 8946   0.732   4.304   5.936
 2832SOL     OW 8947   1.630   4.305   6.762
 2832SOL    HW1 8948   1.630   4.249   6.840
 2832SOL    HW2 8949   1.720   4.302   6.730
 2833SOL     OW 8950   0.663   4.202   6.829
 2833SOL    HW1 8951   0.629   4.118   6.797
 2833SOL    HW2 8952   0.680   4.252   6.749
 2834SOL     OW 8953   0.472   4.229   5.774
 2834SOL    HW1 8954   0.482   4.303   5.834
 2834SOL    HW2 8955   0.382   4.238   5.742
 2835SOL     OW 8956   1.733   3.884   6.094
 2835SOL    HW1 8957   1.800   3.867   6.027
 2835SOL    HW2 8958   1.713   3.797   6.130
 2836SOL     OW 8959   1.280   0.130   6.255
 2836SOL    HW1 8960   1.339   0.066   6.294
 2836SOL    HW2 8961   1.323   0.157   6.174
 2837SOL     OW 8962   1.841   3.890   6.551
 2837SOL    HW1 8963   1.870   3.802   6.527
 2837SOL    HW2 8964   1.755   3.899   6.512
 2838SOL     OW 8965   0.265   4.039   6.302
 2838SOL    HW1 8966   0.186   4.088   6.278
 2838SOL    HW2 8967   0.255   4.023   6.396
 2839SOL     OW 8968   0.898   0.088   5.778
 2839SOL    HW1 8969   0.978   0.123   5.738
 2839SOL    HW2 8970   0.925   0.061   5.866
 2840SOL     OW 8971   1.071   0.284   6.344
 2840SOL    HW1 8972   1.009   0.295   6.272
 2840SOL    HW2 8973   1.137   0.225   6.310
 2841SOL     OW 8974   1.028   3.963   6.542
 2841SOL    HW1 8975   1.025   3.912   6.461
 2841SOL    HW2 8976   1.020   3.897   6.611
 2842SOL     OW 8977   1.732   4.111   6.970
 2842SOL    HW1 8978   1.802   4.176   6.968
 2842SOL    HW2 8979   1.761   4.043   6.911
 2843SOL     OW 8980   0.678   3.920   7.082
 2843SOL    HW1 8981   0.761   3.896   7.043
 2843SOL    HW2 8982   0.701   3.950   7.170
 2844SOL     OW 8983   0.064   4.046   5.642
 2844SOL    HW1 8984   4.478   4.077   5.613
 2844SOL    HW2 8985   0.115   4.125   5.657
 2845SOL     OW 8986   0.085   3.893   5.883
 2845SOL    HW1 8987   0.070   3.959   5.816
 2845SOL    HW2 8988   0.162   3.845   5.853
 2846SOL     OW 8989   0.723   4.264   7.268
 2846SOL    HW1 8990   0.717   4.315   7.349
 2846SOL    HW2 8991   0.738   4.174   7.298
 2847SOL     OW 8992   1.218   4.041   6.035
 2847SOL    HW1 8993   1.278   3.966   6.033
 2847SOL    HW2 8994   1.243   4.089   6.114
 2848SOL     OW 8995   1.752   4.094   7.246
 2848SOL    HW1 8996   1.741   4.107   7.152
 2848SOL    HW2 8997   1.680   4.036   7.271
 2849SOL     OW 8998   1.118   0.215   5.683
 2849SOL    HW1 8999   1.119   0.260   5.599
 2849SOL    HW2 9000   1.209   0.190   5.698
 2850SOL     OW 9001   1.813   3.903   6.822
 2850SOL    HW1 9002   1.815   3.808   6.834
 2850SOL    HW2 9003   1.823   3.915   6.727
 2851SOL     OW 9004   0.439   4.162   6.113
 2851SOL    HW1 9005   0.467   4.087   6.061
 2851SOL    HW2 9006   0.385   4.124   6.183
 2852SOL     OW 9007   0.331   4.267   6.873
 2852SOL    HW1 9008   0.383   4.195   6.911
 2852SOL    HW2 9009   0.330   4.248   6.779
 2853SOL     OW 9010   1.427   3.952   6.704
 2853SOL    HW1 9011   1.441   3.866   6.744
 2853SOL    HW2 9012   1.379   4.002   6.770
 2854SOL     OW 9013   1.008   3.740   6.718
 2854SOL    HW1 9014   0.953   3.675   6.674
 2854SOL    HW2 9015   1.095   3.701   6.719
 2855SOL     OW 9016   1.362   3.773   5.760
 2855SOL    HW1 9017   1.397   3.700   5.708
 2855SOL    HW2 9018   1.272   3.747   5.779
 2856SOL     OW 9019   1.292   4.173   6.261
 2856SOL    HW1 9020   1.281   4.268   6.273
 2856SOL    HW2 9021   1.292   4.138   6.350
 2857SOL     OW 9022   1.582   3.914   6.471
 2857SOL    HW1 9023   1.529   3.943   6.545
 2857SOL    HW2 9024   1.583   3.989   6.411
 2858SOL     OW 9025   0.211   4.269   7.557
 2858SOL    HW1 9026   0.157   4.281   7.634
 2858SOL    HW2 9027   0.192   4.345   7.502
 2859SOL     OW 9028   0.210   3.986   8.434
 2859SOL    HW1 9029   0.243   3.961   8.520
 2859SOL    HW2 9030   0.131   3.934   8.423
 2860SOL     OW 9031   4.490   4.106   8.071
 2860SOL    HW1 9032   4.401   4.131   8.094
 2860SOL    HW2 9033   4.482   4.017   8.036
 2861SOL     OW 9034   1.703   4.337   7.693
 2861SOL    HW1 9035   1.718   4.333   7.599
 2861SOL    HW2 9036   1.712   4.247   7.723
 2862SOL     OW 9037   0.723   0.285   8.130
 2862SOL    HW1 9038   0.710   0.220   8.199
 2862SOL    HW2 9039   0.640   0.288   8.083
 2863SOL     OW 9040   0.455   4.106   8.934
 2863SOL    HW1 9041   0.536   4.054   8.931
 2863SOL    HW2 9042   0.385   4.041   8.942
 2864SOL     OW 9043   1.608   4.160   8.193
 2864SOL    HW1 9044   1.567   4.197   8.115
 2864SOL    HW2 9045   1.577   4.215   8.265
 2865SOL     OW 9046   1.595   3.854   8.911
 2865SOL    HW1 9047   1.624   3.933   8.866
 2865SOL    HW2 9048   1.572   3.884   8.999
 2866SOL     OW 9049   0.142   4.331   8.102
 2866SOL    HW1 9050   0.088   4.254   8.088
 2866SOL    HW2 9051   0.109   4.395   8.039
 2867SOL     OW 9052   0.149   4.498   9.034
 2867SOL    HW1 9053   0.242   4.480   9.021
 2867SOL    HW2 9054   0.137   0.088   9.001
 2868SOL     OW 9055   0.829   3.732   7.965
 2868SOL    HW1 9056   0.868   3.815   7.939
 2868SOL    HW2 9057   0.734   3.749   7.966
 2869SOL     OW 9058   0.326   3.980   9.260
 2869SOL    HW1 9059   0.363   4.061   9.295
 2869SOL    HW2 9060   0.234   3.983   9.286
 2870SOL     OW 9061   1.277   4.090   8.385
 2870SOL    HW1 9062   1.188   4.056   8.392
 2870SOL    HW2 9063   1.329   4.034   8.443
 2871SOL     OW 9064   0.841   4.274   8.883
 2871SOL    HW1 9065   0.801   4.280   8.970
 2871SOL    HW2 9066   0.768   4.255   8.824
 2872SOL     OW 9067   1.392   4.201   9.126
 2872SOL    HW1 9068   1.400   4.246   9.210
 2872SOL    HW2 9069   1.445   4.122   9.136
 2873SOL     OW 9070   1.003   4.169   8.681
 2873SOL    HW1 9071   0.947   4.197   8.754
 2873SOL    HW2 9072   0.948   4.112   8.628
 2874SOL     OW 9073   1.052   4.419   7.848
 2874SOL    HW1 9074   1.042   4.471   7.927
 2874SOL    HW2 9075   0.970   4.369   7.841
 2875SOL     OW 9076   0.068   0.094   8.299
 2875SOL    HW1 9077   0.151   0.048   8.315
 2875SOL    HW2 9078   0.039   0.062   8.214
 2876SOL     OW 9079   0.900   4.067   7.636
 2876SOL    HW1 9080   0.940   4.131   7.577
 2876SOL    HW2 9081   0.909   3.983   7.590
 2877SOL     OW 9082   1.722   4.308   9.285
 2877SOL    HW1 9083   1.747   4.391   9.244
 2877SOL    HW2 9084   1.736   4.242   9.217
 2878SOL     OW 9085   0.555   3.895   8.348
 2878SOL    HW1 9086   0.557   3.926   8.438
 2878SOL    HW2 9087   0.548   3.974   8.295
 2879SOL     OW 9088   1.496   4.473   8.188
 2879SOL    HW1 9089   1.487   4.413   8.262
 2879SOL    HW2 9090   1.538   0.050   8.225
 2880SOL     OW 9091   0.185   4.000   8.931
 2880SOL    HW1 9092   0.153   4.083   8.966
 2880SOL    HW2 9093   0.178   3.939   9.005
 2881SOL     OW 9094   1.398   3.826   7.892
 2881SOL    HW1 9095   1.393   3.802   7.799
 2881SOL    HW2 9096   1.491   3.834   7.909
 2882SOL     OW 9097   0.347   4.390   7.849
 2882SOL    HW1 9098   0.375   4.309   7.892
 2882SOL    HW2 9099   0.322   4.447   7.922
 2883SOL     OW 9100   1.521   3.950   9.170
 2883SOL    HW1 9101   1.531   3.969   9.263
 2883SOL    HW2 9102   1.455   3.881   9.167
 2884SOL     OW 9103   0.648   3.838   7.547
 2884SOL    HW1 9104   0.701   3.762   7.570
 2884SOL    HW2 9105   0.593   3.808   7.474
 2885SOL     OW 9106   0.761   3.997   9.202
 2885SOL    HW1 9107   0.844   3.950   9.198
 2885SOL    HW2 9108   0.717   3.962   9.279
 2886SOL     OW 9109   1.333   4.319   8.884
 2886SOL    HW1 9110   1.357   4.281   8.969
 2886SOL    HW2 9111   1.392   4.393   8.874
 2887SOL     OW 9112   0.931   4.221   8.337
 2887SOL    HW1 9113   0.907   4.206   8.245
 2887SOL    HW2 9114   0.969   4.138   8.366
 2888SOL     OW 9115   0.564   3.789   7.936
 2888SOL    HW1 9116   0.484   3.786   7.989
 2888SOL    HW2 9117   0.553   3.866   7.880
 2889SOL     OW 9118   0.295   3.766   7.623
 2889SOL    HW1 9119   0.358   3.830   7.587
 2889SOL    HW2 9120   0.350   3.703   7.669
 2890SOL     OW 9121   0.946   3.975   7.899
 2890SOL    HW1 9122   0.923   4.009   7.812
 2890SOL    HW2 9123   1.040   3.990   7.906
 2891SOL     OW 9124   1.069   4.387   8.997
 2891SOL    HW1 9125   0.995   4.352   8.948
 2891SOL    HW2 9126   1.145   4.368   8.942
 2892SOL     OW 9127   1.030   4.255   7.479
 2892SOL    HW1 9128   1.017   4.344   7.447
 2892SOL    HW2 9129   1.095   4.264   7.549
 2893SOL     OW 9130   0.065   4.265   8.810
 2893SOL    HW1 9131   0.159   4.265   8.791
 2893SOL    HW2 9132   0.053   4.337   8.872
 2894SOL     OW 9133   0.557   3.953   8.618
 2894SOL    HW1 9134   0.601   3.882   8.665
 2894SOL    HW2 9135   0.465   3.945   8.643
 2895SOL     OW 9136   0.867   4.183   8.079
 2895SOL    HW1 9137   0.844   4.247   8.011
 2895SOL    HW2 9138   0.889   4.104   8.030
 2896SOL     OW 9139   1.018   3.776   8.190
 2896SOL    HW1 9140   0.958   3.769   8.115
 2896SOL    HW2 9141   0.995   3.702   8.246
 2897SOL     OW 9142   1.478   4.299   8.396
 2897SOL    HW1 9143   1.405   4.240   8.415
 2897SOL    HW2 9144   1.525   4.307   8.480
 2898SOL     OW 9145   1.407   4.299   7.523
 2898SOL    HW1 9146   1.343   4.265   7.586
 2898SOL    HW2 9147   1.490   4.259   7.549
 2899SOL     OW 9148   0.533   3.989   7.753
 2899SOL    HW1 9149   0.581   3.943   7.684
 2899SOL    HW2 9150   0.512   4.074   7.714
 2900SOL     OW 9151   0.917   3.817   8.835
 2900SOL    HW1 9152   0.941   3.795   8.745
 2900SOL    HW2 9153   0.997   3.854   8.872
 2901SOL     OW 9154   0.461   0.010   8.730
 2901SOL    HW1 9155   0.523   4.497   8.802
 2901SOL    HW2 9156   0.429   4.422   8.710
 2902SOL     OW 9157   1.264   4.099   8.732
 2902SOL    HW1 9158   1.296   4.177   8.778
 2902SOL    HW2 9159   1.176   4.123   8.703
 2903SOL     OW 9160   0.548   4.239   8.312
 2903SOL    HW1 9161   0.566   4.262   8.221
 2903SOL    HW2 9162   0.617   4.283   8.362
 2904SOL     OW 9163   1.566   4.323   7.950
 2904SOL    HW1 9164   1.546   4.391   8.014
 2904SOL    HW2 9165   1.618   4.367   7.883
 2905SOL     OW 9166   0.997   3.860   9.205
 2905SOL    HW1 9167   1.056   3.932   9.185
 2905SOL    HW2 9168   1.045   3.781   9.179
 2906SOL     OW 9169   0.492   3.767   9.201
 2906SOL    HW1 9170   0.448   3.711   9.136
 2906SOL    HW2 9171   0.434   3.843   9.211
 2907SOL     OW 9172   1.204   4.248   7.704
 2907SOL    HW1 9173   1.214   4.169   7.758
 2907SOL    HW2 9174   1.157   4.310   7.760
 2908SOL     OW 9175   0.296   3.917   8.691
 2908SOL    HW1 9176   0.251   3.946   8.770
 2908SOL    HW2 9177   0.280   3.823   8.687
 2909SOL     OW 9178   0.741   4.357   8.473
 2909SOL    HW1 9179   0.813   4.313   8.428
 2909SOL    HW2 9180   0.763   4.450   8.468
 2910SOL     OW 9181   1.756   0.119   9.292
 2910SOL    HW1 9182   1.678   0.144   9.244
 2910SOL    HW2 9183   1.729   0.120   9.384
 2911SOL     OW 9184   0.326   3.791   8.063
 2911SOL    HW1 9185   0.293   3.878   8.086
 2911SOL    HW2 9186   0.327   3.742   8.145
 2912SOL     OW 9187   1.616   4.089   7.811
 2912SOL    HW1 9188   1.653   4.026   7.872
 2912SOL    HW2 9189   1.586   4.161   7.866
 2913SOL     OW 9190   1.516   4.000   7.572
 2913SOL    HW1 9191   1.457   3.929   7.599
 2913SOL    HW2 9192   1.555   4.031   7.654
 2914SOL     OW 9193   0.325   0.011   8.345
 2914SOL    HW1 9194   0.402   0.068   8.353
 2914SOL    HW2 9195   0.348   4.433   8.395
 2915SOL     OW 9196   0.326   4.233   8.466
 2915SOL    HW1 9197   0.279   4.152   8.444
 2915SOL    HW2 9198   0.402   4.233   8.408
 2916SOL     OW 9199   1.139   4.088   9.137
 2916SOL    HW1 9200   1.086   4.147   9.191
 2916SOL    HW2 9201   1.223   4.133   9.128
 2917SOL     OW 9202   1.159   3.919   8.918
 2917SOL    HW1 9203   1.149   3.979   8.992
 2917SOL    HW2 9204   1.203   3.971   8.851
 2918SOL     OW 9205   0.011   4.259   8.529
 2918SOL    HW1 9206   0.103   4.275   8.508
 2918SOL    HW2 9207   0.009   4.249   8.624
 2919SOL     OW 9208   0.162   4.231   9.104
 2919SOL    HW1 9209   0.257   4.221   9.115
 2919SOL    HW2 9210   0.149   4.324   9.086
 2920SOL     OW 9211   0.822   4.274   7.810
 2920SOL    HW1 9212   0.832   4.201   7.748
 2920SOL    HW2 9213   0.732   4.303   7.798
 2921SOL     OW 9214   1.630   4.305   8.624
 2921SOL    HW1 9215   1.630   4.249   8.702
 2921SOL    HW2 9216   1.720   4.302   8.592
 2922SOL     OW 9217   0.662   4.202   8.691
 2922SOL    HW1 9218   0.628   4.119   8.659
 2922SOL    HW2 9219   0.680   4.253   8.611
 2923SOL     OW 9220   0.472   4.229   7.636
 2923SOL    HW1 9221   0.483   4.303   7.696
 2923SOL    HW2 9222   0.382   4.238   7.604
 2924SOL     OW 9223   1.733   3.883   7.956
 2924SOL    HW1 9224   1.799   3.866   7.890
 2924SOL    HW2 9225   1.712   3.797   7.992
 2925SOL     OW 9226   1.280   0.130   8.117
 2925SOL    HW1 9227   1.339   0.066   8.155
 2925SOL    HW2 9228   1.323   0.158   8.037
 2926SOL     OW 9229   1.841   3.890   8.413
 2926SOL    HW1 9230   1.870   3.802   8.389
 2926SOL    HW2 9231   1.755   3.899   8.374
 2927SOL     OW 9232   0.265   4.039   8.164
 2927SOL    HW1 9233   0.187   4.088   8.140
 2927SOL    HW2 9234   0.255   4.023   8.258
 2928SOL     OW 9235   0.898   0.089   7.640
 2928SOL    HW1 9236   0.978   0.123   7.600
 2928SOL    HW2 9237   0.925   0.061   7.728
 2929SOL     OW 9238   1.070   0.284   8.206
 2929SOL    HW1 9239   1.009   0.295   8.134
 2929SOL    HW2 9240   1.137   0.224   8.172
 2930SOL     OW 9241   1.028   3.963   8.404
 2930SOL    HW1 9242   1.025   3.912   8.323
 2930SOL    HW2 9243   1.020   3.897   8.473
 2931SOL     OW 9244   1.732   4.111   8.832
 2931SOL    HW1 9245   1.802   4.176   8.830
 2931SOL    HW2 9246   1.761   4.043   8.773
 2932SOL     OW 9247   0.678   3.920   8.944
 2932SOL    HW1 9248   0.761   3.896   8.904
 2932SOL    HW2 9249   0.701   3.950   9.032
 2933SOL     OW 9250   0.064   4.046   7.504
 2933SOL    HW1 9251   4.478   4.077   7.475
 2933SOL    HW2 9252   0.115   4.125   7.519
 2934SOL     OW 9253   0.085   3.892   7.745
 2934SOL    HW1 9254   0.070   3.958   7.678
 2934SOL    HW2 9255   0.162   3.845   7.715
 2935SOL     OW 9256   0.722   4.264   9.130
 2935SOL    HW1 9257   0.718   4.316   9.211
 2935SOL    HW2 9258   0.737   4.175   9.160
 2936SOL     OW 9259   1.218   4.041   7.897
 2936SOL    HW1 9260   1.278   3.966   7.895
 2936SOL    HW2 9261   1.243   4.089   7.976
 2937SOL     OW 9262   1.752   4.094   9.108
 2937SOL    HW1 9263   1.741   4.107   9.014
 2937SOL    HW2 9264   1.680   4.036   9.133
 2938SOL     OW 9265   1.118   0.215   7.545
 2938SOL    HW1 9266   1.119   0.260   7.461
 2938SOL    HW2 9267   1.209   0.190   7.560
 2939SOL     OW 9268   1.813   3.903   8.684
 2939SOL    HW1 9269   1.815   3.808   8.696
 2939SOL    HW2 9270   1.823   3.914   8.589
 2940SOL     OW 9271   0.439   4.162   7.975
 2940SOL    HW1 9272   0.467   4.087   7.923
 2940SOL    HW2 9273   0.386   4.124   8.044
 2941SOL     OW 9274   0.331   4.267   8.735
 2941SOL    HW1 9275   0.383   4.195   8.773
 2941SOL    HW2 9276   0.330   4.248   8.641
 2942SOL     OW 9277   1.427   3.952   8.566
 2942SOL    HW1 9278   1.441   3.866   8.606
 2942SOL    HW2 9279   1.379   4.002   8.632
 2943SOL     OW 9280   1.008   3.740   8.580
 2943SOL    HW1 9281   0.953   3.675   8.536
 2943SOL    HW2 9282   1.095   3.701   8.582
 2944SOL     OW 9283   1.363   3.772   7.622
 2944SOL    HW1 9284   1.399   3.699   7.572
 2944SOL    HW2 9285   1.272   3.746   7.640
 2945SOL     OW 9286   1.292   4.173   8.123
 2945SOL    HW1 9287   1.281   4.268   8.135
 2945SOL    HW2 9288   1.292   4.138   8.212
 2946SOL     OW 9289   1.582   3.914   8.333
 2946SOL    HW1 9290   1.529   3.943   8.407
 2946SOL    HW2 9291   1.583   3.989   8.273
 2947SOL     OW 9292   0.211   4.269   9.419
 2947SOL    HW1 9293   0.157   4.281   9.497
 2947SOL    HW2 9294   0.192   4.345   9.364
 2948SOL     OW 9295   0.209   3.985  10.295
 2948SOL    HW1 9296   0.244   3.961  10.381
 2948SOL    HW2 9297   0.131   3.931  10.284
 2949SOL     OW 9298   4.488   4.106   9.932
 2949SOL    HW1 9299   4.398   4.131   9.954
 2949SOL    HW2 9300   4.481   4.017   9.899
 2950SOL     OW 9301   1.703   4.337   9.555
 2950SOL    HW1 9302   1.718   4.333   9.461
 2950SOL    HW2 9303   1.712   4.247   9.585
 2951SOL     OW 9304   0.723   0.285   9.992
 2951SOL    HW1 9305   0.709   0.223  10.063
 2951SOL    HW2 9306   0.639   0.288   9.946
 2952SOL     OW 9307   0.454   4.112  10.771
 2952SOL    HW1 9308   0.535   4.062  10.774
 2952SOL    HW2 9309   0.387   4.051  10.802
 2953SOL     OW 9310   1.608   4.160  10.055
 2953SOL    HW1 9311   1.568   4.197   9.977
 2953SOL    HW2 9312   1.578   4.216  10.127
 2954SOL     OW 9313   1.595   3.845  10.774
 2954SOL    HW1 9314   1.625   3.924  10.729
 2954SOL    HW2 9315   1.600   3.868  10.867
 2955SOL     OW 9316   0.143   4.328   9.962
 2955SOL    HW1 9317   0.087   4.252   9.948
 2955SOL    HW2 9318   0.110   4.394   9.900
 2956SOL     OW 9319   0.105   0.005  10.914
 2956SOL    HW1 9320   0.193   4.476  10.939
 2956SOL    HW2 9321   0.118   0.093  10.879
 2957SOL     OW 9322   0.828   3.731   9.828
 2957SOL    HW1 9323   0.868   3.814   9.801
 2957SOL    HW2 9324   0.734   3.749   9.829
 2958SOL     OW 9325   0.345   3.985   0.012
 2958SOL    HW1 9326   0.387   4.063   0.049
 2958SOL    HW2 9327   0.252   4.007   0.009
 2959SOL     OW 9328   1.278   4.090  10.248
 2959SOL    HW1 9329   1.189   4.056  10.254
 2959SOL    HW2 9330   1.330   4.034  10.305
 2960SOL     OW 9331   0.834   4.283  10.752
 2960SOL    HW1 9332   0.786   4.297  10.834
 2960SOL    HW2 9333   0.766   4.257  10.690
 2961SOL     OW 9334   1.004   4.168  10.545
 2961SOL    HW1 9335   0.942   4.195  10.614
 2961SOL    HW2 9336   0.951   4.116  10.485
 2962SOL     OW 9337   1.053   4.418   9.710
 2962SOL    HW1 9338   1.042   4.471   9.789
 2962SOL    HW2 9339   0.971   4.369   9.703
 2963SOL     OW 9340   0.067   0.094  10.162
 2963SOL    HW1 9341   0.151   0.049  10.178
 2963SOL    HW2 9342   0.041   0.065  10.075
 2964SOL     OW 9343   0.900   4.066   9.498
 2964SOL    HW1 9344   0.940   4.131   9.439
 2964SOL    HW2 9345   0.910   3.983   9.452
 2965SOL     OW 9346   0.555   3.895  10.209
 2965SOL    HW1 9347   0.556   3.925  10.300
 2965SOL    HW2 9348   0.552   3.976  10.157
 2966SOL     OW 9349   1.496   4.472  10.051
 2966SOL    HW1 9350   1.488   4.413  10.125
 2966SOL    HW2 9351   1.538   0.050  10.087
 2967SOL     OW 9352   0.191   3.998  10.796
 2967SOL    HW1 9353   0.153   4.085  10.802
 2967SOL    HW2 9354   0.180   3.961  10.883
 2968SOL     OW 9355   1.398   3.826   9.754
 2968SOL    HW1 9356   1.393   3.802   9.661
 2968SOL    HW2 9357   1.492   3.835   9.771
 2969SOL     OW 9358   0.346   4.390   9.711
 2969SOL    HW1 9359   0.374   4.309   9.753
 2969SOL    HW2 9360   0.321   4.447   9.784
 2970SOL     OW 9361   0.648   3.838   9.409
 2970SOL    HW1 9362   0.701   3.762   9.432
 2970SOL    HW2 9363   0.593   3.808   9.336
 2971SOL     OW 9364   0.759   4.009  11.043
 2971SOL    HW1 9365   0.833   3.957  11.074
 2971SOL    HW2 9366   0.692   3.996   0.010
 2972SOL     OW 9367   1.343   4.321  10.746
 2972SOL    HW1 9368   1.355   4.310  10.840
 2972SOL    HW2 9369   1.396   4.398  10.724
 2973SOL     OW 9370   0.933   4.223  10.198
 2973SOL    HW1 9371   0.908   4.207  10.107
 2973SOL    HW2 9372   0.970   4.139  10.227
 2974SOL     OW 9373   0.564   3.789   9.798
 2974SOL    HW1 9374   0.484   3.786   9.851
 2974SOL    HW2 9375   0.553   3.865   9.742
 2975SOL     OW 9376   0.295   3.766   9.485
 2975SOL    HW1 9377   0.358   3.830   9.449
 2975SOL    HW2 9378   0.350   3.702   9.531
 2976SOL     OW 9379   0.946   3.975   9.761
 2976SOL    HW1 9380   0.922   4.008   9.674
 2976SOL    HW2 9381   1.040   3.990   9.768
 2977SOL     OW 9382   1.076   4.334  10.876
 2977SOL    HW1 9383   0.993   4.330  10.829
 2977SOL    HW2 9384   1.140   4.358  10.809
 2978SOL     OW 9385   1.030   4.255   9.341
 2978SOL    HW1 9386   1.017   4.344   9.309
 2978SOL    HW2 9387   1.095   4.264   9.411
 2979SOL     OW 9388   0.097   4.252  10.736
 2979SOL    HW1 9389   0.159   4.263  10.665
 2979SOL    HW2 9390   0.056   4.338  10.746
 2980SOL     OW 9391   0.554   3.952  10.479
 2980SOL    HW1 9392   0.599   3.885  10.531
 2980SOL    HW2 9393   0.462   3.944  10.505
 2981SOL     OW 9394   0.867   4.184   9.941
 2981SOL    HW1 9395   0.844   4.247   9.873
 2981SOL    HW2 9396   0.889   4.104   9.893
 2982SOL     OW 9397   1.018   3.777  10.052
 2982SOL    HW1 9398   0.958   3.771   9.978
 2982SOL    HW2 9399   0.994   3.703  10.108
 2983SOL     OW 9400   1.479   4.298  10.259
 2983SOL    HW1 9401   1.406   4.239  10.277
 2983SOL    HW2 9402   1.525   4.306  10.343
 2984SOL     OW 9403   1.407   4.299   9.385
 2984SOL    HW1 9404   1.343   4.265   9.448
 2984SOL    HW2 9405   1.490   4.260   9.412
 2985SOL     OW 9406   0.533   3.988   9.614
 2985SOL    HW1 9407   0.581   3.942   9.546
 2985SOL    HW2 9408   0.512   4.074   9.576
 2986SOL     OW 9409   0.920   3.821  10.692
 2986SOL    HW1 9410   0.944   3.800  10.602
 2986SOL    HW2 9411   0.999   3.858  10.730
 2987SOL     OW 9412   0.446   4.494  10.584
 2987SOL    HW1 9413   0.498   4.484  10.664
 2987SOL    HW2 9414   0.399   4.412  10.575
 2988SOL     OW 9415   1.265   4.099  10.598
 2988SOL    HW1 9416   1.300   4.176  10.642
 2988SOL    HW2 9417   1.178   4.125  10.569
 2989SOL     OW 9418   0.558   4.230  10.165
 2989SOL    HW1 9419   0.578   4.259  10.076
 2989SOL    HW2 9420   0.621   4.277  10.220
 2990SOL     OW 9421   1.566   4.323   9.812
 2990SOL    HW1 9422   1.546   4.391   9.876
 2990SOL    HW2 9423   1.618   4.367   9.745
 2991SOL     OW 9424   0.510   0.013  11.012
 2991SOL    HW1 9425   0.502   0.069  10.934
 2991SOL    HW2 9426   0.498   4.425  10.978
 2992SOL     OW 9427   1.204   4.247   9.566
 2992SOL    HW1 9428   1.214   4.169   9.620
 2992SOL    HW2 9429   1.157   4.309   9.622
 2993SOL     OW 9430   0.293   3.915  10.552
 2993SOL    HW1 9431   0.256   3.944  10.636
 2993SOL    HW2 9432   0.277   3.821  10.549
 2994SOL     OW 9433   0.739   4.357  10.333
 2994SOL    HW1 9434   0.813   4.316  10.288
 2994SOL    HW2 9435   0.759   4.451  10.329
 2995SOL     OW 9436   0.326   3.790   9.925
 2995SOL    HW1 9437   0.294   3.877   9.947
 2995SOL    HW2 9438   0.326   3.742  10.008
 2996SOL     OW 9439   1.615   4.089   9.673
 2996SOL    HW1 9440   1.653   4.026   9.734
 2996SOL    HW2 9441   1.586   4.161   9.728
 2997SOL     OW 9442   1.516   4.000   9.434
 2997SOL    HW1 9443   1.457   3.929   9.461
 2997SOL    HW2 9444   1.555   4.031   9.516
 2998SOL     OW 9445   0.324   0.011  10.206
 2998SOL    HW1 9446   0.401   0.067  10.219
 2998SOL    HW2 9447   0.344   4.431  10.253
 2999SOL     OW 9448   0.327   4.233  10.303
 2999SOL    HW1 9449   0.282   4.151  10.285
 2999SOL    HW2 9450   0.405   4.230  10.248
 3000SOL     OW 9451   1.158   3.922  10.784
 3000SOL    HW1 9452   1.163   3.981  10.860
 3000SOL    HW2 9453   1.202   3.969  10.714
 3001SOL     OW 9454   0.015   4.264  10.383
 3001SOL    HW1 9455   0.107   4.282  10.362
 3001SOL    HW2 9456   0.017   4.222  10.469
 3002SOL     OW 9457   1.341   0.213  10.974
 3002SOL    HW1 9458   1.395   0.253  11.042
 3002SOL    HW2 9459   1.403   0.179  10.910
 3003SOL     OW 9460   0.823   4.274   9.672
 3003SOL    HW1 9461   0.832   4.201   9.610
 3003SOL    HW2 9462   0.733   4.304   9.660
 3004SOL     OW 9463   1.629   4.303  10.489
 3004SOL    HW1 9464   1.631   4.244  10.565
 3004SOL    HW2 9465   1.719   4.305  10.458
 3005SOL     OW 9466   0.682   4.191  10.549
 3005SOL    HW1 9467   0.636   4.112  10.518
 3005SOL    HW2 9468   0.687   4.247  10.471
 3006SOL     OW 9469   0.471   4.229   9.498
 3006SOL    HW1 9470   0.483   4.303   9.558
 3006SOL    HW2 9471   0.382   4.238   9.466
 3007SOL     OW 9472   1.733   3.883   9.818
 3007SOL    HW1 9473   1.799   3.866   9.752
 3007SOL    HW2 9474   1.712   3.797   9.854
 3008SOL     OW 9475   1.280   0.130   9.979
 3008SOL    HW1 9476   1.339   0.065  10.017
 3008SOL    HW2 9477   1.323   0.158   9.898
 3009SOL     OW 9478   1.841   3.891  10.276
 3009SOL    HW1 9479   1.870   3.803  10.252
 3009SOL    HW2 9480   1.754   3.899  10.236
 3010SOL     OW 9481   0.265   4.038  10.025
 3010SOL    HW1 9482   0.189   4.092  10.002
 3010SOL    HW2 9483   0.254   4.019  10.118
 3011SOL     OW 9484   0.898   0.089   9.502
 3011SOL    HW1 9485   0.978   0.123   9.462
 3011SOL    HW2 9486   0.925   0.062   9.590
 3012SOL     OW 9487   1.070   0.284  10.067
 3012SOL    HW1 9488   1.008   0.294   9.994
 3012SOL    HW2 9489   1.137   0.224  10.033
 3013SOL     OW 9490   1.028   3.964  10.266
 3013SOL    HW1 9491   1.025   3.914  10.185
 3013SOL    HW2 9492   1.020   3.899  10.336
 3014SOL     OW 9493   1.723   4.111  10.700
 3014SOL    HW1 9494   1.796   4.173  10.705
 3014SOL    HW2 9495   1.754   4.043  10.639
 3015SOL     OW 9496   0.680   3.920  10.794
 3015SOL    HW1 9497   0.763   3.895  10.754
 3015SOL    HW2 9498   0.704   3.959  10.878
 3016SOL     OW 9499   0.064   4.046   9.366
 3016SOL    HW1 9500   4.478   4.078   9.337
 3016SOL    HW2 9501   0.115   4.125   9.382
 3017SOL     OW 9502   0.085   3.892   9.607
 3017SOL    HW1 9503   0.070   3.958   9.540
 3017SOL    HW2 9504   0.162   3.844   9.577
 3018SOL     OW 9505   0.732   4.285  11.011
 3018SOL    HW1 9506   0.796   4.325  11.070
 3018SOL    HW2 9507   0.745   4.191  11.022
 3019SOL     OW 9508   1.218   4.041   9.760
 3019SOL    HW1 9509   1.278   3.966   9.757
 3019SOL    HW2 9510   1.243   4.089   9.838
 3020SOL     OW 9511   1.746   4.058  10.979
 3020SOL    HW1 9512   1.723   4.087  10.891
 3020SOL    HW2 9513   1.665   4.064  11.028
 3021SOL     OW 9514   1.118   0.215   9.407
 3021SOL    HW1 9515   1.119   0.261   9.323
 3021SOL    HW2 9516   1.209   0.190   9.422
 3022SOL     OW 9517   1.802   3.904  10.546
 3022SOL    HW1 9518   1.812   3.809  10.558
 3022SOL    HW2 9519   1.816   3.918  10.452
 3023SOL     OW 9520   0.440   4.162   9.835
 3023SOL    HW1 9521   0.468   4.087   9.783
 3023SOL    HW2 9522   0.387   4.124   9.906
 3024SOL     OW 9523   0.309   4.253  10.568
 3024SOL    HW1 9524   0.368   4.190  10.610
 3024SOL    HW2 9525   0.324   4.240  10.474
 3025SOL     OW 9526   1.427   3.952  10.428
 3025SOL    HW1 9527   1.448   3.868  10.470
 3025SOL    HW2 9528   1.380   4.001  10.495
 3026SOL     OW 9529   1.008   3.740  10.440
 3026SOL    HW1 9530   0.955   3.676  10.392
 3026SOL    HW2 9531   1.095   3.701  10.442
 3027SOL     OW 9532   1.363   3.772   9.484
 3027SOL    HW1 9533   1.399   3.699   9.434
 3027SOL    HW2 9534   1.272   3.746   9.502
 3028SOL     OW 9535   1.291   4.173   9.985
 3028SOL    HW1 9536   1.281   4.268   9.997
 3028SOL    HW2 9537   1.292   4.138  10.074
 3029SOL     OW 9538   1.581   3.914  10.195
 3029SOL    HW1 9539   1.528   3.943  10.268
 3029SOL    HW2 9540   1.583   3.989  10.135
 3030SOL     OW 9541   2.055   0.602   0.099
 3030SOL    HW1 9542   1.975   0.617   0.149
 3030SOL    HW2 9543   2.040   0.649   0.017
 3031SOL     OW 9544   2.063   0.305   0.993
 3031SOL    HW1 9545   2.096   0.270   1.076
 3031SOL    HW2 9546   1.983   0.255   0.976
 3032SOL     OW 9547   1.862   0.397   0.632
 3032SOL    HW1 9548   1.776   0.413   0.671
 3032SOL    HW2 9549   1.847   0.327   0.568
 3033SOL     OW 9550   2.433   1.300   1.189
 3033SOL    HW1 9551   2.346   1.304   1.149
 3033SOL    HW2 9552   2.449   1.389   1.219
 3034SOL     OW 9553   3.441   1.517   0.709
 3034SOL    HW1 9554   3.396   1.490   0.790
 3034SOL    HW2 9555   3.372   1.519   0.643
 3035SOL     OW 9556   3.006   0.696   0.687
 3035SOL    HW1 9557   3.050   0.782   0.683
 3035SOL    HW2 9558   2.953   0.700   0.766
 3036SOL     OW 9559   3.645   0.599   0.200
 3036SOL    HW1 9560   3.577   0.624   0.138
 3036SOL    HW2 9561   3.607   0.526   0.249
 3037SOL     OW 9562   2.602   1.134   1.049
 3037SOL    HW1 9563   2.538   1.173   1.109
 3037SOL    HW2 9564   2.644   1.209   1.007
 3038SOL     OW 9565   2.737   0.757   1.826
 3038SOL    HW1 9566   2.725   0.826   1.891
 3038SOL    HW2 9567   2.759   0.804   1.745
 3039SOL     OW 9568   2.547   0.990   0.646
 3039SOL    HW1 9569   2.614   0.985   0.714
 3039SOL    HW2 9570   2.480   1.047   0.683
 3040SOL     OW 9571   2.577   1.149   1.823
 3040SOL    HW1 9572   2.625   1.225   1.855
 3040SOL    HW2 9573   2.498   1.185   1.782
 3041SOL     OW 9574   2.195   1.408   1.070
 3041SOL    HW1 9575   2.119   1.368   1.028
 3041SOL    HW2 9576   2.237   1.458   0.999
 3042SOL     OW 9577   3.319   1.504   1.365
 3042SOL    HW1 9578   3.374   1.582   1.375
 3042SOL    HW2 9579   3.250   1.515   1.430
 3043SOL     OW 9580   2.309   0.389   1.473
 3043SOL    HW1 9581   2.389   0.337   1.483
 3043SOL    HW2 9582   2.239   0.327   1.492
 3044SOL     OW 9583   3.460   0.438   0.740
 3044SOL    HW1 9584   3.379   0.448   0.690
 3044SOL    HW2 9585   3.463   0.514   0.798
 3045SOL     OW 9586   2.076   1.718   0.470
 3045SOL    HW1 9587   2.099   1.789   0.530
 3045SOL    HW2 9588   2.154   1.705   0.416
 3046SOL     OW 9589   3.000   1.343   1.696
 3046SOL    HW1 9590   3.041   1.335   1.782
 3046SOL    HW2 9591   2.948   1.263   1.687
 3047SOL     OW 9592   2.089   1.447   0.535
 3047SOL    HW1 9593   2.065   1.540   0.536
 3047SOL    HW2 9594   2.032   1.407   0.601
 3048SOL     OW 9595   2.138   1.091   0.893
 3048SOL    HW1 9596   2.131   1.002   0.927
 3048SOL    HW2 9597   2.078   1.142   0.947
 3049SOL     OW 9598   2.452   1.794   1.410
 3049SOL    HW1 9599   2.376   1.772   1.464
 3049SOL    HW2 9600   2.486   1.875   1.448
 3050SOL     OW 9601   2.438   0.990   0.156
 3050SOL    HW1 9602   2.492   1.031   0.089
 3050SOL    HW2 9603   2.477   1.019   0.239
 3051SOL     OW 9604   3.431   0.121   1.457
 3051SOL    HW1 9605   3.481   0.183   1.404
 3051SOL    HW2 9606   3.425   0.163   1.543
 3052SOL     OW 9607   1.983   0.657   0.561
 3052SOL    HW1 9608   1.950   0.570   0.584
 3052SOL    HW2 9609   1.974   0.708   0.642
 3053SOL     OW 9610   3.707   1.752   0.322
 3053SOL    HW1 9611   3.777   1.728   0.384
 3053SOL    HW2 9612   3.723   1.845   0.305
 3054SOL     OW 9613   1.921   1.589   0.113
 3054SOL    HW1 9614   1.894   1.503   0.143
 3054SOL    HW2 9615   1.890   1.649   0.182
 3055SOL     OW 9616   3.553   0.921   0.650
 3055SOL    HW1 9617   3.637   0.880   0.630
 3055SOL    HW2 9618   3.533   0.973   0.572
 3056SOL     OW 9619   3.514   1.099   0.432
 3056SOL    HW1 9620   3.597   1.103   0.384
 3056SOL    HW2 9621   3.523   1.165   0.501
 3057SOL     OW 9622   1.981   0.749   1.580
 3057SOL    HW1 9623   2.069   0.786   1.583
 3057SOL    HW2 9624   1.923   0.825   1.574
 3058SOL     OW 9625   2.486   1.390   0.733
 3058SOL    HW1 9626   2.441   1.306   0.742
 3058SOL    HW2 9627   2.467   1.418   0.643
 3059SOL     OW 9628   3.144   1.234   1.419
 3059SOL    HW1 9629   3.173   1.165   1.359
 3059SOL    HW2 9630   3.204   1.228   1.493
 3060SOL     OW 9631   2.688   0.015   0.563
 3060SOL    HW1 9632   2.729   0.092   0.524
 3060SOL    HW2 9633   2.594   0.032   0.556
 3061SOL     OW 9634   2.049   0.957   1.288
 3061SOL    HW1 9635   2.136   0.921   1.271
 3061SOL    HW2 9636   1.993   0.918   1.221
 3062SOL     OW 9637   3.360   1.020   0.212
 3062SOL    HW1 9638   3.298   0.957   0.251
 3062SOL    HW2 9639   3.419   1.043   0.284
 3063SOL     OW 9640   3.045   1.816   1.628
 3063SOL    HW1 9641   3.052   1.878   1.555
 3063SOL    HW2 9642   3.063   1.731   1.589
 3064SOL     OW 9643   2.181   0.249   1.777
 3064SOL    HW1 9644   2.246   0.310   1.812
 3064SOL    HW2 9645   2.106   0.258   1.836
 3065SOL     OW 9646   3.329   1.419   0.941
 3065SOL    HW1 9647   3.264   1.435   1.010
 3065SOL    HW2 9648   3.316   1.328   0.916
 3066SOL     OW 9649   3.511   1.764   0.576
 3066SOL    HW1 9650   3.492   1.728   0.489
 3066SOL    HW2 9651   3.499   1.690   0.636
 3067SOL     OW 9652   2.444   0.707   0.265
 3067SOL    HW1 9653   2.453   0.796   0.230
 3067SOL    HW2 9654   2.382   0.715   0.337
 3068SOL     OW 9655   3.155   0.382   0.931
 3068SOL    HW1 9656   3.065   0.351   0.918
 3068SOL    HW2 9657   3.193   0.318   0.991
 3069SOL     OW 9658   3.443   1.674   0.317
 3069SOL    HW1 9659   3.536   1.695   0.308
 3069SOL    HW2 9660   3.414   1.655   0.228
 3070SOL     OW 9661   2.658   0.621   1.450
 3070SOL    HW1 9662   2.630   0.591   1.537
 3070SOL    HW2 9663   2.629   0.552   1.390
 3071SOL     OW 9664   3.251   0.486   1.676
 3071SOL    HW1 9665   3.256   0.530   1.761
 3071SOL    HW2 9666   3.318   0.418   1.681
 3072SOL     OW 9667   2.810   0.884   1.590
 3072SOL    HW1 9668   2.865   0.817   1.549
 3072SOL    HW2 9669   2.760   0.922   1.517
 3073SOL     OW 9670   2.866   0.417   1.227
 3073SOL    HW1 9671   2.774   0.425   1.253
 3073SOL    HW2 9672   2.864   0.360   1.150
 3074SOL     OW 9673   2.914   0.705   0.424
 3074SOL    HW1 9674   2.937   0.696   0.516
 3074SOL    HW2 9675   2.830   0.661   0.416
 3075SOL     OW 9676   1.952   0.824   0.776
 3075SOL    HW1 9677   2.032   0.817   0.829
 3075SOL    HW2 9678   1.905   0.898   0.814
 3076SOL     OW 9679   1.979   1.819   1.565
 3076SOL    HW1 9680   1.972   1.815   1.661
 3076SOL    HW2 9681   1.969   1.912   1.545
 3077SOL     OW 9682   2.729   0.359   0.205
 3077SOL    HW1 9683   2.784   0.413   0.148
 3077SOL    HW2 9684   2.762   0.270   0.195
 3078SOL     OW 9685   3.560   0.569   1.832
 3078SOL    HW1 9686   3.529   0.645   1.783
 3078SOL    HW2 9687   3.592   0.508   1.765
 3079SOL     OW 9688   3.247   1.142   0.540
 3079SOL    HW1 9689   3.325   1.131   0.486
 3079SOL    HW2 9690   3.193   1.204   0.492
 3080SOL     OW 9691   2.395   0.215   0.904
 3080SOL    HW1 9692   2.416   0.233   0.996
 3080SOL    HW2 9693   2.395   0.302   0.863
 3081SOL     OW 9694   2.856   1.442   0.471
 3081SOL    HW1 9695   2.829   1.518   0.421
 3081SOL    HW2 9696   2.834   1.463   0.562
 3082SOL     OW 9697   2.222   1.798   0.880
 3082SOL    HW1 9698   2.247   1.706   0.878
 3082SOL    HW2 9699   2.300   1.844   0.910
 3083SOL     OW 9700   3.663   1.052   0.879
 3083SOL    HW1 9701   3.612   1.034   0.800
 3083SOL    HW2 9702   3.598   1.058   0.949
 3084SOL     OW 9703   3.086   1.541   1.514
 3084SOL    HW1 9704   3.076   1.470   1.577
 3084SOL    HW2 9705   3.019   1.526   1.448
 3085SOL     OW 9706   2.170   0.966   0.285
 3085SOL    HW1 9707   2.247   0.986   0.232
 3085SOL    HW2 9708   2.150   0.875   0.264
 3086SOL     OW 9709   3.345   0.751   0.716
 3086SOL    HW1 9710   3.343   0.713   0.804
 3086SOL    HW2 9711   3.423   0.807   0.716
 3087SOL     OW 9712   2.335   1.270   1.738
 3087SOL    HW1 9713   2.308   1.275   1.646
 3087SOL    HW2 9714   2.252   1.263   1.787
 3088SOL     OW 9715   2.970   1.786   0.224
 3088SOL    HW1 9716   2.908   1.737   0.278
 3088SOL    HW2 9717   3.013   1.719   0.171
 3089SOL     OW 9718   2.050   0.268   1.523
 3089SOL    HW1 9719   1.986   0.340   1.522
 3089SOL    HW2 9720   2.082   0.267   1.613
 3090SOL     OW 9721   3.490   1.371   0.092
 3090SOL    HW1 9722   3.448   1.457   0.082
 3090SOL    HW2 9723   3.425   1.309   0.059
 3091SOL     OW 9724   2.322   1.727   0.332
 3091SOL    HW1 9725   2.366   1.792   0.388
 3091SOL    HW2 9726   2.391   1.695   0.274
 3092SOL     OW 9727   3.295   0.154   0.430
 3092SOL    HW1 9728   3.283   0.111   0.345
 3092SOL    HW2 9729   3.388   0.143   0.450
 3093SOL     OW 9730   2.120   1.794   1.227
 3093SOL    HW1 9731   2.166   1.719   1.266
 3093SOL    HW2 9732   2.103   1.767   1.137
 3094SOL     OW 9733   2.794   1.702   0.898
 3094SOL    HW1 9734   2.874   1.654   0.921
 3094SOL    HW2 9735   2.757   1.652   0.825
 3095SOL     OW 9736   2.255   0.688   0.467
 3095SOL    HW1 9737   2.276   0.596   0.486
 3095SOL    HW2 9738   2.163   0.697   0.493
 3096SOL     OW 9739   3.385   0.233   1.722
 3096SOL    HW1 9740   3.384   0.253   1.816
 3096SOL    HW2 9741   3.303   0.186   1.707
 3097SOL     OW 9742   2.458   0.086   0.129
 3097SOL    HW1 9743   2.552   0.071   0.137
 3097SOL    HW2 9744   2.444   0.106   0.036
 3098SOL     OW 9745   2.631   0.272   1.759
 3098SOL    HW1 9746   2.703   0.210   1.749
 3098SOL    HW2 9747   2.592   0.251   1.844
 3099SOL     OW 9748   2.739   1.525   1.194
 3099SOL    HW1 9749   2.721   1.484   1.110
 3099SOL    HW2 9750   2.807   1.470   1.234
 3100SOL     OW 9751   3.199   0.591   1.427
 3100SOL    HW1 9752   3.227   0.564   1.515
 3100SOL    HW2 9753   3.234   0.680   1.417
 3101SOL     OW 9754   2.682   1.386   0.950
 3101SOL    HW1 9755   2.768   1.375   0.909
 3101SOL    HW2 9756   2.621   1.391   0.876
 3102SOL     OW 9757   2.794   0.532   0.893
 3102SOL    HW1 9758   2.772   0.529   0.800
 3102SOL    HW2 9759   2.821   0.443   0.915
 3103SOL     OW 9760   2.423   0.091   0.535
 3103SOL    HW1 9761   2.339   0.055   0.565
 3103SOL    HW2 9762   2.401   0.142   0.457
 3104SOL     OW 9763   3.281   1.201   0.021
 3104SOL    HW1 9764   3.307   1.132   0.082
 3104SOL    HW2 9765   3.199   1.235   0.057
 3105SOL     OW 9766   2.142   0.047   0.204
 3105SOL    HW1 9767   2.219   0.090   0.166
 3105SOL    HW2 9768   2.177   4.496   0.277
 3106SOL     OW 9769   2.827   0.226   0.451
 3106SOL    HW1 9770   2.774   0.291   0.404
 3106SOL    HW2 9771   2.916   0.261   0.448
 3107SOL     OW 9772   2.942   0.689   1.453
 3107SOL    HW1 9773   2.874   0.621   1.453
 3107SOL    HW2 9774   3.024   0.641   1.443
 3108SOL     OW 9775   3.075   1.576   0.795
 3108SOL    HW1 9776   3.091   1.639   0.725
 3108SOL    HW2 9777   3.147   1.590   0.857
 3109SOL     OW 9778   2.341   1.156   0.726
 3109SOL    HW1 9779   2.277   1.134   0.794
 3109SOL    HW2 9780   2.291   1.150   0.644
 3110SOL     OW 9781   3.123   1.792   0.611
 3110SOL    HW1 9782   3.173   1.855   0.558
 3110SOL    HW2 9783   3.055   1.845   0.654
 3111SOL     OW 9784   2.882   0.515   0.045
 3111SOL    HW1 9785   2.842   0.600   0.027
 3111SOL    HW2 9786   2.954   0.534   0.106
 3112SOL     OW 9787   1.954   0.547   1.397
 3112SOL    HW1 9788   2.045   0.553   1.367
 3112SOL    HW2 9789   1.945   0.618   1.460
 3113SOL     OW 9790   2.417   0.253   1.175
 3113SOL    HW1 9791   2.439   0.171   1.220
 3113SOL    HW2 9792   2.324   0.267   1.195
 3114SOL     OW 9793   2.720   0.512   0.633
 3114SOL    HW1 9794   2.690   0.543   0.548
 3114SOL    HW2 9795   2.669   0.432   0.649
 3115SOL     OW 9796   2.786   0.008   0.821
 3115SOL    HW1 9797   2.756   0.012   0.730
 3115SOL    HW2 9798   2.820   4.419   0.831
 3116SOL     OW 9799   3.301   1.158   0.856
 3116SOL    HW1 9800   3.232   1.092   0.858
 3116SOL    HW2 9801   3.325   1.165   0.763
 3117SOL     OW 9802   3.326   0.613   0.959
 3117SOL    HW1 9803   3.267   0.537   0.960
 3117SOL    HW2 9804   3.380   0.602   1.037
 3118SOL     OW 9805   3.711   0.805   0.374
 3118SOL    HW1 9806   3.762   0.757   0.440
 3118SOL    HW2 9807   3.685   0.739   0.310
 3119SOL     OW 9808   2.357   1.424   0.172
 3119SOL    HW1 9809   2.280   1.398   0.224
 3119SOL    HW2 9810   2.354   1.367   0.095
 3120SOL     OW 9811   3.547   1.264   0.640
 3120SOL    HW1 9812   3.642   1.261   0.657
 3120SOL    HW2 9813   3.522   1.354   0.662
 3121SOL     OW 9814   3.252   0.561   0.078
 3121SOL    HW1 9815   3.188   0.551   0.149
 3121SOL    HW2 9816   3.301   0.478   0.078
 3122SOL     OW 9817   2.372   0.259   0.322
 3122SOL    HW1 9818   2.408   0.198   0.257
 3122SOL    HW2 9819   2.350   0.337   0.271
 3123SOL     OW 9820   3.607   1.243   1.553
 3123SOL    HW1 9821   3.694   1.205   1.544
 3123SOL    HW2 9822   3.622   1.332   1.586
 3124SOL     OW 9823   2.913   1.356   1.333
 3124SOL    HW1 9824   2.837   1.322   1.380
 3124SOL    HW2 9825   2.988   1.312   1.374
 3125SOL     OW 9826   3.472   1.630   1.661
 3125SOL    HW1 9827   3.462   1.664   1.573
 3125SOL    HW2 9828   3.552   1.578   1.659
 3126SOL     OW 9829   3.003   1.219   1.102
 3126SOL    HW1 9830   2.939   1.254   1.165
 3126SOL    HW2 9831   2.973   1.252   1.017
 3127SOL     OW 9832   3.479   1.094   1.077
 3127SOL    HW1 9833   3.472   1.158   1.148
 3127SOL    HW2 9834   3.406   1.113   1.019
 3128SOL     OW 9835   2.751   0.141   1.379
 3128SOL    HW1 9836   2.777   0.091   1.301
 3128SOL    HW2 9837   2.834   0.165   1.420
 3129SOL     OW 9838   2.846   1.116   1.724
 3129SOL    HW1 9839   2.755   1.132   1.749
 3129SOL    HW2 9840   2.842   1.036   1.670
 3130SOL     OW 9841   2.578   1.059   0.379
 3130SOL    HW1 9842   2.565   1.035   0.471
 3130SOL    HW2 9843   2.652   1.004   0.351
 3131SOL     OW 9844   2.287   0.824   1.252
 3131SOL    HW1 9845   2.355   0.833   1.319
 3131SOL    HW2 9846   2.252   0.735   1.265
 3132SOL     OW 9847   3.130   0.373   1.278
 3132SOL    HW1 9848   3.162   0.452   1.322
 3132SOL    HW2 9849   3.040   0.394   1.253
 3133SOL     OW 9850   1.936   1.569   1.354
 3133SOL    HW1 9851   1.910   1.658   1.330
 3133SOL    HW2 9852   2.031   1.571   1.352
 3134SOL     OW 9853   2.187   1.137   0.500
 3134SOL    HW1 9854   2.186   1.210   0.439
 3134SOL    HW2 9855   2.185   1.059   0.445
 3135SOL     OW 9856   2.412   0.513   0.856
 3135SOL    HW1 9857   2.420   0.573   0.782
 3135SOL    HW2 9858   2.478   0.543   0.919
 3136SOL     OW 9859   3.107   1.346   0.403
 3136SOL    HW1 9860   3.162   1.419   0.433
 3136SOL    HW2 9861   3.019   1.369   0.432
 3137SOL     OW 9862   3.157   1.462   1.148
 3137SOL    HW1 9863   3.210   1.468   1.227
 3137SOL    HW2 9864   3.104   1.383   1.160
 3138SOL     OW 9865   3.439   0.626   0.478
 3138SOL    HW1 9866   3.389   0.655   0.554
 3138SOL    HW2 9867   3.465   0.707   0.434
 3139SOL     OW 9868   2.208   1.530   1.309
 3139SOL    HW1 9869   2.196   1.483   1.227
 3139SOL    HW2 9870   2.303   1.542   1.316
 3140SOL     OW 9871   2.288   0.739   1.610
 3140SOL    HW1 9872   2.344   0.787   1.549
 3140SOL    HW2 9873   2.337   0.659   1.630
 3141SOL     OW 9874   3.475   0.783   1.689
 3141SOL    HW1 9875   3.389   0.824   1.682
 3141SOL    HW2 9876   3.527   0.823   1.620
 3142SOL     OW 9877   2.846   0.097   1.707
 3142SOL    HW1 9878   2.902   0.166   1.670
 3142SOL    HW2 9879   2.868   0.019   1.655
 3143SOL     OW 9880   2.369   0.037   1.764
 3143SOL    HW1 9881   2.394   0.028   1.672
 3143SOL    HW2 9882   2.299   0.102   1.764
 3144SOL     OW 9883   2.448   0.876   1.031
 3144SOL    HW1 9884   2.484   0.965   1.036
 3144SOL    HW2 9885   2.391   0.869   1.108
 3145SOL     OW 9886   3.197   0.857   1.015
 3145SOL    HW1 9887   3.110   0.837   0.983
 3145SOL    HW2 9888   3.247   0.776   1.002
 3146SOL     OW 9889   3.052   0.532   0.261
 3146SOL    HW1 9890   3.065   0.457   0.319
 3146SOL    HW2 9891   3.011   0.599   0.316
 3147SOL     OW 9892   2.147   0.226   1.246
 3147SOL    HW1 9893   2.098   0.245   1.326
 3147SOL    HW2 9894   2.193   0.144   1.264
 3148SOL     OW 9895   1.907   1.310   1.272
 3148SOL    HW1 9896   1.940   1.257   1.344
 3148SOL    HW2 9897   1.912   1.400   1.303
 3149SOL     OW 9898   2.578   0.627   1.045
 3149SOL    HW1 9899   2.657   0.617   0.991
 3149SOL    HW2 9900   2.550   0.717   1.027
 3150SOL     OW 9901   3.605   0.961   1.862
 3150SOL    HW1 9902   3.562   0.892   1.810
 3150SOL    HW2 9903   3.543   0.980   1.932
 3151SOL     OW 9904   2.158   0.043   0.647
 3151SOL    HW1 9905   2.141   0.137   0.647
 3151SOL    HW2 9906   2.170   0.021   0.739
 3152SOL     OW 9907   3.496   0.397   0.337
 3152SOL    HW1 9908   3.514   0.325   0.398
 3152SOL    HW2 9909   3.466   0.469   0.393
 3153SOL     OW 9910   2.901   0.770   0.961
 3153SOL    HW1 9911   2.885   0.785   1.054
 3153SOL    HW2 9912   2.869   0.681   0.945
 3154SOL     OW 9913   2.844   1.567   1.725
 3154SOL    HW1 9914   2.827   1.609   1.641
 3154SOL    HW2 9915   2.886   1.484   1.702
 3155SOL     OW 9916   3.710   1.499   1.603
 3155SOL    HW1 9917   3.733   1.527   1.515
 3155SOL    HW2 9918   3.791   1.512   1.654
 3156SOL     OW 9919   2.213   0.916   1.810
 3156SOL    HW1 9920   2.292   0.937   1.860
 3156SOL    HW2 9921   2.242   0.852   1.745
 3157SOL     OW 9922   3.371   0.301   0.100
 3157SOL    HW1 9923   3.332   0.218   0.129
 3157SOL    HW2 9924   3.421   0.331   0.176
 3158SOL     OW 9925   3.146   0.810   0.035
 3158SOL    HW1 9926   3.189   0.724   0.041
 3158SOL    HW2 9927   3.195   0.856  11.067
 3159SOL     OW 9928   2.932   1.342   0.858
 3159SOL    HW1 9929   2.939   1.270   0.796
 3159SOL    HW2 9930   2.988   1.410   0.822
 3160SOL     OW 9931   2.172   0.811   0.945
 3160SOL    HW1 9932   2.265   0.832   0.939
 3160SOL    HW2 9933   2.169   0.721   0.978
 3161SOL     OW 9934   2.195   0.537   1.014
 3161SOL    HW1 9935   2.149   0.454   0.998
 3161SOL    HW2 9936   2.271   0.534   0.957
 3162SOL     OW 9937   3.006   0.366   1.709
 3162SOL    HW1 9938   2.950   0.425   1.759
 3162SOL    HW2 9939   3.086   0.416   1.694
 3163SOL     OW 9940   3.003   0.220   1.476
 3163SOL    HW1 9941   3.007   0.282   1.548
 3163SOL    HW2 9942   3.053   0.261   1.406
 3164SOL     OW 9943   1.873   1.323   0.194
 3164SOL    HW1 9944   1.787   1.337   0.156
 3164SOL    HW2 9945   1.871   1.233   0.227
 3165SOL     OW 9946   1.952   1.785   0.943
 3165SOL    HW1 9947   1.918   1.708   0.896
 3165SOL    HW2 9948   2.043   1.792   0.914
 3166SOL     OW 9949   2.357   1.565   0.904
 3166SOL    HW1 9950   2.424   1.627   0.931
 3166SOL    HW2 9951   2.403   1.504   0.846
 3167SOL     OW 9952   2.828   0.791   1.223
 3167SOL    HW1 9953   2.889   0.773   1.294
 3167SOL    HW2 9954   2.748   0.743   1.246
 3168SOL     OW 9955   1.893   0.551   1.121
 3168SOL    HW1 9956   1.967   0.530   1.064
 3168SOL    HW2 9957   1.929   0.551   1.209
 3169SOL     OW 9958   2.044   0.529   1.729
 3169SOL    HW1 9959   2.127   0.517   1.684
 3169SOL    HW2 9960   2.003   0.603   1.686
 3170SOL     OW 9961   3.246   0.930   1.655
 3170SOL    HW1 9962   3.266   1.023   1.650
 3170SOL    HW2 9963   3.240   0.902   1.563
 3171SOL     OW 9964   2.673   0.579   0.366
 3171SOL    HW1 9965   2.680   0.502   0.309
 3171SOL    HW2 9966   2.597   0.627   0.333
 3172SOL     OW 9967   3.497   0.602   1.176
 3172SOL    HW1 9968   3.486   0.544   1.251
 3172SOL    HW2 9969   3.585   0.585   1.144
 3173SOL     OW 9970   2.103   1.540   1.728
 3173SOL    HW1 9971   2.079   1.600   1.799
 3173SOL    HW2 9972   2.107   1.454   1.770
 3174SOL     OW 9973   2.587   0.453   1.252
 3174SOL    HW1 9974   2.530   0.379   1.230
 3174SOL    HW2 9975   2.577   0.514   1.179
 3175SOL     OW 9976   2.779   1.677   1.476
 3175SOL    HW1 9977   2.756   1.636   1.393
 3175SOL    HW2 9978   2.781   1.771   1.457
 3176SOL     OW 9979   2.306   0.480   0.163
 3176SOL    HW1 9980   2.366   0.550   0.188
 3176SOL    HW2 9981   2.222   0.523   0.152
 3177SOL     OW 9982   2.000   1.145   1.477
 3177SOL    HW1 9983   2.003   1.101   1.562
 3177SOL    HW2 9984   2.018   1.076   1.414
 3178SOL     OW 9985   3.179   1.041   1.215
 3178SOL    HW1 9986   3.196   0.977   1.146
 3178SOL    HW2 9987   3.116   1.102   1.176
 3179SOL     OW 9988   3.170   0.848   0.312
 3179SOL    HW1 9989   3.095   0.814   0.361
 3179SOL    HW2 9990   3.150   0.830   0.220
 3180SOL     OW 9991   3.648   1.730   1.163
 3180SOL    HW1 9992   3.707   1.757   1.093
 3180SOL    HW2 9993   3.616   1.644   1.137
 3181SOL     OW 9994   3.102   1.731   1.100
 3181SOL    HW1 9995   3.185   1.758   1.061
 3181SOL    HW2 9996   3.114   1.639   1.123
 3182SOL     OW 9997   1.957   1.258   1.012
 3182SOL    HW1 9998   1.935   1.276   1.103
 3182SOL    HW2 9999   1.882   1.210   0.978
 3183SOL     OW10000   2.549   1.670   1.742
 3183SOL    HW110001   2.490   1.745   1.734
 3183SOL    HW210002   2.622   1.689   1.685
 3184SOL     OW10003   2.740   0.068   0.135
 3184SOL    HW110004   2.826   0.093   0.102
 3184SOL    HW210005   2.758   4.497   0.196
 3185SOL     OW10006   3.582   0.134   0.479
 3185SOL    HW110007   3.648   0.149   0.411
 3185SOL    HW210008   3.617   0.061   0.530
 3186SOL     OW10009   3.256   1.568   0.496
 3186SOL    HW110010   3.315   1.600   0.428
 3186SOL    HW210011   3.206   1.644   0.524
 3187SOL     OW10012   1.996   1.805   1.843
 3187SOL    HW110013   1.952   1.730   1.882
 3187SOL    HW210014   2.023   1.859   1.917
 3188SOL     OW10015   3.143   0.933   0.675
 3188SOL    HW110016   3.216   0.872   0.683
 3188SOL    HW210017   3.177   1.003   0.619
 3189SOL     OW10018   2.660   1.279   1.418
 3189SOL    HW110019   2.633   1.321   1.500
 3189SOL    HW210020   2.586   1.293   1.359
 3190SOL     OW10021   2.532   1.629   0.172
 3190SOL    HW110022   2.573   1.626   0.085
 3190SOL    HW210023   2.476   1.552   0.175
 3191SOL     OW10024   3.479   1.729   1.394
 3191SOL    HW110025   3.535   1.732   1.316
 3191SOL    HW210026   3.465   1.820   1.417
 3192SOL     OW10027   3.706   0.150   0.965
 3192SOL    HW110028   3.738   0.070   0.924
 3192SOL    HW210029   3.619   0.163   0.927
 3193SOL     OW10030   2.116   0.312   0.710
 3193SOL    HW110031   2.031   0.350   0.687
 3193SOL    HW210032   2.116   0.309   0.805
 3194SOL     OW10033   3.084   1.597   0.060
 3194SOL    HW110034   3.074   1.503   0.079
 3194SOL    HW210035   3.021   1.614  11.090
 3195SOL     OW10036   2.685   1.008   1.379
 3195SOL    HW110037   2.728   0.997   1.295
 3195SOL    HW210038   2.680   1.103   1.392
 3196SOL     OW10039   2.776   0.904   0.276
 3196SOL    HW110040   2.839   0.946   0.218
 3196SOL    HW210041   2.829   0.846   0.331
 3197SOL     OW10042   3.357   1.622   0.055
 3197SOL    HW110043   3.262   1.613   0.055
 3197SOL    HW210044   3.380   1.636  11.063
 3198SOL     OW10045   2.229   1.306   1.493
 3198SOL    HW110046   2.216   1.383   1.437
 3198SOL    HW210047   2.151   1.253   1.479
 3199SOL     OW10048   3.467   1.286   1.280
 3199SOL    HW110049   3.524   1.266   1.354
 3199SOL    HW210050   3.407   1.353   1.313
 3200SOL     OW10051   2.928   1.112   0.714
 3200SOL    HW110052   2.855   1.062   0.750
 3200SOL    HW210053   2.994   1.047   0.692
 3201SOL     OW10054   2.866   0.246   1.015
 3201SOL    HW110055   2.872   0.232   0.920
 3201SOL    HW210056   2.851   0.159   1.051
 3202SOL     OW10057   2.469   1.488   0.479
 3202SOL    HW110058   2.516   1.435   0.414
 3202SOL    HW210059   2.392   1.520   0.432
 3203SOL     OW10060   3.589   0.395   1.373
 3203SOL    HW110061   3.665   0.453   1.373
 3203SOL    HW210062   3.615   0.322   1.315
 3204SOL     OW10063   2.132   1.335   0.298
 3204SOL    HW110064   2.046   1.334   0.254
 3204SOL    HW210065   2.116   1.381   0.381
 3205SOL     OW10066   1.979   1.042   1.733
 3205SOL    HW110067   1.902   1.011   1.780
 3205SOL    HW210068   2.052   0.993   1.770
 3206SOL     OW10069   2.517   0.205   1.510
 3206SOL    HW110070   2.594   0.183   1.458
 3206SOL    HW210071   2.553   0.233   1.595
 3207SOL     OW10072   1.937   0.332   0.062
 3207SOL    HW110073   1.868   0.321  11.096
 3207SOL    HW210074   1.950   0.426   0.067
 3208SOL     OW10075   3.284   0.857   1.394
 3208SOL    HW110076   3.233   0.917   1.339
 3208SOL    HW210077   3.372   0.859   1.357
 3209SOL     OW10078   1.922   0.193   0.304
 3209SOL    HW110079   1.916   0.249   0.227
 3209SOL    HW210080   1.995   0.134   0.285
 3210SOL     OW10081   3.054   1.332   0.126
 3210SOL    HW110082   2.960   1.319   0.115
 3210SOL    HW210083   3.069   1.323   0.220
 3211SOL     OW10084   2.484   0.831   1.437
 3211SOL    HW110085   2.541   0.907   1.423
 3211SOL    HW210086   2.544   0.757   1.444
 3212SOL     OW10087   3.346   1.792   0.985
 3212SOL    HW110088   3.370   1.861   0.924
 3212SOL    HW210089   3.429   1.754   1.013
 3213SOL     OW10090   2.577   0.555   1.701
 3213SOL    HW110091   2.623   0.614   1.760
 3213SOL    HW210092   2.598   0.467   1.734
 3214SOL     OW10093   3.335   1.191   1.626
 3214SOL    HW110094   3.324   1.208   1.720
 3214SOL    HW210095   3.426   1.212   1.608
 3215SOL     OW10096   2.235   1.728   1.569
 3215SOL    HW110097   2.150   1.766   1.545
 3215SOL    HW210098   2.213   1.645   1.611
 3216SOL     OW10099   3.522   0.878   1.255
 3216SOL    HW110100   3.519   0.793   1.211
 3216SOL    HW210101   3.512   0.942   1.185
 3217SOL     OW10102   3.085   0.335   0.445
 3217SOL    HW110103   3.157   0.274   0.429
 3217SOL    HW210104   3.110   0.382   0.525
 3218SOL     OW10105   2.436   0.730   0.680
 3218SOL    HW110106   2.482   0.814   0.667
 3218SOL    HW210107   2.376   0.724   0.606
 3219SOL     OW10108   3.613   0.376   1.644
 3219SOL    HW110109   3.601   0.389   1.550
 3219SOL    HW210110   3.539   0.321   1.670
 3220SOL     OW10111   3.617   0.931   1.509
 3220SOL    HW110112   3.599   1.024   1.522
 3220SOL    HW210113   3.594   0.915   1.417
 3221SOL     OW10114   2.781   1.352   0.088
 3221SOL    HW110115   2.718   1.344   0.159
 3221SOL    HW210116   2.751   1.428   0.037
 3222SOL     OW10117   2.515   1.806   0.952
 3222SOL    HW110118   2.519   1.882   1.010
 3222SOL    HW210119   2.606   1.782   0.938
 3223SOL     OW10120   2.733   0.973   0.854
 3223SOL    HW110121   2.786   0.902   0.891
 3223SOL    HW210122   2.691   1.014   0.930
 3224SOL     OW10123   2.937   0.984   0.075
 3224SOL    HW110124   2.906   0.999  11.086
 3224SOL    HW210125   3.014   0.928   0.064
 3225SOL     OW10126   3.706   1.555   0.841
 3225SOL    HW110127   3.627   1.543   0.789
 3225SOL    HW210128   3.702   1.487   0.908
 3226SOL     OW10129   2.086   1.289   1.850
 3226SOL    HW110130   2.034   1.219   1.810
 3226SOL    HW210131   2.048   1.301   1.937
 3227SOL     OW10132   1.957   1.227   0.667
 3227SOL    HW110133   1.967   1.182   0.751
 3227SOL    HW210134   2.027   1.191   0.613
 3228SOL     OW10135   2.549   1.410   1.631
 3228SOL    HW110136   2.471   1.368   1.667
 3228SOL    HW210137   2.549   1.497   1.669
 3229SOL     OW10138   3.656   0.171   1.237
 3229SOL    HW110139   3.650   0.077   1.254
 3229SOL    HW210140   3.680   0.177   1.144
 3230SOL     OW10141   2.295   0.430   0.530
 3230SOL    HW110142   2.319   0.361   0.469
 3230SOL    HW210143   2.242   0.387   0.596
 3231SOL     OW10144   3.554   1.485   1.091
 3231SOL    HW110145   3.478   1.466   1.038
 3231SOL    HW210146   3.557   1.415   1.157
 3232SOL     OW10147   2.202   0.566   1.293
 3232SOL    HW110148   2.255   0.505   1.346
 3232SOL    HW210149   2.218   0.538   1.202
 3233SOL     OW10150   2.692   1.579   0.676
 3233SOL    HW110151   2.665   1.638   0.606
 3233SOL    HW210152   2.622   1.514   0.682
 3234SOL     OW10153   3.290   0.222   1.113
 3234SOL    HW110154   3.327   0.150   1.164
 3234SOL    HW210155   3.240   0.273   1.176
 3235SOL     OW10156   2.856   4.497   1.160
 3235SOL    HW110157   2.821   4.408   1.157
 3235SOL    HW210158   2.951   4.485   1.166
 3236SOL     OW10159   2.638   1.325   0.327
 3236SOL    HW110160   2.613   1.234   0.344
 3236SOL    HW210161   2.718   1.337   0.378
 3237SOL     OW10162   2.483   1.556   1.283
 3237SOL    HW110163   2.479   1.640   1.328
 3237SOL    HW210164   2.573   1.550   1.251
 3238SOL     OW10165   3.237   0.056   0.175
 3238SOL    HW110166   3.266   4.475   0.133
 3238SOL    HW210167   3.144   0.043   0.190
 3239SOL     OW10168   3.179   0.470   0.668
 3239SOL    HW110169   3.125   0.549   0.669
 3239SOL    HW210170   3.165   0.430   0.754
 3240SOL     OW10171   3.450   0.195   0.874
 3240SOL    HW110172   3.392   0.212   0.949
 3240SOL    HW210173   3.450   0.277   0.825
 3241SOL     OW10174   1.901   1.064   0.302
 3241SOL    HW110175   1.997   1.059   0.298
 3241SOL    HW210176   1.874   0.975   0.325
 3242SOL     OW10177   2.751   1.664   0.349
 3242SOL    HW110178   2.675   1.646   0.294
 3242SOL    HW210179   2.724   1.737   0.405
 3243SOL     OW10180   2.077   0.622   1.994
 3243SOL    HW110181   1.991   0.615   2.034
 3243SOL    HW210182   2.064   0.598   1.903
 3244SOL     OW10183   2.064   0.304   2.855
 3244SOL    HW110184   2.096   0.270   2.938
 3244SOL    HW210185   1.983   0.255   2.838
 3245SOL     OW10186   1.864   0.398   2.494
 3245SOL    HW110187   1.778   0.413   2.534
 3245SOL    HW210188   1.849   0.328   2.430
 3246SOL     OW10189   2.431   1.301   3.052
 3246SOL    HW110190   2.347   1.307   3.008
 3246SOL    HW210191   2.449   1.390   3.082
 3247SOL     OW10192   3.440   1.517   2.571
 3247SOL    HW110193   3.396   1.491   2.652
 3247SOL    HW210194   3.371   1.520   2.505
 3248SOL     OW10195   3.007   0.696   2.549
 3248SOL    HW110196   3.049   0.781   2.544
 3248SOL    HW210197   2.954   0.700   2.629
 3249SOL     OW10198   3.653   0.595   2.082
 3249SOL    HW110199   3.621   0.591   1.992
 3249SOL    HW210200   3.610   0.521   2.126
 3250SOL     OW10201   2.601   1.134   2.912
 3250SOL    HW110202   2.537   1.174   2.972
 3250SOL    HW210203   2.643   1.209   2.869
 3251SOL     OW10204   2.738   0.757   3.688
 3251SOL    HW110205   2.725   0.826   3.753
 3251SOL    HW210206   2.759   0.804   3.607
 3252SOL     OW10207   2.547   0.992   2.505
 3252SOL    HW110208   2.614   0.987   2.573
 3252SOL    HW210209   2.479   1.049   2.542
 3253SOL     OW10210   2.576   1.148   3.685
 3253SOL    HW110211   2.624   1.225   3.716
 3253SOL    HW210212   2.497   1.185   3.644
 3254SOL     OW10213   2.195   1.411   2.930
 3254SOL    HW110214   2.119   1.369   2.888
 3254SOL    HW210215   2.234   1.464   2.861
 3255SOL     OW10216   3.319   1.503   3.227
 3255SOL    HW110217   3.374   1.581   3.237
 3255SOL    HW210218   3.250   1.514   3.292
 3256SOL     OW10219   2.309   0.389   3.336
 3256SOL    HW110220   2.390   0.337   3.345
 3256SOL    HW210221   2.239   0.327   3.354
 3257SOL     OW10222   3.462   0.439   2.601
 3257SOL    HW110223   3.383   0.452   2.549
 3257SOL    HW210224   3.465   0.514   2.660
 3258SOL     OW10225   2.082   1.725   2.346
 3258SOL    HW110226   2.116   1.762   2.427
 3258SOL    HW210227   2.160   1.710   2.292
 3259SOL     OW10228   3.000   1.343   3.558
 3259SOL    HW110229   3.041   1.335   3.644
 3259SOL    HW210230   2.948   1.263   3.549
 3260SOL     OW10231   2.087   1.445   2.399
 3260SOL    HW110232   2.060   1.536   2.408
 3260SOL    HW210233   2.034   1.398   2.463
 3261SOL     OW10234   2.135   1.091   2.751
 3261SOL    HW110235   2.131   1.002   2.787
 3261SOL    HW210236   2.077   1.142   2.807
 3262SOL     OW10237   2.453   1.798   3.273
 3262SOL    HW110238   2.380   1.775   3.330
 3262SOL    HW210239   2.485   1.881   3.308
 3263SOL     OW10240   2.435   0.988   2.006
 3263SOL    HW110241   2.486   1.031   1.936
 3263SOL    HW210242   2.475   1.019   2.087
 3264SOL     OW10243   3.431   0.121   3.319
 3264SOL    HW110244   3.481   0.183   3.266
 3264SOL    HW210245   3.425   0.163   3.405
 3265SOL     OW10246   1.984   0.658   2.424
 3265SOL    HW110247   1.951   0.571   2.447
 3265SOL    HW210248   1.976   0.708   2.505
 3266SOL     OW10249   3.706   1.751   2.188
 3266SOL    HW110250   3.775   1.728   2.250
 3266SOL    HW210251   3.721   1.844   2.168
 3267SOL     OW10252   1.909   1.589   1.978
 3267SOL    HW110253   1.889   1.497   1.995
 3267SOL    HW210254   1.882   1.635   2.057
 3268SOL     OW10255   3.554   0.923   2.511
 3268SOL    HW110256   3.636   0.878   2.488
 3268SOL    HW210257   3.532   0.973   2.433
 3269SOL     OW10258   3.514   1.102   2.292
 3269SOL    HW110259   3.601   1.100   2.251
 3269SOL    HW210260   3.522   1.167   2.362
 3270SOL     OW10261   1.981   0.749   3.442
 3270SOL    HW110262   2.069   0.786   3.445
 3270SOL    HW210263   1.923   0.825   3.435
 3271SOL     OW10264   2.481   1.392   2.596
 3271SOL    HW110265   2.437   1.307   2.603
 3271SOL    HW210266   2.465   1.421   2.506
 3272SOL     OW10267   3.144   1.233   3.281
 3272SOL    HW110268   3.173   1.165   3.221
 3272SOL    HW210269   3.204   1.228   3.355
 3273SOL     OW10270   2.690   0.026   2.425
 3273SOL    HW110271   2.730   0.107   2.395
 3273SOL    HW210272   2.596   0.040   2.416
 3274SOL     OW10273   2.048   0.958   3.150
 3274SOL    HW110274   2.135   0.921   3.133
 3274SOL    HW210275   1.993   0.919   3.082
 3275SOL     OW10276   3.394   1.002   2.062
 3275SOL    HW110277   3.325   0.945   2.094
 3275SOL    HW210278   3.437   1.035   2.141
 3276SOL     OW10279   3.044   1.815   3.490
 3276SOL    HW110280   3.051   1.877   3.417
 3276SOL    HW210281   3.063   1.730   3.450
 3277SOL     OW10282   2.181   0.249   3.639
 3277SOL    HW110283   2.246   0.310   3.674
 3277SOL    HW210284   2.106   0.258   3.698
 3278SOL     OW10285   3.330   1.419   2.804
 3278SOL    HW110286   3.265   1.435   2.872
 3278SOL    HW210287   3.316   1.328   2.778
 3279SOL     OW10288   3.512   1.764   2.436
 3279SOL    HW110289   3.492   1.727   2.350
 3279SOL    HW210290   3.499   1.691   2.497
 3280SOL     OW10291   2.449   0.719   2.132
 3280SOL    HW110292   2.450   0.805   2.089
 3280SOL    HW210293   2.385   0.727   2.201
 3281SOL     OW10294   3.157   0.383   2.789
 3281SOL    HW110295   3.069   0.351   2.769
 3281SOL    HW210296   3.192   0.319   2.851
 3282SOL     OW10297   3.439   1.675   2.174
 3282SOL    HW110298   3.532   1.697   2.165
 3282SOL    HW210299   3.410   1.659   2.085
 3283SOL     OW10300   2.658   0.621   3.313
 3283SOL    HW110301   2.630   0.591   3.399
 3283SOL    HW210302   2.628   0.552   3.253
 3284SOL     OW10303   3.251   0.486   3.538
 3284SOL    HW110304   3.256   0.530   3.623
 3284SOL    HW210305   3.318   0.418   3.543
 3285SOL     OW10306   2.810   0.885   3.451
 3285SOL    HW110307   2.865   0.817   3.411
 3285SOL    HW210308   2.761   0.922   3.379
 3286SOL     OW10309   2.865   0.417   3.091
 3286SOL    HW110310   2.773   0.426   3.117
 3286SOL    HW210311   2.862   0.360   3.014
 3287SOL     OW10312   2.916   0.700   2.284
 3287SOL    HW110313   2.937   0.692   2.377
 3287SOL    HW210314   2.830   0.659   2.275
 3288SOL     OW10315   1.952   0.823   2.641
 3288SOL    HW110316   2.032   0.816   2.692
 3288SOL    HW210317   1.905   0.898   2.677
 3289SOL     OW10318   1.988   1.846   3.437
 3289SOL    HW110319   1.982   1.823   3.530
 3289SOL    HW210320   1.900   1.831   3.403
 3290SOL     OW10321   2.724   0.373   2.064
 3290SOL    HW110322   2.780   0.408   1.995
 3290SOL    HW210323   2.731   0.278   2.054
 3291SOL     OW10324   3.560   0.569   3.694
 3291SOL    HW110325   3.529   0.645   3.645
 3291SOL    HW210326   3.591   0.508   3.627
 3292SOL     OW10327   3.247   1.144   2.401
 3292SOL    HW110328   3.326   1.133   2.348
 3292SOL    HW210329   3.193   1.205   2.351
 3293SOL     OW10330   2.392   0.216   2.767
 3293SOL    HW110331   2.415   0.233   2.859
 3293SOL    HW210332   2.394   0.302   2.726
 3294SOL     OW10333   2.859   1.446   2.328
 3294SOL    HW110334   2.830   1.522   2.277
 3294SOL    HW210335   2.832   1.466   2.417
 3295SOL     OW10336   2.219   1.812   2.692
 3295SOL    HW110337   2.258   1.727   2.710
 3295SOL    HW210338   2.288   1.875   2.710
 3296SOL     OW10339   3.663   1.054   2.740
 3296SOL    HW110340   3.613   1.033   2.661
 3296SOL    HW210341   3.598   1.059   2.809
 3297SOL     OW10342   3.086   1.541   3.376
 3297SOL    HW110343   3.075   1.470   3.439
 3297SOL    HW210344   3.019   1.525   3.309
 3298SOL     OW10345   2.171   0.961   2.119
 3298SOL    HW110346   2.253   0.982   2.075
 3298SOL    HW210347   2.144   0.877   2.082
 3299SOL     OW10348   3.346   0.754   2.578
 3299SOL    HW110349   3.343   0.713   2.665
 3299SOL    HW210350   3.424   0.809   2.580
 3300SOL     OW10351   2.334   1.271   3.603
 3300SOL    HW110352   2.307   1.277   3.511
 3300SOL    HW210353   2.251   1.263   3.651
 3301SOL     OW10354   2.990   1.776   2.091
 3301SOL    HW110355   2.911   1.741   2.132
 3301SOL    HW210356   3.013   1.713   2.023
 3302SOL     OW10357   2.049   0.268   3.385
 3302SOL    HW110358   1.986   0.340   3.383
 3302SOL    HW210359   2.082   0.267   3.475
 3303SOL     OW10360   3.492   1.384   1.956
 3303SOL    HW110361   3.450   1.469   1.941
 3303SOL    HW210362   3.425   1.320   1.933
 3304SOL     OW10363   2.332   1.714   2.218
 3304SOL    HW110364   2.368   1.794   2.256
 3304SOL    HW210365   2.387   1.698   2.141
 3305SOL     OW10366   3.297   0.150   2.292
 3305SOL    HW110367   3.280   0.092   2.217
 3305SOL    HW210368   3.390   0.137   2.312
 3306SOL     OW10369   2.100   1.789   3.081
 3306SOL    HW110370   2.161   1.726   3.119
 3306SOL    HW210371   2.100   1.768   2.987
 3307SOL     OW10372   2.808   1.696   2.754
 3307SOL    HW110373   2.890   1.650   2.774
 3307SOL    HW210374   2.769   1.645   2.683
 3308SOL     OW10375   2.259   0.689   2.335
 3308SOL    HW110376   2.278   0.597   2.351
 3308SOL    HW210377   2.165   0.698   2.352
 3309SOL     OW10378   3.384   0.233   3.584
 3309SOL    HW110379   3.384   0.253   3.678
 3309SOL    HW210380   3.303   0.186   3.569
 3310SOL     OW10381   2.501   0.126   1.986
 3310SOL    HW110382   2.588   0.089   2.000
 3310SOL    HW210383   2.467   0.077   1.911
 3311SOL     OW10384   2.631   0.272   3.621
 3311SOL    HW110385   2.703   0.209   3.611
 3311SOL    HW210386   2.593   0.251   3.706
 3312SOL     OW10387   2.738   1.525   3.057
 3312SOL    HW110388   2.720   1.486   2.972
 3312SOL    HW210389   2.807   1.470   3.095
 3313SOL     OW10390   3.199   0.591   3.289
 3313SOL    HW110391   3.227   0.564   3.377
 3313SOL    HW210392   3.234   0.680   3.279
 3314SOL     OW10393   2.682   1.385   2.813
 3314SOL    HW110394   2.767   1.375   2.770
 3314SOL    HW210395   2.619   1.394   2.741
 3315SOL     OW10396   2.792   0.533   2.755
 3315SOL    HW110397   2.772   0.527   2.662
 3315SOL    HW210398   2.817   0.445   2.780
 3316SOL     OW10399   2.424   0.099   2.392
 3316SOL    HW110400   2.342   0.057   2.418
 3316SOL    HW210401   2.401   0.148   2.313
 3317SOL     OW10402   3.291   1.203   1.899
 3317SOL    HW110403   3.320   1.128   1.951
 3317SOL    HW210404   3.205   1.226   1.935
 3318SOL     OW10405   2.149   0.055   2.072
 3318SOL    HW110406   2.219   0.120   2.067
 3318SOL    HW210407   2.176   4.497   2.144
 3319SOL     OW10408   2.828   0.241   2.322
 3319SOL    HW110409   2.776   0.308   2.278
 3319SOL    HW210410   2.919   0.272   2.312
 3320SOL     OW10411   2.942   0.689   3.316
 3320SOL    HW110412   2.874   0.621   3.315
 3320SOL    HW210413   3.024   0.641   3.305
 3321SOL     OW10414   3.077   1.577   2.659
 3321SOL    HW110415   3.091   1.640   2.589
 3321SOL    HW210416   3.149   1.591   2.720
 3322SOL     OW10417   2.338   1.156   2.583
 3322SOL    HW110418   2.273   1.134   2.650
 3322SOL    HW210419   2.291   1.146   2.500
 3323SOL     OW10420   3.123   1.791   2.477
 3323SOL    HW110421   3.171   1.854   2.423
 3323SOL    HW210422   3.053   1.843   2.517
 3324SOL     OW10423   2.885   0.531   1.887
 3324SOL    HW110424   2.840   0.614   1.871
 3324SOL    HW210425   2.944   0.550   1.960
 3325SOL     OW10426   1.955   0.546   3.259
 3325SOL    HW110427   2.045   0.552   3.229
 3325SOL    HW210428   1.945   0.618   3.322
 3326SOL     OW10429   2.417   0.253   3.037
 3326SOL    HW110430   2.440   0.172   3.083
 3326SOL    HW210431   2.324   0.266   3.057
 3327SOL     OW10432   2.725   0.504   2.493
 3327SOL    HW110433   2.693   0.540   2.411
 3327SOL    HW210434   2.668   0.428   2.510
 3328SOL     OW10435   2.791   0.003   2.683
 3328SOL    HW110436   2.760   0.011   2.592
 3328SOL    HW210437   2.816   4.411   2.692
 3329SOL     OW10438   3.301   1.158   2.718
 3329SOL    HW110439   3.230   1.093   2.722
 3329SOL    HW210440   3.322   1.165   2.625
 3330SOL     OW10441   3.327   0.613   2.820
 3330SOL    HW110442   3.268   0.538   2.821
 3330SOL    HW210443   3.380   0.603   2.899
 3331SOL     OW10444   3.698   0.807   2.249
 3331SOL    HW110445   3.758   0.760   2.307
 3331SOL    HW210446   3.679   0.744   2.179
 3332SOL     OW10447   2.352   1.425   2.010
 3332SOL    HW110448   2.278   1.396   2.063
 3332SOL    HW210449   2.348   1.370   1.931
 3333SOL     OW10450   3.547   1.266   2.500
 3333SOL    HW110451   3.641   1.263   2.517
 3333SOL    HW210452   3.521   1.355   2.523
 3334SOL     OW10453   3.256   0.577   1.931
 3334SOL    HW110454   3.192   0.559   2.000
 3334SOL    HW210455   3.341   0.564   1.972
 3335SOL     OW10456   2.365   0.260   2.175
 3335SOL    HW110457   2.424   0.215   2.114
 3335SOL    HW210458   2.347   0.344   2.134
 3336SOL     OW10459   3.607   1.243   3.415
 3336SOL    HW110460   3.694   1.205   3.406
 3336SOL    HW210461   3.622   1.332   3.448
 3337SOL     OW10462   2.914   1.356   3.196
 3337SOL    HW110463   2.838   1.323   3.243
 3337SOL    HW210464   2.988   1.311   3.236
 3338SOL     OW10465   3.471   1.630   3.523
 3338SOL    HW110466   3.462   1.664   3.435
 3338SOL    HW210467   3.552   1.578   3.521
 3339SOL     OW10468   3.003   1.220   2.964
 3339SOL    HW110469   2.939   1.254   3.026
 3339SOL    HW210470   2.973   1.252   2.879
 3340SOL     OW10471   3.480   1.094   2.939
 3340SOL    HW110472   3.473   1.158   3.009
 3340SOL    HW210473   3.406   1.113   2.881
 3341SOL     OW10474   2.751   0.139   3.241
 3341SOL    HW110475   2.777   0.090   3.164
 3341SOL    HW210476   2.834   0.165   3.282
 3342SOL     OW10477   2.846   1.116   3.586
 3342SOL    HW110478   2.755   1.132   3.611
 3342SOL    HW210479   2.842   1.037   3.532
 3343SOL     OW10480   2.573   1.064   2.234
 3343SOL    HW110481   2.558   1.041   2.326
 3343SOL    HW210482   2.648   1.010   2.208
 3344SOL     OW10483   2.286   0.824   3.115
 3344SOL    HW110484   2.355   0.833   3.182
 3344SOL    HW210485   2.253   0.736   3.127
 3345SOL     OW10486   3.130   0.373   3.140
 3345SOL    HW110487   3.162   0.452   3.184
 3345SOL    HW210488   3.040   0.394   3.115
 3346SOL     OW10489   1.938   1.571   3.219
 3346SOL    HW110490   1.909   1.646   3.167
 3346SOL    HW210491   2.033   1.572   3.211
 3347SOL     OW10492   2.189   1.125   2.351
 3347SOL    HW110493   2.192   1.198   2.289
 3347SOL    HW210494   2.189   1.047   2.295
 3348SOL     OW10495   2.411   0.514   2.720
 3348SOL    HW110496   2.420   0.573   2.645
 3348SOL    HW210497   2.477   0.544   2.782
 3349SOL     OW10498   3.109   1.351   2.254
 3349SOL    HW110499   3.164   1.422   2.287
 3349SOL    HW210500   3.021   1.373   2.286
 3350SOL     OW10501   3.157   1.462   3.009
 3350SOL    HW110502   3.210   1.467   3.089
 3350SOL    HW210503   3.103   1.384   3.021
 3351SOL     OW10504   3.437   0.623   2.342
 3351SOL    HW110505   3.387   0.661   2.414
 3351SOL    HW210506   3.482   0.699   2.303
 3352SOL     OW10507   2.208   1.530   3.171
 3352SOL    HW110508   2.197   1.484   3.087
 3352SOL    HW210509   2.303   1.543   3.178
 3353SOL     OW10510   2.288   0.739   3.472
 3353SOL    HW110511   2.344   0.786   3.411
 3353SOL    HW210512   2.336   0.659   3.492
 3354SOL     OW10513   3.475   0.783   3.551
 3354SOL    HW110514   3.389   0.824   3.544
 3354SOL    HW210515   3.527   0.823   3.482
 3355SOL     OW10516   2.846   0.097   3.569
 3355SOL    HW110517   2.902   0.166   3.532
 3355SOL    HW210518   2.868   0.019   3.518
 3356SOL     OW10519   2.369   0.037   3.626
 3356SOL    HW110520   2.395   0.029   3.534
 3356SOL    HW210521   2.299   0.103   3.625
 3357SOL     OW10522   2.448   0.877   2.894
 3357SOL    HW110523   2.485   0.965   2.898
 3357SOL    HW210524   2.391   0.870   2.971
 3358SOL     OW10525   3.197   0.857   2.877
 3358SOL    HW110526   3.109   0.837   2.845
 3358SOL    HW210527   3.246   0.776   2.863
 3359SOL     OW10528   3.055   0.538   2.114
 3359SOL    HW110529   3.065   0.460   2.168
 3359SOL    HW210530   3.013   0.602   2.171
 3360SOL     OW10531   2.147   0.226   3.108
 3360SOL    HW110532   2.098   0.245   3.188
 3360SOL    HW210533   2.193   0.144   3.127
 3361SOL     OW10534   1.906   1.311   3.134
 3361SOL    HW110535   1.939   1.256   3.206
 3361SOL    HW210536   1.912   1.400   3.167
 3362SOL     OW10537   2.578   0.629   2.908
 3362SOL    HW110538   2.656   0.618   2.853
 3362SOL    HW210539   2.549   0.718   2.890
 3363SOL     OW10540   3.605   0.961   3.724
 3363SOL    HW110541   3.562   0.892   3.673
 3363SOL    HW210542   3.543   0.980   3.794
 3364SOL     OW10543   2.151   0.038   2.504
 3364SOL    HW110544   2.136   0.133   2.506
 3364SOL    HW210545   2.165   0.014   2.595
 3365SOL     OW10546   3.489   0.392   2.208
 3365SOL    HW110547   3.511   0.324   2.272
 3365SOL    HW210548   3.462   0.467   2.261
 3366SOL     OW10549   2.902   0.770   2.823
 3366SOL    HW110550   2.886   0.785   2.916
 3366SOL    HW210551   2.869   0.682   2.806
 3367SOL     OW10552   2.842   1.566   3.586
 3367SOL    HW110553   2.827   1.609   3.502
 3367SOL    HW210554   2.885   1.484   3.564
 3368SOL     OW10555   3.710   1.499   3.466
 3368SOL    HW110556   3.733   1.527   3.377
 3368SOL    HW210557   3.790   1.512   3.516
 3369SOL     OW10558   2.213   0.917   3.671
 3369SOL    HW110559   2.292   0.936   3.722
 3369SOL    HW210560   2.242   0.852   3.607
 3370SOL     OW10561   3.387   0.258   1.988
 3370SOL    HW110562   3.323   0.198   2.027
 3370SOL    HW210563   3.421   0.308   2.062
 3371SOL     OW10564   3.145   0.826   1.886
 3371SOL    HW110565   3.186   0.740   1.891
 3371SOL    HW210566   3.179   0.864   1.805
 3372SOL     OW10567   2.932   1.342   2.721
 3372SOL    HW110568   2.939   1.270   2.658
 3372SOL    HW210569   2.988   1.411   2.684
 3373SOL     OW10570   2.172   0.812   2.808
 3373SOL    HW110571   2.265   0.832   2.800
 3373SOL    HW210572   2.169   0.722   2.840
 3374SOL     OW10573   2.193   0.537   2.876
 3374SOL    HW110574   2.148   0.454   2.860
 3374SOL    HW210575   2.270   0.534   2.820
 3375SOL     OW10576   3.006   0.366   3.571
 3375SOL    HW110577   2.950   0.425   3.621
 3375SOL    HW210578   3.086   0.416   3.556
 3376SOL     OW10579   3.002   0.219   3.338
 3376SOL    HW110580   3.007   0.282   3.410
 3376SOL    HW210581   3.053   0.261   3.268
 3377SOL     OW10582   1.874   1.314   2.053
 3377SOL    HW110583   1.786   1.332   2.020
 3377SOL    HW210584   1.868   1.225   2.089
 3378SOL     OW10585   1.962   1.773   2.794
 3378SOL    HW110586   1.929   1.694   2.751
 3378SOL    HW210587   2.046   1.790   2.752
 3379SOL     OW10588   2.344   1.572   2.759
 3379SOL    HW110589   2.414   1.630   2.786
 3379SOL    HW210590   2.387   1.507   2.703
 3380SOL     OW10591   2.828   0.791   3.085
 3380SOL    HW110592   2.888   0.773   3.157
 3380SOL    HW210593   2.748   0.743   3.107
 3381SOL     OW10594   1.893   0.550   2.983
 3381SOL    HW110595   1.967   0.532   2.926
 3381SOL    HW210596   1.930   0.551   3.071
 3382SOL     OW10597   2.044   0.528   3.591
 3382SOL    HW110598   2.127   0.517   3.546
 3382SOL    HW210599   2.004   0.603   3.548
 3383SOL     OW10600   3.246   0.930   3.517
 3383SOL    HW110601   3.266   1.023   3.512
 3383SOL    HW210602   3.240   0.902   3.425
 3384SOL     OW10603   2.672   0.582   2.230
 3384SOL    HW110604   2.680   0.510   2.168
 3384SOL    HW210605   2.598   0.633   2.199
 3385SOL     OW10606   3.497   0.602   3.038
 3385SOL    HW110607   3.486   0.544   3.113
 3385SOL    HW210608   3.585   0.585   3.006
 3386SOL     OW10609   2.099   1.541   3.596
 3386SOL    HW110610   2.070   1.594   3.670
 3386SOL    HW210611   2.107   1.453   3.631
 3387SOL     OW10612   2.586   0.454   3.115
 3387SOL    HW110613   2.530   0.380   3.092
 3387SOL    HW210614   2.577   0.515   3.042
 3388SOL     OW10615   2.777   1.677   3.338
 3388SOL    HW110616   2.756   1.635   3.255
 3388SOL    HW210617   2.779   1.771   3.318
 3389SOL     OW10618   2.316   0.491   2.040
 3389SOL    HW110619   2.377   0.561   2.063
 3389SOL    HW210620   2.232   0.534   2.031
 3390SOL     OW10621   2.000   1.145   3.339
 3390SOL    HW110622   2.003   1.101   3.424
 3390SOL    HW210623   2.017   1.076   3.275
 3391SOL     OW10624   3.179   1.041   3.077
 3391SOL    HW110625   3.196   0.977   3.008
 3391SOL    HW210626   3.116   1.102   3.038
 3392SOL     OW10627   3.182   0.857   2.162
 3392SOL    HW110628   3.109   0.828   2.217
 3392SOL    HW210629   3.151   0.845   2.072
 3393SOL     OW10630   3.648   1.730   3.026
 3393SOL    HW110631   3.707   1.757   2.955
 3393SOL    HW210632   3.616   1.644   2.999
 3394SOL     OW10633   3.102   1.732   2.964
 3394SOL    HW110634   3.185   1.758   2.924
 3394SOL    HW210635   3.114   1.639   2.985
 3395SOL     OW10636   1.957   1.258   2.873
 3395SOL    HW110637   1.934   1.276   2.965
 3395SOL    HW210638   1.883   1.208   2.839
 3396SOL     OW10639   2.547   1.672   3.605
 3396SOL    HW110640   2.489   1.745   3.586
 3396SOL    HW210641   2.623   1.686   3.549
 3397SOL     OW10642   3.586   0.127   2.339
 3397SOL    HW110643   3.651   0.145   2.270
 3397SOL    HW210644   3.625   0.057   2.391
 3398SOL     OW10645   3.257   1.568   2.357
 3398SOL    HW110646   3.313   1.602   2.288
 3398SOL    HW210647   3.205   1.643   2.385
 3399SOL     OW10648   1.986   1.807   3.703
 3399SOL    HW110649   1.943   1.734   3.748
 3399SOL    HW210650   2.039   1.849   3.771
 3400SOL     OW10651   3.142   0.933   2.534
 3400SOL    HW110652   3.216   0.872   2.544
 3400SOL    HW210653   3.177   1.003   2.479
 3401SOL     OW10654   2.661   1.279   3.280
 3401SOL    HW110655   2.633   1.321   3.362
 3401SOL    HW210656   2.588   1.295   3.220
 3402SOL     OW10657   2.527   1.633   2.019
 3402SOL    HW110658   2.543   1.645   1.926
 3402SOL    HW210659   2.471   1.554   2.023
 3403SOL     OW10660   3.479   1.728   3.256
 3403SOL    HW110661   3.535   1.732   3.178
 3403SOL    HW210662   3.465   1.820   3.279
 3404SOL     OW10663   3.705   0.149   2.827
 3404SOL    HW110664   3.738   0.070   2.783
 3404SOL    HW210665   3.619   0.163   2.789
 3405SOL     OW10666   2.116   0.307   2.570
 3405SOL    HW110667   2.033   0.348   2.548
 3405SOL    HW210668   2.118   0.305   2.666
 3406SOL     OW10669   3.071   1.598   1.897
 3406SOL    HW110670   3.059   1.507   1.923
 3406SOL    HW210671   3.004   1.612   1.830
 3407SOL     OW10672   2.685   1.008   3.241
 3407SOL    HW110673   2.727   0.997   3.156
 3407SOL    HW210674   2.680   1.103   3.254
 3408SOL     OW10675   2.779   0.912   2.153
 3408SOL    HW110676   2.839   0.945   2.086
 3408SOL    HW210677   2.829   0.844   2.199
 3409SOL     OW10678   3.349   1.633   1.910
 3409SOL    HW110679   3.256   1.620   1.894
 3409SOL    HW210680   3.388   1.638   1.823
 3410SOL     OW10681   2.227   1.309   3.358
 3410SOL    HW110682   2.217   1.382   3.298
 3410SOL    HW210683   2.151   1.254   3.341
 3411SOL     OW10684   3.468   1.286   3.142
 3411SOL    HW110685   3.524   1.266   3.217
 3411SOL    HW210686   3.407   1.353   3.175
 3412SOL     OW10687   2.929   1.113   2.577
 3412SOL    HW110688   2.855   1.063   2.611
 3412SOL    HW210689   2.993   1.046   2.553
 3413SOL     OW10690   2.857   0.247   2.879
 3413SOL    HW110691   2.870   0.235   2.785
 3413SOL    HW210692   2.844   0.158   2.912
 3414SOL     OW10693   2.469   1.490   2.344
 3414SOL    HW110694   2.513   1.440   2.276
 3414SOL    HW210695   2.404   1.543   2.298
 3415SOL     OW10696   3.590   0.394   3.235
 3415SOL    HW110697   3.666   0.453   3.235
 3415SOL    HW210698   3.615   0.322   3.177
 3416SOL     OW10699   2.129   1.341   2.158
 3416SOL    HW110700   2.038   1.337   2.130
 3416SOL    HW210701   2.126   1.385   2.243
 3417SOL     OW10702   1.980   1.044   3.596
 3417SOL    HW110703   1.902   1.012   3.642
 3417SOL    HW210704   2.052   0.994   3.632
 3418SOL     OW10705   2.517   0.205   3.372
 3418SOL    HW110706   2.594   0.182   3.320
 3418SOL    HW210707   2.553   0.233   3.457
 3419SOL     OW10708   1.947   0.320   1.904
 3419SOL    HW110709   1.878   0.264   1.868
 3419SOL    HW210710   1.948   0.397   1.847
 3420SOL     OW10711   3.283   0.857   3.256
 3420SOL    HW110712   3.233   0.917   3.201
 3420SOL    HW210713   3.372   0.859   3.219
 3421SOL     OW10714   1.919   0.194   2.159
 3421SOL    HW110715   1.924   0.261   2.091
 3421SOL    HW210716   1.992   0.135   2.141
 3422SOL     OW10717   3.040   1.331   1.981
 3422SOL    HW110718   2.949   1.301   1.981
 3422SOL    HW210719   3.065   1.333   2.073
 3423SOL     OW10720   2.484   0.831   3.299
 3423SOL    HW110721   2.541   0.907   3.285
 3423SOL    HW210722   2.544   0.757   3.306
 3424SOL     OW10723   3.345   1.791   2.847
 3424SOL    HW110724   3.368   1.861   2.785
 3424SOL    HW210725   3.429   1.755   2.875
 3425SOL     OW10726   2.577   0.555   3.563
 3425SOL    HW110727   2.623   0.615   3.622
 3425SOL    HW210728   2.598   0.467   3.596
 3426SOL     OW10729   3.335   1.191   3.488
 3426SOL    HW110730   3.324   1.208   3.582
 3426SOL    HW210731   3.427   1.212   3.471
 3427SOL     OW10732   2.240   1.727   3.435
 3427SOL    HW110733   2.156   1.768   3.413
 3427SOL    HW210734   2.216   1.644   3.476
 3428SOL     OW10735   3.522   0.878   3.117
 3428SOL    HW110736   3.519   0.793   3.073
 3428SOL    HW210737   3.512   0.942   3.047
 3429SOL     OW10738   3.090   0.338   2.302
 3429SOL    HW110739   3.162   0.276   2.289
 3429SOL    HW210740   3.116   0.387   2.381
 3430SOL     OW10741   2.439   0.731   2.543
 3430SOL    HW110742   2.484   0.814   2.528
 3430SOL    HW210743   2.379   0.723   2.470
 3431SOL     OW10744   3.613   0.376   3.506
 3431SOL    HW110745   3.601   0.389   3.412
 3431SOL    HW210746   3.539   0.321   3.532
 3432SOL     OW10747   3.617   0.931   3.371
 3432SOL    HW110748   3.600   1.024   3.384
 3432SOL    HW210749   3.594   0.915   3.279
 3433SOL     OW10750   2.728   1.363   1.911
 3433SOL    HW110751   2.689   1.386   1.995
 3433SOL    HW210752   2.740   1.447   1.866
 3434SOL     OW10753   2.535   1.758   2.793
 3434SOL    HW110754   2.521   1.850   2.771
 3434SOL    HW210755   2.630   1.748   2.793
 3435SOL     OW10756   2.733   0.974   2.715
 3435SOL    HW110757   2.786   0.904   2.752
 3435SOL    HW210758   2.690   1.014   2.791
 3436SOL     OW10759   2.939   0.991   1.952
 3436SOL    HW110760   2.916   1.042   1.874
 3436SOL    HW210761   3.011   0.935   1.923
 3437SOL     OW10762   3.706   1.555   2.702
 3437SOL    HW110763   3.626   1.543   2.651
 3437SOL    HW210764   3.702   1.488   2.770
 3438SOL     OW10765   2.082   1.287   3.710
 3438SOL    HW110766   2.036   1.214   3.669
 3438SOL    HW210767   2.035   1.301   3.793
 3439SOL     OW10768   1.959   1.225   2.526
 3439SOL    HW110769   1.973   1.183   2.611
 3439SOL    HW210770   2.024   1.185   2.468
 3440SOL     OW10771   2.549   1.410   3.493
 3440SOL    HW110772   2.471   1.367   3.529
 3440SOL    HW210773   2.548   1.497   3.532
 3441SOL     OW10774   3.656   0.171   3.098
 3441SOL    HW110775   3.650   0.077   3.116
 3441SOL    HW210776   3.680   0.176   3.005
 3442SOL     OW10777   2.296   0.429   2.394
 3442SOL    HW110778   2.317   0.362   2.329
 3442SOL    HW210779   2.242   0.384   2.459
 3443SOL     OW10780   3.555   1.485   2.953
 3443SOL    HW110781   3.478   1.466   2.900
 3443SOL    HW210782   3.557   1.415   3.019
 3444SOL     OW10783   2.202   0.566   3.155
 3444SOL    HW110784   2.255   0.506   3.208
 3444SOL    HW210785   2.218   0.539   3.064
 3445SOL     OW10786   2.696   1.576   2.535
 3445SOL    HW110787   2.667   1.639   2.468
 3445SOL    HW210788   2.623   1.516   2.544
 3446SOL     OW10789   3.289   0.222   2.975
 3446SOL    HW110790   3.326   0.150   3.026
 3446SOL    HW210791   3.238   0.273   3.038
 3447SOL     OW10792   2.855   4.495   3.022
 3447SOL    HW110793   2.823   4.404   3.021
 3447SOL    HW210794   2.950   4.487   3.024
 3448SOL     OW10795   2.638   1.334   2.183
 3448SOL    HW110796   2.611   1.243   2.193
 3448SOL    HW210797   2.718   1.342   2.235
 3449SOL     OW10798   2.483   1.557   3.148
 3449SOL    HW110799   2.480   1.642   3.192
 3449SOL    HW210800   2.572   1.551   3.113
 3450SOL     OW10801   3.202   0.049   2.038
 3450SOL    HW110802   3.238   4.474   1.990
 3450SOL    HW210803   3.122   0.016   2.078
 3451SOL     OW10804   3.180   0.472   2.527
 3451SOL    HW110805   3.125   0.551   2.529
 3451SOL    HW210806   3.168   0.433   2.614
 3452SOL     OW10807   3.450   0.196   2.736
 3452SOL    HW110808   3.392   0.213   2.810
 3452SOL    HW210809   3.450   0.279   2.687
 3453SOL     OW10810   1.903   1.061   2.171
 3453SOL    HW110811   1.997   1.053   2.152
 3453SOL    HW210812   1.875   0.973   2.193
 3454SOL     OW10813   2.750   1.665   2.197
 3454SOL    HW110814   2.675   1.648   2.140
 3454SOL    HW210815   2.722   1.736   2.253
 3455SOL     OW10816   2.077   0.623   3.856
 3455SOL    HW110817   1.991   0.615   3.896
 3455SOL    HW210818   2.064   0.598   3.764
 3456SOL     OW10819   2.064   0.304   4.717
 3456SOL    HW110820   2.096   0.270   4.800
 3456SOL    HW210821   1.983   0.255   4.700
 3457SOL     OW10822   1.864   0.398   4.356
 3457SOL    HW110823   1.778   0.413   4.396
 3457SOL    HW210824   1.849   0.328   4.293
 3458SOL     OW10825   2.429   1.287   4.890
 3458SOL    HW110826   2.345   1.309   4.850
 3458SOL    HW210827   2.480   1.367   4.885
 3459SOL     OW10828   3.439   1.518   4.433
 3459SOL    HW110829   3.395   1.493   4.515
 3459SOL    HW210830   3.369   1.520   4.368
 3460SOL     OW10831   3.007   0.696   4.411
 3460SOL    HW110832   3.049   0.781   4.405
 3460SOL    HW210833   2.954   0.700   4.491
 3461SOL     OW10834   3.653   0.594   3.944
 3461SOL    HW110835   3.621   0.591   3.854
 3461SOL    HW210836   3.610   0.521   3.988
 3462SOL     OW10837   2.610   1.125   4.770
 3462SOL    HW110838   2.542   1.161   4.827
 3462SOL    HW210839   2.648   1.201   4.726
 3463SOL     OW10840   2.738   0.758   5.549
 3463SOL    HW110841   2.724   0.827   5.613
 3463SOL    HW210842   2.759   0.803   5.468
 3464SOL     OW10843   2.547   0.991   4.366
 3464SOL    HW110844   2.614   0.985   4.434
 3464SOL    HW210845   2.479   1.047   4.404
 3465SOL     OW10846   2.577   1.150   5.548
 3465SOL    HW110847   2.626   1.226   5.581
 3465SOL    HW210848   2.496   1.188   5.513
 3466SOL     OW10849   2.202   1.409   4.778
 3466SOL    HW110850   2.124   1.374   4.735
 3466SOL    HW210851   2.244   1.463   4.711
 3467SOL     OW10852   3.321   1.503   5.091
 3467SOL    HW110853   3.375   1.581   5.099
 3467SOL    HW210854   3.251   1.515   5.156
 3468SOL     OW10855   2.309   0.389   5.198
 3468SOL    HW110856   2.389   0.337   5.207
 3468SOL    HW210857   2.239   0.326   5.216
 3469SOL     OW10858   3.462   0.439   4.463
 3469SOL    HW110859   3.383   0.452   4.411
 3469SOL    HW210860   3.465   0.514   4.522
 3470SOL     OW10861   2.084   1.727   4.197
 3470SOL    HW110862   2.114   1.797   4.256
 3470SOL    HW210863   2.159   1.711   4.140
 3471SOL     OW10864   2.997   1.346   5.419
 3471SOL    HW110865   3.038   1.338   5.505
 3471SOL    HW210866   2.946   1.265   5.409
 3472SOL     OW10867   2.091   1.449   4.264
 3472SOL    HW110868   2.067   1.541   4.273
 3472SOL    HW210869   2.038   1.403   4.328
 3473SOL     OW10870   2.133   1.093   4.614
 3473SOL    HW110871   2.131   1.004   4.649
 3473SOL    HW210872   2.075   1.143   4.671
 3474SOL     OW10873   2.435   0.988   3.868
 3474SOL    HW110874   2.486   1.030   3.799
 3474SOL    HW210875   2.475   1.019   3.949
 3475SOL     OW10876   3.432   0.121   5.181
 3475SOL    HW110877   3.481   0.183   5.127
 3475SOL    HW210878   3.425   0.163   5.267
 3476SOL     OW10879   1.984   0.658   4.286
 3476SOL    HW110880   1.951   0.571   4.309
 3476SOL    HW210881   1.976   0.708   4.367
 3477SOL     OW10882   3.706   1.751   4.050
 3477SOL    HW110883   3.775   1.728   4.112
 3477SOL    HW210884   3.721   1.844   4.030
 3478SOL     OW10885   1.914   1.587   3.840
 3478SOL    HW110886   1.891   1.495   3.858
 3478SOL    HW210887   1.884   1.634   3.917
 3479SOL     OW10888   3.554   0.922   4.372
 3479SOL    HW110889   3.636   0.878   4.350
 3479SOL    HW210890   3.532   0.973   4.295
 3480SOL     OW10891   3.514   1.102   4.154
 3480SOL    HW110892   3.601   1.100   4.113
 3480SOL    HW210893   3.523   1.167   4.224
 3481SOL     OW10894   1.982   0.748   5.304
 3481SOL    HW110895   2.071   0.784   5.308
 3481SOL    HW210896   1.925   0.825   5.302
 3482SOL     OW10897   2.488   1.384   4.446
 3482SOL    HW110898   2.441   1.301   4.455
 3482SOL    HW210899   2.468   1.413   4.357
 3483SOL     OW10900   3.149   1.231   5.144
 3483SOL    HW110901   3.177   1.162   5.083
 3483SOL    HW210902   3.210   1.224   5.218
 3484SOL     OW10903   2.690   0.026   4.287
 3484SOL    HW110904   2.730   0.107   4.257
 3484SOL    HW210905   2.596   0.040   4.278
 3485SOL     OW10906   2.045   0.953   5.005
 3485SOL    HW110907   2.134   0.921   4.991
 3485SOL    HW210908   1.994   0.911   4.936
 3486SOL     OW10909   3.395   1.002   3.924
 3486SOL    HW110910   3.325   0.945   3.957
 3486SOL    HW210911   3.437   1.035   4.003
 3487SOL     OW10912   3.006   1.798   5.345
 3487SOL    HW110913   3.026   1.874   5.291
 3487SOL    HW210914   3.051   1.725   5.301
 3488SOL     OW10915   2.181   0.249   5.501
 3488SOL    HW110916   2.246   0.310   5.536
 3488SOL    HW210917   2.106   0.257   5.559
 3489SOL     OW10918   3.337   1.415   4.668
 3489SOL    HW110919   3.269   1.432   4.734
 3489SOL    HW210920   3.320   1.325   4.640
 3490SOL     OW10921   3.511   1.764   4.298
 3490SOL    HW110922   3.492   1.727   4.212
 3490SOL    HW210923   3.497   1.691   4.359
 3491SOL     OW10924   2.449   0.719   3.993
 3491SOL    HW110925   2.450   0.805   3.951
 3491SOL    HW210926   2.384   0.727   4.063
 3492SOL     OW10927   3.157   0.383   4.651
 3492SOL    HW110928   3.069   0.351   4.631
 3492SOL    HW210929   3.192   0.319   4.713
 3493SOL     OW10930   3.439   1.677   4.036
 3493SOL    HW110931   3.532   1.698   4.027
 3493SOL    HW210932   3.410   1.659   3.946
 3494SOL     OW10933   2.658   0.621   5.175
 3494SOL    HW110934   2.629   0.591   5.261
 3494SOL    HW210935   2.628   0.552   5.115
 3495SOL     OW10936   3.251   0.486   5.400
 3495SOL    HW110937   3.256   0.530   5.485
 3495SOL    HW210938   3.318   0.418   5.404
 3496SOL     OW10939   2.811   0.885   5.313
 3496SOL    HW110940   2.865   0.817   5.273
 3496SOL    HW210941   2.761   0.922   5.240
 3497SOL     OW10942   2.865   0.417   4.953
 3497SOL    HW110943   2.773   0.426   4.979
 3497SOL    HW210944   2.862   0.360   4.877
 3498SOL     OW10945   2.915   0.701   4.146
 3498SOL    HW110946   2.937   0.692   4.239
 3498SOL    HW210947   2.830   0.658   4.137
 3499SOL     OW10948   1.952   0.823   4.503
 3499SOL    HW110949   2.032   0.817   4.554
 3499SOL    HW210950   1.905   0.898   4.539
 3500SOL     OW10951   2.724   0.373   3.925
 3500SOL    HW110952   2.780   0.408   3.856
 3500SOL    HW210953   2.731   0.278   3.916
 3501SOL     OW10954   3.560   0.569   5.556
 3501SOL    HW110955   3.529   0.645   5.507
 3501SOL    HW210956   3.591   0.508   5.489
 3502SOL     OW10957   3.247   1.143   4.263
 3502SOL    HW110958   3.326   1.133   4.210
 3502SOL    HW210959   3.193   1.206   4.214
 3503SOL     OW10960   2.391   0.216   4.629
 3503SOL    HW110961   2.414   0.233   4.721
 3503SOL    HW210962   2.394   0.302   4.588
 3504SOL     OW10963   2.861   1.443   4.186
 3504SOL    HW110964   2.834   1.519   4.136
 3504SOL    HW210965   2.835   1.463   4.276
 3505SOL     OW10966   3.663   1.053   4.601
 3505SOL    HW110967   3.612   1.033   4.523
 3505SOL    HW210968   3.598   1.059   4.671
 3506SOL     OW10969   3.079   1.537   5.233
 3506SOL    HW110970   3.070   1.468   5.299
 3506SOL    HW210971   3.027   1.507   5.159
 3507SOL     OW10972   2.170   0.961   3.980
 3507SOL    HW110973   2.253   0.981   3.937
 3507SOL    HW210974   2.144   0.876   3.943
 3508SOL     OW10975   3.346   0.753   4.440
 3508SOL    HW110976   3.343   0.714   4.527
 3508SOL    HW210977   3.424   0.809   4.442
 3509SOL     OW10978   2.335   1.278   5.484
 3509SOL    HW110979   2.312   1.264   5.392
 3509SOL    HW210980   2.251   1.280   5.530
 3510SOL     OW10981   2.989   1.779   3.950
 3510SOL    HW110982   2.912   1.741   3.992
 3510SOL    HW210983   3.014   1.714   3.883
 3511SOL     OW10984   2.049   0.268   5.247
 3511SOL    HW110985   1.986   0.340   5.245
 3511SOL    HW210986   2.082   0.267   5.337
 3512SOL     OW10987   3.492   1.384   3.818
 3512SOL    HW110988   3.450   1.469   3.803
 3512SOL    HW210989   3.425   1.320   3.795
 3513SOL     OW10990   2.325   1.737   4.046
 3513SOL    HW110991   2.372   1.792   4.108
 3513SOL    HW210992   2.393   1.697   3.992
 3514SOL     OW10993   3.297   0.151   4.154
 3514SOL    HW110994   3.280   0.093   4.079
 3514SOL    HW210995   3.390   0.138   4.174
 3515SOL     OW10996   2.800   1.701   4.610
 3515SOL    HW110997   2.874   1.661   4.656
 3515SOL    HW210998   2.779   1.639   4.540
 3516SOL     OW10999   2.259   0.690   4.196
 3516SOL    HW111000   2.278   0.597   4.212
 3516SOL    HW211001   2.165   0.698   4.214
 3517SOL     OW11002   3.385   0.234   5.446
 3517SOL    HW111003   3.384   0.253   5.539
 3517SOL    HW211004   3.303   0.186   5.430
 3518SOL     OW11005   2.500   0.124   3.849
 3518SOL    HW111006   2.588   0.089   3.862
 3518SOL    HW211007   2.466   0.076   3.773
 3519SOL     OW11008   2.631   0.272   5.483
 3519SOL    HW111009   2.703   0.210   5.473
 3519SOL    HW211010   2.592   0.250   5.567
 3520SOL     OW11011   2.671   1.462   4.927
 3520SOL    HW111012   2.678   1.446   4.833
 3520SOL    HW211013   2.761   1.467   4.958
 3521SOL     OW11014   3.199   0.591   5.151
 3521SOL    HW111015   3.227   0.564   5.239
 3521SOL    HW211016   3.234   0.679   5.141
 3522SOL     OW11017   2.677   1.377   4.664
 3522SOL    HW111018   2.765   1.371   4.627
 3522SOL    HW211019   2.620   1.384   4.588
 3523SOL     OW11020   2.791   0.533   4.617
 3523SOL    HW111021   2.772   0.527   4.524
 3523SOL    HW211022   2.817   0.444   4.642
 3524SOL     OW11023   2.424   0.099   4.254
 3524SOL    HW111024   2.342   0.057   4.280
 3524SOL    HW211025   2.401   0.148   4.175
 3525SOL     OW11026   3.291   1.203   3.761
 3525SOL    HW111027   3.320   1.128   3.814
 3525SOL    HW211028   3.206   1.226   3.798
 3526SOL     OW11029   2.149   0.054   3.934
 3526SOL    HW111030   2.219   0.119   3.928
 3526SOL    HW211031   2.176   4.497   4.006
 3527SOL     OW11032   2.828   0.241   4.184
 3527SOL    HW111033   2.776   0.308   4.141
 3527SOL    HW211034   2.919   0.271   4.174
 3528SOL     OW11035   2.942   0.688   5.178
 3528SOL    HW111036   2.874   0.621   5.177
 3528SOL    HW211037   3.024   0.640   5.167
 3529SOL     OW11038   3.085   1.567   4.514
 3529SOL    HW111039   3.098   1.633   4.446
 3529SOL    HW211040   3.132   1.601   4.590
 3530SOL     OW11041   2.336   1.154   4.445
 3530SOL    HW111042   2.272   1.134   4.512
 3530SOL    HW211043   2.289   1.143   4.362
 3531SOL     OW11044   3.125   1.788   4.336
 3531SOL    HW111045   3.171   1.854   4.284
 3531SOL    HW211046   3.054   1.836   4.378
 3532SOL     OW11047   2.885   0.531   3.749
 3532SOL    HW111048   2.840   0.614   3.733
 3532SOL    HW211049   2.944   0.550   3.822
 3533SOL     OW11050   1.955   0.546   5.121
 3533SOL    HW111051   2.045   0.552   5.091
 3533SOL    HW211052   1.945   0.618   5.184
 3534SOL     OW11053   2.417   0.253   4.899
 3534SOL    HW111054   2.440   0.172   4.945
 3534SOL    HW211055   2.324   0.266   4.919
 3535SOL     OW11056   2.725   0.504   4.355
 3535SOL    HW111057   2.693   0.540   4.272
 3535SOL    HW211058   2.668   0.428   4.372
 3536SOL     OW11059   2.790   0.003   4.545
 3536SOL    HW111060   2.760   0.011   4.454
 3536SOL    HW211061   2.816   4.411   4.554
 3537SOL     OW11062   3.301   1.156   4.579
 3537SOL    HW111063   3.231   1.091   4.583
 3537SOL    HW211064   3.322   1.165   4.486
 3538SOL     OW11065   3.327   0.613   4.682
 3538SOL    HW111066   3.268   0.538   4.683
 3538SOL    HW211067   3.380   0.603   4.761
 3539SOL     OW11068   3.699   0.807   4.111
 3539SOL    HW111069   3.758   0.760   4.169
 3539SOL    HW211070   3.679   0.744   4.041
 3540SOL     OW11071   2.350   1.424   3.875
 3540SOL    HW111072   2.274   1.393   3.925
 3540SOL    HW211073   2.349   1.370   3.796
 3541SOL     OW11074   3.546   1.267   4.361
 3541SOL    HW111075   3.640   1.264   4.380
 3541SOL    HW211076   3.520   1.355   4.386
 3542SOL     OW11077   3.256   0.577   3.793
 3542SOL    HW111078   3.193   0.559   3.862
 3542SOL    HW211079   3.341   0.564   3.834
 3543SOL     OW11080   2.365   0.260   4.038
 3543SOL    HW111081   2.424   0.215   3.976
 3543SOL    HW211082   2.347   0.344   3.996
 3544SOL     OW11083   3.607   1.243   5.278
 3544SOL    HW111084   3.695   1.205   5.268
 3544SOL    HW211085   3.623   1.332   5.310
 3545SOL     OW11086   2.923   1.359   5.064
 3545SOL    HW111087   2.847   1.323   5.110
 3545SOL    HW211088   2.998   1.310   5.099
 3546SOL     OW11089   3.470   1.626   5.384
 3546SOL    HW111090   3.462   1.663   5.296
 3546SOL    HW211091   3.552   1.576   5.381
 3547SOL     OW11092   2.999   1.218   4.827
 3547SOL    HW111093   2.935   1.255   4.888
 3547SOL    HW211094   2.973   1.251   4.741
 3548SOL     OW11095   3.480   1.094   4.801
 3548SOL    HW111096   3.473   1.159   4.871
 3548SOL    HW211097   3.407   1.113   4.742
 3549SOL     OW11098   2.751   0.139   5.104
 3549SOL    HW111099   2.777   0.090   5.026
 3549SOL    HW211100   2.834   0.165   5.144
 3550SOL     OW11101   2.845   1.116   5.448
 3550SOL    HW111102   2.754   1.132   5.472
 3550SOL    HW211103   2.843   1.037   5.394
 3551SOL     OW11104   2.573   1.064   4.096
 3551SOL    HW111105   2.558   1.041   4.188
 3551SOL    HW211106   2.648   1.010   4.070
 3552SOL     OW11107   2.286   0.824   4.977
 3552SOL    HW111108   2.354   0.833   5.044
 3552SOL    HW211109   2.253   0.736   4.989
 3553SOL     OW11110   3.130   0.372   5.002
 3553SOL    HW111111   3.162   0.451   5.046
 3553SOL    HW211112   3.040   0.394   4.977
 3554SOL     OW11113   2.189   1.124   4.212
 3554SOL    HW111114   2.189   1.197   4.150
 3554SOL    HW211115   2.189   1.046   4.158
 3555SOL     OW11116   2.411   0.514   4.582
 3555SOL    HW111117   2.420   0.573   4.507
 3555SOL    HW211118   2.477   0.543   4.644
 3556SOL     OW11119   3.111   1.351   4.115
 3556SOL    HW111120   3.166   1.421   4.149
 3556SOL    HW211121   3.023   1.371   4.148
 3557SOL     OW11122   3.162   1.455   4.873
 3557SOL    HW111123   3.214   1.461   4.953
 3557SOL    HW211124   3.106   1.379   4.886
 3558SOL     OW11125   3.437   0.624   4.204
 3558SOL    HW111126   3.387   0.661   4.276
 3558SOL    HW211127   3.482   0.699   4.165
 3559SOL     OW11128   2.195   1.442   5.042
 3559SOL    HW111129   2.193   1.431   4.947
 3559SOL    HW211130   2.284   1.471   5.061
 3560SOL     OW11131   2.288   0.740   5.335
 3560SOL    HW111132   2.344   0.787   5.273
 3560SOL    HW211133   2.336   0.660   5.354
 3561SOL     OW11134   3.475   0.783   5.413
 3561SOL    HW111135   3.389   0.824   5.406
 3561SOL    HW211136   3.527   0.823   5.344
 3562SOL     OW11137   2.846   0.097   5.431
 3562SOL    HW111138   2.902   0.166   5.394
 3562SOL    HW211139   2.867   0.019   5.379
 3563SOL     OW11140   2.369   0.037   5.488
 3563SOL    HW111141   2.395   0.028   5.396
 3563SOL    HW211142   2.299   0.102   5.487
 3564SOL     OW11143   2.446   0.875   4.755
 3564SOL    HW111144   2.486   0.962   4.759
 3564SOL    HW211145   2.391   0.870   4.833
 3565SOL     OW11146   3.197   0.857   4.739
 3565SOL    HW111147   3.109   0.837   4.707
 3565SOL    HW211148   3.246   0.776   4.725
 3566SOL     OW11149   3.055   0.538   3.976
 3566SOL    HW111150   3.065   0.460   4.030
 3566SOL    HW211151   3.013   0.602   4.033
 3567SOL     OW11152   2.147   0.226   4.970
 3567SOL    HW111153   2.098   0.244   5.050
 3567SOL    HW211154   2.193   0.144   4.989
 3568SOL     OW11155   1.933   1.329   5.009
 3568SOL    HW111156   1.942   1.259   5.073
 3568SOL    HW211157   2.008   1.387   5.026
 3569SOL     OW11158   2.578   0.628   4.770
 3569SOL    HW111159   2.656   0.617   4.715
 3569SOL    HW211160   2.548   0.717   4.751
 3570SOL     OW11161   3.605   0.960   5.586
 3570SOL    HW111162   3.562   0.892   5.534
 3570SOL    HW211163   3.543   0.979   5.656
 3571SOL     OW11164   2.150   0.038   4.366
 3571SOL    HW111165   2.136   0.133   4.368
 3571SOL    HW211166   2.165   0.014   4.457
 3572SOL     OW11167   3.489   0.392   4.070
 3572SOL    HW111168   3.510   0.324   4.134
 3572SOL    HW211169   3.462   0.467   4.123
 3573SOL     OW11170   2.903   0.769   4.685
 3573SOL    HW111171   2.887   0.784   4.778
 3573SOL    HW211172   2.869   0.681   4.668
 3574SOL     OW11173   2.836   1.566   5.467
 3574SOL    HW111174   2.842   1.634   5.400
 3574SOL    HW211175   2.879   1.490   5.427
 3575SOL     OW11176   3.711   1.498   5.327
 3575SOL    HW111177   3.733   1.527   5.239
 3575SOL    HW211178   3.791   1.512   5.378
 3576SOL     OW11179   2.214   0.916   5.535
 3576SOL    HW111180   2.293   0.937   5.584
 3576SOL    HW211181   2.242   0.852   5.470
 3577SOL     OW11182   3.387   0.258   3.850
 3577SOL    HW111183   3.323   0.198   3.889
 3577SOL    HW211184   3.422   0.308   3.924
 3578SOL     OW11185   3.145   0.826   3.748
 3578SOL    HW111186   3.186   0.740   3.753
 3578SOL    HW211187   3.179   0.864   3.667
 3579SOL     OW11188   2.933   1.342   4.583
 3579SOL    HW111189   2.940   1.270   4.520
 3579SOL    HW211190   2.991   1.410   4.548
 3580SOL     OW11191   2.172   0.813   4.670
 3580SOL    HW111192   2.266   0.833   4.664
 3580SOL    HW211193   2.169   0.723   4.701
 3581SOL     OW11194   2.193   0.538   4.738
 3581SOL    HW111195   2.148   0.454   4.722
 3581SOL    HW211196   2.270   0.535   4.681
 3582SOL     OW11197   3.005   0.366   5.433
 3582SOL    HW111198   2.949   0.425   5.483
 3582SOL    HW211199   3.086   0.416   5.418
 3583SOL     OW11200   3.002   0.219   5.200
 3583SOL    HW111201   3.007   0.282   5.272
 3583SOL    HW211202   3.053   0.261   5.130
 3584SOL     OW11203   1.876   1.312   3.912
 3584SOL    HW111204   1.788   1.331   3.881
 3584SOL    HW211205   1.870   1.225   3.951
 3585SOL     OW11206   1.921   1.785   4.625
 3585SOL    HW111207   1.909   1.695   4.595
 3585SOL    HW211208   2.007   1.785   4.669
 3586SOL     OW11209   2.362   1.559   4.616
 3586SOL    HW111210   2.421   1.634   4.622
 3586SOL    HW211211   2.405   1.499   4.555
 3587SOL     OW11212   2.829   0.790   4.946
 3587SOL    HW111213   2.889   0.772   5.019
 3587SOL    HW211214   2.749   0.744   4.970
 3588SOL     OW11215   1.893   0.551   4.845
 3588SOL    HW111216   1.967   0.532   4.788
 3588SOL    HW211217   1.930   0.551   4.933
 3589SOL     OW11218   2.045   0.528   5.454
 3589SOL    HW111219   2.128   0.515   5.408
 3589SOL    HW211220   2.004   0.602   5.410
 3590SOL     OW11221   3.246   0.929   5.379
 3590SOL    HW111222   3.267   1.023   5.374
 3590SOL    HW211223   3.239   0.902   5.287
 3591SOL     OW11224   2.672   0.582   4.092
 3591SOL    HW111225   2.680   0.510   4.030
 3591SOL    HW211226   2.598   0.633   4.061
 3592SOL     OW11227   3.497   0.602   4.900
 3592SOL    HW111228   3.486   0.544   4.975
 3592SOL    HW211229   3.585   0.585   4.868
 3593SOL     OW11230   2.113   1.549   5.449
 3593SOL    HW111231   2.077   1.623   5.496
 3593SOL    HW211232   2.114   1.477   5.512
 3594SOL     OW11233   2.586   0.454   4.977
 3594SOL    HW111234   2.530   0.380   4.954
 3594SOL    HW211235   2.576   0.515   4.904
 3595SOL     OW11236   2.316   0.491   3.902
 3595SOL    HW111237   2.377   0.561   3.925
 3595SOL    HW211238   2.232   0.534   3.893
 3596SOL     OW11239   1.986   1.131   5.199
 3596SOL    HW111240   1.989   1.085   5.283
 3596SOL    HW211241   2.006   1.063   5.134
 3597SOL     OW11242   3.178   1.041   4.939
 3597SOL    HW111243   3.196   0.977   4.870
 3597SOL    HW211244   3.114   1.101   4.901
 3598SOL     OW11245   3.183   0.856   4.024
 3598SOL    HW111246   3.110   0.828   4.079
 3598SOL    HW211247   3.151   0.844   3.934
 3599SOL     OW11248   3.646   1.731   4.885
 3599SOL    HW111249   3.707   1.757   4.815
 3599SOL    HW211250   3.616   1.644   4.860
 3600SOL     OW11251   3.108   1.713   4.789
 3600SOL    HW111252   3.195   1.746   4.769
 3600SOL    HW211253   3.124   1.629   4.832
 3601SOL     OW11254   1.955   1.258   4.742
 3601SOL    HW111255   1.934   1.283   4.832
 3601SOL    HW211256   1.879   1.209   4.713
 3602SOL     OW11257   3.586   0.127   4.201
 3602SOL    HW111258   3.650   0.145   4.132
 3602SOL    HW211259   3.624   0.057   4.253
 3603SOL     OW11260   3.257   1.568   4.217
 3603SOL    HW111261   3.313   1.604   4.148
 3603SOL    HW211262   3.205   1.642   4.247
 3604SOL     OW11263   2.037   1.789   5.565
 3604SOL    HW111264   2.002   1.769   5.652
 3604SOL    HW211265   2.113   1.843   5.581
 3605SOL     OW11266   3.142   0.932   4.395
 3605SOL    HW111267   3.216   0.872   4.406
 3605SOL    HW211268   3.177   1.003   4.341
 3606SOL     OW11269   2.674   1.277   5.147
 3606SOL    HW111270   2.631   1.314   5.224
 3606SOL    HW211271   2.638   1.327   5.074
 3607SOL     OW11272   2.527   1.630   3.881
 3607SOL    HW111273   2.544   1.644   3.788
 3607SOL    HW211274   2.473   1.551   3.884
 3608SOL     OW11275   3.481   1.727   5.118
 3608SOL    HW111276   3.534   1.731   5.038
 3608SOL    HW211277   3.468   1.818   5.143
 3609SOL     OW11278   3.705   0.149   4.689
 3609SOL    HW111279   3.738   0.070   4.645
 3609SOL    HW211280   3.619   0.163   4.651
 3610SOL     OW11281   2.116   0.307   4.432
 3610SOL    HW111282   2.033   0.348   4.410
 3610SOL    HW211283   2.118   0.305   4.528
 3611SOL     OW11284   3.071   1.598   3.758
 3611SOL    HW111285   3.059   1.507   3.785
 3611SOL    HW211286   3.004   1.611   3.691
 3612SOL     OW11287   2.684   1.007   5.103
 3612SOL    HW111288   2.726   0.998   5.017
 3612SOL    HW211289   2.679   1.102   5.117
 3613SOL     OW11290   2.779   0.912   4.015
 3613SOL    HW111291   2.839   0.945   3.948
 3613SOL    HW211292   2.829   0.844   4.061
 3614SOL     OW11293   3.349   1.633   3.772
 3614SOL    HW111294   3.256   1.620   3.756
 3614SOL    HW211295   3.388   1.638   3.684
 3615SOL     OW11296   2.228   1.257   5.239
 3615SOL    HW111297   2.222   1.324   5.171
 3615SOL    HW211298   2.147   1.206   5.229
 3616SOL     OW11299   3.468   1.286   5.004
 3616SOL    HW111300   3.525   1.266   5.079
 3616SOL    HW211301   3.408   1.353   5.037
 3617SOL     OW11302   2.929   1.113   4.439
 3617SOL    HW111303   2.855   1.062   4.472
 3617SOL    HW211304   2.994   1.047   4.414
 3618SOL     OW11305   2.857   0.246   4.741
 3618SOL    HW111306   2.870   0.235   4.647
 3618SOL    HW211307   2.844   0.158   4.774
 3619SOL     OW11308   2.467   1.488   4.196
 3619SOL    HW111309   2.520   1.437   4.134
 3619SOL    HW211310   2.387   1.508   4.147
 3620SOL     OW11311   3.590   0.394   5.097
 3620SOL    HW111312   3.666   0.453   5.097
 3620SOL    HW211313   3.615   0.322   5.039
 3621SOL     OW11314   2.130   1.341   4.024
 3621SOL    HW111315   2.040   1.336   3.992
 3621SOL    HW211316   2.123   1.384   4.109
 3622SOL     OW11317   1.979   1.036   5.455
 3622SOL    HW111318   1.903   1.008   5.506
 3622SOL    HW211319   2.052   0.990   5.495
 3623SOL     OW11320   2.517   0.205   5.234
 3623SOL    HW111321   2.594   0.182   5.182
 3623SOL    HW211322   2.553   0.233   5.319
 3624SOL     OW11323   1.947   0.320   3.766
 3624SOL    HW111324   1.878   0.264   3.730
 3624SOL    HW211325   1.948   0.397   3.709
 3625SOL     OW11326   3.283   0.857   5.118
 3625SOL    HW111327   3.233   0.917   5.063
 3625SOL    HW211328   3.372   0.859   5.081
 3626SOL     OW11329   1.919   0.194   4.021
 3626SOL    HW111330   1.924   0.261   3.953
 3626SOL    HW211331   1.992   0.135   4.003
 3627SOL     OW11332   3.041   1.331   3.843
 3627SOL    HW111333   2.951   1.297   3.845
 3627SOL    HW211334   3.068   1.333   3.935
 3628SOL     OW11335   2.484   0.831   5.162
 3628SOL    HW111336   2.540   0.907   5.147
 3628SOL    HW211337   2.544   0.757   5.168
 3629SOL     OW11338   3.360   1.791   4.708
 3629SOL    HW111339   3.380   1.859   4.645
 3629SOL    HW211340   3.445   1.761   4.739
 3630SOL     OW11341   2.576   0.554   5.425
 3630SOL    HW111342   2.623   0.614   5.484
 3630SOL    HW211343   2.598   0.467   5.458
 3631SOL     OW11344   3.337   1.189   5.351
 3631SOL    HW111345   3.326   1.207   5.444
 3631SOL    HW211346   3.429   1.212   5.333
 3632SOL     OW11347   3.522   0.878   4.979
 3632SOL    HW111348   3.518   0.794   4.935
 3632SOL    HW211349   3.512   0.943   4.909
 3633SOL     OW11350   3.090   0.338   4.164
 3633SOL    HW111351   3.162   0.276   4.150
 3633SOL    HW211352   3.116   0.387   4.243
 3634SOL     OW11353   2.439   0.730   4.405
 3634SOL    HW111354   2.485   0.813   4.390
 3634SOL    HW211355   2.378   0.722   4.332
 3635SOL     OW11356   3.613   0.377   5.368
 3635SOL    HW111357   3.602   0.389   5.274
 3635SOL    HW211358   3.539   0.321   5.394
 3636SOL     OW11359   3.617   0.931   5.233
 3636SOL    HW111360   3.600   1.024   5.246
 3636SOL    HW211361   3.594   0.915   5.141
 3637SOL     OW11362   2.725   1.363   3.771
 3637SOL    HW111363   2.690   1.388   3.857
 3637SOL    HW211364   2.741   1.446   3.727
 3638SOL     OW11365   2.536   1.769   4.651
 3638SOL    HW111366   2.543   1.802   4.740
 3638SOL    HW211367   2.625   1.746   4.626
 3639SOL     OW11368   2.734   0.970   4.574
 3639SOL    HW111369   2.788   0.900   4.611
 3639SOL    HW211370   2.694   1.011   4.649
 3640SOL     OW11371   2.939   0.991   3.814
 3640SOL    HW111372   2.916   1.042   3.735
 3640SOL    HW211373   3.011   0.935   3.786
 3641SOL     OW11374   3.704   1.556   4.564
 3641SOL    HW111375   3.624   1.544   4.513
 3641SOL    HW211376   3.695   1.493   4.636
 3642SOL     OW11377   2.074   1.297   5.576
 3642SOL    HW111378   2.039   1.221   5.529
 3642SOL    HW211379   2.014   1.310   5.649
 3643SOL     OW11380   1.960   1.224   4.387
 3643SOL    HW111381   1.973   1.183   4.472
 3643SOL    HW211382   2.025   1.184   4.330
 3644SOL     OW11383   2.539   1.418   5.339
 3644SOL    HW111384   2.468   1.384   5.394
 3644SOL    HW211385   2.548   1.509   5.365
 3645SOL     OW11386   3.656   0.170   4.960
 3645SOL    HW111387   3.650   0.076   4.977
 3645SOL    HW211388   3.680   0.176   4.868
 3646SOL     OW11389   2.296   0.429   4.255
 3646SOL    HW111390   2.317   0.362   4.191
 3646SOL    HW211391   2.242   0.384   4.320
 3647SOL     OW11392   3.560   1.483   4.814
 3647SOL    HW111393   3.482   1.465   4.762
 3647SOL    HW211394   3.561   1.414   4.880
 3648SOL     OW11395   2.202   0.566   5.017
 3648SOL    HW111396   2.255   0.506   5.069
 3648SOL    HW211397   2.218   0.539   4.926
 3649SOL     OW11398   2.701   1.568   4.391
 3649SOL    HW111399   2.672   1.634   4.328
 3649SOL    HW211400   2.627   1.506   4.396
 3650SOL     OW11401   3.289   0.222   4.837
 3650SOL    HW111402   3.326   0.150   4.888
 3650SOL    HW211403   3.238   0.273   4.900
 3651SOL     OW11404   2.855   4.494   4.884
 3651SOL    HW111405   2.824   4.403   4.884
 3651SOL    HW211406   2.950   4.487   4.886
 3652SOL     OW11407   2.639   1.333   4.046
 3652SOL    HW111408   2.613   1.242   4.056
 3652SOL    HW211409   2.720   1.341   4.095
 3653SOL     OW11410   3.202   0.049   3.900
 3653SOL    HW111411   3.238   4.474   3.852
 3653SOL    HW211412   3.122   0.016   3.940
 3654SOL     OW11413   3.180   0.472   4.389
 3654SOL    HW111414   3.125   0.550   4.391
 3654SOL    HW211415   3.168   0.433   4.476
 3655SOL     OW11416   3.450   0.196   4.598
 3655SOL    HW111417   3.392   0.213   4.672
 3655SOL    HW211418   3.450   0.279   4.549
 3656SOL     OW11419   1.904   1.061   4.033
 3656SOL    HW111420   1.997   1.052   4.013
 3656SOL    HW211421   1.875   0.973   4.055
 3657SOL     OW11422   2.753   1.662   4.056
 3657SOL    HW111423   2.677   1.646   4.001
 3657SOL    HW211424   2.726   1.733   4.115
 3658SOL     OW11425   2.077   0.623   5.718
 3658SOL    HW111426   1.991   0.614   5.758
 3658SOL    HW211427   2.064   0.598   5.627
 3659SOL     OW11428   2.063   0.305   6.579
 3659SOL    HW111429   2.095   0.270   6.662
 3659SOL    HW211430   1.983   0.255   6.562
 3660SOL     OW11431   1.864   0.398   6.219
 3660SOL    HW111432   1.778   0.413   6.258
 3660SOL    HW211433   1.849   0.328   6.155
 3661SOL     OW11434   2.432   1.302   6.774
 3661SOL    HW111435   2.345   1.306   6.735
 3661SOL    HW211436   2.449   1.391   6.805
 3662SOL     OW11437   3.442   1.517   6.295
 3662SOL    HW111438   3.396   1.491   6.375
 3662SOL    HW211439   3.374   1.519   6.228
 3663SOL     OW11440   3.007   0.696   6.273
 3663SOL    HW111441   3.049   0.782   6.268
 3663SOL    HW211442   2.953   0.700   6.352
 3664SOL     OW11443   3.652   0.595   5.807
 3664SOL    HW111444   3.620   0.591   5.716
 3664SOL    HW211445   3.610   0.521   5.850
 3665SOL     OW11446   2.600   1.133   6.638
 3665SOL    HW111447   2.535   1.173   6.696
 3665SOL    HW211448   2.647   1.207   6.599
 3666SOL     OW11449   2.738   0.757   7.412
 3666SOL    HW111450   2.725   0.826   7.477
 3666SOL    HW211451   2.759   0.804   7.331
 3667SOL     OW11452   2.548   0.993   6.229
 3667SOL    HW111453   2.614   0.986   6.298
 3667SOL    HW211454   2.479   1.047   6.268
 3668SOL     OW11455   2.576   1.149   7.408
 3668SOL    HW111456   2.624   1.225   7.441
 3668SOL    HW211457   2.497   1.185   7.369
 3669SOL     OW11458   2.193   1.409   6.659
 3669SOL    HW111459   2.117   1.369   6.615
 3669SOL    HW211460   2.235   1.462   6.591
 3670SOL     OW11461   3.319   1.504   6.951
 3670SOL    HW111462   3.374   1.582   6.960
 3670SOL    HW211463   3.250   1.515   7.016
 3671SOL     OW11464   2.309   0.389   7.060
 3671SOL    HW111465   2.389   0.337   7.069
 3671SOL    HW211466   2.239   0.327   7.078
 3672SOL     OW11467   3.463   0.438   6.325
 3672SOL    HW111468   3.384   0.452   6.273
 3672SOL    HW211469   3.466   0.513   6.384
 3673SOL     OW11470   2.999   1.343   7.282
 3673SOL    HW111471   3.041   1.335   7.367
 3673SOL    HW211472   2.947   1.263   7.273
 3674SOL     OW11473   2.063   1.458   6.157
 3674SOL    HW111474   2.026   1.517   6.223
 3674SOL    HW211475   2.033   1.371   6.184
 3675SOL     OW11476   2.136   1.090   6.477
 3675SOL    HW111477   2.132   1.002   6.513
 3675SOL    HW211478   2.077   1.142   6.532
 3676SOL     OW11479   2.454   1.796   7.000
 3676SOL    HW111480   2.377   1.776   7.054
 3676SOL    HW211481   2.485   1.881   7.034
 3677SOL     OW11482   2.435   0.987   5.729
 3677SOL    HW111483   2.486   1.030   5.660
 3677SOL    HW211484   2.475   1.018   5.810
 3678SOL     OW11485   3.431   0.121   7.043
 3678SOL    HW111486   3.481   0.182   6.989
 3678SOL    HW211487   3.425   0.164   7.129
 3679SOL     OW11488   1.985   0.656   6.149
 3679SOL    HW111489   1.952   0.569   6.172
 3679SOL    HW211490   1.976   0.707   6.230
 3680SOL     OW11491   3.706   1.751   5.912
 3680SOL    HW111492   3.776   1.728   5.973
 3680SOL    HW211493   3.722   1.844   5.892
 3681SOL     OW11494   3.554   0.922   6.236
 3681SOL    HW111495   3.636   0.878   6.214
 3681SOL    HW211496   3.533   0.972   6.157
 3682SOL     OW11497   3.514   1.102   6.016
 3682SOL    HW111498   3.601   1.100   5.975
 3682SOL    HW211499   3.523   1.166   6.087
 3683SOL     OW11500   1.981   0.749   7.165
 3683SOL    HW111501   2.069   0.786   7.169
 3683SOL    HW211502   1.923   0.825   7.160
 3684SOL     OW11503   2.480   1.388   6.315
 3684SOL    HW111504   2.442   1.304   6.338
 3684SOL    HW211505   2.446   1.406   6.227
 3685SOL     OW11506   3.144   1.234   7.004
 3685SOL    HW111507   3.173   1.165   6.945
 3685SOL    HW211508   3.204   1.229   7.079
 3686SOL     OW11509   2.691   0.027   6.150
 3686SOL    HW111510   2.730   0.108   6.119
 3686SOL    HW211511   2.596   0.041   6.140
 3687SOL     OW11512   2.049   0.958   6.873
 3687SOL    HW111513   2.136   0.922   6.856
 3687SOL    HW211514   1.993   0.916   6.808
 3688SOL     OW11515   3.394   1.002   5.787
 3688SOL    HW111516   3.325   0.945   5.819
 3688SOL    HW211517   3.437   1.035   5.865
 3689SOL     OW11518   3.043   1.816   7.214
 3689SOL    HW111519   3.051   1.878   7.141
 3689SOL    HW211520   3.062   1.730   7.175
 3690SOL     OW11521   2.181   0.249   7.363
 3690SOL    HW111522   2.246   0.310   7.398
 3690SOL    HW211523   2.106   0.257   7.422
 3691SOL     OW11524   3.328   1.419   6.526
 3691SOL    HW111525   3.264   1.435   6.596
 3691SOL    HW211526   3.315   1.328   6.502
 3692SOL     OW11527   3.514   1.763   6.160
 3692SOL    HW111528   3.494   1.726   6.073
 3692SOL    HW211529   3.500   1.689   6.220
 3693SOL     OW11530   2.449   0.719   5.856
 3693SOL    HW111531   2.449   0.805   5.812
 3693SOL    HW211532   2.384   0.727   5.925
 3694SOL     OW11533   3.157   0.383   6.513
 3694SOL    HW111534   3.069   0.351   6.493
 3694SOL    HW211535   3.192   0.319   6.575
 3695SOL     OW11536   3.442   1.673   5.898
 3695SOL    HW111537   3.534   1.697   5.889
 3695SOL    HW211538   3.411   1.658   5.808
 3696SOL     OW11539   2.657   0.621   7.037
 3696SOL    HW111540   2.630   0.591   7.123
 3696SOL    HW211541   2.628   0.552   6.977
 3697SOL     OW11542   3.251   0.486   7.262
 3697SOL    HW111543   3.256   0.530   7.347
 3697SOL    HW211544   3.318   0.418   7.267
 3698SOL     OW11545   2.811   0.884   7.176
 3698SOL    HW111546   2.865   0.817   7.136
 3698SOL    HW211547   2.760   0.921   7.103
 3699SOL     OW11548   2.865   0.418   6.814
 3699SOL    HW111549   2.773   0.426   6.841
 3699SOL    HW211550   2.862   0.360   6.738
 3700SOL     OW11551   2.916   0.701   6.008
 3700SOL    HW111552   2.937   0.692   6.101
 3700SOL    HW211553   2.830   0.659   5.999
 3701SOL     OW11554   1.953   0.823   6.364
 3701SOL    HW111555   2.032   0.817   6.417
 3701SOL    HW211556   1.906   0.898   6.400
 3702SOL     OW11557   1.987   1.851   7.162
 3702SOL    HW111558   1.986   1.832   7.256
 3702SOL    HW211559   1.894   1.860   7.139
 3703SOL     OW11560   2.726   0.373   5.790
 3703SOL    HW111561   2.780   0.409   5.720
 3703SOL    HW211562   2.731   0.278   5.779
 3704SOL     OW11563   3.560   0.569   7.418
 3704SOL    HW111564   3.529   0.645   7.369
 3704SOL    HW211565   3.591   0.508   7.351
 3705SOL     OW11566   3.248   1.142   6.123
 3705SOL    HW111567   3.328   1.130   6.072
 3705SOL    HW211568   3.196   1.204   6.072
 3706SOL     OW11569   2.391   0.215   6.492
 3706SOL    HW111570   2.414   0.233   6.583
 3706SOL    HW211571   2.394   0.300   6.449
 3707SOL     OW11572   2.882   1.445   6.074
 3707SOL    HW111573   2.829   1.494   6.011
 3707SOL    HW211574   2.849   1.472   6.159
 3708SOL     OW11575   3.663   1.053   6.464
 3708SOL    HW111576   3.613   1.033   6.386
 3708SOL    HW211577   3.598   1.059   6.534
 3709SOL     OW11578   3.086   1.542   7.100
 3709SOL    HW111579   3.075   1.470   7.163
 3709SOL    HW211580   3.019   1.525   7.034
 3710SOL     OW11581   2.171   0.960   5.844
 3710SOL    HW111582   2.252   0.981   5.798
 3710SOL    HW211583   2.143   0.876   5.806
 3711SOL     OW11584   3.345   0.754   6.303
 3711SOL    HW111585   3.343   0.713   6.389
 3711SOL    HW211586   3.424   0.809   6.304
 3712SOL     OW11587   2.334   1.271   7.327
 3712SOL    HW111588   2.308   1.275   7.234
 3712SOL    HW211589   2.251   1.265   7.375
 3713SOL     OW11590   2.993   1.776   5.823
 3713SOL    HW111591   2.906   1.806   5.797
 3713SOL    HW211592   3.018   1.711   5.757
 3714SOL     OW11593   2.050   0.268   7.109
 3714SOL    HW111594   1.985   0.339   7.108
 3714SOL    HW211595   2.082   0.266   7.199
 3715SOL     OW11596   3.493   1.382   5.681
 3715SOL    HW111597   3.452   1.467   5.666
 3715SOL    HW211598   3.426   1.319   5.657
 3716SOL     OW11599   3.296   0.150   6.016
 3716SOL    HW111600   3.280   0.092   5.941
 3716SOL    HW211601   3.389   0.137   6.036
 3717SOL     OW11602   2.098   1.783   6.816
 3717SOL    HW111603   2.160   1.720   6.855
 3717SOL    HW211604   2.101   1.763   6.722
 3718SOL     OW11605   2.801   1.697   6.478
 3718SOL    HW111606   2.880   1.649   6.502
 3718SOL    HW211607   2.761   1.644   6.409
 3719SOL     OW11608   2.259   0.690   6.059
 3719SOL    HW111609   2.278   0.597   6.075
 3719SOL    HW211610   2.165   0.698   6.076
 3720SOL     OW11611   3.384   0.234   7.308
 3720SOL    HW111612   3.384   0.253   7.401
 3720SOL    HW211613   3.303   0.186   7.293
 3721SOL     OW11614   2.501   0.126   5.709
 3721SOL    HW111615   2.589   0.089   5.724
 3721SOL    HW211616   2.467   0.077   5.635
 3722SOL     OW11617   2.631   0.272   7.345
 3722SOL    HW111618   2.703   0.210   7.335
 3722SOL    HW211619   2.592   0.250   7.429
 3723SOL     OW11620   2.739   1.527   6.780
 3723SOL    HW111621   2.721   1.484   6.697
 3723SOL    HW211622   2.807   1.472   6.821
 3724SOL     OW11623   3.198   0.591   7.014
 3724SOL    HW111624   3.227   0.564   7.101
 3724SOL    HW211625   3.234   0.680   7.003
 3725SOL     OW11626   2.684   1.383   6.540
 3725SOL    HW111627   2.769   1.372   6.498
 3725SOL    HW211628   2.621   1.383   6.468
 3726SOL     OW11629   2.792   0.533   6.479
 3726SOL    HW111630   2.771   0.527   6.386
 3726SOL    HW211631   2.817   0.444   6.504
 3727SOL     OW11632   2.424   0.100   6.117
 3727SOL    HW111633   2.342   0.057   6.142
 3727SOL    HW211634   2.402   0.149   6.037
 3728SOL     OW11635   3.292   1.203   5.623
 3728SOL    HW111636   3.320   1.128   5.676
 3728SOL    HW211637   3.206   1.225   5.659
 3729SOL     OW11638   2.149   0.054   5.796
 3729SOL    HW111639   2.219   0.120   5.790
 3729SOL    HW211640   2.176   4.497   5.868
 3730SOL     OW11641   2.828   0.242   6.047
 3730SOL    HW111642   2.776   0.307   5.999
 3730SOL    HW211643   2.919   0.272   6.037
 3731SOL     OW11644   2.942   0.689   7.039
 3731SOL    HW111645   2.874   0.621   7.039
 3731SOL    HW211646   3.024   0.641   7.029
 3732SOL     OW11647   3.074   1.576   6.382
 3732SOL    HW111648   3.094   1.635   6.310
 3732SOL    HW211649   3.147   1.587   6.444
 3733SOL     OW11650   2.337   1.155   6.309
 3733SOL    HW111651   2.272   1.132   6.376
 3733SOL    HW211652   2.291   1.143   6.226
 3734SOL     OW11653   3.134   1.784   6.200
 3734SOL    HW111654   3.181   1.847   6.144
 3734SOL    HW211655   3.079   1.839   6.256
 3735SOL     OW11656   2.884   0.532   5.611
 3735SOL    HW111657   2.839   0.614   5.594
 3735SOL    HW211658   2.944   0.551   5.684
 3736SOL     OW11659   1.954   0.547   6.982
 3736SOL    HW111660   2.045   0.553   6.953
 3736SOL    HW211661   1.945   0.618   7.046
 3737SOL     OW11662   2.417   0.253   6.762
 3737SOL    HW111663   2.440   0.172   6.806
 3737SOL    HW211664   2.324   0.266   6.782
 3738SOL     OW11665   2.723   0.505   6.218
 3738SOL    HW111666   2.693   0.540   6.134
 3738SOL    HW211667   2.668   0.429   6.234
 3739SOL     OW11668   2.790   0.003   6.407
 3739SOL    HW111669   2.760   0.011   6.316
 3739SOL    HW211670   2.816   4.412   6.416
 3740SOL     OW11671   3.301   1.158   6.442
 3740SOL    HW111672   3.233   1.091   6.443
 3740SOL    HW211673   3.326   1.165   6.350
 3741SOL     OW11674   3.327   0.613   6.544
 3741SOL    HW111675   3.268   0.538   6.544
 3741SOL    HW211676   3.380   0.603   6.623
 3742SOL     OW11677   3.698   0.806   5.973
 3742SOL    HW111678   3.758   0.760   6.032
 3742SOL    HW211679   3.678   0.744   5.904
 3743SOL     OW11680   2.332   1.445   5.741
 3743SOL    HW111681   2.268   1.398   5.793
 3743SOL    HW211682   2.351   1.386   5.668
 3744SOL     OW11683   3.546   1.265   6.226
 3744SOL    HW111684   3.641   1.261   6.242
 3744SOL    HW211685   3.521   1.355   6.248
 3745SOL     OW11686   3.256   0.577   5.655
 3745SOL    HW111687   3.193   0.559   5.724
 3745SOL    HW211688   3.341   0.563   5.696
 3746SOL     OW11689   2.366   0.260   5.899
 3746SOL    HW111690   2.425   0.216   5.838
 3746SOL    HW211691   2.347   0.344   5.858
 3747SOL     OW11692   3.607   1.243   7.140
 3747SOL    HW111693   3.694   1.205   7.130
 3747SOL    HW211694   3.622   1.332   7.172
 3748SOL     OW11695   2.913   1.356   6.919
 3748SOL    HW111696   2.837   1.323   6.966
 3748SOL    HW211697   2.988   1.312   6.959
 3749SOL     OW11698   3.471   1.629   7.247
 3749SOL    HW111699   3.462   1.664   7.159
 3749SOL    HW211700   3.552   1.578   7.245
 3750SOL     OW11701   3.003   1.219   6.688
 3750SOL    HW111702   2.940   1.255   6.751
 3750SOL    HW211703   2.972   1.251   6.603
 3751SOL     OW11704   3.479   1.093   6.663
 3751SOL    HW111705   3.472   1.157   6.733
 3751SOL    HW211706   3.406   1.113   6.605
 3752SOL     OW11707   2.751   0.140   6.965
 3752SOL    HW111708   2.777   0.090   6.888
 3752SOL    HW211709   2.834   0.165   7.006
 3753SOL     OW11710   2.845   1.116   7.309
 3753SOL    HW111711   2.754   1.132   7.335
 3753SOL    HW211712   2.842   1.036   7.256
 3754SOL     OW11713   2.569   1.065   5.958
 3754SOL    HW111714   2.555   1.041   6.050
 3754SOL    HW211715   2.646   1.013   5.931
 3755SOL     OW11716   2.287   0.824   6.839
 3755SOL    HW111717   2.355   0.833   6.906
 3755SOL    HW211718   2.253   0.735   6.850
 3756SOL     OW11719   3.130   0.373   6.864
 3756SOL    HW111720   3.162   0.452   6.908
 3756SOL    HW211721   3.040   0.394   6.839
 3757SOL     OW11722   1.938   1.568   6.944
 3757SOL    HW111723   1.912   1.649   6.898
 3757SOL    HW211724   2.033   1.568   6.940
 3758SOL     OW11725   2.191   1.125   6.074
 3758SOL    HW111726   2.183   1.199   6.013
 3758SOL    HW211727   2.193   1.048   6.019
 3759SOL     OW11728   2.411   0.514   6.444
 3759SOL    HW111729   2.420   0.574   6.369
 3759SOL    HW211730   2.478   0.543   6.506
 3760SOL     OW11731   3.117   1.349   5.974
 3760SOL    HW111732   3.177   1.418   6.004
 3760SOL    HW211733   3.033   1.370   6.015
 3761SOL     OW11734   3.158   1.460   6.734
 3761SOL    HW111735   3.211   1.467   6.813
 3761SOL    HW211736   3.105   1.381   6.746
 3762SOL     OW11737   3.437   0.623   6.066
 3762SOL    HW111738   3.387   0.661   6.138
 3762SOL    HW211739   3.483   0.698   6.027
 3763SOL     OW11740   2.210   1.527   6.899
 3763SOL    HW111741   2.196   1.481   6.816
 3763SOL    HW211742   2.304   1.540   6.905
 3764SOL     OW11743   2.288   0.740   7.196
 3764SOL    HW111744   2.344   0.786   7.135
 3764SOL    HW211745   2.335   0.659   7.216
 3765SOL     OW11746   3.475   0.783   7.276
 3765SOL    HW111747   3.389   0.824   7.268
 3765SOL    HW211748   3.527   0.823   7.206
 3766SOL     OW11749   2.846   0.098   7.292
 3766SOL    HW111750   2.902   0.166   7.255
 3766SOL    HW211751   2.868   0.019   7.242
 3767SOL     OW11752   2.369   0.037   7.350
 3767SOL    HW111753   2.393   0.027   7.258
 3767SOL    HW211754   2.299   0.102   7.349
 3768SOL     OW11755   2.448   0.877   6.618
 3768SOL    HW111756   2.485   0.965   6.625
 3768SOL    HW211757   2.391   0.869   6.695
 3769SOL     OW11758   3.197   0.857   6.601
 3769SOL    HW111759   3.110   0.837   6.569
 3769SOL    HW211760   3.247   0.777   6.588
 3770SOL     OW11761   3.055   0.538   5.838
 3770SOL    HW111762   3.065   0.460   5.892
 3770SOL    HW211763   3.013   0.602   5.895
 3771SOL     OW11764   2.147   0.226   6.832
 3771SOL    HW111765   2.098   0.245   6.912
 3771SOL    HW211766   2.193   0.144   6.851
 3772SOL     OW11767   1.910   1.310   6.856
 3772SOL    HW111768   1.941   1.256   6.928
 3772SOL    HW211769   1.913   1.400   6.890
 3773SOL     OW11770   2.579   0.629   6.632
 3773SOL    HW111771   2.656   0.617   6.577
 3773SOL    HW211772   2.550   0.718   6.613
 3774SOL     OW11773   3.605   0.961   7.448
 3774SOL    HW111774   3.562   0.892   7.396
 3774SOL    HW211775   3.543   0.980   7.518
 3775SOL     OW11776   2.150   0.038   6.228
 3775SOL    HW111777   2.136   0.133   6.230
 3775SOL    HW211778   2.164   0.014   6.320
 3776SOL     OW11779   3.488   0.391   5.933
 3776SOL    HW111780   3.511   0.324   5.996
 3776SOL    HW211781   3.462   0.466   5.986
 3777SOL     OW11782   2.901   0.771   6.547
 3777SOL    HW111783   2.885   0.785   6.640
 3777SOL    HW211784   2.868   0.682   6.530
 3778SOL     OW11785   2.842   1.566   7.311
 3778SOL    HW111786   2.826   1.609   7.227
 3778SOL    HW211787   2.885   1.484   7.288
 3779SOL     OW11788   3.710   1.499   7.189
 3779SOL    HW111789   3.733   1.527   7.101
 3779SOL    HW211790   3.790   1.512   7.240
 3780SOL     OW11791   2.213   0.917   7.395
 3780SOL    HW111792   2.292   0.936   7.446
 3780SOL    HW211793   2.242   0.852   7.331
 3781SOL     OW11794   3.387   0.258   5.712
 3781SOL    HW111795   3.323   0.198   5.751
 3781SOL    HW211796   3.421   0.308   5.786
 3782SOL     OW11797   3.145   0.826   5.611
 3782SOL    HW111798   3.186   0.740   5.616
 3782SOL    HW211799   3.178   0.864   5.530
 3783SOL     OW11800   2.930   1.342   6.443
 3783SOL    HW111801   2.939   1.269   6.381
 3783SOL    HW211802   2.988   1.410   6.408
 3784SOL     OW11803   2.172   0.812   6.532
 3784SOL    HW111804   2.266   0.831   6.525
 3784SOL    HW211805   2.168   0.722   6.564
 3785SOL     OW11806   2.193   0.537   6.600
 3785SOL    HW111807   2.148   0.454   6.584
 3785SOL    HW211808   2.270   0.534   6.544
 3786SOL     OW11809   3.006   0.366   7.295
 3786SOL    HW111810   2.950   0.425   7.345
 3786SOL    HW211811   3.086   0.416   7.280
 3787SOL     OW11812   3.002   0.220   7.062
 3787SOL    HW111813   3.007   0.282   7.134
 3787SOL    HW211814   3.053   0.261   6.992
 3788SOL     OW11815   1.887   1.312   5.775
 3788SOL    HW111816   1.802   1.344   5.745
 3788SOL    HW211817   1.869   1.226   5.813
 3789SOL     OW11818   1.944   1.790   6.527
 3789SOL    HW111819   1.910   1.711   6.485
 3789SOL    HW211820   2.015   1.819   6.470
 3790SOL     OW11821   2.349   1.564   6.495
 3790SOL    HW111822   2.409   1.635   6.516
 3790SOL    HW211823   2.398   1.508   6.435
 3791SOL     OW11824   2.827   0.792   6.809
 3791SOL    HW111825   2.888   0.773   6.881
 3791SOL    HW211826   2.748   0.742   6.830
 3792SOL     OW11827   1.892   0.551   6.707
 3792SOL    HW111828   1.966   0.530   6.650
 3792SOL    HW211829   1.929   0.551   6.795
 3793SOL     OW11830   2.044   0.528   7.315
 3793SOL    HW111831   2.127   0.516   7.270
 3793SOL    HW211832   2.003   0.603   7.272
 3794SOL     OW11833   3.246   0.930   7.241
 3794SOL    HW111834   3.266   1.023   7.236
 3794SOL    HW211835   3.240   0.902   7.149
 3795SOL     OW11836   2.672   0.583   5.955
 3795SOL    HW111837   2.680   0.510   5.893
 3795SOL    HW211838   2.598   0.633   5.923
 3796SOL     OW11839   3.497   0.602   6.762
 3796SOL    HW111840   3.486   0.543   6.837
 3796SOL    HW211841   3.586   0.585   6.730
 3797SOL     OW11842   2.101   1.543   7.310
 3797SOL    HW111843   2.075   1.606   7.377
 3797SOL    HW211844   2.106   1.459   7.356
 3798SOL     OW11845   2.586   0.454   6.839
 3798SOL    HW111846   2.530   0.380   6.816
 3798SOL    HW211847   2.577   0.515   6.766
 3799SOL     OW11848   2.778   1.677   7.063
 3799SOL    HW111849   2.757   1.637   6.979
 3799SOL    HW211850   2.780   1.771   7.044
 3800SOL     OW11851   2.316   0.491   5.764
 3800SOL    HW111852   2.377   0.561   5.787
 3800SOL    HW211853   2.232   0.535   5.755
 3801SOL     OW11854   2.000   1.145   7.062
 3801SOL    HW111855   2.003   1.101   7.147
 3801SOL    HW211856   2.017   1.076   6.999
 3802SOL     OW11857   3.178   1.041   6.802
 3802SOL    HW111858   3.196   0.977   6.733
 3802SOL    HW211859   3.116   1.101   6.762
 3803SOL     OW11860   3.181   0.857   5.886
 3803SOL    HW111861   3.108   0.826   5.940
 3803SOL    HW211862   3.151   0.844   5.796
 3804SOL     OW11863   3.649   1.730   6.750
 3804SOL    HW111864   3.708   1.757   6.679
 3804SOL    HW211865   3.616   1.644   6.723
 3805SOL     OW11866   3.102   1.728   6.686
 3805SOL    HW111867   3.185   1.756   6.646
 3805SOL    HW211868   3.116   1.636   6.708
 3806SOL     OW11869   1.956   1.260   6.594
 3806SOL    HW111870   1.935   1.277   6.686
 3806SOL    HW211871   1.882   1.209   6.561
 3807SOL     OW11872   2.545   1.673   7.330
 3807SOL    HW111873   2.485   1.745   7.310
 3807SOL    HW211874   2.621   1.689   7.273
 3808SOL     OW11875   3.586   0.128   6.063
 3808SOL    HW111876   3.651   0.145   5.994
 3808SOL    HW211877   3.624   0.057   6.115
 3809SOL     OW11878   3.263   1.564   6.079
 3809SOL    HW111879   3.319   1.599   6.010
 3809SOL    HW211880   3.209   1.638   6.107
 3810SOL     OW11881   1.997   1.793   7.425
 3810SOL    HW111882   1.947   1.724   7.469
 3810SOL    HW211883   2.046   1.836   7.496
 3811SOL     OW11884   3.142   0.934   6.260
 3811SOL    HW111885   3.215   0.873   6.270
 3811SOL    HW211886   3.177   1.004   6.204
 3812SOL     OW11887   2.660   1.280   7.004
 3812SOL    HW111888   2.633   1.322   7.086
 3812SOL    HW211889   2.585   1.293   6.945
 3813SOL     OW11890   3.479   1.728   6.980
 3813SOL    HW111891   3.535   1.732   6.902
 3813SOL    HW211892   3.465   1.820   7.002
 3814SOL     OW11893   3.706   0.149   6.551
 3814SOL    HW111894   3.738   0.070   6.508
 3814SOL    HW211895   3.619   0.163   6.513
 3815SOL     OW11896   2.116   0.307   6.294
 3815SOL    HW111897   2.033   0.348   6.273
 3815SOL    HW211898   2.118   0.305   6.390
 3816SOL     OW11899   3.074   1.601   5.624
 3816SOL    HW111900   3.063   1.509   5.649
 3816SOL    HW211901   3.006   1.616   5.558
 3817SOL     OW11902   2.685   1.008   6.966
 3817SOL    HW111903   2.728   0.996   6.882
 3817SOL    HW211904   2.681   1.103   6.978
 3818SOL     OW11905   2.780   0.917   5.880
 3818SOL    HW111906   2.839   0.947   5.812
 3818SOL    HW211907   2.828   0.847   5.925
 3819SOL     OW11908   3.353   1.628   5.634
 3819SOL    HW111909   3.259   1.619   5.620
 3819SOL    HW211910   3.391   1.634   5.546
 3820SOL     OW11911   2.230   1.304   7.080
 3820SOL    HW111912   2.217   1.381   7.025
 3820SOL    HW211913   2.151   1.251   7.065
 3821SOL     OW11914   3.466   1.286   6.865
 3821SOL    HW111915   3.525   1.266   6.939
 3821SOL    HW211916   3.407   1.353   6.899
 3822SOL     OW11917   2.927   1.112   6.300
 3822SOL    HW111918   2.854   1.061   6.336
 3822SOL    HW211919   2.993   1.047   6.277
 3823SOL     OW11920   2.857   0.247   6.603
 3823SOL    HW111921   2.870   0.235   6.508
 3823SOL    HW211922   2.844   0.158   6.637
 3824SOL     OW11923   3.590   0.395   6.959
 3824SOL    HW111924   3.666   0.453   6.959
 3824SOL    HW211925   3.615   0.322   6.901
 3825SOL     OW11926   2.130   1.345   5.910
 3825SOL    HW111927   2.047   1.340   5.864
 3825SOL    HW211928   2.112   1.399   5.987
 3826SOL     OW11929   1.980   1.044   7.319
 3826SOL    HW111930   1.902   1.013   7.366
 3826SOL    HW211931   2.052   0.994   7.356
 3827SOL     OW11932   2.517   0.206   7.096
 3827SOL    HW111933   2.594   0.183   7.044
 3827SOL    HW211934   2.553   0.233   7.181
 3828SOL     OW11935   1.947   0.320   5.628
 3828SOL    HW111936   1.878   0.264   5.592
 3828SOL    HW211937   1.948   0.397   5.571
 3829SOL     OW11938   3.284   0.857   6.980
 3829SOL    HW111939   3.233   0.917   6.925
 3829SOL    HW211940   3.372   0.859   6.943
 3830SOL     OW11941   1.919   0.194   5.883
 3830SOL    HW111942   1.924   0.261   5.815
 3830SOL    HW211943   1.992   0.135   5.865
 3831SOL     OW11944   3.041   1.333   5.703
 3831SOL    HW111945   2.951   1.299   5.705
 3831SOL    HW211946   3.068   1.333   5.795
 3832SOL     OW11947   2.484   0.831   7.023
 3832SOL    HW111948   2.541   0.907   7.010
 3832SOL    HW211949   2.544   0.757   7.030
 3833SOL     OW11950   3.345   1.791   6.571
 3833SOL    HW111951   3.368   1.862   6.510
 3833SOL    HW211952   3.429   1.755   6.598
 3834SOL     OW11953   2.577   0.554   7.287
 3834SOL    HW111954   2.623   0.614   7.346
 3834SOL    HW211955   2.598   0.467   7.320
 3835SOL     OW11956   3.335   1.191   7.212
 3835SOL    HW111957   3.324   1.208   7.306
 3835SOL    HW211958   3.426   1.212   7.194
 3836SOL     OW11959   2.234   1.736   7.155
 3836SOL    HW111960   2.151   1.780   7.135
 3836SOL    HW211961   2.208   1.653   7.194
 3837SOL     OW11962   3.522   0.878   6.841
 3837SOL    HW111963   3.519   0.793   6.797
 3837SOL    HW211964   3.512   0.942   6.771
 3838SOL     OW11965   3.090   0.339   6.026
 3838SOL    HW111966   3.162   0.276   6.013
 3838SOL    HW211967   3.116   0.387   6.105
 3839SOL     OW11968   2.439   0.732   6.268
 3839SOL    HW111969   2.485   0.814   6.251
 3839SOL    HW211970   2.378   0.722   6.195
 3840SOL     OW11971   3.613   0.377   7.230
 3840SOL    HW111972   3.601   0.389   7.136
 3840SOL    HW211973   3.539   0.322   7.256
 3841SOL     OW11974   3.616   0.931   7.095
 3841SOL    HW111975   3.600   1.024   7.108
 3841SOL    HW211976   3.594   0.915   7.003
 3842SOL     OW11977   2.720   1.366   5.635
 3842SOL    HW111978   2.687   1.397   5.719
 3842SOL    HW211979   2.742   1.447   5.587
 3843SOL     OW11980   2.518   1.783   6.530
 3843SOL    HW111981   2.504   1.850   6.597
 3843SOL    HW211982   2.613   1.766   6.532
 3844SOL     OW11983   2.732   0.974   6.440
 3844SOL    HW111984   2.786   0.902   6.475
 3844SOL    HW211985   2.689   1.011   6.517
 3845SOL     OW11986   2.939   0.991   5.676
 3845SOL    HW111987   2.916   1.041   5.598
 3845SOL    HW211988   3.011   0.935   5.648
 3846SOL     OW11989   3.707   1.555   6.426
 3846SOL    HW111990   3.627   1.543   6.375
 3846SOL    HW211991   3.703   1.487   6.493
 3847SOL     OW11992   2.083   1.291   7.435
 3847SOL    HW111993   2.036   1.219   7.393
 3847SOL    HW211994   2.037   1.305   7.518
 3848SOL     OW11995   1.968   1.217   6.244
 3848SOL    HW111996   1.973   1.176   6.330
 3848SOL    HW211997   2.027   1.164   6.190
 3849SOL     OW11998   2.548   1.411   7.217
 3849SOL    HW111999   2.471   1.368   7.253
 3849SOL    HW212000   2.547   1.498   7.256
 3850SOL     OW12001   3.656   0.170   6.822
 3850SOL    HW112002   3.650   0.076   6.840
 3850SOL    HW212003   3.679   0.176   6.730
 3851SOL     OW12004   2.296   0.430   6.117
 3851SOL    HW112005   2.318   0.362   6.053
 3851SOL    HW212006   2.242   0.384   6.183
 3852SOL     OW12007   3.554   1.486   6.677
 3852SOL    HW112008   3.478   1.466   6.623
 3852SOL    HW212009   3.557   1.415   6.742
 3853SOL     OW12010   2.203   0.566   6.879
 3853SOL    HW112011   2.255   0.506   6.932
 3853SOL    HW212012   2.218   0.538   6.789
 3854SOL     OW12013   2.688   1.561   6.263
 3854SOL    HW112014   2.638   1.613   6.200
 3854SOL    HW212015   2.627   1.493   6.292
 3855SOL     OW12016   3.289   0.222   6.698
 3855SOL    HW112017   3.326   0.150   6.750
 3855SOL    HW212018   3.238   0.273   6.762
 3856SOL     OW12019   2.855   4.495   6.746
 3856SOL    HW112020   2.823   4.405   6.745
 3856SOL    HW212021   2.950   4.486   6.748
 3857SOL     OW12022   2.660   1.337   5.919
 3857SOL    HW112023   2.605   1.259   5.915
 3857SOL    HW212024   2.738   1.310   5.968
 3858SOL     OW12025   2.483   1.557   6.872
 3858SOL    HW112026   2.480   1.641   6.918
 3858SOL    HW212027   2.573   1.551   6.839
 3859SOL     OW12028   3.203   0.048   5.762
 3859SOL    HW112029   3.238   4.474   5.715
 3859SOL    HW212030   3.122   0.015   5.802
 3860SOL     OW12031   3.180   0.473   6.251
 3860SOL    HW112032   3.125   0.551   6.253
 3860SOL    HW212033   3.168   0.433   6.338
 3861SOL     OW12034   3.450   0.196   6.460
 3861SOL    HW112035   3.392   0.213   6.534
 3861SOL    HW212036   3.450   0.278   6.411
 3862SOL     OW12037   1.901   1.059   5.899
 3862SOL    HW112038   1.994   1.051   5.876
 3862SOL    HW212039   1.874   0.969   5.920
 3863SOL     OW12040   2.077   0.623   7.580
 3863SOL    HW112041   1.991   0.615   7.620
 3863SOL    HW212042   2.064   0.598   7.489
 3864SOL     OW12043   2.064   0.304   8.441
 3864SOL    HW112044   2.096   0.270   8.524
 3864SOL    HW212045   1.983   0.255   8.424
 3865SOL     OW12046   1.864   0.398   8.080
 3865SOL    HW112047   1.778   0.413   8.120
 3865SOL    HW212048   1.849   0.328   8.017
 3866SOL     OW12049   2.432   1.299   8.638
 3866SOL    HW112050   2.346   1.304   8.596
 3866SOL    HW212051   2.449   1.389   8.668
 3867SOL     OW12052   3.440   1.517   8.157
 3867SOL    HW112053   3.396   1.491   8.238
 3867SOL    HW212054   3.371   1.520   8.091
 3868SOL     OW12055   3.007   0.696   8.135
 3868SOL    HW112056   3.049   0.782   8.130
 3868SOL    HW212057   2.953   0.700   8.214
 3869SOL     OW12058   3.653   0.595   7.668
 3869SOL    HW112059   3.620   0.591   7.578
 3869SOL    HW212060   3.610   0.521   7.712
 3870SOL     OW12061   2.601   1.135   8.498
 3870SOL    HW112062   2.538   1.174   8.557
 3870SOL    HW212063   2.643   1.209   8.455
 3871SOL     OW12064   2.737   0.757   9.274
 3871SOL    HW112065   2.725   0.826   9.339
 3871SOL    HW212066   2.759   0.804   9.193
 3872SOL     OW12067   2.547   0.992   8.091
 3872SOL    HW112068   2.614   0.987   8.159
 3872SOL    HW212069   2.479   1.048   8.128
 3873SOL     OW12070   2.577   1.149   9.271
 3873SOL    HW112071   2.625   1.225   9.303
 3873SOL    HW212072   2.498   1.186   9.231
 3874SOL     OW12073   2.195   1.409   8.517
 3874SOL    HW112074   2.119   1.367   8.476
 3874SOL    HW212075   2.236   1.458   8.446
 3875SOL     OW12076   3.319   1.503   8.813
 3875SOL    HW112077   3.374   1.582   8.823
 3875SOL    HW212078   3.250   1.515   8.877
 3876SOL     OW12079   2.309   0.389   8.922
 3876SOL    HW112080   2.389   0.337   8.931
 3876SOL    HW212081   2.239   0.327   8.940
 3877SOL     OW12082   3.462   0.438   8.187
 3877SOL    HW112083   3.383   0.452   8.135
 3877SOL    HW212084   3.465   0.513   8.246
 3878SOL     OW12085   2.081   1.726   7.923
 3878SOL    HW112086   2.103   1.802   7.977
 3878SOL    HW212087   2.159   1.710   7.870
 3879SOL     OW12088   3.000   1.342   9.143
 3879SOL    HW112089   3.042   1.334   9.229
 3879SOL    HW212090   2.948   1.263   9.135
 3880SOL     OW12091   2.095   1.450   7.988
 3880SOL    HW112092   2.069   1.542   7.993
 3880SOL    HW212093   2.039   1.405   8.051
 3881SOL     OW12094   2.137   1.091   8.338
 3881SOL    HW112095   2.132   1.002   8.373
 3881SOL    HW212096   2.078   1.142   8.393
 3882SOL     OW12097   2.465   1.782   8.875
 3882SOL    HW112098   2.384   1.768   8.924
 3882SOL    HW212099   2.490   1.872   8.895
 3883SOL     OW12100   2.435   0.988   7.592
 3883SOL    HW112101   2.486   1.030   7.522
 3883SOL    HW212102   2.475   1.018   7.673
 3884SOL     OW12103   3.431   0.121   8.905
 3884SOL    HW112104   3.481   0.182   8.851
 3884SOL    HW212105   3.425   0.163   8.991
 3885SOL     OW12106   1.984   0.658   8.010
 3885SOL    HW112107   1.952   0.571   8.033
 3885SOL    HW212108   1.976   0.708   8.091
 3886SOL     OW12109   3.705   1.752   7.775
 3886SOL    HW112110   3.775   1.728   7.836
 3886SOL    HW212111   3.721   1.844   7.755
 3887SOL     OW12112   1.905   1.584   7.566
 3887SOL    HW112113   1.885   1.493   7.586
 3887SOL    HW212114   1.878   1.633   7.644
 3888SOL     OW12115   3.554   0.923   8.097
 3888SOL    HW112116   3.636   0.878   8.076
 3888SOL    HW212117   3.533   0.973   8.019
 3889SOL     OW12118   3.514   1.102   7.878
 3889SOL    HW112119   3.601   1.100   7.837
 3889SOL    HW212120   3.523   1.167   7.948
 3890SOL     OW12121   1.981   0.749   9.028
 3890SOL    HW112122   2.069   0.786   9.031
 3890SOL    HW212123   1.923   0.825   9.022
 3891SOL     OW12124   2.484   1.389   8.180
 3891SOL    HW112125   2.439   1.305   8.188
 3891SOL    HW212126   2.466   1.418   8.090
 3892SOL     OW12127   3.144   1.234   8.866
 3892SOL    HW112128   3.173   1.165   8.807
 3892SOL    HW212129   3.204   1.228   8.941
 3893SOL     OW12130   2.690   0.026   8.011
 3893SOL    HW112131   2.730   0.108   7.981
 3893SOL    HW212132   2.596   0.040   8.002
 3894SOL     OW12133   2.049   0.958   8.735
 3894SOL    HW112134   2.136   0.922   8.719
 3894SOL    HW212135   1.993   0.918   8.668
 3895SOL     OW12136   3.394   1.003   7.648
 3895SOL    HW112137   3.325   0.945   7.680
 3895SOL    HW212138   3.437   1.035   7.727
 3896SOL     OW12139   3.044   1.817   9.077
 3896SOL    HW112140   3.052   1.879   9.005
 3896SOL    HW212141   3.062   1.732   9.038
 3897SOL     OW12142   2.181   0.249   9.225
 3897SOL    HW112143   2.246   0.310   9.260
 3897SOL    HW212144   2.106   0.257   9.284
 3898SOL     OW12145   3.329   1.419   8.389
 3898SOL    HW112146   3.264   1.435   8.458
 3898SOL    HW212147   3.315   1.328   8.364
 3899SOL     OW12148   3.511   1.764   8.022
 3899SOL    HW112149   3.493   1.727   7.936
 3899SOL    HW212150   3.499   1.691   8.083
 3900SOL     OW12151   2.449   0.719   7.718
 3900SOL    HW112152   2.449   0.805   7.675
 3900SOL    HW212153   2.384   0.727   7.787
 3901SOL     OW12154   3.157   0.383   8.375
 3901SOL    HW112155   3.069   0.351   8.355
 3901SOL    HW212156   3.192   0.319   8.437
 3902SOL     OW12157   3.439   1.675   7.760
 3902SOL    HW112158   3.532   1.697   7.752
 3902SOL    HW212159   3.410   1.658   7.671
 3903SOL     OW12160   2.658   0.621   8.899
 3903SOL    HW112161   2.630   0.591   8.985
 3903SOL    HW212162   2.628   0.552   8.839
 3904SOL     OW12163   3.251   0.486   9.124
 3904SOL    HW112164   3.256   0.530   9.209
 3904SOL    HW212165   3.318   0.418   9.129
 3905SOL     OW12166   2.810   0.884   9.038
 3905SOL    HW112167   2.865   0.817   8.997
 3905SOL    HW212168   2.761   0.922   8.965
 3906SOL     OW12169   2.865   0.418   8.677
 3906SOL    HW112170   2.773   0.426   8.703
 3906SOL    HW212171   2.862   0.360   8.600
 3907SOL     OW12172   2.916   0.701   7.870
 3907SOL    HW112173   2.937   0.692   7.963
 3907SOL    HW212174   2.830   0.659   7.861
 3908SOL     OW12175   1.952   0.823   8.226
 3908SOL    HW112176   2.032   0.816   8.279
 3908SOL    HW212177   1.905   0.898   8.263
 3909SOL     OW12178   1.990   1.855   9.028
 3909SOL    HW112179   1.993   1.833   9.121
 3909SOL    HW212180   1.897   1.857   9.006
 3910SOL     OW12181   2.725   0.373   7.651
 3910SOL    HW112182   2.780   0.408   7.581
 3910SOL    HW212183   2.730   0.278   7.641
 3911SOL     OW12184   3.560   0.569   9.280
 3911SOL    HW112185   3.529   0.645   9.231
 3911SOL    HW212186   3.591   0.508   9.213
 3912SOL     OW12187   3.247   1.144   7.987
 3912SOL    HW112188   3.326   1.132   7.934
 3912SOL    HW212189   3.193   1.205   7.936
 3913SOL     OW12190   2.392   0.215   8.353
 3913SOL    HW112191   2.414   0.233   8.445
 3913SOL    HW212192   2.394   0.301   8.312
 3914SOL     OW12193   2.861   1.445   7.914
 3914SOL    HW112194   2.832   1.521   7.864
 3914SOL    HW212195   2.836   1.465   8.004
 3915SOL     OW12196   2.219   1.800   8.317
 3915SOL    HW112197   2.242   1.707   8.314
 3915SOL    HW212198   2.299   1.844   8.347
 3916SOL     OW12199   3.663   1.054   8.326
 3916SOL    HW112200   3.613   1.033   8.247
 3916SOL    HW212201   3.598   1.059   8.396
 3917SOL     OW12202   3.087   1.542   8.963
 3917SOL    HW112203   3.076   1.470   9.024
 3917SOL    HW212204   3.017   1.529   8.898
 3918SOL     OW12205   2.170   0.960   7.704
 3918SOL    HW112206   2.253   0.981   7.660
 3918SOL    HW212207   2.144   0.876   7.668
 3919SOL     OW12208   3.346   0.754   8.164
 3919SOL    HW112209   3.343   0.713   8.251
 3919SOL    HW212210   3.424   0.809   8.166
 3920SOL     OW12211   2.334   1.271   9.188
 3920SOL    HW112212   2.308   1.276   9.096
 3920SOL    HW212213   2.251   1.264   9.236
 3921SOL     OW12214   2.989   1.777   7.676
 3921SOL    HW112215   2.912   1.740   7.717
 3921SOL    HW212216   3.013   1.713   7.608
 3922SOL     OW12217   2.050   0.268   8.971
 3922SOL    HW112218   1.986   0.340   8.970
 3922SOL    HW212219   2.082   0.267   9.061
 3923SOL     OW12220   3.492   1.384   7.542
 3923SOL    HW112221   3.450   1.469   7.527
 3923SOL    HW212222   3.424   1.320   7.519
 3924SOL     OW12223   2.325   1.731   7.776
 3924SOL    HW112224   2.372   1.793   7.832
 3924SOL    HW212225   2.393   1.694   7.719
 3925SOL     OW12226   3.297   0.150   7.878
 3925SOL    HW112227   3.280   0.092   7.803
 3925SOL    HW212228   3.390   0.137   7.898
 3926SOL     OW12229   2.096   1.785   8.680
 3926SOL    HW112230   2.158   1.721   8.715
 3926SOL    HW212231   2.098   1.772   8.585
 3927SOL     OW12232   2.795   1.696   8.343
 3927SOL    HW112233   2.875   1.651   8.367
 3927SOL    HW212234   2.761   1.646   8.268
 3928SOL     OW12235   2.259   0.690   7.921
 3928SOL    HW112236   2.278   0.597   7.936
 3928SOL    HW212237   2.165   0.698   7.938
 3929SOL     OW12238   3.384   0.234   9.170
 3929SOL    HW112239   3.384   0.253   9.263
 3929SOL    HW212240   3.303   0.186   9.155
 3930SOL     OW12241   2.502   0.127   7.571
 3930SOL    HW112242   2.589   0.089   7.586
 3930SOL    HW212243   2.467   0.077   7.497
 3931SOL     OW12244   2.631   0.272   9.207
 3931SOL    HW112245   2.703   0.210   9.197
 3931SOL    HW212246   2.592   0.250   9.291
 3932SOL     OW12247   2.739   1.525   8.641
 3932SOL    HW112248   2.721   1.483   8.557
 3932SOL    HW212249   2.807   1.471   8.681
 3933SOL     OW12250   3.199   0.591   8.875
 3933SOL    HW112251   3.227   0.564   8.963
 3933SOL    HW212252   3.234   0.680   8.865
 3934SOL     OW12253   2.681   1.386   8.397
 3934SOL    HW112254   2.767   1.375   8.356
 3934SOL    HW212255   2.620   1.391   8.323
 3935SOL     OW12256   2.792   0.533   8.341
 3935SOL    HW112257   2.772   0.527   8.248
 3935SOL    HW212258   2.817   0.445   8.366
 3936SOL     OW12259   2.424   0.099   7.978
 3936SOL    HW112260   2.342   0.057   8.004
 3936SOL    HW212261   2.401   0.148   7.899
 3937SOL     OW12262   3.291   1.203   7.485
 3937SOL    HW112263   3.321   1.128   7.537
 3937SOL    HW212264   3.206   1.225   7.521
 3938SOL     OW12265   2.149   0.055   7.659
 3938SOL    HW112266   2.219   0.121   7.653
 3938SOL    HW212267   2.176   4.497   7.730
 3939SOL     OW12268   2.829   0.241   7.908
 3939SOL    HW112269   2.776   0.307   7.863
 3939SOL    HW212270   2.919   0.272   7.899
 3940SOL     OW12271   2.942   0.689   8.901
 3940SOL    HW112272   2.874   0.621   8.901
 3940SOL    HW212273   3.024   0.641   8.891
 3941SOL     OW12274   3.076   1.576   8.244
 3941SOL    HW112275   3.091   1.640   8.174
 3941SOL    HW212276   3.147   1.589   8.306
 3942SOL     OW12277   2.338   1.156   8.169
 3942SOL    HW112278   2.274   1.134   8.236
 3942SOL    HW212279   2.290   1.145   8.086
 3943SOL     OW12280   3.123   1.791   8.062
 3943SOL    HW112281   3.172   1.853   8.008
 3943SOL    HW212282   3.054   1.844   8.103
 3944SOL     OW12283   2.885   0.531   7.473
 3944SOL    HW112284   2.840   0.614   7.457
 3944SOL    HW212285   2.944   0.550   7.546
 3945SOL     OW12286   1.954   0.547   8.845
 3945SOL    HW112287   2.045   0.553   8.815
 3945SOL    HW212288   1.945   0.618   8.908
 3946SOL     OW12289   2.417   0.253   8.623
 3946SOL    HW112290   2.440   0.172   8.668
 3946SOL    HW212291   2.324   0.266   8.643
 3947SOL     OW12292   2.724   0.504   8.080
 3947SOL    HW112293   2.693   0.540   7.997
 3947SOL    HW212294   2.668   0.428   8.096
 3948SOL     OW12295   2.791   0.003   8.269
 3948SOL    HW112296   2.760   0.011   8.178
 3948SOL    HW212297   2.816   4.411   8.278
 3949SOL     OW12298   3.300   1.158   8.304
 3949SOL    HW112299   3.231   1.092   8.308
 3949SOL    HW212300   3.322   1.165   8.211
 3950SOL     OW12301   3.327   0.613   8.406
 3950SOL    HW112302   3.268   0.538   8.407
 3950SOL    HW212303   3.380   0.603   8.485
 3951SOL     OW12304   3.698   0.807   7.835
 3951SOL    HW112305   3.758   0.760   7.893
 3951SOL    HW212306   3.679   0.744   7.766
 3952SOL     OW12307   2.351   1.424   7.599
 3952SOL    HW112308   2.275   1.394   7.650
 3952SOL    HW212309   2.349   1.370   7.519
 3953SOL     OW12310   3.547   1.266   8.086
 3953SOL    HW112311   3.641   1.262   8.103
 3953SOL    HW212312   3.522   1.355   8.109
 3954SOL     OW12313   3.256   0.577   7.517
 3954SOL    HW112314   3.193   0.559   7.586
 3954SOL    HW212315   3.341   0.563   7.558
 3955SOL     OW12316   2.365   0.260   7.761
 3955SOL    HW112317   2.425   0.216   7.700
 3955SOL    HW212318   2.347   0.344   7.720
 3956SOL     OW12319   3.606   1.243   9.001
 3956SOL    HW112320   3.694   1.205   8.992
 3956SOL    HW212321   3.622   1.332   9.034
 3957SOL     OW12322   2.912   1.355   8.780
 3957SOL    HW112323   2.837   1.322   8.828
 3957SOL    HW212324   2.988   1.312   8.821
 3958SOL     OW12325   3.472   1.630   9.110
 3958SOL    HW112326   3.462   1.664   9.021
 3958SOL    HW212327   3.552   1.578   9.107
 3959SOL     OW12328   3.003   1.219   8.550
 3959SOL    HW112329   2.940   1.254   8.613
 3959SOL    HW212330   2.973   1.252   8.465
 3960SOL     OW12331   3.479   1.093   8.525
 3960SOL    HW112332   3.472   1.158   8.595
 3960SOL    HW212333   3.406   1.113   8.467
 3961SOL     OW12334   2.751   0.140   8.827
 3961SOL    HW112335   2.777   0.090   8.750
 3961SOL    HW212336   2.834   0.165   8.868
 3962SOL     OW12337   2.846   1.116   9.172
 3962SOL    HW112338   2.755   1.132   9.197
 3962SOL    HW212339   2.842   1.036   9.118
 3963SOL     OW12340   2.573   1.064   7.820
 3963SOL    HW112341   2.558   1.041   7.912
 3963SOL    HW212342   2.648   1.010   7.794
 3964SOL     OW12343   2.286   0.824   8.701
 3964SOL    HW112344   2.355   0.833   8.768
 3964SOL    HW212345   2.252   0.736   8.713
 3965SOL     OW12346   3.130   0.373   8.726
 3965SOL    HW112347   3.162   0.452   8.770
 3965SOL    HW212348   3.040   0.394   8.701
 3966SOL     OW12349   1.937   1.570   8.806
 3966SOL    HW112350   1.913   1.650   8.760
 3966SOL    HW212351   2.033   1.567   8.800
 3967SOL     OW12352   2.191   1.125   7.936
 3967SOL    HW112353   2.190   1.197   7.873
 3967SOL    HW212354   2.190   1.046   7.882
 3968SOL     OW12355   2.411   0.514   8.306
 3968SOL    HW112356   2.420   0.573   8.231
 3968SOL    HW212357   2.477   0.544   8.368
 3969SOL     OW12358   3.110   1.351   7.839
 3969SOL    HW112359   3.165   1.421   7.873
 3969SOL    HW212360   3.022   1.372   7.872
 3970SOL     OW12361   3.157   1.462   8.595
 3970SOL    HW112362   3.210   1.468   8.675
 3970SOL    HW212363   3.104   1.384   8.607
 3971SOL     OW12364   3.437   0.623   7.928
 3971SOL    HW112365   3.387   0.661   8.000
 3971SOL    HW212366   3.482   0.698   7.889
 3972SOL     OW12367   2.208   1.527   8.757
 3972SOL    HW112368   2.197   1.482   8.674
 3972SOL    HW212369   2.303   1.541   8.765
 3973SOL     OW12370   2.288   0.740   9.058
 3973SOL    HW112371   2.344   0.787   8.997
 3973SOL    HW212372   2.336   0.659   9.078
 3974SOL     OW12373   3.475   0.783   9.137
 3974SOL    HW112374   3.389   0.824   9.130
 3974SOL    HW212375   3.527   0.823   9.068
 3975SOL     OW12376   2.846   0.097   9.155
 3975SOL    HW112377   2.902   0.166   9.118
 3975SOL    HW212378   2.868   0.019   9.104
 3976SOL     OW12379   2.369   0.037   9.212
 3976SOL    HW112380   2.394   0.028   9.120
 3976SOL    HW212381   2.299   0.102   9.212
 3977SOL     OW12382   2.448   0.877   8.480
 3977SOL    HW112383   2.484   0.965   8.485
 3977SOL    HW212384   2.391   0.870   8.557
 3978SOL     OW12385   3.197   0.857   8.463
 3978SOL    HW112386   3.109   0.837   8.431
 3978SOL    HW212387   3.246   0.776   8.449
 3979SOL     OW12388   3.055   0.538   7.700
 3979SOL    HW112389   3.065   0.460   7.754
 3979SOL    HW212390   3.013   0.602   7.757
 3980SOL     OW12391   2.147   0.226   8.694
 3980SOL    HW112392   2.098   0.245   8.774
 3980SOL    HW212393   2.193   0.144   8.713
 3981SOL     OW12394   1.908   1.311   8.720
 3981SOL    HW112395   1.940   1.256   8.792
 3981SOL    HW212396   1.912   1.400   8.753
 3982SOL     OW12397   2.579   0.629   8.494
 3982SOL    HW112398   2.656   0.617   8.439
 3982SOL    HW212399   2.549   0.718   8.476
 3983SOL     OW12400   3.605   0.961   9.310
 3983SOL    HW112401   3.562   0.892   9.258
 3983SOL    HW212402   3.543   0.980   9.380
 3984SOL     OW12403   2.151   0.039   8.090
 3984SOL    HW112404   2.136   0.133   8.092
 3984SOL    HW212405   2.165   0.014   8.181
 3985SOL     OW12406   3.489   0.392   7.794
 3985SOL    HW112407   3.511   0.324   7.858
 3985SOL    HW212408   3.462   0.467   7.847
 3986SOL     OW12409   2.902   0.771   8.409
 3986SOL    HW112410   2.886   0.785   8.502
 3986SOL    HW212411   2.869   0.682   8.392
 3987SOL     OW12412   2.844   1.565   9.174
 3987SOL    HW112413   2.828   1.608   9.090
 3987SOL    HW212414   2.887   1.483   9.150
 3988SOL     OW12415   3.710   1.499   9.051
 3988SOL    HW112416   3.733   1.527   8.963
 3988SOL    HW212417   3.790   1.512   9.102
 3989SOL     OW12418   2.213   0.917   9.257
 3989SOL    HW112419   2.292   0.936   9.308
 3989SOL    HW212420   2.242   0.852   9.193
 3990SOL     OW12421   3.387   0.258   7.574
 3990SOL    HW112422   3.323   0.198   7.613
 3990SOL    HW212423   3.421   0.308   7.648
 3991SOL     OW12424   3.145   0.826   7.473
 3991SOL    HW112425   3.186   0.740   7.478
 3991SOL    HW212426   3.179   0.864   7.391
 3992SOL     OW12427   2.931   1.342   8.307
 3992SOL    HW112428   2.938   1.270   8.245
 3992SOL    HW212429   2.987   1.411   8.270
 3993SOL     OW12430   2.172   0.812   8.394
 3993SOL    HW112431   2.265   0.831   8.386
 3993SOL    HW212432   2.169   0.722   8.426
 3994SOL     OW12433   2.193   0.537   8.462
 3994SOL    HW112434   2.148   0.454   8.446
 3994SOL    HW212435   2.270   0.534   8.405
 3995SOL     OW12436   3.006   0.366   9.157
 3995SOL    HW112437   2.950   0.425   9.207
 3995SOL    HW212438   3.086   0.416   9.142
 3996SOL     OW12439   3.003   0.219   8.924
 3996SOL    HW112440   3.007   0.282   8.996
 3996SOL    HW212441   3.053   0.261   8.854
 3997SOL     OW12442   1.876   1.311   7.638
 3997SOL    HW112443   1.787   1.329   7.605
 3997SOL    HW212444   1.870   1.223   7.676
 3998SOL     OW12445   1.951   1.784   8.389
 3998SOL    HW112446   1.917   1.707   8.343
 3998SOL    HW212447   2.040   1.793   8.356
 3999SOL     OW12448   2.352   1.565   8.347
 3999SOL    HW112449   2.421   1.627   8.372
 3999SOL    HW212450   2.397   1.502   8.290
 4000SOL     OW12451   2.828   0.791   8.671
 4000SOL    HW112452   2.888   0.773   8.743
 4000SOL    HW212453   2.748   0.743   8.693
 4001SOL     OW12454   1.893   0.550   8.569
 4001SOL    HW112455   1.967   0.531   8.512
 4001SOL    HW212456   1.929   0.551   8.657
 4002SOL     OW12457   2.044   0.528   9.177
 4002SOL    HW112458   2.127   0.516   9.132
 4002SOL    HW212459   2.003   0.603   9.134
 4003SOL     OW12460   3.246   0.930   9.103
 4003SOL    HW112461   3.266   1.023   9.098
 4003SOL    HW212462   3.240   0.902   9.011
 4004SOL     OW12463   2.672   0.583   7.817
 4004SOL    HW112464   2.680   0.510   7.755
 4004SOL    HW212465   2.598   0.633   7.785
 4005SOL     OW12466   3.497   0.602   8.624
 4005SOL    HW112467   3.486   0.544   8.699
 4005SOL    HW212468   3.585   0.585   8.592
 4006SOL     OW12469   2.098   1.542   9.176
 4006SOL    HW112470   2.075   1.602   9.247
 4006SOL    HW212471   2.105   1.456   9.218
 4007SOL     OW12472   2.586   0.454   8.701
 4007SOL    HW112473   2.530   0.380   8.678
 4007SOL    HW212474   2.577   0.515   8.628
 4008SOL     OW12475   2.784   1.674   8.924
 4008SOL    HW112476   2.756   1.634   8.842
 4008SOL    HW212477   2.783   1.768   8.906
 4009SOL     OW12478   2.316   0.491   7.626
 4009SOL    HW112479   2.377   0.561   7.649
 4009SOL    HW212480   2.232   0.535   7.617
 4010SOL     OW12481   2.000   1.145   8.925
 4010SOL    HW112482   2.003   1.101   9.010
 4010SOL    HW212483   2.017   1.076   8.861
 4011SOL     OW12484   3.179   1.041   8.663
 4011SOL    HW112485   3.196   0.977   8.594
 4011SOL    HW212486   3.116   1.102   8.624
 4012SOL     OW12487   3.182   0.857   7.748
 4012SOL    HW112488   3.109   0.827   7.803
 4012SOL    HW212489   3.151   0.844   7.658
 4013SOL     OW12490   3.648   1.731   8.611
 4013SOL    HW112491   3.707   1.757   8.541
 4013SOL    HW212492   3.616   1.644   8.585
 4014SOL     OW12493   3.102   1.732   8.548
 4014SOL    HW112494   3.185   1.758   8.509
 4014SOL    HW212495   3.114   1.640   8.571
 4015SOL     OW12496   1.958   1.258   8.460
 4015SOL    HW112497   1.935   1.276   8.551
 4015SOL    HW212498   1.883   1.209   8.425
 4016SOL     OW12499   2.547   1.671   9.191
 4016SOL    HW112500   2.487   1.744   9.181
 4016SOL    HW212501   2.617   1.689   9.128
 4017SOL     OW12502   3.586   0.127   7.925
 4017SOL    HW112503   3.651   0.145   7.856
 4017SOL    HW212504   3.624   0.057   7.977
 4018SOL     OW12505   3.257   1.568   7.943
 4018SOL    HW112506   3.314   1.602   7.874
 4018SOL    HW212507   3.205   1.643   7.971
 4019SOL     OW12508   2.004   1.803   9.293
 4019SOL    HW112509   1.956   1.733   9.337
 4019SOL    HW212510   2.052   1.847   9.363
 4020SOL     OW12511   3.142   0.933   8.120
 4020SOL    HW112512   3.215   0.872   8.131
 4020SOL    HW212513   3.177   1.004   8.066
 4021SOL     OW12514   2.660   1.279   8.866
 4021SOL    HW112515   2.633   1.321   8.948
 4021SOL    HW212516   2.585   1.293   8.807
 4022SOL     OW12517   2.527   1.630   7.606
 4022SOL    HW112518   2.543   1.645   7.512
 4022SOL    HW212519   2.473   1.551   7.609
 4023SOL     OW12520   3.479   1.729   8.842
 4023SOL    HW112521   3.535   1.732   8.764
 4023SOL    HW212522   3.465   1.820   8.865
 4024SOL     OW12523   3.705   0.149   8.413
 4024SOL    HW112524   3.738   0.070   8.369
 4024SOL    HW212525   3.619   0.163   8.375
 4025SOL     OW12526   2.116   0.307   8.156
 4025SOL    HW112527   2.033   0.349   8.134
 4025SOL    HW212528   2.118   0.306   8.252
 4026SOL     OW12529   3.070   1.598   7.482
 4026SOL    HW112530   3.059   1.506   7.509
 4026SOL    HW212531   3.003   1.612   7.415
 4027SOL     OW12532   2.685   1.008   8.828
 4027SOL    HW112533   2.728   0.997   8.743
 4027SOL    HW212534   2.681   1.103   8.840
 4028SOL     OW12535   2.779   0.913   7.739
 4028SOL    HW112536   2.839   0.946   7.672
 4028SOL    HW212537   2.829   0.845   7.785
 4029SOL     OW12538   3.349   1.633   7.496
 4029SOL    HW112539   3.256   1.620   7.480
 4029SOL    HW212540   3.388   1.638   7.408
 4030SOL     OW12541   2.229   1.306   8.943
 4030SOL    HW112542   2.217   1.381   8.885
 4030SOL    HW212543   2.151   1.252   8.927
 4031SOL     OW12544   3.467   1.286   8.728
 4031SOL    HW112545   3.524   1.266   8.802
 4031SOL    HW212546   3.407   1.353   8.761
 4032SOL     OW12547   2.928   1.113   8.163
 4032SOL    HW112548   2.855   1.063   8.198
 4032SOL    HW212549   2.993   1.047   8.139
 4033SOL     OW12550   2.858   0.247   8.465
 4033SOL    HW112551   2.870   0.235   8.370
 4033SOL    HW212552   2.844   0.158   8.498
 4034SOL     OW12553   2.470   1.489   7.927
 4034SOL    HW112554   2.520   1.438   7.863
 4034SOL    HW212555   2.390   1.513   7.880
 4035SOL     OW12556   3.590   0.395   8.821
 4035SOL    HW112557   3.666   0.453   8.821
 4035SOL    HW212558   3.615   0.322   8.763
 4036SOL     OW12559   2.130   1.341   7.748
 4036SOL    HW112560   2.040   1.335   7.717
 4036SOL    HW212561   2.124   1.385   7.833
 4037SOL     OW12562   1.980   1.043   9.181
 4037SOL    HW112563   1.902   1.012   9.228
 4037SOL    HW212564   2.052   0.994   9.219
 4038SOL     OW12565   2.517   0.205   8.958
 4038SOL    HW112566   2.594   0.183   8.906
 4038SOL    HW212567   2.553   0.233   9.043
 4039SOL     OW12568   1.947   0.320   7.490
 4039SOL    HW112569   1.878   0.264   7.455
 4039SOL    HW212570   1.948   0.397   7.434
 4040SOL     OW12571   3.284   0.857   8.842
 4040SOL    HW112572   3.233   0.917   8.787
 4040SOL    HW212573   3.372   0.859   8.805
 4041SOL     OW12574   1.919   0.194   7.745
 4041SOL    HW112575   1.924   0.261   7.677
 4041SOL    HW212576   1.992   0.135   7.727
 4042SOL     OW12577   3.041   1.331   7.567
 4042SOL    HW112578   2.951   1.297   7.568
 4042SOL    HW212579   3.067   1.333   7.659
 4043SOL     OW12580   2.484   0.831   8.885
 4043SOL    HW112581   2.541   0.907   8.871
 4043SOL    HW212582   2.544   0.757   8.892
 4044SOL     OW12583   3.346   1.792   8.433
 4044SOL    HW112584   3.370   1.861   8.372
 4044SOL    HW212585   3.429   1.755   8.462
 4045SOL     OW12586   2.577   0.554   9.149
 4045SOL    HW112587   2.623   0.614   9.208
 4045SOL    HW212588   2.598   0.467   9.182
 4046SOL     OW12589   3.335   1.191   9.074
 4046SOL    HW112590   3.324   1.208   9.167
 4046SOL    HW212591   3.426   1.212   9.056
 4047SOL     OW12592   2.234   1.728   9.016
 4047SOL    HW112593   2.152   1.773   8.995
 4047SOL    HW212594   2.208   1.646   9.057
 4048SOL     OW12595   3.522   0.878   8.703
 4048SOL    HW112596   3.519   0.793   8.659
 4048SOL    HW212597   3.512   0.942   8.633
 4049SOL     OW12598   3.091   0.338   7.888
 4049SOL    HW112599   3.162   0.276   7.875
 4049SOL    HW212600   3.116   0.387   7.967
 4050SOL     OW12601   2.439   0.731   8.129
 4050SOL    HW112602   2.485   0.814   8.114
 4050SOL    HW212603   2.379   0.723   8.056
 4051SOL     OW12604   3.613   0.376   9.092
 4051SOL    HW112605   3.601   0.389   8.998
 4051SOL    HW212606   3.539   0.321   9.118
 4052SOL     OW12607   3.617   0.931   8.957
 4052SOL    HW112608   3.600   1.024   8.970
 4052SOL    HW212609   3.594   0.915   8.865
 4053SOL     OW12610   2.725   1.363   7.496
 4053SOL    HW112611   2.689   1.388   7.581
 4053SOL    HW212612   2.741   1.446   7.451
 4054SOL     OW12613   2.525   1.788   8.386
 4054SOL    HW112614   2.539   1.870   8.435
 4054SOL    HW212615   2.613   1.754   8.372
 4055SOL     OW12616   2.733   0.974   8.301
 4055SOL    HW112617   2.786   0.903   8.338
 4055SOL    HW212618   2.690   1.014   8.377
 4056SOL     OW12619   2.940   0.992   7.537
 4056SOL    HW112620   2.917   1.042   7.459
 4056SOL    HW212621   3.012   0.935   7.510
 4057SOL     OW12622   3.707   1.555   8.288
 4057SOL    HW112623   3.626   1.543   8.238
 4057SOL    HW212624   3.704   1.487   8.355
 4058SOL     OW12625   2.083   1.290   9.297
 4058SOL    HW112626   2.035   1.218   9.256
 4058SOL    HW212627   2.040   1.303   9.381
 4059SOL     OW12628   1.959   1.228   8.112
 4059SOL    HW112629   1.969   1.185   8.196
 4059SOL    HW212630   2.024   1.187   8.055
 4060SOL     OW12631   2.549   1.410   9.079
 4060SOL    HW112632   2.471   1.368   9.115
 4060SOL    HW212633   2.549   1.497   9.118
 4061SOL     OW12634   3.656   0.171   8.684
 4061SOL    HW112635   3.650   0.077   8.702
 4061SOL    HW212636   3.680   0.176   8.592
 4062SOL     OW12637   2.296   0.429   7.979
 4062SOL    HW112638   2.317   0.362   7.915
 4062SOL    HW212639   2.242   0.384   8.044
 4063SOL     OW12640   3.555   1.485   8.539
 4063SOL    HW112641   3.478   1.466   8.486
 4063SOL    HW212642   3.557   1.415   8.605
 4064SOL     OW12643   2.202   0.566   8.741
 4064SOL    HW112644   2.255   0.506   8.794
 4064SOL    HW212645   2.218   0.538   8.651
 4065SOL     OW12646   2.694   1.579   8.120
 4065SOL    HW112647   2.667   1.640   8.051
 4065SOL    HW212648   2.622   1.515   8.124
 4066SOL     OW12649   3.289   0.222   8.560
 4066SOL    HW112650   3.326   0.150   8.612
 4066SOL    HW212651   3.238   0.273   8.623
 4067SOL     OW12652   2.855   4.495   8.608
 4067SOL    HW112653   2.823   4.404   8.608
 4067SOL    HW212654   2.950   4.486   8.610
 4068SOL     OW12655   2.638   1.334   7.771
 4068SOL    HW112656   2.612   1.242   7.780
 4068SOL    HW212657   2.720   1.340   7.820
 4069SOL     OW12658   2.483   1.554   8.731
 4069SOL    HW112659   2.482   1.635   8.783
 4069SOL    HW212660   2.573   1.549   8.697
 4070SOL     OW12661   3.202   0.049   7.624
 4070SOL    HW112662   3.238   4.474   7.576
 4070SOL    HW212663   3.122   0.015   7.664
 4071SOL     OW12664   3.180   0.472   8.113
 4071SOL    HW112665   3.125   0.551   8.115
 4071SOL    HW212666   3.168   0.433   8.200
 4072SOL     OW12667   3.450   0.196   8.322
 4072SOL    HW112668   3.392   0.213   8.396
 4072SOL    HW212669   3.450   0.278   8.273
 4073SOL     OW12670   1.904   1.061   7.758
 4073SOL    HW112671   1.997   1.051   7.737
 4073SOL    HW212672   1.875   0.972   7.779
 4074SOL     OW12673   2.752   1.664   7.784
 4074SOL    HW112674   2.676   1.648   7.728
 4074SOL    HW212675   2.725   1.737   7.841
 4075SOL     OW12676   2.077   0.623   9.442
 4075SOL    HW112677   1.991   0.615   9.482
 4075SOL    HW212678   2.064   0.598   9.350
 4076SOL     OW12679   2.063   0.304  10.302
 4076SOL    HW112680   2.095   0.271  10.387
 4076SOL    HW212681   1.983   0.255  10.286
 4077SOL     OW12682   1.864   0.398   9.942
 4077SOL    HW112683   1.779   0.413   9.982
 4077SOL    HW212684   1.849   0.328   9.879
 4078SOL     OW12685   2.433   1.299  10.502
 4078SOL    HW112686   2.348   1.302  10.459
 4078SOL    HW212687   2.448   1.389  10.531
 4079SOL     OW12688   3.441   1.517  10.019
 4079SOL    HW112689   3.397   1.492  10.100
 4079SOL    HW212690   3.371   1.520   9.953
 4080SOL     OW12691   3.007   0.696   9.997
 4080SOL    HW112692   3.049   0.782   9.993
 4080SOL    HW212693   2.953   0.700  10.077
 4081SOL     OW12694   3.653   0.594   9.530
 4081SOL    HW112695   3.620   0.591   9.440
 4081SOL    HW212696   3.610   0.521   9.574
 4082SOL     OW12697   2.603   1.136  10.361
 4082SOL    HW112698   2.539   1.175  10.420
 4082SOL    HW212699   2.643   1.211  10.316
 4083SOL     OW12700   2.733   0.754   0.029
 4083SOL    HW112701   2.734   0.807   0.109
 4083SOL    HW212702   2.763   0.813  11.060
 4084SOL     OW12703   2.547   0.992   9.953
 4084SOL    HW112704   2.614   0.987  10.021
 4084SOL    HW212705   2.479   1.048   9.990
 4085SOL     OW12706   2.198   1.407  10.378
 4085SOL    HW112707   2.121   1.367  10.337
 4085SOL    HW212708   2.239   1.457  10.307
 4086SOL     OW12709   3.323   1.501  10.669
 4086SOL    HW112710   3.381   1.577  10.673
 4086SOL    HW212711   3.253   1.522  10.732
 4087SOL     OW12712   2.320   0.387  10.767
 4087SOL    HW112713   2.395   0.329  10.778
 4087SOL    HW212714   2.247   0.341  10.810
 4088SOL     OW12715   3.463   0.439  10.049
 4088SOL    HW112716   3.383   0.452   9.997
 4088SOL    HW212717   3.466   0.514  10.107
 4089SOL     OW12718   2.077   1.707   9.769
 4089SOL    HW112719   2.104   1.774   9.833
 4089SOL    HW212720   2.155   1.695   9.714
 4090SOL     OW12721   2.099   1.442   9.852
 4090SOL    HW112722   2.070   1.533   9.849
 4090SOL    HW212723   2.040   1.400   9.915
 4091SOL     OW12724   2.138   1.091  10.201
 4091SOL    HW112725   2.131   1.002  10.237
 4091SOL    HW212726   2.078   1.143  10.255
 4092SOL     OW12727   2.453   1.794  10.722
 4092SOL    HW112728   2.380   1.775  10.781
 4092SOL    HW212729   2.487   1.879  10.752
 4093SOL     OW12730   2.435   0.988   9.454
 4093SOL    HW112731   2.486   1.030   9.384
 4093SOL    HW212732   2.475   1.018   9.535
 4094SOL     OW12733   3.410   0.141  10.799
 4094SOL    HW112734   3.442   0.201  10.732
 4094SOL    HW212735   3.487   0.125  10.854
 4095SOL     OW12736   1.984   0.658   9.872
 4095SOL    HW112737   1.952   0.571   9.895
 4095SOL    HW212738   1.976   0.708   9.953
 4096SOL     OW12739   3.705   1.751   9.636
 4096SOL    HW112740   3.775   1.728   9.698
 4096SOL    HW212741   3.721   1.844   9.617
 4097SOL     OW12742   1.911   1.587   9.426
 4097SOL    HW112743   1.889   1.496   9.444
 4097SOL    HW212744   1.879   1.635   9.502
 4098SOL     OW12745   3.554   0.922   9.959
 4098SOL    HW112746   3.636   0.878   9.938
 4098SOL    HW212747   3.532   0.972   9.881
 4099SOL     OW12748   3.514   1.102   9.740
 4099SOL    HW112749   3.601   1.100   9.699
 4099SOL    HW212750   3.523   1.167   9.810
 4100SOL     OW12751   1.998   0.723  10.928
 4100SOL    HW112752   2.091   0.741  10.909
 4100SOL    HW212753   1.955   0.808  10.917
 4101SOL     OW12754   2.484   1.389  10.042
 4101SOL    HW112755   2.439   1.305  10.049
 4101SOL    HW212756   2.467   1.417   9.952
 4102SOL     OW12757   3.142   1.235  10.756
 4102SOL    HW112758   3.167   1.173  10.687
 4102SOL    HW212759   3.199   1.214  10.829
 4103SOL     OW12760   2.691   0.026   9.874
 4103SOL    HW112761   2.730   0.108   9.843
 4103SOL    HW212762   2.596   0.040   9.865
 4104SOL     OW12763   2.050   0.957  10.584
 4104SOL    HW112764   2.137   0.918  10.570
 4104SOL    HW212765   1.992   0.908  10.525
 4105SOL     OW12766   3.394   1.003   9.510
 4105SOL    HW112767   3.325   0.945   9.543
 4105SOL    HW212768   3.437   1.035   9.589
 4106SOL     OW12769   3.058   1.808  10.933
 4106SOL    HW112770   3.054   1.876  10.866
 4106SOL    HW212771   3.071   1.727  10.885
 4107SOL     OW12772   2.196   0.287  11.079
 4107SOL    HW112773   2.250   0.348   0.028
 4107SOL    HW212774   2.113   0.285   0.026
 4108SOL     OW12775   3.332   1.419  10.252
 4108SOL    HW112776   3.266   1.437  10.318
 4108SOL    HW212777   3.317   1.328  10.226
 4109SOL     OW12778   3.511   1.764   9.884
 4109SOL    HW112779   3.492   1.727   9.798
 4109SOL    HW212780   3.499   1.691   9.945
 4110SOL     OW12781   2.449   0.719   9.580
 4110SOL    HW112782   2.450   0.805   9.537
 4110SOL    HW212783   2.384   0.727   9.650
 4111SOL     OW12784   3.156   0.384  10.237
 4111SOL    HW112785   3.068   0.352  10.217
 4111SOL    HW212786   3.192   0.321  10.299
 4112SOL     OW12787   3.439   1.675   9.622
 4112SOL    HW112788   3.532   1.697   9.614
 4112SOL    HW212789   3.410   1.658   9.533
 4113SOL     OW12790   2.664   0.620  10.757
 4113SOL    HW112791   2.630   0.594  10.842
 4113SOL    HW212792   2.634   0.551  10.697
 4114SOL     OW12793   2.829   0.904  10.917
 4114SOL    HW112794   2.879   0.836  10.872
 4114SOL    HW212795   2.776   0.945  10.848
 4115SOL     OW12796   2.868   0.421  10.535
 4115SOL    HW112797   2.777   0.428  10.563
 4115SOL    HW212798   2.865   0.362  10.459
 4116SOL     OW12799   2.916   0.701   9.732
 4116SOL    HW112800   2.937   0.692   9.825
 4116SOL    HW212801   2.830   0.659   9.723
 4117SOL     OW12802   1.952   0.823  10.088
 4117SOL    HW112803   2.032   0.816  10.140
 4117SOL    HW212804   1.905   0.898  10.125
 4118SOL     OW12805   1.994   1.852  10.905
 4118SOL    HW112806   1.964   1.818  10.989
 4118SOL    HW212807   1.916   1.853  10.850
 4119SOL     OW12808   2.725   0.373   9.513
 4119SOL    HW112809   2.780   0.408   9.443
 4119SOL    HW212810   2.730   0.278   9.503
 4120SOL     OW12811   3.246   1.143   9.848
 4120SOL    HW112812   3.326   1.133   9.796
 4120SOL    HW212813   3.193   1.205   9.798
 4121SOL     OW12814   2.394   0.217  10.215
 4121SOL    HW112815   2.415   0.233  10.307
 4121SOL    HW212816   2.394   0.304  10.175
 4122SOL     OW12817   2.860   1.446   9.777
 4122SOL    HW112818   2.831   1.522   9.726
 4122SOL    HW212819   2.835   1.467   9.867
 4123SOL     OW12820   2.219   1.798  10.195
 4123SOL    HW112821   2.247   1.707  10.192
 4123SOL    HW212822   2.296   1.847  10.225
 4124SOL     OW12823   3.663   1.052  10.188
 4124SOL    HW112824   3.612   1.032  10.110
 4124SOL    HW212825   3.599   1.059  10.258
 4125SOL     OW12826   3.090   1.533  10.817
 4125SOL    HW112827   3.104   1.440  10.838
 4125SOL    HW212828   3.015   1.533  10.757
 4126SOL     OW12829   2.170   0.961   9.566
 4126SOL    HW112830   2.253   0.981   9.522
 4126SOL    HW212831   2.144   0.876   9.530
 4127SOL     OW12832   3.346   0.754  10.027
 4127SOL    HW112833   3.343   0.714  10.114
 4127SOL    HW212834   3.424   0.809  10.029
 4128SOL     OW12835   2.315   1.262  11.053
 4128SOL    HW112836   2.282   1.282  10.966
 4128SOL    HW212837   2.268   1.182  11.079
 4129SOL     OW12838   2.990   1.777   9.537
 4129SOL    HW112839   2.912   1.741   9.579
 4129SOL    HW212840   3.013   1.714   9.470
 4130SOL     OW12841   2.065   0.264  10.832
 4130SOL    HW112842   1.999   0.332  10.832
 4130SOL    HW212843   2.102   0.266  10.920
 4131SOL     OW12844   3.492   1.384   9.404
 4131SOL    HW112845   3.450   1.469   9.389
 4131SOL    HW212846   3.424   1.320   9.381
 4132SOL     OW12847   2.324   1.727   9.633
 4132SOL    HW112848   2.370   1.787   9.692
 4132SOL    HW212849   2.393   1.692   9.576
 4133SOL     OW12850   3.297   0.150   9.740
 4133SOL    HW112851   3.280   0.093   9.665
 4133SOL    HW212852   3.390   0.137   9.760
 4134SOL     OW12853   2.100   1.789  10.545
 4134SOL    HW112854   2.159   1.725  10.585
 4134SOL    HW212855   2.116   1.781  10.451
 4135SOL     OW12856   2.800   1.700  10.208
 4135SOL    HW112857   2.882   1.654  10.225
 4135SOL    HW212858   2.759   1.651  10.137
 4136SOL     OW12859   2.259   0.689   9.783
 4136SOL    HW112860   2.278   0.597   9.799
 4136SOL    HW212861   2.165   0.698   9.800
 4137SOL     OW12862   2.502   0.127   9.433
 4137SOL    HW112863   2.589   0.089   9.448
 4137SOL    HW212864   2.467   0.077   9.359
 4138SOL     OW12865   2.613   0.272  11.054
 4138SOL    HW112866   2.686   0.211  11.057
 4138SOL    HW212867   2.603   0.302   0.045
 4139SOL     OW12868   2.739   1.525  10.506
 4139SOL    HW112869   2.721   1.487  10.419
 4139SOL    HW212870   2.809   1.470  10.542
 4140SOL     OW12871   3.205   0.595  10.756
 4140SOL    HW112872   3.258   0.574  10.832
 4140SOL    HW212873   3.230   0.684  10.732
 4141SOL     OW12874   2.682   1.386  10.259
 4141SOL    HW112875   2.768   1.376  10.218
 4141SOL    HW212876   2.621   1.393  10.186
 4142SOL     OW12877   2.792   0.534  10.203
 4142SOL    HW112878   2.772   0.527  10.110
 4142SOL    HW212879   2.817   0.445  10.229
 4143SOL     OW12880   2.424   0.099   9.840
 4143SOL    HW112881   2.342   0.058   9.867
 4143SOL    HW212882   2.401   0.148   9.761
 4144SOL     OW12883   3.291   1.203   9.347
 4144SOL    HW112884   3.320   1.128   9.399
 4144SOL    HW212885   3.205   1.226   9.383
 4145SOL     OW12886   2.149   0.055   9.520
 4145SOL    HW112887   2.219   0.120   9.515
 4145SOL    HW212888   2.176   4.497   9.592
 4146SOL     OW12889   2.829   0.241   9.770
 4146SOL    HW112890   2.776   0.307   9.725
 4146SOL    HW212891   2.919   0.272   9.760
 4147SOL     OW12892   2.941   0.699  10.771
 4147SOL    HW112893   2.869   0.636  10.772
 4147SOL    HW212894   3.020   0.645  10.771
 4148SOL     OW12895   3.075   1.578  10.107
 4148SOL    HW112896   3.090   1.641  10.037
 4148SOL    HW212897   3.147   1.593  10.168
 4149SOL     OW12898   2.338   1.155  10.031
 4149SOL    HW112899   2.274   1.134  10.099
 4149SOL    HW212900   2.290   1.144   9.949
 4150SOL     OW12901   3.122   1.791   9.924
 4150SOL    HW112902   3.171   1.854   9.871
 4150SOL    HW212903   3.052   1.843   9.964
 4151SOL     OW12904   2.885   0.531   9.335
 4151SOL    HW112905   2.840   0.614   9.319
 4151SOL    HW212906   2.944   0.550   9.408
 4152SOL     OW12907   1.954   0.540  10.721
 4152SOL    HW112908   2.043   0.551  10.687
 4152SOL    HW212909   1.947   0.602  10.794
 4153SOL     OW12910   2.417   0.250  10.486
 4153SOL    HW112911   2.430   0.162  10.521
 4153SOL    HW212912   2.327   0.273  10.509
 4154SOL     OW12913   2.725   0.504   9.942
 4154SOL    HW112914   2.693   0.540   9.859
 4154SOL    HW212915   2.668   0.428   9.958
 4155SOL     OW12916   2.792   0.003  10.130
 4155SOL    HW112917   2.760   0.011  10.040
 4155SOL    HW212918   2.817   4.411  10.139
 4156SOL     OW12919   3.300   1.159  10.166
 4156SOL    HW112920   3.232   1.092  10.169
 4156SOL    HW212921   3.324   1.166  10.073
 4157SOL     OW12922   3.326   0.616  10.269
 4157SOL    HW112923   3.267   0.540  10.269
 4157SOL    HW212924   3.380   0.604  10.348
 4158SOL     OW12925   3.698   0.807   9.697
 4158SOL    HW112926   3.758   0.760   9.755
 4158SOL    HW212927   3.679   0.744   9.627
 4159SOL     OW12928   2.351   1.423   9.459
 4159SOL    HW112929   2.276   1.393   9.511
 4159SOL    HW212930   2.349   1.370   9.380
 4160SOL     OW12931   3.547   1.266   9.948
 4160SOL    HW112932   3.641   1.262   9.966
 4160SOL    HW212933   3.521   1.355   9.972
 4161SOL     OW12934   3.256   0.577   9.379
 4161SOL    HW112935   3.193   0.559   9.448
 4161SOL    HW212936   3.341   0.564   9.420
 4162SOL     OW12937   2.365   0.259   9.623
 4162SOL    HW112938   2.424   0.216   9.562
 4162SOL    HW212939   2.347   0.344   9.582
 4163SOL     OW12940   3.613   1.227  10.836
 4163SOL    HW112941   3.705   1.201  10.829
 4163SOL    HW212942   3.616   1.310  10.883
 4164SOL     OW12943   2.914   1.354  10.647
 4164SOL    HW112944   2.835   1.321  10.689
 4164SOL    HW212945   2.985   1.306  10.689
 4165SOL     OW12946   3.005   1.223  10.411
 4165SOL    HW112947   2.934   1.251  10.469
 4165SOL    HW212948   2.979   1.253  10.324
 4166SOL     OW12949   3.482   1.094  10.388
 4166SOL    HW112950   3.477   1.157  10.460
 4166SOL    HW212951   3.407   1.115  10.332
 4167SOL     OW12952   2.747   0.135  10.694
 4167SOL    HW112953   2.772   0.089  10.614
 4167SOL    HW212954   2.829   0.166  10.731
 4168SOL     OW12955   2.573   1.064   9.682
 4168SOL    HW112956   2.558   1.041   9.774
 4168SOL    HW212957   2.648   1.010   9.656
 4169SOL     OW12958   2.289   0.822  10.562
 4169SOL    HW112959   2.356   0.831  10.629
 4169SOL    HW212960   2.253   0.735  10.575
 4170SOL     OW12961   3.133   0.382  10.591
 4170SOL    HW112962   3.163   0.459  10.641
 4170SOL    HW212963   3.044   0.405  10.564
 4171SOL     OW12964   1.937   1.575  10.671
 4171SOL    HW112965   1.911   1.650  10.617
 4171SOL    HW212966   2.032   1.573  10.664
 4172SOL     OW12967   2.191   1.123   9.799
 4172SOL    HW112968   2.192   1.196   9.737
 4172SOL    HW212969   2.190   1.045   9.744
 4173SOL     OW12970   2.411   0.515  10.169
 4173SOL    HW112971   2.420   0.574  10.094
 4173SOL    HW212972   2.477   0.544  10.231
 4174SOL     OW12973   3.109   1.351   9.701
 4174SOL    HW112974   3.165   1.422   9.735
 4174SOL    HW212975   3.021   1.372   9.734
 4175SOL     OW12976   3.156   1.464  10.454
 4175SOL    HW112977   3.211   1.466  10.532
 4175SOL    HW212978   3.104   1.384  10.464
 4176SOL     OW12979   3.437   0.623   9.790
 4176SOL    HW112980   3.387   0.661   9.862
 4176SOL    HW212981   3.482   0.699   9.751
 4177SOL     OW12982   2.208   1.529  10.618
 4177SOL    HW112983   2.195   1.482  10.535
 4177SOL    HW212984   2.303   1.541  10.623
 4178SOL     OW12985   2.282   0.730  10.905
 4178SOL    HW112986   2.348   0.772  10.849
 4178SOL    HW212987   2.316   0.642  10.920
 4179SOL     OW12988   3.463   0.749  10.959
 4179SOL    HW112989   3.385   0.796  10.929
 4179SOL    HW212990   3.537   0.800  10.924
 4180SOL     OW12991   2.449   0.876  10.341
 4180SOL    HW112992   2.483   0.965  10.346
 4180SOL    HW212993   2.392   0.868  10.418
 4181SOL     OW12994   3.199   0.862  10.335
 4181SOL    HW112995   3.112   0.843  10.301
 4181SOL    HW212996   3.249   0.782  10.319
 4182SOL     OW12997   3.055   0.538   9.562
 4182SOL    HW112998   3.065   0.460   9.616
 4182SOL    HW212999   3.013   0.602   9.619
 4183SOL     OW13000   2.144   0.225  10.555
 4183SOL    HW113001   2.108   0.244  10.641
 4183SOL    HW213002   2.190   0.142  10.565
 4184SOL     OW13003   1.919   1.316  10.576
 4184SOL    HW113004   1.945   1.258  10.647
 4184SOL    HW213005   1.914   1.403  10.616
 4185SOL     OW13006   2.579   0.628  10.357
 4185SOL    HW113007   2.656   0.617  10.302
 4185SOL    HW213008   2.549   0.717  10.339
 4186SOL     OW13009   2.152   0.039   9.952
 4186SOL    HW113010   2.137   0.133   9.954
 4186SOL    HW213011   2.166   0.014  10.043
 4187SOL     OW13012   3.489   0.392   9.656
 4187SOL    HW113013   3.511   0.324   9.720
 4187SOL    HW213014   3.462   0.467   9.709
 4188SOL     OW13015   2.900   0.772  10.272
 4188SOL    HW113016   2.884   0.786  10.366
 4188SOL    HW213017   2.868   0.683  10.256
 4189SOL     OW13018   2.830   1.573  11.004
 4189SOL    HW113019   2.816   1.622  10.923
 4189SOL    HW213020   2.852   1.484  10.975
 4190SOL     OW13021   3.707   1.479  10.911
 4190SOL    HW113022   3.734   1.521  10.829
 4190SOL    HW213023   3.764   1.518  10.977
 4191SOL     OW13024   2.229   0.920  11.093
 4191SOL    HW113025   2.310   0.931   0.043
 4191SOL    HW213026   2.249   0.851  11.029
 4192SOL     OW13027   3.387   0.258   9.436
 4192SOL    HW113028   3.323   0.198   9.475
 4192SOL    HW213029   3.421   0.308   9.510
 4193SOL     OW13030   3.145   0.826   9.335
 4193SOL    HW113031   3.186   0.740   9.339
 4193SOL    HW213032   3.179   0.864   9.253
 4194SOL     OW13033   2.933   1.342  10.168
 4194SOL    HW113034   2.939   1.270  10.105
 4194SOL    HW213035   2.988   1.411  10.132
 4195SOL     OW13036   2.172   0.811  10.255
 4195SOL    HW113037   2.265   0.831  10.247
 4195SOL    HW213038   2.169   0.721  10.287
 4196SOL     OW13039   2.193   0.537  10.325
 4196SOL    HW113040   2.148   0.454  10.308
 4196SOL    HW213041   2.270   0.534  10.268
 4197SOL     OW13042   3.002   0.211  10.773
 4197SOL    HW113043   3.060   0.214  10.850
 4197SOL    HW213044   3.045   0.267  10.709
 4198SOL     OW13045   1.876   1.313   9.500
 4198SOL    HW113046   1.787   1.331   9.468
 4198SOL    HW213047   1.869   1.225   9.537
 4199SOL     OW13048   1.947   1.790  10.246
 4199SOL    HW113049   1.916   1.711  10.201
 4199SOL    HW213050   2.040   1.794  10.224
 4200SOL     OW13051   2.355   1.564  10.210
 4200SOL    HW113052   2.422   1.629  10.231
 4200SOL    HW213053   2.399   1.502  10.152
 4201SOL     OW13054   2.827   0.794  10.536
 4201SOL    HW113055   2.887   0.777  10.608
 4201SOL    HW213056   2.751   0.740  10.555
 4202SOL     OW13057   1.894   0.551  10.438
 4202SOL    HW113058   1.969   0.533  10.381
 4202SOL    HW213059   1.931   0.547  10.527
 4203SOL     OW13060   2.672   0.583   9.679
 4203SOL    HW113061   2.680   0.510   9.617
 4203SOL    HW213062   2.598   0.633   9.647
 4204SOL     OW13063   3.496   0.601  10.487
 4204SOL    HW113064   3.486   0.547  10.565
 4204SOL    HW213065   3.586   0.584  10.457
 4205SOL     OW13066   2.127   1.556  11.046
 4205SOL    HW113067   2.062   1.578   0.012
 4205SOL    HW213068   2.149   1.464  11.064
 4206SOL     OW13069   2.589   0.451  10.562
 4206SOL    HW113070   2.533   0.376  10.540
 4206SOL    HW213071   2.578   0.511  10.489
 4207SOL     OW13072   2.799   1.676  10.750
 4207SOL    HW113073   2.771   1.639  10.666
 4207SOL    HW213074   2.788   1.770  10.739
 4208SOL     OW13075   2.316   0.491   9.488
 4208SOL    HW113076   2.377   0.561   9.511
 4208SOL    HW213077   2.232   0.535   9.479
 4209SOL     OW13078   2.011   1.142  10.776
 4209SOL    HW113079   2.006   1.093  10.858
 4209SOL    HW213080   2.025   1.075  10.708
 4210SOL     OW13081   3.176   1.049  10.538
 4210SOL    HW113082   3.198   0.983  10.472
 4210SOL    HW213083   3.116   1.108  10.492
 4211SOL     OW13084   3.182   0.857   9.610
 4211SOL    HW113085   3.109   0.827   9.665
 4211SOL    HW213086   3.151   0.844   9.520
 4212SOL     OW13087   3.653   1.733  10.472
 4212SOL    HW113088   3.711   1.758  10.399
 4212SOL    HW213089   3.620   1.647  10.447
 4213SOL     OW13090   3.102   1.733  10.412
 4213SOL    HW113091   3.185   1.759  10.372
 4213SOL    HW213092   3.114   1.640  10.432
 4214SOL     OW13093   1.957   1.261  10.316
 4214SOL    HW113094   1.939   1.280  10.408
 4214SOL    HW213095   1.882   1.209  10.287
 4215SOL     OW13096   3.586   0.127   9.787
 4215SOL    HW113097   3.651   0.144   9.718
 4215SOL    HW213098   3.625   0.057   9.839
 4216SOL     OW13099   3.257   1.568   9.805
 4216SOL    HW113100   3.313   1.602   9.736
 4216SOL    HW213101   3.205   1.643   9.833
 4217SOL     OW13102   3.143   0.933   9.984
 4217SOL    HW113103   3.216   0.872   9.993
 4217SOL    HW213104   3.177   1.004   9.928
 4218SOL     OW13105   2.663   1.278  10.728
 4218SOL    HW113106   2.633   1.314  10.812
 4218SOL    HW213107   2.591   1.294  10.668
 4219SOL     OW13108   2.529   1.628   9.467
 4219SOL    HW113109   2.546   1.643   9.374
 4219SOL    HW213110   2.474   1.549   9.470
 4220SOL     OW13111   3.470   1.727  10.683
 4220SOL    HW113112   3.536   1.738  10.614
 4220SOL    HW213113   3.460   1.815  10.720
 4221SOL     OW13114   3.704   0.151  10.276
 4221SOL    HW113115   3.737   0.071  10.234
 4221SOL    HW213116   3.618   0.164  10.237
 4222SOL     OW13117   2.116   0.307  10.018
 4222SOL    HW113118   2.033   0.349   9.996
 4222SOL    HW213119   2.118   0.305  10.114
 4223SOL     OW13120   3.071   1.597   9.345
 4223SOL    HW113121   3.060   1.506   9.372
 4223SOL    HW213122   3.004   1.611   9.278
 4224SOL     OW13123   2.690   1.006  10.700
 4224SOL    HW113124   2.731   0.987  10.616
 4224SOL    HW213125   2.685   1.102  10.703
 4225SOL     OW13126   2.779   0.912   9.601
 4225SOL    HW113127   2.839   0.945   9.534
 4225SOL    HW213128   2.829   0.845   9.647
 4226SOL     OW13129   3.349   1.633   9.358
 4226SOL    HW113130   3.256   1.620   9.342
 4226SOL    HW213131   3.388   1.638   9.271
 4227SOL     OW13132   2.219   1.320  10.812
 4227SOL    HW113133   2.208   1.392  10.750
 4227SOL    HW213134   2.149   1.259  10.790
 4228SOL     OW13135   3.473   1.283  10.594
 4228SOL    HW113136   3.524   1.257  10.671
 4228SOL    HW213137   3.416   1.353  10.625
 4229SOL     OW13138   2.928   1.113  10.025
 4229SOL    HW113139   2.854   1.063  10.059
 4229SOL    HW213140   2.993   1.047  10.001
 4230SOL     OW13141   2.858   0.248  10.326
 4230SOL    HW113142   2.870   0.236  10.231
 4230SOL    HW213143   2.843   0.160  10.360
 4231SOL     OW13144   2.470   1.489   9.789
 4231SOL    HW113145   2.521   1.438   9.726
 4231SOL    HW213146   2.391   1.515   9.741
 4232SOL     OW13147   3.584   0.390  10.696
 4232SOL    HW113148   3.660   0.449  10.699
 4232SOL    HW213149   3.610   0.321  10.636
 4233SOL     OW13150   2.131   1.340   9.608
 4233SOL    HW113151   2.040   1.336   9.579
 4233SOL    HW213152   2.126   1.381   9.694
 4234SOL     OW13153   1.989   1.016  11.014
 4234SOL    HW113154   1.924   1.014  11.084
 4234SOL    HW213155   2.069   0.982  11.055
 4235SOL     OW13156   2.503   0.173  10.820
 4235SOL    HW113157   2.580   0.156  10.766
 4235SOL    HW213158   2.537   0.216  10.898
 4236SOL     OW13159   1.947   0.320   9.352
 4236SOL    HW113160   1.878   0.264   9.316
 4236SOL    HW213161   1.948   0.397   9.295
 4237SOL     OW13162   3.288   0.854  10.715
 4237SOL    HW113163   3.235   0.919  10.669
 4237SOL    HW213164   3.375   0.861  10.675
 4238SOL     OW13165   1.919   0.194   9.607
 4238SOL    HW113166   1.924   0.261   9.539
 4238SOL    HW213167   1.992   0.135   9.589
 4239SOL     OW13168   3.040   1.331   9.429
 4239SOL    HW113169   2.950   1.299   9.430
 4239SOL    HW213170   3.066   1.333   9.521
 4240SOL     OW13171   2.487   0.828  10.748
 4240SOL    HW113172   2.544   0.904  10.737
 4240SOL    HW213173   2.547   0.754  10.752
 4241SOL     OW13174   3.344   1.791  10.294
 4241SOL    HW113175   3.370   1.861  10.233
 4241SOL    HW213176   3.427   1.754  10.324
 4242SOL     OW13177   2.570   0.568  11.004
 4242SOL    HW113178   2.617   0.630  11.060
 4242SOL    HW213179   2.598   0.482  11.034
 4243SOL     OW13180   2.246   1.743  10.888
 4243SOL    HW113181   2.167   1.796  10.876
 4243SOL    HW213182   2.218   1.669  10.941
 4244SOL     OW13183   3.522   0.879  10.568
 4244SOL    HW113184   3.518   0.794  10.524
 4244SOL    HW213185   3.514   0.943  10.498
 4245SOL     OW13186   3.091   0.338   9.750
 4245SOL    HW113187   3.162   0.276   9.737
 4245SOL    HW213188   3.116   0.387   9.829
 4246SOL     OW13189   2.439   0.731   9.992
 4246SOL    HW113190   2.485   0.814   9.976
 4246SOL    HW213191   2.379   0.722   9.918
 4247SOL     OW13192   3.604   0.318  10.967
 4247SOL    HW113193   3.588   0.354  10.880
 4247SOL    HW213194   3.523   0.337  11.015
 4248SOL     OW13195   3.618   0.933  10.823
 4248SOL    HW113196   3.603   1.027  10.837
 4248SOL    HW213197   3.596   0.918  10.732
 4249SOL     OW13198   2.727   1.364   9.358
 4249SOL    HW113199   2.690   1.389   9.443
 4249SOL    HW213200   2.741   1.446   9.312
 4250SOL     OW13201   2.515   1.785  10.252
 4250SOL    HW113202   2.501   1.856  10.315
 4250SOL    HW213203   2.610   1.777  10.246
 4251SOL     OW13204   2.732   0.974  10.163
 4251SOL    HW113205   2.785   0.903  10.200
 4251SOL    HW213206   2.690   1.014  10.240
 4252SOL     OW13207   2.939   0.991   9.400
 4252SOL    HW113208   2.917   1.042   9.321
 4252SOL    HW213209   3.012   0.935   9.372
 4253SOL     OW13210   3.708   1.555  10.149
 4253SOL    HW113211   3.627   1.543  10.100
 4253SOL    HW213212   3.705   1.487  10.217
 4254SOL     OW13213   1.956   1.226   9.975
 4254SOL    HW113214   1.966   1.184  10.060
 4254SOL    HW213215   2.023   1.185   9.920
 4255SOL     OW13216   2.539   1.397  10.944
 4255SOL    HW113217   2.473   1.345  10.989
 4255SOL    HW213218   2.490   1.472  10.909
 4256SOL     OW13219   3.650   0.172  10.547
 4256SOL    HW113220   3.674   0.082  10.569
 4256SOL    HW213221   3.670   0.180  10.454
 4257SOL     OW13222   2.296   0.429   9.841
 4257SOL    HW113223   2.317   0.362   9.777
 4257SOL    HW213224   2.242   0.384   9.907
 4258SOL     OW13225   3.558   1.487  10.403
 4258SOL    HW113226   3.480   1.465  10.351
 4258SOL    HW213227   3.562   1.417  10.468
 4259SOL     OW13228   2.197   0.566  10.602
 4259SOL    HW113229   2.251   0.505  10.651
 4259SOL    HW213230   2.210   0.542  10.510
 4260SOL     OW13231   2.695   1.582   9.985
 4260SOL    HW113232   2.669   1.647   9.919
 4260SOL    HW213233   2.622   1.519   9.986
 4261SOL     OW13234   3.288   0.226  10.422
 4261SOL    HW113235   3.328   0.157  10.474
 4261SOL    HW213236   3.239   0.278  10.486
 4262SOL     OW13237   2.853   4.497  10.468
 4262SOL    HW113238   2.821   4.407  10.465
 4262SOL    HW213239   2.948   4.488  10.467
 4263SOL     OW13240   2.638   1.334   9.633
 4263SOL    HW113241   2.612   1.242   9.642
 4263SOL    HW213242   2.720   1.340   9.683
 4264SOL     OW13243   2.484   1.553  10.602
 4264SOL    HW113244   2.479   1.640  10.643
 4264SOL    HW213245   2.573   1.549  10.566
 4265SOL     OW13246   3.203   0.049   9.486
 4265SOL    HW113247   3.238   4.474   9.438
 4265SOL    HW213248   3.122   0.016   9.526
 4266SOL     OW13249   3.180   0.473   9.975
 4266SOL    HW113250   3.125   0.551   9.977
 4266SOL    HW213251   3.168   0.433  10.061
 4267SOL     OW13252   3.449   0.197  10.184
 4267SOL    HW113253   3.390   0.214  10.258
 4267SOL    HW213254   3.450   0.279  10.135
 4268SOL     OW13255   1.904   1.061   9.619
 4268SOL    HW113256   1.997   1.052   9.600
 4268SOL    HW213257   1.875   0.973   9.641
 4269SOL     OW13258   2.752   1.664   9.645
 4269SOL    HW113259   2.677   1.647   9.589
 4269SOL    HW213260   2.724   1.735   9.702
 4270SOL     OW13261   2.060   2.532   0.131
 4270SOL    HW113262   1.971   2.506   0.156
 4270SOL    HW213263   2.092   2.459   0.079
 4271SOL     OW13264   1.847   2.263   0.620
 4271SOL    HW113265   1.769   2.282   0.671
 4271SOL    HW213266   1.830   2.178   0.580
 4272SOL     OW13267   2.431   3.163   1.189
 4272SOL    HW113268   2.346   3.170   1.144
 4272SOL    HW213269   2.448   3.252   1.220
 4273SOL     OW13270   3.441   3.378   0.709
 4273SOL    HW113271   3.396   3.352   0.789
 4273SOL    HW213272   3.372   3.381   0.643
 4274SOL     OW13273   2.996   2.561   0.693
 4274SOL    HW113274   3.044   2.643   0.682
 4274SOL    HW213275   2.949   2.571   0.776
 4275SOL     OW13276   3.641   2.460   0.203
 4275SOL    HW113277   3.575   2.480   0.138
 4275SOL    HW213278   3.606   2.385   0.252
 4276SOL     OW13279   2.598   2.995   1.048
 4276SOL    HW113280   2.535   3.035   1.108
 4276SOL    HW213281   2.641   3.069   1.005
 4277SOL     OW13282   2.739   2.618   1.825
 4277SOL    HW113283   2.735   2.687   1.891
 4277SOL    HW213284   2.761   2.664   1.743
 4278SOL     OW13285   2.550   2.859   0.644
 4278SOL    HW113286   2.615   2.851   0.714
 4278SOL    HW213287   2.482   2.915   0.681
 4279SOL     OW13288   2.578   3.013   1.819
 4279SOL    HW113289   2.626   3.089   1.852
 4279SOL    HW213290   2.499   3.050   1.780
 4280SOL     OW13291   2.195   3.273   1.066
 4280SOL    HW113292   2.120   3.234   1.023
 4280SOL    HW213293   2.237   3.326   0.999
 4281SOL     OW13294   3.319   3.365   1.365
 4281SOL    HW113295   3.374   3.444   1.374
 4281SOL    HW213296   3.250   3.377   1.430
 4282SOL     OW13297   3.461   2.300   0.748
 4282SOL    HW113298   3.388   2.315   0.688
 4282SOL    HW213299   3.458   2.375   0.808
 4283SOL     OW13300   2.080   3.580   0.469
 4283SOL    HW113301   2.102   3.655   0.524
 4283SOL    HW213302   2.153   3.572   0.408
 4284SOL     OW13303   3.000   3.205   1.695
 4284SOL    HW113304   3.041   3.197   1.781
 4284SOL    HW213305   2.948   3.125   1.686
 4285SOL     OW13306   2.089   3.310   0.534
 4285SOL    HW113307   2.072   3.404   0.532
 4285SOL    HW213308   2.031   3.277   0.602
 4286SOL     OW13309   2.133   2.963   0.888
 4286SOL    HW113310   2.128   2.873   0.920
 4286SOL    HW213311   2.073   3.011   0.944
 4287SOL     OW13312   2.458   3.655   1.426
 4287SOL    HW113313   2.377   3.637   1.475
 4287SOL    HW213314   2.485   3.742   1.454
 4288SOL     OW13315   2.439   2.851   0.156
 4288SOL    HW113316   2.493   2.895   0.091
 4288SOL    HW213317   2.475   2.879   0.240
 4289SOL     OW13318   3.457   1.991   1.462
 4289SOL    HW113319   3.486   2.070   1.417
 4289SOL    HW213320   3.433   2.022   1.550
 4290SOL     OW13321   1.991   2.507   0.563
 4290SOL    HW113322   1.947   2.424   0.581
 4290SOL    HW213323   1.976   2.559   0.642
 4291SOL     OW13324   3.708   3.613   0.321
 4291SOL    HW113325   3.776   3.589   0.383
 4291SOL    HW213326   3.722   3.706   0.303
 4292SOL     OW13327   1.919   3.451   0.116
 4292SOL    HW113328   1.893   3.364   0.146
 4292SOL    HW213329   1.891   3.510   0.185
 4293SOL     OW13330   3.551   2.781   0.649
 4293SOL    HW113331   3.636   2.740   0.631
 4293SOL    HW213332   3.532   2.833   0.571
 4294SOL     OW13333   3.514   2.961   0.432
 4294SOL    HW113334   3.597   2.964   0.385
 4294SOL    HW213335   3.523   3.026   0.502
 4295SOL     OW13336   1.987   2.608   1.576
 4295SOL    HW113337   2.075   2.638   1.599
 4295SOL    HW213338   1.932   2.685   1.587
 4296SOL     OW13339   2.481   3.257   0.735
 4296SOL    HW113340   2.438   3.172   0.742
 4296SOL    HW213341   2.464   3.284   0.645
 4297SOL     OW13342   3.144   3.095   1.420
 4297SOL    HW113343   3.173   3.027   1.359
 4297SOL    HW213344   3.204   3.090   1.494
 4298SOL     OW13345   2.679   1.872   0.513
 4298SOL    HW113346   2.720   1.956   0.494
 4298SOL    HW213347   2.585   1.892   0.518
 4299SOL     OW13348   2.050   2.823   1.284
 4299SOL    HW113349   2.134   2.780   1.267
 4299SOL    HW213350   1.989   2.781   1.223
 4300SOL     OW13351   3.358   2.881   0.213
 4300SOL    HW113352   3.297   2.819   0.252
 4300SOL    HW213353   3.418   2.905   0.283
 4301SOL     OW13354   3.043   3.679   1.628
 4301SOL    HW113355   3.048   3.741   1.555
 4301SOL    HW213356   3.062   3.594   1.589
 4302SOL     OW13357   3.330   3.282   0.942
 4302SOL    HW113358   3.264   3.298   1.010
 4302SOL    HW213359   3.316   3.190   0.917
 4303SOL     OW13360   3.514   3.624   0.576
 4303SOL    HW113361   3.493   3.589   0.489
 4303SOL    HW213362   3.500   3.551   0.635
 4304SOL     OW13363   2.471   2.584   0.279
 4304SOL    HW113364   2.466   2.665   0.227
 4304SOL    HW213365   2.395   2.588   0.337
 4305SOL     OW13366   3.142   2.235   0.935
 4305SOL    HW113367   3.053   2.200   0.944
 4305SOL    HW213368   3.195   2.180   0.992
 4306SOL     OW13369   3.443   3.535   0.317
 4306SOL    HW113370   3.536   3.556   0.308
 4306SOL    HW213371   3.414   3.517   0.228
 4307SOL     OW13372   2.648   2.479   1.443
 4307SOL    HW113373   2.626   2.450   1.532
 4307SOL    HW213374   2.626   2.405   1.387
 4308SOL     OW13375   3.254   2.337   1.678
 4308SOL    HW113376   3.259   2.381   1.763
 4308SOL    HW213377   3.309   2.259   1.688
 4309SOL     OW13378   2.809   2.745   1.588
 4309SOL    HW113379   2.865   2.678   1.546
 4309SOL    HW213380   2.761   2.784   1.515
 4310SOL     OW13381   2.867   2.266   1.223
 4310SOL    HW113382   2.777   2.281   1.248
 4310SOL    HW213383   2.862   2.225   1.137
 4311SOL     OW13384   2.917   2.566   0.425
 4311SOL    HW113385   2.938   2.561   0.518
 4311SOL    HW213386   2.833   2.522   0.416
 4312SOL     OW13387   1.952   2.683   0.772
 4312SOL    HW113388   2.033   2.682   0.822
 4312SOL    HW213389   1.902   2.756   0.808
 4313SOL     OW13390   1.984   3.736   1.586
 4313SOL    HW113391   1.989   3.714   1.679
 4313SOL    HW213392   1.901   3.697   1.557
 4314SOL     OW13393   2.751   2.209   0.214
 4314SOL    HW113394   2.792   2.273   0.155
 4314SOL    HW213395   2.768   2.124   0.172
 4315SOL     OW13396   3.562   2.430   1.832
 4315SOL    HW113397   3.530   2.505   1.782
 4315SOL    HW213398   3.590   2.367   1.766
 4316SOL     OW13399   3.246   3.003   0.541
 4316SOL    HW113400   3.325   2.993   0.487
 4316SOL    HW213401   3.192   3.065   0.493
 4317SOL     OW13402   2.855   3.305   0.471
 4317SOL    HW113403   2.829   3.381   0.420
 4317SOL    HW213404   2.830   3.326   0.561
 4318SOL     OW13405   2.215   3.678   0.875
 4318SOL    HW113406   2.260   3.594   0.880
 4318SOL    HW213407   2.284   3.743   0.893
 4319SOL     OW13408   3.663   2.913   0.879
 4319SOL    HW113409   3.611   2.897   0.800
 4319SOL    HW213410   3.598   2.920   0.949
 4320SOL     OW13411   3.086   3.404   1.514
 4320SOL    HW113412   3.075   3.332   1.576
 4320SOL    HW213413   3.019   3.389   1.448
 4321SOL     OW13414   2.160   2.817   0.272
 4321SOL    HW113415   2.241   2.834   0.226
 4321SOL    HW213416   2.135   2.728   0.246
 4322SOL     OW13417   3.344   2.612   0.718
 4322SOL    HW113418   3.344   2.575   0.806
 4322SOL    HW213419   3.422   2.668   0.716
 4323SOL     OW13420   2.334   3.134   1.739
 4323SOL    HW113421   2.308   3.139   1.647
 4323SOL    HW213422   2.251   3.127   1.787
 4324SOL     OW13423   2.969   3.649   0.221
 4324SOL    HW113424   2.908   3.601   0.277
 4324SOL    HW213425   3.012   3.581   0.170
 4325SOL     OW13426   1.987   2.088   1.521
 4325SOL    HW113427   1.925   2.160   1.529
 4325SOL    HW213428   2.073   2.130   1.518
 4326SOL     OW13429   3.489   3.233   0.091
 4326SOL    HW113430   3.447   3.318   0.083
 4326SOL    HW213431   3.425   3.170   0.059
 4327SOL     OW13432   2.328   3.594   0.327
 4327SOL    HW113433   2.370   3.654   0.388
 4327SOL    HW213434   2.399   3.563   0.271
 4328SOL     OW13435   3.263   1.970   0.440
 4328SOL    HW113436   3.258   1.949   0.347
 4328SOL    HW213437   3.356   1.973   0.460
 4329SOL     OW13438   2.119   3.651   1.225
 4329SOL    HW113439   2.167   3.577   1.262
 4329SOL    HW213440   2.107   3.628   1.132
 4330SOL     OW13441   2.804   3.562   0.895
 4330SOL    HW113442   2.886   3.516   0.914
 4330SOL    HW213443   2.764   3.511   0.825
 4331SOL     OW13444   2.254   2.556   0.452
 4331SOL    HW113445   2.266   2.464   0.429
 4331SOL    HW213446   2.164   2.561   0.486
 4332SOL     OW13447   3.384   2.086   1.722
 4332SOL    HW113448   3.395   2.106   1.815
 4332SOL    HW213449   3.317   2.018   1.720
 4333SOL     OW13450   2.457   1.969   0.106
 4333SOL    HW113451   2.536   1.937   0.149
 4333SOL    HW213452   2.448   1.914   0.028
 4334SOL     OW13453   2.626   2.144   1.754
 4334SOL    HW113454   2.709   2.095   1.747
 4334SOL    HW213455   2.580   2.103   1.827
 4335SOL     OW13456   2.736   3.385   1.196
 4335SOL    HW113457   2.719   3.347   1.110
 4335SOL    HW213458   2.806   3.332   1.233
 4336SOL     OW13459   3.198   2.454   1.435
 4336SOL    HW113460   3.230   2.423   1.519
 4336SOL    HW213461   3.237   2.541   1.425
 4337SOL     OW13462   2.681   3.245   0.951
 4337SOL    HW113463   2.767   3.236   0.909
 4337SOL    HW213464   2.620   3.256   0.878
 4338SOL     OW13465   2.781   2.369   0.898
 4338SOL    HW113466   2.755   2.360   0.806
 4338SOL    HW213467   2.814   2.283   0.922
 4339SOL     OW13468   2.408   1.935   0.494
 4339SOL    HW113469   2.332   1.925   0.552
 4339SOL    HW213470   2.398   2.023   0.457
 4340SOL     OW13471   3.280   3.063   0.021
 4340SOL    HW113472   3.307   2.995   0.083
 4340SOL    HW213473   3.199   3.098   0.057
 4341SOL     OW13474   2.162   1.908   0.194
 4341SOL    HW113475   2.232   1.945   0.141
 4341SOL    HW213476   2.200   1.830   0.234
 4342SOL     OW13477   2.806   2.112   0.463
 4342SOL    HW113478   2.781   2.152   0.379
 4342SOL    HW213479   2.900   2.126   0.469
 4343SOL     OW13480   2.940   2.550   1.450
 4343SOL    HW113481   2.880   2.476   1.457
 4343SOL    HW213482   3.027   2.509   1.446
 4344SOL     OW13483   3.075   3.439   0.797
 4344SOL    HW113484   3.090   3.502   0.726
 4344SOL    HW213485   3.149   3.453   0.857
 4345SOL     OW13486   2.339   3.020   0.723
 4345SOL    HW113487   2.274   3.001   0.790
 4345SOL    HW213488   2.292   3.011   0.640
 4346SOL     OW13489   3.123   3.653   0.612
 4346SOL    HW113490   3.172   3.715   0.558
 4346SOL    HW213491   3.054   3.707   0.653
 4347SOL     OW13492   2.868   2.391   0.052
 4347SOL    HW113493   2.832   2.479   0.041
 4347SOL    HW213494   2.948   2.403   0.103
 4348SOL     OW13495   1.960   2.406   1.400
 4348SOL    HW113496   2.042   2.370   1.433
 4348SOL    HW213497   1.945   2.484   1.454
 4349SOL     OW13498   2.478   2.029   1.147
 4349SOL    HW113499   2.477   1.978   1.228
 4349SOL    HW213500   2.397   2.080   1.150
 4350SOL     OW13501   2.720   2.316   0.638
 4350SOL    HW113502   2.687   2.377   0.572
 4350SOL    HW213503   2.748   2.239   0.589
 4351SOL     OW13504   2.881   1.916   0.746
 4351SOL    HW113505   2.820   1.911   0.672
 4351SOL    HW213506   2.855   1.843   0.803
 4352SOL     OW13507   3.302   3.021   0.856
 4352SOL    HW113508   3.231   2.956   0.858
 4352SOL    HW213509   3.325   3.028   0.763
 4353SOL     OW13510   3.328   2.474   0.962
 4353SOL    HW113511   3.268   2.399   0.968
 4353SOL    HW213512   3.384   2.466   1.039
 4354SOL     OW13513   3.711   2.667   0.374
 4354SOL    HW113514   3.761   2.618   0.439
 4354SOL    HW213515   3.684   2.601   0.310
 4355SOL     OW13516   2.355   3.286   0.166
 4355SOL    HW113517   2.281   3.260   0.221
 4355SOL    HW213518   2.352   3.225   0.093
 4356SOL     OW13519   3.547   3.125   0.642
 4356SOL    HW113520   3.642   3.122   0.657
 4356SOL    HW213521   3.522   3.215   0.662
 4357SOL     OW13522   3.248   2.421   0.080
 4357SOL    HW113523   3.187   2.406   0.152
 4357SOL    HW213524   3.301   2.341   0.078
 4358SOL     OW13525   3.607   3.105   1.553
 4358SOL    HW113526   3.694   3.067   1.545
 4358SOL    HW213527   3.622   3.194   1.586
 4359SOL     OW13528   2.914   3.217   1.332
 4359SOL    HW113529   2.838   3.185   1.381
 4359SOL    HW213530   2.989   3.174   1.373
 4360SOL     OW13531   3.471   3.492   1.662
 4360SOL    HW113532   3.462   3.526   1.573
 4360SOL    HW213533   3.552   3.440   1.659
 4361SOL     OW13534   3.002   3.080   1.101
 4361SOL    HW113535   2.940   3.117   1.164
 4361SOL    HW213536   2.973   3.114   1.017
 4362SOL     OW13537   3.479   2.955   1.077
 4362SOL    HW113538   3.472   3.020   1.148
 4362SOL    HW213539   3.406   2.976   1.019
 4363SOL     OW13540   2.792   1.946   1.389
 4363SOL    HW113541   2.812   1.931   1.296
 4363SOL    HW213542   2.871   1.987   1.424
 4364SOL     OW13543   2.846   2.977   1.722
 4364SOL    HW113544   2.755   2.994   1.747
 4364SOL    HW213545   2.842   2.898   1.669
 4365SOL     OW13546   2.579   2.922   0.378
 4365SOL    HW113547   2.566   2.900   0.470
 4365SOL    HW213548   2.652   2.866   0.350
 4366SOL     OW13549   2.283   2.674   1.249
 4366SOL    HW113550   2.350   2.695   1.313
 4366SOL    HW213551   2.273   2.579   1.254
 4367SOL     OW13552   3.130   2.235   1.285
 4367SOL    HW113553   3.160   2.315   1.330
 4367SOL    HW213554   3.040   2.254   1.260
 4368SOL     OW13555   1.938   3.436   1.360
 4368SOL    HW113556   1.908   3.505   1.301
 4368SOL    HW213557   2.033   3.435   1.349
 4369SOL     OW13558   2.189   2.992   0.493
 4369SOL    HW113559   2.187   3.064   0.430
 4369SOL    HW213560   2.184   2.913   0.439
 4370SOL     OW13561   3.107   3.208   0.405
 4370SOL    HW113562   3.161   3.281   0.433
 4370SOL    HW213563   3.018   3.232   0.433
 4371SOL     OW13564   3.157   3.325   1.148
 4371SOL    HW113565   3.211   3.330   1.227
 4371SOL    HW213566   3.103   3.246   1.161
 4372SOL     OW13567   3.439   2.484   0.484
 4372SOL    HW113568   3.389   2.520   0.557
 4372SOL    HW213569   3.467   2.560   0.433
 4373SOL     OW13570   2.207   3.393   1.306
 4373SOL    HW113571   2.197   3.346   1.224
 4373SOL    HW213572   2.302   3.405   1.315
 4374SOL     OW13573   2.289   2.630   1.611
 4374SOL    HW113574   2.347   2.669   1.546
 4374SOL    HW213575   2.340   2.558   1.649
 4375SOL     OW13576   3.476   2.644   1.690
 4375SOL    HW113577   3.390   2.686   1.683
 4375SOL    HW213578   3.528   2.686   1.620
 4376SOL     OW13579   2.857   1.999   1.746
 4376SOL    HW113580   2.918   2.072   1.730
 4376SOL    HW213581   2.908   1.921   1.724
 4377SOL     OW13582   2.361   1.882   1.752
 4377SOL    HW113583   2.315   1.823   1.693
 4377SOL    HW213584   2.314   1.966   1.744
 4378SOL     OW13585   2.442   2.743   1.024
 4378SOL    HW113586   2.486   2.828   1.026
 4378SOL    HW213587   2.390   2.741   1.105
 4379SOL     OW13588   3.200   2.719   1.016
 4379SOL    HW113589   3.112   2.699   0.982
 4379SOL    HW213590   3.249   2.638   1.004
 4380SOL     OW13591   3.055   2.382   0.269
 4380SOL    HW113592   3.065   2.306   0.327
 4380SOL    HW213593   3.014   2.449   0.324
 4381SOL     OW13594   1.911   3.174   1.273
 4381SOL    HW113595   1.941   3.118   1.345
 4381SOL    HW213596   1.914   3.263   1.309
 4382SOL     OW13597   2.585   2.500   1.062
 4382SOL    HW113598   2.640   2.470   0.990
 4382SOL    HW213599   2.542   2.579   1.028
 4383SOL     OW13600   3.605   2.823   1.862
 4383SOL    HW113601   3.563   2.753   1.811
 4383SOL    HW213602   3.543   2.841   1.933
 4384SOL     OW13603   2.169   1.916   0.641
 4384SOL    HW113604   2.121   1.995   0.666
 4384SOL    HW213605   2.184   1.870   0.724
 4385SOL     OW13606   3.495   2.250   0.349
 4385SOL    HW113607   3.519   2.181   0.411
 4385SOL    HW213608   3.467   2.323   0.405
 4386SOL     OW13609   2.891   2.616   0.954
 4386SOL    HW113610   2.880   2.636   1.047
 4386SOL    HW213611   2.857   2.528   0.944
 4387SOL     OW13612   2.842   3.428   1.725
 4387SOL    HW113613   2.825   3.472   1.641
 4387SOL    HW213614   2.886   3.346   1.701
 4388SOL     OW13615   3.710   3.361   1.603
 4388SOL    HW113616   3.733   3.389   1.515
 4388SOL    HW213617   3.791   3.374   1.654
 4389SOL     OW13618   2.218   2.796   1.816
 4389SOL    HW113619   2.299   2.813   1.864
 4389SOL    HW213620   2.244   2.740   1.743
 4390SOL     OW13621   3.384   2.175   0.106
 4390SOL    HW113622   3.331   2.097   0.124
 4390SOL    HW213623   3.426   2.195   0.190
 4391SOL     OW13624   3.150   2.672   0.035
 4391SOL    HW113625   3.188   2.584   0.041
 4391SOL    HW213626   3.211   2.721  11.080
 4392SOL     OW13627   2.932   3.204   0.859
 4392SOL    HW113628   2.939   3.132   0.796
 4392SOL    HW213629   2.988   3.273   0.822
 4393SOL     OW13630   2.172   2.688   0.939
 4393SOL    HW113631   2.266   2.704   0.929
 4393SOL    HW213632   2.167   2.609   0.993
 4394SOL     OW13633   2.998   2.235   1.686
 4394SOL    HW113634   2.950   2.287   1.750
 4394SOL    HW213635   3.084   2.275   1.681
 4395SOL     OW13636   3.028   2.058   1.473
 4395SOL    HW113637   3.014   2.120   1.544
 4395SOL    HW213638   3.072   2.109   1.405
 4396SOL     OW13639   1.873   3.184   0.196
 4396SOL    HW113640   1.787   3.197   0.157
 4396SOL    HW213641   1.871   3.094   0.229
 4397SOL     OW13642   1.952   3.639   0.945
 4397SOL    HW113643   1.921   3.564   0.896
 4397SOL    HW213644   2.041   3.655   0.912
 4398SOL     OW13645   2.351   3.436   0.904
 4398SOL    HW113646   2.420   3.498   0.927
 4398SOL    HW213647   2.393   3.374   0.845
 4399SOL     OW13648   2.830   2.653   1.218
 4399SOL    HW113649   2.883   2.631   1.294
 4399SOL    HW213650   2.748   2.605   1.230
 4400SOL     OW13651   1.897   2.417   1.127
 4400SOL    HW113652   1.922   2.334   1.086
 4400SOL    HW213653   1.931   2.409   1.217
 4401SOL     OW13654   3.246   2.792   1.656
 4401SOL    HW113655   3.266   2.885   1.651
 4401SOL    HW213656   3.241   2.764   1.564
 4402SOL     OW13657   2.680   2.435   0.379
 4402SOL    HW113658   2.685   2.362   0.317
 4402SOL    HW213659   2.608   2.488   0.347
 4403SOL     OW13660   3.500   2.462   1.176
 4403SOL    HW113661   3.491   2.404   1.251
 4403SOL    HW213662   3.589   2.446   1.144
 4404SOL     OW13663   2.097   3.408   1.721
 4404SOL    HW113664   2.077   3.472   1.789
 4404SOL    HW213665   2.106   3.325   1.767
 4405SOL     OW13666   2.592   2.300   1.244
 4405SOL    HW113667   2.553   2.223   1.204
 4405SOL    HW213668   2.580   2.370   1.180
 4406SOL     OW13669   2.778   3.540   1.475
 4406SOL    HW113670   2.756   3.498   1.392
 4406SOL    HW213671   2.775   3.634   1.456
 4407SOL     OW13672   1.999   3.006   1.477
 4407SOL    HW113673   2.002   2.961   1.562
 4407SOL    HW213674   2.018   2.938   1.413
 4408SOL     OW13675   3.178   2.903   1.216
 4408SOL    HW113676   3.197   2.840   1.147
 4408SOL    HW213677   3.115   2.964   1.177
 4409SOL     OW13678   3.168   2.709   0.313
 4409SOL    HW113679   3.093   2.673   0.360
 4409SOL    HW213680   3.150   2.690   0.221
 4410SOL     OW13681   3.649   3.592   1.164
 4410SOL    HW113682   3.708   3.619   1.093
 4410SOL    HW213683   3.616   3.507   1.137
 4411SOL     OW13684   3.101   3.595   1.102
 4411SOL    HW113685   3.184   3.621   1.061
 4411SOL    HW213686   3.113   3.502   1.123
 4412SOL     OW13687   1.950   3.126   1.010
 4412SOL    HW113688   1.931   3.142   1.103
 4412SOL    HW213689   1.877   3.071   0.980
 4413SOL     OW13690   2.543   3.537   1.743
 4413SOL    HW113691   2.483   3.610   1.733
 4413SOL    HW213692   2.614   3.555   1.682
 4414SOL     OW13693   2.794   1.958   0.090
 4414SOL    HW113694   2.827   1.917   0.010
 4414SOL    HW213695   2.843   1.915   0.160
 4415SOL     OW13696   3.582   2.026   0.501
 4415SOL    HW113697   3.652   2.010   0.437
 4415SOL    HW213698   3.567   1.940   0.541
 4416SOL     OW13699   3.256   3.430   0.497
 4416SOL    HW113700   3.314   3.463   0.428
 4416SOL    HW213701   3.206   3.506   0.525
 4417SOL     OW13702   2.005   3.657   1.842
 4417SOL    HW113703   1.955   3.589   1.888
 4417SOL    HW213704   2.050   3.705   1.912
 4418SOL     OW13705   3.141   2.791   0.671
 4418SOL    HW113706   3.214   2.730   0.681
 4418SOL    HW213707   3.175   2.862   0.616
 4419SOL     OW13708   2.661   3.142   1.420
 4419SOL    HW113709   2.634   3.184   1.501
 4419SOL    HW213710   2.589   3.159   1.359
 4420SOL     OW13711   2.536   3.487   0.172
 4420SOL    HW113712   2.570   3.487   0.082
 4420SOL    HW213713   2.477   3.411   0.175
 4421SOL     OW13714   3.479   3.590   1.394
 4421SOL    HW113715   3.535   3.593   1.316
 4421SOL    HW213716   3.465   3.682   1.417
 4422SOL     OW13717   3.708   2.030   0.965
 4422SOL    HW113718   3.738   1.942   0.942
 4422SOL    HW213719   3.621   2.036   0.926
 4423SOL     OW13720   3.084   3.458   0.059
 4423SOL    HW113721   3.074   3.365   0.079
 4423SOL    HW213722   3.019   3.474  11.090
 4424SOL     OW13723   2.687   2.871   1.378
 4424SOL    HW113724   2.732   2.861   1.294
 4424SOL    HW213725   2.682   2.966   1.391
 4425SOL     OW13726   2.779   2.768   0.277
 4425SOL    HW113727   2.843   2.810   0.219
 4425SOL    HW213728   2.831   2.709   0.331
 4426SOL     OW13729   3.357   3.483   0.055
 4426SOL    HW113730   3.261   3.475   0.056
 4426SOL    HW213731   3.379   3.496  11.063
 4427SOL     OW13732   2.228   3.168   1.494
 4427SOL    HW113733   2.216   3.243   1.436
 4427SOL    HW213734   2.150   3.114   1.479
 4428SOL     OW13735   3.467   3.148   1.280
 4428SOL    HW113736   3.524   3.128   1.354
 4428SOL    HW213737   3.407   3.214   1.313
 4429SOL     OW13738   2.929   2.974   0.715
 4429SOL    HW113739   2.856   2.924   0.751
 4429SOL    HW213740   2.993   2.908   0.690
 4430SOL     OW13741   2.889   2.106   0.965
 4430SOL    HW113742   2.886   2.060   0.881
 4430SOL    HW213743   2.883   2.036   1.031
 4431SOL     OW13744   2.468   3.351   0.480
 4431SOL    HW113745   2.514   3.299   0.414
 4431SOL    HW213746   2.393   3.388   0.433
 4432SOL     OW13747   3.592   2.252   1.381
 4432SOL    HW113748   3.664   2.315   1.381
 4432SOL    HW213749   3.621   2.182   1.322
 4433SOL     OW13750   2.133   3.195   0.298
 4433SOL    HW113751   2.047   3.194   0.255
 4433SOL    HW213752   2.118   3.241   0.381
 4434SOL     OW13753   1.977   2.904   1.733
 4434SOL    HW113754   1.900   2.874   1.781
 4434SOL    HW213755   2.051   2.860   1.775
 4435SOL     OW13756   2.553   2.031   1.500
 4435SOL    HW113757   2.639   2.012   1.463
 4435SOL    HW213758   2.573   2.079   1.581
 4436SOL     OW13759   1.927   2.192   0.081
 4436SOL    HW113760   1.868   2.183   0.007
 4436SOL    HW213761   2.012   2.212   0.042
 4437SOL     OW13762   3.284   2.719   1.395
 4437SOL    HW113763   3.234   2.779   1.340
 4437SOL    HW213764   3.373   2.721   1.358
 4438SOL     OW13765   1.927   2.014   0.293
 4438SOL    HW113766   1.908   2.085   0.232
 4438SOL    HW213767   2.011   1.978   0.264
 4439SOL     OW13768   3.054   3.194   0.127
 4439SOL    HW113769   2.960   3.181   0.116
 4439SOL    HW213770   3.069   3.184   0.221
 4440SOL     OW13771   2.484   2.695   1.428
 4440SOL    HW113772   2.542   2.771   1.416
 4440SOL    HW213773   2.543   2.621   1.435
 4441SOL     OW13774   3.344   3.654   0.984
 4441SOL    HW113775   3.367   3.725   0.924
 4441SOL    HW213776   3.428   3.617   1.011
 4442SOL     OW13777   2.577   2.419   1.698
 4442SOL    HW113778   2.624   2.477   1.757
 4442SOL    HW213779   2.595   2.331   1.730
 4443SOL     OW13780   3.335   3.053   1.626
 4443SOL    HW113781   3.324   3.070   1.720
 4443SOL    HW213782   3.427   3.074   1.608
 4444SOL     OW13783   2.228   3.604   1.568
 4444SOL    HW113784   2.146   3.651   1.552
 4444SOL    HW213785   2.201   3.521   1.607
 4445SOL     OW13786   3.523   2.740   1.255
 4445SOL    HW113787   3.521   2.655   1.211
 4445SOL    HW213788   3.512   2.804   1.185
 4446SOL     OW13789   3.076   2.178   0.462
 4446SOL    HW113790   3.140   2.106   0.453
 4446SOL    HW213791   3.107   2.229   0.536
 4447SOL     OW13792   2.447   2.599   0.656
 4447SOL    HW113793   2.486   2.686   0.647
 4447SOL    HW213794   2.382   2.595   0.586
 4448SOL     OW13795   3.615   2.224   1.655
 4448SOL    HW113796   3.603   2.241   1.561
 4448SOL    HW213797   3.540   2.168   1.678
 4449SOL     OW13798   3.615   2.794   1.509
 4449SOL    HW113799   3.599   2.887   1.521
 4449SOL    HW213800   3.594   2.777   1.417
 4450SOL     OW13801   2.781   3.215   0.088
 4450SOL    HW113802   2.719   3.206   0.160
 4450SOL    HW213803   2.752   3.292   0.040
 4451SOL     OW13804   2.528   3.640   0.934
 4451SOL    HW113805   2.509   3.732   0.918
 4451SOL    HW213806   2.623   3.633   0.930
 4452SOL     OW13807   2.734   2.834   0.854
 4452SOL    HW113808   2.781   2.759   0.889
 4452SOL    HW213809   2.693   2.875   0.930
 4453SOL     OW13810   2.941   2.846   0.075
 4453SOL    HW113811   2.911   2.868  11.087
 4453SOL    HW213812   3.016   2.789   0.062
 4454SOL     OW13813   3.707   3.417   0.840
 4454SOL    HW113814   3.627   3.405   0.789
 4454SOL    HW213815   3.702   3.349   0.908
 4455SOL     OW13816   2.082   3.155   1.847
 4455SOL    HW113817   2.034   3.083   1.807
 4455SOL    HW213818   2.037   3.170   1.931
 4456SOL     OW13819   1.955   3.090   0.667
 4456SOL    HW113820   1.973   3.045   0.750
 4456SOL    HW213821   2.023   3.057   0.607
 4457SOL     OW13822   2.549   3.274   1.632
 4457SOL    HW113823   2.470   3.232   1.667
 4457SOL    HW213824   2.548   3.362   1.669
 4458SOL     OW13825   3.671   2.040   1.235
 4458SOL    HW113826   3.677   1.946   1.248
 4458SOL    HW213827   3.685   2.053   1.141
 4459SOL     OW13828   3.555   3.348   1.092
 4459SOL    HW113829   3.478   3.328   1.038
 4459SOL    HW213830   3.557   3.277   1.157
 4460SOL     OW13831   2.695   3.440   0.676
 4460SOL    HW113832   2.668   3.503   0.610
 4460SOL    HW213833   2.621   3.379   0.683
 4461SOL     OW13834   3.290   2.093   1.115
 4461SOL    HW113835   3.306   2.007   1.155
 4461SOL    HW213836   3.242   2.142   1.182
 4462SOL     OW13837   2.873   1.878   1.128
 4462SOL    HW113838   2.818   1.813   1.085
 4462SOL    HW213839   2.960   1.837   1.131
 4463SOL     OW13840   2.638   3.188   0.326
 4463SOL    HW113841   2.613   3.097   0.343
 4463SOL    HW213842   2.717   3.201   0.378
 4464SOL     OW13843   2.481   3.419   1.288
 4464SOL    HW113844   2.480   3.502   1.337
 4464SOL    HW213845   2.570   3.414   1.252
 4465SOL     OW13846   3.214   1.924   0.169
 4465SOL    HW113847   3.238   1.868   0.095
 4465SOL    HW213848   3.126   1.895   0.193
 4466SOL     OW13849   3.159   2.327   0.677
 4466SOL    HW113850   3.108   2.408   0.679
 4466SOL    HW213851   3.154   2.293   0.766
 4467SOL     OW13852   3.447   2.053   0.886
 4467SOL    HW113853   3.393   2.079   0.961
 4467SOL    HW213854   3.447   2.129   0.828
 4468SOL     OW13855   1.899   2.922   0.304
 4468SOL    HW113856   1.994   2.915   0.293
 4468SOL    HW213857   1.871   2.835   0.331
 4469SOL     OW13858   2.752   3.529   0.348
 4469SOL    HW113859   2.676   3.510   0.294
 4469SOL    HW213860   2.725   3.601   0.405
 4470SOL     OW13861   2.076   2.556   2.024
 4470SOL    HW113862   1.988   2.525   2.046
 4470SOL    HW213863   2.101   2.505   1.946
 4471SOL     OW13864   1.984   2.162   2.945
 4471SOL    HW113865   2.053   2.105   2.979
 4471SOL    HW213866   1.923   2.103   2.901
 4472SOL     OW13867   1.839   2.251   2.489
 4472SOL    HW113868   1.760   2.275   2.537
 4472SOL    HW213869   1.820   2.165   2.451
 4473SOL     OW13870   2.431   3.162   3.050
 4473SOL    HW113871   2.346   3.170   3.006
 4473SOL    HW213872   2.449   3.251   3.082
 4474SOL     OW13873   3.440   3.378   2.571
 4474SOL    HW113874   3.396   3.353   2.652
 4474SOL    HW213875   3.371   3.381   2.505
 4475SOL     OW13876   2.997   2.561   2.552
 4475SOL    HW113877   3.043   2.644   2.544
 4475SOL    HW213878   2.950   2.567   2.635
 4476SOL     OW13879   3.648   2.455   2.085
 4476SOL    HW113880   3.618   2.452   1.995
 4476SOL    HW213881   3.606   2.381   2.128
 4477SOL     OW13882   2.599   2.994   2.907
 4477SOL    HW113883   2.535   3.031   2.968
 4477SOL    HW213884   2.641   3.070   2.867
 4478SOL     OW13885   2.745   2.621   3.691
 4478SOL    HW113886   2.732   2.690   3.756
 4478SOL    HW213887   2.764   2.668   3.610
 4479SOL     OW13888   2.549   2.859   2.503
 4479SOL    HW113889   2.616   2.852   2.571
 4479SOL    HW213890   2.483   2.918   2.540
 4480SOL     OW13891   2.577   3.010   3.683
 4480SOL    HW113892   2.625   3.086   3.716
 4480SOL    HW213893   2.498   3.048   3.644
 4481SOL     OW13894   2.195   3.273   2.928
 4481SOL    HW113895   2.120   3.234   2.885
 4481SOL    HW213896   2.237   3.327   2.861
 4482SOL     OW13897   3.320   3.365   3.227
 4482SOL    HW113898   3.374   3.444   3.237
 4482SOL    HW213899   3.250   3.377   3.292
 4483SOL     OW13900   3.460   2.301   2.610
 4483SOL    HW113901   3.389   2.315   2.548
 4483SOL    HW213902   3.455   2.374   2.671
 4484SOL     OW13903   2.081   3.580   2.329
 4484SOL    HW113904   2.104   3.654   2.386
 4484SOL    HW213905   2.156   3.572   2.270
 4485SOL     OW13906   2.999   3.205   3.558
 4485SOL    HW113907   3.041   3.197   3.643
 4485SOL    HW213908   2.948   3.125   3.548
 4486SOL     OW13909   2.096   3.310   2.400
 4486SOL    HW113910   2.076   3.403   2.400
 4486SOL    HW213911   2.038   3.272   2.467
 4487SOL     OW13912   2.134   2.962   2.748
 4487SOL    HW113913   2.127   2.872   2.781
 4487SOL    HW213914   2.074   3.012   2.804
 4488SOL     OW13915   2.457   3.655   3.287
 4488SOL    HW113916   2.377   3.637   3.336
 4488SOL    HW213917   2.484   3.742   3.316
 4489SOL     OW13918   2.442   2.846   1.996
 4489SOL    HW113919   2.493   2.893   1.930
 4489SOL    HW213920   2.476   2.878   2.080
 4490SOL     OW13921   3.456   1.991   3.325
 4490SOL    HW113922   3.486   2.070   3.278
 4490SOL    HW213923   3.433   2.022   3.412
 4491SOL     OW13924   1.963   2.500   2.429
 4491SOL    HW113925   1.928   2.414   2.452
 4491SOL    HW213926   1.961   2.551   2.510
 4492SOL     OW13927   3.705   3.612   2.189
 4492SOL    HW113928   3.775   3.589   2.250
 4492SOL    HW213929   3.721   3.705   2.169
 4493SOL     OW13930   1.905   3.448   1.980
 4493SOL    HW113931   1.885   3.357   2.000
 4493SOL    HW213932   1.878   3.497   2.058
 4494SOL     OW13933   3.553   2.783   2.511
 4494SOL    HW113934   3.635   2.739   2.490
 4494SOL    HW213935   3.532   2.833   2.433
 4495SOL     OW13936   3.514   2.964   2.292
 4495SOL    HW113937   3.601   2.961   2.251
 4495SOL    HW213938   3.523   3.028   2.362
 4496SOL     OW13939   1.989   2.605   3.443
 4496SOL    HW113940   2.079   2.633   3.463
 4496SOL    HW213941   1.936   2.684   3.455
 4497SOL     OW13942   2.480   3.256   2.596
 4497SOL    HW113943   2.436   3.171   2.603
 4497SOL    HW213944   2.464   3.284   2.506
 4498SOL     OW13945   3.144   3.095   3.281
 4498SOL    HW113946   3.173   3.027   3.221
 4498SOL    HW213947   3.204   3.090   3.355
 4499SOL     OW13948   2.675   1.872   2.365
 4499SOL    HW113949   2.722   1.953   2.344
 4499SOL    HW213950   2.582   1.897   2.367
 4500SOL     OW13951   2.047   2.826   3.144
 4500SOL    HW113952   2.133   2.790   3.123
 4500SOL    HW213953   1.987   2.781   3.085
 4501SOL     OW13954   3.394   2.866   2.062
 4501SOL    HW113955   3.325   2.808   2.095
 4501SOL    HW213956   3.437   2.897   2.141
 4502SOL     OW13957   3.043   3.679   3.490
 4502SOL    HW113958   3.048   3.741   3.417
 4502SOL    HW213959   3.061   3.594   3.451
 4503SOL     OW13960   3.330   3.281   2.804
 4503SOL    HW113961   3.265   3.298   2.872
 4503SOL    HW213962   3.316   3.190   2.779
 4504SOL     OW13963   3.513   3.624   2.437
 4504SOL    HW113964   3.493   3.588   2.350
 4504SOL    HW213965   3.499   3.551   2.497
 4505SOL     OW13966   2.469   2.583   2.128
 4505SOL    HW113967   2.485   2.659   2.072
 4505SOL    HW213968   2.379   2.594   2.158
 4506SOL     OW13969   3.144   2.236   2.798
 4506SOL    HW113970   3.055   2.200   2.804
 4506SOL    HW213971   3.197   2.179   2.855
 4507SOL     OW13972   3.439   3.537   2.174
 4507SOL    HW113973   3.532   3.559   2.166
 4507SOL    HW213974   3.410   3.520   2.085
 4508SOL     OW13975   2.636   2.452   3.303
 4508SOL    HW113976   2.625   2.445   3.398
 4508SOL    HW213977   2.595   2.373   3.269
 4509SOL     OW13978   3.254   2.336   3.539
 4509SOL    HW113979   3.259   2.381   3.624
 4509SOL    HW213980   3.309   2.259   3.549
 4510SOL     OW13981   2.810   2.743   3.450
 4510SOL    HW113982   2.863   2.675   3.408
 4510SOL    HW213983   2.761   2.783   3.378
 4511SOL     OW13984   2.865   2.281   3.087
 4511SOL    HW113985   2.791   2.340   3.099
 4511SOL    HW213986   2.850   2.240   3.002
 4512SOL     OW13987   2.916   2.560   2.285
 4512SOL    HW113988   2.937   2.555   2.378
 4512SOL    HW213989   2.831   2.515   2.277
 4513SOL     OW13990   1.949   2.684   2.637
 4513SOL    HW113991   2.030   2.682   2.687
 4513SOL    HW213992   1.900   2.758   2.673
 4514SOL     OW13993   1.983   3.735   3.448
 4514SOL    HW113994   1.989   3.714   3.541
 4514SOL    HW213995   1.900   3.697   3.419
 4515SOL     OW13996   2.754   2.218   2.062
 4515SOL    HW113997   2.802   2.273   2.000
 4515SOL    HW213998   2.728   2.141   2.010
 4516SOL     OW13999   3.561   2.430   3.694
 4516SOL    HW114000   3.530   2.505   3.644
 4516SOL    HW214001   3.590   2.367   3.628
 4517SOL     OW14002   3.246   3.005   2.401
 4517SOL    HW114003   3.325   2.994   2.349
 4517SOL    HW214004   3.193   3.066   2.351
 4518SOL     OW14005   2.439   2.012   2.724
 4518SOL    HW114006   2.444   2.021   2.819
 4518SOL    HW214007   2.440   2.102   2.692
 4519SOL     OW14008   2.859   3.308   2.328
 4519SOL    HW114009   2.831   3.384   2.277
 4519SOL    HW214010   2.834   3.328   2.418
 4520SOL     OW14011   2.215   3.678   2.735
 4520SOL    HW114012   2.260   3.594   2.741
 4520SOL    HW214013   2.283   3.743   2.754
 4521SOL     OW14014   3.663   2.915   2.740
 4521SOL    HW114015   3.612   2.895   2.661
 4521SOL    HW214016   3.598   2.921   2.809
 4522SOL     OW14017   3.086   3.404   3.376
 4522SOL    HW114018   3.075   3.332   3.439
 4522SOL    HW214019   3.019   3.388   3.310
 4523SOL     OW14020   2.176   2.801   2.127
 4523SOL    HW114021   2.248   2.822   2.067
 4523SOL    HW214022   2.137   2.721   2.091
 4524SOL     OW14023   3.344   2.616   2.580
 4524SOL    HW114024   3.343   2.576   2.667
 4524SOL    HW214025   3.423   2.671   2.580
 4525SOL     OW14026   2.335   3.133   3.601
 4525SOL    HW114027   2.309   3.138   3.509
 4525SOL    HW214028   2.252   3.128   3.649
 4526SOL     OW14029   2.989   3.641   2.088
 4526SOL    HW114030   2.912   3.604   2.131
 4526SOL    HW214031   3.013   3.576   2.022
 4527SOL     OW14032   1.968   2.117   3.374
 4527SOL    HW114033   1.897   2.150   3.429
 4527SOL    HW214034   1.987   2.030   3.408
 4528SOL     OW14035   3.492   3.246   1.956
 4528SOL    HW114036   3.450   3.331   1.941
 4528SOL    HW214037   3.425   3.182   1.933
 4529SOL     OW14038   2.323   3.600   2.179
 4529SOL    HW114039   2.370   3.653   2.243
 4529SOL    HW214040   2.392   3.562   2.124
 4530SOL     OW14041   3.261   1.969   2.307
 4530SOL    HW114042   3.254   1.943   2.215
 4530SOL    HW214043   3.355   1.972   2.324
 4531SOL     OW14044   2.118   3.651   3.087
 4531SOL    HW114045   2.167   3.578   3.125
 4531SOL    HW214046   2.108   3.627   2.995
 4532SOL     OW14047   2.804   3.562   2.757
 4532SOL    HW114048   2.885   3.516   2.777
 4532SOL    HW214049   2.764   3.511   2.686
 4533SOL     OW14050   3.384   2.086   3.584
 4533SOL    HW114051   3.395   2.106   3.677
 4533SOL    HW214052   3.318   2.017   3.582
 4534SOL     OW14053   2.524   1.980   1.951
 4534SOL    HW114054   2.562   1.908   2.000
 4534SOL    HW214055   2.465   1.939   1.889
 4535SOL     OW14056   2.631   2.139   3.618
 4535SOL    HW114057   2.712   2.089   3.613
 4535SOL    HW214058   2.583   2.101   3.692
 4536SOL     OW14059   2.736   3.386   3.058
 4536SOL    HW114060   2.719   3.347   2.972
 4536SOL    HW214061   2.806   3.332   3.096
 4537SOL     OW14062   3.194   2.456   3.297
 4537SOL    HW114063   3.227   2.424   3.381
 4537SOL    HW214064   3.235   2.542   3.287
 4538SOL     OW14065   2.681   3.246   2.812
 4538SOL    HW114066   2.767   3.237   2.771
 4538SOL    HW214067   2.620   3.257   2.740
 4539SOL     OW14068   2.804   2.364   2.771
 4539SOL    HW114069   2.758   2.364   2.688
 4539SOL    HW214070   2.833   2.273   2.783
 4540SOL     OW14071   2.404   1.948   2.358
 4540SOL    HW114072   2.377   1.952   2.449
 4540SOL    HW214073   2.366   2.028   2.319
 4541SOL     OW14074   3.291   3.065   1.899
 4541SOL    HW114075   3.321   2.991   1.951
 4541SOL    HW214076   3.206   3.088   1.936
 4542SOL     OW14077   2.808   2.110   2.313
 4542SOL    HW114078   2.785   2.148   2.228
 4542SOL    HW214079   2.902   2.125   2.321
 4543SOL     OW14080   2.933   2.542   3.310
 4543SOL    HW114081   2.878   2.464   3.321
 4543SOL    HW214082   3.022   2.509   3.306
 4544SOL     OW14083   3.076   3.438   2.659
 4544SOL    HW114084   3.091   3.502   2.589
 4544SOL    HW214085   3.149   3.453   2.720
 4545SOL     OW14086   2.337   3.019   2.580
 4545SOL    HW114087   2.271   3.001   2.646
 4545SOL    HW214088   2.292   3.007   2.496
 4546SOL     OW14089   3.122   3.652   2.476
 4546SOL    HW114090   3.171   3.714   2.422
 4546SOL    HW214091   3.053   3.705   2.516
 4547SOL     OW14092   2.889   2.391   1.889
 4547SOL    HW114093   2.845   2.474   1.871
 4547SOL    HW214094   2.952   2.412   1.957
 4548SOL     OW14095   1.952   2.423   3.249
 4548SOL    HW114096   2.015   2.360   3.284
 4548SOL    HW214097   1.950   2.493   3.314
 4549SOL     OW14098   2.435   2.017   2.994
 4549SOL    HW114099   2.452   1.962   3.071
 4549SOL    HW214100   2.365   2.076   3.022
 4550SOL     OW14101   2.728   2.314   2.497
 4550SOL    HW114102   2.695   2.372   2.429
 4550SOL    HW214103   2.757   2.236   2.451
 4551SOL     OW14104   2.884   1.915   2.606
 4551SOL    HW114105   2.822   1.912   2.533
 4551SOL    HW214106   2.859   1.841   2.661
 4552SOL     OW14107   3.301   3.020   2.718
 4552SOL    HW114108   3.231   2.955   2.721
 4552SOL    HW214109   3.323   3.027   2.625
 4553SOL     OW14110   3.328   2.473   2.822
 4553SOL    HW114111   3.268   2.399   2.828
 4553SOL    HW214112   3.383   2.465   2.900
 4554SOL     OW14113   3.700   2.668   2.249
 4554SOL    HW114114   3.759   2.621   2.307
 4554SOL    HW214115   3.678   2.605   2.180
 4555SOL     OW14116   2.350   3.285   2.013
 4555SOL    HW114117   2.275   3.255   2.064
 4555SOL    HW214118   2.348   3.232   1.933
 4556SOL     OW14119   3.547   3.127   2.501
 4556SOL    HW114120   3.641   3.124   2.518
 4556SOL    HW214121   3.521   3.217   2.524
 4557SOL     OW14122   3.254   2.435   1.933
 4557SOL    HW114123   3.193   2.413   2.003
 4557SOL    HW214124   3.340   2.405   1.964
 4558SOL     OW14125   3.607   3.105   3.415
 4558SOL    HW114126   3.694   3.067   3.407
 4558SOL    HW214127   3.622   3.194   3.448
 4559SOL     OW14128   2.914   3.218   3.194
 4559SOL    HW114129   2.838   3.185   3.242
 4559SOL    HW214130   2.989   3.174   3.235
 4560SOL     OW14131   3.471   3.492   3.524
 4560SOL    HW114132   3.462   3.526   3.435
 4560SOL    HW214133   3.552   3.440   3.521
 4561SOL     OW14134   3.003   3.081   2.963
 4561SOL    HW114135   2.940   3.116   3.026
 4561SOL    HW214136   2.973   3.114   2.879
 4562SOL     OW14137   3.480   2.955   2.939
 4562SOL    HW114138   3.473   3.020   3.009
 4562SOL    HW214139   3.406   2.975   2.881
 4563SOL     OW14140   2.790   1.947   3.253
 4563SOL    HW114141   2.809   1.932   3.160
 4563SOL    HW214142   2.869   1.988   3.287
 4564SOL     OW14143   2.846   2.977   3.583
 4564SOL    HW114144   2.755   2.993   3.609
 4564SOL    HW214145   2.842   2.897   3.530
 4565SOL     OW14146   2.573   2.925   2.230
 4565SOL    HW114147   2.559   2.905   2.323
 4565SOL    HW214148   2.647   2.871   2.205
 4566SOL     OW14149   2.282   2.679   3.116
 4566SOL    HW114150   2.355   2.694   3.176
 4566SOL    HW214151   2.234   2.605   3.155
 4567SOL     OW14152   3.129   2.235   3.148
 4567SOL    HW114153   3.159   2.314   3.192
 4567SOL    HW214154   3.039   2.254   3.121
 4568SOL     OW14155   1.938   3.436   3.222
 4568SOL    HW114156   1.909   3.506   3.163
 4568SOL    HW214157   2.033   3.434   3.212
 4569SOL     OW14158   2.197   2.981   2.343
 4569SOL    HW114159   2.195   3.056   2.284
 4569SOL    HW214160   2.194   2.904   2.286
 4570SOL     OW14161   2.519   2.471   2.721
 4570SOL    HW114162   2.508   2.481   2.626
 4570SOL    HW214163   2.471   2.544   2.759
 4571SOL     OW14164   3.108   3.213   2.254
 4571SOL    HW114165   3.165   3.283   2.287
 4571SOL    HW214166   3.021   3.235   2.287
 4572SOL     OW14167   3.157   3.325   3.010
 4572SOL    HW114168   3.211   3.330   3.089
 4572SOL    HW214169   3.104   3.246   3.022
 4573SOL     OW14170   3.437   2.481   2.347
 4573SOL    HW114171   3.387   2.524   2.417
 4573SOL    HW214172   3.480   2.552   2.301
 4574SOL     OW14173   2.207   3.393   3.168
 4574SOL    HW114174   2.197   3.346   3.086
 4574SOL    HW214175   2.302   3.405   3.178
 4575SOL     OW14176   2.285   2.612   3.456
 4575SOL    HW114177   2.355   2.655   3.407
 4575SOL    HW214178   2.308   2.519   3.456
 4576SOL     OW14179   3.476   2.645   3.552
 4576SOL    HW114180   3.390   2.686   3.545
 4576SOL    HW214181   3.528   2.686   3.482
 4577SOL     OW14182   2.861   1.997   3.614
 4577SOL    HW114183   2.920   2.071   3.594
 4577SOL    HW214184   2.911   1.920   3.589
 4578SOL     OW14185   2.348   1.895   3.616
 4578SOL    HW114186   2.308   1.830   3.558
 4578SOL    HW214187   2.303   1.977   3.596
 4579SOL     OW14188   2.440   2.715   2.890
 4579SOL    HW114189   2.482   2.801   2.883
 4579SOL    HW214190   2.389   2.719   2.971
 4580SOL     OW14191   3.199   2.719   2.877
 4580SOL    HW114192   3.111   2.699   2.844
 4580SOL    HW214193   3.249   2.638   2.865
 4581SOL     OW14194   3.058   2.388   2.122
 4581SOL    HW114195   3.068   2.310   2.176
 4581SOL    HW214196   3.016   2.452   2.179
 4582SOL     OW14197   1.913   3.175   3.134
 4582SOL    HW114198   1.941   3.118   3.206
 4582SOL    HW214199   1.915   3.263   3.171
 4583SOL     OW14200   2.634   2.515   2.974
 4583SOL    HW114201   2.647   2.462   2.895
 4583SOL    HW214202   2.571   2.582   2.948
 4584SOL     OW14203   3.605   2.823   3.724
 4584SOL    HW114204   3.563   2.753   3.673
 4584SOL    HW214205   3.543   2.841   3.795
 4585SOL     OW14206   3.489   2.245   2.217
 4585SOL    HW114207   3.517   2.179   2.280
 4585SOL    HW214208   3.462   2.320   2.271
 4586SOL     OW14209   2.898   2.621   2.816
 4586SOL    HW114210   2.887   2.643   2.909
 4586SOL    HW214211   2.864   2.531   2.810
 4587SOL     OW14212   2.843   3.428   3.587
 4587SOL    HW114213   2.826   3.472   3.503
 4587SOL    HW214214   2.885   3.346   3.563
 4588SOL     OW14215   3.710   3.361   3.465
 4588SOL    HW114216   3.733   3.389   3.377
 4588SOL    HW214217   3.791   3.374   3.516
 4589SOL     OW14218   2.217   2.780   3.666
 4589SOL    HW114219   2.294   2.798   3.720
 4589SOL    HW214220   2.249   2.721   3.598
 4590SOL     OW14221   3.386   2.134   1.986
 4590SOL    HW114222   3.325   2.067   2.017
 4590SOL    HW214223   3.422   2.172   2.066
 4591SOL     OW14224   3.146   2.685   1.888
 4591SOL    HW114225   3.188   2.599   1.894
 4591SOL    HW214226   3.180   2.723   1.807
 4592SOL     OW14227   2.932   3.204   2.721
 4592SOL    HW114228   2.939   3.132   2.658
 4592SOL    HW214229   2.988   3.273   2.685
 4593SOL     OW14230   2.166   2.687   2.808
 4593SOL    HW114231   2.261   2.698   2.809
 4593SOL    HW214232   2.150   2.606   2.856
 4594SOL     OW14233   2.997   2.235   3.548
 4594SOL    HW114234   2.950   2.288   3.612
 4594SOL    HW214235   3.083   2.275   3.542
 4595SOL     OW14236   3.027   2.058   3.336
 4595SOL    HW114237   3.014   2.121   3.406
 4595SOL    HW214238   3.071   2.108   3.267
 4596SOL     OW14239   1.875   3.173   2.051
 4596SOL    HW114240   1.787   3.192   2.019
 4596SOL    HW214241   1.868   3.085   2.089
 4597SOL     OW14242   1.952   3.639   2.807
 4597SOL    HW114243   1.921   3.563   2.758
 4597SOL    HW214244   2.041   3.655   2.773
 4598SOL     OW14245   2.351   3.436   2.765
 4598SOL    HW114246   2.420   3.498   2.789
 4598SOL    HW214247   2.393   3.374   2.706
 4599SOL     OW14248   2.836   2.666   3.082
 4599SOL    HW114249   2.876   2.630   3.161
 4599SOL    HW214250   2.761   2.609   3.065
 4600SOL     OW14251   1.908   2.418   2.981
 4600SOL    HW114252   1.936   2.330   2.955
 4600SOL    HW214253   1.931   2.424   3.073
 4601SOL     OW14254   3.246   2.792   3.517
 4601SOL    HW114255   3.266   2.885   3.513
 4601SOL    HW214256   3.241   2.764   3.426
 4602SOL     OW14257   2.676   2.430   2.238
 4602SOL    HW114258   2.686   2.360   2.173
 4602SOL    HW214259   2.605   2.484   2.204
 4603SOL     OW14260   3.500   2.462   3.038
 4603SOL    HW114261   3.491   2.403   3.113
 4603SOL    HW214262   3.589   2.446   3.005
 4604SOL     OW14263   2.097   3.408   3.583
 4604SOL    HW114264   2.077   3.471   3.651
 4604SOL    HW214265   2.106   3.325   3.629
 4605SOL     OW14266   2.778   3.540   3.337
 4605SOL    HW114267   2.756   3.498   3.254
 4605SOL    HW214268   2.775   3.634   3.318
 4606SOL     OW14269   1.999   3.007   3.340
 4606SOL    HW114270   2.002   2.962   3.425
 4606SOL    HW214271   2.016   2.939   3.276
 4607SOL     OW14272   3.179   2.903   3.078
 4607SOL    HW114273   3.197   2.839   3.009
 4607SOL    HW214274   3.116   2.963   3.039
 4608SOL     OW14275   3.181   2.720   2.162
 4608SOL    HW114276   3.109   2.687   2.216
 4608SOL    HW214277   3.153   2.705   2.072
 4609SOL     OW14278   3.649   3.593   3.026
 4609SOL    HW114279   3.707   3.619   2.955
 4609SOL    HW214280   3.616   3.507   2.999
 4610SOL     OW14281   3.101   3.594   2.963
 4610SOL    HW114282   3.184   3.621   2.923
 4610SOL    HW214283   3.113   3.502   2.985
 4611SOL     OW14284   1.952   3.125   2.872
 4611SOL    HW114285   1.934   3.142   2.964
 4611SOL    HW214286   1.878   3.071   2.842
 4612SOL     OW14287   2.543   3.536   3.605
 4612SOL    HW114288   2.483   3.610   3.595
 4612SOL    HW214289   2.615   3.555   3.544
 4613SOL     OW14290   3.589   2.025   2.364
 4613SOL    HW114291   3.657   2.007   2.299
 4613SOL    HW214292   3.571   1.939   2.403
 4614SOL     OW14293   3.257   3.430   2.357
 4614SOL    HW114294   3.313   3.464   2.288
 4614SOL    HW214295   3.205   3.505   2.386
 4615SOL     OW14296   2.005   3.656   3.704
 4615SOL    HW114297   1.955   3.589   3.750
 4615SOL    HW214298   2.050   3.705   3.774
 4616SOL     OW14299   3.140   2.793   2.533
 4616SOL    HW114300   3.213   2.733   2.544
 4616SOL    HW214301   3.175   2.864   2.479
 4617SOL     OW14302   2.662   3.141   3.281
 4617SOL    HW114303   2.635   3.184   3.363
 4617SOL    HW214304   2.589   3.157   3.221
 4618SOL     OW14305   2.529   3.491   2.019
 4618SOL    HW114306   2.543   3.505   1.925
 4618SOL    HW214307   2.474   3.412   2.023
 4619SOL     OW14308   3.479   3.590   3.256
 4619SOL    HW114309   3.535   3.594   3.178
 4619SOL    HW214310   3.465   3.682   3.279
 4620SOL     OW14311   3.708   2.030   2.827
 4620SOL    HW114312   3.738   1.941   2.804
 4620SOL    HW214313   3.621   2.037   2.788
 4621SOL     OW14314   3.070   3.460   1.896
 4621SOL    HW114315   3.059   3.369   1.923
 4621SOL    HW214316   3.004   3.474   1.829
 4622SOL     OW14317   2.687   2.869   3.242
 4622SOL    HW114318   2.737   2.854   3.162
 4622SOL    HW214319   2.684   2.964   3.251
 4623SOL     OW14320   2.778   2.771   2.152
 4623SOL    HW114321   2.838   2.805   2.086
 4623SOL    HW214322   2.829   2.705   2.199
 4624SOL     OW14323   3.349   3.495   1.910
 4624SOL    HW114324   3.256   3.482   1.894
 4624SOL    HW214325   3.388   3.500   1.823
 4625SOL     OW14326   2.228   3.168   3.355
 4625SOL    HW114327   2.216   3.243   3.298
 4625SOL    HW214328   2.150   3.114   3.342
 4626SOL     OW14329   3.467   3.148   3.142
 4626SOL    HW114330   3.524   3.128   3.216
 4626SOL    HW214331   3.407   3.214   3.175
 4627SOL     OW14332   2.928   2.974   2.578
 4627SOL    HW114333   2.854   2.923   2.612
 4627SOL    HW214334   2.993   2.908   2.553
 4628SOL     OW14335   2.895   2.101   2.824
 4628SOL    HW114336   2.892   2.052   2.741
 4628SOL    HW214337   2.886   2.034   2.892
 4629SOL     OW14338   2.468   3.350   2.341
 4629SOL    HW114339   2.520   3.300   2.278
 4629SOL    HW214340   2.390   3.377   2.292
 4630SOL     OW14341   3.592   2.252   3.243
 4630SOL    HW114342   3.664   2.315   3.243
 4630SOL    HW214343   3.621   2.182   3.184
 4631SOL     OW14344   2.130   3.199   2.161
 4631SOL    HW114345   2.039   3.196   2.131
 4631SOL    HW214346   2.125   3.243   2.246
 4632SOL     OW14347   1.979   2.902   3.594
 4632SOL    HW114348   1.902   2.872   3.644
 4632SOL    HW214349   2.052   2.855   3.633
 4633SOL     OW14350   2.551   2.041   3.360
 4633SOL    HW114351   2.637   2.018   3.323
 4633SOL    HW214352   2.573   2.085   3.442
 4634SOL     OW14353   1.890   2.172   1.925
 4634SOL    HW114354   1.829   2.130   1.864
 4634SOL    HW214355   1.888   2.265   1.901
 4635SOL     OW14356   3.284   2.719   3.257
 4635SOL    HW114357   3.234   2.779   3.202
 4635SOL    HW214358   3.373   2.721   3.220
 4636SOL     OW14359   1.925   2.022   2.158
 4636SOL    HW114360   1.904   2.077   2.082
 4636SOL    HW214361   2.002   2.063   2.197
 4637SOL     OW14362   3.040   3.193   1.981
 4637SOL    HW114363   2.950   3.163   1.982
 4637SOL    HW214364   3.066   3.195   2.073
 4638SOL     OW14365   2.490   2.686   3.288
 4638SOL    HW114366   2.550   2.760   3.279
 4638SOL    HW214367   2.547   2.609   3.289
 4639SOL     OW14368   3.344   3.653   2.846
 4639SOL    HW114369   3.367   3.725   2.786
 4639SOL    HW214370   3.429   3.618   2.874
 4640SOL     OW14371   2.595   2.420   3.565
 4640SOL    HW114372   2.639   2.481   3.624
 4640SOL    HW214373   2.615   2.333   3.600
 4641SOL     OW14374   3.335   3.053   3.488
 4641SOL    HW114375   3.324   3.070   3.582
 4641SOL    HW214376   3.427   3.074   3.470
 4642SOL     OW14377   2.228   3.604   3.430
 4642SOL    HW114378   2.146   3.651   3.414
 4642SOL    HW214379   2.201   3.521   3.469
 4643SOL     OW14380   3.523   2.739   3.117
 4643SOL    HW114381   3.521   2.654   3.073
 4643SOL    HW214382   3.513   2.803   3.047
 4644SOL     OW14383   3.079   2.182   2.319
 4644SOL    HW114384   3.140   2.108   2.314
 4644SOL    HW214385   3.108   2.232   2.394
 4645SOL     OW14386   2.433   2.607   2.496
 4645SOL    HW114387   2.484   2.688   2.492
 4645SOL    HW214388   2.350   2.629   2.453
 4646SOL     OW14389   3.615   2.224   3.517
 4646SOL    HW114390   3.604   2.241   3.424
 4646SOL    HW214391   3.540   2.168   3.540
 4647SOL     OW14392   3.615   2.794   3.371
 4647SOL    HW114393   3.599   2.887   3.383
 4647SOL    HW214394   3.594   2.777   3.279
 4648SOL     OW14395   2.727   3.226   1.910
 4648SOL    HW114396   2.690   3.252   1.994
 4648SOL    HW214397   2.742   3.309   1.864
 4649SOL     OW14398   2.527   3.640   2.796
 4649SOL    HW114399   2.509   3.733   2.780
 4649SOL    HW214400   2.623   3.633   2.792
 4650SOL     OW14401   2.731   2.833   2.714
 4650SOL    HW114402   2.780   2.758   2.749
 4650SOL    HW214403   2.694   2.876   2.791
 4651SOL     OW14404   2.937   2.849   1.949
 4651SOL    HW114405   2.917   2.902   1.872
 4651SOL    HW214406   3.011   2.794   1.923
 4652SOL     OW14407   3.707   3.417   2.702
 4652SOL    HW114408   3.626   3.405   2.651
 4652SOL    HW214409   3.702   3.349   2.770
 4653SOL     OW14410   2.085   3.156   3.710
 4653SOL    HW114411   2.034   3.084   3.672
 4653SOL    HW214412   2.047   3.169   3.797
 4654SOL     OW14413   1.954   3.091   2.527
 4654SOL    HW114414   1.967   3.048   2.611
 4654SOL    HW214415   2.018   3.051   2.469
 4655SOL     OW14416   2.549   3.273   3.493
 4655SOL    HW114417   2.471   3.231   3.529
 4655SOL    HW214418   2.548   3.361   3.531
 4656SOL     OW14419   3.672   2.041   3.097
 4656SOL    HW114420   3.677   1.946   3.110
 4656SOL    HW214421   3.686   2.053   3.004
 4657SOL     OW14422   3.555   3.348   2.953
 4657SOL    HW114423   3.478   3.328   2.900
 4657SOL    HW214424   3.558   3.277   3.018
 4658SOL     OW14425   2.696   3.442   2.535
 4658SOL    HW114426   2.671   3.509   2.472
 4658SOL    HW214427   2.621   3.382   2.539
 4659SOL     OW14428   3.291   2.091   2.978
 4659SOL    HW114429   3.304   2.005   3.016
 4659SOL    HW214430   3.243   2.140   3.045
 4660SOL     OW14431   2.873   1.877   2.993
 4660SOL    HW114432   2.816   1.812   2.951
 4660SOL    HW214433   2.959   1.836   2.994
 4661SOL     OW14434   2.637   3.196   2.185
 4661SOL    HW114435   2.612   3.104   2.193
 4661SOL    HW214436   2.719   3.203   2.235
 4662SOL     OW14437   2.481   3.419   3.150
 4662SOL    HW114438   2.480   3.502   3.198
 4662SOL    HW214439   2.570   3.413   3.114
 4663SOL     OW14440   3.224   1.911   2.039
 4663SOL    HW114441   3.260   1.839   1.987
 4663SOL    HW214442   3.134   1.884   2.057
 4664SOL     OW14443   3.160   2.327   2.538
 4664SOL    HW114444   3.107   2.407   2.540
 4664SOL    HW214445   3.154   2.293   2.627
 4665SOL     OW14446   3.447   2.053   2.748
 4665SOL    HW114447   3.393   2.079   2.823
 4665SOL    HW214448   3.447   2.129   2.690
 4666SOL     OW14449   1.903   2.921   2.174
 4666SOL    HW114450   1.996   2.912   2.154
 4666SOL    HW214451   1.875   2.833   2.197
 4667SOL     OW14452   2.753   3.527   2.197
 4667SOL    HW114453   2.676   3.511   2.142
 4667SOL    HW214454   2.726   3.598   2.256
 4668SOL     OW14455   2.054   2.544   3.879
 4668SOL    HW114456   1.967   2.515   3.906
 4668SOL    HW214457   2.064   2.514   3.789
 4669SOL     OW14458   1.852   2.253   4.350
 4669SOL    HW114459   1.775   2.270   4.403
 4669SOL    HW214460   1.833   2.171   4.304
 4670SOL     OW14461   2.429   3.162   4.915
 4670SOL    HW114462   2.347   3.170   4.867
 4670SOL    HW214463   2.448   3.251   4.945
 4671SOL     OW14464   3.439   3.378   4.434
 4671SOL    HW114465   3.394   3.354   4.515
 4671SOL    HW214466   3.370   3.382   4.368
 4672SOL     OW14467   3.002   2.542   4.394
 4672SOL    HW114468   3.027   2.631   4.418
 4672SOL    HW214469   2.946   2.512   4.466
 4673SOL     OW14470   3.647   2.455   3.948
 4673SOL    HW114471   3.617   2.452   3.857
 4673SOL    HW214472   3.605   2.381   3.990
 4674SOL     OW14473   2.633   3.017   4.789
 4674SOL    HW114474   2.552   3.034   4.838
 4674SOL    HW214475   2.655   3.102   4.750
 4675SOL     OW14476   2.744   2.671   5.577
 4675SOL    HW114477   2.682   2.733   5.616
 4675SOL    HW214478   2.754   2.701   5.487
 4676SOL     OW14479   2.550   2.863   4.367
 4676SOL    HW114480   2.612   2.856   4.439
 4676SOL    HW214481   2.479   2.918   4.401
 4677SOL     OW14482   2.592   3.018   5.529
 4677SOL    HW114483   2.626   3.101   5.563
 4677SOL    HW214484   2.502   3.037   5.504
 4678SOL     OW14485   2.196   3.275   4.790
 4678SOL    HW114486   2.119   3.238   4.746
 4678SOL    HW214487   2.239   3.328   4.723
 4679SOL     OW14488   3.320   3.367   5.088
 4679SOL    HW114489   3.374   3.445   5.099
 4679SOL    HW214490   3.251   3.376   5.154
 4680SOL     OW14491   3.463   2.299   4.473
 4680SOL    HW114492   3.392   2.314   4.411
 4680SOL    HW214493   3.459   2.373   4.533
 4681SOL     OW14494   2.081   3.581   4.191
 4681SOL    HW114495   2.104   3.654   4.248
 4681SOL    HW214496   2.156   3.572   4.132
 4682SOL     OW14497   2.999   3.207   5.421
 4682SOL    HW114498   3.039   3.201   5.508
 4682SOL    HW214499   2.948   3.127   5.412
 4683SOL     OW14500   2.096   3.310   4.261
 4683SOL    HW114501   2.076   3.404   4.261
 4683SOL    HW214502   2.039   3.273   4.328
 4684SOL     OW14503   2.127   2.966   4.609
 4684SOL    HW114504   2.137   2.889   4.666
 4684SOL    HW214505   2.071   3.025   4.659
 4685SOL     OW14506   2.456   3.656   5.147
 4685SOL    HW114507   2.377   3.638   5.197
 4685SOL    HW214508   2.484   3.743   5.177
 4686SOL     OW14509   2.435   2.845   3.862
 4686SOL    HW114510   2.486   2.891   3.795
 4686SOL    HW214511   2.471   2.876   3.945
 4687SOL     OW14512   3.463   1.987   5.193
 4687SOL    HW114513   3.482   2.069   5.147
 4687SOL    HW214514   3.433   2.014   5.279
 4688SOL     OW14515   1.988   2.507   4.287
 4688SOL    HW114516   1.948   2.422   4.308
 4688SOL    HW214517   1.973   2.560   4.365
 4689SOL     OW14518   3.705   3.612   4.051
 4689SOL    HW114519   3.775   3.589   4.112
 4689SOL    HW214520   3.721   3.705   4.031
 4690SOL     OW14521   1.905   3.448   3.842
 4690SOL    HW114522   1.885   3.357   3.862
 4690SOL    HW214523   1.877   3.496   3.920
 4691SOL     OW14524   3.550   2.779   4.373
 4691SOL    HW114525   3.634   2.737   4.354
 4691SOL    HW214526   3.531   2.830   4.294
 4692SOL     OW14527   3.513   2.962   4.155
 4692SOL    HW114528   3.599   2.961   4.115
 4692SOL    HW214529   3.520   3.027   4.226
 4693SOL     OW14530   2.479   3.256   4.458
 4693SOL    HW114531   2.436   3.171   4.465
 4693SOL    HW214532   2.464   3.284   4.368
 4694SOL     OW14533   3.147   3.101   5.142
 4694SOL    HW114534   3.173   3.030   5.083
 4694SOL    HW214535   3.205   3.092   5.217
 4695SOL     OW14536   2.680   1.866   4.229
 4695SOL    HW114537   2.722   1.949   4.207
 4695SOL    HW214538   2.587   1.888   4.238
 4696SOL     OW14539   3.393   2.865   3.925
 4696SOL    HW114540   3.324   2.807   3.957
 4696SOL    HW214541   3.436   2.897   4.004
 4697SOL     OW14542   3.044   3.679   5.352
 4697SOL    HW114543   3.048   3.740   5.278
 4697SOL    HW214544   3.061   3.593   5.314
 4698SOL     OW14545   3.328   3.283   4.668
 4698SOL    HW114546   3.263   3.298   4.736
 4698SOL    HW214547   3.316   3.192   4.642
 4699SOL     OW14548   3.513   3.624   4.299
 4699SOL    HW114549   3.493   3.588   4.212
 4699SOL    HW214550   3.499   3.551   4.359
 4700SOL     OW14551   2.469   2.583   3.993
 4700SOL    HW114552   2.465   2.662   3.940
 4700SOL    HW214553   2.394   2.590   4.053
 4701SOL     OW14554   3.150   2.229   4.657
 4701SOL    HW114555   3.075   2.173   4.638
 4701SOL    HW214556   3.201   2.178   4.721
 4702SOL     OW14557   3.439   3.537   4.036
 4702SOL    HW114558   3.532   3.559   4.028
 4702SOL    HW214559   3.410   3.520   3.947
 4703SOL     OW14560   3.275   2.351   5.391
 4703SOL    HW114561   3.272   2.396   5.476
 4703SOL    HW214562   3.333   2.276   5.406
 4704SOL     OW14563   2.848   2.758   5.303
 4704SOL    HW114564   2.834   2.665   5.285
 4704SOL    HW214565   2.829   2.801   5.219
 4705SOL     OW14566   2.916   2.561   4.134
 4705SOL    HW114567   2.943   2.553   4.226
 4705SOL    HW214568   2.831   2.517   4.129
 4706SOL     OW14569   1.947   2.692   4.491
 4706SOL    HW114570   2.018   2.669   4.551
 4706SOL    HW214571   1.907   2.769   4.531
 4707SOL     OW14572   1.983   3.735   5.311
 4707SOL    HW114573   1.989   3.712   5.404
 4707SOL    HW214574   1.899   3.698   5.283
 4708SOL     OW14575   2.760   2.214   3.920
 4708SOL    HW114576   2.804   2.276   3.861
 4708SOL    HW214577   2.755   2.133   3.869
 4709SOL     OW14578   3.572   2.431   5.555
 4709SOL    HW114579   3.537   2.505   5.506
 4709SOL    HW214580   3.596   2.367   5.487
 4710SOL     OW14581   3.240   2.997   4.266
 4710SOL    HW114582   3.319   2.985   4.214
 4710SOL    HW214583   3.188   3.060   4.217
 4711SOL     OW14584   2.860   3.308   4.190
 4711SOL    HW114585   2.831   3.384   4.139
 4711SOL    HW214586   2.834   3.328   4.280
 4712SOL     OW14587   2.216   3.678   4.598
 4712SOL    HW114588   2.261   3.594   4.603
 4712SOL    HW214589   2.283   3.743   4.616
 4713SOL     OW14590   3.662   2.914   4.601
 4713SOL    HW114591   3.610   2.894   4.523
 4713SOL    HW214592   3.599   2.921   4.672
 4714SOL     OW14593   3.087   3.404   5.239
 4714SOL    HW114594   3.076   3.332   5.301
 4714SOL    HW214595   3.020   3.389   5.172
 4715SOL     OW14596   2.162   2.816   3.976
 4715SOL    HW114597   2.244   2.830   3.930
 4715SOL    HW214598   2.133   2.729   3.948
 4716SOL     OW14599   3.341   2.615   4.446
 4716SOL    HW114600   3.347   2.573   4.532
 4716SOL    HW214601   3.420   2.670   4.441
 4717SOL     OW14602   2.339   3.127   5.461
 4717SOL    HW114603   2.314   3.136   5.369
 4717SOL    HW214604   2.256   3.136   5.508
 4718SOL     OW14605   2.989   3.641   3.950
 4718SOL    HW114606   2.912   3.604   3.993
 4718SOL    HW214607   3.013   3.576   3.884
 4719SOL     OW14608   3.492   3.246   3.818
 4719SOL    HW114609   3.450   3.331   3.803
 4719SOL    HW214610   3.425   3.182   3.795
 4720SOL     OW14611   2.323   3.600   4.041
 4720SOL    HW114612   2.370   3.653   4.105
 4720SOL    HW214613   2.392   3.562   3.986
 4721SOL     OW14614   3.260   1.969   4.168
 4721SOL    HW114615   3.254   1.942   4.076
 4721SOL    HW214616   3.354   1.971   4.187
 4722SOL     OW14617   2.117   3.650   4.950
 4722SOL    HW114618   2.168   3.579   4.989
 4722SOL    HW214619   2.110   3.627   4.857
 4723SOL     OW14620   2.803   3.563   4.619
 4723SOL    HW114621   2.883   3.516   4.641
 4723SOL    HW214622   2.763   3.511   4.549
 4724SOL     OW14623   2.252   2.560   4.168
 4724SOL    HW114624   2.260   2.469   4.138
 4724SOL    HW214625   2.162   2.566   4.201
 4725SOL     OW14626   3.381   2.092   5.444
 4725SOL    HW114627   3.395   2.105   5.538
 4725SOL    HW214628   3.293   2.054   5.438
 4726SOL     OW14629   2.508   1.983   3.815
 4726SOL    HW114630   2.552   1.908   3.856
 4726SOL    HW214631   2.454   1.944   3.747
 4727SOL     OW14632   2.586   2.183   5.506
 4727SOL    HW114633   2.680   2.175   5.524
 4727SOL    HW214634   2.544   2.135   5.577
 4728SOL     OW14635   2.737   3.389   4.921
 4728SOL    HW114636   2.720   3.353   4.834
 4728SOL    HW214637   2.806   3.333   4.957
 4729SOL     OW14638   3.214   2.451   5.144
 4729SOL    HW114639   3.236   2.425   5.233
 4729SOL    HW214640   3.234   2.545   5.141
 4730SOL     OW14641   2.681   3.261   4.673
 4730SOL    HW114642   2.766   3.246   4.631
 4730SOL    HW214643   2.619   3.264   4.600
 4731SOL     OW14644   2.848   2.403   4.577
 4731SOL    HW114645   2.799   2.374   4.500
 4731SOL    HW214646   2.846   2.327   4.636
 4732SOL     OW14647   2.408   1.931   4.229
 4732SOL    HW114648   2.337   1.921   4.293
 4732SOL    HW214649   2.401   2.021   4.199
 4733SOL     OW14650   3.291   3.065   3.761
 4733SOL    HW114651   3.320   2.991   3.813
 4733SOL    HW214652   3.205   3.088   3.798
 4734SOL     OW14653   2.158   1.901   3.901
 4734SOL    HW114654   2.227   1.952   3.858
 4734SOL    HW214655   2.205   1.833   3.948
 4735SOL     OW14656   2.805   2.110   4.173
 4735SOL    HW114657   2.784   2.147   4.088
 4735SOL    HW214658   2.899   2.123   4.183
 4736SOL     OW14659   3.078   3.438   4.520
 4736SOL    HW114660   3.092   3.502   4.451
 4736SOL    HW214661   3.149   3.453   4.582
 4737SOL     OW14662   2.335   3.020   4.441
 4737SOL    HW114663   2.269   2.999   4.507
 4737SOL    HW214664   2.289   3.008   4.358
 4738SOL     OW14665   3.122   3.652   4.338
 4738SOL    HW114666   3.171   3.714   4.284
 4738SOL    HW214667   3.053   3.705   4.378
 4739SOL     OW14668   2.889   2.392   3.751
 4739SOL    HW114669   2.847   2.477   3.734
 4739SOL    HW214670   2.954   2.411   3.819
 4740SOL     OW14671   2.720   2.309   4.354
 4740SOL    HW114672   2.683   2.369   4.290
 4740SOL    HW214673   2.747   2.232   4.303
 4741SOL     OW14674   2.897   1.903   4.455
 4741SOL    HW114675   2.829   1.909   4.388
 4741SOL    HW214676   2.867   1.833   4.513
 4742SOL     OW14677   3.304   3.024   4.578
 4742SOL    HW114678   3.230   2.963   4.576
 4742SOL    HW214679   3.333   3.030   4.487
 4743SOL     OW14680   3.330   2.470   4.685
 4743SOL    HW114681   3.272   2.394   4.691
 4743SOL    HW214682   3.387   2.463   4.763
 4744SOL     OW14683   3.700   2.668   4.110
 4744SOL    HW114684   3.759   2.621   4.169
 4744SOL    HW214685   3.678   2.605   4.042
 4745SOL     OW14686   2.351   3.285   3.874
 4745SOL    HW114687   2.275   3.256   3.925
 4745SOL    HW214688   2.350   3.232   3.795
 4746SOL     OW14689   3.544   3.126   4.365
 4746SOL    HW114690   3.639   3.123   4.381
 4746SOL    HW214691   3.520   3.216   4.386
 4747SOL     OW14692   3.256   2.436   3.793
 4747SOL    HW114693   3.195   2.411   3.863
 4747SOL    HW214694   3.342   2.406   3.824
 4748SOL     OW14695   3.606   3.105   5.276
 4748SOL    HW114696   3.693   3.066   5.269
 4748SOL    HW214697   3.622   3.194   5.309
 4749SOL     OW14698   2.916   3.217   5.052
 4749SOL    HW114699   2.840   3.187   5.101
 4749SOL    HW214700   2.990   3.173   5.094
 4750SOL     OW14701   3.472   3.493   5.387
 4750SOL    HW114702   3.462   3.527   5.298
 4750SOL    HW214703   3.552   3.440   5.384
 4751SOL     OW14704   2.997   3.071   4.822
 4751SOL    HW114705   2.938   3.108   4.888
 4751SOL    HW214706   2.968   3.110   4.740
 4752SOL     OW14707   3.482   2.957   4.801
 4752SOL    HW114708   3.475   3.021   4.873
 4752SOL    HW214709   3.407   2.976   4.745
 4753SOL     OW14710   2.851   2.979   5.453
 4753SOL    HW114711   2.757   2.989   5.472
 4753SOL    HW214712   2.856   2.902   5.397
 4754SOL     OW14713   2.571   2.926   4.093
 4754SOL    HW114714   2.558   2.906   4.185
 4754SOL    HW214715   2.646   2.873   4.067
 4755SOL     OW14716   3.124   2.238   5.010
 4755SOL    HW114717   3.162   2.311   5.058
 4755SOL    HW214718   3.054   2.277   4.957
 4756SOL     OW14719   1.939   3.433   5.080
 4756SOL    HW114720   1.910   3.505   5.023
 4756SOL    HW214721   2.034   3.432   5.071
 4757SOL     OW14722   2.191   2.984   4.207
 4757SOL    HW114723   2.192   3.056   4.144
 4757SOL    HW214724   2.188   2.905   4.153
 4758SOL     OW14725   3.109   3.212   4.117
 4758SOL    HW114726   3.165   3.282   4.150
 4758SOL    HW214727   3.021   3.234   4.149
 4759SOL     OW14728   3.155   3.325   4.874
 4759SOL    HW114729   3.212   3.332   4.952
 4759SOL    HW214730   3.096   3.253   4.894
 4760SOL     OW14731   3.438   2.480   4.211
 4760SOL    HW114732   3.386   2.524   4.278
 4760SOL    HW214733   3.482   2.551   4.164
 4761SOL     OW14734   2.209   3.393   5.031
 4761SOL    HW114735   2.198   3.345   4.949
 4761SOL    HW214736   2.304   3.406   5.038
 4762SOL     OW14737   3.480   2.646   5.416
 4762SOL    HW114738   3.392   2.683   5.411
 4762SOL    HW214739   3.528   2.686   5.344
 4763SOL     OW14740   2.896   1.970   5.558
 4763SOL    HW114741   2.941   2.051   5.536
 4763SOL    HW214742   2.923   1.907   5.491
 4764SOL     OW14743   2.312   1.894   5.493
 4764SOL    HW114744   2.306   1.819   5.434
 4764SOL    HW214745   2.314   1.970   5.436
 4765SOL     OW14746   3.223   2.725   4.744
 4765SOL    HW114747   3.152   2.720   4.680
 4765SOL    HW214748   3.265   2.639   4.739
 4766SOL     OW14749   3.060   2.384   3.980
 4766SOL    HW114750   3.069   2.308   4.037
 4766SOL    HW214751   3.018   2.450   4.035
 4767SOL     OW14752   1.924   3.166   5.001
 4767SOL    HW114753   1.940   3.116   5.081
 4767SOL    HW214754   1.918   3.257   5.031
 4768SOL     OW14755   3.607   2.825   5.586
 4768SOL    HW114756   3.566   2.755   5.535
 4768SOL    HW214757   3.545   2.842   5.657
 4769SOL     OW14758   2.162   1.924   4.391
 4769SOL    HW114759   2.151   2.017   4.412
 4769SOL    HW214760   2.095   1.880   4.443
 4770SOL     OW14761   3.489   2.245   4.079
 4770SOL    HW114762   3.517   2.178   4.142
 4770SOL    HW214763   3.462   2.319   4.134
 4771SOL     OW14764   2.842   3.429   5.448
 4771SOL    HW114765   2.825   3.472   5.364
 4771SOL    HW214766   2.886   3.347   5.425
 4772SOL     OW14767   3.710   3.361   5.328
 4772SOL    HW114768   3.733   3.390   5.240
 4772SOL    HW214769   3.790   3.373   5.378
 4773SOL     OW14770   3.385   2.134   3.848
 4773SOL    HW114771   3.325   2.067   3.879
 4773SOL    HW214772   3.422   2.172   3.928
 4774SOL     OW14773   3.147   2.685   3.749
 4774SOL    HW114774   3.189   2.599   3.755
 4774SOL    HW214775   3.180   2.723   3.668
 4775SOL     OW14776   2.931   3.207   4.584
 4775SOL    HW114777   2.936   3.136   4.520
 4775SOL    HW214778   2.987   3.276   4.549
 4776SOL     OW14779   3.050   2.196   5.445
 4776SOL    HW114780   2.974   2.253   5.457
 4776SOL    HW214781   3.123   2.256   5.432
 4777SOL     OW14782   3.065   2.040   5.214
 4777SOL    HW114783   3.046   2.097   5.289
 4777SOL    HW214784   3.088   2.101   5.144
 4778SOL     OW14785   1.874   3.173   3.916
 4778SOL    HW114786   1.786   3.192   3.882
 4778SOL    HW214787   1.868   3.085   3.952
 4779SOL     OW14788   1.952   3.640   4.668
 4779SOL    HW114789   1.921   3.563   4.619
 4779SOL    HW214790   2.041   3.655   4.635
 4780SOL     OW14791   2.351   3.436   4.627
 4780SOL    HW114792   2.421   3.497   4.651
 4780SOL    HW214793   2.393   3.374   4.568
 4781SOL     OW14794   3.248   2.792   5.382
 4781SOL    HW114795   3.265   2.886   5.377
 4781SOL    HW214796   3.240   2.763   5.291
 4782SOL     OW14797   2.677   2.429   4.095
 4782SOL    HW114798   2.684   2.358   4.031
 4782SOL    HW214799   2.605   2.483   4.063
 4783SOL     OW14800   3.500   2.464   4.899
 4783SOL    HW114801   3.488   2.410   4.977
 4783SOL    HW214802   3.589   2.445   4.869
 4784SOL     OW14803   2.097   3.409   5.444
 4784SOL    HW114804   2.078   3.476   5.509
 4784SOL    HW214805   2.106   3.328   5.494
 4785SOL     OW14806   2.780   3.541   5.198
 4785SOL    HW114807   2.756   3.498   5.116
 4785SOL    HW214808   2.775   3.635   5.179
 4786SOL     OW14809   2.008   3.012   5.227
 4786SOL    HW114810   1.989   2.985   5.317
 4786SOL    HW214811   2.075   2.951   5.196
 4787SOL     OW14812   3.182   2.908   4.942
 4787SOL    HW114813   3.205   2.844   4.874
 4787SOL    HW214814   3.115   2.962   4.901
 4788SOL     OW14815   3.179   2.718   4.023
 4788SOL    HW114816   3.105   2.686   4.075
 4788SOL    HW214817   3.153   2.705   3.932
 4789SOL     OW14818   3.649   3.592   4.888
 4789SOL    HW114819   3.707   3.619   4.817
 4789SOL    HW214820   3.616   3.506   4.861
 4790SOL     OW14821   3.100   3.595   4.824
 4790SOL    HW114822   3.184   3.620   4.784
 4790SOL    HW214823   3.112   3.502   4.847
 4791SOL     OW14824   1.951   3.131   4.733
 4791SOL    HW114825   1.936   3.143   4.827
 4791SOL    HW214826   1.879   3.076   4.704
 4792SOL     OW14827   2.545   3.540   5.472
 4792SOL    HW114828   2.486   3.615   5.458
 4792SOL    HW214829   2.616   3.554   5.410
 4793SOL     OW14830   3.589   2.024   4.226
 4793SOL    HW114831   3.657   2.007   4.161
 4793SOL    HW214832   3.570   1.939   4.265
 4794SOL     OW14833   3.257   3.429   4.219
 4794SOL    HW114834   3.313   3.464   4.150
 4794SOL    HW214835   3.205   3.504   4.247
 4795SOL     OW14836   2.005   3.652   5.567
 4795SOL    HW114837   1.954   3.586   5.613
 4795SOL    HW214838   2.049   3.701   5.637
 4796SOL     OW14839   3.135   2.793   4.416
 4796SOL    HW114840   3.206   2.728   4.418
 4796SOL    HW214841   3.167   2.861   4.356
 4797SOL     OW14842   2.663   3.147   5.146
 4797SOL    HW114843   2.634   3.191   5.226
 4797SOL    HW214844   2.589   3.153   5.086
 4798SOL     OW14845   2.529   3.491   3.881
 4798SOL    HW114846   2.543   3.505   3.787
 4798SOL    HW214847   2.474   3.413   3.885
 4799SOL     OW14848   3.480   3.591   5.119
 4799SOL    HW114849   3.535   3.594   5.040
 4799SOL    HW214850   3.466   3.683   5.141
 4800SOL     OW14851   3.710   2.029   4.688
 4800SOL    HW114852   3.739   1.941   4.666
 4800SOL    HW214853   3.622   2.036   4.651
 4801SOL     OW14854   3.070   3.460   3.758
 4801SOL    HW114855   3.059   3.369   3.785
 4801SOL    HW214856   3.003   3.474   3.691
 4802SOL     OW14857   2.780   2.906   5.080
 4802SOL    HW114858   2.768   2.916   4.985
 4802SOL    HW214859   2.739   2.984   5.117
 4803SOL     OW14860   2.780   2.777   4.013
 4803SOL    HW114861   2.840   2.810   3.947
 4803SOL    HW214862   2.829   2.707   4.057
 4804SOL     OW14863   3.349   3.495   3.772
 4804SOL    HW114864   3.256   3.482   3.756
 4804SOL    HW214865   3.388   3.500   3.684
 4805SOL     OW14866   2.233   3.173   5.217
 4805SOL    HW114867   2.228   3.250   5.161
 4805SOL    HW214868   2.144   3.137   5.215
 4806SOL     OW14869   3.470   3.149   5.005
 4806SOL    HW114870   3.523   3.127   5.082
 4806SOL    HW214871   3.408   3.215   5.037
 4807SOL     OW14872   2.921   2.979   4.437
 4807SOL    HW114873   2.848   2.932   4.477
 4807SOL    HW214874   2.985   2.911   4.416
 4808SOL     OW14875   2.469   3.351   4.203
 4808SOL    HW114876   2.520   3.300   4.140
 4808SOL    HW214877   2.390   3.377   4.154
 4809SOL     OW14878   3.592   2.253   5.104
 4809SOL    HW114879   3.664   2.316   5.104
 4809SOL    HW214880   3.621   2.182   5.046
 4810SOL     OW14881   2.129   3.202   4.021
 4810SOL    HW114882   2.037   3.197   3.993
 4810SOL    HW214883   2.125   3.245   4.106
 4811SOL     OW14884   1.966   2.936   5.504
 4811SOL    HW114885   1.878   2.914   5.534
 4811SOL    HW214886   2.011   2.852   5.497
 4812SOL     OW14887   1.914   2.180   3.798
 4812SOL    HW114888   1.841   2.194   3.737
 4812SOL    HW214889   1.989   2.222   3.755
 4813SOL     OW14890   3.283   2.723   5.120
 4813SOL    HW114891   3.234   2.785   5.066
 4813SOL    HW214892   3.371   2.724   5.082
 4814SOL     OW14893   1.928   2.009   4.015
 4814SOL    HW114894   1.906   2.078   3.952
 4814SOL    HW214895   2.012   1.975   3.985
 4815SOL     OW14896   3.040   3.193   3.843
 4815SOL    HW114897   2.950   3.162   3.844
 4815SOL    HW214898   3.066   3.194   3.936
 4816SOL     OW14899   3.344   3.654   4.708
 4816SOL    HW114900   3.368   3.725   4.649
 4816SOL    HW214901   3.428   3.617   4.737
 4817SOL     OW14902   3.334   3.055   5.350
 4817SOL    HW114903   3.323   3.070   5.444
 4817SOL    HW214904   3.426   3.075   5.333
 4818SOL     OW14905   2.228   3.605   5.291
 4818SOL    HW114906   2.146   3.651   5.277
 4818SOL    HW214907   2.203   3.522   5.330
 4819SOL     OW14908   3.523   2.740   4.980
 4819SOL    HW114909   3.520   2.655   4.936
 4819SOL    HW214910   3.513   2.804   4.909
 4820SOL     OW14911   3.078   2.180   4.180
 4820SOL    HW114912   3.137   2.105   4.172
 4820SOL    HW214913   3.111   2.230   4.254
 4821SOL     OW14914   2.442   2.604   4.376
 4821SOL    HW114915   2.483   2.690   4.366
 4821SOL    HW214916   2.379   2.599   4.304
 4822SOL     OW14917   3.615   2.223   5.377
 4822SOL    HW114918   3.602   2.241   5.284
 4822SOL    HW214919   3.541   2.167   5.401
 4823SOL     OW14920   3.618   2.794   5.232
 4823SOL    HW114921   3.598   2.886   5.245
 4823SOL    HW214922   3.595   2.776   5.141
 4824SOL     OW14923   2.727   3.225   3.772
 4824SOL    HW114924   2.690   3.250   3.857
 4824SOL    HW214925   2.741   3.308   3.726
 4825SOL     OW14926   2.527   3.640   4.658
 4825SOL    HW114927   2.509   3.733   4.641
 4825SOL    HW214928   2.622   3.633   4.654
 4826SOL     OW14929   2.726   2.849   4.591
 4826SOL    HW114930   2.750   2.771   4.641
 4826SOL    HW214931   2.687   2.908   4.656
 4827SOL     OW14932   2.940   2.853   3.811
 4827SOL    HW114933   2.919   2.903   3.733
 4827SOL    HW214934   3.013   2.796   3.784
 4828SOL     OW14935   3.706   3.416   4.564
 4828SOL    HW114936   3.626   3.404   4.514
 4828SOL    HW214937   3.702   3.350   4.633
 4829SOL     OW14938   2.100   3.166   5.581
 4829SOL    HW114939   2.046   3.090   5.560
 4829SOL    HW214940   2.092   3.176   5.676
 4830SOL     OW14941   1.956   3.086   4.386
 4830SOL    HW114942   1.977   3.041   4.468
 4830SOL    HW214943   2.020   3.052   4.323
 4831SOL     OW14944   2.540   3.283   5.348
 4831SOL    HW114945   2.476   3.229   5.393
 4831SOL    HW214946   2.542   3.366   5.396
 4832SOL     OW14947   3.676   2.043   4.959
 4832SOL    HW114948   3.675   1.948   4.973
 4832SOL    HW214949   3.690   2.054   4.865
 4833SOL     OW14950   3.555   3.347   4.816
 4833SOL    HW114951   3.478   3.328   4.763
 4833SOL    HW214952   3.557   3.278   4.881
 4834SOL     OW14953   2.696   3.442   4.396
 4834SOL    HW114954   2.671   3.510   4.333
 4834SOL    HW214955   2.621   3.383   4.399
 4835SOL     OW14956   3.286   2.087   4.844
 4835SOL    HW114957   3.289   1.996   4.874
 4835SOL    HW214958   3.242   2.134   4.914
 4836SOL     OW14959   2.638   3.196   4.046
 4836SOL    HW114960   2.611   3.105   4.055
 4836SOL    HW214961   2.719   3.203   4.097
 4837SOL     OW14962   2.481   3.421   5.009
 4837SOL    HW114963   2.481   3.503   5.058
 4837SOL    HW214964   2.571   3.413   4.976
 4838SOL     OW14965   3.225   1.910   3.900
 4838SOL    HW114966   3.261   1.838   3.849
 4838SOL    HW214967   3.134   1.884   3.917
 4839SOL     OW14968   3.174   2.322   4.396
 4839SOL    HW114969   3.122   2.402   4.391
 4839SOL    HW214970   3.166   2.293   4.487
 4840SOL     OW14971   3.448   2.052   4.613
 4840SOL    HW114972   3.395   2.078   4.688
 4840SOL    HW214973   3.447   2.129   4.555
 4841SOL     OW14974   1.902   2.920   4.034
 4841SOL    HW114975   1.994   2.910   4.010
 4841SOL    HW214976   1.873   2.832   4.059
 4842SOL     OW14977   2.753   3.527   4.059
 4842SOL    HW114978   2.676   3.511   4.004
 4842SOL    HW214979   2.726   3.598   4.118
 4843SOL     OW14980   2.068   2.523   5.609
 4843SOL    HW114981   2.008   2.505   5.681
 4843SOL    HW214982   2.136   2.456   5.617
 4844SOL     OW14983   2.431   3.164   6.775
 4844SOL    HW114984   2.347   3.173   6.730
 4844SOL    HW214985   2.450   3.252   6.808
 4845SOL     OW14986   3.441   3.379   6.295
 4845SOL    HW114987   3.396   3.354   6.376
 4845SOL    HW214988   3.372   3.383   6.229
 4846SOL     OW14989   3.003   2.548   6.305
 4846SOL    HW114990   3.037   2.630   6.272
 4846SOL    HW214991   2.963   2.570   6.389
 4847SOL     OW14992   3.647   2.457   5.811
 4847SOL    HW114993   3.619   2.453   5.720
 4847SOL    HW214994   3.604   2.382   5.852
 4848SOL     OW14995   2.595   2.996   6.634
 4848SOL    HW114996   2.533   3.038   6.694
 4848SOL    HW214997   2.640   3.069   6.591
 4849SOL     OW14998   2.742   2.620   7.414
 4849SOL    HW114999   2.731   2.687   7.480
 4849SOL    HW215000   2.763   2.668   7.334
 4850SOL     OW15001   2.570   2.930   6.255
 4850SOL    HW115002   2.633   2.891   6.315
 4850SOL    HW215003   2.511   2.981   6.311
 4851SOL     OW15004   2.577   3.012   7.406
 4851SOL    HW115005   2.626   3.087   7.439
 4851SOL    HW215006   2.498   3.049   7.367
 4852SOL     OW15007   2.199   3.273   6.654
 4852SOL    HW115008   2.119   3.238   6.614
 4852SOL    HW215009   2.238   3.327   6.585
 4853SOL     OW15010   3.320   3.365   6.951
 4853SOL    HW115011   3.374   3.443   6.960
 4853SOL    HW215012   3.250   3.377   7.016
 4854SOL     OW15013   3.463   2.300   6.335
 4854SOL    HW115014   3.387   2.314   6.278
 4854SOL    HW215015   3.462   2.376   6.394
 4855SOL     OW15016   2.084   3.578   6.052
 4855SOL    HW115017   2.105   3.652   6.109
 4855SOL    HW215018   2.158   3.572   5.992
 4856SOL     OW15019   2.999   3.205   7.281
 4856SOL    HW115020   3.041   3.197   7.367
 4856SOL    HW215021   2.948   3.125   7.272
 4857SOL     OW15022   2.089   3.305   6.111
 4857SOL    HW115023   2.079   3.400   6.109
 4857SOL    HW215024   2.028   3.276   6.178
 4858SOL     OW15025   2.114   2.965   6.471
 4858SOL    HW115026   2.127   2.883   6.520
 4858SOL    HW215027   2.064   3.021   6.530
 4859SOL     OW15028   2.457   3.655   7.012
 4859SOL    HW115029   2.377   3.637   7.061
 4859SOL    HW215030   2.484   3.742   7.040
 4860SOL     OW15031   3.456   1.991   7.048
 4860SOL    HW115032   3.487   2.069   7.002
 4860SOL    HW215033   3.433   2.023   7.136
 4861SOL     OW15034   3.705   3.612   5.912
 4861SOL    HW115035   3.775   3.589   5.974
 4861SOL    HW215036   3.721   3.705   5.892
 4862SOL     OW15037   1.897   3.447   5.703
 4862SOL    HW115038   1.866   3.358   5.721
 4862SOL    HW215039   1.876   3.496   5.783
 4863SOL     OW15040   3.554   2.784   6.236
 4863SOL    HW115041   3.633   2.736   6.211
 4863SOL    HW215042   3.531   2.834   6.157
 4864SOL     OW15043   3.513   2.964   6.017
 4864SOL    HW115044   3.600   2.961   5.976
 4864SOL    HW215045   3.522   3.028   6.087
 4865SOL     OW15046   1.989   2.612   7.164
 4865SOL    HW115047   2.076   2.643   7.189
 4865SOL    HW215048   1.932   2.688   7.177
 4866SOL     OW15049   2.477   3.265   6.318
 4866SOL    HW115050   2.424   3.186   6.327
 4866SOL    HW215051   2.464   3.293   6.227
 4867SOL     OW15052   3.144   3.095   7.006
 4867SOL    HW115053   3.173   3.027   6.946
 4867SOL    HW215054   3.204   3.090   7.080
 4868SOL     OW15055   2.046   2.827   6.866
 4868SOL    HW115056   2.131   2.788   6.847
 4868SOL    HW215057   1.986   2.788   6.802
 4869SOL     OW15058   3.400   2.863   5.785
 4869SOL    HW115059   3.332   2.801   5.815
 4869SOL    HW215060   3.439   2.896   5.866
 4870SOL     OW15061   3.043   3.679   7.214
 4870SOL    HW115062   3.048   3.741   7.141
 4870SOL    HW215063   3.062   3.594   7.175
 4871SOL     OW15064   3.330   3.282   6.528
 4871SOL    HW115065   3.264   3.298   6.596
 4871SOL    HW215066   3.316   3.191   6.503
 4872SOL     OW15067   3.513   3.624   6.160
 4872SOL    HW115068   3.492   3.589   6.074
 4872SOL    HW215069   3.499   3.551   6.220
 4873SOL     OW15070   3.143   2.239   6.531
 4873SOL    HW115071   3.054   2.206   6.542
 4873SOL    HW215072   3.197   2.181   6.586
 4874SOL     OW15073   3.439   3.537   5.899
 4874SOL    HW115074   3.532   3.559   5.889
 4874SOL    HW215075   3.409   3.521   5.809
 4875SOL     OW15076   2.633   2.453   7.025
 4875SOL    HW115077   2.624   2.447   7.120
 4875SOL    HW215078   2.591   2.373   6.993
 4876SOL     OW15079   3.254   2.337   7.263
 4876SOL    HW115080   3.259   2.381   7.348
 4876SOL    HW215081   3.309   2.259   7.273
 4877SOL     OW15082   2.810   2.743   7.174
 4877SOL    HW115083   2.863   2.675   7.132
 4877SOL    HW215084   2.763   2.785   7.102
 4878SOL     OW15085   2.872   2.275   6.796
 4878SOL    HW115086   2.786   2.316   6.803
 4878SOL    HW215087   2.867   2.223   6.715
 4879SOL     OW15088   1.911   2.717   6.457
 4879SOL    HW115089   2.003   2.713   6.483
 4879SOL    HW215090   1.890   2.810   6.456
 4880SOL     OW15091   1.983   3.736   7.172
 4880SOL    HW115092   1.989   3.714   7.265
 4880SOL    HW215093   1.901   3.697   7.143
 4881SOL     OW15094   3.561   2.430   7.419
 4881SOL    HW115095   3.530   2.505   7.368
 4881SOL    HW215096   3.590   2.367   7.353
 4882SOL     OW15097   3.244   3.000   6.122
 4882SOL    HW115098   3.325   2.992   6.072
 4882SOL    HW215099   3.193   3.066   6.075
 4883SOL     OW15100   2.864   3.310   6.055
 4883SOL    HW115101   2.834   3.385   6.003
 4883SOL    HW215102   2.835   3.330   6.144
 4884SOL     OW15103   2.215   3.680   6.459
 4884SOL    HW115104   2.260   3.595   6.465
 4884SOL    HW215105   2.283   3.745   6.478
 4885SOL     OW15106   3.664   2.915   6.463
 4885SOL    HW115107   3.614   2.893   6.385
 4885SOL    HW215108   3.598   2.921   6.533
 4886SOL     OW15109   3.086   3.404   7.100
 4886SOL    HW115110   3.075   3.332   7.162
 4886SOL    HW215111   3.019   3.389   7.034
 4887SOL     OW15112   3.343   2.619   6.305
 4887SOL    HW115113   3.342   2.576   6.390
 4887SOL    HW215114   3.422   2.673   6.305
 4888SOL     OW15115   2.334   3.134   7.325
 4888SOL    HW115116   2.308   3.138   7.233
 4888SOL    HW215117   2.251   3.128   7.373
 4889SOL     OW15118   2.989   3.641   5.812
 4889SOL    HW115119   2.912   3.604   5.855
 4889SOL    HW215120   3.013   3.576   5.746
 4890SOL     OW15121   3.491   3.246   5.681
 4890SOL    HW115122   3.449   3.330   5.665
 4890SOL    HW215123   3.424   3.181   5.659
 4891SOL     OW15124   2.323   3.602   5.902
 4891SOL    HW115125   2.371   3.654   5.967
 4891SOL    HW215126   2.391   3.563   5.848
 4892SOL     OW15127   3.272   1.962   6.035
 4892SOL    HW115128   3.262   1.942   5.942
 4892SOL    HW215129   3.366   1.964   6.049
 4893SOL     OW15130   2.118   3.651   6.811
 4893SOL    HW115131   2.167   3.578   6.849
 4893SOL    HW215132   2.108   3.628   6.719
 4894SOL     OW15133   2.805   3.562   6.481
 4894SOL    HW115134   2.887   3.516   6.500
 4894SOL    HW215135   2.765   3.511   6.410
 4895SOL     OW15136   3.384   2.086   7.308
 4895SOL    HW115137   3.396   2.106   7.401
 4895SOL    HW215138   3.318   2.017   7.306
 4896SOL     OW15139   2.471   2.011   5.683
 4896SOL    HW115140   2.540   1.952   5.714
 4896SOL    HW215141   2.414   1.956   5.629
 4897SOL     OW15142   2.627   2.141   7.342
 4897SOL    HW115143   2.709   2.092   7.337
 4897SOL    HW215144   2.581   2.102   7.416
 4898SOL     OW15145   2.736   3.385   6.782
 4898SOL    HW115146   2.719   3.347   6.696
 4898SOL    HW215147   2.806   3.332   6.818
 4899SOL     OW15148   3.194   2.457   7.022
 4899SOL    HW115149   3.228   2.424   7.105
 4899SOL    HW215150   3.236   2.542   7.011
 4900SOL     OW15151   2.680   3.244   6.535
 4900SOL    HW115152   2.766   3.236   6.494
 4900SOL    HW215153   2.620   3.258   6.462
 4901SOL     OW15154   3.294   3.062   5.624
 4901SOL    HW115155   3.325   2.986   5.673
 4901SOL    HW215156   3.205   3.076   5.655
 4902SOL     OW15157   2.934   2.542   7.035
 4902SOL    HW115158   2.881   2.462   7.046
 4902SOL    HW215159   3.024   2.510   7.031
 4903SOL     OW15160   3.076   3.440   6.384
 4903SOL    HW115161   3.090   3.502   6.313
 4903SOL    HW215162   3.149   3.454   6.444
 4904SOL     OW15163   2.323   3.039   6.324
 4904SOL    HW115164   2.249   3.024   6.383
 4904SOL    HW215165   2.328   2.959   6.272
 4905SOL     OW15166   3.122   3.653   6.200
 4905SOL    HW115167   3.171   3.714   6.146
 4905SOL    HW215168   3.052   3.706   6.239
 4906SOL     OW15169   2.924   2.435   5.558
 4906SOL    HW115170   2.880   2.519   5.571
 4906SOL    HW215171   2.950   2.409   5.647
 4907SOL     OW15172   1.961   2.424   6.975
 4907SOL    HW115173   2.035   2.376   7.012
 4907SOL    HW215174   1.950   2.499   7.033
 4908SOL     OW15175   2.441   1.979   6.705
 4908SOL    HW115176   2.447   1.961   6.799
 4908SOL    HW215177   2.364   2.036   6.696
 4909SOL     OW15178   2.930   1.907   6.352
 4909SOL    HW115179   2.875   1.921   6.275
 4909SOL    HW215180   2.887   1.835   6.399
 4910SOL     OW15181   3.302   3.022   6.442
 4910SOL    HW115182   3.229   2.960   6.443
 4910SOL    HW215183   3.328   3.027   6.350
 4911SOL     OW15184   3.329   2.475   6.548
 4911SOL    HW115185   3.268   2.401   6.552
 4911SOL    HW215186   3.384   2.465   6.625
 4912SOL     OW15187   3.701   2.669   5.974
 4912SOL    HW115188   3.760   2.621   6.031
 4912SOL    HW215189   3.678   2.606   5.906
 4913SOL     OW15190   2.352   3.286   5.745
 4913SOL    HW115191   2.269   3.260   5.785
 4913SOL    HW215192   2.362   3.227   5.671
 4914SOL     OW15193   3.546   3.127   6.226
 4914SOL    HW115194   3.640   3.124   6.243
 4914SOL    HW215195   3.521   3.217   6.248
 4915SOL     OW15196   3.265   2.438   5.647
 4915SOL    HW115197   3.199   2.417   5.713
 4915SOL    HW215198   3.346   2.400   5.681
 4916SOL     OW15199   3.607   3.105   7.140
 4916SOL    HW115200   3.694   3.067   7.131
 4916SOL    HW215201   3.622   3.194   7.172
 4917SOL     OW15202   2.915   3.217   6.918
 4917SOL    HW115203   2.838   3.185   6.966
 4917SOL    HW215204   2.989   3.174   6.959
 4918SOL     OW15205   3.471   3.491   7.248
 4918SOL    HW115206   3.462   3.526   7.159
 4918SOL    HW215207   3.552   3.440   7.245
 4919SOL     OW15208   3.002   3.079   6.687
 4919SOL    HW115209   2.940   3.116   6.751
 4919SOL    HW215210   2.973   3.114   6.603
 4920SOL     OW15211   3.479   2.955   6.662
 4920SOL    HW115212   3.472   3.019   6.733
 4920SOL    HW215213   3.406   2.975   6.604
 4921SOL     OW15214   2.790   1.947   6.978
 4921SOL    HW115215   2.810   1.928   6.887
 4921SOL    HW215216   2.870   1.988   7.012
 4922SOL     OW15217   2.846   2.977   7.308
 4922SOL    HW115218   2.755   2.993   7.333
 4922SOL    HW215219   2.842   2.897   7.255
 4923SOL     OW15220   2.275   2.667   6.853
 4923SOL    HW115221   2.354   2.684   6.905
 4923SOL    HW215222   2.224   2.607   6.907
 4924SOL     OW15223   3.132   2.234   6.874
 4924SOL    HW115224   3.161   2.314   6.917
 4924SOL    HW215225   3.044   2.254   6.842
 4925SOL     OW15226   1.939   3.437   6.947
 4925SOL    HW115227   1.909   3.506   6.887
 4925SOL    HW215228   2.034   3.435   6.936
 4926SOL     OW15229   3.112   3.212   5.982
 4926SOL    HW115230   3.167   3.284   6.014
 4926SOL    HW215231   3.024   3.235   6.012
 4927SOL     OW15232   3.157   3.325   6.734
 4927SOL    HW115233   3.211   3.330   6.813
 4927SOL    HW215234   3.103   3.247   6.747
 4928SOL     OW15235   3.435   2.479   6.073
 4928SOL    HW115236   3.386   2.524   6.142
 4928SOL    HW215237   3.472   2.550   6.020
 4929SOL     OW15238   2.208   3.394   6.893
 4929SOL    HW115239   2.199   3.346   6.811
 4929SOL    HW215240   2.302   3.405   6.904
 4930SOL     OW15241   2.287   2.628   7.188
 4930SOL    HW115242   2.354   2.667   7.132
 4930SOL    HW215243   2.322   2.542   7.212
 4931SOL     OW15244   3.476   2.644   7.276
 4931SOL    HW115245   3.390   2.686   7.269
 4931SOL    HW215246   3.528   2.686   7.206
 4932SOL     OW15247   2.859   1.999   7.336
 4932SOL    HW115248   2.918   2.072   7.318
 4932SOL    HW215249   2.909   1.921   7.312
 4933SOL     OW15250   2.344   1.900   7.340
 4933SOL    HW115251   2.303   1.838   7.280
 4933SOL    HW215252   2.294   1.981   7.330
 4934SOL     OW15253   2.464   2.733   6.643
 4934SOL    HW115254   2.495   2.823   6.635
 4934SOL    HW215255   2.397   2.737   6.711
 4935SOL     OW15256   3.202   2.719   6.603
 4935SOL    HW115257   3.118   2.700   6.562
 4935SOL    HW215258   3.254   2.639   6.591
 4936SOL     OW15259   3.089   2.400   5.847
 4936SOL    HW115260   3.100   2.323   5.903
 4936SOL    HW215261   3.085   2.474   5.909
 4937SOL     OW15262   1.911   3.175   6.862
 4937SOL    HW115263   1.940   3.118   6.934
 4937SOL    HW215264   1.914   3.263   6.900
 4938SOL     OW15265   2.629   2.514   6.636
 4938SOL    HW115266   2.604   2.471   6.554
 4938SOL    HW215267   2.571   2.590   6.642
 4939SOL     OW15268   3.605   2.823   7.448
 4939SOL    HW115269   3.563   2.753   7.397
 4939SOL    HW215270   3.543   2.841   7.519
 4940SOL     OW15271   3.493   2.246   5.942
 4940SOL    HW115272   3.518   2.178   6.005
 4940SOL    HW215273   3.463   2.319   5.996
 4941SOL     OW15274   2.890   2.617   6.551
 4941SOL    HW115275   2.895   2.651   6.640
 4941SOL    HW215276   2.824   2.547   6.556
 4942SOL     OW15277   2.842   3.428   7.311
 4942SOL    HW115278   2.825   3.472   7.227
 4942SOL    HW215279   2.886   3.346   7.287
 4943SOL     OW15280   3.710   3.361   7.189
 4943SOL    HW115281   3.733   3.389   7.101
 4943SOL    HW215282   3.791   3.374   7.240
 4944SOL     OW15283   2.217   2.790   7.398
 4944SOL    HW115284   2.297   2.807   7.449
 4944SOL    HW215285   2.246   2.734   7.326
 4945SOL     OW15286   3.391   2.134   5.710
 4945SOL    HW115287   3.326   2.072   5.741
 4945SOL    HW215288   3.427   2.174   5.790
 4946SOL     OW15289   3.148   2.690   5.617
 4946SOL    HW115290   3.181   2.600   5.615
 4946SOL    HW215291   3.176   2.727   5.533
 4947SOL     OW15292   2.933   3.204   6.446
 4947SOL    HW115293   2.940   3.132   6.384
 4947SOL    HW215294   2.988   3.273   6.409
 4948SOL     OW15295   2.168   2.714   6.572
 4948SOL    HW115296   2.249   2.718   6.520
 4948SOL    HW215297   2.187   2.650   6.641
 4949SOL     OW15298   2.997   2.235   7.272
 4949SOL    HW115299   2.950   2.288   7.337
 4949SOL    HW215300   3.083   2.275   7.267
 4950SOL     OW15301   3.027   2.058   7.060
 4950SOL    HW115302   3.014   2.121   7.131
 4950SOL    HW215303   3.072   2.108   6.992
 4951SOL     OW15304   1.843   3.133   5.792
 4951SOL    HW115305   1.766   3.176   5.756
 4951SOL    HW215306   1.853   3.053   5.740
 4952SOL     OW15307   1.952   3.640   6.531
 4952SOL    HW115308   1.921   3.564   6.482
 4952SOL    HW215309   2.041   3.655   6.497
 4953SOL     OW15310   2.350   3.440   6.491
 4953SOL    HW115311   2.420   3.501   6.516
 4953SOL    HW215312   2.392   3.379   6.430
 4954SOL     OW15313   2.831   2.667   6.813
 4954SOL    HW115314   2.877   2.632   6.889
 4954SOL    HW215315   2.755   2.609   6.802
 4955SOL     OW15316   1.909   2.402   6.706
 4955SOL    HW115317   1.955   2.322   6.680
 4955SOL    HW215318   1.934   2.415   6.798
 4956SOL     OW15319   3.246   2.792   7.241
 4956SOL    HW115320   3.266   2.885   7.237
 4956SOL    HW215321   3.242   2.764   7.149
 4957SOL     OW15322   3.501   2.461   6.763
 4957SOL    HW115323   3.492   2.403   6.838
 4957SOL    HW215324   3.589   2.445   6.730
 4958SOL     OW15325   2.098   3.408   7.307
 4958SOL    HW115326   2.077   3.471   7.376
 4958SOL    HW215327   2.106   3.324   7.353
 4959SOL     OW15328   2.778   3.540   7.061
 4959SOL    HW115329   2.756   3.498   6.978
 4959SOL    HW215330   2.775   3.634   7.042
 4960SOL     OW15331   2.000   3.006   7.064
 4960SOL    HW115332   2.002   2.961   7.148
 4960SOL    HW215333   2.016   2.938   6.999
 4961SOL     OW15334   3.178   2.903   6.803
 4961SOL    HW115335   3.197   2.839   6.734
 4961SOL    HW215336   3.115   2.963   6.763
 4962SOL     OW15337   3.180   2.718   5.885
 4962SOL    HW115338   3.102   2.762   5.918
 4962SOL    HW215339   3.162   2.701   5.793
 4963SOL     OW15340   3.649   3.593   6.750
 4963SOL    HW115341   3.708   3.619   6.679
 4963SOL    HW215342   3.616   3.507   6.724
 4964SOL     OW15343   3.101   3.595   6.688
 4964SOL    HW115344   3.184   3.621   6.648
 4964SOL    HW215345   3.113   3.502   6.709
 4965SOL     OW15346   1.955   3.143   6.600
 4965SOL    HW115347   1.933   3.152   6.693
 4965SOL    HW215348   1.882   3.095   6.562
 4966SOL     OW15349   2.543   3.537   7.329
 4966SOL    HW115350   2.483   3.610   7.319
 4966SOL    HW215351   2.614   3.555   7.268
 4967SOL     OW15352   3.589   2.023   6.089
 4967SOL    HW115353   3.657   2.007   6.023
 4967SOL    HW215354   3.573   1.937   6.128
 4968SOL     OW15355   3.258   3.430   6.082
 4968SOL    HW115356   3.314   3.465   6.012
 4968SOL    HW215357   3.205   3.505   6.110
 4969SOL     OW15358   2.005   3.657   7.428
 4969SOL    HW115359   1.955   3.589   7.474
 4969SOL    HW215360   2.050   3.705   7.498
 4970SOL     OW15361   3.134   2.787   6.249
 4970SOL    HW115362   3.207   2.727   6.262
 4970SOL    HW215363   3.171   2.858   6.197
 4971SOL     OW15364   2.662   3.143   7.006
 4971SOL    HW115365   2.635   3.185   7.088
 4971SOL    HW215366   2.590   3.160   6.945
 4972SOL     OW15367   2.529   3.494   5.745
 4972SOL    HW115368   2.544   3.507   5.652
 4972SOL    HW215369   2.476   3.414   5.751
 4973SOL     OW15370   3.479   3.590   6.980
 4973SOL    HW115371   3.535   3.593   6.902
 4973SOL    HW215372   3.465   3.682   7.003
 4974SOL     OW15373   3.708   2.030   6.551
 4974SOL    HW115374   3.738   1.942   6.528
 4974SOL    HW215375   3.621   2.037   6.512
 4975SOL     OW15376   3.069   3.458   5.622
 4975SOL    HW115377   3.056   3.367   5.650
 4975SOL    HW215378   3.003   3.472   5.554
 4976SOL     OW15379   2.687   2.871   6.968
 4976SOL    HW115380   2.736   2.857   6.887
 4976SOL    HW215381   2.683   2.967   6.977
 4977SOL     OW15382   3.348   3.497   5.634
 4977SOL    HW115383   3.255   3.481   5.618
 4977SOL    HW215384   3.387   3.501   5.547
 4978SOL     OW15385   2.228   3.167   7.079
 4978SOL    HW115386   2.216   3.243   7.022
 4978SOL    HW215387   2.150   3.114   7.065
 4979SOL     OW15388   3.467   3.147   6.865
 4979SOL    HW115389   3.524   3.128   6.939
 4979SOL    HW215390   3.407   3.214   6.899
 4980SOL     OW15391   2.933   2.972   6.306
 4980SOL    HW115392   2.858   2.923   6.341
 4980SOL    HW215393   2.994   2.905   6.277
 4981SOL     OW15394   2.905   2.094   6.572
 4981SOL    HW115395   2.915   2.052   6.487
 4981SOL    HW215396   2.890   2.021   6.633
 4982SOL     OW15397   2.470   3.358   6.063
 4982SOL    HW115398   2.524   3.307   6.003
 4982SOL    HW215399   2.391   3.379   6.012
 4983SOL     OW15400   3.592   2.252   6.967
 4983SOL    HW115401   3.665   2.315   6.967
 4983SOL    HW215402   3.621   2.182   6.909
 4984SOL     OW15403   2.103   3.209   5.857
 4984SOL    HW115404   2.010   3.186   5.851
 4984SOL    HW215405   2.114   3.240   5.947
 4985SOL     OW15406   1.978   2.905   7.320
 4985SOL    HW115407   1.901   2.875   7.368
 4985SOL    HW215408   2.051   2.859   7.361
 4986SOL     OW15409   2.552   2.042   7.082
 4986SOL    HW115410   2.637   2.018   7.047
 4986SOL    HW215411   2.571   2.084   7.166
 4987SOL     OW15412   1.880   2.188   5.568
 4987SOL    HW115413   1.804   2.208   5.622
 4987SOL    HW215414   1.915   2.274   5.544
 4988SOL     OW15415   3.285   2.719   6.981
 4988SOL    HW115416   3.234   2.780   6.926
 4988SOL    HW215417   3.373   2.721   6.944
 4989SOL     OW15418   3.042   3.192   5.708
 4989SOL    HW115419   2.988   3.113   5.707
 4989SOL    HW215420   3.071   3.199   5.800
 4990SOL     OW15421   2.491   2.689   7.015
 4990SOL    HW115422   2.551   2.763   7.005
 4990SOL    HW215423   2.548   2.612   7.017
 4991SOL     OW15424   3.344   3.654   6.570
 4991SOL    HW115425   3.367   3.724   6.510
 4991SOL    HW215426   3.428   3.617   6.598
 4992SOL     OW15427   2.586   2.421   7.289
 4992SOL    HW115428   2.632   2.481   7.347
 4992SOL    HW215429   2.607   2.334   7.323
 4993SOL     OW15430   3.335   3.053   7.212
 4993SOL    HW115431   3.324   3.070   7.306
 4993SOL    HW215432   3.427   3.074   7.194
 4994SOL     OW15433   2.228   3.604   7.154
 4994SOL    HW115434   2.146   3.651   7.138
 4994SOL    HW215435   2.201   3.521   7.193
 4995SOL     OW15436   3.523   2.739   6.841
 4995SOL    HW115437   3.521   2.654   6.797
 4995SOL    HW215438   3.513   2.803   6.770
 4996SOL     OW15439   3.135   2.206   6.035
 4996SOL    HW115440   3.179   2.121   6.040
 4996SOL    HW215441   3.152   2.246   6.121
 4997SOL     OW15442   3.615   2.224   7.241
 4997SOL    HW115443   3.604   2.241   7.148
 4997SOL    HW215444   3.541   2.169   7.265
 4998SOL     OW15445   3.615   2.794   7.095
 4998SOL    HW115446   3.599   2.887   7.107
 4998SOL    HW215447   3.594   2.777   7.003
 4999SOL     OW15448   2.697   3.249   5.623
 4999SOL    HW115449   2.689   3.280   5.713
 4999SOL    HW215450   2.740   3.321   5.577
 5000SOL     OW15451   2.528   3.641   6.523
 5000SOL    HW115452   2.510   3.733   6.504
 5000SOL    HW215453   2.624   3.634   6.516
 5001SOL     OW15454   2.739   2.834   6.449
 5001SOL    HW115455   2.784   2.757   6.483
 5001SOL    HW215456   2.695   2.871   6.526
 5002SOL     OW15457   2.985   2.910   5.683
 5002SOL    HW115458   2.929   2.926   5.607
 5002SOL    HW215459   3.029   2.827   5.663
 5003SOL     OW15460   3.707   3.417   6.426
 5003SOL    HW115461   3.626   3.405   6.375
 5003SOL    HW215462   3.703   3.349   6.493
 5004SOL     OW15463   2.082   3.155   7.433
 5004SOL    HW115464   2.035   3.082   7.393
 5004SOL    HW215465   2.037   3.169   7.517
 5005SOL     OW15466   1.942   3.106   6.261
 5005SOL    HW115467   1.918   3.057   6.339
 5005SOL    HW215468   2.029   3.075   6.239
 5006SOL     OW15469   2.549   3.274   7.218
 5006SOL    HW115470   2.470   3.231   7.254
 5006SOL    HW215471   2.548   3.362   7.256
 5007SOL     OW15472   3.671   2.040   6.822
 5007SOL    HW115473   3.678   1.945   6.834
 5007SOL    HW215474   3.685   2.053   6.728
 5008SOL     OW15475   3.555   3.348   6.678
 5008SOL    HW115476   3.478   3.329   6.624
 5008SOL    HW215477   3.557   3.277   6.742
 5009SOL     OW15478   2.697   3.441   6.261
 5009SOL    HW115479   2.671   3.505   6.194
 5009SOL    HW215480   2.623   3.381   6.268
 5010SOL     OW15481   3.294   2.091   6.704
 5010SOL    HW115482   3.308   2.004   6.743
 5010SOL    HW215483   3.246   2.139   6.771
 5011SOL     OW15484   2.871   1.864   6.725
 5011SOL    HW115485   2.816   1.799   6.681
 5011SOL    HW215486   2.959   1.827   6.723
 5012SOL     OW15487   2.640   3.208   5.909
 5012SOL    HW115488   2.627   3.119   5.878
 5012SOL    HW215489   2.722   3.206   5.958
 5013SOL     OW15490   2.482   3.419   6.875
 5013SOL    HW115491   2.481   3.502   6.923
 5013SOL    HW215492   2.571   3.414   6.839
 5014SOL     OW15493   3.226   1.915   5.767
 5014SOL    HW115494   3.258   1.851   5.703
 5014SOL    HW215495   3.138   1.885   5.788
 5015SOL     OW15496   3.174   2.330   6.276
 5015SOL    HW115497   3.117   2.407   6.276
 5015SOL    HW215498   3.162   2.291   6.363
 5016SOL     OW15499   3.447   2.052   6.472
 5016SOL    HW115500   3.393   2.080   6.547
 5016SOL    HW215501   3.447   2.129   6.414
 5017SOL     OW15502   2.753   3.528   5.923
 5017SOL    HW115503   2.676   3.512   5.869
 5017SOL    HW215504   2.726   3.599   5.981
 5018SOL     OW15505   2.055   2.549   7.593
 5018SOL    HW115506   1.974   2.518   7.634
 5018SOL    HW215507   2.049   2.518   7.502
 5019SOL     OW15508   1.847   2.255   8.077
 5019SOL    HW115509   1.766   2.274   8.124
 5019SOL    HW215510   1.832   2.170   8.036
 5020SOL     OW15511   2.431   3.163   8.637
 5020SOL    HW115512   2.346   3.169   8.593
 5020SOL    HW215513   2.449   3.252   8.668
 5021SOL     OW15514   3.440   3.378   8.157
 5021SOL    HW115515   3.396   3.353   8.238
 5021SOL    HW215516   3.371   3.381   8.091
 5022SOL     OW15517   2.996   2.561   8.140
 5022SOL    HW115518   3.043   2.643   8.127
 5022SOL    HW215519   2.951   2.572   8.224
 5023SOL     OW15520   3.648   2.455   7.671
 5023SOL    HW115521   3.617   2.452   7.581
 5023SOL    HW215522   3.605   2.381   7.714
 5024SOL     OW15523   2.598   2.994   8.495
 5024SOL    HW115524   2.535   3.033   8.556
 5024SOL    HW215525   2.641   3.069   8.453
 5025SOL     OW15526   2.740   2.619   9.275
 5025SOL    HW115527   2.734   2.689   9.341
 5025SOL    HW215528   2.761   2.665   9.193
 5026SOL     OW15529   2.549   2.858   8.090
 5026SOL    HW115530   2.615   2.851   8.159
 5026SOL    HW215531   2.482   2.915   8.127
 5027SOL     OW15532   2.579   3.013   9.267
 5027SOL    HW115533   2.627   3.089   9.300
 5027SOL    HW215534   2.499   3.050   9.228
 5028SOL     OW15535   2.195   3.274   8.515
 5028SOL    HW115536   2.120   3.234   8.471
 5028SOL    HW215537   2.237   3.326   8.446
 5029SOL     OW15538   3.320   3.365   8.813
 5029SOL    HW115539   3.374   3.443   8.822
 5029SOL    HW215540   3.250   3.377   8.878
 5030SOL     OW15541   3.462   2.301   8.196
 5030SOL    HW115542   3.392   2.317   8.133
 5030SOL    HW215543   3.457   2.375   8.257
 5031SOL     OW15544   2.081   3.580   7.915
 5031SOL    HW115545   2.104   3.654   7.972
 5031SOL    HW215546   2.155   3.572   7.856
 5032SOL     OW15547   2.999   3.205   9.143
 5032SOL    HW115548   3.041   3.197   9.229
 5032SOL    HW215549   2.948   3.125   9.134
 5033SOL     OW15550   2.097   3.310   7.986
 5033SOL    HW115551   2.075   3.403   7.987
 5033SOL    HW215552   2.039   3.271   8.052
 5034SOL     OW15553   2.134   2.960   8.335
 5034SOL    HW115554   2.131   2.870   8.369
 5034SOL    HW215555   2.075   3.009   8.391
 5035SOL     OW15556   2.458   3.655   8.873
 5035SOL    HW115557   2.377   3.637   8.922
 5035SOL    HW215558   2.484   3.742   8.902
 5036SOL     OW15559   2.439   2.845   7.585
 5036SOL    HW115560   2.490   2.891   7.519
 5036SOL    HW215561   2.474   2.876   7.668
 5037SOL     OW15562   3.456   1.991   8.910
 5037SOL    HW115563   3.487   2.070   8.865
 5037SOL    HW215564   3.432   2.022   8.998
 5038SOL     OW15565   1.965   2.504   8.015
 5038SOL    HW115566   1.933   2.416   8.038
 5038SOL    HW215567   1.963   2.553   8.097
 5039SOL     OW15568   3.705   3.612   7.775
 5039SOL    HW115569   3.775   3.589   7.836
 5039SOL    HW215570   3.721   3.705   7.755
 5040SOL     OW15571   1.905   3.448   7.566
 5040SOL    HW115572   1.885   3.357   7.586
 5040SOL    HW215573   1.878   3.497   7.644
 5041SOL     OW15574   3.553   2.783   8.097
 5041SOL    HW115575   3.635   2.739   8.076
 5041SOL    HW215576   3.532   2.833   8.018
 5042SOL     OW15577   3.514   2.964   7.878
 5042SOL    HW115578   3.601   2.961   7.837
 5042SOL    HW215579   3.523   3.028   7.949
 5043SOL     OW15580   1.993   2.603   9.016
 5043SOL    HW115581   2.077   2.639   9.043
 5043SOL    HW215582   1.932   2.675   9.025
 5044SOL     OW15583   2.480   3.256   8.182
 5044SOL    HW115584   2.437   3.171   8.189
 5044SOL    HW215585   2.464   3.284   8.092
 5045SOL     OW15586   3.144   3.095   8.868
 5045SOL    HW115587   3.173   3.027   8.807
 5045SOL    HW215588   3.204   3.090   8.942
 5046SOL     OW15589   2.683   1.871   7.959
 5046SOL    HW115590   2.725   1.953   7.935
 5046SOL    HW215591   2.589   1.891   7.961
 5047SOL     OW15592   2.048   2.826   8.730
 5047SOL    HW115593   2.133   2.787   8.712
 5047SOL    HW215594   1.987   2.778   8.674
 5048SOL     OW15595   3.393   2.865   7.648
 5048SOL    HW115596   3.325   2.807   7.681
 5048SOL    HW215597   3.437   2.897   7.727
 5049SOL     OW15598   3.043   3.679   9.076
 5049SOL    HW115599   3.048   3.741   9.003
 5049SOL    HW215600   3.061   3.594   9.037
 5050SOL     OW15601   3.330   3.281   8.390
 5050SOL    HW115602   3.265   3.298   8.458
 5050SOL    HW215603   3.316   3.190   8.365
 5051SOL     OW15604   3.513   3.624   8.023
 5051SOL    HW115605   3.493   3.588   7.936
 5051SOL    HW215606   3.499   3.551   8.083
 5052SOL     OW15607   2.476   2.577   7.702
 5052SOL    HW115608   2.473   2.661   7.657
 5052SOL    HW215609   2.389   2.568   7.742
 5053SOL     OW15610   3.141   2.235   8.384
 5053SOL    HW115611   3.053   2.200   8.391
 5053SOL    HW215612   3.194   2.180   8.440
 5054SOL     OW15613   3.439   3.537   7.760
 5054SOL    HW115614   3.532   3.559   7.752
 5054SOL    HW215615   3.410   3.520   7.671
 5055SOL     OW15616   2.641   2.452   8.883
 5055SOL    HW115617   2.627   2.445   8.978
 5055SOL    HW215618   2.603   2.372   8.847
 5056SOL     OW15619   3.254   2.337   9.126
 5056SOL    HW115620   3.259   2.381   9.211
 5056SOL    HW215621   3.309   2.259   9.135
 5057SOL     OW15622   2.809   2.742   9.035
 5057SOL    HW115623   2.863   2.676   8.993
 5057SOL    HW215624   2.761   2.784   8.964
 5058SOL     OW15625   2.867   2.282   8.672
 5058SOL    HW115626   2.794   2.341   8.686
 5058SOL    HW215627   2.847   2.237   8.590
 5059SOL     OW15628   2.917   2.560   7.870
 5059SOL    HW115629   2.936   2.555   7.964
 5059SOL    HW215630   2.833   2.516   7.861
 5060SOL     OW15631   1.951   2.682   8.227
 5060SOL    HW115632   2.033   2.681   8.276
 5060SOL    HW215633   1.904   2.757   8.262
 5061SOL     OW15634   1.983   3.736   9.034
 5061SOL    HW115635   1.989   3.714   9.127
 5061SOL    HW215636   1.901   3.697   9.005
 5062SOL     OW15637   2.761   2.212   7.645
 5062SOL    HW115638   2.805   2.274   7.586
 5062SOL    HW215639   2.754   2.132   7.594
 5063SOL     OW15640   3.561   2.430   9.280
 5063SOL    HW115641   3.530   2.505   9.230
 5063SOL    HW215642   3.590   2.367   9.214
 5064SOL     OW15643   3.246   3.004   7.987
 5064SOL    HW115644   3.325   2.994   7.935
 5064SOL    HW215645   3.193   3.066   7.938
 5065SOL     OW15646   2.859   3.308   7.914
 5065SOL    HW115647   2.831   3.384   7.863
 5065SOL    HW215648   2.834   3.328   8.004
 5066SOL     OW15649   2.215   3.678   8.321
 5066SOL    HW115650   2.260   3.593   8.327
 5066SOL    HW215651   2.283   3.742   8.340
 5067SOL     OW15652   3.663   2.915   8.326
 5067SOL    HW115653   3.612   2.895   8.247
 5067SOL    HW215654   3.598   2.921   8.396
 5068SOL     OW15655   3.086   3.404   8.962
 5068SOL    HW115656   3.075   3.332   9.024
 5068SOL    HW215657   3.019   3.388   8.896
 5069SOL     OW15658   2.170   2.805   7.708
 5069SOL    HW115659   2.247   2.823   7.655
 5069SOL    HW215660   2.133   2.726   7.670
 5070SOL     OW15661   3.345   2.615   8.166
 5070SOL    HW115662   3.344   2.576   8.254
 5070SOL    HW215663   3.423   2.671   8.166
 5071SOL     OW15664   2.334   3.134   9.187
 5071SOL    HW115665   2.308   3.138   9.095
 5071SOL    HW215666   2.251   3.127   9.235
 5072SOL     OW15667   2.989   3.641   7.674
 5072SOL    HW115668   2.912   3.604   7.717
 5072SOL    HW215669   3.013   3.576   7.608
 5073SOL     OW15670   1.965   2.122   8.965
 5073SOL    HW115671   2.034   2.160   8.911
 5073SOL    HW215672   1.992   2.031   8.978
 5074SOL     OW15673   3.492   3.246   7.542
 5074SOL    HW115674   3.450   3.331   7.527
 5074SOL    HW215675   3.424   3.182   7.519
 5075SOL     OW15676   2.323   3.600   7.765
 5075SOL    HW115677   2.370   3.653   7.829
 5075SOL    HW215678   2.392   3.562   7.710
 5076SOL     OW15679   3.261   1.969   7.893
 5076SOL    HW115680   3.254   1.943   7.801
 5076SOL    HW215681   3.355   1.973   7.910
 5077SOL     OW15682   2.118   3.651   8.673
 5077SOL    HW115683   2.167   3.578   8.711
 5077SOL    HW215684   2.107   3.627   8.581
 5078SOL     OW15685   2.804   3.562   8.343
 5078SOL    HW115686   2.885   3.515   8.363
 5078SOL    HW215687   2.764   3.511   8.272
 5079SOL     OW15688   3.384   2.086   9.170
 5079SOL    HW115689   3.396   2.106   9.263
 5079SOL    HW215690   3.318   2.017   9.168
 5080SOL     OW15691   2.510   1.980   7.537
 5080SOL    HW115692   2.552   1.904   7.577
 5080SOL    HW215693   2.454   1.944   7.469
 5081SOL     OW15694   2.622   2.143   9.200
 5081SOL    HW115695   2.704   2.093   9.199
 5081SOL    HW215696   2.573   2.108   9.275
 5082SOL     OW15697   2.736   3.386   8.644
 5082SOL    HW115698   2.719   3.347   8.558
 5082SOL    HW215699   2.806   3.332   8.682
 5083SOL     OW15700   3.194   2.456   8.884
 5083SOL    HW115701   3.227   2.424   8.968
 5083SOL    HW215702   3.235   2.542   8.873
 5084SOL     OW15703   2.681   3.246   8.398
 5084SOL    HW115704   2.767   3.237   8.357
 5084SOL    HW215705   2.620   3.256   8.326
 5085SOL     OW15706   2.777   2.364   8.352
 5085SOL    HW115707   2.751   2.360   8.260
 5085SOL    HW215708   2.815   2.278   8.370
 5086SOL     OW15709   2.414   1.939   7.935
 5086SOL    HW115710   2.337   1.935   7.991
 5086SOL    HW215711   2.413   2.029   7.900
 5087SOL     OW15712   3.291   3.065   7.485
 5087SOL    HW115713   3.320   2.991   7.537
 5087SOL    HW215714   3.205   3.088   7.522
 5088SOL     OW15715   2.154   1.889   7.630
 5088SOL    HW115716   2.224   1.942   7.591
 5088SOL    HW215717   2.200   1.821   7.679
 5089SOL     OW15718   2.806   2.114   7.901
 5089SOL    HW115719   2.783   2.150   7.815
 5089SOL    HW215720   2.900   2.128   7.909
 5090SOL     OW15721   2.933   2.544   8.894
 5090SOL    HW115722   2.879   2.466   8.909
 5090SOL    HW215723   3.023   2.511   8.891
 5091SOL     OW15724   3.077   3.438   8.245
 5091SOL    HW115725   3.091   3.502   8.175
 5091SOL    HW215726   3.149   3.453   8.306
 5092SOL     OW15727   2.337   3.019   8.166
 5092SOL    HW115728   2.272   3.000   8.233
 5092SOL    HW215729   2.291   3.007   8.083
 5093SOL     OW15730   3.122   3.652   8.062
 5093SOL    HW115731   3.171   3.714   8.008
 5093SOL    HW215732   3.053   3.705   8.102
 5094SOL     OW15733   2.889   2.392   7.476
 5094SOL    HW115734   2.846   2.476   7.458
 5094SOL    HW215735   2.953   2.412   7.544
 5095SOL     OW15736   1.978   2.403   8.835
 5095SOL    HW115737   2.054   2.356   8.868
 5095SOL    HW215738   1.966   2.476   8.896
 5096SOL     OW15739   2.719   2.315   8.086
 5096SOL    HW115740   2.682   2.377   8.023
 5096SOL    HW215741   2.749   2.241   8.033
 5097SOL     OW15742   2.878   1.915   8.194
 5097SOL    HW115743   2.820   1.909   8.118
 5097SOL    HW215744   2.853   1.840   8.249
 5098SOL     OW15745   3.301   3.020   8.304
 5098SOL    HW115746   3.230   2.956   8.308
 5098SOL    HW215747   3.323   3.027   8.212
 5099SOL     OW15748   3.328   2.474   8.410
 5099SOL    HW115749   3.268   2.399   8.415
 5099SOL    HW215750   3.384   2.465   8.487
 5100SOL     OW15751   3.700   2.668   7.834
 5100SOL    HW115752   3.759   2.621   7.893
 5100SOL    HW215753   3.678   2.605   7.766
 5101SOL     OW15754   2.351   3.285   7.599
 5101SOL    HW115755   2.275   3.255   7.650
 5101SOL    HW215756   2.348   3.232   7.519
 5102SOL     OW15757   3.547   3.127   8.087
 5102SOL    HW115758   3.641   3.124   8.104
 5102SOL    HW215759   3.521   3.216   8.110
 5103SOL     OW15760   3.255   2.435   7.518
 5103SOL    HW115761   3.194   2.413   7.589
 5103SOL    HW215762   3.340   2.406   7.550
 5104SOL     OW15763   3.607   3.105   9.001
 5104SOL    HW115764   3.694   3.067   8.993
 5104SOL    HW215765   3.622   3.194   9.034
 5105SOL     OW15766   2.914   3.217   8.781
 5105SOL    HW115767   2.838   3.184   8.828
 5105SOL    HW215768   2.989   3.174   8.821
 5106SOL     OW15769   3.471   3.492   9.110
 5106SOL    HW115770   3.462   3.526   9.021
 5106SOL    HW215771   3.552   3.440   9.107
 5107SOL     OW15772   3.003   3.081   8.549
 5107SOL    HW115773   2.940   3.116   8.612
 5107SOL    HW215774   2.973   3.114   8.465
 5108SOL     OW15775   3.479   2.955   8.525
 5108SOL    HW115776   3.472   3.020   8.595
 5108SOL    HW215777   3.406   2.975   8.467
 5109SOL     OW15778   2.796   1.944   8.838
 5109SOL    HW115779   2.815   1.929   8.746
 5109SOL    HW215780   2.874   1.986   8.873
 5110SOL     OW15781   2.846   2.976   9.169
 5110SOL    HW115782   2.755   2.993   9.194
 5110SOL    HW215783   2.842   2.897   9.116
 5111SOL     OW15784   2.572   2.925   7.817
 5111SOL    HW115785   2.558   2.904   7.910
 5111SOL    HW215786   2.647   2.871   7.792
 5112SOL     OW15787   2.282   2.679   8.701
 5112SOL    HW115788   2.353   2.692   8.765
 5112SOL    HW215789   2.248   2.592   8.721
 5113SOL     OW15790   3.131   2.236   8.734
 5113SOL    HW115791   3.161   2.315   8.779
 5113SOL    HW215792   3.041   2.255   8.707
 5114SOL     OW15793   1.938   3.436   8.808
 5114SOL    HW115794   1.909   3.505   8.749
 5114SOL    HW215795   2.033   3.435   8.798
 5115SOL     OW15796   2.196   2.982   7.930
 5115SOL    HW115797   2.194   3.057   7.870
 5115SOL    HW215798   2.192   2.905   7.873
 5116SOL     OW15799   3.109   3.213   7.840
 5116SOL    HW115800   3.165   3.283   7.873
 5116SOL    HW215801   3.021   3.234   7.873
 5117SOL     OW15802   3.157   3.325   8.596
 5117SOL    HW115803   3.210   3.330   8.675
 5117SOL    HW215804   3.104   3.246   8.608
 5118SOL     OW15805   3.437   2.480   7.934
 5118SOL    HW115806   3.388   2.524   8.003
 5118SOL    HW215807   3.481   2.551   7.887
 5119SOL     OW15808   2.207   3.394   8.754
 5119SOL    HW115809   2.197   3.346   8.672
 5119SOL    HW215810   2.302   3.405   8.764
 5120SOL     OW15811   2.292   2.636   9.067
 5120SOL    HW115812   2.354   2.668   9.001
 5120SOL    HW215813   2.337   2.562   9.107
 5121SOL     OW15814   3.476   2.644   9.138
 5121SOL    HW115815   3.390   2.686   9.131
 5121SOL    HW215816   3.527   2.686   9.068
 5122SOL     OW15817   2.856   2.001   9.200
 5122SOL    HW115818   2.915   2.074   9.180
 5122SOL    HW215819   2.905   1.923   9.177
 5123SOL     OW15820   2.359   1.884   9.197
 5123SOL    HW115821   2.312   1.825   9.139
 5123SOL    HW215822   2.315   1.969   9.185
 5124SOL     OW15823   2.443   2.733   8.478
 5124SOL    HW115824   2.485   2.819   8.478
 5124SOL    HW215825   2.390   2.732   8.558
 5125SOL     OW15826   3.199   2.719   8.464
 5125SOL    HW115827   3.112   2.699   8.430
 5125SOL    HW215828   3.249   2.639   8.451
 5126SOL     OW15829   3.058   2.387   7.707
 5126SOL    HW115830   3.067   2.310   7.763
 5126SOL    HW215831   3.017   2.453   7.764
 5127SOL     OW15832   1.913   3.175   8.720
 5127SOL    HW115833   1.941   3.118   8.791
 5127SOL    HW215834   1.915   3.263   8.757
 5128SOL     OW15835   2.625   2.514   8.543
 5128SOL    HW115836   2.654   2.462   8.468
 5128SOL    HW215837   2.561   2.575   8.507
 5129SOL     OW15838   3.605   2.823   9.310
 5129SOL    HW115839   3.563   2.753   9.259
 5129SOL    HW215840   3.543   2.841   9.381
 5130SOL     OW15841   2.178   1.937   8.082
 5130SOL    HW115842   2.158   2.027   8.107
 5130SOL    HW215843   2.181   1.889   8.165
 5131SOL     OW15844   3.488   2.245   7.803
 5131SOL    HW115845   3.517   2.179   7.866
 5131SOL    HW215846   3.462   2.319   7.857
 5132SOL     OW15847   2.894   2.615   8.399
 5132SOL    HW115848   2.884   2.639   8.492
 5132SOL    HW215849   2.856   2.528   8.392
 5133SOL     OW15850   2.843   3.428   9.173
 5133SOL    HW115851   2.825   3.472   9.089
 5133SOL    HW215852   2.886   3.346   9.149
 5134SOL     OW15853   3.710   3.361   9.051
 5134SOL    HW115854   3.733   3.389   8.963
 5134SOL    HW215855   3.791   3.374   9.102
 5135SOL     OW15856   2.217   2.801   9.269
 5135SOL    HW115857   2.298   2.817   9.317
 5135SOL    HW215858   2.243   2.745   9.196
 5136SOL     OW15859   3.385   2.134   7.572
 5136SOL    HW115860   3.325   2.066   7.603
 5136SOL    HW215861   3.422   2.172   7.651
 5137SOL     OW15862   3.146   2.685   7.473
 5137SOL    HW115863   3.189   2.599   7.479
 5137SOL    HW215864   3.180   2.723   7.392
 5138SOL     OW15865   2.932   3.204   8.307
 5138SOL    HW115866   2.939   3.132   8.244
 5138SOL    HW215867   2.988   3.273   8.271
 5139SOL     OW15868   2.175   2.683   8.390
 5139SOL    HW115869   2.269   2.699   8.390
 5139SOL    HW215870   2.165   2.600   8.436
 5140SOL     OW15871   2.996   2.236   9.133
 5140SOL    HW115872   2.949   2.288   9.198
 5140SOL    HW215873   3.083   2.276   9.129
 5141SOL     OW15874   3.030   2.058   8.922
 5141SOL    HW115875   3.015   2.121   8.993
 5141SOL    HW215876   3.074   2.109   8.854
 5142SOL     OW15877   1.875   3.173   7.637
 5142SOL    HW115878   1.787   3.192   7.605
 5142SOL    HW215879   1.869   3.085   7.675
 5143SOL     OW15880   1.952   3.639   8.393
 5143SOL    HW115881   1.921   3.563   8.344
 5143SOL    HW215882   2.041   3.655   8.359
 5144SOL     OW15883   2.351   3.436   8.351
 5144SOL    HW115884   2.420   3.498   8.375
 5144SOL    HW215885   2.393   3.373   8.292
 5145SOL     OW15886   2.831   2.661   8.663
 5145SOL    HW115887   2.871   2.627   8.744
 5145SOL    HW215888   2.752   2.608   8.651
 5146SOL     OW15889   1.903   2.422   8.571
 5146SOL    HW115890   1.926   2.339   8.530
 5146SOL    HW215891   1.933   2.413   8.661
 5147SOL     OW15892   3.246   2.792   9.103
 5147SOL    HW115893   3.266   2.885   9.100
 5147SOL    HW215894   3.241   2.764   9.012
 5148SOL     OW15895   2.681   2.430   7.818
 5148SOL    HW115896   2.687   2.356   7.757
 5148SOL    HW215897   2.609   2.483   7.784
 5149SOL     OW15898   3.500   2.462   8.624
 5149SOL    HW115899   3.492   2.404   8.699
 5149SOL    HW215900   3.589   2.446   8.591
 5150SOL     OW15901   2.098   3.408   9.169
 5150SOL    HW115902   2.077   3.471   9.237
 5150SOL    HW215903   2.106   3.325   9.215
 5151SOL     OW15904   2.778   3.540   8.923
 5151SOL    HW115905   2.756   3.498   8.840
 5151SOL    HW215906   2.775   3.634   8.904
 5152SOL     OW15907   1.999   3.007   8.926
 5152SOL    HW115908   2.001   2.962   9.010
 5152SOL    HW215909   2.017   2.939   8.861
 5153SOL     OW15910   3.179   2.903   8.664
 5153SOL    HW115911   3.197   2.839   8.595
 5153SOL    HW215912   3.116   2.964   8.625
 5154SOL     OW15913   3.181   2.719   7.748
 5154SOL    HW115914   3.108   2.687   7.801
 5154SOL    HW215915   3.153   2.705   7.658
 5155SOL     OW15916   3.649   3.593   8.612
 5155SOL    HW115917   3.707   3.619   8.541
 5155SOL    HW215918   3.616   3.507   8.585
 5156SOL     OW15919   3.101   3.594   8.549
 5156SOL    HW115920   3.184   3.621   8.509
 5156SOL    HW215921   3.113   3.502   8.571
 5157SOL     OW15922   1.952   3.126   8.457
 5157SOL    HW115923   1.934   3.142   8.550
 5157SOL    HW215924   1.879   3.070   8.427
 5158SOL     OW15925   2.543   3.536   9.191
 5158SOL    HW115926   2.483   3.610   9.181
 5158SOL    HW215927   2.614   3.555   9.130
 5159SOL     OW15928   3.589   2.025   7.950
 5159SOL    HW115929   3.657   2.007   7.885
 5159SOL    HW215930   3.571   1.939   7.989
 5160SOL     OW15931   3.257   3.430   7.943
 5160SOL    HW115932   3.313   3.464   7.874
 5160SOL    HW215933   3.205   3.505   7.971
 5161SOL     OW15934   2.005   3.657   9.290
 5161SOL    HW115935   1.955   3.589   9.336
 5161SOL    HW215936   2.050   3.705   9.360
 5162SOL     OW15937   3.140   2.791   8.116
 5162SOL    HW115938   3.214   2.732   8.128
 5162SOL    HW215939   3.175   2.863   8.063
 5163SOL     OW15940   2.661   3.141   8.867
 5163SOL    HW115941   2.635   3.183   8.949
 5163SOL    HW215942   2.589   3.157   8.807
 5164SOL     OW15943   2.529   3.491   7.605
 5164SOL    HW115944   2.543   3.505   7.511
 5164SOL    HW215945   2.474   3.412   7.609
 5165SOL     OW15946   3.479   3.590   8.842
 5165SOL    HW115947   3.535   3.594   8.764
 5165SOL    HW215948   3.465   3.682   8.865
 5166SOL     OW15949   3.708   2.030   8.413
 5166SOL    HW115950   3.738   1.942   8.390
 5166SOL    HW215951   3.621   2.036   8.374
 5167SOL     OW15952   3.070   3.460   7.482
 5167SOL    HW115953   3.059   3.369   7.509
 5167SOL    HW215954   3.004   3.474   7.415
 5168SOL     OW15955   2.685   2.868   8.828
 5168SOL    HW115956   2.732   2.855   8.745
 5168SOL    HW215957   2.681   2.963   8.838
 5169SOL     OW15958   2.780   2.774   7.739
 5169SOL    HW115959   2.840   2.807   7.672
 5169SOL    HW215960   2.830   2.706   7.785
 5170SOL     OW15961   3.349   3.495   7.496
 5170SOL    HW115962   3.256   3.482   7.480
 5170SOL    HW215963   3.388   3.500   7.409
 5171SOL     OW15964   2.228   3.168   8.942
 5171SOL    HW115965   2.216   3.243   8.884
 5171SOL    HW215966   2.150   3.114   8.927
 5172SOL     OW15967   3.467   3.148   8.728
 5172SOL    HW115968   3.524   3.128   8.802
 5172SOL    HW215969   3.407   3.214   8.761
 5173SOL     OW15970   2.929   2.974   8.164
 5173SOL    HW115971   2.855   2.924   8.199
 5173SOL    HW215972   2.993   2.908   8.137
 5174SOL     OW15973   2.888   2.104   8.410
 5174SOL    HW115974   2.887   2.057   8.327
 5174SOL    HW215975   2.885   2.036   8.477
 5175SOL     OW15976   2.469   3.351   7.927
 5175SOL    HW115977   2.520   3.300   7.864
 5175SOL    HW215978   2.390   3.376   7.879
 5176SOL     OW15979   3.592   2.252   8.829
 5176SOL    HW115980   3.664   2.315   8.829
 5176SOL    HW215981   3.621   2.182   8.770
 5177SOL     OW15982   2.130   3.200   7.747
 5177SOL    HW115983   2.039   3.196   7.716
 5177SOL    HW215984   2.125   3.244   7.832
 5178SOL     OW15985   1.977   2.907   9.182
 5178SOL    HW115986   1.900   2.876   9.229
 5178SOL    HW215987   2.051   2.863   9.225
 5179SOL     OW15988   2.557   2.036   8.945
 5179SOL    HW115989   2.642   2.011   8.910
 5179SOL    HW215990   2.577   2.078   9.028
 5180SOL     OW15991   1.923   2.177   7.507
 5180SOL    HW115992   1.852   2.192   7.444
 5180SOL    HW215993   2.002   2.202   7.460
 5181SOL     OW15994   3.284   2.719   8.843
 5181SOL    HW115995   3.234   2.779   8.788
 5181SOL    HW215996   3.373   2.722   8.806
 5182SOL     OW15997   1.923   2.010   7.736
 5182SOL    HW115998   1.904   2.079   7.672
 5182SOL    HW215999   2.007   1.975   7.708
 5183SOL     OW16000   3.040   3.193   7.567
 5183SOL    HW116001   2.949   3.163   7.568
 5183SOL    HW216002   3.066   3.195   7.659
 5184SOL     OW16003   2.489   2.684   8.877
 5184SOL    HW116004   2.547   2.760   8.866
 5184SOL    HW216005   2.547   2.609   8.875
 5185SOL     OW16006   3.344   3.653   8.432
 5185SOL    HW116007   3.367   3.725   8.372
 5185SOL    HW216008   3.429   3.618   8.460
 5186SOL     OW16009   2.580   2.423   9.142
 5186SOL    HW116010   2.626   2.479   9.205
 5186SOL    HW216011   2.590   2.335   9.179
 5187SOL     OW16012   3.335   3.053   9.074
 5187SOL    HW116013   3.324   3.070   9.168
 5187SOL    HW216014   3.427   3.074   9.056
 5188SOL     OW16015   2.228   3.604   9.016
 5188SOL    HW116016   2.146   3.651   9.000
 5188SOL    HW216017   2.201   3.521   9.055
 5189SOL     OW16018   3.523   2.740   8.703
 5189SOL    HW116019   3.521   2.655   8.659
 5189SOL    HW216020   3.513   2.804   8.633
 5190SOL     OW16021   3.078   2.181   7.905
 5190SOL    HW116022   3.139   2.108   7.900
 5190SOL    HW216023   3.107   2.232   7.980
 5191SOL     OW16024   2.448   2.596   8.089
 5191SOL    HW116025   2.497   2.678   8.086
 5191SOL    HW216026   2.360   2.620   8.061
 5192SOL     OW16027   3.615   2.224   9.103
 5192SOL    HW116028   3.604   2.241   9.010
 5192SOL    HW216029   3.540   2.168   9.126
 5193SOL     OW16030   3.615   2.794   8.957
 5193SOL    HW116031   3.599   2.887   8.969
 5193SOL    HW216032   3.594   2.778   8.865
 5194SOL     OW16033   2.727   3.225   7.496
 5194SOL    HW116034   2.690   3.251   7.580
 5194SOL    HW216035   2.741   3.308   7.450
 5195SOL     OW16036   2.527   3.640   8.382
 5195SOL    HW116037   2.509   3.733   8.366
 5195SOL    HW216038   2.623   3.633   8.378
 5196SOL     OW16039   2.733   2.835   8.301
 5196SOL    HW116040   2.780   2.759   8.336
 5196SOL    HW216041   2.692   2.875   8.377
 5197SOL     OW16042   2.939   2.851   7.536
 5197SOL    HW116043   2.918   2.903   7.458
 5197SOL    HW216044   3.012   2.795   7.509
 5198SOL     OW16045   3.707   3.417   8.288
 5198SOL    HW116046   3.626   3.405   8.237
 5198SOL    HW216047   3.702   3.350   8.356
 5199SOL     OW16048   2.082   3.156   9.295
 5199SOL    HW116049   2.035   3.083   9.254
 5199SOL    HW216050   2.036   3.170   9.378
 5200SOL     OW16051   1.955   3.092   8.113
 5200SOL    HW116052   1.966   3.047   8.197
 5200SOL    HW216053   2.019   3.050   8.056
 5201SOL     OW16054   2.549   3.273   9.080
 5201SOL    HW116055   2.470   3.231   9.115
 5201SOL    HW216056   2.548   3.361   9.117
 5202SOL     OW16057   3.671   2.040   8.683
 5202SOL    HW116058   3.678   1.946   8.696
 5202SOL    HW216059   3.685   2.053   8.589
 5203SOL     OW16060   3.555   3.347   8.539
 5203SOL    HW116061   3.478   3.328   8.486
 5203SOL    HW216062   3.558   3.277   8.604
 5204SOL     OW16063   2.696   3.441   8.122
 5204SOL    HW116064   2.670   3.508   8.058
 5204SOL    HW216065   2.622   3.382   8.126
 5205SOL     OW16066   3.290   2.092   8.562
 5205SOL    HW116067   3.307   2.007   8.602
 5205SOL    HW216068   3.243   2.141   8.630
 5206SOL     OW16069   2.872   1.877   8.576
 5206SOL    HW116070   2.817   1.809   8.537
 5206SOL    HW216071   2.960   1.838   8.578
 5207SOL     OW16072   2.638   3.196   7.771
 5207SOL    HW116073   2.612   3.104   7.779
 5207SOL    HW216074   2.719   3.202   7.821
 5208SOL     OW16075   2.481   3.419   8.736
 5208SOL    HW116076   2.480   3.502   8.784
 5208SOL    HW216077   2.570   3.414   8.700
 5209SOL     OW16078   3.224   1.910   7.625
 5209SOL    HW116079   3.261   1.839   7.574
 5209SOL    HW216080   3.134   1.884   7.643
 5210SOL     OW16081   3.158   2.327   8.124
 5210SOL    HW116082   3.107   2.408   8.126
 5210SOL    HW216083   3.153   2.293   8.213
 5211SOL     OW16084   3.447   2.053   8.333
 5211SOL    HW116085   3.393   2.079   8.408
 5211SOL    HW216086   3.447   2.129   8.275
 5212SOL     OW16087   1.903   2.921   7.760
 5212SOL    HW116088   1.996   2.911   7.739
 5212SOL    HW216089   1.874   2.833   7.783
 5213SOL     OW16090   2.753   3.527   7.783
 5213SOL    HW116091   2.676   3.511   7.728
 5213SOL    HW216092   2.726   3.598   7.842
 5214SOL     OW16093   2.067   2.557   9.464
 5214SOL    HW116094   1.985   2.522   9.498
 5214SOL    HW216095   2.068   2.529   9.372
 5215SOL     OW16096   1.845   2.248   9.944
 5215SOL    HW116097   1.766   2.270   9.992
 5215SOL    HW216098   1.823   2.167   9.898
 5216SOL     OW16099   2.431   3.161  10.500
 5216SOL    HW116100   2.347   3.167  10.454
 5216SOL    HW216101   2.448   3.250  10.531
 5217SOL     OW16102   3.441   3.379  10.019
 5217SOL    HW116103   3.397   3.353  10.100
 5217SOL    HW216104   3.371   3.382   9.953
 5218SOL     OW16105   2.998   2.561  10.000
 5218SOL    HW116106   3.044   2.645   9.992
 5218SOL    HW216107   2.950   2.568  10.083
 5219SOL     OW16108   3.648   2.455   9.533
 5219SOL    HW116109   3.618   2.452   9.443
 5219SOL    HW216110   3.606   2.381   9.576
 5220SOL     OW16111   2.600   2.995  10.357
 5220SOL    HW116112   2.536   3.032  10.417
 5220SOL    HW216113   2.641   3.071  10.315
 5221SOL     OW16114   2.726   2.628   0.030
 5221SOL    HW116115   2.729   2.681   0.111
 5221SOL    HW216116   2.761   2.686  11.063
 5222SOL     OW16117   2.549   2.862   9.950
 5222SOL    HW116118   2.615   2.854  10.018
 5222SOL    HW216119   2.483   2.920   9.988
 5223SOL     OW16120   2.198   3.271  10.374
 5223SOL    HW116121   2.121   3.233  10.332
 5223SOL    HW216122   2.238   3.325  10.306
 5224SOL     OW16123   3.323   3.363  10.669
 5224SOL    HW116124   3.382   3.438  10.673
 5224SOL    HW216125   3.253   3.384  10.731
 5225SOL     OW16126   3.461   2.301  10.058
 5225SOL    HW116127   3.388   2.315   9.997
 5225SOL    HW216128   3.457   2.375  10.118
 5226SOL     OW16129   2.081   3.580   9.777
 5226SOL    HW116130   2.104   3.654   9.834
 5226SOL    HW216131   2.156   3.572   9.718
 5227SOL     OW16132   2.097   3.309   9.849
 5227SOL    HW116133   2.076   3.403   9.849
 5227SOL    HW216134   2.038   3.271   9.915
 5228SOL     OW16135   2.135   2.961  10.198
 5228SOL    HW116136   2.127   2.872  10.232
 5228SOL    HW216137   2.075   3.013  10.252
 5229SOL     OW16138   2.460   3.652  10.734
 5229SOL    HW116139   2.381   3.634  10.786
 5229SOL    HW216140   2.486   3.740  10.759
 5230SOL     OW16141   2.442   2.847   9.444
 5230SOL    HW116142   2.494   2.894   9.379
 5230SOL    HW216143   2.476   2.879   9.528
 5231SOL     OW16144   3.460   1.984  10.778
 5231SOL    HW116145   3.485   2.058  10.723
 5231SOL    HW216146   3.485   2.011  10.866
 5232SOL     OW16147   1.957   2.504   9.877
 5232SOL    HW116148   1.929   2.416   9.902
 5232SOL    HW216149   1.959   2.552   9.960
 5233SOL     OW16150   3.705   3.612   9.637
 5233SOL    HW116151   3.775   3.589   9.698
 5233SOL    HW216152   3.721   3.705   9.617
 5234SOL     OW16153   1.905   3.449   9.428
 5234SOL    HW116154   1.885   3.357   9.448
 5234SOL    HW216155   1.878   3.497   9.506
 5235SOL     OW16156   3.553   2.783   9.959
 5235SOL    HW116157   3.635   2.739   9.939
 5235SOL    HW216158   3.532   2.833   9.880
 5236SOL     OW16159   3.514   2.964   9.740
 5236SOL    HW116160   3.601   2.961   9.699
 5236SOL    HW216161   3.523   3.028   9.811
 5237SOL     OW16162   1.981   2.610  10.875
 5237SOL    HW116163   2.062   2.626  10.924
 5237SOL    HW216164   1.928   2.688  10.891
 5238SOL     OW16165   2.480   3.256  10.044
 5238SOL    HW116166   2.436   3.171  10.051
 5238SOL    HW216167   2.464   3.284   9.954
 5239SOL     OW16168   3.142   3.097  10.756
 5239SOL    HW116169   3.167   3.035  10.687
 5239SOL    HW216170   3.199   3.076  10.829
 5240SOL     OW16171   2.678   1.868   9.819
 5240SOL    HW116172   2.721   1.951   9.796
 5240SOL    HW216173   2.585   1.890   9.824
 5241SOL     OW16174   2.050   2.827  10.579
 5241SOL    HW116175   2.133   2.782  10.562
 5241SOL    HW216176   1.985   2.773  10.535
 5242SOL     OW16177   3.394   2.865   9.510
 5242SOL    HW116178   3.324   2.808   9.543
 5242SOL    HW216179   3.437   2.897   9.589
 5243SOL     OW16180   3.059   3.673  10.934
 5243SOL    HW116181   3.054   3.741  10.866
 5243SOL    HW216182   3.071   3.591  10.885
 5244SOL     OW16183   3.332   3.281  10.252
 5244SOL    HW116184   3.266   3.299  10.318
 5244SOL    HW216185   3.317   3.190  10.227
 5245SOL     OW16186   3.513   3.624   9.884
 5245SOL    HW116187   3.493   3.588   9.798
 5245SOL    HW216188   3.499   3.551   9.945
 5246SOL     OW16189   2.471   2.585   9.575
 5246SOL    HW116190   2.484   2.662   9.520
 5246SOL    HW216191   2.381   2.594   9.608
 5247SOL     OW16192   3.145   2.237  10.246
 5247SOL    HW116193   3.056   2.201  10.252
 5247SOL    HW216194   3.197   2.180  10.304
 5248SOL     OW16195   3.439   3.536   9.622
 5248SOL    HW116196   3.532   3.559   9.614
 5248SOL    HW216197   3.410   3.520   9.533
 5249SOL     OW16198   2.647   2.449  10.750
 5249SOL    HW116199   2.626   2.444  10.843
 5249SOL    HW216200   2.594   2.380  10.710
 5250SOL     OW16201   2.830   2.765  10.914
 5250SOL    HW116202   2.878   2.696  10.868
 5250SOL    HW216203   2.777   2.808  10.846
 5251SOL     OW16204   2.868   2.284  10.535
 5251SOL    HW116205   2.793   2.341  10.553
 5251SOL    HW216206   2.851   2.248  10.448
 5252SOL     OW16207   2.915   2.559   9.733
 5252SOL    HW116208   2.937   2.554   9.826
 5252SOL    HW216209   2.831   2.515   9.725
 5253SOL     OW16210   1.950   2.683  10.088
 5253SOL    HW116211   2.031   2.681  10.138
 5253SOL    HW216212   1.902   2.758  10.123
 5254SOL     OW16213   1.987   3.731  10.905
 5254SOL    HW116214   1.978   3.696  10.994
 5254SOL    HW216215   1.914   3.693  10.856
 5255SOL     OW16216   2.758   2.215   9.507
 5255SOL    HW116217   2.803   2.276   9.447
 5255SOL    HW216218   2.750   2.134   9.457
 5256SOL     OW16219   3.246   3.005   9.848
 5256SOL    HW116220   3.325   2.994   9.796
 5256SOL    HW216221   3.193   3.066   9.798
 5257SOL     OW16222   2.859   3.308   9.776
 5257SOL    HW116223   2.831   3.384   9.725
 5257SOL    HW216224   2.833   3.329   9.866
 5258SOL     OW16225   2.215   3.678  10.183
 5258SOL    HW116226   2.260   3.594  10.188
 5258SOL    HW216227   2.283   3.743  10.203
 5259SOL     OW16228   3.663   2.914  10.188
 5259SOL    HW116229   3.612   2.894  10.110
 5259SOL    HW216230   3.599   2.920  10.258
 5260SOL     OW16231   3.091   3.397  10.816
 5260SOL    HW116232   3.103   3.304  10.839
 5260SOL    HW216233   3.015   3.397  10.757
 5261SOL     OW16234   2.176   2.799   9.577
 5261SOL    HW116235   2.247   2.821   9.516
 5261SOL    HW216236   2.136   2.721   9.539
 5262SOL     OW16237   3.344   2.616  10.028
 5262SOL    HW116238   3.343   2.576  10.115
 5262SOL    HW216239   3.423   2.670  10.028
 5263SOL     OW16240   2.315   3.119  11.051
 5263SOL    HW116241   2.281   3.141  10.964
 5263SOL    HW216242   2.275   3.035  11.071
 5264SOL     OW16243   2.989   3.641   9.536
 5264SOL    HW116244   2.912   3.604   9.579
 5264SOL    HW216245   3.013   3.576   9.470
 5265SOL     OW16246   3.492   3.246   9.404
 5265SOL    HW116247   3.450   3.331   9.389
 5265SOL    HW216248   3.424   3.182   9.381
 5266SOL     OW16249   2.323   3.600   9.627
 5266SOL    HW116250   2.370   3.653   9.691
 5266SOL    HW216251   2.392   3.562   9.572
 5267SOL     OW16252   3.261   1.969   9.755
 5267SOL    HW116253   3.254   1.943   9.663
 5267SOL    HW216254   3.355   1.972   9.773
 5268SOL     OW16255   2.119   3.653  10.537
 5268SOL    HW116256   2.166   3.582  10.581
 5268SOL    HW216257   2.111   3.625  10.446
 5269SOL     OW16258   2.805   3.562  10.205
 5269SOL    HW116259   2.888   3.517  10.222
 5269SOL    HW216260   2.765   3.511  10.135
 5270SOL     OW16261   2.507   1.984   9.402
 5270SOL    HW116262   2.554   1.913   9.446
 5270SOL    HW216263   2.455   1.940   9.334
 5271SOL     OW16264   2.620   2.144  11.045
 5271SOL    HW116265   2.697   2.096  11.076
 5271SOL    HW216266   2.554   2.128   0.012
 5272SOL     OW16267   2.738   3.386  10.506
 5272SOL    HW116268   2.720   3.349  10.420
 5272SOL    HW216269   2.808   3.332  10.541
 5273SOL     OW16270   3.199   2.460  10.760
 5273SOL    HW116271   3.255   2.438  10.834
 5273SOL    HW216272   3.227   2.548  10.734
 5274SOL     OW16273   2.682   3.247  10.260
 5274SOL    HW116274   2.767   3.237  10.218
 5274SOL    HW216275   2.620   3.257  10.188
 5275SOL     OW16276   2.804   2.363  10.221
 5275SOL    HW116277   2.760   2.364  10.137
 5275SOL    HW216278   2.834   2.273  10.231
 5276SOL     OW16279   2.405   1.933   9.800
 5276SOL    HW116280   2.330   1.919   9.858
 5276SOL    HW216281   2.396   2.023   9.769
 5277SOL     OW16282   3.291   3.065   9.347
 5277SOL    HW116283   3.320   2.991   9.399
 5277SOL    HW216284   3.205   3.088   9.384
 5278SOL     OW16285   2.157   1.906   9.506
 5278SOL    HW116286   2.222   1.976   9.501
 5278SOL    HW216287   2.204   1.832   9.544
 5279SOL     OW16288   2.807   2.110   9.760
 5279SOL    HW116289   2.783   2.149   9.676
 5279SOL    HW216290   2.901   2.125   9.769
 5280SOL     OW16291   2.931   2.554  10.763
 5280SOL    HW116292   2.869   2.482  10.774
 5280SOL    HW216293   3.017   2.513  10.767
 5281SOL     OW16294   3.076   3.440  10.108
 5281SOL    HW116295   3.090   3.503  10.037
 5281SOL    HW216296   3.148   3.455  10.168
 5282SOL     OW16297   2.337   3.020  10.029
 5282SOL    HW116298   2.271   3.001  10.095
 5282SOL    HW216299   2.291   3.007   9.945
 5283SOL     OW16300   3.122   3.653   9.924
 5283SOL    HW116301   3.172   3.714   9.870
 5283SOL    HW216302   3.053   3.706   9.964
 5284SOL     OW16303   2.889   2.392   9.337
 5284SOL    HW116304   2.845   2.475   9.320
 5284SOL    HW216305   2.953   2.413   9.406
 5285SOL     OW16306   1.958   2.414  10.696
 5285SOL    HW116307   2.036   2.370  10.731
 5285SOL    HW216308   1.947   2.490  10.752
 5286SOL     OW16309   2.436   1.976  10.431
 5286SOL    HW116310   2.450   1.958  10.524
 5286SOL    HW216311   2.366   2.041  10.429
 5287SOL     OW16312   2.736   2.317   9.947
 5287SOL    HW116313   2.696   2.374   9.880
 5287SOL    HW216314   2.760   2.238   9.899
 5288SOL     OW16315   2.883   1.913  10.054
 5288SOL    HW116316   2.821   1.911   9.980
 5288SOL    HW216317   2.856   1.841  10.110
 5289SOL     OW16318   3.301   3.021  10.166
 5289SOL    HW116319   3.232   2.955  10.169
 5289SOL    HW216320   3.324   3.028  10.074
 5290SOL     OW16321   3.327   2.476  10.272
 5290SOL    HW116322   3.268   2.402  10.276
 5290SOL    HW216323   3.383   2.466  10.349
 5291SOL     OW16324   3.700   2.668   9.696
 5291SOL    HW116325   3.759   2.621   9.755
 5291SOL    HW216326   3.678   2.605   9.628
 5292SOL     OW16327   2.350   3.285   9.461
 5292SOL    HW116328   2.275   3.255   9.512
 5292SOL    HW216329   2.348   3.233   9.381
 5293SOL     OW16330   3.547   3.127   9.949
 5293SOL    HW116331   3.641   3.124   9.966
 5293SOL    HW216332   3.521   3.216   9.972
 5294SOL     OW16333   3.254   2.435   9.381
 5294SOL    HW116334   3.194   2.413   9.451
 5294SOL    HW216335   3.340   2.406   9.412
 5295SOL     OW16336   3.614   3.089  10.836
 5295SOL    HW116337   3.705   3.063  10.829
 5295SOL    HW216338   3.616   3.172  10.883
 5296SOL     OW16339   2.915   3.215  10.646
 5296SOL    HW116340   2.836   3.183  10.688
 5296SOL    HW216341   2.986   3.168  10.688
 5297SOL     OW16342   3.005   3.085  10.411
 5297SOL    HW116343   2.936   3.114  10.469
 5297SOL    HW216344   2.978   3.115  10.324
 5298SOL     OW16345   3.482   2.956  10.388
 5298SOL    HW116346   3.477   3.019  10.460
 5298SOL    HW216347   3.407   2.977  10.332
 5299SOL     OW16348   2.792   1.952  10.694
 5299SOL    HW116349   2.812   1.937  10.602
 5299SOL    HW216350   2.871   1.993  10.730
 5300SOL     OW16351   2.573   2.926   9.678
 5300SOL    HW116352   2.559   2.906   9.770
 5300SOL    HW216353   2.647   2.871   9.652
 5301SOL     OW16354   2.280   2.666  10.570
 5301SOL    HW116355   2.355   2.683  10.627
 5301SOL    HW216356   2.229   2.600  10.617
 5302SOL     OW16357   3.131   2.238  10.602
 5302SOL    HW116358   3.160   2.318  10.647
 5302SOL    HW216359   3.042   2.259  10.573
 5303SOL     OW16360   1.938   3.443  10.674
 5303SOL    HW116361   1.909   3.509  10.612
 5303SOL    HW216362   2.033   3.438  10.661
 5304SOL     OW16363   2.198   2.981   9.792
 5304SOL    HW116364   2.195   3.056   9.733
 5304SOL    HW216365   2.194   2.904   9.735
 5305SOL     OW16366   2.518   2.467  10.167
 5305SOL    HW116367   2.508   2.481  10.072
 5305SOL    HW216368   2.464   2.535  10.207
 5306SOL     OW16369   3.108   3.213   9.702
 5306SOL    HW116370   3.164   3.283   9.735
 5306SOL    HW216371   3.021   3.235   9.734
 5307SOL     OW16372   3.156   3.326  10.454
 5307SOL    HW116373   3.212   3.329  10.532
 5307SOL    HW216374   3.104   3.247  10.465
 5308SOL     OW16375   3.437   2.481   9.795
 5308SOL    HW116376   3.387   2.524   9.865
 5308SOL    HW216377   3.481   2.552   9.750
 5309SOL     OW16378   2.206   3.393  10.613
 5309SOL    HW116379   2.196   3.345  10.532
 5309SOL    HW216380   2.301   3.404  10.623
 5310SOL     OW16381   2.300   2.597  10.915
 5310SOL    HW116382   2.362   2.636  10.854
 5310SOL    HW216383   2.344   2.518  10.948
 5311SOL     OW16384   3.454   2.616  10.956
 5311SOL    HW116385   3.381   2.660  10.912
 5311SOL    HW216386   3.532   2.664  10.927
 5312SOL     OW16387   2.439   2.715  10.342
 5312SOL    HW116388   2.480   2.801  10.337
 5312SOL    HW216389   2.388   2.717  10.423
 5313SOL     OW16390   3.201   2.723  10.336
 5313SOL    HW116391   3.114   2.705  10.299
 5313SOL    HW216392   3.251   2.643  10.320
 5314SOL     OW16393   3.058   2.388   9.570
 5314SOL    HW116394   3.068   2.310   9.625
 5314SOL    HW216395   3.016   2.452   9.627
 5315SOL     OW16396   1.923   3.180  10.579
 5315SOL    HW116397   1.945   3.120  10.650
 5315SOL    HW216398   1.915   3.265  10.622
 5316SOL     OW16399   2.634   2.516  10.420
 5316SOL    HW116400   2.648   2.462  10.342
 5316SOL    HW216401   2.570   2.581  10.393
 5317SOL     OW16402   2.166   1.895   9.946
 5317SOL    HW116403   2.099   1.962   9.961
 5317SOL    HW216404   2.183   1.859  10.033
 5318SOL     OW16405   3.488   2.245   9.665
 5318SOL    HW116406   3.517   2.179   9.728
 5318SOL    HW216407   3.462   2.320   9.719
 5319SOL     OW16408   2.896   2.621  10.264
 5319SOL    HW116409   2.885   2.644  10.356
 5319SOL    HW216410   2.863   2.531  10.258
 5320SOL     OW16411   2.832   3.435  11.003
 5320SOL    HW116412   2.819   3.485  10.922
 5320SOL    HW216413   2.847   3.345  10.974
 5321SOL     OW16414   3.707   3.341  10.911
 5321SOL    HW116415   3.734   3.384  10.830
 5321SOL    HW216416   3.760   3.381  10.979
 5322SOL     OW16417   2.240   2.811  11.074
 5322SOL    HW116418   2.313   2.811   0.037
 5322SOL    HW216419   2.255   2.734  11.020
 5323SOL     OW16420   3.386   2.134   9.434
 5323SOL    HW116421   3.325   2.067   9.465
 5323SOL    HW216422   3.422   2.172   9.514
 5324SOL     OW16423   3.146   2.685   9.335
 5324SOL    HW116424   3.188   2.599   9.342
 5324SOL    HW216425   3.180   2.723   9.254
 5325SOL     OW16426   2.933   3.204  10.168
 5325SOL    HW116427   2.939   3.132  10.105
 5325SOL    HW216428   2.988   3.273  10.131
 5326SOL     OW16429   2.168   2.686  10.257
 5326SOL    HW116430   2.263   2.698  10.255
 5326SOL    HW216431   2.155   2.608  10.311
 5327SOL     OW16432   3.027   2.059  10.787
 5327SOL    HW116433   3.043   2.111  10.866
 5327SOL    HW216434   3.069   2.108  10.717
 5328SOL     OW16435   1.875   3.173   9.499
 5328SOL    HW116436   1.787   3.192   9.466
 5328SOL    HW216437   1.868   3.086   9.537
 5329SOL     OW16438   1.952   3.641  10.251
 5329SOL    HW116439   1.921   3.564  10.202
 5329SOL    HW216440   2.041   3.656  10.219
 5330SOL     OW16441   2.352   3.437  10.212
 5330SOL    HW116442   2.421   3.499  10.235
 5330SOL    HW216443   2.394   3.374  10.154
 5331SOL     OW16444   2.833   2.670  10.530
 5331SOL    HW116445   2.873   2.636  10.610
 5331SOL    HW216446   2.760   2.610  10.512
 5332SOL     OW16447   1.907   2.412  10.427
 5332SOL    HW116448   1.941   2.331  10.390
 5332SOL    HW216449   1.933   2.410  10.519
 5333SOL     OW16450   2.677   2.429   9.683
 5333SOL    HW116451   2.685   2.359   9.619
 5333SOL    HW216452   2.606   2.485   9.650
 5334SOL     OW16453   3.500   2.462  10.486
 5334SOL    HW116454   3.492   2.405  10.563
 5334SOL    HW216455   3.589   2.447  10.455
 5335SOL     OW16456   2.116   3.421  11.039
 5335SOL    HW116457   2.054   3.442   0.009
 5335SOL    HW216458   2.153   3.336  11.065
 5336SOL     OW16459   2.800   3.540  10.750
 5336SOL    HW116460   2.770   3.501  10.667
 5336SOL    HW216461   2.782   3.633  10.740
 5337SOL     OW16462   2.011   3.004  10.779
 5337SOL    HW116463   2.004   2.952  10.860
 5337SOL    HW216464   2.026   2.938  10.711
 5338SOL     OW16465   3.177   2.911  10.538
 5338SOL    HW116466   3.199   2.845  10.473
 5338SOL    HW216467   3.116   2.970  10.493
 5339SOL     OW16468   3.181   2.720   9.610
 5339SOL    HW116469   3.109   2.686   9.664
 5339SOL    HW216470   3.153   2.705   9.520
 5340SOL     OW16471   3.654   3.594  10.471
 5340SOL    HW116472   3.711   3.620  10.399
 5340SOL    HW216473   3.621   3.508  10.446
 5341SOL     OW16474   3.101   3.596  10.411
 5341SOL    HW116475   3.183   3.622  10.371
 5341SOL    HW216476   3.113   3.503  10.432
 5342SOL     OW16477   1.953   3.127  10.317
 5342SOL    HW116478   1.938   3.145  10.410
 5342SOL    HW216479   1.879   3.072  10.291
 5343SOL     OW16480   3.589   2.025   9.812
 5343SOL    HW116481   3.657   2.007   9.747
 5343SOL    HW216482   3.571   1.940   9.851
 5344SOL     OW16483   3.257   3.430   9.805
 5344SOL    HW116484   3.313   3.464   9.736
 5344SOL    HW216485   3.205   3.505   9.833
 5345SOL     OW16486   3.141   2.794   9.982
 5345SOL    HW116487   3.214   2.733   9.992
 5345SOL    HW216488   3.176   2.864   9.927
 5346SOL     OW16489   2.665   3.140  10.728
 5346SOL    HW116490   2.635   3.175  10.812
 5346SOL    HW216491   2.593   3.158  10.667
 5347SOL     OW16492   2.529   3.490   9.467
 5347SOL    HW116493   2.543   3.505   9.373
 5347SOL    HW216494   2.474   3.412   9.471
 5348SOL     OW16495   3.472   3.588  10.683
 5348SOL    HW116496   3.537   3.598  10.613
 5348SOL    HW216497   3.460   3.676  10.718
 5349SOL     OW16498   3.708   2.031  10.277
 5349SOL    HW116499   3.738   1.943  10.254
 5349SOL    HW216500   3.621   2.037  10.237
 5350SOL     OW16501   3.070   3.460   9.344
 5350SOL    HW116502   3.059   3.369   9.371
 5350SOL    HW216503   3.004   3.474   9.277
 5351SOL     OW16504   2.690   2.867  10.698
 5351SOL    HW116505   2.738   2.846  10.618
 5351SOL    HW216506   2.687   2.962  10.700
 5352SOL     OW16507   2.778   2.771   9.600
 5352SOL    HW116508   2.839   2.804   9.534
 5352SOL    HW216509   2.829   2.704   9.647
 5353SOL     OW16510   3.349   3.495   9.358
 5353SOL    HW116511   3.256   3.482   9.342
 5353SOL    HW216512   3.388   3.500   9.270
 5354SOL     OW16513   2.219   3.183  10.810
 5354SOL    HW116514   2.206   3.254  10.747
 5354SOL    HW216515   2.148   3.122  10.791
 5355SOL     OW16516   3.473   3.144  10.594
 5355SOL    HW116517   3.524   3.119  10.671
 5355SOL    HW216518   3.416   3.214  10.625
 5356SOL     OW16519   2.928   2.974  10.026
 5356SOL    HW116520   2.854   2.923  10.060
 5356SOL    HW216521   2.993   2.908  10.001
 5357SOL     OW16522   2.897   2.101  10.271
 5357SOL    HW116523   2.893   2.053  10.188
 5357SOL    HW216524   2.887   2.035  10.338
 5358SOL     OW16525   2.469   3.351   9.789
 5358SOL    HW116526   2.520   3.300   9.726
 5358SOL    HW216527   2.390   3.377   9.742
 5359SOL     OW16528   3.585   2.255  10.695
 5359SOL    HW116529   3.659   2.315  10.701
 5359SOL    HW216530   3.615   2.185  10.636
 5360SOL     OW16531   2.130   3.199   9.610
 5360SOL    HW116532   2.040   3.196   9.579
 5360SOL    HW216533   2.125   3.243   9.694
 5361SOL     OW16534   1.983   2.873  11.016
 5361SOL    HW116535   1.923   2.867  11.090
 5361SOL    HW216536   2.069   2.852  11.053
 5362SOL     OW16537   2.552   2.040  10.795
 5362SOL    HW116538   2.638   2.017  10.758
 5362SOL    HW216539   2.573   2.087  10.875
 5363SOL     OW16540   1.884   2.176   9.376
 5363SOL    HW116541   1.825   2.132   9.315
 5363SOL    HW216542   1.887   2.267   9.345
 5364SOL     OW16543   3.289   2.715  10.715
 5364SOL    HW116544   3.235   2.781  10.670
 5364SOL    HW216545   3.375   2.723  10.674
 5365SOL     OW16546   1.918   2.013   9.604
 5365SOL    HW116547   1.897   2.082   9.540
 5365SOL    HW216548   2.006   1.984   9.580
 5366SOL     OW16549   3.040   3.193   9.429
 5366SOL    HW116550   2.949   3.163   9.430
 5366SOL    HW216551   3.066   3.195   9.521
 5367SOL     OW16552   2.494   2.681  10.736
 5367SOL    HW116553   2.551   2.758  10.730
 5367SOL    HW216554   2.554   2.607  10.734
 5368SOL     OW16555   3.343   3.653  10.293
 5368SOL    HW116556   3.369   3.724  10.234
 5368SOL    HW216557   3.427   3.616  10.323
 5369SOL     OW16558   2.576   2.433  11.009
 5369SOL    HW116559   2.620   2.500  11.061
 5369SOL    HW216560   2.613   2.350  11.040
 5370SOL     OW16561   2.237   3.603  10.877
 5370SOL    HW116562   2.163   3.663  10.871
 5370SOL    HW216563   2.206   3.531  10.932
 5371SOL     OW16564   3.522   2.741  10.568
 5371SOL    HW116565   3.521   2.656  10.524
 5371SOL    HW216566   3.514   2.805  10.498
 5372SOL     OW16567   3.078   2.181   9.766
 5372SOL    HW116568   3.139   2.108   9.762
 5372SOL    HW216569   3.107   2.232   9.842
 5373SOL     OW16570   2.436   2.610   9.944
 5373SOL    HW116571   2.484   2.693   9.938
 5373SOL    HW216572   2.352   2.628   9.903
 5374SOL     OW16573   3.594   2.181  10.971
 5374SOL    HW116574   3.577   2.224  10.887
 5374SOL    HW216575   3.518   2.203  11.024
 5375SOL     OW16576   3.618   2.796  10.824
 5375SOL    HW116577   3.602   2.889  10.837
 5375SOL    HW216578   3.596   2.781  10.732
 5376SOL     OW16579   2.728   3.226   9.358
 5376SOL    HW116580   2.690   3.252   9.442
 5376SOL    HW216581   2.742   3.309   9.312
 5377SOL     OW16582   2.528   3.640  10.244
 5377SOL    HW116583   2.508   3.733  10.228
 5377SOL    HW216584   2.623   3.635  10.239
 5378SOL     OW16585   2.730   2.834  10.162
 5378SOL    HW116586   2.779   2.758  10.196
 5378SOL    HW216587   2.694   2.876  10.239
 5379SOL     OW16588   2.937   2.849   9.397
 5379SOL    HW116589   2.917   2.902   9.320
 5379SOL    HW216590   3.011   2.794   9.371
 5380SOL     OW16591   3.708   3.417  10.149
 5380SOL    HW116592   3.627   3.405  10.100
 5380SOL    HW216593   3.704   3.349  10.217
 5381SOL     OW16594   1.953   3.092   9.975
 5381SOL    HW116595   1.964   3.048  10.060
 5381SOL    HW216596   2.018   3.050   9.919
 5382SOL     OW16597   2.539   3.258  10.943
 5382SOL    HW116598   2.473   3.205  10.988
 5382SOL    HW216599   2.491   3.334  10.910
 5383SOL     OW16600   3.663   2.041  10.547
 5383SOL    HW116601   3.673   1.947  10.558
 5383SOL    HW216602   3.679   2.057  10.454
 5384SOL     OW16603   3.558   3.348  10.403
 5384SOL    HW116604   3.481   3.327  10.351
 5384SOL    HW216605   3.563   3.278  10.468
 5385SOL     OW16606   2.696   3.442   9.984
 5385SOL    HW116607   2.671   3.509   9.920
 5385SOL    HW216608   2.622   3.383   9.987
 5386SOL     OW16609   3.290   2.093  10.428
 5386SOL    HW116610   3.306   2.007  10.467
 5386SOL    HW216611   3.243   2.141  10.496
 5387SOL     OW16612   2.872   1.875  10.438
 5387SOL    HW116613   2.819   1.813  10.387
 5387SOL    HW216614   2.959   1.836  10.441
 5388SOL     OW16615   2.637   3.196   9.633
 5388SOL    HW116616   2.612   3.105   9.640
 5388SOL    HW216617   2.719   3.203   9.683
 5389SOL     OW16618   2.483   3.415  10.604
 5389SOL    HW116619   2.479   3.500  10.647
 5389SOL    HW216620   2.570   3.411  10.565
 5390SOL     OW16621   3.224   1.911   9.487
 5390SOL    HW116622   3.260   1.839   9.435
 5390SOL    HW216623   3.134   1.884   9.505
 5391SOL     OW16624   3.160   2.327   9.986
 5391SOL    HW116625   3.107   2.407   9.987
 5391SOL    HW216626   3.154   2.293  10.075
 5392SOL     OW16627   3.447   2.053  10.197
 5392SOL    HW116628   3.392   2.080  10.271
 5392SOL    HW216629   3.446   2.129  10.138
 5393SOL     OW16630   1.903   2.922   9.622
 5393SOL    HW116631   1.997   2.913   9.603
 5393SOL    HW216632   1.874   2.834   9.645
 5394SOL     OW16633   2.752   3.527   9.645
 5394SOL    HW116634   2.676   3.511   9.590
 5394SOL    HW216635   2.725   3.598   9.704
 5395SOL     OW16636   2.049   4.309   0.081
 5395SOL    HW116637   2.053   4.381   0.144
 5395SOL    HW216638   2.047   4.353  11.095
 5396SOL     OW16639   2.085   4.004   0.991
 5396SOL    HW116640   2.112   3.969   1.076
 5396SOL    HW216641   1.995   3.971   0.980
 5397SOL     OW16642   1.861   4.101   0.644
 5397SOL    HW116643   1.784   4.132   0.691
 5397SOL    HW216644   1.830   4.027   0.593
 5398SOL     OW16645   3.583   4.329   0.246
 5398SOL    HW116646   3.612   4.321   0.155
 5398SOL    HW216647   3.567   4.239   0.274
 5399SOL     OW16648   2.592   0.280   0.685
 5399SOL    HW116649   2.589   0.222   0.762
 5399SOL    HW216650   2.518   0.252   0.631
 5400SOL     OW16651   2.315   4.097   1.472
 5400SOL    HW116652   2.393   4.042   1.481
 5400SOL    HW216653   2.242   4.040   1.498
 5401SOL     OW16654   3.471   4.161   0.746
 5401SOL    HW116655   3.434   4.200   0.667
 5401SOL    HW216656   3.439   4.216   0.817
 5402SOL     OW16657   3.457   3.853   1.463
 5402SOL    HW116658   3.486   3.932   1.417
 5402SOL    HW216659   3.433   3.884   1.551
 5403SOL     OW16660   1.920   4.388   0.579
 5403SOL    HW116661   1.918   4.293   0.591
 5403SOL    HW216662   2.002   4.416   0.619
 5404SOL     OW16663   1.982   4.487   1.580
 5404SOL    HW116664   2.033   0.009   1.659
 5404SOL    HW216665   1.966   0.071   1.538
 5405SOL     OW16666   2.685   3.737   0.519
 5405SOL    HW116667   2.723   3.822   0.496
 5405SOL    HW216668   2.591   3.753   0.522
 5406SOL     OW16669   2.203   3.968   1.836
 5406SOL    HW116670   2.235   4.058   1.841
 5406SOL    HW216671   2.108   3.976   1.849
 5407SOL     OW16672   3.139   4.090   0.937
 5407SOL    HW116673   3.050   4.057   0.944
 5407SOL    HW216674   3.191   4.034   0.995
 5408SOL     OW16675   2.706   4.280   1.438
 5408SOL    HW116676   2.666   4.284   1.525
 5408SOL    HW216677   2.635   4.254   1.380
 5409SOL     OW16678   3.254   4.201   1.678
 5409SOL    HW116679   3.261   4.246   1.762
 5409SOL    HW216680   3.307   4.122   1.688
 5410SOL     OW16681   2.865   4.166   1.234
 5410SOL    HW116682   2.808   4.196   1.304
 5410SOL    HW216683   2.808   4.114   1.177
 5411SOL     OW16684   2.920   4.414   0.403
 5411SOL    HW116685   2.914   4.478   0.474
 5411SOL    HW216686   2.831   4.384   0.390
 5412SOL     OW16687   2.759   4.074   0.207
 5412SOL    HW116688   2.799   4.135   0.145
 5412SOL    HW216689   2.771   3.988   0.166
 5413SOL     OW16690   3.585   4.307   1.837
 5413SOL    HW116691   3.606   4.390   1.795
 5413SOL    HW216692   3.598   4.241   1.768
 5414SOL     OW16693   2.412   3.894   0.901
 5414SOL    HW116694   2.415   3.923   0.992
 5414SOL    HW216695   2.410   3.975   0.849
 5415SOL     OW16696   3.353   4.472   0.742
 5415SOL    HW116697   3.347   4.412   0.816
 5415SOL    HW216698   3.397   0.049   0.777
 5416SOL     OW16699   2.060   3.986   1.505
 5416SOL    HW116700   1.978   4.034   1.512
 5416SOL    HW216701   2.040   3.899   1.539
 5417SOL     OW16702   3.262   3.826   0.439
 5417SOL    HW116703   3.260   3.808   0.345
 5417SOL    HW216704   3.356   3.835   0.459
 5418SOL     OW16705   2.211   4.385   0.406
 5418SOL    HW116706   2.249   4.309   0.450
 5418SOL    HW216707   2.154   4.425   0.472
 5419SOL     OW16708   3.383   3.950   1.722
 5419SOL    HW116709   3.393   3.970   1.815
 5419SOL    HW216710   3.317   3.881   1.719
 5420SOL     OW16711   2.486   3.837   0.130
 5420SOL    HW116712   2.568   3.788   0.118
 5420SOL    HW216713   2.430   3.809   0.057
 5421SOL     OW16714   2.622   3.997   1.755
 5421SOL    HW116715   2.705   3.950   1.752
 5421SOL    HW216716   2.578   3.964   1.833
 5422SOL     OW16717   3.195   4.318   1.436
 5422SOL    HW116718   3.219   4.281   1.521
 5422SOL    HW216719   3.254   4.393   1.426
 5423SOL     OW16720   2.795   4.225   0.893
 5423SOL    HW116721   2.769   4.210   0.802
 5423SOL    HW216722   2.833   4.142   0.921
 5424SOL     OW16723   2.417   3.789   0.499
 5424SOL    HW116724   2.336   3.785   0.550
 5424SOL    HW216725   2.408   3.868   0.446
 5425SOL     OW16726   2.144   3.770   0.209
 5425SOL    HW116727   2.187   3.827   0.145
 5425SOL    HW216728   2.213   3.707   0.234
 5426SOL     OW16729   2.805   3.983   0.461
 5426SOL    HW116730   2.782   4.017   0.375
 5426SOL    HW216731   2.900   3.993   0.467
 5427SOL     OW16732   2.934   4.388   1.551
 5427SOL    HW116733   2.858   4.354   1.504
 5427SOL    HW216734   3.008   4.367   1.495
 5428SOL     OW16735   2.872   4.260   0.038
 5428SOL    HW116736   2.901   4.289  11.051
 5428SOL    HW216737   2.951   4.266   0.092
 5429SOL     OW16738   1.943   4.283   1.397
 5429SOL    HW116739   2.035   4.275   1.371
 5429SOL    HW216740   1.942   4.358   1.457
 5430SOL     OW16741   2.417   3.952   1.170
 5430SOL    HW116742   2.462   3.886   1.224
 5430SOL    HW216743   2.326   3.948   1.198
 5431SOL     OW16744   2.725   4.192   0.636
 5431SOL    HW116745   2.712   4.264   0.573
 5431SOL    HW216746   2.747   4.117   0.581
 5432SOL     OW16747   2.881   3.776   0.742
 5432SOL    HW116748   2.819   3.771   0.669
 5432SOL    HW216749   2.857   3.703   0.799
 5433SOL     OW16750   3.340   4.298   0.950
 5433SOL    HW116751   3.267   4.239   0.968
 5433SOL    HW216752   3.386   4.306   1.033
 5434SOL     OW16753   3.265   4.289   0.078
 5434SOL    HW116754   3.195   4.271   0.141
 5434SOL    HW216755   3.317   4.209   0.076
 5435SOL     OW16756   2.391   4.000   0.327
 5435SOL    HW116757   2.425   3.940   0.262
 5435SOL    HW216758   2.358   4.075   0.277
 5436SOL     OW16759   2.781   3.814   1.387
 5436SOL    HW116760   2.804   3.795   1.297
 5436SOL    HW216761   2.860   3.853   1.424
 5437SOL     OW16762   2.307   0.014   1.305
 5437SOL    HW116763   2.381   4.498   1.364
 5437SOL    HW216764   2.263   4.429   1.298
 5438SOL     OW16765   3.125   4.098   1.285
 5438SOL    HW116766   3.157   4.176   1.330
 5438SOL    HW216767   3.037   4.122   1.256
 5439SOL     OW16768   2.413   4.238   0.864
 5439SOL    HW116769   2.429   4.262   0.773
 5439SOL    HW216770   2.481   4.284   0.913
 5440SOL     OW16771   3.431   4.322   0.501
 5440SOL    HW116772   3.402   4.391   0.561
 5440SOL    HW216773   3.481   4.368   0.433
 5441SOL     OW16774   2.858   3.860   1.758
 5441SOL    HW116775   2.916   3.933   1.737
 5441SOL    HW216776   2.906   3.782   1.732
 5442SOL     OW16777   2.358   3.757   1.753
 5442SOL    HW116778   2.309   3.705   1.689
 5442SOL    HW216779   2.302   3.832   1.771
 5443SOL     OW16780   3.063   4.241   0.254
 5443SOL    HW116781   3.074   4.165   0.311
 5443SOL    HW216782   3.020   4.306   0.309
 5444SOL     OW16783   2.156   3.919   1.246
 5444SOL    HW116784   2.119   3.950   1.329
 5444SOL    HW216785   2.139   3.824   1.246
 5445SOL     OW16786   2.602   4.361   1.024
 5445SOL    HW116787   2.675   4.317   0.980
 5445SOL    HW216788   2.622   4.454   1.018
 5446SOL     OW16789   3.619   0.119   1.844
 5446SOL    HW116790   3.540   0.145   1.796
 5446SOL    HW216791   3.591   0.120   1.936
 5447SOL     OW16792   2.174   3.785   0.627
 5447SOL    HW116793   2.148   3.875   0.646
 5447SOL    HW216794   2.180   3.743   0.713
 5448SOL     OW16795   3.481   4.092   0.356
 5448SOL    HW116796   3.516   4.026   0.415
 5448SOL    HW216797   3.450   4.162   0.413
 5449SOL     OW16798   3.387   4.032   0.104
 5449SOL    HW116799   3.329   3.957   0.118
 5449SOL    HW216800   3.425   4.050   0.189
 5450SOL     OW16801   2.187   0.013   0.913
 5450SOL    HW116802   2.261   0.072   0.925
 5450SOL    HW216803   2.204   4.440   0.974
 5451SOL     OW16804   2.199   4.243   1.026
 5451SOL    HW116805   2.156   4.159   1.009
 5451SOL    HW216806   2.274   4.244   0.967
 5452SOL     OW16807   3.001   4.087   1.690
 5452SOL    HW116808   2.947   4.146   1.742
 5452SOL    HW216809   3.084   4.134   1.680
 5453SOL     OW16810   3.022   3.918   1.471
 5453SOL    HW116811   3.011   3.979   1.544
 5453SOL    HW216812   3.065   3.970   1.403
 5454SOL     OW16813   1.898   4.288   1.119
 5454SOL    HW116814   1.978   4.277   1.067
 5454SOL    HW216815   1.927   4.284   1.210
 5455SOL     OW16816   2.066   4.249   1.706
 5455SOL    HW116817   2.110   4.191   1.644
 5455SOL    HW216818   2.021   4.313   1.651
 5456SOL     OW16819   2.677   4.310   0.329
 5456SOL    HW116820   2.691   4.224   0.288
 5456SOL    HW216821   2.585   4.310   0.353
 5457SOL     OW16822   3.491   4.306   1.178
 5457SOL    HW116823   3.492   4.250   1.255
 5457SOL    HW216824   3.581   4.302   1.145
 5458SOL     OW16825   2.547   4.190   1.238
 5458SOL    HW116826   2.499   4.113   1.209
 5458SOL    HW216827   2.550   4.246   1.160
 5459SOL     OW16828   2.310   4.210   0.166
 5459SOL    HW116829   2.360   4.291   0.175
 5459SOL    HW216830   2.219   4.238   0.161
 5460SOL     OW16831   2.791   3.818   0.082
 5460SOL    HW116832   2.830   3.779   0.004
 5460SOL    HW216833   2.837   3.776   0.155
 5461SOL     OW16834   3.590   3.884   0.505
 5461SOL    HW116835   3.657   3.869   0.439
 5461SOL    HW216836   3.572   3.798   0.543
 5462SOL     OW16837   3.138   0.127   0.665
 5462SOL    HW116838   3.197   0.065   0.708
 5462SOL    HW216839   3.183   0.150   0.584
 5463SOL     OW16840   3.706   3.891   0.966
 5463SOL    HW116841   3.735   3.803   0.942
 5463SOL    HW216842   3.619   3.899   0.926
 5464SOL     OW16843   2.119   4.039   0.714
 5464SOL    HW116844   2.031   4.067   0.690
 5464SOL    HW216845   2.117   4.031   0.809
 5465SOL     OW16846   2.927   0.282   0.751
 5465SOL    HW116847   2.860   0.280   0.683
 5465SOL    HW216848   2.996   0.225   0.718
 5466SOL     OW16849   2.890   3.964   0.956
 5466SOL    HW116850   2.888   3.913   0.875
 5466SOL    HW216851   2.882   3.899   1.026
 5467SOL     OW16852   3.594   4.111   1.384
 5467SOL    HW116853   3.664   4.176   1.382
 5467SOL    HW216854   3.623   4.042   1.324
 5468SOL     OW16855   2.540   3.913   1.498
 5468SOL    HW116856   2.624   3.892   1.458
 5468SOL    HW216857   2.562   3.947   1.585
 5469SOL     OW16858   1.951   4.050   0.066
 5469SOL    HW116859   1.882   4.049  11.100
 5469SOL    HW216860   1.975   4.142   0.074
 5470SOL     OW16861   1.915   3.878   0.297
 5470SOL    HW116862   1.906   3.948   0.232
 5470SOL    HW216863   2.001   3.841   0.280
 5471SOL     OW16864   2.600   4.269   1.689
 5471SOL    HW116865   2.573   4.314   1.769
 5471SOL    HW216866   2.606   4.177   1.714
 5472SOL     OW16867   3.078   4.036   0.451
 5472SOL    HW116868   3.141   3.964   0.447
 5472SOL    HW216869   3.104   4.086   0.529
 5473SOL     OW16870   3.613   4.094   1.659
 5473SOL    HW116871   3.603   4.107   1.565
 5473SOL    HW216872   3.541   4.037   1.684
 5474SOL     OW16873   2.961   0.212   0.042
 5474SOL    HW116874   2.950   0.305   0.022
 5474SOL    HW216875   3.040   0.186  11.095
 5475SOL     OW16876   3.675   3.901   1.236
 5475SOL    HW116877   3.678   3.806   1.248
 5475SOL    HW216878   3.686   3.914   1.142
 5476SOL     OW16879   2.302   4.165   0.541
 5476SOL    HW116880   2.332   4.097   0.481
 5476SOL    HW216881   2.244   4.120   0.602
 5477SOL     OW16882   2.193   4.268   1.300
 5477SOL    HW116883   2.247   4.207   1.350
 5477SOL    HW216884   2.209   4.244   1.209
 5478SOL     OW16885   3.289   3.953   1.117
 5478SOL    HW116886   3.303   3.867   1.157
 5478SOL    HW216887   3.241   4.002   1.183
 5479SOL     OW16888   2.870   3.739   1.131
 5479SOL    HW116889   2.816   3.675   1.085
 5479SOL    HW216890   2.958   3.701   1.133
 5480SOL     OW16891   3.213   3.787   0.165
 5480SOL    HW116892   3.236   3.728   0.093
 5480SOL    HW216893   3.125   3.760   0.191
 5481SOL     OW16894   3.153   4.172   0.674
 5481SOL    HW116895   3.146   4.267   0.684
 5481SOL    HW216896   3.154   4.139   0.764
 5482SOL     OW16897   3.445   3.914   0.886
 5482SOL    HW116898   3.392   3.944   0.959
 5482SOL    HW216899   3.447   3.989   0.826
 5483SOL     OW16900   2.075   4.275   1.977
 5483SOL    HW116901   2.062   4.364   2.010
 5483SOL    HW216902   2.075   4.285   1.881
 5484SOL     OW16903   2.085   4.003   2.853
 5484SOL    HW116904   2.112   3.968   2.938
 5484SOL    HW216905   1.995   3.971   2.841
 5485SOL     OW16906   1.860   4.100   2.506
 5485SOL    HW116907   1.783   4.132   2.553
 5485SOL    HW216908   1.829   4.024   2.457
 5486SOL     OW16909   3.567   4.337   2.107
 5486SOL    HW116910   3.582   4.332   2.013
 5486SOL    HW216911   3.575   4.247   2.137
 5487SOL     OW16912   2.583   0.282   2.549
 5487SOL    HW116913   2.579   0.224   2.625
 5487SOL    HW216914   2.511   0.252   2.493
 5488SOL     OW16915   2.315   4.097   3.334
 5488SOL    HW116916   2.393   4.042   3.343
 5488SOL    HW216917   2.242   4.040   3.360
 5489SOL     OW16918   3.470   4.160   2.607
 5489SOL    HW116919   3.428   4.196   2.529
 5489SOL    HW216920   3.439   4.215   2.679
 5490SOL     OW16921   3.457   3.853   3.325
 5490SOL    HW116922   3.486   3.932   3.279
 5490SOL    HW216923   3.433   3.884   3.413
 5491SOL     OW16924   1.898   4.403   2.457
 5491SOL    HW116925   1.904   4.307   2.458
 5491SOL    HW216926   1.987   4.433   2.476
 5492SOL     OW16927   1.983   4.487   3.442
 5492SOL    HW116928   2.033   0.009   3.520
 5492SOL    HW216929   1.966   0.072   3.400
 5493SOL     OW16930   2.686   3.731   2.378
 5493SOL    HW116931   2.726   3.814   2.352
 5493SOL    HW216932   2.592   3.750   2.381
 5494SOL     OW16933   2.203   3.968   3.697
 5494SOL    HW116934   2.236   4.057   3.703
 5494SOL    HW216935   2.108   3.976   3.711
 5495SOL     OW16936   3.139   4.090   2.798
 5495SOL    HW116937   3.050   4.056   2.806
 5495SOL    HW216938   3.191   4.034   2.857
 5496SOL     OW16939   2.706   4.279   3.300
 5496SOL    HW116940   2.666   4.284   3.386
 5496SOL    HW216941   2.635   4.254   3.241
 5497SOL     OW16942   3.254   4.202   3.540
 5497SOL    HW116943   3.261   4.246   3.624
 5497SOL    HW216944   3.307   4.122   3.550
 5498SOL     OW16945   2.865   4.168   3.095
 5498SOL    HW116946   2.809   4.197   3.167
 5498SOL    HW216947   2.808   4.114   3.040
 5499SOL     OW16948   2.913   4.419   2.263
 5499SOL    HW116949   2.905   4.471   2.344
 5499SOL    HW216950   2.831   4.370   2.258
 5500SOL     OW16951   2.764   4.067   2.050
 5500SOL    HW116952   2.803   4.131   1.992
 5500SOL    HW216953   2.773   3.983   2.004
 5501SOL     OW16954   3.585   4.307   3.699
 5501SOL    HW116955   3.606   4.390   3.657
 5501SOL    HW216956   3.598   4.241   3.630
 5502SOL     OW16957   2.412   3.895   2.763
 5502SOL    HW116958   2.415   3.923   2.854
 5502SOL    HW216959   2.410   3.976   2.712
 5503SOL     OW16960   3.357   4.472   2.602
 5503SOL    HW116961   3.349   4.413   2.676
 5503SOL    HW216962   3.400   0.050   2.638
 5504SOL     OW16963   2.060   3.986   3.367
 5504SOL    HW116964   1.978   4.034   3.374
 5504SOL    HW216965   2.040   3.898   3.401
 5505SOL     OW16966   3.260   3.827   2.306
 5505SOL    HW116967   3.255   3.802   2.213
 5505SOL    HW216968   3.354   3.835   2.324
 5506SOL     OW16969   2.219   4.396   2.277
 5506SOL    HW116970   2.246   4.311   2.313
 5506SOL    HW216971   2.179   4.441   2.352
 5507SOL     OW16972   3.383   3.950   3.584
 5507SOL    HW116973   3.394   3.970   3.677
 5507SOL    HW216974   3.317   3.881   3.581
 5508SOL     OW16975   2.509   3.838   1.965
 5508SOL    HW116976   2.565   3.763   1.986
 5508SOL    HW216977   2.455   3.807   1.892
 5509SOL     OW16978   2.621   3.997   3.617
 5509SOL    HW116979   2.704   3.950   3.614
 5509SOL    HW216980   2.578   3.964   3.695
 5510SOL     OW16981   3.196   4.318   3.298
 5510SOL    HW116982   3.219   4.281   3.383
 5510SOL    HW216983   3.254   4.393   3.288
 5511SOL     OW16984   2.792   4.223   2.750
 5511SOL    HW116985   2.768   4.207   2.659
 5511SOL    HW216986   2.831   4.141   2.780
 5512SOL     OW16987   2.418   3.788   2.355
 5512SOL    HW116988   2.338   3.787   2.408
 5512SOL    HW216989   2.409   3.865   2.299
 5513SOL     OW16990   2.150   3.773   2.049
 5513SOL    HW116991   2.204   3.836   2.002
 5513SOL    HW216992   2.212   3.712   2.090
 5514SOL     OW16993   2.807   3.974   2.313
 5514SOL    HW116994   2.784   4.007   2.227
 5514SOL    HW216995   2.901   3.989   2.321
 5515SOL     OW16996   2.934   4.388   3.413
 5515SOL    HW116997   2.858   4.353   3.366
 5515SOL    HW216998   3.008   4.367   3.357
 5516SOL     OW16999   2.892   4.254   1.893
 5516SOL    HW117000   2.876   4.342   1.858
 5516SOL    HW217001   2.957   4.267   1.962
 5517SOL     OW17002   1.943   4.283   3.260
 5517SOL    HW117003   2.035   4.275   3.233
 5517SOL    HW217004   1.942   4.358   3.319
 5518SOL     OW17005   2.417   3.951   3.032
 5518SOL    HW117006   2.462   3.887   3.087
 5518SOL    HW217007   2.326   3.947   3.060
 5519SOL     OW17008   2.727   4.182   2.492
 5519SOL    HW117009   2.704   4.244   2.423
 5519SOL    HW217010   2.751   4.102   2.445
 5520SOL     OW17011   2.880   3.776   2.604
 5520SOL    HW117012   2.820   3.770   2.530
 5520SOL    HW217013   2.856   3.703   2.660
 5521SOL     OW17014   3.340   4.299   2.811
 5521SOL    HW117015   3.267   4.240   2.829
 5521SOL    HW217016   3.386   4.307   2.894
 5522SOL     OW17017   3.269   4.298   1.937
 5522SOL    HW117018   3.205   4.265   2.000
 5522SOL    HW217019   3.352   4.258   1.964
 5523SOL     OW17020   2.396   3.989   2.173
 5523SOL    HW117021   2.441   3.942   2.104
 5523SOL    HW217022   2.373   4.074   2.134
 5524SOL     OW17023   2.781   3.814   3.249
 5524SOL    HW117024   2.804   3.795   3.158
 5524SOL    HW217025   2.860   3.853   3.286
 5525SOL     OW17026   2.307   0.014   3.167
 5525SOL    HW117027   2.381   4.498   3.225
 5525SOL    HW217028   2.263   4.429   3.161
 5526SOL     OW17029   3.125   4.099   3.146
 5526SOL    HW117030   3.157   4.177   3.192
 5526SOL    HW217031   3.037   4.122   3.117
 5527SOL     OW17032   2.414   4.238   2.725
 5527SOL    HW117033   2.431   4.264   2.634
 5527SOL    HW217034   2.480   4.283   2.776
 5528SOL     OW17035   3.428   4.323   2.364
 5528SOL    HW117036   3.409   4.391   2.428
 5528SOL    HW217037   3.481   4.368   2.297
 5529SOL     OW17038   2.858   3.860   3.620
 5529SOL    HW117039   2.916   3.933   3.599
 5529SOL    HW217040   2.906   3.782   3.594
 5530SOL     OW17041   2.358   3.757   3.615
 5530SOL    HW117042   2.309   3.705   3.551
 5530SOL    HW217043   2.302   3.832   3.632
 5531SOL     OW17044   3.066   4.249   2.119
 5531SOL    HW117045   3.076   4.170   2.172
 5531SOL    HW217046   3.019   4.311   2.175
 5532SOL     OW17047   2.156   3.919   3.108
 5532SOL    HW117048   2.119   3.950   3.191
 5532SOL    HW217049   2.139   3.824   3.108
 5533SOL     OW17050   2.602   4.360   2.885
 5533SOL    HW117051   2.674   4.316   2.841
 5533SOL    HW217052   2.624   4.453   2.883
 5534SOL     OW17053   3.618   0.119   3.706
 5534SOL    HW117054   3.540   0.145   3.657
 5534SOL    HW217055   3.591   0.120   3.798
 5535SOL     OW17056   2.176   3.785   2.487
 5535SOL    HW117057   2.149   3.875   2.506
 5535SOL    HW217058   2.182   3.743   2.572
 5536SOL     OW17059   3.478   4.089   2.224
 5536SOL    HW117060   3.515   4.027   2.286
 5536SOL    HW217061   3.448   4.162   2.279
 5537SOL     OW17062   3.378   4.000   1.986
 5537SOL    HW117063   3.320   3.929   2.013
 5537SOL    HW217064   3.417   4.031   2.068
 5538SOL     OW17065   2.189   0.011   2.769
 5538SOL    HW117066   2.260   0.074   2.783
 5538SOL    HW217067   2.205   4.442   2.834
 5539SOL     OW17068   2.200   4.242   2.889
 5539SOL    HW117069   2.157   4.158   2.871
 5539SOL    HW217070   2.275   4.244   2.829
 5540SOL     OW17071   3.001   4.087   3.552
 5540SOL    HW117072   2.946   4.146   3.604
 5540SOL    HW217073   3.084   4.134   3.542
 5541SOL     OW17074   3.022   3.919   3.333
 5541SOL    HW117075   3.011   3.979   3.406
 5541SOL    HW217076   3.065   3.971   3.265
 5542SOL     OW17077   1.898   4.287   2.981
 5542SOL    HW117078   1.978   4.277   2.929
 5542SOL    HW217079   1.928   4.283   3.072
 5543SOL     OW17080   2.067   4.250   3.568
 5543SOL    HW117081   2.112   4.192   3.507
 5543SOL    HW217082   2.021   4.313   3.513
 5544SOL     OW17083   2.684   4.272   2.224
 5544SOL    HW117084   2.697   4.200   2.163
 5544SOL    HW217085   2.595   4.303   2.207
 5545SOL     OW17086   3.491   4.305   3.039
 5545SOL    HW117087   3.491   4.250   3.117
 5545SOL    HW217088   3.581   4.302   3.007
 5546SOL     OW17089   2.546   4.190   3.100
 5546SOL    HW117090   2.498   4.113   3.071
 5546SOL    HW217091   2.550   4.246   3.022
 5547SOL     OW17092   2.334   4.227   2.056
 5547SOL    HW117093   2.350   4.312   2.097
 5547SOL    HW217094   2.241   4.230   2.030
 5548SOL     OW17095   3.594   3.883   2.369
 5548SOL    HW117096   3.661   3.866   2.304
 5548SOL    HW217097   3.574   3.797   2.406
 5549SOL     OW17098   3.141   0.129   2.531
 5549SOL    HW117099   3.201   0.065   2.569
 5549SOL    HW217100   3.185   0.158   2.451
 5550SOL     OW17101   3.706   3.891   2.828
 5550SOL    HW117102   3.735   3.803   2.804
 5550SOL    HW217103   3.619   3.898   2.788
 5551SOL     OW17104   2.119   4.038   2.575
 5551SOL    HW117105   2.031   4.067   2.551
 5551SOL    HW217106   2.117   4.031   2.670
 5552SOL     OW17107   2.764   0.087   2.055
 5552SOL    HW117108   2.842   0.122   2.014
 5552SOL    HW217109   2.793   0.059   2.142
 5553SOL     OW17110   2.932   0.284   2.619
 5553SOL    HW117111   2.871   0.297   2.547
 5553SOL    HW217112   2.998   0.224   2.585
 5554SOL     OW17113   2.890   3.964   2.818
 5554SOL    HW117114   2.887   3.913   2.737
 5554SOL    HW217115   2.882   3.899   2.888
 5555SOL     OW17116   3.594   4.111   3.246
 5555SOL    HW117117   3.664   4.176   3.244
 5555SOL    HW217118   3.623   4.042   3.186
 5556SOL     OW17119   2.540   3.913   3.360
 5556SOL    HW117120   2.624   3.892   3.320
 5556SOL    HW217121   2.562   3.947   3.447
 5557SOL     OW17122   1.937   4.034   1.896
 5557SOL    HW117123   1.875   4.048   1.825
 5557SOL    HW217124   1.964   4.122   1.922
 5558SOL     OW17125   1.918   3.874   2.157
 5558SOL    HW117126   1.900   3.943   2.093
 5558SOL    HW217127   2.005   3.842   2.133
 5559SOL     OW17128   2.599   4.269   3.551
 5559SOL    HW117129   2.573   4.314   3.631
 5559SOL    HW217130   2.606   4.177   3.576
 5560SOL     OW17131   3.079   4.041   2.312
 5560SOL    HW117132   3.139   3.967   2.309
 5560SOL    HW217133   3.105   4.089   2.390
 5561SOL     OW17134   3.614   4.094   3.521
 5561SOL    HW117135   3.603   4.107   3.427
 5561SOL    HW217136   3.541   4.037   3.546
 5562SOL     OW17137   2.981   0.216   1.959
 5562SOL    HW117138   2.981   0.261   1.874
 5562SOL    HW217139   3.072   0.190   1.973
 5563SOL     OW17140   3.675   3.901   3.098
 5563SOL    HW117141   3.678   3.806   3.110
 5563SOL    HW217142   3.686   3.914   3.004
 5564SOL     OW17143   2.295   4.162   2.395
 5564SOL    HW117144   2.327   4.092   2.338
 5564SOL    HW217145   2.240   4.118   2.459
 5565SOL     OW17146   2.192   4.267   3.162
 5565SOL    HW117147   2.247   4.207   3.212
 5565SOL    HW217148   2.208   4.244   3.071
 5566SOL     OW17149   3.289   3.953   2.980
 5566SOL    HW117150   3.304   3.867   3.020
 5566SOL    HW217151   3.241   4.002   3.045
 5567SOL     OW17152   2.870   3.740   2.993
 5567SOL    HW117153   2.816   3.675   2.948
 5567SOL    HW217154   2.958   3.701   2.995
 5568SOL     OW17155   3.224   3.772   2.036
 5568SOL    HW117156   3.260   3.699   1.986
 5568SOL    HW217157   3.134   3.747   2.055
 5569SOL     OW17158   3.153   4.174   2.537
 5569SOL    HW117159   3.145   4.268   2.549
 5569SOL    HW217160   3.154   4.138   2.626
 5570SOL     OW17161   3.445   3.914   2.748
 5570SOL    HW117162   3.392   3.943   2.821
 5570SOL    HW217163   3.446   3.989   2.688
 5571SOL     OW17164   2.074   4.276   3.839
 5571SOL    HW117165   2.063   4.364   3.872
 5571SOL    HW217166   2.075   4.285   3.743
 5572SOL     OW17167   2.085   4.003   4.715
 5572SOL    HW117168   2.112   3.968   4.800
 5572SOL    HW217169   1.995   3.971   4.703
 5573SOL     OW17170   1.860   4.100   4.368
 5573SOL    HW117171   1.782   4.132   4.415
 5573SOL    HW217172   1.829   4.024   4.319
 5574SOL     OW17173   3.567   4.337   3.969
 5574SOL    HW117174   3.582   4.332   3.875
 5574SOL    HW217175   3.574   4.247   3.999
 5575SOL     OW17176   2.583   0.282   4.411
 5575SOL    HW117177   2.580   0.224   4.487
 5575SOL    HW217178   2.510   0.252   4.356
 5576SOL     OW17179   2.315   4.097   5.197
 5576SOL    HW117180   2.393   4.043   5.205
 5576SOL    HW217181   2.243   4.040   5.222
 5577SOL     OW17182   3.470   4.160   4.469
 5577SOL    HW117183   3.428   4.196   4.391
 5577SOL    HW217184   3.439   4.215   4.541
 5578SOL     OW17185   3.457   3.854   5.187
 5578SOL    HW117186   3.485   3.933   5.142
 5578SOL    HW217187   3.433   3.884   5.275
 5579SOL     OW17188   1.897   4.404   4.320
 5579SOL    HW117189   1.903   4.308   4.321
 5579SOL    HW217190   1.986   4.434   4.337
 5580SOL     OW17191   1.983   4.487   5.304
 5580SOL    HW117192   2.033   0.009   5.382
 5580SOL    HW217193   1.967   0.072   5.262
 5581SOL     OW17194   2.686   3.731   4.239
 5581SOL    HW117195   2.726   3.814   4.214
 5581SOL    HW217196   2.592   3.750   4.242
 5582SOL     OW17197   2.202   3.968   5.559
 5582SOL    HW117198   2.235   4.058   5.564
 5582SOL    HW217199   2.107   3.977   5.573
 5583SOL     OW17200   3.139   4.090   4.660
 5583SOL    HW117201   3.050   4.056   4.668
 5583SOL    HW217202   3.191   4.034   4.719
 5584SOL     OW17203   2.706   4.279   5.162
 5584SOL    HW117204   2.666   4.283   5.248
 5584SOL    HW217205   2.634   4.254   5.103
 5585SOL     OW17206   3.254   4.201   5.402
 5585SOL    HW117207   3.261   4.246   5.486
 5585SOL    HW217208   3.306   4.122   5.412
 5586SOL     OW17209   2.865   4.168   4.957
 5586SOL    HW117210   2.808   4.197   5.029
 5586SOL    HW217211   2.808   4.114   4.902
 5587SOL     OW17212   2.913   4.420   4.125
 5587SOL    HW117213   2.905   4.471   4.205
 5587SOL    HW217214   2.831   4.370   4.120
 5588SOL     OW17215   2.764   4.067   3.912
 5588SOL    HW117216   2.803   4.131   3.854
 5588SOL    HW217217   2.774   3.983   3.866
 5589SOL     OW17218   3.585   4.307   5.561
 5589SOL    HW117219   3.606   4.390   5.518
 5589SOL    HW217220   3.598   4.241   5.492
 5590SOL     OW17221   2.412   3.895   4.625
 5590SOL    HW117222   2.415   3.923   4.716
 5590SOL    HW217223   2.410   3.977   4.575
 5591SOL     OW17224   3.357   4.472   4.464
 5591SOL    HW117225   3.349   4.413   4.538
 5591SOL    HW217226   3.400   0.050   4.500
 5592SOL     OW17227   2.061   3.985   5.229
 5592SOL    HW117228   1.979   4.034   5.237
 5592SOL    HW217229   2.039   3.898   5.263
 5593SOL     OW17230   3.260   3.827   4.168
 5593SOL    HW117231   3.255   3.803   4.076
 5593SOL    HW217232   3.354   3.835   4.186
 5594SOL     OW17233   2.219   4.396   4.140
 5594SOL    HW117234   2.246   4.311   4.175
 5594SOL    HW217235   2.179   4.441   4.214
 5595SOL     OW17236   3.383   3.950   5.446
 5595SOL    HW117237   3.393   3.969   5.539
 5595SOL    HW217238   3.317   3.880   5.443
 5596SOL     OW17239   2.509   3.838   3.827
 5596SOL    HW117240   2.564   3.763   3.848
 5596SOL    HW217241   2.455   3.807   3.754
 5597SOL     OW17242   2.622   3.997   5.479
 5597SOL    HW117243   2.705   3.950   5.476
 5597SOL    HW217244   2.578   3.963   5.557
 5598SOL     OW17245   3.196   4.318   5.160
 5598SOL    HW117246   3.219   4.281   5.245
 5598SOL    HW217247   3.254   4.393   5.150
 5599SOL     OW17248   2.792   4.223   4.612
 5599SOL    HW117249   2.768   4.207   4.521
 5599SOL    HW217250   2.831   4.141   4.642
 5600SOL     OW17251   2.418   3.788   4.217
 5600SOL    HW117252   2.338   3.787   4.271
 5600SOL    HW217253   2.409   3.865   4.161
 5601SOL     OW17254   2.150   3.773   3.911
 5601SOL    HW117255   2.205   3.836   3.865
 5601SOL    HW217256   2.212   3.712   3.952
 5602SOL     OW17257   2.807   3.974   4.175
 5602SOL    HW117258   2.784   4.008   4.089
 5602SOL    HW217259   2.901   3.989   4.183
 5603SOL     OW17260   2.934   4.388   5.275
 5603SOL    HW117261   2.858   4.353   5.228
 5603SOL    HW217262   3.008   4.368   5.219
 5604SOL     OW17263   2.892   4.254   3.755
 5604SOL    HW117264   2.876   4.342   3.720
 5604SOL    HW217265   2.957   4.267   3.824
 5605SOL     OW17266   1.943   4.283   5.122
 5605SOL    HW117267   2.035   4.275   5.095
 5605SOL    HW217268   1.942   4.359   5.181
 5606SOL     OW17269   2.417   3.951   4.894
 5606SOL    HW117270   2.462   3.887   4.949
 5606SOL    HW217271   2.326   3.947   4.923
 5607SOL     OW17272   2.727   4.182   4.354
 5607SOL    HW117273   2.704   4.244   4.285
 5607SOL    HW217274   2.751   4.102   4.307
 5608SOL     OW17275   2.880   3.776   4.466
 5608SOL    HW117276   2.820   3.770   4.391
 5608SOL    HW217277   2.856   3.703   4.522
 5609SOL     OW17278   3.340   4.299   4.673
 5609SOL    HW117279   3.267   4.240   4.691
 5609SOL    HW217280   3.386   4.307   4.756
 5610SOL     OW17281   3.269   4.298   3.799
 5610SOL    HW117282   3.205   4.265   3.862
 5610SOL    HW217283   3.352   4.259   3.826
 5611SOL     OW17284   2.396   3.989   4.035
 5611SOL    HW117285   2.441   3.942   3.966
 5611SOL    HW217286   2.373   4.074   3.996
 5612SOL     OW17287   2.780   3.815   5.111
 5612SOL    HW117288   2.803   3.795   5.020
 5612SOL    HW217289   2.860   3.853   5.148
 5613SOL     OW17290   2.307   0.014   5.030
 5613SOL    HW117291   2.382   4.497   5.087
 5613SOL    HW217292   2.263   4.429   5.023
 5614SOL     OW17293   3.125   4.099   5.008
 5614SOL    HW117294   3.157   4.177   5.054
 5614SOL    HW217295   3.037   4.123   4.979
 5615SOL     OW17296   2.414   4.238   4.587
 5615SOL    HW117297   2.431   4.264   4.496
 5615SOL    HW217298   2.480   4.283   4.638
 5616SOL     OW17299   3.428   4.323   4.226
 5616SOL    HW117300   3.409   4.391   4.290
 5616SOL    HW217301   3.481   4.368   4.159
 5617SOL     OW17302   2.858   3.860   5.481
 5617SOL    HW117303   2.917   3.932   5.461
 5617SOL    HW217304   2.906   3.781   5.456
 5618SOL     OW17305   2.358   3.759   5.476
 5618SOL    HW117306   2.310   3.706   5.412
 5618SOL    HW217307   2.302   3.834   5.493
 5619SOL     OW17308   3.066   4.249   3.981
 5619SOL    HW117309   3.076   4.170   4.034
 5619SOL    HW217310   3.019   4.311   4.037
 5620SOL     OW17311   2.155   3.918   4.970
 5620SOL    HW117312   2.119   3.950   5.053
 5620SOL    HW217313   2.138   3.824   4.970
 5621SOL     OW17314   2.602   4.360   4.747
 5621SOL    HW117315   2.674   4.316   4.703
 5621SOL    HW217316   2.624   4.453   4.745
 5622SOL     OW17317   3.619   0.119   5.568
 5622SOL    HW117318   3.541   0.145   5.519
 5622SOL    HW217319   3.591   0.120   5.660
 5623SOL     OW17320   2.176   3.785   4.349
 5623SOL    HW117321   2.149   3.875   4.369
 5623SOL    HW217322   2.182   3.743   4.435
 5624SOL     OW17323   3.478   4.090   4.086
 5624SOL    HW117324   3.515   4.026   4.148
 5624SOL    HW217325   3.448   4.162   4.141
 5625SOL     OW17326   3.378   4.000   3.848
 5625SOL    HW117327   3.320   3.929   3.875
 5625SOL    HW217328   3.417   4.031   3.930
 5626SOL     OW17329   2.188   0.011   4.631
 5626SOL    HW117330   2.260   0.074   4.644
 5626SOL    HW217331   2.205   4.442   4.696
 5627SOL     OW17332   2.200   4.242   4.751
 5627SOL    HW117333   2.157   4.159   4.733
 5627SOL    HW217334   2.275   4.244   4.691
 5628SOL     OW17335   3.001   4.088   5.413
 5628SOL    HW117336   2.947   4.146   5.466
 5628SOL    HW217337   3.084   4.134   5.404
 5629SOL     OW17338   3.021   3.919   5.194
 5629SOL    HW117339   3.011   3.979   5.268
 5629SOL    HW217340   3.065   3.971   5.127
 5630SOL     OW17341   1.898   4.286   4.843
 5630SOL    HW117342   1.978   4.277   4.791
 5630SOL    HW217343   1.928   4.283   4.934
 5631SOL     OW17344   2.067   4.250   5.431
 5631SOL    HW117345   2.113   4.193   5.369
 5631SOL    HW217346   2.021   4.313   5.375
 5632SOL     OW17347   2.684   4.272   4.086
 5632SOL    HW117348   2.697   4.200   4.025
 5632SOL    HW217349   2.595   4.303   4.069
 5633SOL     OW17350   3.491   4.306   4.901
 5633SOL    HW117351   3.491   4.250   4.978
 5633SOL    HW217352   3.581   4.302   4.869
 5634SOL     OW17353   2.545   4.191   4.962
 5634SOL    HW117354   2.498   4.113   4.933
 5634SOL    HW217355   2.550   4.246   4.884
 5635SOL     OW17356   2.333   4.227   3.917
 5635SOL    HW117357   2.350   4.312   3.958
 5635SOL    HW217358   2.241   4.230   3.892
 5636SOL     OW17359   3.594   3.883   4.231
 5636SOL    HW117360   3.661   3.866   4.166
 5636SOL    HW217361   3.574   3.797   4.268
 5637SOL     OW17362   3.141   0.129   4.393
 5637SOL    HW117363   3.201   0.065   4.431
 5637SOL    HW217364   3.185   0.159   4.313
 5638SOL     OW17365   3.706   3.890   4.690
 5638SOL    HW117366   3.735   3.803   4.666
 5638SOL    HW217367   3.619   3.898   4.650
 5639SOL     OW17368   2.119   4.038   4.437
 5639SOL    HW117369   2.031   4.067   4.413
 5639SOL    HW217370   2.117   4.031   4.532
 5640SOL     OW17371   2.764   0.087   3.917
 5640SOL    HW117372   2.842   0.122   3.876
 5640SOL    HW217373   2.793   0.059   4.004
 5641SOL     OW17374   2.932   0.284   4.482
 5641SOL    HW117375   2.871   0.297   4.409
 5641SOL    HW217376   2.998   0.224   4.447
 5642SOL     OW17377   2.890   3.964   4.680
 5642SOL    HW117378   2.887   3.912   4.599
 5642SOL    HW217379   2.882   3.899   4.750
 5643SOL     OW17380   3.594   4.111   5.108
 5643SOL    HW117381   3.664   4.176   5.106
 5643SOL    HW217382   3.623   4.042   5.048
 5644SOL     OW17383   2.540   3.914   5.222
 5644SOL    HW117384   2.624   3.893   5.182
 5644SOL    HW217385   2.562   3.947   5.309
 5645SOL     OW17386   1.937   4.034   3.759
 5645SOL    HW117387   1.875   4.049   3.687
 5645SOL    HW217388   1.964   4.122   3.785
 5646SOL     OW17389   1.918   3.874   4.018
 5646SOL    HW117390   1.900   3.943   3.955
 5646SOL    HW217391   2.005   3.842   3.995
 5647SOL     OW17392   2.599   4.268   5.413
 5647SOL    HW117393   2.575   4.313   5.494
 5647SOL    HW217394   2.606   4.176   5.438
 5648SOL     OW17395   3.079   4.041   4.174
 5648SOL    HW117396   3.139   3.967   4.171
 5648SOL    HW217397   3.105   4.089   4.252
 5649SOL     OW17398   3.613   4.094   5.383
 5649SOL    HW117399   3.602   4.107   5.289
 5649SOL    HW217400   3.540   4.037   5.408
 5650SOL     OW17401   2.981   0.216   3.821
 5650SOL    HW117402   2.981   0.261   3.736
 5650SOL    HW217403   3.072   0.190   3.835
 5651SOL     OW17404   3.675   3.902   4.960
 5651SOL    HW117405   3.678   3.807   4.972
 5651SOL    HW217406   3.687   3.914   4.866
 5652SOL     OW17407   2.295   4.162   4.257
 5652SOL    HW117408   2.327   4.092   4.200
 5652SOL    HW217409   2.240   4.118   4.321
 5653SOL     OW17410   2.192   4.267   5.024
 5653SOL    HW117411   2.247   4.207   5.074
 5653SOL    HW217412   2.208   4.244   4.933
 5654SOL     OW17413   3.289   3.953   4.842
 5654SOL    HW117414   3.303   3.867   4.882
 5654SOL    HW217415   3.241   4.002   4.907
 5655SOL     OW17416   2.870   3.740   4.856
 5655SOL    HW117417   2.815   3.675   4.811
 5655SOL    HW217418   2.957   3.701   4.857
 5656SOL     OW17419   3.224   3.772   3.898
 5656SOL    HW117420   3.260   3.699   3.848
 5656SOL    HW217421   3.134   3.747   3.917
 5657SOL     OW17422   3.153   4.174   4.399
 5657SOL    HW117423   3.145   4.268   4.411
 5657SOL    HW217424   3.154   4.138   4.488
 5658SOL     OW17425   3.445   3.914   4.610
 5658SOL    HW117426   3.392   3.943   4.684
 5658SOL    HW217427   3.446   3.989   4.550
 5659SOL     OW17428   2.074   4.276   5.701
 5659SOL    HW117429   2.062   4.365   5.734
 5659SOL    HW217430   2.075   4.286   5.606
 5660SOL     OW17431   2.085   4.003   6.577
 5660SOL    HW117432   2.112   3.969   6.662
 5660SOL    HW217433   1.995   3.971   6.565
 5661SOL     OW17434   1.860   4.101   6.230
 5661SOL    HW117435   1.782   4.132   6.277
 5661SOL    HW217436   1.829   4.024   6.181
 5662SOL     OW17437   3.567   4.337   5.831
 5662SOL    HW117438   3.582   4.332   5.737
 5662SOL    HW217439   3.574   4.246   5.861
 5663SOL     OW17440   2.582   0.282   6.273
 5663SOL    HW117441   2.581   0.224   6.349
 5663SOL    HW217442   2.512   0.249   6.217
 5664SOL     OW17443   2.315   4.097   7.058
 5664SOL    HW117444   2.393   4.042   7.067
 5664SOL    HW217445   2.242   4.040   7.084
 5665SOL     OW17446   3.470   4.160   6.331
 5665SOL    HW117447   3.428   4.196   6.253
 5665SOL    HW217448   3.440   4.216   6.403
 5666SOL     OW17449   3.457   3.853   7.049
 5666SOL    HW117450   3.486   3.932   7.003
 5666SOL    HW217451   3.433   3.884   7.137
 5667SOL     OW17452   1.897   4.403   6.181
 5667SOL    HW117453   1.903   4.308   6.182
 5667SOL    HW217454   1.986   4.433   6.199
 5668SOL     OW17455   1.982   4.487   7.166
 5668SOL    HW117456   2.033   0.008   7.244
 5668SOL    HW217457   1.966   0.071   7.124
 5669SOL     OW17458   2.686   3.733   6.103
 5669SOL    HW117459   2.726   3.816   6.076
 5669SOL    HW217460   2.592   3.751   6.105
 5670SOL     OW17461   2.203   3.968   7.421
 5670SOL    HW117462   2.235   4.058   7.427
 5670SOL    HW217463   2.108   3.976   7.435
 5671SOL     OW17464   3.139   4.090   6.523
 5671SOL    HW117465   3.050   4.056   6.530
 5671SOL    HW217466   3.191   4.034   6.581
 5672SOL     OW17467   2.706   4.280   7.024
 5672SOL    HW117468   2.666   4.284   7.111
 5672SOL    HW217469   2.635   4.254   6.966
 5673SOL     OW17470   3.254   4.202   7.264
 5673SOL    HW117471   3.261   4.246   7.348
 5673SOL    HW217472   3.307   4.122   7.274
 5674SOL     OW17473   2.865   4.167   6.819
 5674SOL    HW117474   2.808   4.196   6.890
 5674SOL    HW217475   2.808   4.114   6.763
 5675SOL     OW17476   2.912   4.420   5.987
 5675SOL    HW117477   2.904   4.471   6.067
 5675SOL    HW217478   2.831   4.370   5.982
 5676SOL     OW17479   2.764   4.067   5.775
 5676SOL    HW117480   2.803   4.131   5.715
 5676SOL    HW217481   2.772   3.984   5.728
 5677SOL     OW17482   3.585   4.307   7.422
 5677SOL    HW117483   3.606   4.390   7.380
 5677SOL    HW217484   3.598   4.241   7.354
 5678SOL     OW17485   2.412   3.895   6.486
 5678SOL    HW117486   2.414   3.923   6.578
 5678SOL    HW217487   2.410   3.976   6.436
 5679SOL     OW17488   3.357   4.472   6.326
 5679SOL    HW117489   3.349   4.413   6.401
 5679SOL    HW217490   3.401   0.050   6.362
 5680SOL     OW17491   2.060   3.986   7.091
 5680SOL    HW117492   1.978   4.034   7.098
 5680SOL    HW217493   2.040   3.898   7.125
 5681SOL     OW17494   3.260   3.827   6.029
 5681SOL    HW117495   3.255   3.802   5.937
 5681SOL    HW217496   3.354   3.834   6.047
 5682SOL     OW17497   2.220   4.397   6.002
 5682SOL    HW117498   2.247   4.312   6.037
 5682SOL    HW217499   2.179   4.441   6.077
 5683SOL     OW17500   3.383   3.950   7.308
 5683SOL    HW117501   3.393   3.970   7.401
 5683SOL    HW217502   3.317   3.881   7.305
 5684SOL     OW17503   2.509   3.837   5.689
 5684SOL    HW117504   2.563   3.761   5.711
 5684SOL    HW217505   2.455   3.807   5.616
 5685SOL     OW17506   2.622   3.997   7.341
 5685SOL    HW117507   2.705   3.950   7.338
 5685SOL    HW217508   2.578   3.964   7.419
 5686SOL     OW17509   3.196   4.318   7.022
 5686SOL    HW117510   3.219   4.281   7.107
 5686SOL    HW217511   3.254   4.393   7.012
 5687SOL     OW17512   2.793   4.223   6.474
 5687SOL    HW117513   2.768   4.207   6.383
 5687SOL    HW217514   2.831   4.141   6.504
 5688SOL     OW17515   2.418   3.788   6.080
 5688SOL    HW117516   2.338   3.787   6.133
 5688SOL    HW217517   2.409   3.865   6.024
 5689SOL     OW17518   2.149   3.772   5.772
 5689SOL    HW117519   2.204   3.836   5.725
 5689SOL    HW217520   2.211   3.713   5.813
 5690SOL     OW17521   2.807   3.975   6.037
 5690SOL    HW117522   2.785   4.008   5.950
 5690SOL    HW217523   2.902   3.990   6.045
 5691SOL     OW17524   2.934   4.388   7.137
 5691SOL    HW117525   2.858   4.353   7.090
 5691SOL    HW217526   3.008   4.368   7.081
 5692SOL     OW17527   2.892   4.254   5.617
 5692SOL    HW117528   2.877   4.342   5.582
 5692SOL    HW217529   2.957   4.267   5.686
 5693SOL     OW17530   1.943   4.283   6.984
 5693SOL    HW117531   2.035   4.275   6.957
 5693SOL    HW217532   1.942   4.358   7.043
 5694SOL     OW17533   2.417   3.951   6.756
 5694SOL    HW117534   2.462   3.886   6.810
 5694SOL    HW217535   2.326   3.947   6.784
 5695SOL     OW17536   2.727   4.183   6.216
 5695SOL    HW117537   2.704   4.244   6.146
 5695SOL    HW217538   2.751   4.103   6.169
 5696SOL     OW17539   2.879   3.777   6.328
 5696SOL    HW117540   2.819   3.770   6.253
 5696SOL    HW217541   2.856   3.703   6.384
 5697SOL     OW17542   3.340   4.299   6.535
 5697SOL    HW117543   3.267   4.240   6.554
 5697SOL    HW217544   3.386   4.307   6.618
 5698SOL     OW17545   3.269   4.298   5.661
 5698SOL    HW117546   3.205   4.265   5.724
 5698SOL    HW217547   3.352   4.257   5.688
 5699SOL     OW17548   2.396   3.989   5.897
 5699SOL    HW117549   2.441   3.941   5.828
 5699SOL    HW217550   2.373   4.073   5.857
 5700SOL     OW17551   2.781   3.814   6.973
 5700SOL    HW117552   2.804   3.795   6.882
 5700SOL    HW217553   2.860   3.853   7.010
 5701SOL     OW17554   2.307   0.014   6.891
 5701SOL    HW117555   2.381   4.497   6.949
 5701SOL    HW217556   2.263   4.429   6.884
 5702SOL     OW17557   3.125   4.099   6.871
 5702SOL    HW117558   3.157   4.177   6.916
 5702SOL    HW217559   3.037   4.122   6.841
 5703SOL     OW17560   2.414   4.238   6.449
 5703SOL    HW117561   2.431   4.263   6.358
 5703SOL    HW217562   2.480   4.284   6.500
 5704SOL     OW17563   3.428   4.323   6.088
 5704SOL    HW117564   3.409   4.391   6.152
 5704SOL    HW217565   3.481   4.367   6.021
 5705SOL     OW17566   2.858   3.860   7.344
 5705SOL    HW117567   2.916   3.933   7.323
 5705SOL    HW217568   2.906   3.782   7.318
 5706SOL     OW17569   2.358   3.757   7.339
 5706SOL    HW117570   2.309   3.705   7.275
 5706SOL    HW217571   2.302   3.832   7.356
 5707SOL     OW17572   3.066   4.250   5.843
 5707SOL    HW117573   3.076   4.171   5.896
 5707SOL    HW217574   3.018   4.311   5.899
 5708SOL     OW17575   2.156   3.919   6.832
 5708SOL    HW117576   2.119   3.950   6.915
 5708SOL    HW217577   2.139   3.825   6.832
 5709SOL     OW17578   2.602   4.360   6.609
 5709SOL    HW117579   2.675   4.316   6.565
 5709SOL    HW217580   2.624   4.453   6.606
 5710SOL     OW17581   3.619   0.119   7.430
 5710SOL    HW117582   3.541   0.145   7.381
 5710SOL    HW217583   3.591   0.120   7.522
 5711SOL     OW17584   2.175   3.785   6.210
 5711SOL    HW117585   2.148   3.875   6.230
 5711SOL    HW217586   2.182   3.743   6.296
 5712SOL     OW17587   3.478   4.089   5.948
 5712SOL    HW117588   3.515   4.026   6.010
 5712SOL    HW217589   3.448   4.162   6.003
 5713SOL     OW17590   3.378   4.000   5.710
 5713SOL    HW117591   3.320   3.929   5.737
 5713SOL    HW217592   3.417   4.031   5.792
 5714SOL     OW17593   2.188   0.011   6.494
 5714SOL    HW117594   2.260   0.073   6.507
 5714SOL    HW217595   2.204   4.442   6.558
 5715SOL     OW17596   2.200   4.242   6.612
 5715SOL    HW117597   2.156   4.159   6.595
 5715SOL    HW217598   2.275   4.244   6.553
 5716SOL     OW17599   3.001   4.087   7.276
 5716SOL    HW117600   2.946   4.146   7.328
 5716SOL    HW217601   3.084   4.134   7.266
 5717SOL     OW17602   3.022   3.919   7.057
 5717SOL    HW117603   3.011   3.979   7.130
 5717SOL    HW217604   3.065   3.971   6.989
 5718SOL     OW17605   1.898   4.287   6.705
 5718SOL    HW117606   1.978   4.277   6.653
 5718SOL    HW217607   1.928   4.283   6.796
 5719SOL     OW17608   2.066   4.250   7.293
 5719SOL    HW117609   2.111   4.191   7.231
 5719SOL    HW217610   2.020   4.313   7.237
 5720SOL     OW17611   2.684   4.272   5.948
 5720SOL    HW117612   2.697   4.200   5.887
 5720SOL    HW217613   2.594   4.302   5.930
 5721SOL     OW17614   3.491   4.305   6.763
 5721SOL    HW117615   3.491   4.250   6.841
 5721SOL    HW217616   3.581   4.302   6.731
 5722SOL     OW17617   2.546   4.190   6.824
 5722SOL    HW117618   2.498   4.113   6.795
 5722SOL    HW217619   2.550   4.246   6.746
 5723SOL     OW17620   2.333   4.227   5.779
 5723SOL    HW117621   2.350   4.312   5.819
 5723SOL    HW217622   2.241   4.230   5.754
 5724SOL     OW17623   3.595   3.883   6.093
 5724SOL    HW117624   3.662   3.866   6.027
 5724SOL    HW217625   3.574   3.797   6.130
 5725SOL     OW17626   3.141   0.130   6.255
 5725SOL    HW117627   3.201   0.066   6.294
 5725SOL    HW217628   3.185   0.157   6.174
 5726SOL     OW17629   3.706   3.891   6.552
 5726SOL    HW117630   3.735   3.803   6.528
 5726SOL    HW217631   3.619   3.899   6.512
 5727SOL     OW17632   2.119   4.038   6.299
 5727SOL    HW117633   2.031   4.067   6.275
 5727SOL    HW217634   2.117   4.031   6.394
 5728SOL     OW17635   2.764   0.087   5.779
 5728SOL    HW117636   2.842   0.122   5.738
 5728SOL    HW217637   2.794   0.056   5.865
 5729SOL     OW17638   2.932   0.284   6.343
 5729SOL    HW117639   2.871   0.296   6.270
 5729SOL    HW217640   2.999   0.225   6.309
 5730SOL     OW17641   2.890   3.964   6.542
 5730SOL    HW117642   2.887   3.913   6.461
 5730SOL    HW217643   2.882   3.899   6.612
 5731SOL     OW17644   3.594   4.111   6.970
 5731SOL    HW117645   3.664   4.176   6.968
 5731SOL    HW217646   3.623   4.042   6.910
 5732SOL     OW17647   2.540   3.913   7.084
 5732SOL    HW117648   2.624   3.892   7.044
 5732SOL    HW217649   2.562   3.947   7.171
 5733SOL     OW17650   1.936   4.034   5.620
 5733SOL    HW117651   1.874   4.049   5.549
 5733SOL    HW217652   1.964   4.122   5.646
 5734SOL     OW17653   1.918   3.874   5.881
 5734SOL    HW117654   1.900   3.943   5.817
 5734SOL    HW217655   2.006   3.842   5.857
 5735SOL     OW17656   2.599   4.269   7.275
 5735SOL    HW117657   2.573   4.314   7.356
 5735SOL    HW217658   2.606   4.177   7.300
 5736SOL     OW17659   3.079   4.041   6.036
 5736SOL    HW117660   3.139   3.967   6.032
 5736SOL    HW217661   3.105   4.090   6.114
 5737SOL     OW17662   3.613   4.094   7.245
 5737SOL    HW117663   3.603   4.107   7.151
 5737SOL    HW217664   3.541   4.037   7.270
 5738SOL     OW17665   2.981   0.215   5.683
 5738SOL    HW117666   2.981   0.260   5.598
 5738SOL    HW217667   3.072   0.190   5.696
 5739SOL     OW17668   3.675   3.901   6.823
 5739SOL    HW117669   3.678   3.806   6.834
 5739SOL    HW217670   3.686   3.914   6.728
 5740SOL     OW17671   2.295   4.162   6.118
 5740SOL    HW117672   2.327   4.092   6.062
 5740SOL    HW217673   2.240   4.118   6.183
 5741SOL     OW17674   2.193   4.267   6.886
 5741SOL    HW117675   2.247   4.207   6.936
 5741SOL    HW217676   2.208   4.244   6.795
 5742SOL     OW17677   3.289   3.952   6.703
 5742SOL    HW117678   3.303   3.867   6.743
 5742SOL    HW217679   3.241   4.002   6.770
 5743SOL     OW17680   2.870   3.739   6.717
 5743SOL    HW117681   2.817   3.675   6.670
 5743SOL    HW217682   2.958   3.701   6.720
 5744SOL     OW17683   3.225   3.771   5.760
 5744SOL    HW117684   3.261   3.698   5.710
 5744SOL    HW217685   3.135   3.746   5.778
 5745SOL     OW17686   3.154   4.174   6.261
 5745SOL    HW117687   3.145   4.268   6.273
 5745SOL    HW217688   3.154   4.138   6.350
 5746SOL     OW17689   3.446   3.914   6.472
 5746SOL    HW117690   3.392   3.943   6.545
 5746SOL    HW217691   3.446   3.989   6.412
 5747SOL     OW17692   2.075   4.275   7.563
 5747SOL    HW117693   2.062   4.364   7.596
 5747SOL    HW217694   2.075   4.285   7.468
 5748SOL     OW17695   2.085   4.003   8.439
 5748SOL    HW117696   2.112   3.968   8.524
 5748SOL    HW217697   1.996   3.971   8.427
 5749SOL     OW17698   1.860   4.101   8.092
 5749SOL    HW117699   1.782   4.132   8.139
 5749SOL    HW217700   1.829   4.024   8.043
 5750SOL     OW17701   3.567   4.337   7.693
 5750SOL    HW117702   3.582   4.332   7.599
 5750SOL    HW217703   3.575   4.247   7.723
 5751SOL     OW17704   2.583   0.282   8.135
 5751SOL    HW117705   2.580   0.225   8.212
 5751SOL    HW217706   2.511   0.250   8.079
 5752SOL     OW17707   2.315   4.097   8.920
 5752SOL    HW117708   2.393   4.042   8.929
 5752SOL    HW217709   2.242   4.040   8.946
 5753SOL     OW17710   3.470   4.160   8.193
 5753SOL    HW117711   3.428   4.196   8.115
 5753SOL    HW217712   3.439   4.215   8.265
 5754SOL     OW17713   3.457   3.853   8.911
 5754SOL    HW117714   3.486   3.932   8.865
 5754SOL    HW217715   3.433   3.884   8.999
 5755SOL     OW17716   1.898   4.403   8.043
 5755SOL    HW117717   1.904   4.307   8.044
 5755SOL    HW217718   1.987   4.432   8.062
 5756SOL     OW17719   1.982   4.487   9.028
 5756SOL    HW117720   2.033   0.009   9.106
 5756SOL    HW217721   1.966   0.072   8.986
 5757SOL     OW17722   2.686   3.731   7.963
 5757SOL    HW117723   2.726   3.814   7.938
 5757SOL    HW217724   2.592   3.750   7.967
 5758SOL     OW17725   2.203   3.968   9.283
 5758SOL    HW117726   2.235   4.058   9.288
 5758SOL    HW217727   2.108   3.976   9.297
 5759SOL     OW17728   3.139   4.090   8.385
 5759SOL    HW117729   3.050   4.056   8.392
 5759SOL    HW217730   3.191   4.034   8.443
 5760SOL     OW17731   2.706   4.279   8.886
 5760SOL    HW117732   2.666   4.284   8.973
 5760SOL    HW217733   2.635   4.254   8.828
 5761SOL     OW17734   3.254   4.202   9.126
 5761SOL    HW117735   3.261   4.246   9.210
 5761SOL    HW217736   3.307   4.122   9.136
 5762SOL     OW17737   2.865   4.167   8.681
 5762SOL    HW117738   2.808   4.196   8.752
 5762SOL    HW217739   2.808   4.114   8.626
 5763SOL     OW17740   2.913   4.420   7.849
 5763SOL    HW117741   2.904   4.471   7.929
 5763SOL    HW217742   2.831   4.370   7.844
 5764SOL     OW17743   2.764   4.067   7.636
 5764SOL    HW117744   2.803   4.131   7.578
 5764SOL    HW217745   2.773   3.983   7.590
 5765SOL     OW17746   3.585   4.307   9.285
 5765SOL    HW117747   3.606   4.390   9.243
 5765SOL    HW217748   3.598   4.241   9.216
 5766SOL     OW17749   2.412   3.895   8.349
 5766SOL    HW117750   2.415   3.923   8.440
 5766SOL    HW217751   2.410   3.976   8.298
 5767SOL     OW17752   3.357   4.472   8.188
 5767SOL    HW117753   3.349   4.413   8.263
 5767SOL    HW217754   3.400   0.050   8.224
 5768SOL     OW17755   2.060   3.986   8.953
 5768SOL    HW117756   1.978   4.034   8.960
 5768SOL    HW217757   2.040   3.899   8.987
 5769SOL     OW17758   3.260   3.827   7.892
 5769SOL    HW117759   3.255   3.803   7.799
 5769SOL    HW217760   3.354   3.835   7.910
 5770SOL     OW17761   2.219   4.396   7.863
 5770SOL    HW117762   2.247   4.311   7.899
 5770SOL    HW217763   2.179   4.441   7.938
 5771SOL     OW17764   3.383   3.950   9.170
 5771SOL    HW117765   3.393   3.970   9.263
 5771SOL    HW217766   3.317   3.881   9.167
 5772SOL     OW17767   2.509   3.838   7.551
 5772SOL    HW117768   2.565   3.763   7.572
 5772SOL    HW217769   2.455   3.807   7.478
 5773SOL     OW17770   2.622   3.997   9.203
 5773SOL    HW117771   2.705   3.950   9.200
 5773SOL    HW217772   2.577   3.964   9.281
 5774SOL     OW17773   3.196   4.318   8.884
 5774SOL    HW117774   3.219   4.281   8.969
 5774SOL    HW217775   3.254   4.393   8.874
 5775SOL     OW17776   2.793   4.224   8.336
 5775SOL    HW117777   2.768   4.207   8.245
 5775SOL    HW217778   2.831   4.141   8.366
 5776SOL     OW17779   2.418   3.788   7.941
 5776SOL    HW117780   2.338   3.787   7.994
 5776SOL    HW217781   2.409   3.865   7.885
 5777SOL     OW17782   2.150   3.773   7.635
 5777SOL    HW117783   2.205   3.836   7.589
 5777SOL    HW217784   2.211   3.712   7.676
 5778SOL     OW17785   2.807   3.974   7.899
 5778SOL    HW117786   2.784   4.007   7.813
 5778SOL    HW217787   2.901   3.989   7.907
 5779SOL     OW17788   2.934   4.388   8.999
 5779SOL    HW117789   2.858   4.353   8.952
 5779SOL    HW217790   3.008   4.367   8.943
 5780SOL     OW17791   2.892   4.254   7.479
 5780SOL    HW117792   2.876   4.342   7.444
 5780SOL    HW217793   2.957   4.267   7.548
 5781SOL     OW17794   1.943   4.283   8.846
 5781SOL    HW117795   2.035   4.275   8.819
 5781SOL    HW217796   1.942   4.358   8.905
 5782SOL     OW17797   2.417   3.951   8.618
 5782SOL    HW117798   2.462   3.887   8.673
 5782SOL    HW217799   2.326   3.947   8.646
 5783SOL     OW17800   2.727   4.182   8.078
 5783SOL    HW117801   2.704   4.244   8.009
 5783SOL    HW217802   2.751   4.102   8.031
 5784SOL     OW17803   2.880   3.776   8.190
 5784SOL    HW117804   2.820   3.770   8.116
 5784SOL    HW217805   2.856   3.703   8.246
 5785SOL     OW17806   3.340   4.299   8.397
 5785SOL    HW117807   3.267   4.240   8.415
 5785SOL    HW217808   3.386   4.307   8.480
 5786SOL     OW17809   3.269   4.298   7.523
 5786SOL    HW117810   3.205   4.265   7.586
 5786SOL    HW217811   3.352   4.258   7.550
 5787SOL     OW17812   2.396   3.989   7.759
 5787SOL    HW117813   2.441   3.942   7.690
 5787SOL    HW217814   2.373   4.074   7.720
 5788SOL     OW17815   2.781   3.814   8.835
 5788SOL    HW117816   2.804   3.795   8.745
 5788SOL    HW217817   2.860   3.853   8.872
 5789SOL     OW17818   2.307   0.014   8.753
 5789SOL    HW117819   2.381   4.498   8.811
 5789SOL    HW217820   2.263   4.429   8.746
 5790SOL     OW17821   3.125   4.099   8.732
 5790SOL    HW117822   3.157   4.177   8.778
 5790SOL    HW217823   3.037   4.122   8.703
 5791SOL     OW17824   2.414   4.238   8.311
 5791SOL    HW117825   2.431   4.264   8.220
 5791SOL    HW217826   2.480   4.283   8.362
 5792SOL     OW17827   3.428   4.323   7.950
 5792SOL    HW117828   3.409   4.391   8.014
 5792SOL    HW217829   3.481   4.368   7.883
 5793SOL     OW17830   2.858   3.860   9.206
 5793SOL    HW117831   2.916   3.933   9.185
 5793SOL    HW217832   2.906   3.782   9.180
 5794SOL     OW17833   2.358   3.757   9.201
 5794SOL    HW117834   2.309   3.705   9.137
 5794SOL    HW217835   2.302   3.832   9.218
 5795SOL     OW17836   3.066   4.249   7.705
 5795SOL    HW117837   3.076   4.171   7.758
 5795SOL    HW217838   3.019   4.311   7.761
 5796SOL     OW17839   2.156   3.919   8.694
 5796SOL    HW117840   2.119   3.950   8.777
 5796SOL    HW217841   2.139   3.825   8.694
 5797SOL     OW17842   2.602   4.360   8.471
 5797SOL    HW117843   2.674   4.316   8.427
 5797SOL    HW217844   2.624   4.453   8.468
 5798SOL     OW17845   3.618   0.119   9.292
 5798SOL    HW117846   3.541   0.145   9.243
 5798SOL    HW217847   3.591   0.120   9.384
 5799SOL     OW17848   2.176   3.785   8.073
 5799SOL    HW117849   2.149   3.875   8.093
 5799SOL    HW217850   2.182   3.743   8.158
 5800SOL     OW17851   3.477   4.089   7.810
 5800SOL    HW117852   3.515   4.026   7.872
 5800SOL    HW217853   3.448   4.162   7.865
 5801SOL     OW17854   3.378   4.000   7.572
 5801SOL    HW117855   3.320   3.929   7.599
 5801SOL    HW217856   3.417   4.031   7.654
 5802SOL     OW17857   2.189   0.011   8.356
 5802SOL    HW117858   2.260   0.073   8.369
 5802SOL    HW217859   2.204   4.442   8.420
 5803SOL     OW17860   2.200   4.242   8.475
 5803SOL    HW117861   2.157   4.159   8.457
 5803SOL    HW217862   2.275   4.244   8.415
 5804SOL     OW17863   3.001   4.087   9.138
 5804SOL    HW117864   2.946   4.146   9.190
 5804SOL    HW217865   3.084   4.134   9.128
 5805SOL     OW17866   3.022   3.919   8.919
 5805SOL    HW117867   3.011   3.979   8.992
 5805SOL    HW217868   3.065   3.971   8.851
 5806SOL     OW17869   1.898   4.287   8.567
 5806SOL    HW117870   1.978   4.277   8.515
 5806SOL    HW217871   1.928   4.283   8.658
 5807SOL     OW17872   2.067   4.250   9.154
 5807SOL    HW117873   2.111   4.192   9.092
 5807SOL    HW217874   2.021   4.313   9.099
 5808SOL     OW17875   2.684   4.272   7.810
 5808SOL    HW117876   2.697   4.200   7.749
 5808SOL    HW217877   2.595   4.302   7.793
 5809SOL     OW17878   3.491   4.305   8.625
 5809SOL    HW117879   3.491   4.250   8.703
 5809SOL    HW217880   3.581   4.302   8.593
 5810SOL     OW17881   2.547   4.190   8.686
 5810SOL    HW117882   2.498   4.113   8.657
 5810SOL    HW217883   2.550   4.246   8.608
 5811SOL     OW17884   2.334   4.227   7.642
 5811SOL    HW117885   2.349   4.312   7.684
 5811SOL    HW217886   2.242   4.230   7.616
 5812SOL     OW17887   3.594   3.883   7.955
 5812SOL    HW117888   3.661   3.866   7.890
 5812SOL    HW217889   3.574   3.797   7.992
 5813SOL     OW17890   3.141   0.130   8.117
 5813SOL    HW117891   3.201   0.065   8.156
 5813SOL    HW217892   3.185   0.157   8.036
 5814SOL     OW17893   3.706   3.891   8.414
 5814SOL    HW117894   3.735   3.803   8.390
 5814SOL    HW217895   3.619   3.898   8.374
 5815SOL     OW17896   2.119   4.038   8.161
 5815SOL    HW117897   2.030   4.067   8.137
 5815SOL    HW217898   2.117   4.031   8.256
 5816SOL     OW17899   2.764   0.086   7.641
 5816SOL    HW117900   2.842   0.122   7.600
 5816SOL    HW217901   2.793   0.058   7.728
 5817SOL     OW17902   2.932   0.285   8.205
 5817SOL    HW117903   2.871   0.296   8.132
 5817SOL    HW217904   2.999   0.225   8.171
 5818SOL     OW17905   2.890   3.964   8.404
 5818SOL    HW117906   2.887   3.913   8.323
 5818SOL    HW217907   2.882   3.899   8.474
 5819SOL     OW17908   3.594   4.111   8.832
 5819SOL    HW117909   3.664   4.176   8.830
 5819SOL    HW217910   3.623   4.042   8.772
 5820SOL     OW17911   2.540   3.913   8.946
 5820SOL    HW117912   2.624   3.892   8.906
 5820SOL    HW217913   2.562   3.947   9.033
 5821SOL     OW17914   1.937   4.033   7.482
 5821SOL    HW117915   1.874   4.047   7.411
 5821SOL    HW217916   1.964   4.121   7.508
 5822SOL     OW17917   1.918   3.874   7.743
 5822SOL    HW117918   1.900   3.943   7.679
 5822SOL    HW217919   2.005   3.842   7.719
 5823SOL     OW17920   2.600   4.269   9.137
 5823SOL    HW117921   2.572   4.314   9.217
 5823SOL    HW217922   2.606   4.177   9.162
 5824SOL     OW17923   3.079   4.041   7.898
 5824SOL    HW117924   3.139   3.967   7.895
 5824SOL    HW217925   3.105   4.090   7.976
 5825SOL     OW17926   3.614   4.094   9.108
 5825SOL    HW117927   3.603   4.107   9.013
 5825SOL    HW217928   3.541   4.037   9.132
 5826SOL     OW17929   2.981   0.215   7.545
 5826SOL    HW117930   2.981   0.260   7.460
 5826SOL    HW217931   3.072   0.190   7.558
 5827SOL     OW17932   3.675   3.901   8.684
 5827SOL    HW117933   3.678   3.806   8.696
 5827SOL    HW217934   3.686   3.914   8.590
 5828SOL     OW17935   2.295   4.162   7.981
 5828SOL    HW117936   2.327   4.092   7.924
 5828SOL    HW217937   2.240   4.118   8.045
 5829SOL     OW17938   2.193   4.268   8.748
 5829SOL    HW117939   2.247   4.207   8.798
 5829SOL    HW217940   2.208   4.244   8.657
 5830SOL     OW17941   3.289   3.953   8.566
 5830SOL    HW117942   3.304   3.867   8.606
 5830SOL    HW217943   3.241   4.002   8.632
 5831SOL     OW17944   2.870   3.740   8.579
 5831SOL    HW117945   2.816   3.675   8.534
 5831SOL    HW217946   2.958   3.701   8.581
 5832SOL     OW17947   3.224   3.772   7.622
 5832SOL    HW117948   3.260   3.699   7.572
 5832SOL    HW217949   3.134   3.747   7.641
 5833SOL     OW17950   3.153   4.174   8.123
 5833SOL    HW117951   3.145   4.268   8.135
 5833SOL    HW217952   3.154   4.138   8.212
 5834SOL     OW17953   3.445   3.914   8.334
 5834SOL    HW117954   3.392   3.943   8.407
 5834SOL    HW217955   3.446   3.989   8.274
 5835SOL     OW17956   2.075   4.275   9.425
 5835SOL    HW117957   2.062   4.364   9.458
 5835SOL    HW217958   2.075   4.285   9.329
 5836SOL     OW17959   2.085   4.002  10.299
 5836SOL    HW117960   2.112   3.969  10.385
 5836SOL    HW217961   1.995   3.971  10.289
 5837SOL     OW17962   1.860   4.101   9.953
 5837SOL    HW117963   1.783   4.132  10.001
 5837SOL    HW217964   1.829   4.024   9.905
 5838SOL     OW17965   3.567   4.337   9.555
 5838SOL    HW117966   3.582   4.333   9.461
 5838SOL    HW217967   3.575   4.247   9.585
 5839SOL     OW17968   2.583   0.281   9.996
 5839SOL    HW117969   2.577   0.227  10.075
 5839SOL    HW217970   2.511   0.251   9.941
 5840SOL     OW17971   2.322   4.103  10.779
 5840SOL    HW117972   2.393   4.039  10.785
 5840SOL    HW217973   2.245   4.056  10.812
 5841SOL     OW17974   3.470   4.160  10.055
 5841SOL    HW117975   3.429   4.197   9.977
 5841SOL    HW217976   3.440   4.216  10.127
 5842SOL     OW17977   3.457   3.845  10.774
 5842SOL    HW117978   3.486   3.924  10.729
 5842SOL    HW217979   3.461   3.868  10.867
 5843SOL     OW17980   1.898   4.402   9.904
 5843SOL    HW117981   1.904   4.307   9.906
 5843SOL    HW217982   1.987   4.432   9.924
 5844SOL     OW17983   2.016   4.464  10.907
 5844SOL    HW117984   2.112   4.463  10.900
 5844SOL    HW217985   1.993   0.056  10.896
 5845SOL     OW17986   2.686   3.731   9.826
 5845SOL    HW117987   2.726   3.814   9.800
 5845SOL    HW217988   2.592   3.750   9.829
 5846SOL     OW17989   2.218   3.970   0.032
 5846SOL    HW117990   2.259   4.054   0.055
 5846SOL    HW217991   2.124   3.988   0.033
 5847SOL     OW17992   3.140   4.090  10.248
 5847SOL    HW117993   3.051   4.056  10.255
 5847SOL    HW217994   3.192   4.034  10.305
 5848SOL     OW17995   2.695   4.288  10.757
 5848SOL    HW117996   2.644   4.304  10.837
 5848SOL    HW217997   2.631   4.257  10.693
 5849SOL     OW17998   2.866   4.164  10.542
 5849SOL    HW117999   2.800   4.190  10.607
 5849SOL    HW218000   2.818   4.113  10.477
 5850SOL     OW18001   2.913   4.419   9.712
 5850SOL    HW118002   2.904   4.471   9.792
 5850SOL    HW218003   2.831   4.370   9.706
 5851SOL     OW18004   2.764   4.067   9.498
 5851SOL    HW118005   2.803   4.131   9.440
 5851SOL    HW218006   2.773   3.983   9.452
 5852SOL     OW18007   2.413   3.895  10.212
 5852SOL    HW118008   2.415   3.923  10.303
 5852SOL    HW218009   2.410   3.976  10.161
 5853SOL     OW18010   3.357   4.472  10.051
 5853SOL    HW118011   3.349   4.413  10.125
 5853SOL    HW218012   3.400   0.050  10.086
 5854SOL     OW18013   2.068   3.984  10.810
 5854SOL    HW118014   1.994   4.042  10.829
 5854SOL    HW218015   2.045   3.902  10.854
 5855SOL     OW18016   3.260   3.827   9.754
 5855SOL    HW118017   3.255   3.803   9.662
 5855SOL    HW218018   3.354   3.835   9.772
 5856SOL     OW18019   2.219   4.396   9.725
 5856SOL    HW118020   2.246   4.311   9.761
 5856SOL    HW218021   2.179   4.441   9.799
 5857SOL     OW18022   2.509   3.838   9.412
 5857SOL    HW118023   2.565   3.763   9.434
 5857SOL    HW218024   2.455   3.807   9.340
 5858SOL     OW18025   2.615   4.015  11.045
 5858SOL    HW118026   2.690   3.963  11.073
 5858SOL    HW218027   2.551   4.006   0.015
 5859SOL     OW18028   3.205   4.321  10.745
 5859SOL    HW118029   3.217   4.311  10.840
 5859SOL    HW218030   3.259   4.397  10.723
 5860SOL     OW18031   2.793   4.224  10.198
 5860SOL    HW118032   2.768   4.208  10.107
 5860SOL    HW218033   2.831   4.141  10.227
 5861SOL     OW18034   2.418   3.788   9.803
 5861SOL    HW118035   2.338   3.787   9.856
 5861SOL    HW218036   2.409   3.865   9.747
 5862SOL     OW18037   2.150   3.773   9.497
 5862SOL    HW118038   2.205   3.836   9.451
 5862SOL    HW218039   2.212   3.712   9.538
 5863SOL     OW18040   2.807   3.974   9.761
 5863SOL    HW118041   2.784   4.007   9.675
 5863SOL    HW218042   2.901   3.989   9.769
 5864SOL     OW18043   2.938   4.334  10.877
 5864SOL    HW118044   2.854   4.329  10.831
 5864SOL    HW218045   3.001   4.358  10.809
 5865SOL     OW18046   2.892   4.254   9.341
 5865SOL    HW118047   2.876   4.342   9.306
 5865SOL    HW218048   2.957   4.267   9.410
 5866SOL     OW18049   1.941   4.276  10.717
 5866SOL    HW118050   2.031   4.266  10.686
 5866SOL    HW218051   1.947   4.339  10.789
 5867SOL     OW18052   2.417   3.952  10.481
 5867SOL    HW118053   2.460   3.888  10.538
 5867SOL    HW218054   2.325   3.949  10.508
 5868SOL     OW18055   2.728   4.183   9.940
 5868SOL    HW118056   2.704   4.245   9.871
 5868SOL    HW218057   2.751   4.103   9.893
 5869SOL     OW18058   2.879   3.778  10.053
 5869SOL    HW118059   2.820   3.772   9.978
 5869SOL    HW218060   2.856   3.703  10.109
 5870SOL     OW18061   3.341   4.299  10.260
 5870SOL    HW118062   3.268   4.239  10.277
 5870SOL    HW218063   3.386   4.306  10.344
 5871SOL     OW18064   3.269   4.298   9.385
 5871SOL    HW118065   3.205   4.265   9.448
 5871SOL    HW218066   3.352   4.259   9.412
 5872SOL     OW18067   2.396   3.989   9.621
 5872SOL    HW118068   2.441   3.942   9.551
 5872SOL    HW218069   2.373   4.074   9.582
 5873SOL     OW18070   2.782   3.820  10.693
 5873SOL    HW118071   2.806   3.800  10.602
 5873SOL    HW218072   2.862   3.858  10.730
 5874SOL     OW18073   2.307   0.011  10.597
 5874SOL    HW118074   2.352   0.010  10.682
 5874SOL    HW218075   2.260   4.427  10.594
 5875SOL     OW18076   3.127   4.098  10.598
 5875SOL    HW118077   3.161   4.176  10.642
 5875SOL    HW218078   3.039   4.124  10.569
 5876SOL     OW18079   2.414   4.235  10.173
 5876SOL    HW118080   2.430   4.264  10.083
 5876SOL    HW218081   2.480   4.281  10.225
 5877SOL     OW18082   3.429   4.323   9.812
 5877SOL    HW118083   3.409   4.391   9.876
 5877SOL    HW218084   3.481   4.367   9.745
 5878SOL     OW18085   2.293   4.464  10.896
 5878SOL    HW118086   2.356   0.036  10.893
 5878SOL    HW218087   2.345   4.387  10.917
 5879SOL     OW18088   3.066   4.249   9.567
 5879SOL    HW118089   3.076   4.170   9.620
 5879SOL    HW218090   3.019   4.311   9.623
 5880SOL     OW18091   2.156   3.921  10.554
 5880SOL    HW118092   2.123   3.951  10.639
 5880SOL    HW218093   2.139   3.826  10.555
 5881SOL     OW18094   2.601   4.360  10.333
 5881SOL    HW118095   2.674   4.318  10.287
 5881SOL    HW218096   2.621   4.453  10.330
 5882SOL     OW18097   2.176   3.785   9.934
 5882SOL    HW118098   2.149   3.875   9.954
 5882SOL    HW218099   2.182   3.743  10.020
 5883SOL     OW18100   3.478   4.089   9.672
 5883SOL    HW118101   3.515   4.026   9.734
 5883SOL    HW218102   3.448   4.162   9.727
 5884SOL     OW18103   3.378   4.000   9.434
 5884SOL    HW118104   3.320   3.929   9.461
 5884SOL    HW218105   3.417   4.031   9.516
 5885SOL     OW18106   2.190   0.011  10.217
 5885SOL    HW118107   2.261   0.073  10.232
 5885SOL    HW218108   2.204   4.442  10.283
 5886SOL     OW18109   2.199   4.241  10.335
 5886SOL    HW118110   2.155   4.158  10.317
 5886SOL    HW218111   2.274   4.243  10.276
 5887SOL     OW18112   3.020   3.922  10.785
 5887SOL    HW118113   3.025   3.982  10.860
 5887SOL    HW218114   3.064   3.969  10.714
 5888SOL     OW18115   1.899   4.292  10.435
 5888SOL    HW118116   1.979   4.280  10.384
 5888SOL    HW218117   1.927   4.284  10.526
 5889SOL     OW18118   3.202   0.212  10.974
 5889SOL    HW118119   3.256   0.253  11.041
 5889SOL    HW218120   3.264   0.178  10.910
 5890SOL     OW18121   2.684   4.272   9.672
 5890SOL    HW118122   2.697   4.200   9.610
 5890SOL    HW218123   2.595   4.303   9.655
 5891SOL     OW18124   3.489   4.303  10.491
 5891SOL    HW118125   3.491   4.244  10.566
 5891SOL    HW218126   3.579   4.305  10.459
 5892SOL     OW18127   2.560   4.184  10.546
 5892SOL    HW118128   2.505   4.110  10.521
 5892SOL    HW218129   2.556   4.244  10.472
 5893SOL     OW18130   2.334   4.227   9.504
 5893SOL    HW118131   2.349   4.311   9.547
 5893SOL    HW218132   2.241   4.230   9.478
 5894SOL     OW18133   3.594   3.883   9.817
 5894SOL    HW118134   3.661   3.866   9.751
 5894SOL    HW218135   3.574   3.797   9.854
 5895SOL     OW18136   3.141   0.129   9.978
 5895SOL    HW118137   3.201   0.065  10.017
 5895SOL    HW218138   3.185   0.157   9.898
 5896SOL     OW18139   3.706   3.891  10.276
 5896SOL    HW118140   3.736   3.804  10.253
 5896SOL    HW218141   3.619   3.899  10.236
 5897SOL     OW18142   2.119   4.038  10.022
 5897SOL    HW118143   2.031   4.067   9.999
 5897SOL    HW218144   2.117   4.031  10.118
 5898SOL     OW18145   2.764   0.087   9.503
 5898SOL    HW118146   2.842   0.122   9.462
 5898SOL    HW218147   2.793   0.059   9.590
 5899SOL     OW18148   2.932   0.284  10.066
 5899SOL    HW118149   2.871   0.296   9.994
 5899SOL    HW218150   2.999   0.224  10.032
 5900SOL     OW18151   2.890   3.965  10.267
 5900SOL    HW118152   2.887   3.915  10.186
 5900SOL    HW218153   2.882   3.899  10.336
 5901SOL     OW18154   3.585   4.110  10.700
 5901SOL    HW118155   3.657   4.173  10.704
 5901SOL    HW218156   3.615   4.043  10.639
 5902SOL     OW18157   2.541   3.912  10.798
 5902SOL    HW118158   2.625   3.890  10.757
 5902SOL    HW218159   2.565   3.956  10.880
 5903SOL     OW18160   1.937   4.034   9.344
 5903SOL    HW118161   1.875   4.048   9.273
 5903SOL    HW218162   1.964   4.121   9.370
 5904SOL     OW18163   1.918   3.874   9.605
 5904SOL    HW118164   1.900   3.943   9.541
 5904SOL    HW218165   2.005   3.842   9.581
 5905SOL     OW18166   2.588   4.298  11.016
 5905SOL    HW118167   2.657   4.331  11.074
 5905SOL    HW218168   2.596   4.202  11.021
 5906SOL     OW18169   3.079   4.041   9.760
 5906SOL    HW118170   3.140   3.967   9.757
 5906SOL    HW218171   3.104   4.089   9.838
 5907SOL     OW18172   3.608   4.059  10.978
 5907SOL    HW118173   3.585   4.087  10.890
 5907SOL    HW218174   3.526   4.064  11.028
 5908SOL     OW18175   2.981   0.215   9.407
 5908SOL    HW118176   2.981   0.260   9.322
 5908SOL    HW218177   3.072   0.190   9.420
 5909SOL     OW18178   3.665   3.902  10.547
 5909SOL    HW118179   3.673   3.808  10.557
 5909SOL    HW218180   3.680   3.917  10.453
 5910SOL     OW18181   2.295   4.162   9.842
 5910SOL    HW118182   2.327   4.091   9.786
 5910SOL    HW218183   2.240   4.119   9.907
 5911SOL     OW18184   2.187   4.265  10.608
 5911SOL    HW118185   2.244   4.208  10.659
 5911SOL    HW218186   2.205   4.242  10.517
 5912SOL     OW18187   3.289   3.952  10.428
 5912SOL    HW118188   3.309   3.868  10.469
 5912SOL    HW218189   3.242   4.001  10.495
 5913SOL     OW18190   2.870   3.740  10.440
 5913SOL    HW118191   2.817   3.676  10.391
 5913SOL    HW218192   2.958   3.701  10.442
 5914SOL     OW18193   3.224   3.772   9.484
 5914SOL    HW118194   3.260   3.699   9.434
 5914SOL    HW218195   3.134   3.747   9.503
 5915SOL     OW18196   3.153   4.174   9.985
 5915SOL    HW118197   3.145   4.268   9.997
 5915SOL    HW218198   3.154   4.139  10.074
 5916SOL     OW18199   3.446   3.914  10.195
 5916SOL    HW118200   3.392   3.943  10.269
 5916SOL    HW218201   3.446   3.989  10.135
 5917SOL     OW18202   3.911   0.598   0.094
 5917SOL    HW118203   3.833   0.617   0.147
 5917SOL    HW218204   3.898   0.650   0.014
 5918SOL     OW18205   3.922   0.318   0.992
 5918SOL    HW118206   3.959   0.283   1.073
 5918SOL    HW218207   3.845   0.263   0.976
 5919SOL     OW18208   3.723   0.398   0.632
 5919SOL    HW118209   3.637   0.412   0.672
 5919SOL    HW218210   3.708   0.327   0.569
 5920SOL     OW18211   4.268   1.217   1.143
 5920SOL    HW118212   4.208   1.289   1.123
 5920SOL    HW218213   4.338   1.259   1.194
 5921SOL     OW18214   0.012   0.774   1.854
 5921SOL    HW118215   0.059   0.797   1.934
 5921SOL    HW218216   0.045   0.837   1.789
 5922SOL     OW18217   4.400   0.983   0.613
 5922SOL    HW118218   4.480   0.994   0.665
 5922SOL    HW218219   4.336   1.041   0.655
 5923SOL     OW18220   4.415   1.147   1.807
 5923SOL    HW118221   4.452   1.230   1.776
 5923SOL    HW218222   4.321   1.154   1.787
 5924SOL     OW18223   4.069   1.423   1.068
 5924SOL    HW118224   3.995   1.378   1.028
 5924SOL    HW218225   4.109   1.473   0.997
 5925SOL     OW18226   4.162   0.390   1.467
 5925SOL    HW118227   4.239   0.334   1.473
 5925SOL    HW218228   4.089   0.332   1.487
 5926SOL     OW18229   3.938   1.717   0.471
 5926SOL    HW118230   3.958   1.793   0.526
 5926SOL    HW218231   4.012   1.712   0.410
 5927SOL     OW18232   3.949   1.448   0.532
 5927SOL    HW118233   3.931   1.541   0.533
 5927SOL    HW218234   3.895   1.411   0.601
 5928SOL     OW18235   3.985   1.089   0.883
 5928SOL    HW118236   3.988   1.002   0.924
 5928SOL    HW218237   3.937   1.142   0.946
 5929SOL     OW18238   4.353   1.794   1.458
 5929SOL    HW118239   4.262   1.770   1.475
 5929SOL    HW218240   4.353   1.889   1.457
 5930SOL     OW18241   4.289   1.020   0.143
 5930SOL    HW118242   4.297   1.100   0.090
 5930SOL    HW218243   4.373   1.014   0.189
 5931SOL     OW18244   3.841   0.656   0.563
 5931SOL    HW118245   3.806   0.570   0.587
 5931SOL    HW218246   3.832   0.708   0.643
 5932SOL     OW18247   3.782   1.589   0.114
 5932SOL    HW118248   3.755   1.502   0.145
 5932SOL    HW218249   3.754   1.649   0.183
 5933SOL     OW18250   3.840   0.748   1.580
 5933SOL    HW118251   3.928   0.786   1.583
 5933SOL    HW218252   3.781   0.823   1.572
 5934SOL     OW18253   4.303   1.390   0.737
 5934SOL    HW118254   4.269   1.300   0.736
 5934SOL    HW218255   4.308   1.415   0.645
 5935SOL     OW18256   0.011   4.499   0.481
 5935SOL    HW118257   0.045   0.066   0.421
 5935SOL    HW218258   4.428   0.035   0.512
 5936SOL     OW18259   3.909   0.955   1.287
 5936SOL    HW118260   3.997   0.921   1.271
 5936SOL    HW218261   3.856   0.915   1.218
 5937SOL     OW18262   4.042   0.246   1.782
 5937SOL    HW118263   4.102   0.315   1.812
 5937SOL    HW218264   3.966   0.254   1.839
 5938SOL     OW18265   4.302   0.697   0.260
 5938SOL    HW118266   4.339   0.778   0.227
 5938SOL    HW218267   4.249   0.723   0.335
 5939SOL     OW18268   3.812   0.826   0.776
 5939SOL    HW118269   3.892   0.816   0.828
 5939SOL    HW218270   3.768   0.902   0.815
 5940SOL     OW18271   3.852   1.874   1.585
 5940SOL    HW118272   3.857   1.852   1.678
 5940SOL    HW218273   3.769   1.837   1.555
 5941SOL     OW18274   4.227   0.209   0.900
 5941SOL    HW118275   4.268   0.221   0.985
 5941SOL    HW218276   4.258   0.283   0.847
 5942SOL     OW18277   4.082   1.819   0.875
 5942SOL    HW118278   4.138   1.742   0.882
 5942SOL    HW218279   4.143   1.893   0.883
 5943SOL     OW18280   4.038   0.971   0.282
 5943SOL    HW118281   4.119   0.993   0.236
 5943SOL    HW218282   4.021   0.880   0.257
 5944SOL     OW18283   4.175   1.252   1.733
 5944SOL    HW118284   4.150   1.268   1.642
 5944SOL    HW218285   4.093   1.260   1.782
 5945SOL     OW18286   3.909   0.270   1.524
 5945SOL    HW118287   3.848   0.343   1.517
 5945SOL    HW218288   3.938   0.271   1.615
 5946SOL     OW18289   4.187   1.724   0.326
 5946SOL    HW118290   4.224   1.790   0.384
 5946SOL    HW218291   4.260   1.695   0.272
 5947SOL     OW18292   3.979   1.793   1.224
 5947SOL    HW118293   4.024   1.716   1.259
 5947SOL    HW218294   3.965   1.773   1.131
 5948SOL     OW18295   4.111   0.689   0.472
 5948SOL    HW118296   4.134   0.597   0.489
 5948SOL    HW218297   4.019   0.695   0.497
 5949SOL     OW18298   4.356   0.132   0.110
 5949SOL    HW118299   4.437   0.112   0.157
 5949SOL    HW218300   4.353   0.067   0.040
 5950SOL     OW18301   0.028   1.416   0.898
 5950SOL    HW118302   0.063   1.489   0.846
 5950SOL    HW218303   4.452   1.385   0.849
 5951SOL     OW18304   4.280   0.120   0.543
 5951SOL    HW118305   4.198   0.088   0.582
 5951SOL    HW218306   4.252   0.165   0.462
 5952SOL     OW18307   4.002   0.045   0.208
 5952SOL    HW118308   4.069   0.104   0.174
 5952SOL    HW218309   4.045   4.498   0.280
 5953SOL     OW18310   0.324   0.672   1.466
 5953SOL    HW118311   0.327   0.602   1.401
 5953SOL    HW218312   0.406   0.662   1.516
 5954SOL     OW18313   4.195   1.141   0.718
 5954SOL    HW118314   4.134   1.120   0.789
 5954SOL    HW218315   4.142   1.137   0.639
 5955SOL     OW18316   3.816   0.544   1.398
 5955SOL    HW118317   3.905   0.552   1.365
 5955SOL    HW218318   3.807   0.616   1.461
 5956SOL     OW18319   4.295   0.246   1.161
 5956SOL    HW118320   4.300   0.159   1.200
 5956SOL    HW218321   4.214   0.283   1.195
 5957SOL     OW18322   4.243   1.383   0.199
 5957SOL    HW118323   4.157   1.374   0.240
 5957SOL    HW218324   4.227   1.361   0.107
 5958SOL     OW18325   4.225   0.264   0.313
 5958SOL    HW118326   4.276   0.215   0.248
 5958SOL    HW218327   4.200   0.345   0.267
 5959SOL     OW18328   4.149   0.821   1.258
 5959SOL    HW118329   4.219   0.825   1.324
 5959SOL    HW218330   4.114   0.732   1.265
 5960SOL     OW18331   3.799   1.574   1.359
 5960SOL    HW118332   3.766   1.641   1.300
 5960SOL    HW218333   3.894   1.577   1.348
 5961SOL     OW18334   4.036   1.138   0.498
 5961SOL    HW118335   4.038   1.213   0.437
 5961SOL    HW218336   4.041   1.061   0.441
 5962SOL     OW18337   4.318   0.526   0.860
 5962SOL    HW118338   4.312   0.600   0.800
 5962SOL    HW218339   4.381   0.553   0.926
 5963SOL     OW18340   4.072   1.541   1.309
 5963SOL    HW118341   4.071   1.494   1.225
 5963SOL    HW218342   4.164   1.542   1.335
 5964SOL     OW18343   4.154   0.729   1.617
 5964SOL    HW118344   4.207   0.774   1.551
 5964SOL    HW218345   4.211   0.659   1.649
 5965SOL     OW18346   4.249   0.073   1.719
 5965SOL    HW118347   4.220   4.482   1.710
 5965SOL    HW218348   4.168   0.122   1.732
 5966SOL     OW18349   4.275   0.916   1.028
 5966SOL    HW118350   4.293   1.008   1.044
 5966SOL    HW218351   4.239   0.884   1.111
 5967SOL     OW18352   4.009   0.236   1.240
 5967SOL    HW118353   3.961   0.247   1.322
 5967SOL    HW218354   4.059   0.155   1.252
 5968SOL     OW18355   3.772   1.312   1.273
 5968SOL    HW118356   3.801   1.255   1.344
 5968SOL    HW218357   3.775   1.400   1.310
 5969SOL     OW18358   4.021   0.046   0.642
 5969SOL    HW118359   3.999   0.139   0.646
 5969SOL    HW218360   4.028   0.019   0.734
 5970SOL     OW18361   4.073   0.911   1.807
 5970SOL    HW118362   4.150   0.926   1.860
 5970SOL    HW218363   4.099   0.844   1.744
 5971SOL     OW18364   4.030   0.810   0.944
 5971SOL    HW118365   4.120   0.843   0.951
 5971SOL    HW218366   4.037   0.718   0.972
 5972SOL     OW18367   4.083   0.537   1.009
 5972SOL    HW118368   4.032   0.458   0.989
 5972SOL    HW218369   4.162   0.529   0.957
 5973SOL     OW18370   3.735   1.322   0.193
 5973SOL    HW118371   3.648   1.336   0.155
 5973SOL    HW218372   3.733   1.233   0.226
 5974SOL     OW18373   3.820   1.778   0.947
 5974SOL    HW118374   3.788   1.703   0.898
 5974SOL    HW218375   3.908   1.793   0.913
 5975SOL     OW18376   4.235   1.590   0.907
 5975SOL    HW118377   4.321   1.609   0.945
 5975SOL    HW218378   4.252   1.523   0.841
 5976SOL     OW18379   3.754   0.545   1.118
 5976SOL    HW118380   3.820   0.504   1.061
 5976SOL    HW218381   3.796   0.549   1.204
 5977SOL     OW18382   3.910   0.527   1.727
 5977SOL    HW118383   3.996   0.524   1.685
 5977SOL    HW218384   3.865   0.600   1.685
 5978SOL     OW18385   0.021   0.529   0.261
 5978SOL    HW118386   0.041   0.528   0.354
 5978SOL    HW218387   4.447   0.589   0.253
 5979SOL     OW18388   3.962   1.551   1.719
 5979SOL    HW118389   3.938   1.615   1.786
 5979SOL    HW218390   3.963   1.468   1.766
 5980SOL     OW18391   4.160   0.483   0.159
 5980SOL    HW118392   4.217   0.553   0.190
 5980SOL    HW218393   4.076   0.526   0.143
 5981SOL     OW18394   3.860   1.143   1.476
 5981SOL    HW118395   3.864   1.099   1.561
 5981SOL    HW218396   3.877   1.073   1.413
 5982SOL     OW18397   3.817   1.269   1.010
 5982SOL    HW118398   3.796   1.282   1.102
 5982SOL    HW218399   3.748   1.212   0.978
 5983SOL     OW18400   4.391   1.655   1.691
 5983SOL    HW118401   4.359   1.729   1.742
 5983SOL    HW218402   4.386   1.684   1.600
 5984SOL     OW18403   3.868   1.796   1.843
 5984SOL    HW118404   3.818   1.729   1.890
 5984SOL    HW218405   3.914   1.844   1.912
 5985SOL     OW18406   3.978   0.314   0.707
 5985SOL    HW118407   3.892   0.352   0.687
 5985SOL    HW218408   3.980   0.312   0.803
 5986SOL     OW18409   4.080   1.313   1.489
 5986SOL    HW118410   4.060   1.387   1.432
 5986SOL    HW218411   4.008   1.252   1.475
 5987SOL     OW18412   4.323   1.493   0.482
 5987SOL    HW118413   4.337   1.439   0.404
 5987SOL    HW218414   4.250   1.550   0.458
 5988SOL     OW18415   3.993   1.338   0.294
 5988SOL    HW118416   3.908   1.337   0.250
 5988SOL    HW218417   3.977   1.385   0.376
 5989SOL     OW18418   3.841   1.046   1.734
 5989SOL    HW118419   3.763   1.014   1.780
 5989SOL    HW218420   3.913   0.995   1.770
 5990SOL     OW18421   4.359   0.198   1.494
 5990SOL    HW118422   4.451   0.223   1.496
 5990SOL    HW218423   4.343   0.156   1.579
 5991SOL     OW18424   3.796   0.332   0.065
 5991SOL    HW118425   3.728   0.323  11.098
 5991SOL    HW218426   3.811   0.427   0.070
 5992SOL     OW18427   3.782   0.192   0.306
 5992SOL    HW118428   3.777   0.249   0.228
 5992SOL    HW218429   3.853   0.131   0.286
 5993SOL     OW18430   4.346   0.844   1.447
 5993SOL    HW118431   4.374   0.932   1.420
 5993SOL    HW218432   4.425   0.803   1.482
 5994SOL     OW18433   4.370   0.574   1.728
 5994SOL    HW118434   4.406   0.643   1.785
 5994SOL    HW218435   4.447   0.531   1.691
 5995SOL     OW18436   4.099   1.744   1.563
 5995SOL    HW118437   4.018   1.792   1.547
 5995SOL    HW218438   4.072   1.663   1.606
 5996SOL     OW18439   4.306   0.725   0.673
 5996SOL    HW118440   4.347   0.810   0.656
 5996SOL    HW218441   4.237   0.718   0.607
 5997SOL     OW18442   3.934   1.301   1.846
 5997SOL    HW118443   3.887   1.226   1.808
 5997SOL    HW218444   3.893   1.313   1.932
 5998SOL     OW18445   3.821   1.226   0.668
 5998SOL    HW118446   3.840   1.181   0.751
 5998SOL    HW218447   3.887   1.194   0.607
 5999SOL     OW18448   4.437   1.389   1.694
 5999SOL    HW118449   4.350   1.363   1.664
 5999SOL    HW218450   4.436   1.484   1.693
 6000SOL     OW18451   4.163   0.431   0.534
 6000SOL    HW118452   4.181   0.364   0.469
 6000SOL    HW218453   4.105   0.389   0.597
 6001SOL     OW18454   4.059   0.565   1.285
 6001SOL    HW118455   4.109   0.505   1.340
 6001SOL    HW218456   4.080   0.540   1.196
 6002SOL     OW18457   0.031   1.620   0.692
 6002SOL    HW118458   0.054   1.694   0.635
 6002SOL    HW218459   4.468   1.570   0.640
 6003SOL     OW18460   3.764   1.063   0.301
 6003SOL    HW118461   3.859   1.059   0.298
 6003SOL    HW218462   3.737   0.974   0.324
 6004SOL     OW18463   3.940   0.623   1.992
 6004SOL    HW118464   3.853   0.615   2.032
 6004SOL    HW218465   3.926   0.598   1.901
 6005SOL     OW18466   3.921   0.317   2.854
 6005SOL    HW118467   3.959   0.283   2.935
 6005SOL    HW218468   3.845   0.262   2.838
 6006SOL     OW18469   3.725   0.398   2.494
 6006SOL    HW118470   3.639   0.413   2.534
 6006SOL    HW218471   3.710   0.328   2.431
 6007SOL     OW18472   4.269   1.217   3.004
 6007SOL    HW118473   4.208   1.289   2.984
 6007SOL    HW218474   4.338   1.258   3.055
 6008SOL     OW18475   0.012   0.774   3.716
 6008SOL    HW118476   0.059   0.798   3.795
 6008SOL    HW218477   0.045   0.835   3.649
 6009SOL     OW18478   4.407   0.982   2.474
 6009SOL    HW118479   4.478   0.971   2.537
 6009SOL    HW218480   4.346   1.042   2.517
 6010SOL     OW18481   4.414   1.147   3.669
 6010SOL    HW118482   4.452   1.230   3.638
 6010SOL    HW218483   4.321   1.154   3.649
 6011SOL     OW18484   4.069   1.423   2.931
 6011SOL    HW118485   3.995   1.378   2.890
 6011SOL    HW218486   4.108   1.473   2.859
 6012SOL     OW18487   4.162   0.391   3.330
 6012SOL    HW118488   4.239   0.334   3.336
 6012SOL    HW218489   4.088   0.333   3.349
 6013SOL     OW18490   3.940   1.718   2.331
 6013SOL    HW118491   3.959   1.792   2.388
 6013SOL    HW218492   4.018   1.709   2.276
 6014SOL     OW18493   3.957   1.448   2.400
 6014SOL    HW118494   3.934   1.540   2.403
 6014SOL    HW218495   3.902   1.406   2.466
 6015SOL     OW18496   3.986   1.089   2.743
 6015SOL    HW118497   3.990   1.002   2.783
 6015SOL    HW218498   3.938   1.142   2.806
 6016SOL     OW18499   4.353   1.794   3.319
 6016SOL    HW118500   4.262   1.770   3.337
 6016SOL    HW218501   4.353   1.889   3.319
 6017SOL     OW18502   4.306   0.985   2.011
 6017SOL    HW118503   4.340   1.030   1.934
 6017SOL    HW218504   4.372   1.001   2.079
 6018SOL     OW18505   3.845   0.657   2.425
 6018SOL    HW118506   3.811   0.571   2.448
 6018SOL    HW218507   3.836   0.708   2.505
 6019SOL     OW18508   3.768   1.587   1.980
 6019SOL    HW118509   3.747   1.496   2.000
 6019SOL    HW218510   3.740   1.636   2.058
 6020SOL     OW18511   3.840   0.748   3.442
 6020SOL    HW118512   3.927   0.786   3.445
 6020SOL    HW218513   3.781   0.823   3.434
 6021SOL     OW18514   4.302   1.389   2.598
 6021SOL    HW118515   4.268   1.300   2.595
 6021SOL    HW218516   4.307   1.415   2.506
 6022SOL     OW18517   0.012   0.003   2.348
 6022SOL    HW118518   0.046   0.072   2.291
 6022SOL    HW218519   4.428   0.037   2.378
 6023SOL     OW18520   3.910   0.955   3.149
 6023SOL    HW118521   3.998   0.921   3.133
 6023SOL    HW218522   3.856   0.916   3.080
 6024SOL     OW18523   4.042   0.246   3.644
 6024SOL    HW118524   4.101   0.315   3.674
 6024SOL    HW218525   3.966   0.254   3.701
 6025SOL     OW18526   4.308   0.719   2.129
 6025SOL    HW118527   4.303   0.804   2.086
 6025SOL    HW218528   4.247   0.725   2.202
 6026SOL     OW18529   3.812   0.825   2.639
 6026SOL    HW118530   3.892   0.815   2.691
 6026SOL    HW218531   3.769   0.902   2.676
 6027SOL     OW18532   3.852   1.874   3.447
 6027SOL    HW118533   3.857   1.852   3.540
 6027SOL    HW218534   3.769   1.837   3.417
 6028SOL     OW18535   4.226   0.205   2.763
 6028SOL    HW118536   4.268   0.221   2.848
 6028SOL    HW218537   4.259   0.275   2.707
 6029SOL     OW18538   4.082   1.819   2.736
 6029SOL    HW118539   4.138   1.741   2.744
 6029SOL    HW218540   4.142   1.892   2.745
 6030SOL     OW18541   4.034   0.964   2.117
 6030SOL    HW118542   4.120   0.982   2.079
 6030SOL    HW218543   4.009   0.880   2.079
 6031SOL     OW18544   4.175   1.253   3.595
 6031SOL    HW118545   4.151   1.268   3.504
 6031SOL    HW218546   4.093   1.261   3.644
 6032SOL     OW18547   3.909   0.270   3.385
 6032SOL    HW118548   3.848   0.343   3.378
 6032SOL    HW218549   3.937   0.271   3.477
 6033SOL     OW18550   4.189   1.731   2.188
 6033SOL    HW118551   4.226   1.794   2.250
 6033SOL    HW218552   4.258   1.717   2.124
 6034SOL     OW18553   3.979   1.793   3.086
 6034SOL    HW118554   4.024   1.716   3.121
 6034SOL    HW218555   3.964   1.772   2.993
 6035SOL     OW18556   4.117   0.687   2.333
 6035SOL    HW118557   4.137   0.596   2.352
 6035SOL    HW218558   4.024   0.696   2.351
 6036SOL     OW18559   4.330   0.116   1.979
 6036SOL    HW118560   4.414   0.071   1.989
 6036SOL    HW218561   4.308   0.104   1.887
 6037SOL     OW18562   0.026   1.417   2.760
 6037SOL    HW118563   0.063   1.487   2.707
 6037SOL    HW218564   4.450   1.387   2.710
 6038SOL     OW18565   4.278   0.119   2.410
 6038SOL    HW118566   4.195   0.087   2.444
 6038SOL    HW218567   4.254   0.166   2.329
 6039SOL     OW18568   4.018   0.052   2.075
 6039SOL    HW118569   4.093   0.110   2.061
 6039SOL    HW218570   4.044   4.495   2.147
 6040SOL     OW18571   0.324   0.671   3.330
 6040SOL    HW118572   0.326   0.602   3.263
 6040SOL    HW218573   0.406   0.660   3.378
 6041SOL     OW18574   4.195   1.140   2.575
 6041SOL    HW118575   4.132   1.120   2.645
 6041SOL    HW218576   4.145   1.131   2.494
 6042SOL     OW18577   3.816   0.544   3.261
 6042SOL    HW118578   3.905   0.552   3.227
 6042SOL    HW218579   3.807   0.616   3.323
 6043SOL     OW18580   4.296   0.248   3.023
 6043SOL    HW118581   4.301   0.160   3.062
 6043SOL    HW218582   4.214   0.284   3.056
 6044SOL     OW18583   4.232   1.380   2.036
 6044SOL    HW118584   4.147   1.366   2.079
 6044SOL    HW218585   4.211   1.385   1.943
 6045SOL     OW18586   4.230   0.267   2.182
 6045SOL    HW118587   4.279   0.214   2.119
 6045SOL    HW218588   4.210   0.348   2.135
 6046SOL     OW18589   4.150   0.821   3.120
 6046SOL    HW118590   4.219   0.825   3.186
 6046SOL    HW218591   4.114   0.733   3.127
 6047SOL     OW18592   3.799   1.574   3.221
 6047SOL    HW118593   3.765   1.641   3.162
 6047SOL    HW218594   3.894   1.577   3.210
 6048SOL     OW18595   4.042   1.125   2.348
 6048SOL    HW118596   4.042   1.198   2.286
 6048SOL    HW218597   4.045   1.047   2.292
 6049SOL     OW18598   4.315   0.530   2.725
 6049SOL    HW118599   4.311   0.602   2.662
 6049SOL    HW218600   4.381   0.557   2.789
 6050SOL     OW18601   4.072   1.541   3.171
 6050SOL    HW118602   4.071   1.494   3.088
 6050SOL    HW218603   4.163   1.542   3.197
 6051SOL     OW18604   4.154   0.729   3.478
 6051SOL    HW118605   4.207   0.774   3.413
 6051SOL    HW218606   4.210   0.659   3.511
 6052SOL     OW18607   4.248   0.073   3.581
 6052SOL    HW118608   4.219   4.482   3.572
 6052SOL    HW218609   4.168   0.123   3.595
 6053SOL     OW18610   4.276   0.916   2.890
 6053SOL    HW118611   4.293   1.009   2.907
 6053SOL    HW218612   4.240   0.884   2.973
 6054SOL     OW18613   4.010   0.236   3.102
 6054SOL    HW118614   3.961   0.247   3.184
 6054SOL    HW218615   4.059   0.155   3.114
 6055SOL     OW18616   3.773   1.312   3.134
 6055SOL    HW118617   3.801   1.255   3.206
 6055SOL    HW218618   3.775   1.400   3.172
 6056SOL     OW18619   4.014   0.043   2.505
 6056SOL    HW118620   3.995   0.137   2.509
 6056SOL    HW218621   4.021   0.016   2.596
 6057SOL     OW18622   4.073   0.911   3.669
 6057SOL    HW118623   4.150   0.926   3.722
 6057SOL    HW218624   4.099   0.844   3.606
 6058SOL     OW18625   4.031   0.810   2.807
 6058SOL    HW118626   4.121   0.843   2.813
 6058SOL    HW218627   4.037   0.719   2.834
 6059SOL     OW18628   4.082   0.537   2.872
 6059SOL    HW118629   4.032   0.459   2.851
 6059SOL    HW218630   4.161   0.530   2.819
 6060SOL     OW18631   3.735   1.313   2.054
 6060SOL    HW118632   3.647   1.331   2.021
 6060SOL    HW218633   3.729   1.225   2.091
 6061SOL     OW18634   3.820   1.778   2.809
 6061SOL    HW118635   3.788   1.703   2.760
 6061SOL    HW218636   3.908   1.793   2.775
 6062SOL     OW18637   4.234   1.589   2.769
 6062SOL    HW118638   4.320   1.607   2.807
 6062SOL    HW218639   4.251   1.522   2.702
 6063SOL     OW18640   3.754   0.544   2.980
 6063SOL    HW118641   3.819   0.503   2.923
 6063SOL    HW218642   3.796   0.548   3.065
 6064SOL     OW18643   3.911   0.527   3.589
 6064SOL    HW118644   3.996   0.524   3.547
 6064SOL    HW218645   3.865   0.600   3.547
 6065SOL     OW18646   0.022   0.543   2.130
 6065SOL    HW118647   0.036   0.530   2.223
 6065SOL    HW218648   4.449   0.604   2.125
 6066SOL     OW18649   3.962   1.551   3.582
 6066SOL    HW118650   3.937   1.615   3.648
 6066SOL    HW218651   3.963   1.467   3.628
 6067SOL     OW18652   4.177   0.491   2.039
 6067SOL    HW118653   4.237   0.563   2.060
 6067SOL    HW218654   4.092   0.533   2.028
 6068SOL     OW18655   3.860   1.143   3.338
 6068SOL    HW118656   3.864   1.099   3.423
 6068SOL    HW218657   3.878   1.073   3.275
 6069SOL     OW18658   3.818   1.269   2.871
 6069SOL    HW118659   3.797   1.282   2.964
 6069SOL    HW218660   3.749   1.211   2.839
 6070SOL     OW18661   4.391   1.655   3.553
 6070SOL    HW118662   4.359   1.729   3.604
 6070SOL    HW218663   4.386   1.684   3.462
 6071SOL     OW18664   3.868   1.796   3.705
 6071SOL    HW118665   3.818   1.729   3.752
 6071SOL    HW218666   3.914   1.844   3.774
 6072SOL     OW18667   3.978   0.311   2.569
 6072SOL    HW118668   3.894   0.351   2.549
 6072SOL    HW218669   3.981   0.309   2.665
 6073SOL     OW18670   4.080   1.313   3.351
 6073SOL    HW118671   4.060   1.387   3.294
 6073SOL    HW218672   4.008   1.252   3.337
 6074SOL     OW18673   4.328   1.492   2.341
 6074SOL    HW118674   4.344   1.433   2.268
 6074SOL    HW218675   4.258   1.550   2.311
 6075SOL     OW18676   3.990   1.340   2.160
 6075SOL    HW118677   3.899   1.336   2.131
 6075SOL    HW218678   3.986   1.385   2.244
 6076SOL     OW18679   3.841   1.046   3.596
 6076SOL    HW118680   3.763   1.014   3.643
 6076SOL    HW218681   3.913   0.995   3.632
 6077SOL     OW18682   4.359   0.198   3.356
 6077SOL    HW118683   4.451   0.223   3.358
 6077SOL    HW218684   4.344   0.157   3.441
 6078SOL     OW18685   3.808   0.320   1.905
 6078SOL    HW118686   3.738   0.265   1.869
 6078SOL    HW218687   3.809   0.397   1.848
 6079SOL     OW18688   3.784   0.193   2.160
 6079SOL    HW118689   3.789   0.258   2.090
 6079SOL    HW218690   3.859   0.136   2.144
 6080SOL     OW18691   4.346   0.844   3.309
 6080SOL    HW118692   4.374   0.931   3.282
 6080SOL    HW218693   4.426   0.803   3.344
 6081SOL     OW18694   4.370   0.573   3.590
 6081SOL    HW118695   4.405   0.642   3.647
 6081SOL    HW218696   4.448   0.531   3.553
 6082SOL     OW18697   4.099   1.744   3.425
 6082SOL    HW118698   4.018   1.792   3.409
 6082SOL    HW218699   4.072   1.663   3.468
 6083SOL     OW18700   4.307   0.726   2.535
 6083SOL    HW118701   4.347   0.811   2.515
 6083SOL    HW218702   4.238   0.716   2.468
 6084SOL     OW18703   3.933   1.301   3.708
 6084SOL    HW118704   3.887   1.226   3.670
 6084SOL    HW218705   3.892   1.313   3.794
 6085SOL     OW18706   3.822   1.226   2.527
 6085SOL    HW118707   3.839   1.183   2.610
 6085SOL    HW218708   3.885   1.188   2.466
 6086SOL     OW18709   4.437   1.389   3.556
 6086SOL    HW118710   4.350   1.363   3.527
 6086SOL    HW218711   4.436   1.484   3.555
 6087SOL     OW18712   4.168   0.431   2.403
 6087SOL    HW118713   4.185   0.368   2.333
 6087SOL    HW218714   4.108   0.387   2.462
 6088SOL     OW18715   4.059   0.566   3.148
 6088SOL    HW118716   4.109   0.505   3.202
 6088SOL    HW218717   4.080   0.540   3.058
 6089SOL     OW18718   0.030   1.623   2.553
 6089SOL    HW118719   0.053   1.696   2.495
 6089SOL    HW218720   4.470   1.569   2.502
 6090SOL     OW18721   3.765   1.061   2.170
 6090SOL    HW118722   3.858   1.052   2.151
 6090SOL    HW218723   3.736   0.972   2.193
 6091SOL     OW18724   3.940   0.623   3.854
 6091SOL    HW118725   3.853   0.615   3.894
 6091SOL    HW218726   3.926   0.598   3.763
 6092SOL     OW18727   3.921   0.317   4.716
 6092SOL    HW118728   3.959   0.283   4.797
 6092SOL    HW218729   3.845   0.262   4.700
 6093SOL     OW18730   3.725   0.398   4.356
 6093SOL    HW118731   3.640   0.413   4.396
 6093SOL    HW218732   3.710   0.328   4.293
 6094SOL     OW18733   4.269   1.217   4.865
 6094SOL    HW118734   4.208   1.288   4.846
 6094SOL    HW218735   4.338   1.258   4.917
 6095SOL     OW18736   0.012   0.774   5.578
 6095SOL    HW118737   0.059   0.798   5.658
 6095SOL    HW218738   0.045   0.835   5.512
 6096SOL     OW18739   4.408   0.982   4.336
 6096SOL    HW118740   4.478   0.969   4.399
 6096SOL    HW218741   4.347   1.041   4.379
 6097SOL     OW18742   4.414   1.147   5.531
 6097SOL    HW118743   4.451   1.230   5.500
 6097SOL    HW218744   4.321   1.154   5.511
 6098SOL     OW18745   4.069   1.422   4.793
 6098SOL    HW118746   3.994   1.377   4.753
 6098SOL    HW218747   4.107   1.472   4.721
 6099SOL     OW18748   4.162   0.391   5.192
 6099SOL    HW118749   4.239   0.334   5.198
 6099SOL    HW218750   4.088   0.332   5.211
 6100SOL     OW18751   3.939   1.718   4.193
 6100SOL    HW118752   3.959   1.793   4.250
 6100SOL    HW218753   4.018   1.709   4.138
 6101SOL     OW18754   3.957   1.448   4.262
 6101SOL    HW118755   3.933   1.540   4.266
 6101SOL    HW218756   3.902   1.406   4.328
 6102SOL     OW18757   3.987   1.089   4.605
 6102SOL    HW118758   3.990   1.002   4.645
 6102SOL    HW218759   3.938   1.142   4.667
 6103SOL     OW18760   4.353   1.793   5.181
 6103SOL    HW118761   4.261   1.770   5.199
 6103SOL    HW218762   4.353   1.889   5.181
 6104SOL     OW18763   4.306   0.985   3.874
 6104SOL    HW118764   4.340   1.030   3.796
 6104SOL    HW218765   4.372   1.001   3.941
 6105SOL     OW18766   3.845   0.657   4.287
 6105SOL    HW118767   3.811   0.571   4.310
 6105SOL    HW218768   3.836   0.708   4.367
 6106SOL     OW18769   3.768   1.587   3.842
 6106SOL    HW118770   3.747   1.496   3.862
 6106SOL    HW218771   3.740   1.636   3.920
 6107SOL     OW18772   3.839   0.748   5.304
 6107SOL    HW118773   3.927   0.786   5.307
 6107SOL    HW218774   3.781   0.823   5.295
 6108SOL     OW18775   4.302   1.389   4.460
 6108SOL    HW118776   4.268   1.300   4.458
 6108SOL    HW218777   4.307   1.415   4.368
 6109SOL     OW18778   0.012   0.003   4.210
 6109SOL    HW118779   0.046   0.072   4.153
 6109SOL    HW218780   4.428   0.037   4.240
 6110SOL     OW18781   3.910   0.955   5.012
 6110SOL    HW118782   3.998   0.920   4.996
 6110SOL    HW218783   3.856   0.917   4.942
 6111SOL     OW18784   4.042   0.246   5.506
 6111SOL    HW118785   4.101   0.315   5.536
 6111SOL    HW218786   3.966   0.254   5.564
 6112SOL     OW18787   4.308   0.719   3.991
 6112SOL    HW118788   4.303   0.804   3.948
 6112SOL    HW218789   4.246   0.725   4.064
 6113SOL     OW18790   3.812   0.825   4.501
 6113SOL    HW118791   3.892   0.815   4.553
 6113SOL    HW218792   3.768   0.902   4.538
 6114SOL     OW18793   3.853   1.875   5.308
 6114SOL    HW118794   3.857   1.851   5.401
 6114SOL    HW218795   3.767   1.844   5.280
 6115SOL     OW18796   4.226   0.205   4.625
 6115SOL    HW118797   4.268   0.221   4.710
 6115SOL    HW218798   4.259   0.275   4.569
 6116SOL     OW18799   4.082   1.819   4.598
 6116SOL    HW118800   4.138   1.741   4.606
 6116SOL    HW218801   4.143   1.892   4.606
 6117SOL     OW18802   4.034   0.964   3.979
 6117SOL    HW118803   4.120   0.982   3.941
 6117SOL    HW218804   4.009   0.880   3.941
 6118SOL     OW18805   4.175   1.252   5.457
 6118SOL    HW118806   4.150   1.268   5.366
 6118SOL    HW218807   4.093   1.261   5.506
 6119SOL     OW18808   3.909   0.270   5.247
 6119SOL    HW118809   3.848   0.343   5.239
 6119SOL    HW218810   3.937   0.271   5.339
 6120SOL     OW18811   4.189   1.731   4.050
 6120SOL    HW118812   4.226   1.794   4.112
 6120SOL    HW218813   4.258   1.717   3.986
 6121SOL     OW18814   3.979   1.793   4.948
 6121SOL    HW118815   4.024   1.716   4.982
 6121SOL    HW218816   3.964   1.772   4.855
 6122SOL     OW18817   4.117   0.687   4.195
 6122SOL    HW118818   4.137   0.596   4.214
 6122SOL    HW218819   4.024   0.696   4.213
 6123SOL     OW18820   4.330   0.116   3.841
 6123SOL    HW118821   4.414   0.071   3.851
 6123SOL    HW218822   4.307   0.103   3.749
 6124SOL     OW18823   0.026   1.416   4.622
 6124SOL    HW118824   0.063   1.487   4.569
 6124SOL    HW218825   4.450   1.387   4.572
 6125SOL     OW18826   4.278   0.119   4.272
 6125SOL    HW118827   4.195   0.087   4.306
 6125SOL    HW218828   4.254   0.166   4.191
 6126SOL     OW18829   4.017   0.052   3.937
 6126SOL    HW118830   4.092   0.110   3.923
 6126SOL    HW218831   4.044   4.495   4.009
 6127SOL     OW18832   0.324   0.671   5.192
 6127SOL    HW118833   0.325   0.602   5.125
 6127SOL    HW218834   0.406   0.659   5.240
 6128SOL     OW18835   4.195   1.140   4.437
 6128SOL    HW118836   4.133   1.120   4.506
 6128SOL    HW218837   4.145   1.131   4.356
 6129SOL     OW18838   3.816   0.544   5.123
 6129SOL    HW118839   3.905   0.552   5.089
 6129SOL    HW218840   3.807   0.616   5.185
 6130SOL     OW18841   4.296   0.248   4.885
 6130SOL    HW118842   4.301   0.160   4.924
 6130SOL    HW218843   4.214   0.284   4.918
 6131SOL     OW18844   4.232   1.381   3.899
 6131SOL    HW118845   4.147   1.366   3.941
 6131SOL    HW218846   4.211   1.385   3.805
 6132SOL     OW18847   4.230   0.267   4.044
 6132SOL    HW118848   4.279   0.214   3.981
 6132SOL    HW218849   4.210   0.348   3.997
 6133SOL     OW18850   4.150   0.821   4.982
 6133SOL    HW118851   4.219   0.825   5.047
 6133SOL    HW218852   4.114   0.732   4.989
 6134SOL     OW18853   3.798   1.574   5.083
 6134SOL    HW118854   3.765   1.642   5.025
 6134SOL    HW218855   3.893   1.577   5.072
 6135SOL     OW18856   4.043   1.125   4.210
 6135SOL    HW118857   4.042   1.198   4.148
 6135SOL    HW218858   4.045   1.047   4.154
 6136SOL     OW18859   4.315   0.530   4.587
 6136SOL    HW118860   4.311   0.602   4.524
 6136SOL    HW218861   4.381   0.558   4.651
 6137SOL     OW18862   4.072   1.541   5.033
 6137SOL    HW118863   4.071   1.494   4.950
 6137SOL    HW218864   4.163   1.542   5.059
 6138SOL     OW18865   4.154   0.729   5.341
 6138SOL    HW118866   4.206   0.774   5.275
 6138SOL    HW218867   4.210   0.659   5.372
 6139SOL     OW18868   4.248   0.073   5.443
 6139SOL    HW118869   4.219   4.482   5.434
 6139SOL    HW218870   4.168   0.123   5.457
 6140SOL     OW18871   4.277   0.916   4.752
 6140SOL    HW118872   4.293   1.009   4.768
 6140SOL    HW218873   4.240   0.884   4.834
 6141SOL     OW18874   4.010   0.236   4.964
 6141SOL    HW118875   3.961   0.247   5.046
 6141SOL    HW218876   4.059   0.155   4.976
 6142SOL     OW18877   3.773   1.312   4.997
 6142SOL    HW118878   3.802   1.255   5.069
 6142SOL    HW218879   3.775   1.400   5.034
 6143SOL     OW18880   4.014   0.043   4.367
 6143SOL    HW118881   3.995   0.137   4.371
 6143SOL    HW218882   4.022   0.016   4.458
 6144SOL     OW18883   4.073   0.910   5.531
 6144SOL    HW118884   4.151   0.926   5.584
 6144SOL    HW218885   4.099   0.843   5.468
 6145SOL     OW18886   4.031   0.810   4.669
 6145SOL    HW118887   4.121   0.843   4.674
 6145SOL    HW218888   4.037   0.719   4.697
 6146SOL     OW18889   4.082   0.537   4.734
 6146SOL    HW118890   4.032   0.458   4.713
 6146SOL    HW218891   4.161   0.530   4.681
 6147SOL     OW18892   3.735   1.313   3.916
 6147SOL    HW118893   3.647   1.331   3.883
 6147SOL    HW218894   3.730   1.225   3.953
 6148SOL     OW18895   3.821   1.777   4.671
 6148SOL    HW118896   3.788   1.702   4.621
 6148SOL    HW218897   3.909   1.792   4.637
 6149SOL     OW18898   4.234   1.589   4.631
 6149SOL    HW118899   4.320   1.606   4.669
 6149SOL    HW218900   4.250   1.522   4.564
 6150SOL     OW18901   3.753   0.544   4.842
 6150SOL    HW118902   3.819   0.504   4.785
 6150SOL    HW218903   3.796   0.548   4.928
 6151SOL     OW18904   3.911   0.527   5.451
 6151SOL    HW118905   3.996   0.524   5.409
 6151SOL    HW218906   3.866   0.600   5.409
 6152SOL     OW18907   0.022   0.543   3.991
 6152SOL    HW118908   0.036   0.530   4.085
 6152SOL    HW218909   4.449   0.605   3.986
 6153SOL     OW18910   3.963   1.551   5.443
 6153SOL    HW118911   3.938   1.616   5.508
 6153SOL    HW218912   3.964   1.468   5.491
 6154SOL     OW18913   4.177   0.491   3.902
 6154SOL    HW118914   4.237   0.563   3.922
 6154SOL    HW218915   4.092   0.533   3.890
 6155SOL     OW18916   3.860   1.143   5.201
 6155SOL    HW118917   3.864   1.099   5.286
 6155SOL    HW218918   3.878   1.073   5.137
 6156SOL     OW18919   3.821   1.267   4.735
 6156SOL    HW118920   3.799   1.281   4.827
 6156SOL    HW218921   3.749   1.212   4.702
 6157SOL     OW18922   4.392   1.655   5.415
 6157SOL    HW118923   4.359   1.729   5.466
 6157SOL    HW218924   4.385   1.685   5.324
 6158SOL     OW18925   3.870   1.794   5.566
 6158SOL    HW118926   3.819   1.728   5.613
 6158SOL    HW218927   3.914   1.843   5.635
 6159SOL     OW18928   3.978   0.311   4.431
 6159SOL    HW118929   3.894   0.351   4.411
 6159SOL    HW218930   3.981   0.309   4.527
 6160SOL     OW18931   4.080   1.313   5.212
 6160SOL    HW118932   4.060   1.387   5.156
 6160SOL    HW218933   4.008   1.252   5.199
 6161SOL     OW18934   4.328   1.492   4.203
 6161SOL    HW118935   4.343   1.433   4.130
 6161SOL    HW218936   4.258   1.550   4.173
 6162SOL     OW18937   3.990   1.340   4.022
 6162SOL    HW118938   3.899   1.336   3.993
 6162SOL    HW218939   3.986   1.385   4.107
 6163SOL     OW18940   3.841   1.046   5.459
 6163SOL    HW118941   3.764   1.014   5.505
 6163SOL    HW218942   3.914   0.995   5.495
 6164SOL     OW18943   4.359   0.198   5.218
 6164SOL    HW118944   4.451   0.223   5.220
 6164SOL    HW218945   4.344   0.157   5.303
 6165SOL     OW18946   3.808   0.320   3.767
 6165SOL    HW118947   3.738   0.265   3.731
 6165SOL    HW218948   3.809   0.397   3.710
 6166SOL     OW18949   3.784   0.193   4.022
 6166SOL    HW118950   3.789   0.258   3.952
 6166SOL    HW218951   3.859   0.135   4.006
 6167SOL     OW18952   4.346   0.844   5.171
 6167SOL    HW118953   4.374   0.931   5.144
 6167SOL    HW218954   4.426   0.804   5.206
 6168SOL     OW18955   4.370   0.573   5.452
 6168SOL    HW118956   4.405   0.642   5.509
 6168SOL    HW218957   4.448   0.531   5.415
 6169SOL     OW18958   4.099   1.744   5.286
 6169SOL    HW118959   4.018   1.792   5.271
 6169SOL    HW218960   4.072   1.663   5.330
 6170SOL     OW18961   4.307   0.726   4.397
 6170SOL    HW118962   4.347   0.811   4.377
 6170SOL    HW218963   4.238   0.716   4.330
 6171SOL     OW18964   3.933   1.301   5.570
 6171SOL    HW118965   3.887   1.226   5.531
 6171SOL    HW218966   3.890   1.313   5.655
 6172SOL     OW18967   3.821   1.226   4.389
 6172SOL    HW118968   3.838   1.183   4.473
 6172SOL    HW218969   3.885   1.188   4.329
 6173SOL     OW18970   4.438   1.389   5.418
 6173SOL    HW118971   4.351   1.363   5.388
 6173SOL    HW218972   4.436   1.485   5.417
 6174SOL     OW18973   4.168   0.431   4.265
 6174SOL    HW118974   4.185   0.368   4.196
 6174SOL    HW218975   4.108   0.387   4.324
 6175SOL     OW18976   4.059   0.566   5.010
 6175SOL    HW118977   4.109   0.505   5.064
 6175SOL    HW218978   4.080   0.540   4.920
 6176SOL     OW18979   0.030   1.623   4.416
 6176SOL    HW118980   0.053   1.695   4.357
 6176SOL    HW218981   4.470   1.569   4.364
 6177SOL     OW18982   3.765   1.061   4.032
 6177SOL    HW118983   3.858   1.052   4.012
 6177SOL    HW218984   3.736   0.972   4.054
 6178SOL     OW18985   3.940   0.623   5.716
 6178SOL    HW118986   3.853   0.615   5.756
 6178SOL    HW218987   3.927   0.598   5.625
 6179SOL     OW18988   3.921   0.318   6.578
 6179SOL    HW118989   3.959   0.283   6.659
 6179SOL    HW218990   3.845   0.262   6.562
 6180SOL     OW18991   3.725   0.398   6.218
 6180SOL    HW118992   3.640   0.413   6.258
 6180SOL    HW218993   3.711   0.328   6.155
 6181SOL     OW18994   4.268   1.217   6.728
 6181SOL    HW118995   4.208   1.289   6.708
 6181SOL    HW218996   4.338   1.258   6.780
 6182SOL     OW18997   0.012   0.775   7.440
 6182SOL    HW118998   0.061   0.797   7.519
 6182SOL    HW218999   0.045   0.835   7.373
 6183SOL     OW19000   4.407   0.982   6.198
 6183SOL    HW119001   4.478   0.971   6.261
 6183SOL    HW219002   4.346   1.042   6.241
 6184SOL     OW19003   4.415   1.147   7.393
 6184SOL    HW119004   4.452   1.230   7.362
 6184SOL    HW219005   4.321   1.154   7.374
 6185SOL     OW19006   4.069   1.423   6.655
 6185SOL    HW119007   3.995   1.378   6.614
 6185SOL    HW219008   4.109   1.473   6.584
 6186SOL     OW19009   4.162   0.391   7.054
 6186SOL    HW119010   4.239   0.335   7.060
 6186SOL    HW219011   4.088   0.332   7.073
 6187SOL     OW19012   3.940   1.718   6.055
 6187SOL    HW119013   3.960   1.792   6.112
 6187SOL    HW219014   4.018   1.709   6.000
 6188SOL     OW19015   3.957   1.448   6.124
 6188SOL    HW119016   3.934   1.541   6.127
 6188SOL    HW219017   3.901   1.408   6.192
 6189SOL     OW19018   3.985   1.089   6.466
 6189SOL    HW119019   3.990   1.002   6.506
 6189SOL    HW219020   3.938   1.142   6.530
 6190SOL     OW19021   4.353   1.794   7.044
 6190SOL    HW119022   4.262   1.771   7.061
 6190SOL    HW219023   4.354   1.889   7.043
 6191SOL     OW19024   4.306   0.985   5.735
 6191SOL    HW119025   4.340   1.031   5.658
 6191SOL    HW219026   4.372   1.001   5.803
 6192SOL     OW19027   3.845   0.657   6.149
 6192SOL    HW119028   3.811   0.570   6.172
 6192SOL    HW219029   3.836   0.708   6.230
 6193SOL     OW19030   3.768   1.587   5.704
 6193SOL    HW119031   3.746   1.496   5.725
 6193SOL    HW219032   3.740   1.636   5.782
 6194SOL     OW19033   3.840   0.748   7.166
 6194SOL    HW119034   3.928   0.785   7.169
 6194SOL    HW219035   3.782   0.823   7.158
 6195SOL     OW19036   4.302   1.389   6.322
 6195SOL    HW119037   4.268   1.300   6.319
 6195SOL    HW219038   4.307   1.416   6.230
 6196SOL     OW19039   0.012   0.003   6.072
 6196SOL    HW119040   0.046   0.072   6.015
 6196SOL    HW219041   4.428   0.037   6.102
 6197SOL     OW19042   3.910   0.955   6.872
 6197SOL    HW119043   3.998   0.921   6.857
 6197SOL    HW219044   3.856   0.916   6.803
 6198SOL     OW19045   4.042   0.246   7.368
 6198SOL    HW119046   4.101   0.314   7.398
 6198SOL    HW219047   3.966   0.253   7.426
 6199SOL     OW19048   4.308   0.719   5.853
 6199SOL    HW119049   4.303   0.804   5.810
 6199SOL    HW219050   4.246   0.725   5.926
 6200SOL     OW19051   3.812   0.825   6.364
 6200SOL    HW119052   3.892   0.815   6.415
 6200SOL    HW219053   3.769   0.902   6.401
 6201SOL     OW19054   3.852   1.874   7.171
 6201SOL    HW119055   3.857   1.852   7.264
 6201SOL    HW219056   3.769   1.837   7.141
 6202SOL     OW19057   4.226   0.205   6.487
 6202SOL    HW119058   4.268   0.221   6.572
 6202SOL    HW219059   4.259   0.274   6.430
 6203SOL     OW19060   4.082   1.819   6.461
 6203SOL    HW119061   4.138   1.741   6.468
 6203SOL    HW219062   4.142   1.892   6.469
 6204SOL     OW19063   4.034   0.963   5.841
 6204SOL    HW119064   4.120   0.983   5.803
 6204SOL    HW219065   4.009   0.880   5.802
 6205SOL     OW19066   4.175   1.253   7.319
 6205SOL    HW119067   4.151   1.268   7.228
 6205SOL    HW219068   4.093   1.261   7.368
 6206SOL     OW19069   3.909   0.269   7.109
 6206SOL    HW119070   3.848   0.343   7.102
 6206SOL    HW219071   3.938   0.271   7.201
 6207SOL     OW19072   4.189   1.732   5.912
 6207SOL    HW119073   4.226   1.795   5.974
 6207SOL    HW219074   4.258   1.719   5.847
 6208SOL     OW19075   3.978   1.793   6.810
 6208SOL    HW119076   4.023   1.716   6.844
 6208SOL    HW219077   3.964   1.773   6.717
 6209SOL     OW19078   4.117   0.687   6.057
 6209SOL    HW119079   4.137   0.596   6.076
 6209SOL    HW219080   4.024   0.696   6.075
 6210SOL     OW19081   4.330   0.116   5.703
 6210SOL    HW119082   4.414   0.071   5.713
 6210SOL    HW219083   4.307   0.103   5.611
 6211SOL     OW19084   0.026   1.416   6.484
 6211SOL    HW119085   0.063   1.487   6.431
 6211SOL    HW219086   4.450   1.387   6.434
 6212SOL     OW19087   4.278   0.119   6.134
 6212SOL    HW119088   4.194   0.087   6.168
 6212SOL    HW219089   4.255   0.166   6.053
 6213SOL     OW19090   4.018   0.053   5.800
 6213SOL    HW119091   4.093   0.110   5.785
 6213SOL    HW219092   4.044   4.496   5.871
 6214SOL     OW19093   0.324   0.671   7.054
 6214SOL    HW119094   0.325   0.602   6.987
 6214SOL    HW219095   0.406   0.660   7.102
 6215SOL     OW19096   4.195   1.140   6.299
 6215SOL    HW119097   4.132   1.120   6.368
 6215SOL    HW219098   4.145   1.131   6.218
 6216SOL     OW19099   3.816   0.544   6.985
 6216SOL    HW119100   3.905   0.551   6.951
 6216SOL    HW219101   3.807   0.616   7.047
 6217SOL     OW19102   4.296   0.248   6.747
 6217SOL    HW119103   4.301   0.160   6.786
 6217SOL    HW219104   4.213   0.284   6.781
 6218SOL     OW19105   4.232   1.380   5.761
 6218SOL    HW119106   4.148   1.366   5.803
 6218SOL    HW219107   4.211   1.386   5.667
 6219SOL     OW19108   4.231   0.267   5.907
 6219SOL    HW119109   4.279   0.214   5.843
 6219SOL    HW219110   4.210   0.348   5.859
 6220SOL     OW19111   4.149   0.821   6.844
 6220SOL    HW119112   4.219   0.825   6.910
 6220SOL    HW219113   4.114   0.733   6.851
 6221SOL     OW19114   3.799   1.574   6.945
 6221SOL    HW119115   3.766   1.641   6.886
 6221SOL    HW219116   3.894   1.576   6.934
 6222SOL     OW19117   4.042   1.125   6.071
 6222SOL    HW119118   4.042   1.198   6.010
 6222SOL    HW219119   4.045   1.047   6.016
 6223SOL     OW19120   4.315   0.530   6.449
 6223SOL    HW119121   4.311   0.602   6.386
 6223SOL    HW219122   4.381   0.558   6.513
 6224SOL     OW19123   4.072   1.541   6.895
 6224SOL    HW119124   4.071   1.494   6.811
 6224SOL    HW219125   4.164   1.542   6.921
 6225SOL     OW19126   4.153   0.729   7.202
 6225SOL    HW119127   4.206   0.774   7.137
 6225SOL    HW219128   4.210   0.659   7.234
 6226SOL     OW19129   4.249   0.073   7.305
 6226SOL    HW119130   4.219   4.482   7.296
 6226SOL    HW219131   4.168   0.122   7.319
 6227SOL     OW19132   4.276   0.916   6.614
 6227SOL    HW119133   4.294   1.009   6.631
 6227SOL    HW219134   4.240   0.884   6.697
 6228SOL     OW19135   4.010   0.236   6.826
 6228SOL    HW119136   3.961   0.247   6.908
 6228SOL    HW219137   4.059   0.155   6.838
 6229SOL     OW19138   3.771   1.312   6.859
 6229SOL    HW119139   3.801   1.255   6.930
 6229SOL    HW219140   3.774   1.400   6.896
 6230SOL     OW19141   4.013   0.042   6.229
 6230SOL    HW119142   3.995   0.136   6.233
 6230SOL    HW219143   4.021   0.016   6.321
 6231SOL     OW19144   4.072   0.911   7.392
 6231SOL    HW119145   4.150   0.926   7.446
 6231SOL    HW219146   4.099   0.844   7.330
 6232SOL     OW19147   4.031   0.811   6.531
 6232SOL    HW119148   4.121   0.843   6.537
 6232SOL    HW219149   4.037   0.719   6.558
 6233SOL     OW19150   4.082   0.538   6.596
 6233SOL    HW119151   4.032   0.459   6.575
 6233SOL    HW219152   4.161   0.531   6.543
 6234SOL     OW19153   3.736   1.312   5.778
 6234SOL    HW119154   3.648   1.330   5.745
 6234SOL    HW219155   3.731   1.224   5.815
 6235SOL     OW19156   3.820   1.778   6.534
 6235SOL    HW119157   3.788   1.703   6.484
 6235SOL    HW219158   3.908   1.793   6.499
 6236SOL     OW19159   4.234   1.589   6.493
 6236SOL    HW119160   4.321   1.607   6.530
 6236SOL    HW219161   4.251   1.522   6.426
 6237SOL     OW19162   3.754   0.544   6.704
 6237SOL    HW119163   3.819   0.503   6.646
 6237SOL    HW219164   3.797   0.548   6.789
 6238SOL     OW19165   3.911   0.527   7.313
 6238SOL    HW119166   3.996   0.523   7.271
 6238SOL    HW219167   3.866   0.600   7.271
 6239SOL     OW19168   0.022   0.543   5.853
 6239SOL    HW119169   0.036   0.530   5.947
 6239SOL    HW219170   4.449   0.605   5.848
 6240SOL     OW19171   3.962   1.551   7.305
 6240SOL    HW119172   3.938   1.616   7.372
 6240SOL    HW219173   3.963   1.468   7.352
 6241SOL     OW19174   4.177   0.491   5.764
 6241SOL    HW119175   4.237   0.563   5.784
 6241SOL    HW219176   4.092   0.533   5.752
 6242SOL     OW19177   3.860   1.143   7.062
 6242SOL    HW119178   3.864   1.099   7.147
 6242SOL    HW219179   3.877   1.073   6.998
 6243SOL     OW19180   3.818   1.269   6.596
 6243SOL    HW119181   3.796   1.282   6.688
 6243SOL    HW219182   3.749   1.211   6.563
 6244SOL     OW19183   4.391   1.655   7.277
 6244SOL    HW119184   4.359   1.729   7.329
 6244SOL    HW219185   4.386   1.684   7.186
 6245SOL     OW19186   3.868   1.796   7.429
 6245SOL    HW119187   3.818   1.729   7.476
 6245SOL    HW219188   3.914   1.843   7.498
 6246SOL     OW19189   3.978   0.310   6.293
 6246SOL    HW119190   3.894   0.351   6.273
 6246SOL    HW219191   3.981   0.309   6.389
 6247SOL     OW19192   4.080   1.313   7.075
 6247SOL    HW119193   4.060   1.387   7.018
 6247SOL    HW219194   4.007   1.252   7.061
 6248SOL     OW19195   4.327   1.492   6.065
 6248SOL    HW119196   4.342   1.433   5.992
 6248SOL    HW219197   4.259   1.552   6.035
 6249SOL     OW19198   3.991   1.339   5.885
 6249SOL    HW119199   3.900   1.336   5.855
 6249SOL    HW219200   3.986   1.385   5.969
 6250SOL     OW19201   3.841   1.046   7.320
 6250SOL    HW119202   3.763   1.014   7.366
 6250SOL    HW219203   3.913   0.995   7.356
 6251SOL     OW19204   4.359   0.199   7.080
 6251SOL    HW119205   4.451   0.223   7.082
 6251SOL    HW219206   4.344   0.157   7.165
 6252SOL     OW19207   3.807   0.320   5.629
 6252SOL    HW119208   3.738   0.265   5.593
 6252SOL    HW219209   3.810   0.397   5.572
 6253SOL     OW19210   3.784   0.193   5.884
 6253SOL    HW119211   3.789   0.258   5.814
 6253SOL    HW219212   3.860   0.136   5.868
 6254SOL     OW19213   4.346   0.844   7.033
 6254SOL    HW119214   4.375   0.931   7.006
 6254SOL    HW219215   4.426   0.803   7.068
 6255SOL     OW19216   4.370   0.574   7.314
 6255SOL    HW119217   4.405   0.642   7.371
 6255SOL    HW219218   4.447   0.532   7.277
 6256SOL     OW19219   4.100   1.744   7.148
 6256SOL    HW119220   4.018   1.792   7.133
 6256SOL    HW219221   4.072   1.663   7.192
 6257SOL     OW19222   4.307   0.726   6.259
 6257SOL    HW119223   4.347   0.811   6.239
 6257SOL    HW219224   4.238   0.716   6.192
 6258SOL     OW19225   3.934   1.301   7.432
 6258SOL    HW119226   3.887   1.226   7.395
 6258SOL    HW219227   3.894   1.313   7.519
 6259SOL     OW19228   3.821   1.225   6.251
 6259SOL    HW119229   3.841   1.182   6.334
 6259SOL    HW219230   3.884   1.189   6.189
 6260SOL     OW19231   4.437   1.389   7.280
 6260SOL    HW119232   4.350   1.363   7.250
 6260SOL    HW219233   4.436   1.484   7.279
 6261SOL     OW19234   4.168   0.431   6.127
 6261SOL    HW119235   4.185   0.368   6.058
 6261SOL    HW219236   4.108   0.387   6.186
 6262SOL     OW19237   4.059   0.566   6.872
 6262SOL    HW119238   4.110   0.505   6.926
 6262SOL    HW219239   4.080   0.541   6.782
 6263SOL     OW19240   0.029   1.624   6.278
 6263SOL    HW119241   0.052   1.696   6.219
 6263SOL    HW219242   4.470   1.569   6.226
 6264SOL     OW19243   3.765   1.061   5.895
 6264SOL    HW119244   3.858   1.052   5.875
 6264SOL    HW219245   3.736   0.972   5.917
 6265SOL     OW19246   3.940   0.623   7.578
 6265SOL    HW119247   3.853   0.615   7.618
 6265SOL    HW219248   3.926   0.598   7.487
 6266SOL     OW19249   3.921   0.318   8.440
 6266SOL    HW119250   3.959   0.283   8.521
 6266SOL    HW219251   3.845   0.262   8.424
 6267SOL     OW19252   3.725   0.398   8.080
 6267SOL    HW119253   3.640   0.413   8.120
 6267SOL    HW219254   3.711   0.328   8.017
 6268SOL     OW19255   4.269   1.217   8.590
 6268SOL    HW119256   4.208   1.289   8.570
 6268SOL    HW219257   4.338   1.258   8.641
 6269SOL     OW19258   0.012   0.775   9.302
 6269SOL    HW119259   0.061   0.797   9.381
 6269SOL    HW219260   0.045   0.835   9.235
 6270SOL     OW19261   4.407   0.982   8.060
 6270SOL    HW119262   4.478   0.971   8.123
 6270SOL    HW219263   4.346   1.042   8.103
 6271SOL     OW19264   4.415   1.147   9.255
 6271SOL    HW119265   4.452   1.230   9.224
 6271SOL    HW219266   4.321   1.154   9.236
 6272SOL     OW19267   4.069   1.423   8.517
 6272SOL    HW119268   3.995   1.378   8.476
 6272SOL    HW219269   4.109   1.473   8.446
 6273SOL     OW19270   4.162   0.391   8.916
 6273SOL    HW119271   4.239   0.335   8.922
 6273SOL    HW219272   4.088   0.332   8.935
 6274SOL     OW19273   3.940   1.718   7.916
 6274SOL    HW119274   3.959   1.792   7.974
 6274SOL    HW219275   4.018   1.709   7.862
 6275SOL     OW19276   3.957   1.448   7.986
 6275SOL    HW119277   3.934   1.540   7.989
 6275SOL    HW219278   3.902   1.406   8.052
 6276SOL     OW19279   3.985   1.089   8.329
 6276SOL    HW119280   3.990   1.002   8.369
 6276SOL    HW219281   3.938   1.142   8.392
 6277SOL     OW19282   4.353   1.794   8.906
 6277SOL    HW119283   4.262   1.770   8.923
 6277SOL    HW219284   4.354   1.889   8.905
 6278SOL     OW19285   4.306   0.985   7.598
 6278SOL    HW119286   4.340   1.030   7.520
 6278SOL    HW219287   4.372   1.001   7.665
 6279SOL     OW19288   3.845   0.657   8.011
 6279SOL    HW119289   3.811   0.571   8.034
 6279SOL    HW219290   3.836   0.708   8.092
 6280SOL     OW19291   3.767   1.587   7.566
 6280SOL    HW119292   3.747   1.496   7.586
 6280SOL    HW219293   3.740   1.636   7.644
 6281SOL     OW19294   3.840   0.748   9.028
 6281SOL    HW119295   3.928   0.786   9.031
 6281SOL    HW219296   3.782   0.823   9.020
 6282SOL     OW19297   4.302   1.389   8.184
 6282SOL    HW119298   4.268   1.300   8.181
 6282SOL    HW219299   4.307   1.415   8.092
 6283SOL     OW19300   0.012   0.003   7.934
 6283SOL    HW119301   0.046   0.072   7.877
 6283SOL    HW219302   4.428   0.037   7.964
 6284SOL     OW19303   3.910   0.955   8.734
 6284SOL    HW119304   3.998   0.921   8.719
 6284SOL    HW219305   3.856   0.915   8.666
 6285SOL     OW19306   4.042   0.246   9.230
 6285SOL    HW119307   4.101   0.315   9.260
 6285SOL    HW219308   3.966   0.254   9.288
 6286SOL     OW19309   4.308   0.719   7.715
 6286SOL    HW119310   4.304   0.804   7.672
 6286SOL    HW219311   4.247   0.725   7.788
 6287SOL     OW19312   3.812   0.825   8.225
 6287SOL    HW119313   3.892   0.815   8.277
 6287SOL    HW219314   3.769   0.902   8.262
 6288SOL     OW19315   3.852   1.874   9.033
 6288SOL    HW119316   3.857   1.852   9.126
 6288SOL    HW219317   3.769   1.837   9.003
 6289SOL     OW19318   4.226   0.205   8.349
 6289SOL    HW119319   4.268   0.221   8.434
 6289SOL    HW219320   4.259   0.275   8.293
 6290SOL     OW19321   4.082   1.818   8.323
 6290SOL    HW119322   4.138   1.741   8.330
 6290SOL    HW219323   4.142   1.892   8.331
 6291SOL     OW19324   4.034   0.964   7.703
 6291SOL    HW119325   4.120   0.982   7.665
 6291SOL    HW219326   4.009   0.879   7.665
 6292SOL     OW19327   4.175   1.253   9.181
 6292SOL    HW119328   4.151   1.268   9.090
 6292SOL    HW219329   4.093   1.261   9.230
 6293SOL     OW19330   3.909   0.269   8.971
 6293SOL    HW119331   3.848   0.343   8.964
 6293SOL    HW219332   3.938   0.271   9.063
 6294SOL     OW19333   4.189   1.731   7.774
 6294SOL    HW119334   4.226   1.794   7.836
 6294SOL    HW219335   4.258   1.717   7.709
 6295SOL     OW19336   3.978   1.793   8.672
 6295SOL    HW119337   4.024   1.716   8.707
 6295SOL    HW219338   3.965   1.772   8.579
 6296SOL     OW19339   4.117   0.687   7.919
 6296SOL    HW119340   4.137   0.596   7.938
 6296SOL    HW219341   4.023   0.696   7.937
 6297SOL     OW19342   4.330   0.116   7.565
 6297SOL    HW119343   4.414   0.071   7.575
 6297SOL    HW219344   4.307   0.103   7.473
 6298SOL     OW19345   0.026   1.417   8.346
 6298SOL    HW119346   0.063   1.487   8.293
 6298SOL    HW219347   4.450   1.387   8.296
 6299SOL     OW19348   4.278   0.120   7.996
 6299SOL    HW119349   4.195   0.087   8.030
 6299SOL    HW219350   4.255   0.166   7.915
 6300SOL     OW19351   4.018   0.052   7.661
 6300SOL    HW119352   4.093   0.110   7.647
 6300SOL    HW219353   4.044   4.495   7.733
 6301SOL     OW19354   0.324   0.672   8.915
 6301SOL    HW119355   0.326   0.602   8.850
 6301SOL    HW219356   0.405   0.661   8.964
 6302SOL     OW19357   4.195   1.140   8.161
 6302SOL    HW119358   4.132   1.120   8.230
 6302SOL    HW219359   4.145   1.131   8.080
 6303SOL     OW19360   3.816   0.544   8.847
 6303SOL    HW119361   3.905   0.552   8.813
 6303SOL    HW219362   3.807   0.616   8.909
 6304SOL     OW19363   4.296   0.248   8.609
 6304SOL    HW119364   4.301   0.160   8.648
 6304SOL    HW219365   4.213   0.283   8.643
 6305SOL     OW19366   4.232   1.381   7.622
 6305SOL    HW119367   4.147   1.366   7.665
 6305SOL    HW219368   4.212   1.385   7.529
 6306SOL     OW19369   4.231   0.267   7.768
 6306SOL    HW119370   4.279   0.214   7.705
 6306SOL    HW219371   4.210   0.348   7.721
 6307SOL     OW19372   4.149   0.821   8.706
 6307SOL    HW119373   4.219   0.825   8.772
 6307SOL    HW219374   4.114   0.733   8.713
 6308SOL     OW19375   3.799   1.574   8.807
 6308SOL    HW119376   3.766   1.641   8.748
 6308SOL    HW219377   3.894   1.576   8.796
 6309SOL     OW19378   4.042   1.125   7.934
 6309SOL    HW119379   4.042   1.198   7.872
 6309SOL    HW219380   4.045   1.047   7.878
 6310SOL     OW19381   4.315   0.530   8.311
 6310SOL    HW119382   4.311   0.602   8.248
 6310SOL    HW219383   4.381   0.557   8.375
 6311SOL     OW19384   4.072   1.541   8.757
 6311SOL    HW119385   4.071   1.494   8.674
 6311SOL    HW219386   4.164   1.542   8.784
 6312SOL     OW19387   4.154   0.729   9.064
 6312SOL    HW119388   4.206   0.774   8.999
 6312SOL    HW219389   4.210   0.659   9.097
 6313SOL     OW19390   4.249   0.073   9.167
 6313SOL    HW119391   4.219   4.482   9.158
 6313SOL    HW219392   4.168   0.123   9.181
 6314SOL     OW19393   4.276   0.916   8.476
 6314SOL    HW119394   4.294   1.009   8.493
 6314SOL    HW219395   4.240   0.884   8.559
 6315SOL     OW19396   4.010   0.236   8.688
 6315SOL    HW119397   3.961   0.247   8.770
 6315SOL    HW219398   4.059   0.155   8.700
 6316SOL     OW19399   3.772   1.312   8.720
 6316SOL    HW119400   3.801   1.255   8.791
 6316SOL    HW219401   3.775   1.400   8.758
 6317SOL     OW19402   4.013   0.043   8.091
 6317SOL    HW119403   3.995   0.137   8.095
 6317SOL    HW219404   4.021   0.016   8.182
 6318SOL     OW19405   4.073   0.911   9.255
 6318SOL    HW119406   4.150   0.926   9.308
 6318SOL    HW219407   4.099   0.844   9.192
 6319SOL     OW19408   4.031   0.810   8.393
 6319SOL    HW119409   4.121   0.843   8.399
 6319SOL    HW219410   4.037   0.719   8.420
 6320SOL     OW19411   4.082   0.537   8.458
 6320SOL    HW119412   4.032   0.459   8.437
 6320SOL    HW219413   4.161   0.531   8.405
 6321SOL     OW19414   3.735   1.313   7.640
 6321SOL    HW119415   3.647   1.331   7.607
 6321SOL    HW219416   3.729   1.225   7.677
 6322SOL     OW19417   3.820   1.778   8.395
 6322SOL    HW119418   3.788   1.703   8.345
 6322SOL    HW219419   3.908   1.793   8.361
 6323SOL     OW19420   4.234   1.589   8.355
 6323SOL    HW119421   4.320   1.607   8.393
 6323SOL    HW219422   4.251   1.522   8.288
 6324SOL     OW19423   3.754   0.544   8.566
 6324SOL    HW119424   3.819   0.503   8.509
 6324SOL    HW219425   3.796   0.548   8.651
 6325SOL     OW19426   3.911   0.527   9.175
 6325SOL    HW119427   3.996   0.524   9.133
 6325SOL    HW219428   3.866   0.600   9.133
 6326SOL     OW19429   0.022   0.543   7.715
 6326SOL    HW119430   0.037   0.530   7.809
 6326SOL    HW219431   4.449   0.604   7.710
 6327SOL     OW19432   3.962   1.551   9.167
 6327SOL    HW119433   3.938   1.615   9.234
 6327SOL    HW219434   3.963   1.468   9.214
 6328SOL     OW19435   4.177   0.491   7.625
 6328SOL    HW119436   4.237   0.563   7.646
 6328SOL    HW219437   4.092   0.533   7.614
 6329SOL     OW19438   3.860   1.143   8.924
 6329SOL    HW119439   3.864   1.099   9.009
 6329SOL    HW219440   3.877   1.073   8.860
 6330SOL     OW19441   3.818   1.270   8.457
 6330SOL    HW119442   3.797   1.283   8.549
 6330SOL    HW219443   3.749   1.211   8.425
 6331SOL     OW19444   4.391   1.655   9.139
 6331SOL    HW119445   4.359   1.729   9.191
 6331SOL    HW219446   4.386   1.684   9.048
 6332SOL     OW19447   3.868   1.796   9.291
 6332SOL    HW119448   3.818   1.729   9.338
 6332SOL    HW219449   3.914   1.844   9.360
 6333SOL     OW19450   3.978   0.310   8.155
 6333SOL    HW119451   3.894   0.351   8.135
 6333SOL    HW219452   3.981   0.309   8.251
 6334SOL     OW19453   4.080   1.312   8.937
 6334SOL    HW119454   4.060   1.387   8.880
 6334SOL    HW219455   4.007   1.252   8.923
 6335SOL     OW19456   4.328   1.492   7.927
 6335SOL    HW119457   4.344   1.433   7.854
 6335SOL    HW219458   4.259   1.551   7.896
 6336SOL     OW19459   3.990   1.340   7.746
 6336SOL    HW119460   3.898   1.336   7.717
 6336SOL    HW219461   3.986   1.385   7.830
 6337SOL     OW19462   3.841   1.046   9.182
 6337SOL    HW119463   3.763   1.014   9.228
 6337SOL    HW219464   3.913   0.995   9.218
 6338SOL     OW19465   4.359   0.199   8.942
 6338SOL    HW119466   4.451   0.223   8.944
 6338SOL    HW219467   4.344   0.157   9.027
 6339SOL     OW19468   3.807   0.320   7.491
 6339SOL    HW119469   3.738   0.265   7.455
 6339SOL    HW219470   3.810   0.397   7.434
 6340SOL     OW19471   3.784   0.193   7.746
 6340SOL    HW119472   3.789   0.258   7.676
 6340SOL    HW219473   3.860   0.136   7.730
 6341SOL     OW19474   4.346   0.844   8.895
 6341SOL    HW119475   4.375   0.931   8.868
 6341SOL    HW219476   4.426   0.803   8.930
 6342SOL     OW19477   4.370   0.574   9.176
 6342SOL    HW119478   4.405   0.642   9.233
 6342SOL    HW219479   4.447   0.532   9.139
 6343SOL     OW19480   4.099   1.744   9.011
 6343SOL    HW119481   4.018   1.792   8.995
 6343SOL    HW219482   4.072   1.663   9.054
 6344SOL     OW19483   4.306   0.726   8.121
 6344SOL    HW119484   4.347   0.811   8.101
 6344SOL    HW219485   4.238   0.716   8.054
 6345SOL     OW19486   3.934   1.301   9.294
 6345SOL    HW119487   3.887   1.226   9.256
 6345SOL    HW219488   3.894   1.313   9.380
 6346SOL     OW19489   3.822   1.226   8.113
 6346SOL    HW119490   3.840   1.183   8.196
 6346SOL    HW219491   3.885   1.188   8.052
 6347SOL     OW19492   4.437   1.388   9.142
 6347SOL    HW119493   4.350   1.363   9.113
 6347SOL    HW219494   4.436   1.484   9.141
 6348SOL     OW19495   4.168   0.432   7.989
 6348SOL    HW119496   4.185   0.368   7.919
 6348SOL    HW219497   4.108   0.387   8.048
 6349SOL     OW19498   4.059   0.566   8.734
 6349SOL    HW119499   4.110   0.505   8.788
 6349SOL    HW219500   4.080   0.540   8.644
 6350SOL     OW19501   0.030   1.624   8.139
 6350SOL    HW119502   0.052   1.696   8.081
 6350SOL    HW219503   4.470   1.569   8.088
 6351SOL     OW19504   3.765   1.061   7.756
 6351SOL    HW119505   3.858   1.052   7.737
 6351SOL    HW219506   3.736   0.972   7.778
 6352SOL     OW19507   3.940   0.623   9.440
 6352SOL    HW119508   3.853   0.615   9.480
 6352SOL    HW219509   3.926   0.598   9.349
 6353SOL     OW19510   3.921   0.318  10.303
 6353SOL    HW119511   3.959   0.283  10.384
 6353SOL    HW219512   3.844   0.263  10.287
 6354SOL     OW19513   3.726   0.398   9.942
 6354SOL    HW119514   3.640   0.413   9.982
 6354SOL    HW219515   3.711   0.328   9.879
 6355SOL     OW19516   4.269   1.218  10.455
 6355SOL    HW119517   4.208   1.289  10.433
 6355SOL    HW219518   4.339   1.261  10.504
 6356SOL     OW19519   0.023   0.808   0.084
 6356SOL    HW119520   0.112   0.836   0.108
 6356SOL    HW219521   0.028   0.793  11.089
 6357SOL     OW19522   4.408   0.981   9.922
 6357SOL    HW119523   4.478   0.968   9.985
 6357SOL    HW219524   4.347   1.041   9.965
 6358SOL     OW19525   4.071   1.422  10.379
 6358SOL    HW119526   3.996   1.378  10.339
 6358SOL    HW219527   4.109   1.473  10.308
 6359SOL     OW19528   4.176   0.402  10.782
 6359SOL    HW119529   4.246   0.339  10.798
 6359SOL    HW219530   4.096   0.354  10.807
 6360SOL     OW19531   3.940   1.718   9.778
 6360SOL    HW119532   3.959   1.792   9.836
 6360SOL    HW219533   4.018   1.709   9.724
 6361SOL     OW19534   3.957   1.448   9.848
 6361SOL    HW119535   3.933   1.540   9.852
 6361SOL    HW219536   3.902   1.406   9.914
 6362SOL     OW19537   3.986   1.089  10.191
 6362SOL    HW119538   3.990   1.003  10.232
 6362SOL    HW219539   3.938   1.143  10.253
 6363SOL     OW19540   4.354   1.817  10.745
 6363SOL    HW119541   4.268   1.788  10.777
 6363SOL    HW219542   4.357   1.910  10.766
 6364SOL     OW19543   4.306   0.985   9.460
 6364SOL    HW119544   4.340   1.030   9.382
 6364SOL    HW219545   4.372   1.001   9.527
 6365SOL     OW19546   3.845   0.657   9.873
 6365SOL    HW119547   3.811   0.571   9.896
 6365SOL    HW219548   3.836   0.708   9.953
 6366SOL     OW19549   3.768   1.587   9.428
 6366SOL    HW119550   3.747   1.496   9.448
 6366SOL    HW219551   3.740   1.636   9.506
 6367SOL     OW19552   3.854   0.726  10.925
 6367SOL    HW119553   3.945   0.748  10.907
 6367SOL    HW219554   3.806   0.808  10.911
 6368SOL     OW19555   4.302   1.389  10.046
 6368SOL    HW119556   4.268   1.300  10.043
 6368SOL    HW219557   4.307   1.415   9.954
 6369SOL     OW19558   0.012   0.003   9.796
 6369SOL    HW119559   0.046   0.072   9.739
 6369SOL    HW219560   4.428   0.037   9.826
 6370SOL     OW19561   3.910   0.953  10.584
 6370SOL    HW119562   3.997   0.917  10.570
 6370SOL    HW219563   3.855   0.908  10.520
 6371SOL     OW19564   4.051   0.285  11.080
 6371SOL    HW119565   4.108   0.345   0.028
 6371SOL    HW219566   3.968   0.289   0.026
 6372SOL     OW19567   4.308   0.719   9.577
 6372SOL    HW119568   4.304   0.804   9.534
 6372SOL    HW219569   4.247   0.725   9.650
 6373SOL     OW19570   3.812   0.825  10.087
 6373SOL    HW119571   3.892   0.816  10.139
 6373SOL    HW219572   3.768   0.902  10.124
 6374SOL     OW19573   3.862   1.868  10.901
 6374SOL    HW119574   3.853   1.831  10.989
 6374SOL    HW219575   3.789   1.830  10.852
 6375SOL     OW19576   4.228   0.208  10.221
 6375SOL    HW119577   4.280   0.223  10.299
 6375SOL    HW219578   4.257   0.276  10.159
 6376SOL     OW19579   4.083   1.819  10.184
 6376SOL    HW119580   4.138   1.742  10.192
 6376SOL    HW219581   4.143   1.893  10.193
 6377SOL     OW19582   4.034   0.964   9.565
 6377SOL    HW119583   4.120   0.982   9.527
 6377SOL    HW219584   4.009   0.880   9.527
 6378SOL     OW19585   4.169   1.262  11.059
 6378SOL    HW119586   4.143   1.285  10.970
 6378SOL    HW219587   4.106   1.196  11.087
 6379SOL     OW19588   3.931   0.270  10.829
 6379SOL    HW119589   3.861   0.335  10.831
 6379SOL    HW219590   3.964   0.268  10.918
 6380SOL     OW19591   4.189   1.731   9.636
 6380SOL    HW119592   4.226   1.794   9.698
 6380SOL    HW219593   4.258   1.717   9.572
 6381SOL     OW19594   3.982   1.793  10.534
 6381SOL    HW119595   4.025   1.716  10.571
 6381SOL    HW219596   3.967   1.771  10.442
 6382SOL     OW19597   4.117   0.687   9.781
 6382SOL    HW119598   4.137   0.596   9.800
 6382SOL    HW219599   4.024   0.696   9.800
 6383SOL     OW19600   4.330   0.115   9.427
 6383SOL    HW119601   4.414   0.071   9.438
 6383SOL    HW219602   4.307   0.103   9.335
 6384SOL     OW19603   0.026   1.416  10.208
 6384SOL    HW119604   0.063   1.487  10.156
 6384SOL    HW219605   4.450   1.387  10.157
 6385SOL     OW19606   4.278   0.120   9.858
 6385SOL    HW119607   4.194   0.087   9.891
 6385SOL    HW219608   4.255   0.167   9.778
 6386SOL     OW19609   4.018   0.052   9.523
 6386SOL    HW119610   4.093   0.110   9.509
 6386SOL    HW219611   4.045   4.495   9.595
 6387SOL     OW19612   0.301   0.675  10.798
 6387SOL    HW119613   0.320   0.604  10.736
 6387SOL    HW219614   0.379   0.680  10.852
 6388SOL     OW19615   4.195   1.140  10.023
 6388SOL    HW119616   4.133   1.120  10.093
 6388SOL    HW219617   4.145   1.131   9.942
 6389SOL     OW19618   3.815   0.539  10.721
 6389SOL    HW119619   3.903   0.551  10.685
 6389SOL    HW219620   3.809   0.603  10.792
 6390SOL     OW19621   4.302   0.235  10.489
 6390SOL    HW119622   4.280   0.143  10.502
 6390SOL    HW219623   4.221   0.282  10.509
 6391SOL     OW19624   4.232   1.381   9.484
 6391SOL    HW119625   4.147   1.366   9.527
 6391SOL    HW219626   4.212   1.385   9.391
 6392SOL     OW19627   4.231   0.267   9.631
 6392SOL    HW119628   4.279   0.214   9.567
 6392SOL    HW219629   4.210   0.348   9.584
 6393SOL     OW19630   4.150   0.819  10.563
 6393SOL    HW119631   4.219   0.823  10.629
 6393SOL    HW219632   4.113   0.731  10.573
 6394SOL     OW19633   3.800   1.581  10.675
 6394SOL    HW119634   3.767   1.644  10.611
 6394SOL    HW219635   3.895   1.579  10.661
 6395SOL     OW19636   4.042   1.125   9.796
 6395SOL    HW119637   4.042   1.198   9.735
 6395SOL    HW219638   4.045   1.047   9.740
 6396SOL     OW19639   4.314   0.528  10.175
 6396SOL    HW119640   4.312   0.602  10.114
 6396SOL    HW219641   4.382   0.552  10.239
 6397SOL     OW19642   4.072   1.540  10.620
 6397SOL    HW119643   4.071   1.492  10.538
 6397SOL    HW219644   4.164   1.544  10.645
 6398SOL     OW19645   4.138   0.725  10.895
 6398SOL    HW119646   4.207   0.769  10.845
 6398SOL    HW219647   4.155   0.632  10.883
 6399SOL     OW19648   4.277   0.917  10.336
 6399SOL    HW119649   4.294   1.009  10.354
 6399SOL    HW219650   4.240   0.883  10.418
 6400SOL     OW19651   4.013   0.236  10.552
 6400SOL    HW119652   3.974   0.249  10.638
 6400SOL    HW219653   4.057   0.151  10.557
 6401SOL     OW19654   3.783   1.319  10.578
 6401SOL    HW119655   3.806   1.257  10.647
 6401SOL    HW219656   3.775   1.403  10.623
 6402SOL     OW19657   4.013   0.042   9.953
 6402SOL    HW119658   3.995   0.136   9.957
 6402SOL    HW219659   4.022   0.016  10.045
 6403SOL     OW19660   4.085   0.906  11.094
 6403SOL    HW119661   4.167   0.929   0.037
 6403SOL    HW219662   4.109   0.840  11.029
 6404SOL     OW19663   4.031   0.810  10.254
 6404SOL    HW119664   4.121   0.843  10.258
 6404SOL    HW219665   4.038   0.719  10.283
 6405SOL     OW19666   4.081   0.538  10.323
 6405SOL    HW119667   4.031   0.459  10.300
 6405SOL    HW219668   4.161   0.531  10.270
 6406SOL     OW19669   3.735   1.313   9.502
 6406SOL    HW119670   3.647   1.331   9.469
 6406SOL    HW219671   3.729   1.225   9.539
 6407SOL     OW19672   3.820   1.779  10.254
 6407SOL    HW119673   3.788   1.704  10.205
 6407SOL    HW219674   3.909   1.794  10.221
 6408SOL     OW19675   4.235   1.590  10.216
 6408SOL    HW119676   4.321   1.608  10.254
 6408SOL    HW219677   4.251   1.523  10.150
 6409SOL     OW19678   3.754   0.544  10.434
 6409SOL    HW119679   3.820   0.504  10.376
 6409SOL    HW219680   3.796   0.545  10.520
 6410SOL     OW19681   0.022   0.543   9.577
 6410SOL    HW119682   0.037   0.531   9.671
 6410SOL    HW219683   4.449   0.604   9.572
 6411SOL     OW19684   3.981   1.566  11.037
 6411SOL    HW119685   3.919   1.583   0.008
 6411SOL    HW219686   4.005   1.474  11.047
 6412SOL     OW19687   4.177   0.491   9.488
 6412SOL    HW119688   4.237   0.563   9.509
 6412SOL    HW219689   4.092   0.533   9.476
 6413SOL     OW19690   3.870   1.140  10.775
 6413SOL    HW119691   3.867   1.092  10.858
 6413SOL    HW219692   3.884   1.072  10.709
 6414SOL     OW19693   3.819   1.271  10.316
 6414SOL    HW119694   3.801   1.286  10.409
 6414SOL    HW219695   3.749   1.212  10.288
 6415SOL     OW19696   4.369   1.652  10.984
 6415SOL    HW119697   4.282   1.688  10.968
 6415SOL    HW219698   4.411   1.650  10.898
 6416SOL     OW19699   3.978   0.310  10.018
 6416SOL    HW119700   3.894   0.351   9.997
 6416SOL    HW219701   3.981   0.309  10.114
 6417SOL     OW19702   4.068   1.325  10.820
 6417SOL    HW119703   4.058   1.393  10.753
 6417SOL    HW219704   4.003   1.259  10.796
 6418SOL     OW19705   4.328   1.492   9.789
 6418SOL    HW119706   4.344   1.433   9.716
 6418SOL    HW219707   4.259   1.550   9.759
 6419SOL     OW19708   3.990   1.340   9.608
 6419SOL    HW119709   3.899   1.336   9.579
 6419SOL    HW219710   3.986   1.385   9.692
 6420SOL     OW19711   3.852   1.021  11.018
 6420SOL    HW119712   3.785   1.015  11.085
 6420SOL    HW219713   3.929   0.980  11.056
 6421SOL     OW19714   4.356   0.190  10.821
 6421SOL    HW119715   4.406   0.204  10.740
 6421SOL    HW219716   4.420   0.204  10.890
 6422SOL     OW19717   3.808   0.320   9.353
 6422SOL    HW119718   3.738   0.265   9.317
 6422SOL    HW219719   3.810   0.397   9.296
 6423SOL     OW19720   3.784   0.193   9.608
 6423SOL    HW119721   3.789   0.258   9.538
 6423SOL    HW219722   3.860   0.136   9.592
 6424SOL     OW19723   4.347   0.841  10.755
 6424SOL    HW119724   4.374   0.928  10.726
 6424SOL    HW219725   4.425   0.804  10.797
 6425SOL     OW19726   4.121   1.741  10.884
 6425SOL    HW119727   4.051   1.805  10.870
 6425SOL    HW219728   4.079   1.670  10.933
 6426SOL     OW19729   4.307   0.725   9.984
 6426SOL    HW119730   4.348   0.810   9.964
 6426SOL    HW219731   4.239   0.715   9.918
 6427SOL     OW19732   3.821   1.226   9.975
 6427SOL    HW119733   3.839   1.184  10.059
 6427SOL    HW219734   3.885   1.188   9.915
 6428SOL     OW19735   4.424   1.378  10.986
 6428SOL    HW119736   4.336   1.341  10.995
 6428SOL    HW219737   4.412   1.472  11.000
 6429SOL     OW19738   4.168   0.431   9.851
 6429SOL    HW119739   4.185   0.368   9.781
 6429SOL    HW219740   4.108   0.387   9.910
 6430SOL     OW19741   4.056   0.564  10.597
 6430SOL    HW119742   4.111   0.504  10.647
 6430SOL    HW219743   4.074   0.542  10.505
 6431SOL     OW19744   0.030   1.624  10.001
 6431SOL    HW119745   0.052   1.696   9.942
 6431SOL    HW219746   4.470   1.569   9.950
 6432SOL     OW19747   3.765   1.061   9.618
 6432SOL    HW119748   3.858   1.052   9.599
 6432SOL    HW219749   3.736   0.972   9.640
 6433SOL     OW19750   3.911   2.464   0.094
 6433SOL    HW119751   3.832   2.478   0.146
 6433SOL    HW219752   3.897   2.515   0.014
 6434SOL     OW19753   3.945   2.159   0.993
 6434SOL    HW119754   3.977   2.121   1.075
 6434SOL    HW219755   3.858   2.121   0.982
 6435SOL     OW19756   3.717   2.250   0.638
 6435SOL    HW119757   3.636   2.275   0.683
 6435SOL    HW219758   3.693   2.173   0.587
 6436SOL     OW19759   4.269   3.079   1.142
 6436SOL    HW119760   4.208   3.150   1.122
 6436SOL    HW219761   4.338   3.120   1.193
 6437SOL     OW19762   0.011   2.637   1.854
 6437SOL    HW119763   0.064   2.655   1.931
 6437SOL    HW219764   0.048   2.693   1.786
 6438SOL     OW19765   4.402   2.842   0.611
 6438SOL    HW119766   4.478   2.840   0.669
 6438SOL    HW219767   4.341   2.903   0.654
 6439SOL     OW19768   4.415   3.009   1.806
 6439SOL    HW119769   4.452   3.091   1.775
 6439SOL    HW219770   4.321   3.016   1.788
 6440SOL     OW19771   4.069   3.284   1.069
 6440SOL    HW119772   3.995   3.240   1.028
 6440SOL    HW219773   4.109   3.335   0.998
 6441SOL     OW19774   4.169   2.255   1.468
 6441SOL    HW119775   4.245   2.197   1.478
 6441SOL    HW219776   4.094   2.201   1.491
 6442SOL     OW19777   3.938   3.579   0.471
 6442SOL    HW119778   3.958   3.655   0.526
 6442SOL    HW219779   4.014   3.573   0.412
 6443SOL     OW19780   3.948   3.309   0.531
 6443SOL    HW119781   3.930   3.403   0.533
 6443SOL    HW219782   3.894   3.273   0.602
 6444SOL     OW19783   3.986   2.951   0.883
 6444SOL    HW119784   3.988   2.864   0.923
 6444SOL    HW219785   3.937   3.004   0.946
 6445SOL     OW19786   4.358   3.656   1.460
 6445SOL    HW119787   4.266   3.634   1.475
 6445SOL    HW219788   4.360   3.751   1.456
 6446SOL     OW19789   4.289   2.882   0.144
 6446SOL    HW119790   4.296   2.962   0.092
 6446SOL    HW219791   4.373   2.876   0.190
 6447SOL     OW19792   3.839   2.516   0.563
 6447SOL    HW119793   3.805   2.429   0.586
 6447SOL    HW219794   3.831   2.567   0.643
 6448SOL     OW19795   3.782   3.450   0.112
 6448SOL    HW119796   3.756   3.364   0.143
 6448SOL    HW219797   3.754   3.510   0.181
 6449SOL     OW19798   3.847   2.606   1.584
 6449SOL    HW119799   3.936   2.640   1.585
 6449SOL    HW219800   3.792   2.684   1.579
 6450SOL     OW19801   4.302   3.252   0.737
 6450SOL    HW119802   4.270   3.162   0.735
 6450SOL    HW219803   4.307   3.277   0.645
 6451SOL     OW19804   0.016   1.869   0.539
 6451SOL    HW119805   0.050   1.920   0.465
 6451SOL    HW219806   4.422   1.884   0.537
 6452SOL     OW19807   3.910   2.818   1.286
 6452SOL    HW119808   3.997   2.782   1.271
 6452SOL    HW219809   3.855   2.776   1.219
 6453SOL     OW19810   4.073   2.111   1.836
 6453SOL    HW119811   4.112   2.194   1.862
 6453SOL    HW219812   3.979   2.122   1.853
 6454SOL     OW19813   4.303   2.561   0.261
 6454SOL    HW119814   4.339   2.643   0.228
 6454SOL    HW219815   4.250   2.587   0.337
 6455SOL     OW19816   3.810   2.688   0.776
 6455SOL    HW119817   3.891   2.678   0.826
 6455SOL    HW219818   3.767   2.764   0.814
 6456SOL     OW19819   3.853   3.736   1.585
 6456SOL    HW119820   3.857   3.713   1.678
 6456SOL    HW219821   3.771   3.696   1.555
 6457SOL     OW19822   4.241   2.047   0.884
 6457SOL    HW119823   4.263   2.053   0.977
 6457SOL    HW219824   4.253   2.135   0.850
 6458SOL     OW19825   4.082   3.680   0.874
 6458SOL    HW119826   4.137   3.603   0.882
 6458SOL    HW219827   4.142   3.754   0.883
 6459SOL     OW19828   4.038   2.832   0.281
 6459SOL    HW119829   4.119   2.854   0.236
 6459SOL    HW219830   4.020   2.741   0.257
 6460SOL     OW19831   4.176   3.116   1.733
 6460SOL    HW119832   4.151   3.131   1.642
 6460SOL    HW219833   4.094   3.123   1.782
 6461SOL     OW19834   3.926   2.127   1.502
 6461SOL    HW119835   3.848   2.180   1.515
 6461SOL    HW219836   3.903   2.041   1.538
 6462SOL     OW19837   4.189   3.584   0.330
 6462SOL    HW119838   4.226   3.651   0.387
 6462SOL    HW219839   4.259   3.566   0.267
 6463SOL     OW19840   3.978   3.655   1.224
 6463SOL    HW119841   4.024   3.578   1.258
 6463SOL    HW219842   3.964   3.635   1.132
 6464SOL     OW19843   4.111   2.550   0.474
 6464SOL    HW119844   4.134   2.459   0.490
 6464SOL    HW219845   4.018   2.556   0.497
 6465SOL     OW19846   4.376   2.007   0.101
 6465SOL    HW119847   4.444   1.952   0.141
 6465SOL    HW219848   4.328   1.947   0.043
 6466SOL     OW19849   0.027   3.278   0.898
 6466SOL    HW119850   0.063   3.350   0.846
 6466SOL    HW219851   4.451   3.248   0.849
 6467SOL     OW19852   4.255   1.928   0.490
 6467SOL    HW119853   4.176   1.931   0.544
 6467SOL    HW219854   4.250   2.006   0.436
 6468SOL     OW19855   4.003   1.909   0.208
 6468SOL    HW119856   4.043   1.968   0.144
 6468SOL    HW219857   4.071   1.845   0.228
 6469SOL     OW19858   0.329   2.530   1.452
 6469SOL    HW119859   0.325   2.457   1.390
 6469SOL    HW219860   0.405   2.511   1.507
 6470SOL     OW19861   4.196   3.002   0.718
 6470SOL    HW119862   4.135   2.982   0.789
 6470SOL    HW219863   4.144   2.998   0.638
 6471SOL     OW19864   3.810   2.414   1.392
 6471SOL    HW119865   3.902   2.415   1.364
 6471SOL    HW219866   3.806   2.483   1.459
 6472SOL     OW19867   4.279   2.067   1.152
 6472SOL    HW119868   4.329   2.027   1.223
 6472SOL    HW219869   4.190   2.075   1.187
 6473SOL     OW19870   4.243   3.244   0.198
 6473SOL    HW119871   4.158   3.236   0.240
 6473SOL    HW219872   4.227   3.221   0.106
 6474SOL     OW19873   4.245   2.137   0.316
 6474SOL    HW119874   4.294   2.089   0.249
 6474SOL    HW219875   4.210   2.213   0.270
 6475SOL     OW19876   4.148   2.680   1.258
 6475SOL    HW119877   4.218   2.684   1.324
 6475SOL    HW219878   4.113   2.592   1.266
 6476SOL     OW19879   3.799   3.436   1.359
 6476SOL    HW119880   3.766   3.503   1.300
 6476SOL    HW219881   3.894   3.439   1.348
 6477SOL     OW19882   4.037   3.000   0.497
 6477SOL    HW119883   4.038   3.074   0.437
 6477SOL    HW219884   4.041   2.923   0.441
 6478SOL     OW19885   4.308   2.391   0.869
 6478SOL    HW119886   4.309   2.462   0.806
 6478SOL    HW219887   4.379   2.412   0.930
 6479SOL     OW19888   4.072   3.403   1.308
 6479SOL    HW119889   4.071   3.356   1.225
 6479SOL    HW219890   4.164   3.404   1.335
 6480SOL     OW19891   4.146   2.600   1.611
 6480SOL    HW119892   4.207   2.641   1.549
 6480SOL    HW219893   4.190   2.519   1.638
 6481SOL     OW19894   4.237   1.915   1.734
 6481SOL    HW119895   4.187   1.857   1.677
 6481SOL    HW219896   4.175   1.983   1.760
 6482SOL     OW19897   4.275   2.777   1.029
 6482SOL    HW119898   4.292   2.870   1.045
 6482SOL    HW219899   4.238   2.745   1.111
 6483SOL     OW19900   4.019   2.061   1.244
 6483SOL    HW119901   3.983   2.092   1.327
 6483SOL    HW219902   4.001   1.967   1.243
 6484SOL     OW19903   3.772   3.174   1.273
 6484SOL    HW119904   3.801   3.117   1.344
 6484SOL    HW219905   3.774   3.262   1.310
 6485SOL     OW19906   4.021   1.925   0.630
 6485SOL    HW119907   4.000   2.016   0.651
 6485SOL    HW219908   4.036   1.883   0.714
 6486SOL     OW19909   4.072   2.774   1.810
 6486SOL    HW119910   4.151   2.787   1.862
 6486SOL    HW219911   4.097   2.710   1.744
 6487SOL     OW19912   4.030   2.671   0.943
 6487SOL    HW119913   4.120   2.704   0.950
 6487SOL    HW219914   4.035   2.579   0.970
 6488SOL     OW19915   4.070   2.397   1.007
 6488SOL    HW119916   4.030   2.311   0.993
 6488SOL    HW219917   4.152   2.394   0.958
 6489SOL     OW19918   3.735   3.184   0.192
 6489SOL    HW119919   3.648   3.198   0.155
 6489SOL    HW219920   3.733   3.095   0.226
 6490SOL     OW19921   3.820   3.639   0.948
 6490SOL    HW119922   3.788   3.564   0.898
 6490SOL    HW219923   3.908   3.655   0.913
 6491SOL     OW19924   4.234   3.451   0.907
 6491SOL    HW119925   4.320   3.470   0.945
 6491SOL    HW219926   4.251   3.384   0.841
 6492SOL     OW19927   3.759   2.413   1.116
 6492SOL    HW119928   3.838   2.400   1.064
 6492SOL    HW219929   3.791   2.413   1.207
 6493SOL     OW19930   3.914   2.386   1.735
 6493SOL    HW119931   3.975   2.346   1.673
 6493SOL    HW219932   3.879   2.462   1.688
 6494SOL     OW19933   0.023   2.393   0.262
 6494SOL    HW119934   0.040   2.389   0.357
 6494SOL    HW219935   4.448   2.451   0.254
 6495SOL     OW19936   3.962   3.413   1.719
 6495SOL    HW119937   3.938   3.478   1.784
 6495SOL    HW219938   3.964   3.330   1.766
 6496SOL     OW19939   4.159   2.349   0.163
 6496SOL    HW119940   4.216   2.420   0.192
 6496SOL    HW219941   4.076   2.391   0.144
 6497SOL     OW19942   3.860   3.005   1.476
 6497SOL    HW119943   3.864   2.961   1.561
 6497SOL    HW219944   3.878   2.935   1.412
 6498SOL     OW19945   3.817   3.131   1.010
 6498SOL    HW119946   3.796   3.144   1.103
 6498SOL    HW219947   3.748   3.074   0.978
 6499SOL     OW19948   4.390   3.516   1.693
 6499SOL    HW119949   4.359   3.590   1.745
 6499SOL    HW219950   4.386   3.546   1.603
 6500SOL     OW19951   3.870   3.656   1.843
 6500SOL    HW119952   3.819   3.590   1.890
 6500SOL    HW219953   3.914   3.706   1.912
 6501SOL     OW19954   3.976   2.180   0.712
 6501SOL    HW119955   3.888   2.213   0.691
 6501SOL    HW219956   3.977   2.175   0.808
 6502SOL     OW19957   4.080   3.174   1.488
 6502SOL    HW119958   4.060   3.249   1.432
 6502SOL    HW219959   4.008   3.113   1.475
 6503SOL     OW19960   4.323   3.356   0.481
 6503SOL    HW119961   4.336   3.300   0.404
 6503SOL    HW219962   4.254   3.418   0.455
 6504SOL     OW19963   3.993   3.200   0.294
 6504SOL    HW119964   3.908   3.199   0.251
 6504SOL    HW219965   3.977   3.247   0.376
 6505SOL     OW19966   3.841   2.907   1.734
 6505SOL    HW119967   3.763   2.876   1.780
 6505SOL    HW219968   3.913   2.857   1.771
 6506SOL     OW19969   4.378   2.065   1.492
 6506SOL    HW119970   4.467   2.088   1.466
 6506SOL    HW219971   4.384   2.052   1.587
 6507SOL     OW19972   3.810   2.191   0.049
 6507SOL    HW119973   3.737   2.182  11.087
 6507SOL    HW219974   3.826   2.286   0.053
 6508SOL     OW19975   3.776   2.020   0.300
 6508SOL    HW119976   3.766   2.092   0.237
 6508SOL    HW219977   3.861   1.982   0.280
 6509SOL     OW19978   4.349   2.703   1.447
 6509SOL    HW119979   4.377   2.790   1.422
 6509SOL    HW219980   4.428   2.661   1.482
 6510SOL     OW19981   4.377   2.426   1.737
 6510SOL    HW119982   4.406   2.499   1.792
 6510SOL    HW219983   4.457   2.394   1.695
 6511SOL     OW19984   4.101   3.607   1.562
 6511SOL    HW119985   4.019   3.654   1.547
 6511SOL    HW219986   4.074   3.526   1.605
 6512SOL     OW19987   4.306   2.586   0.675
 6512SOL    HW119988   4.346   2.671   0.656
 6512SOL    HW219989   4.236   2.577   0.610
 6513SOL     OW19990   3.934   3.163   1.846
 6513SOL    HW119991   3.887   3.088   1.808
 6513SOL    HW219992   3.894   3.175   1.932
 6514SOL     OW19993   3.821   3.087   0.668
 6514SOL    HW119994   3.842   3.043   0.750
 6514SOL    HW219995   3.887   3.056   0.607
 6515SOL     OW19996   4.437   3.250   1.693
 6515SOL    HW119997   4.349   3.224   1.665
 6515SOL    HW219998   4.435   3.346   1.693
 6516SOL     OW19999   4.166   2.293   0.539
 6516SOL    HW120000   4.185   2.227   0.471
 6516SOL    HW220001   4.104   2.250   0.598
 6517SOL     OW20002   4.059   2.423   1.286
 6517SOL    HW120003   4.110   2.365   1.342
 6517SOL    HW220004   4.080   2.396   1.197
 6518SOL     OW20005   0.031   3.482   0.692
 6518SOL    HW120006   0.056   3.555   0.635
 6518SOL    HW220007   4.469   3.432   0.640
 6519SOL     OW20008   3.764   2.925   0.301
 6519SOL    HW120009   3.859   2.921   0.297
 6519SOL    HW220010   3.737   2.836   0.324
 6520SOL     OW20011   3.940   2.487   1.995
 6520SOL    HW120012   3.852   2.480   2.031
 6520SOL    HW220013   3.931   2.464   1.903
 6521SOL     OW20014   3.945   2.159   2.854
 6521SOL    HW120015   3.977   2.121   2.936
 6521SOL    HW220016   3.858   2.121   2.843
 6522SOL     OW20017   3.717   2.249   2.501
 6522SOL    HW120018   3.636   2.276   2.546
 6522SOL    HW220019   3.691   2.172   2.451
 6523SOL     OW20020   4.269   3.079   3.003
 6523SOL    HW120021   4.208   3.150   2.984
 6523SOL    HW220022   4.338   3.120   3.055
 6524SOL     OW20023   0.011   2.637   3.716
 6524SOL    HW120024   0.064   2.655   3.793
 6524SOL    HW220025   0.048   2.694   3.648
 6525SOL     OW20026   4.408   2.843   2.474
 6525SOL    HW120027   4.478   2.828   2.538
 6525SOL    HW220028   4.348   2.903   2.517
 6526SOL     OW20029   4.415   3.009   3.668
 6526SOL    HW120030   4.452   3.091   3.637
 6526SOL    HW220031   4.321   3.016   3.650
 6527SOL     OW20032   4.069   3.284   2.931
 6527SOL    HW120033   3.994   3.240   2.890
 6527SOL    HW220034   4.108   3.335   2.860
 6528SOL     OW20035   4.169   2.255   3.330
 6528SOL    HW120036   4.245   2.197   3.339
 6528SOL    HW220037   4.094   2.201   3.353
 6529SOL     OW20038   3.940   3.580   2.331
 6529SOL    HW120039   3.959   3.654   2.388
 6529SOL    HW220040   4.018   3.571   2.277
 6530SOL     OW20041   3.957   3.310   2.400
 6530SOL    HW120042   3.934   3.403   2.403
 6530SOL    HW220043   3.902   3.269   2.467
 6531SOL     OW20044   3.986   2.951   2.743
 6531SOL    HW120045   3.990   2.864   2.783
 6531SOL    HW220046   3.938   3.004   2.806
 6532SOL     OW20047   4.358   3.656   3.322
 6532SOL    HW120048   4.266   3.634   3.337
 6532SOL    HW220049   4.360   3.751   3.318
 6533SOL     OW20050   4.306   2.847   2.012
 6533SOL    HW120051   4.340   2.891   1.934
 6533SOL    HW220052   4.372   2.863   2.080
 6534SOL     OW20053   3.844   2.516   2.425
 6534SOL    HW120054   3.808   2.430   2.447
 6534SOL    HW220055   3.835   2.567   2.505
 6535SOL     OW20056   3.767   3.449   1.980
 6535SOL    HW120057   3.746   3.358   2.000
 6535SOL    HW220058   3.739   3.498   2.058
 6536SOL     OW20059   3.847   2.606   3.446
 6536SOL    HW120060   3.936   2.640   3.447
 6536SOL    HW220061   3.792   2.684   3.441
 6537SOL     OW20062   4.302   3.251   2.597
 6537SOL    HW120063   4.268   3.162   2.595
 6537SOL    HW220064   4.307   3.277   2.505
 6538SOL     OW20065   0.022   1.871   2.387
 6538SOL    HW120066   0.052   1.926   2.314
 6538SOL    HW220067   4.428   1.886   2.391
 6539SOL     OW20068   3.910   2.818   3.148
 6539SOL    HW120069   3.997   2.782   3.133
 6539SOL    HW220070   3.855   2.776   3.081
 6540SOL     OW20071   4.073   2.111   3.698
 6540SOL    HW120072   4.112   2.194   3.724
 6540SOL    HW220073   3.979   2.122   3.715
 6541SOL     OW20074   4.307   2.581   2.130
 6541SOL    HW120075   4.302   2.667   2.087
 6541SOL    HW220076   4.245   2.588   2.203
 6542SOL     OW20077   3.811   2.686   2.639
 6542SOL    HW120078   3.892   2.677   2.690
 6542SOL    HW220079   3.768   2.763   2.675
 6543SOL     OW20080   3.853   3.736   3.447
 6543SOL    HW120081   3.857   3.713   3.540
 6543SOL    HW220082   3.770   3.697   3.417
 6544SOL     OW20083   4.241   2.046   2.745
 6544SOL    HW120084   4.263   2.053   2.838
 6544SOL    HW220085   4.253   2.134   2.711
 6545SOL     OW20086   4.081   3.680   2.736
 6545SOL    HW120087   4.137   3.602   2.744
 6545SOL    HW220088   4.142   3.753   2.745
 6546SOL     OW20089   4.035   2.826   2.118
 6546SOL    HW120090   4.120   2.845   2.079
 6546SOL    HW220091   4.009   2.743   2.079
 6547SOL     OW20092   4.176   3.116   3.595
 6547SOL    HW120093   4.151   3.131   3.503
 6547SOL    HW220094   4.094   3.123   3.644
 6548SOL     OW20095   3.927   2.127   3.364
 6548SOL    HW120096   3.848   2.180   3.376
 6548SOL    HW220097   3.904   2.041   3.399
 6549SOL     OW20098   4.190   3.593   2.189
 6549SOL    HW120099   4.226   3.655   2.252
 6549SOL    HW220100   4.258   3.584   2.122
 6550SOL     OW20101   3.978   3.655   3.086
 6550SOL    HW120102   4.023   3.578   3.121
 6550SOL    HW220103   3.964   3.635   2.994
 6551SOL     OW20104   4.117   2.547   2.335
 6551SOL    HW120105   4.138   2.455   2.353
 6551SOL    HW220106   4.024   2.554   2.353
 6552SOL     OW20107   4.338   1.962   1.987
 6552SOL    HW120108   4.433   1.950   1.990
 6552SOL    HW220109   4.314   1.943   1.896
 6553SOL     OW20110   0.026   3.278   2.760
 6553SOL    HW120111   0.063   3.349   2.707
 6553SOL    HW220112   4.450   3.249   2.710
 6554SOL     OW20113   4.258   1.929   2.360
 6554SOL    HW120114   4.179   1.931   2.414
 6554SOL    HW220115   4.251   2.006   2.304
 6555SOL     OW20116   4.016   1.910   2.049
 6555SOL    HW120117   4.075   1.972   2.007
 6555SOL    HW220118   4.074   1.848   2.094
 6556SOL     OW20119   0.329   2.530   3.314
 6556SOL    HW120120   0.324   2.457   3.252
 6556SOL    HW220121   0.405   2.509   3.369
 6557SOL     OW20122   4.195   3.002   2.575
 6557SOL    HW120123   4.132   2.982   2.645
 6557SOL    HW220124   4.145   2.993   2.494
 6558SOL     OW20125   3.810   2.414   3.255
 6558SOL    HW120126   3.902   2.415   3.226
 6558SOL    HW220127   3.806   2.483   3.321
 6559SOL     OW20128   4.279   2.067   3.014
 6559SOL    HW120129   4.329   2.027   3.084
 6559SOL    HW220130   4.190   2.075   3.049
 6560SOL     OW20131   4.232   3.242   2.036
 6560SOL    HW120132   4.147   3.228   2.079
 6560SOL    HW220133   4.212   3.247   1.943
 6561SOL     OW20134   4.236   2.129   2.180
 6561SOL    HW120135   4.279   2.073   2.115
 6561SOL    HW220136   4.214   2.209   2.131
 6562SOL     OW20137   4.149   2.680   3.120
 6562SOL    HW120138   4.218   2.684   3.186
 6562SOL    HW220139   4.113   2.592   3.128
 6563SOL     OW20140   3.799   3.436   3.221
 6563SOL    HW120141   3.766   3.503   3.162
 6563SOL    HW220142   3.894   3.438   3.210
 6564SOL     OW20143   4.042   2.987   2.348
 6564SOL    HW120144   4.042   3.061   2.287
 6564SOL    HW220145   4.045   2.909   2.292
 6565SOL     OW20146   4.308   2.392   2.732
 6565SOL    HW120147   4.308   2.464   2.668
 6565SOL    HW220148   4.379   2.413   2.792
 6566SOL     OW20149   4.072   3.403   3.171
 6566SOL    HW120150   4.071   3.356   3.088
 6566SOL    HW220151   4.164   3.404   3.197
 6567SOL     OW20152   4.146   2.600   3.473
 6567SOL    HW120153   4.207   2.641   3.411
 6567SOL    HW220154   4.189   2.519   3.500
 6568SOL     OW20155   4.237   1.915   3.596
 6568SOL    HW120156   4.186   1.857   3.539
 6568SOL    HW220157   4.175   1.983   3.622
 6569SOL     OW20158   4.276   2.777   2.892
 6569SOL    HW120159   4.292   2.871   2.908
 6569SOL    HW220160   4.238   2.745   2.974
 6570SOL     OW20161   4.020   2.061   3.106
 6570SOL    HW120162   3.983   2.092   3.189
 6570SOL    HW220163   4.001   1.967   3.105
 6571SOL     OW20164   3.772   3.174   3.134
 6571SOL    HW120165   3.801   3.117   3.206
 6571SOL    HW220166   3.775   3.262   3.172
 6572SOL     OW20167   4.020   1.924   2.492
 6572SOL    HW120168   3.999   2.015   2.513
 6572SOL    HW220169   4.035   1.883   2.577
 6573SOL     OW20170   4.072   2.774   3.671
 6573SOL    HW120171   4.151   2.787   3.724
 6573SOL    HW220172   4.097   2.710   3.606
 6574SOL     OW20173   4.031   2.672   2.806
 6574SOL    HW120174   4.121   2.704   2.812
 6574SOL    HW220175   4.036   2.580   2.832
 6575SOL     OW20176   4.070   2.397   2.870
 6575SOL    HW120177   4.030   2.312   2.855
 6575SOL    HW220178   4.152   2.395   2.820
 6576SOL     OW20179   3.735   3.175   2.054
 6576SOL    HW120180   3.647   3.193   2.021
 6576SOL    HW220181   3.729   3.087   2.091
 6577SOL     OW20182   3.820   3.639   2.809
 6577SOL    HW120183   3.787   3.564   2.760
 6577SOL    HW220184   3.908   3.655   2.775
 6578SOL     OW20185   4.234   3.450   2.769
 6578SOL    HW120186   4.320   3.469   2.807
 6578SOL    HW220187   4.251   3.384   2.702
 6579SOL     OW20188   3.759   2.413   2.978
 6579SOL    HW120189   3.838   2.400   2.926
 6579SOL    HW220190   3.791   2.413   3.069
 6580SOL     OW20191   3.914   2.386   3.597
 6580SOL    HW120192   3.975   2.346   3.535
 6580SOL    HW220193   3.879   2.462   3.550
 6581SOL     OW20194   0.023   2.411   2.128
 6581SOL    HW120195   0.036   2.394   2.221
 6581SOL    HW220196   4.449   2.472   2.125
 6582SOL     OW20197   3.963   3.413   3.580
 6582SOL    HW120198   3.938   3.478   3.646
 6582SOL    HW220199   3.964   3.330   3.628
 6583SOL     OW20200   4.176   2.352   2.039
 6583SOL    HW120201   4.237   2.422   2.060
 6583SOL    HW220202   4.091   2.396   2.030
 6584SOL     OW20203   3.860   3.005   3.338
 6584SOL    HW120204   3.864   2.961   3.423
 6584SOL    HW220205   3.878   2.935   3.274
 6585SOL     OW20206   3.818   3.131   2.871
 6585SOL    HW120207   3.797   3.144   2.964
 6585SOL    HW220208   3.749   3.073   2.839
 6586SOL     OW20209   4.390   3.516   3.555
 6586SOL    HW120210   4.359   3.590   3.607
 6586SOL    HW220211   4.386   3.546   3.465
 6587SOL     OW20212   3.870   3.656   3.705
 6587SOL    HW120213   3.819   3.590   3.752
 6587SOL    HW220214   3.914   3.706   3.774
 6588SOL     OW20215   3.975   2.180   2.573
 6588SOL    HW120216   3.888   2.212   2.552
 6588SOL    HW220217   3.977   2.176   2.669
 6589SOL     OW20218   4.080   3.174   3.350
 6589SOL    HW120219   4.060   3.249   3.294
 6589SOL    HW220220   4.008   3.113   3.337
 6590SOL     OW20221   4.328   3.355   2.341
 6590SOL    HW120222   4.344   3.295   2.268
 6590SOL    HW220223   4.259   3.413   2.309
 6591SOL     OW20224   3.990   3.202   2.160
 6591SOL    HW120225   3.899   3.198   2.131
 6591SOL    HW220226   3.986   3.247   2.244
 6592SOL     OW20227   3.841   2.907   3.596
 6592SOL    HW120228   3.763   2.876   3.642
 6592SOL    HW220229   3.913   2.857   3.633
 6593SOL     OW20230   4.378   2.065   3.355
 6593SOL    HW120231   4.467   2.088   3.328
 6593SOL    HW220232   4.383   2.052   3.449
 6594SOL     OW20233   3.806   2.185   1.890
 6594SOL    HW120234   3.721   2.167   1.851
 6594SOL    HW220235   3.837   2.265   1.846
 6595SOL     OW20236   3.783   2.014   2.156
 6595SOL    HW120237   3.770   2.091   2.101
 6595SOL    HW220238   3.870   1.982   2.132
 6596SOL     OW20239   4.349   2.703   3.310
 6596SOL    HW120240   4.377   2.790   3.284
 6596SOL    HW220241   4.428   2.661   3.344
 6597SOL     OW20242   4.377   2.426   3.599
 6597SOL    HW120243   4.406   2.499   3.654
 6597SOL    HW220244   4.457   2.394   3.557
 6598SOL     OW20245   4.101   3.607   3.424
 6598SOL    HW120246   4.019   3.654   3.409
 6598SOL    HW220247   4.075   3.526   3.467
 6599SOL     OW20248   4.307   2.586   2.537
 6599SOL    HW120249   4.347   2.671   2.516
 6599SOL    HW220250   4.238   2.576   2.471
 6600SOL     OW20251   3.934   3.163   3.708
 6600SOL    HW120252   3.887   3.089   3.671
 6600SOL    HW220253   3.894   3.175   3.795
 6601SOL     OW20254   3.822   3.088   2.527
 6601SOL    HW120255   3.840   3.044   2.610
 6601SOL    HW220256   3.885   3.050   2.466
 6602SOL     OW20257   4.437   3.250   3.555
 6602SOL    HW120258   4.349   3.224   3.528
 6602SOL    HW220259   4.435   3.346   3.555
 6603SOL     OW20260   4.170   2.289   2.403
 6603SOL    HW120261   4.183   2.226   2.332
 6603SOL    HW220262   4.106   2.248   2.460
 6604SOL     OW20263   4.059   2.424   3.148
 6604SOL    HW120264   4.110   2.365   3.204
 6604SOL    HW220265   4.080   2.397   3.059
 6605SOL     OW20266   0.030   3.485   2.554
 6605SOL    HW120267   0.054   3.557   2.495
 6605SOL    HW220268   4.470   3.431   2.502
 6606SOL     OW20269   3.765   2.923   2.171
 6606SOL    HW120270   3.858   2.914   2.151
 6606SOL    HW220271   3.737   2.834   2.193
 6607SOL     OW20272   3.941   2.487   3.857
 6607SOL    HW120273   3.852   2.480   3.893
 6607SOL    HW220274   3.931   2.464   3.765
 6608SOL     OW20275   3.946   2.158   4.716
 6608SOL    HW120276   3.978   2.121   4.799
 6608SOL    HW220277   3.859   2.121   4.705
 6609SOL     OW20278   3.718   2.249   4.362
 6609SOL    HW120279   3.638   2.275   4.408
 6609SOL    HW220280   3.692   2.172   4.312
 6610SOL     OW20281   4.270   3.079   4.863
 6610SOL    HW120282   4.208   3.150   4.845
 6610SOL    HW220283   4.339   3.120   4.916
 6611SOL     OW20284   0.012   2.637   5.577
 6611SOL    HW120285   0.062   2.656   5.657
 6611SOL    HW220286   0.048   2.696   5.511
 6612SOL     OW20287   4.409   2.843   4.336
 6612SOL    HW120288   4.477   2.827   4.401
 6612SOL    HW220289   4.348   2.903   4.379
 6613SOL     OW20290   4.415   3.009   5.530
 6613SOL    HW120291   4.452   3.092   5.499
 6613SOL    HW220292   4.321   3.016   5.512
 6614SOL     OW20293   4.069   3.284   4.793
 6614SOL    HW120294   3.994   3.239   4.753
 6614SOL    HW220295   4.108   3.334   4.722
 6615SOL     OW20296   4.170   2.255   5.191
 6615SOL    HW120297   4.244   2.195   5.201
 6615SOL    HW220298   4.094   2.201   5.214
 6616SOL     OW20299   3.940   3.580   4.193
 6616SOL    HW120300   3.959   3.654   4.250
 6616SOL    HW220301   4.018   3.571   4.139
 6617SOL     OW20302   3.957   3.310   4.262
 6617SOL    HW120303   3.934   3.402   4.265
 6617SOL    HW220304   3.901   3.269   4.329
 6618SOL     OW20305   3.986   2.951   4.605
 6618SOL    HW120306   3.989   2.864   4.645
 6618SOL    HW220307   3.938   3.004   4.668
 6619SOL     OW20308   4.358   3.655   5.184
 6619SOL    HW120309   4.266   3.634   5.199
 6619SOL    HW220310   4.360   3.751   5.180
 6620SOL     OW20311   4.306   2.847   3.874
 6620SOL    HW120312   4.340   2.891   3.796
 6620SOL    HW220313   4.372   2.863   3.942
 6621SOL     OW20314   3.844   2.516   4.287
 6621SOL    HW120315   3.809   2.430   4.309
 6621SOL    HW220316   3.834   2.567   4.367
 6622SOL     OW20317   3.767   3.449   3.842
 6622SOL    HW120318   3.746   3.358   3.862
 6622SOL    HW220319   3.739   3.498   3.920
 6623SOL     OW20320   3.844   2.606   5.307
 6623SOL    HW120321   3.933   2.642   5.309
 6623SOL    HW220322   3.787   2.682   5.301
 6624SOL     OW20323   4.302   3.251   4.459
 6624SOL    HW120324   4.268   3.162   4.457
 6624SOL    HW220325   4.307   3.277   4.367
 6625SOL     OW20326   0.023   1.871   4.249
 6625SOL    HW120327   0.052   1.926   4.176
 6625SOL    HW220328   4.428   1.886   4.253
 6626SOL     OW20329   3.910   2.818   5.010
 6626SOL    HW120330   3.997   2.782   4.994
 6626SOL    HW220331   3.854   2.775   4.946
 6627SOL     OW20332   4.072   2.110   5.561
 6627SOL    HW120333   4.110   2.195   5.585
 6627SOL    HW220334   3.978   2.121   5.576
 6628SOL     OW20335   4.307   2.581   3.992
 6628SOL    HW120336   4.302   2.667   3.949
 6628SOL    HW220337   4.245   2.588   4.065
 6629SOL     OW20338   3.810   2.687   4.500
 6629SOL    HW120339   3.891   2.677   4.551
 6629SOL    HW220340   3.767   2.764   4.538
 6630SOL     OW20341   3.853   3.736   5.309
 6630SOL    HW120342   3.857   3.714   5.402
 6630SOL    HW220343   3.771   3.696   5.279
 6631SOL     OW20344   4.241   2.046   4.608
 6631SOL    HW120345   4.263   2.053   4.700
 6631SOL    HW220346   4.253   2.134   4.573
 6632SOL     OW20347   4.082   3.680   4.598
 6632SOL    HW120348   4.137   3.602   4.606
 6632SOL    HW220349   4.142   3.753   4.607
 6633SOL     OW20350   4.035   2.826   3.980
 6633SOL    HW120351   4.120   2.845   3.941
 6633SOL    HW220352   4.009   2.743   3.941
 6634SOL     OW20353   4.176   3.117   5.457
 6634SOL    HW120354   4.151   3.132   5.366
 6634SOL    HW220355   4.093   3.123   5.506
 6635SOL     OW20356   3.926   2.129   5.227
 6635SOL    HW120357   3.845   2.180   5.236
 6635SOL    HW220358   3.903   2.043   5.262
 6636SOL     OW20359   4.190   3.594   4.051
 6636SOL    HW120360   4.226   3.656   4.114
 6636SOL    HW220361   4.258   3.584   3.984
 6637SOL     OW20362   3.978   3.655   4.948
 6637SOL    HW120363   4.023   3.578   4.983
 6637SOL    HW220364   3.964   3.635   4.856
 6638SOL     OW20365   4.117   2.547   4.197
 6638SOL    HW120366   4.137   2.455   4.215
 6638SOL    HW220367   4.023   2.555   4.215
 6639SOL     OW20368   4.338   1.963   3.848
 6639SOL    HW120369   4.433   1.949   3.851
 6639SOL    HW220370   4.314   1.944   3.758
 6640SOL     OW20371   0.026   3.278   4.621
 6640SOL    HW120372   0.063   3.348   4.569
 6640SOL    HW220373   4.449   3.249   4.572
 6641SOL     OW20374   4.258   1.929   4.222
 6641SOL    HW120375   4.180   1.931   4.276
 6641SOL    HW220376   4.251   2.006   4.166
 6642SOL     OW20377   4.016   1.910   3.911
 6642SOL    HW120378   4.075   1.972   3.869
 6642SOL    HW220379   4.074   1.848   3.956
 6643SOL     OW20380   0.330   2.527   5.176
 6643SOL    HW120381   0.319   2.458   5.111
 6643SOL    HW220382   0.407   2.500   5.228
 6644SOL     OW20383   4.196   3.001   4.437
 6644SOL    HW120384   4.133   2.982   4.507
 6644SOL    HW220385   4.145   2.993   4.356
 6645SOL     OW20386   3.811   2.415   5.115
 6645SOL    HW120387   3.902   2.416   5.087
 6645SOL    HW220388   3.806   2.483   5.182
 6646SOL     OW20389   4.279   2.068   4.876
 6646SOL    HW120390   4.329   2.026   4.946
 6646SOL    HW220391   4.190   2.076   4.911
 6647SOL     OW20392   4.232   3.242   3.899
 6647SOL    HW120393   4.147   3.228   3.941
 6647SOL    HW220394   4.212   3.247   3.805
 6648SOL     OW20395   4.236   2.129   4.041
 6648SOL    HW120396   4.280   2.073   3.977
 6648SOL    HW220397   4.215   2.209   3.993
 6649SOL     OW20398   4.149   2.681   4.981
 6649SOL    HW120399   4.218   2.685   5.048
 6649SOL    HW220400   4.113   2.592   4.989
 6650SOL     OW20401   3.799   3.437   5.084
 6650SOL    HW120402   3.765   3.503   5.024
 6650SOL    HW220403   3.893   3.439   5.072
 6651SOL     OW20404   4.042   2.987   4.210
 6651SOL    HW120405   4.042   3.061   4.149
 6651SOL    HW220406   4.045   2.909   4.154
 6652SOL     OW20407   4.308   2.392   4.593
 6652SOL    HW120408   4.308   2.463   4.529
 6652SOL    HW220409   4.379   2.414   4.653
 6653SOL     OW20410   4.071   3.404   5.032
 6653SOL    HW120411   4.070   3.356   4.950
 6653SOL    HW220412   4.163   3.403   5.060
 6654SOL     OW20413   4.145   2.601   5.335
 6654SOL    HW120414   4.208   2.641   5.274
 6654SOL    HW220415   4.187   2.520   5.362
 6655SOL     OW20416   4.237   1.915   5.458
 6655SOL    HW120417   4.186   1.858   5.401
 6655SOL    HW220418   4.175   1.983   5.485
 6656SOL     OW20419   4.276   2.777   4.753
 6656SOL    HW120420   4.292   2.870   4.769
 6656SOL    HW220421   4.239   2.745   4.835
 6657SOL     OW20422   4.020   2.061   4.968
 6657SOL    HW120423   3.982   2.092   5.050
 6657SOL    HW220424   4.001   1.967   4.967
 6658SOL     OW20425   3.777   3.175   4.996
 6658SOL    HW120426   3.803   3.117   5.067
 6658SOL    HW220427   3.776   3.262   5.035
 6659SOL     OW20428   4.020   1.924   4.354
 6659SOL    HW120429   3.999   2.015   4.375
 6659SOL    HW220430   4.035   1.883   4.439
 6660SOL     OW20431   4.072   2.775   5.534
 6660SOL    HW120432   4.152   2.786   5.586
 6660SOL    HW220433   4.096   2.711   5.467
 6661SOL     OW20434   4.031   2.672   4.667
 6661SOL    HW120435   4.121   2.704   4.673
 6661SOL    HW220436   4.036   2.580   4.694
 6662SOL     OW20437   4.070   2.397   4.731
 6662SOL    HW120438   4.030   2.311   4.717
 6662SOL    HW220439   4.152   2.394   4.682
 6663SOL     OW20440   3.735   3.175   3.916
 6663SOL    HW120441   3.647   3.193   3.883
 6663SOL    HW220442   3.729   3.087   3.953
 6664SOL     OW20443   3.820   3.639   4.671
 6664SOL    HW120444   3.787   3.564   4.622
 6664SOL    HW220445   3.908   3.654   4.637
 6665SOL     OW20446   4.234   3.450   4.631
 6665SOL    HW120447   4.319   3.468   4.669
 6665SOL    HW220448   4.251   3.384   4.564
 6666SOL     OW20449   3.759   2.413   4.841
 6666SOL    HW120450   3.838   2.400   4.789
 6666SOL    HW220451   3.789   2.412   4.931
 6667SOL     OW20452   3.913   2.386   5.459
 6667SOL    HW120453   3.970   2.343   5.394
 6667SOL    HW220454   3.877   2.462   5.413
 6668SOL     OW20455   0.023   2.411   3.990
 6668SOL    HW120456   0.035   2.393   4.083
 6668SOL    HW220457   4.449   2.472   3.987
 6669SOL     OW20458   3.963   3.413   5.443
 6669SOL    HW120459   3.938   3.477   5.509
 6669SOL    HW220460   3.963   3.329   5.490
 6670SOL     OW20461   4.176   2.352   3.901
 6670SOL    HW120462   4.237   2.422   3.922
 6670SOL    HW220463   4.091   2.396   3.892
 6671SOL     OW20464   3.861   3.005   5.200
 6671SOL    HW120465   3.864   2.961   5.285
 6671SOL    HW220466   3.878   2.935   5.137
 6672SOL     OW20467   3.818   3.131   4.733
 6672SOL    HW120468   3.799   3.145   4.825
 6672SOL    HW220469   3.748   3.074   4.702
 6673SOL     OW20470   4.391   3.516   5.417
 6673SOL    HW120471   4.358   3.590   5.469
 6673SOL    HW220472   4.386   3.547   5.327
 6674SOL     OW20473   3.870   3.657   5.567
 6674SOL    HW120474   3.819   3.590   5.613
 6674SOL    HW220475   3.914   3.706   5.636
 6675SOL     OW20476   3.976   2.180   4.436
 6675SOL    HW120477   3.888   2.212   4.414
 6675SOL    HW220478   3.977   2.175   4.531
 6676SOL     OW20479   4.081   3.174   5.212
 6676SOL    HW120480   4.059   3.249   5.156
 6676SOL    HW220481   4.009   3.113   5.199
 6677SOL     OW20482   4.328   3.355   4.203
 6677SOL    HW120483   4.343   3.295   4.130
 6677SOL    HW220484   4.259   3.414   4.171
 6678SOL     OW20485   3.990   3.202   4.022
 6678SOL    HW120486   3.899   3.198   3.993
 6678SOL    HW220487   3.986   3.247   4.106
 6679SOL     OW20488   3.842   2.911   5.460
 6679SOL    HW120489   3.764   2.878   5.505
 6679SOL    HW220490   3.913   2.859   5.496
 6680SOL     OW20491   4.378   2.064   5.217
 6680SOL    HW120492   4.467   2.087   5.191
 6680SOL    HW220493   4.382   2.052   5.312
 6681SOL     OW20494   3.806   2.186   3.752
 6681SOL    HW120495   3.721   2.167   3.712
 6681SOL    HW220496   3.837   2.265   3.708
 6682SOL     OW20497   3.783   2.014   4.018
 6682SOL    HW120498   3.770   2.091   3.962
 6682SOL    HW220499   3.870   1.982   3.994
 6683SOL     OW20500   4.349   2.702   5.172
 6683SOL    HW120501   4.377   2.790   5.146
 6683SOL    HW220502   4.428   2.661   5.206
 6684SOL     OW20503   4.379   2.424   5.462
 6684SOL    HW120504   4.407   2.498   5.516
 6684SOL    HW220505   4.459   2.393   5.420
 6685SOL     OW20506   4.101   3.607   5.287
 6685SOL    HW120507   4.019   3.653   5.271
 6685SOL    HW220508   4.074   3.525   5.330
 6686SOL     OW20509   4.307   2.586   4.398
 6686SOL    HW120510   4.347   2.671   4.378
 6686SOL    HW220511   4.238   2.576   4.333
 6687SOL     OW20512   3.932   3.162   5.569
 6687SOL    HW120513   3.889   3.085   5.530
 6687SOL    HW220514   3.887   3.174   5.653
 6688SOL     OW20515   3.820   3.087   4.388
 6688SOL    HW120516   3.839   3.045   4.472
 6688SOL    HW220517   3.884   3.050   4.328
 6689SOL     OW20518   4.437   3.250   5.417
 6689SOL    HW120519   4.349   3.224   5.390
 6689SOL    HW220520   4.435   3.346   5.417
 6690SOL     OW20521   4.170   2.289   4.265
 6690SOL    HW120522   4.183   2.226   4.194
 6690SOL    HW220523   4.106   2.248   4.323
 6691SOL     OW20524   4.060   2.424   5.010
 6691SOL    HW120525   4.111   2.365   5.066
 6691SOL    HW220526   4.080   2.397   4.921
 6692SOL     OW20527   0.030   3.485   4.416
 6692SOL    HW120528   0.054   3.557   4.357
 6692SOL    HW220529   4.470   3.431   4.364
 6693SOL     OW20530   3.764   2.923   4.033
 6693SOL    HW120531   3.858   2.914   4.013
 6693SOL    HW220532   3.736   2.834   4.054
 6694SOL     OW20533   3.941   2.486   5.719
 6694SOL    HW120534   3.852   2.481   5.754
 6694SOL    HW220535   3.931   2.464   5.626
 6695SOL     OW20536   3.945   2.159   6.578
 6695SOL    HW120537   3.977   2.121   6.660
 6695SOL    HW220538   3.858   2.121   6.567
 6696SOL     OW20539   3.717   2.248   6.225
 6696SOL    HW120540   3.637   2.276   6.269
 6696SOL    HW220541   3.692   2.172   6.174
 6697SOL     OW20542   4.269   3.079   6.727
 6697SOL    HW120543   4.208   3.150   6.708
 6697SOL    HW220544   4.338   3.120   6.779
 6698SOL     OW20545   0.011   2.637   7.440
 6698SOL    HW120546   0.065   2.655   7.517
 6698SOL    HW220547   0.048   2.692   7.371
 6699SOL     OW20548   4.409   2.843   6.198
 6699SOL    HW120549   4.478   2.827   6.263
 6699SOL    HW220550   4.348   2.903   6.241
 6700SOL     OW20551   4.415   3.009   7.392
 6700SOL    HW120552   4.452   3.091   7.361
 6700SOL    HW220553   4.321   3.016   7.374
 6701SOL     OW20554   4.069   3.284   6.655
 6701SOL    HW120555   3.994   3.240   6.614
 6701SOL    HW220556   4.108   3.335   6.584
 6702SOL     OW20557   4.169   2.255   7.054
 6702SOL    HW120558   4.245   2.197   7.063
 6702SOL    HW220559   4.094   2.201   7.077
 6703SOL     OW20560   3.939   3.580   6.055
 6703SOL    HW120561   3.959   3.655   6.112
 6703SOL    HW220562   4.018   3.571   6.001
 6704SOL     OW20563   3.957   3.310   6.124
 6704SOL    HW120564   3.933   3.403   6.128
 6704SOL    HW220565   3.902   3.269   6.191
 6705SOL     OW20566   3.986   2.951   6.467
 6705SOL    HW120567   3.990   2.864   6.507
 6705SOL    HW220568   3.938   3.004   6.530
 6706SOL     OW20569   4.358   3.656   7.046
 6706SOL    HW120570   4.266   3.634   7.061
 6706SOL    HW220571   4.360   3.751   7.042
 6707SOL     OW20572   4.306   2.847   5.736
 6707SOL    HW120573   4.340   2.891   5.658
 6707SOL    HW220574   4.372   2.863   5.803
 6708SOL     OW20575   3.845   2.515   6.149
 6708SOL    HW120576   3.808   2.430   6.171
 6708SOL    HW220577   3.835   2.566   6.230
 6709SOL     OW20578   3.768   3.449   5.704
 6709SOL    HW120579   3.746   3.358   5.723
 6709SOL    HW220580   3.740   3.498   5.781
 6710SOL     OW20581   3.847   2.606   7.170
 6710SOL    HW120582   3.936   2.640   7.171
 6710SOL    HW220583   3.792   2.684   7.165
 6711SOL     OW20584   4.302   3.251   6.321
 6711SOL    HW120585   4.268   3.162   6.319
 6711SOL    HW220586   4.307   3.277   6.229
 6712SOL     OW20587   0.022   1.870   6.111
 6712SOL    HW120588   0.052   1.926   6.039
 6712SOL    HW220589   4.428   1.885   6.115
 6713SOL     OW20590   3.910   2.817   6.872
 6713SOL    HW120591   3.997   2.782   6.857
 6713SOL    HW220592   3.855   2.777   6.804
 6714SOL     OW20593   4.073   2.111   7.422
 6714SOL    HW120594   4.112   2.194   7.449
 6714SOL    HW220595   3.979   2.122   7.439
 6715SOL     OW20596   4.307   2.582   5.855
 6715SOL    HW120597   4.301   2.667   5.811
 6715SOL    HW220598   4.245   2.588   5.927
 6716SOL     OW20599   3.812   2.684   6.364
 6716SOL    HW120600   3.892   2.676   6.415
 6716SOL    HW220601   3.768   2.762   6.399
 6717SOL     OW20602   3.853   3.736   7.171
 6717SOL    HW120603   3.857   3.713   7.264
 6717SOL    HW220604   3.771   3.696   7.141
 6718SOL     OW20605   4.241   2.045   6.470
 6718SOL    HW120606   4.263   2.053   6.562
 6718SOL    HW220607   4.253   2.133   6.434
 6719SOL     OW20608   4.082   3.680   6.460
 6719SOL    HW120609   4.137   3.602   6.468
 6719SOL    HW220610   4.142   3.753   6.469
 6720SOL     OW20611   4.035   2.826   5.842
 6720SOL    HW120612   4.119   2.845   5.802
 6720SOL    HW220613   4.008   2.743   5.802
 6721SOL     OW20614   4.176   3.116   7.319
 6721SOL    HW120615   4.151   3.131   7.228
 6721SOL    HW220616   4.094   3.123   7.368
 6722SOL     OW20617   3.927   2.127   7.088
 6722SOL    HW120618   3.848   2.180   7.100
 6722SOL    HW220619   3.903   2.041   7.123
 6723SOL     OW20620   4.189   3.593   5.913
 6723SOL    HW120621   4.226   3.655   5.976
 6723SOL    HW220622   4.257   3.583   5.846
 6724SOL     OW20623   3.978   3.655   6.810
 6724SOL    HW120624   4.024   3.578   6.845
 6724SOL    HW220625   3.964   3.635   6.718
 6725SOL     OW20626   4.118   2.546   6.060
 6725SOL    HW120627   4.138   2.454   6.078
 6725SOL    HW220628   4.024   2.554   6.077
 6726SOL     OW20629   4.338   1.961   5.711
 6726SOL    HW120630   4.433   1.949   5.713
 6726SOL    HW220631   4.313   1.943   5.620
 6727SOL     OW20632   0.026   3.278   6.484
 6727SOL    HW120633   0.063   3.348   6.431
 6727SOL    HW220634   4.449   3.249   6.434
 6728SOL     OW20635   4.258   1.929   6.084
 6728SOL    HW120636   4.179   1.931   6.138
 6728SOL    HW220637   4.251   2.006   6.028
 6729SOL     OW20638   4.015   1.910   5.773
 6729SOL    HW120639   4.072   1.973   5.729
 6729SOL    HW220640   4.075   1.850   5.817
 6730SOL     OW20641   0.329   2.531   7.038
 6730SOL    HW120642   0.326   2.457   6.976
 6730SOL    HW220643   0.404   2.513   7.094
 6731SOL     OW20644   4.196   3.001   6.299
 6731SOL    HW120645   4.133   2.982   6.368
 6731SOL    HW220646   4.146   2.993   6.218
 6732SOL     OW20647   3.811   2.414   6.979
 6732SOL    HW120648   3.902   2.415   6.950
 6732SOL    HW220649   3.806   2.483   7.045
 6733SOL     OW20650   4.279   2.067   6.738
 6733SOL    HW120651   4.329   2.027   6.809
 6733SOL    HW220652   4.190   2.075   6.773
 6734SOL     OW20653   4.232   3.242   5.760
 6734SOL    HW120654   4.148   3.227   5.803
 6734SOL    HW220655   4.211   3.246   5.667
 6735SOL     OW20656   4.237   2.129   5.903
 6735SOL    HW120657   4.279   2.073   5.839
 6735SOL    HW220658   4.215   2.209   5.855
 6736SOL     OW20659   4.149   2.680   6.844
 6736SOL    HW120660   4.218   2.684   6.910
 6736SOL    HW220661   4.113   2.592   6.852
 6737SOL     OW20662   3.799   3.436   6.945
 6737SOL    HW120663   3.766   3.503   6.886
 6737SOL    HW220664   3.894   3.438   6.934
 6738SOL     OW20665   4.043   2.987   6.072
 6738SOL    HW120666   4.042   3.061   6.010
 6738SOL    HW220667   4.045   2.909   6.016
 6739SOL     OW20668   4.308   2.393   6.456
 6739SOL    HW120669   4.308   2.464   6.392
 6739SOL    HW220670   4.379   2.413   6.516
 6740SOL     OW20671   4.072   3.403   6.895
 6740SOL    HW120672   4.071   3.356   6.811
 6740SOL    HW220673   4.164   3.404   6.921
 6741SOL     OW20674   4.146   2.600   7.197
 6741SOL    HW120675   4.207   2.641   7.135
 6741SOL    HW220676   4.189   2.519   7.224
 6742SOL     OW20677   4.237   1.915   7.320
 6742SOL    HW120678   4.187   1.857   7.263
 6742SOL    HW220679   4.175   1.983   7.346
 6743SOL     OW20680   4.277   2.777   6.616
 6743SOL    HW120681   4.292   2.870   6.632
 6743SOL    HW220682   4.239   2.745   6.698
 6744SOL     OW20683   4.020   2.061   6.830
 6744SOL    HW120684   3.983   2.092   6.913
 6744SOL    HW220685   4.001   1.967   6.829
 6745SOL     OW20686   3.771   3.174   6.859
 6745SOL    HW120687   3.801   3.117   6.929
 6745SOL    HW220688   3.774   3.262   6.896
 6746SOL     OW20689   4.020   1.924   6.216
 6746SOL    HW120690   3.999   2.015   6.236
 6746SOL    HW220691   4.035   1.883   6.301
 6747SOL     OW20692   4.072   2.774   7.396
 6747SOL    HW120693   4.151   2.787   7.448
 6747SOL    HW220694   4.097   2.709   7.330
 6748SOL     OW20695   4.031   2.672   6.531
 6748SOL    HW120696   4.121   2.704   6.537
 6748SOL    HW220697   4.036   2.580   6.557
 6749SOL     OW20698   4.070   2.397   6.594
 6749SOL    HW120699   4.030   2.312   6.579
 6749SOL    HW220700   4.152   2.395   6.545
 6750SOL     OW20701   3.735   3.175   5.777
 6750SOL    HW120702   3.647   3.193   5.745
 6750SOL    HW220703   3.730   3.087   5.814
 6751SOL     OW20704   3.820   3.639   6.534
 6751SOL    HW120705   3.787   3.564   6.484
 6751SOL    HW220706   3.908   3.655   6.499
 6752SOL     OW20707   4.234   3.450   6.493
 6752SOL    HW120708   4.320   3.468   6.531
 6752SOL    HW220709   4.251   3.384   6.426
 6753SOL     OW20710   3.759   2.413   6.703
 6753SOL    HW120711   3.837   2.400   6.649
 6753SOL    HW220712   3.792   2.413   6.793
 6754SOL     OW20713   3.914   2.386   7.321
 6754SOL    HW120714   3.976   2.347   7.259
 6754SOL    HW220715   3.879   2.462   7.274
 6755SOL     OW20716   0.022   2.412   5.852
 6755SOL    HW120717   0.035   2.394   5.945
 6755SOL    HW220718   4.449   2.472   5.849
 6756SOL     OW20719   3.962   3.413   7.304
 6756SOL    HW120720   3.938   3.478   7.370
 6756SOL    HW220721   3.964   3.330   7.352
 6757SOL     OW20722   4.176   2.352   5.764
 6757SOL    HW120723   4.237   2.423   5.784
 6757SOL    HW220724   4.091   2.396   5.755
 6758SOL     OW20725   3.860   3.005   7.062
 6758SOL    HW120726   3.864   2.961   7.147
 6758SOL    HW220727   3.878   2.935   6.998
 6759SOL     OW20728   3.818   3.131   6.595
 6759SOL    HW120729   3.796   3.144   6.688
 6759SOL    HW220730   3.749   3.073   6.563
 6760SOL     OW20731   4.390   3.516   7.279
 6760SOL    HW120732   4.359   3.590   7.331
 6760SOL    HW220733   4.386   3.546   7.189
 6761SOL     OW20734   3.870   3.656   7.429
 6761SOL    HW120735   3.819   3.590   7.476
 6761SOL    HW220736   3.914   3.706   7.498
 6762SOL     OW20737   3.976   2.180   6.297
 6762SOL    HW120738   3.888   2.212   6.276
 6762SOL    HW220739   3.977   2.176   6.393
 6763SOL     OW20740   4.080   3.174   7.074
 6763SOL    HW120741   4.060   3.249   7.018
 6763SOL    HW220742   4.007   3.113   7.061
 6764SOL     OW20743   4.328   3.355   6.065
 6764SOL    HW120744   4.343   3.294   5.992
 6764SOL    HW220745   4.259   3.413   6.034
 6765SOL     OW20746   3.991   3.201   5.885
 6765SOL    HW120747   3.900   3.198   5.854
 6765SOL    HW220748   3.986   3.247   5.969
 6766SOL     OW20749   3.841   2.907   7.320
 6766SOL    HW120750   3.763   2.876   7.366
 6766SOL    HW220751   3.913   2.857   7.357
 6767SOL     OW20752   4.378   2.065   7.078
 6767SOL    HW120753   4.467   2.089   7.051
 6767SOL    HW220754   4.385   2.053   7.173
 6768SOL     OW20755   3.806   2.185   5.615
 6768SOL    HW120756   3.719   2.167   5.578
 6768SOL    HW220757   3.835   2.264   5.570
 6769SOL     OW20758   3.782   2.015   5.881
 6769SOL    HW120759   3.768   2.091   5.825
 6769SOL    HW220760   3.869   1.982   5.855
 6770SOL     OW20761   4.349   2.703   7.034
 6770SOL    HW120762   4.377   2.790   7.008
 6770SOL    HW220763   4.428   2.661   7.068
 6771SOL     OW20764   4.377   2.425   7.324
 6771SOL    HW120765   4.406   2.498   7.379
 6771SOL    HW220766   4.458   2.395   7.281
 6772SOL     OW20767   4.101   3.607   7.148
 6772SOL    HW120768   4.019   3.654   7.133
 6772SOL    HW220769   4.074   3.526   7.191
 6773SOL     OW20770   4.307   2.587   6.261
 6773SOL    HW120771   4.347   2.671   6.240
 6773SOL    HW220772   4.239   2.576   6.195
 6774SOL     OW20773   3.934   3.163   7.432
 6774SOL    HW120774   3.887   3.088   7.394
 6774SOL    HW220775   3.894   3.175   7.519
 6775SOL     OW20776   3.821   3.088   6.251
 6775SOL    HW120777   3.839   3.045   6.334
 6775SOL    HW220778   3.884   3.051   6.189
 6776SOL     OW20779   4.437   3.250   7.279
 6776SOL    HW120780   4.349   3.224   7.251
 6776SOL    HW220781   4.435   3.346   7.279
 6777SOL     OW20782   4.172   2.288   6.128
 6777SOL    HW120783   4.183   2.226   6.056
 6777SOL    HW220784   4.107   2.248   6.185
 6778SOL     OW20785   4.058   2.424   6.872
 6778SOL    HW120786   4.110   2.365   6.928
 6778SOL    HW220787   4.079   2.397   6.783
 6779SOL     OW20788   0.030   3.485   6.278
 6779SOL    HW120789   0.054   3.557   6.219
 6779SOL    HW220790   4.470   3.431   6.226
 6780SOL     OW20791   3.765   2.924   5.896
 6780SOL    HW120792   3.858   2.915   5.875
 6780SOL    HW220793   3.737   2.835   5.917
 6781SOL     OW20794   3.940   2.487   7.581
 6781SOL    HW120795   3.852   2.480   7.617
 6781SOL    HW220796   3.931   2.465   7.489
 6782SOL     OW20797   3.945   2.159   8.440
 6782SOL    HW120798   3.977   2.121   8.522
 6782SOL    HW220799   3.858   2.121   8.429
 6783SOL     OW20800   3.717   2.249   8.087
 6783SOL    HW120801   3.637   2.276   8.132
 6783SOL    HW220802   3.692   2.172   8.037
 6784SOL     OW20803   4.269   3.079   8.589
 6784SOL    HW120804   4.208   3.150   8.570
 6784SOL    HW220805   4.338   3.120   8.641
 6785SOL     OW20806   0.011   2.637   9.302
 6785SOL    HW120807   0.065   2.655   9.379
 6785SOL    HW220808   0.048   2.693   9.234
 6786SOL     OW20809   4.408   2.843   8.060
 6786SOL    HW120810   4.478   2.829   8.124
 6786SOL    HW220811   4.347   2.903   8.103
 6787SOL     OW20812   4.415   3.009   9.254
 6787SOL    HW120813   4.452   3.091   9.223
 6787SOL    HW220814   4.321   3.016   9.236
 6788SOL     OW20815   4.069   3.285   8.517
 6788SOL    HW120816   3.995   3.240   8.476
 6788SOL    HW220817   4.108   3.335   8.446
 6789SOL     OW20818   4.169   2.255   8.916
 6789SOL    HW120819   4.245   2.197   8.926
 6789SOL    HW220820   4.094   2.201   8.939
 6790SOL     OW20821   3.940   3.580   7.917
 6790SOL    HW120822   3.959   3.654   7.974
 6790SOL    HW220823   4.018   3.571   7.863
 6791SOL     OW20824   3.957   3.310   7.986
 6791SOL    HW120825   3.934   3.403   7.989
 6791SOL    HW220826   3.902   3.269   8.053
 6792SOL     OW20827   3.985   2.951   8.328
 6792SOL    HW120828   3.990   2.864   8.369
 6792SOL    HW220829   3.938   3.004   8.392
 6793SOL     OW20830   4.358   3.656   8.909
 6793SOL    HW120831   4.266   3.634   8.923
 6793SOL    HW220832   4.360   3.751   8.904
 6794SOL     OW20833   4.306   2.847   7.598
 6794SOL    HW120834   4.341   2.890   7.520
 6794SOL    HW220835   4.372   2.863   7.666
 6795SOL     OW20836   3.844   2.516   8.011
 6795SOL    HW120837   3.809   2.430   8.034
 6795SOL    HW220838   3.835   2.567   8.092
 6796SOL     OW20839   3.767   3.449   7.566
 6796SOL    HW120840   3.746   3.358   7.586
 6796SOL    HW220841   3.739   3.498   7.644
 6797SOL     OW20842   3.847   2.606   9.032
 6797SOL    HW120843   3.937   2.640   9.033
 6797SOL    HW220844   3.792   2.684   9.027
 6798SOL     OW20845   4.302   3.251   8.183
 6798SOL    HW120846   4.268   3.162   8.181
 6798SOL    HW220847   4.307   3.278   8.091
 6799SOL     OW20848   0.022   1.871   7.973
 6799SOL    HW120849   0.052   1.925   7.900
 6799SOL    HW220850   4.428   1.886   7.977
 6800SOL     OW20851   3.910   2.818   8.734
 6800SOL    HW120852   3.997   2.782   8.719
 6800SOL    HW220853   3.855   2.776   8.667
 6801SOL     OW20854   4.073   2.111   9.284
 6801SOL    HW120855   4.112   2.194   9.311
 6801SOL    HW220856   3.979   2.122   9.301
 6802SOL     OW20857   4.307   2.581   7.716
 6802SOL    HW120858   4.302   2.666   7.673
 6802SOL    HW220859   4.245   2.588   7.789
 6803SOL     OW20860   3.811   2.686   8.225
 6803SOL    HW120861   3.891   2.677   8.276
 6803SOL    HW220862   3.768   2.763   8.262
 6804SOL     OW20863   3.853   3.736   9.033
 6804SOL    HW120864   3.857   3.713   9.126
 6804SOL    HW220865   3.770   3.697   9.003
 6805SOL     OW20866   4.241   2.046   8.331
 6805SOL    HW120867   4.263   2.053   8.424
 6805SOL    HW220868   4.253   2.134   8.297
 6806SOL     OW20869   4.081   3.680   8.322
 6806SOL    HW120870   4.137   3.602   8.330
 6806SOL    HW220871   4.142   3.753   8.331
 6807SOL     OW20872   4.035   2.826   7.704
 6807SOL    HW120873   4.120   2.845   7.665
 6807SOL    HW220874   4.009   2.743   7.664
 6808SOL     OW20875   4.176   3.116   9.181
 6808SOL    HW120876   4.151   3.131   9.090
 6808SOL    HW220877   4.094   3.123   9.230
 6809SOL     OW20878   3.927   2.127   8.950
 6809SOL    HW120879   3.848   2.180   8.963
 6809SOL    HW220880   3.904   2.041   8.986
 6810SOL     OW20881   4.190   3.593   7.775
 6810SOL    HW120882   4.227   3.655   7.838
 6810SOL    HW220883   4.258   3.584   7.708
 6811SOL     OW20884   3.978   3.655   8.673
 6811SOL    HW120885   4.023   3.578   8.707
 6811SOL    HW220886   3.965   3.635   8.580
 6812SOL     OW20887   4.117   2.547   7.921
 6812SOL    HW120888   4.138   2.455   7.939
 6812SOL    HW220889   4.024   2.555   7.939
 6813SOL     OW20890   4.337   1.962   7.573
 6813SOL    HW120891   4.432   1.950   7.576
 6813SOL    HW220892   4.314   1.943   7.482
 6814SOL     OW20893   0.026   3.278   8.346
 6814SOL    HW120894   0.063   3.349   8.293
 6814SOL    HW220895   4.450   3.248   8.296
 6815SOL     OW20896   4.258   1.929   7.946
 6815SOL    HW120897   4.179   1.931   8.000
 6815SOL    HW220898   4.251   2.006   7.890
 6816SOL     OW20899   4.016   1.909   7.635
 6816SOL    HW120900   4.075   1.972   7.592
 6816SOL    HW220901   4.074   1.848   7.680
 6817SOL     OW20902   0.329   2.530   8.900
 6817SOL    HW120903   0.326   2.457   8.838
 6817SOL    HW220904   0.405   2.511   8.956
 6818SOL     OW20905   4.195   3.002   8.161
 6818SOL    HW120906   4.132   2.982   8.231
 6818SOL    HW220907   4.145   2.993   8.080
 6819SOL     OW20908   3.810   2.414   8.841
 6819SOL    HW120909   3.902   2.415   8.812
 6819SOL    HW220910   3.806   2.483   8.907
 6820SOL     OW20911   4.278   2.066   8.600
 6820SOL    HW120912   4.329   2.028   8.671
 6820SOL    HW220913   4.190   2.074   8.635
 6821SOL     OW20914   4.232   3.242   7.622
 6821SOL    HW120915   4.147   3.228   7.665
 6821SOL    HW220916   4.212   3.247   7.529
 6822SOL     OW20917   4.236   2.129   7.766
 6822SOL    HW120918   4.279   2.073   7.701
 6822SOL    HW220919   4.214   2.209   7.717
 6823SOL     OW20920   4.149   2.680   8.706
 6823SOL    HW120921   4.218   2.684   8.772
 6823SOL    HW220922   4.113   2.592   8.714
 6824SOL     OW20923   3.799   3.436   8.807
 6824SOL    HW120924   3.766   3.503   8.748
 6824SOL    HW220925   3.894   3.438   8.796
 6825SOL     OW20926   4.042   2.987   7.934
 6825SOL    HW120927   4.042   3.061   7.873
 6825SOL    HW220928   4.045   2.909   7.878
 6826SOL     OW20929   4.308   2.392   8.318
 6826SOL    HW120930   4.308   2.463   8.254
 6826SOL    HW220931   4.379   2.412   8.378
 6827SOL     OW20932   4.072   3.403   8.757
 6827SOL    HW120933   4.071   3.356   8.674
 6827SOL    HW220934   4.164   3.404   8.784
 6828SOL     OW20935   4.146   2.600   9.059
 6828SOL    HW120936   4.207   2.641   8.997
 6828SOL    HW220937   4.190   2.519   9.087
 6829SOL     OW20938   4.237   1.915   9.182
 6829SOL    HW120939   4.187   1.857   9.125
 6829SOL    HW220940   4.175   1.983   9.208
 6830SOL     OW20941   4.276   2.778   8.478
 6830SOL    HW120942   4.292   2.871   8.494
 6830SOL    HW220943   4.238   2.745   8.560
 6831SOL     OW20944   4.019   2.061   8.692
 6831SOL    HW120945   3.983   2.092   8.775
 6831SOL    HW220946   4.001   1.967   8.691
 6832SOL     OW20947   3.772   3.174   8.721
 6832SOL    HW120948   3.801   3.117   8.792
 6832SOL    HW220949   3.774   3.262   8.758
 6833SOL     OW20950   4.019   1.924   8.078
 6833SOL    HW120951   3.999   2.015   8.099
 6833SOL    HW220952   4.035   1.883   8.163
 6834SOL     OW20953   4.072   2.774   9.257
 6834SOL    HW120954   4.151   2.787   9.310
 6834SOL    HW220955   4.097   2.710   9.192
 6835SOL     OW20956   4.030   2.672   8.392
 6835SOL    HW120957   4.120   2.704   8.398
 6835SOL    HW220958   4.036   2.580   8.418
 6836SOL     OW20959   4.070   2.397   8.456
 6836SOL    HW120960   4.030   2.312   8.441
 6836SOL    HW220961   4.152   2.395   8.407
 6837SOL     OW20962   3.735   3.175   7.640
 6837SOL    HW120963   3.647   3.193   7.608
 6837SOL    HW220964   3.729   3.087   7.677
 6838SOL     OW20965   3.820   3.639   8.395
 6838SOL    HW120966   3.787   3.564   8.346
 6838SOL    HW220967   3.908   3.655   8.361
 6839SOL     OW20968   4.234   3.450   8.355
 6839SOL    HW120969   4.320   3.469   8.393
 6839SOL    HW220970   4.251   3.384   8.288
 6840SOL     OW20971   3.759   2.413   8.564
 6840SOL    HW120972   3.838   2.401   8.511
 6840SOL    HW220973   3.791   2.413   8.655
 6841SOL     OW20974   3.914   2.386   9.183
 6841SOL    HW120975   3.976   2.347   9.121
 6841SOL    HW220976   3.879   2.462   9.136
 6842SOL     OW20977   0.023   2.411   7.714
 6842SOL    HW120978   0.037   2.395   7.807
 6842SOL    HW220979   4.449   2.472   7.711
 6843SOL     OW20980   3.962   3.413   9.166
 6843SOL    HW120981   3.938   3.478   9.232
 6843SOL    HW220982   3.964   3.330   9.214
 6844SOL     OW20983   4.176   2.352   7.625
 6844SOL    HW120984   4.237   2.422   7.646
 6844SOL    HW220985   4.091   2.396   7.616
 6845SOL     OW20986   3.860   3.005   8.924
 6845SOL    HW120987   3.864   2.961   9.009
 6845SOL    HW220988   3.878   2.935   8.860
 6846SOL     OW20989   3.818   3.131   8.458
 6846SOL    HW120990   3.797   3.144   8.550
 6846SOL    HW220991   3.749   3.073   8.425
 6847SOL     OW20992   4.390   3.516   9.142
 6847SOL    HW120993   4.359   3.590   9.193
 6847SOL    HW220994   4.386   3.546   9.051
 6848SOL     OW20995   3.870   3.656   9.291
 6848SOL    HW120996   3.819   3.590   9.338
 6848SOL    HW220997   3.914   3.706   9.360
 6849SOL     OW20998   3.976   2.180   8.160
 6849SOL    HW120999   3.888   2.212   8.138
 6849SOL    HW221000   3.977   2.175   8.255
 6850SOL     OW21001   4.080   3.174   8.936
 6850SOL    HW121002   4.060   3.249   8.880
 6850SOL    HW221003   4.008   3.113   8.923
 6851SOL     OW21004   4.328   3.355   7.927
 6851SOL    HW121005   4.344   3.295   7.854
 6851SOL    HW221006   4.260   3.413   7.895
 6852SOL     OW21007   3.990   3.202   7.746
 6852SOL    HW121008   3.899   3.198   7.717
 6852SOL    HW221009   3.986   3.247   7.830
 6853SOL     OW21010   3.841   2.907   9.182
 6853SOL    HW121011   3.763   2.875   9.228
 6853SOL    HW221012   3.913   2.857   9.219
 6854SOL     OW21013   4.378   2.065   8.940
 6854SOL    HW121014   4.467   2.088   8.914
 6854SOL    HW221015   4.384   2.052   9.035
 6855SOL     OW21016   3.806   2.186   7.476
 6855SOL    HW121017   3.722   2.167   7.435
 6855SOL    HW221018   3.837   2.265   7.432
 6856SOL     OW21019   3.783   2.014   7.741
 6856SOL    HW121020   3.770   2.091   7.686
 6856SOL    HW221021   3.869   1.982   7.718
 6857SOL     OW21022   4.349   2.703   8.896
 6857SOL    HW121023   4.377   2.790   8.870
 6857SOL    HW221024   4.428   2.661   8.930
 6858SOL     OW21025   4.377   2.426   9.185
 6858SOL    HW121026   4.406   2.499   9.240
 6858SOL    HW221027   4.457   2.395   9.143
 6859SOL     OW21028   4.101   3.607   9.010
 6859SOL    HW121029   4.019   3.654   8.995
 6859SOL    HW221030   4.075   3.526   9.053
 6860SOL     OW21031   4.307   2.586   8.123
 6860SOL    HW121032   4.347   2.671   8.103
 6860SOL    HW221033   4.239   2.576   8.057
 6861SOL     OW21034   3.934   3.163   9.294
 6861SOL    HW121035   3.887   3.089   9.257
 6861SOL    HW221036   3.895   3.175   9.381
 6862SOL     OW21037   3.822   3.087   8.113
 6862SOL    HW121038   3.841   3.044   8.196
 6862SOL    HW221039   3.885   3.050   8.051
 6863SOL     OW21040   4.437   3.250   9.141
 6863SOL    HW121041   4.349   3.224   9.114
 6863SOL    HW221042   4.435   3.346   9.141
 6864SOL     OW21043   4.170   2.289   7.989
 6864SOL    HW121044   4.183   2.226   7.918
 6864SOL    HW221045   4.106   2.248   8.046
 6865SOL     OW21046   4.058   2.424   8.734
 6865SOL    HW121047   4.110   2.365   8.790
 6865SOL    HW221048   4.079   2.397   8.645
 6866SOL     OW21049   0.030   3.485   8.140
 6866SOL    HW121050   0.054   3.557   8.081
 6866SOL    HW221051   4.470   3.431   8.088
 6867SOL     OW21052   3.765   2.923   7.757
 6867SOL    HW121053   3.858   2.914   7.737
 6867SOL    HW221054   3.737   2.834   7.779
 6868SOL     OW21055   3.940   2.487   9.443
 6868SOL    HW121056   3.852   2.480   9.479
 6868SOL    HW221057   3.931   2.464   9.351
 6869SOL     OW21058   3.945   2.159  10.302
 6869SOL    HW121059   3.978   2.121  10.384
 6869SOL    HW221060   3.858   2.122  10.292
 6870SOL     OW21061   3.717   2.249   9.949
 6870SOL    HW121062   3.636   2.276   9.994
 6870SOL    HW221063   3.692   2.172   9.899
 6871SOL     OW21064   4.270   3.080  10.454
 6871SOL    HW121065   4.208   3.150  10.432
 6871SOL    HW221066   4.339   3.124  10.503
 6872SOL     OW21067   0.026   2.673   0.082
 6872SOL    HW121068   0.114   2.699   0.108
 6872SOL    HW221069   0.032   2.656  11.088
 6873SOL     OW21070   4.409   2.843   9.922
 6873SOL    HW121071   4.477   2.827   9.987
 6873SOL    HW221072   4.348   2.903   9.966
 6874SOL     OW21073   4.071   3.284  10.379
 6874SOL    HW121074   3.996   3.240  10.339
 6874SOL    HW221075   4.109   3.335  10.308
 6875SOL     OW21076   4.175   2.267  10.792
 6875SOL    HW121077   4.249   2.207  10.798
 6875SOL    HW221078   4.099   2.214  10.814
 6876SOL     OW21079   3.940   3.580   9.779
 6876SOL    HW121080   3.959   3.654   9.836
 6876SOL    HW221081   4.018   3.570   9.725
 6877SOL     OW21082   3.957   3.310   9.848
 6877SOL    HW121083   3.933   3.402   9.851
 6877SOL    HW221084   3.902   3.268   9.914
 6878SOL     OW21085   3.987   2.951  10.191
 6878SOL    HW121086   3.989   2.864  10.232
 6878SOL    HW221087   3.938   3.005  10.253
 6879SOL     OW21088   4.354   3.679  10.744
 6879SOL    HW121089   4.269   3.649  10.777
 6879SOL    HW221090   4.357   3.772  10.767
 6880SOL     OW21091   4.306   2.847   9.460
 6880SOL    HW121092   4.340   2.890   9.382
 6880SOL    HW221093   4.372   2.863   9.528
 6881SOL     OW21094   3.844   2.516   9.873
 6881SOL    HW121095   3.808   2.430   9.895
 6881SOL    HW221096   3.835   2.567   9.953
 6882SOL     OW21097   3.767   3.449   9.428
 6882SOL    HW121098   3.746   3.358   9.448
 6882SOL    HW221099   3.739   3.497   9.506
 6883SOL     OW21100   3.853   2.588  10.926
 6883SOL    HW121101   3.945   2.607  10.908
 6883SOL    HW221102   3.809   2.672  10.912
 6884SOL     OW21103   4.302   3.251  10.045
 6884SOL    HW121104   4.268   3.162  10.043
 6884SOL    HW221105   4.307   3.277   9.953
 6885SOL     OW21106   0.022   1.871   9.835
 6885SOL    HW121107   0.052   1.926   9.762
 6885SOL    HW221108   4.428   1.885   9.839
 6886SOL     OW21109   3.910   2.816  10.584
 6886SOL    HW121110   3.997   2.778  10.570
 6886SOL    HW221111   3.853   2.769  10.522
 6887SOL     OW21112   4.075   2.111   0.034
 6887SOL    HW121113   4.118   2.190   0.064
 6887SOL    HW221114   3.982   2.134   0.031
 6888SOL     OW21115   4.307   2.581   9.578
 6888SOL    HW121116   4.302   2.666   9.535
 6888SOL    HW221117   4.245   2.588   9.651
 6889SOL     OW21118   3.811   2.686  10.087
 6889SOL    HW121119   3.891   2.677  10.137
 6889SOL    HW221120   3.768   2.763  10.124
 6890SOL     OW21121   3.862   3.730  10.902
 6890SOL    HW121122   3.853   3.693  10.989
 6890SOL    HW221123   3.790   3.693  10.852
 6891SOL     OW21124   4.241   2.047  10.194
 6891SOL    HW121125   4.265   2.054  10.287
 6891SOL    HW221126   4.253   2.136  10.160
 6892SOL     OW21127   4.082   3.680  10.184
 6892SOL    HW121128   4.138   3.603  10.191
 6892SOL    HW221129   4.143   3.754  10.193
 6893SOL     OW21130   4.035   2.826   9.566
 6893SOL    HW121131   4.120   2.845   9.527
 6893SOL    HW221132   4.009   2.742   9.527
 6894SOL     OW21133   4.170   3.123  11.058
 6894SOL    HW121134   4.143   3.147  10.969
 6894SOL    HW221135   4.107   3.057  11.086
 6895SOL     OW21136   3.934   2.126  10.807
 6895SOL    HW121137   3.857   2.181  10.818
 6895SOL    HW221138   3.913   2.045  10.854
 6896SOL     OW21139   4.190   3.593   9.637
 6896SOL    HW121140   4.227   3.656   9.700
 6896SOL    HW221141   4.258   3.584   9.570
 6897SOL     OW21142   3.983   3.655  10.534
 6897SOL    HW121143   4.025   3.577  10.571
 6897SOL    HW221144   3.966   3.633  10.443
 6898SOL     OW21145   4.118   2.547   9.784
 6898SOL    HW121146   4.138   2.455   9.801
 6898SOL    HW221147   4.024   2.555   9.801
 6899SOL     OW21148   4.338   1.962   9.435
 6899SOL    HW121149   4.432   1.950   9.438
 6899SOL    HW221150   4.314   1.943   9.344
 6900SOL     OW21151   0.026   3.278  10.208
 6900SOL    HW121152   0.063   3.349  10.155
 6900SOL    HW221153   4.449   3.249  10.158
 6901SOL     OW21154   4.258   1.929   9.808
 6901SOL    HW121155   4.179   1.931   9.862
 6901SOL    HW221156   4.251   2.006   9.752
 6902SOL     OW21157   4.016   1.909   9.497
 6902SOL    HW121158   4.075   1.972   9.455
 6902SOL    HW221159   4.074   1.848   9.542
 6903SOL     OW21160   0.308   2.534  10.783
 6903SOL    HW121161   0.323   2.456  10.730
 6903SOL    HW221162   0.382   2.535  10.845
 6904SOL     OW21163   4.196   3.002  10.023
 6904SOL    HW121164   4.133   2.982  10.093
 6904SOL    HW221165   4.146   2.993   9.942
 6905SOL     OW21166   3.810   2.410  10.715
 6905SOL    HW121167   3.901   2.414  10.684
 6905SOL    HW221168   3.807   2.470  10.789
 6906SOL     OW21169   4.282   2.062  10.463
 6906SOL    HW121170   4.325   2.002  10.523
 6906SOL    HW221171   4.194   2.072  10.498
 6907SOL     OW21172   4.232   3.242   9.485
 6907SOL    HW121173   4.147   3.228   9.527
 6907SOL    HW221174   4.212   3.247   9.391
 6908SOL     OW21175   4.236   2.129   9.628
 6908SOL    HW121176   4.279   2.073   9.563
 6908SOL    HW221177   4.214   2.209   9.579
 6909SOL     OW21178   4.148   2.678  10.563
 6909SOL    HW121179   4.217   2.683  10.629
 6909SOL    HW221180   4.112   2.590  10.573
 6910SOL     OW21181   3.800   3.444  10.676
 6910SOL    HW121182   3.767   3.506  10.611
 6910SOL    HW221183   3.894   3.441  10.661
 6911SOL     OW21184   4.043   2.987   9.796
 6911SOL    HW121185   4.042   3.061   9.735
 6911SOL    HW221186   4.045   2.909   9.740
 6912SOL     OW21187   4.308   2.391  10.181
 6912SOL    HW121188   4.309   2.463  10.118
 6912SOL    HW221189   4.380   2.411  10.241
 6913SOL     OW21190   4.072   3.402  10.620
 6913SOL    HW121191   4.071   3.354  10.538
 6913SOL    HW221192   4.164   3.405  10.646
 6914SOL     OW21193   4.137   2.584  10.895
 6914SOL    HW121194   4.206   2.626  10.845
 6914SOL    HW221195   4.152   2.491  10.884
 6915SOL     OW21196   4.277   2.778  10.338
 6915SOL    HW121197   4.292   2.871  10.355
 6915SOL    HW221198   4.238   2.744  10.419
 6916SOL     OW21199   4.022   2.061  10.552
 6916SOL    HW121200   3.990   2.091  10.637
 6916SOL    HW221201   4.004   1.967  10.552
 6917SOL     OW21202   3.783   3.181  10.578
 6917SOL    HW121203   3.806   3.119  10.647
 6917SOL    HW221204   3.774   3.265  10.624
 6918SOL     OW21205   4.020   1.924   9.940
 6918SOL    HW121206   3.999   2.015   9.961
 6918SOL    HW221207   4.035   1.883  10.025
 6919SOL     OW21208   4.086   2.769  11.091
 6919SOL    HW121209   4.168   2.790   0.036
 6919SOL    HW221210   4.109   2.701  11.029
 6920SOL     OW21211   4.031   2.671  10.253
 6920SOL    HW121212   4.121   2.703  10.258
 6920SOL    HW221213   4.036   2.580  10.280
 6921SOL     OW21214   4.070   2.397  10.320
 6921SOL    HW121215   4.030   2.312  10.304
 6921SOL    HW221216   4.152   2.395  10.271
 6922SOL     OW21217   3.735   3.175   9.503
 6922SOL    HW121218   3.647   3.193   9.470
 6922SOL    HW221219   3.729   3.087   9.539
 6923SOL     OW21220   3.820   3.641  10.255
 6923SOL    HW121221   3.788   3.565  10.205
 6923SOL    HW221222   3.909   3.655  10.221
 6924SOL     OW21223   4.235   3.451  10.216
 6924SOL    HW121224   4.321   3.468  10.254
 6924SOL    HW221225   4.251   3.384  10.149
 6925SOL     OW21226   3.761   2.415  10.432
 6925SOL    HW121227   3.839   2.401  10.379
 6925SOL    HW221228   3.793   2.412  10.523
 6926SOL     OW21229   0.023   2.411   9.576
 6926SOL    HW121230   0.036   2.394   9.669
 6926SOL    HW221231   4.449   2.472   9.573
 6927SOL     OW21232   3.984   3.428  11.038
 6927SOL    HW121233   3.921   3.444   0.008
 6927SOL    HW221234   4.005   3.335  11.047
 6928SOL     OW21235   4.176   2.352   9.486
 6928SOL    HW121236   4.237   2.422   9.507
 6928SOL    HW221237   4.091   2.396   9.478
 6929SOL     OW21238   3.870   3.002  10.775
 6929SOL    HW121239   3.867   2.954  10.857
 6929SOL    HW221240   3.885   2.934  10.708
 6930SOL     OW21241   3.819   3.132  10.316
 6930SOL    HW121242   3.801   3.148  10.409
 6930SOL    HW221243   3.749   3.074  10.288
 6931SOL     OW21244   4.372   3.516  10.984
 6931SOL    HW121245   4.284   3.550  10.970
 6931SOL    HW221246   4.410   3.510  10.896
 6932SOL     OW21247   3.976   2.180  10.021
 6932SOL    HW121248   3.888   2.212  10.000
 6932SOL    HW221249   3.977   2.176  10.117
 6933SOL     OW21250   4.068   3.187  10.820
 6933SOL    HW121251   4.057   3.255  10.753
 6933SOL    HW221252   4.003   3.121  10.796
 6934SOL     OW21253   4.328   3.355   9.789
 6934SOL    HW121254   4.344   3.295   9.716
 6934SOL    HW221255   4.260   3.414   9.757
 6935SOL     OW21256   3.989   3.202   9.608
 6935SOL    HW121257   3.898   3.198   9.579
 6935SOL    HW221258   3.986   3.247   9.692
 6936SOL     OW21259   3.852   2.883  11.017
 6936SOL    HW121260   3.786   2.876  11.085
 6936SOL    HW221261   3.930   2.842  11.055
 6937SOL     OW21262   4.394   2.080  10.813
 6937SOL    HW121263   4.467   2.108  10.757
 6937SOL    HW221264   4.426   2.091  10.902
 6938SOL     OW21265   3.806   2.186   9.338
 6938SOL    HW121266   3.721   2.167   9.298
 6938SOL    HW221267   3.837   2.265   9.294
 6939SOL     OW21268   3.783   2.014   9.604
 6939SOL    HW121269   3.770   2.091   9.548
 6939SOL    HW221270   3.870   1.982   9.580
 6940SOL     OW21271   4.347   2.700  10.754
 6940SOL    HW121272   4.375   2.788  10.729
 6940SOL    HW221273   4.426   2.660  10.792
 6941SOL     OW21274   4.122   3.603  10.885
 6941SOL    HW121275   4.052   3.666  10.870
 6941SOL    HW221276   4.081   3.532  10.934
 6942SOL     OW21277   4.307   2.586   9.986
 6942SOL    HW121278   4.347   2.670   9.965
 6942SOL    HW221279   4.239   2.575   9.920
 6943SOL     OW21280   3.821   3.088   9.975
 6943SOL    HW121281   3.840   3.045  10.059
 6943SOL    HW221282   3.885   3.049   9.914
 6944SOL     OW21283   4.424   3.240  10.982
 6944SOL    HW121284   4.337   3.202  10.995
 6944SOL    HW221285   4.413   3.334  10.999
 6945SOL     OW21286   4.170   2.289   9.851
 6945SOL    HW121287   4.183   2.226   9.780
 6945SOL    HW221288   4.106   2.248   9.908
 6946SOL     OW21289   4.057   2.421  10.599
 6946SOL    HW121290   4.110   2.363  10.652
 6946SOL    HW221291   4.076   2.396  10.509
 6947SOL     OW21292   0.030   3.486  10.001
 6947SOL    HW121293   0.053   3.558   9.943
 6947SOL    HW221294   4.470   3.431   9.950
 6948SOL     OW21295   3.765   2.923   9.618
 6948SOL    HW121296   3.858   2.914   9.599
 6948SOL    HW221297   3.737   2.834   9.640
 6949SOL     OW21298   3.913   4.309   0.081
 6949SOL    HW121299   3.913   4.380   0.145
 6949SOL    HW221300   3.908   4.354  11.096
 6950SOL     OW21301   3.945   4.016   0.991
 6950SOL    HW121302   3.976   3.979   1.074
 6950SOL    HW221303   3.857   3.980   0.980
 6951SOL     OW21304   3.722   4.101   0.643
 6951SOL    HW121305   3.645   4.132   0.690
 6951SOL    HW221306   3.690   4.026   0.593
 6952SOL     OW21307   0.075   4.494   1.860
 6952SOL    HW121308   0.133   0.052   1.910
 6952SOL    HW221309   0.089   0.019   1.768
 6953SOL     OW21310   4.173   4.106   1.466
 6953SOL    HW121311   4.249   4.049   1.475
 6953SOL    HW221312   4.099   4.053   1.495
 6954SOL     OW21313   3.773   4.393   0.585
 6954SOL    HW121314   3.775   4.298   0.590
 6954SOL    HW221315   3.861   4.420   0.611
 6955SOL     OW21316   3.839   4.489   1.576
 6955SOL    HW121317   3.879   0.011   1.660
 6955SOL    HW221318   3.827   0.074   1.533
 6956SOL     OW21319   0.018   3.738   0.541
 6956SOL    HW121320   0.051   3.788   0.466
 6956SOL    HW221321   4.422   3.748   0.536
 6957SOL     OW21322   4.070   3.972   1.831
 6957SOL    HW121323   4.106   4.056   1.861
 6957SOL    HW221324   3.976   3.980   1.847
 6958SOL     OW21325   4.242   3.906   0.883
 6958SOL    HW121326   4.263   3.910   0.976
 6958SOL    HW221327   4.255   3.996   0.852
 6959SOL     OW21328   3.924   3.989   1.507
 6959SOL    HW121329   3.839   4.034   1.508
 6959SOL    HW221330   3.905   3.902   1.541
 6960SOL     OW21331   4.095   4.389   0.412
 6960SOL    HW121332   4.131   4.312   0.456
 6960SOL    HW221333   4.052   4.438   0.482
 6961SOL     OW21334   4.349   3.838   0.124
 6961SOL    HW121335   4.435   3.796   0.127
 6961SOL    HW221336   4.311   3.808   0.041
 6962SOL     OW21337   4.255   3.789   0.494
 6962SOL    HW121338   4.176   3.791   0.547
 6962SOL    HW221339   4.250   3.867   0.440
 6963SOL     OW21340   4.008   3.772   0.209
 6963SOL    HW121341   4.050   3.829   0.144
 6963SOL    HW221342   4.075   3.707   0.230
 6964SOL     OW21343   0.394   4.378   1.537
 6964SOL    HW121344   0.361   4.363   1.449
 6964SOL    HW221345   0.452   4.304   1.554
 6965SOL     OW21346   3.806   4.281   1.399
 6965SOL    HW121347   3.897   4.275   1.369
 6965SOL    HW221348   3.805   4.358   1.455
 6966SOL     OW21349   4.277   3.921   1.151
 6966SOL    HW121350   4.331   3.898   1.226
 6966SOL    HW221351   4.189   3.932   1.188
 6967SOL     OW21352   4.246   3.998   0.321
 6967SOL    HW121353   4.285   3.938   0.258
 6967SOL    HW221354   4.216   4.072   0.269
 6968SOL     OW21355   4.165   0.020   1.294
 6968SOL    HW121356   4.229   0.012   1.365
 6968SOL    HW221357   4.124   4.434   1.288
 6969SOL     OW21358   4.317   4.253   0.886
 6969SOL    HW121359   4.336   4.331   0.833
 6969SOL    HW221360   4.385   4.253   0.953
 6970SOL     OW21361   4.237   3.778   1.735
 6970SOL    HW121362   4.187   3.720   1.677
 6970SOL    HW221363   4.174   3.846   1.759
 6971SOL     OW21364   4.018   3.922   1.245
 6971SOL    HW121365   3.981   3.953   1.328
 6971SOL    HW221366   4.000   3.828   1.244
 6972SOL     OW21367   4.020   3.787   0.630
 6972SOL    HW121368   4.000   3.879   0.651
 6972SOL    HW221369   4.035   3.746   0.715
 6973SOL     OW21370   4.035   0.009   0.910
 6973SOL    HW121371   4.104   0.074   0.921
 6973SOL    HW221372   4.061   4.437   0.968
 6974SOL     OW21373   4.082   4.247   1.022
 6974SOL    HW121374   4.038   4.165   1.000
 6974SOL    HW221375   4.164   4.245   0.973
 6975SOL     OW21376   3.757   4.284   1.118
 6975SOL    HW121377   3.832   4.267   1.061
 6975SOL    HW221378   3.793   4.281   1.207
 6976SOL     OW21379   3.927   4.257   1.712
 6976SOL    HW121380   3.964   4.187   1.659
 6976SOL    HW221381   3.878   4.311   1.650
 6977SOL     OW21382   0.009   4.291   0.300
 6977SOL    HW121383   0.005   4.217   0.362
 6977SOL    HW221384   0.009   4.368   0.356
 6978SOL     OW21385   4.176   4.211   0.164
 6978SOL    HW121386   4.225   4.278   0.211
 6978SOL    HW221387   4.089   4.249   0.151
 6979SOL     OW21388   3.981   4.046   0.713
 6979SOL    HW121389   3.892   4.072   0.689
 6979SOL    HW221390   3.980   4.037   0.808
 6980SOL     OW21391   4.388   3.928   1.491
 6980SOL    HW121392   4.476   3.953   1.465
 6980SOL    HW221393   4.392   3.917   1.586
 6981SOL     OW21394   3.811   4.051   0.067
 6981SOL    HW121395   3.742   4.051   0.001
 6981SOL    HW221396   3.836   4.143   0.075
 6982SOL     OW21397   3.776   3.878   0.297
 6982SOL    HW121398   3.767   3.948   0.232
 6982SOL    HW221399   3.863   3.841   0.280
 6983SOL     OW21400   4.413   4.268   1.776
 6983SOL    HW121401   4.442   4.349   1.819
 6983SOL    HW221402   4.489   4.241   1.724
 6984SOL     OW21403   4.178   4.157   0.545
 6984SOL    HW121404   4.193   4.091   0.477
 6984SOL    HW221405   4.112   4.119   0.603
 6985SOL     OW21406   4.052   4.272   1.292
 6985SOL    HW121407   4.105   4.211   1.343
 6985SOL    HW221408   4.072   4.251   1.201
 6986SOL     OW21409   3.937   4.282   1.982
 6986SOL    HW121410   3.923   4.371   2.015
 6986SOL    HW221411   3.935   4.292   1.887
 6987SOL     OW21412   3.945   4.016   2.852
 6987SOL    HW121413   3.976   3.979   2.935
 6987SOL    HW221414   3.857   3.980   2.841
 6988SOL     OW21415   3.720   4.101   2.505
 6988SOL    HW121416   3.643   4.132   2.552
 6988SOL    HW221417   3.689   4.024   2.457
 6989SOL     OW21418   0.075   4.494   3.722
 6989SOL    HW121419   0.133   0.052   3.772
 6989SOL    HW221420   0.089   0.019   3.631
 6990SOL     OW21421   4.173   4.106   3.328
 6990SOL    HW121422   4.249   4.049   3.337
 6990SOL    HW221423   4.099   4.053   3.357
 6991SOL     OW21424   3.757   4.406   2.456
 6991SOL    HW121425   3.763   4.310   2.457
 6991SOL    HW221426   3.847   4.435   2.470
 6992SOL     OW21427   3.839   4.490   3.438
 6992SOL    HW121428   3.879   0.012   3.523
 6992SOL    HW221429   3.827   0.074   3.395
 6993SOL     OW21430   0.024   3.737   2.387
 6993SOL    HW121431   0.051   3.790   2.313
 6993SOL    HW221432   4.429   3.747   2.391
 6994SOL     OW21433   4.070   3.972   3.693
 6994SOL    HW121434   4.106   4.056   3.722
 6994SOL    HW221435   3.976   3.980   3.709
 6995SOL     OW21436   4.242   3.905   2.745
 6995SOL    HW121437   4.263   3.909   2.838
 6995SOL    HW221438   4.256   3.994   2.713
 6996SOL     OW21439   3.924   3.990   3.369
 6996SOL    HW121440   3.839   4.035   3.370
 6996SOL    HW221441   3.904   3.902   3.403
 6997SOL     OW21442   4.088   4.394   2.283
 6997SOL    HW121443   4.126   4.314   2.319
 6997SOL    HW221444   4.055   4.442   2.360
 6998SOL     OW21445   4.334   3.814   1.990
 6998SOL    HW121446   4.430   3.812   1.988
 6998SOL    HW221447   4.308   3.799   1.899
 6999SOL     OW21448   4.259   3.788   2.364
 6999SOL    HW121449   4.179   3.790   2.417
 6999SOL    HW221450   4.252   3.865   2.308
 7000SOL     OW21451   4.017   3.771   2.050
 7000SOL    HW121452   4.076   3.833   2.007
 7000SOL    HW221453   4.074   3.709   2.094
 7001SOL     OW21454   0.394   4.378   3.399
 7001SOL    HW121455   0.361   4.363   3.311
 7001SOL    HW221456   0.452   4.304   3.416
 7002SOL     OW21457   3.806   4.281   3.262
 7002SOL    HW121458   3.897   4.275   3.231
 7002SOL    HW221459   3.804   4.358   3.318
 7003SOL     OW21460   4.277   3.921   3.013
 7003SOL    HW121461   4.331   3.899   3.088
 7003SOL    HW221462   4.189   3.932   3.049
 7004SOL     OW21463   4.244   3.987   2.185
 7004SOL    HW121464   4.283   3.927   2.120
 7004SOL    HW221465   4.226   4.066   2.135
 7005SOL     OW21466   4.165   0.021   3.155
 7005SOL    HW121467   4.229   0.013   3.226
 7005SOL    HW221468   4.124   4.434   3.150
 7006SOL     OW21469   4.317   4.254   2.747
 7006SOL    HW121470   4.335   4.332   2.695
 7006SOL    HW221471   4.385   4.253   2.814
 7007SOL     OW21472   4.237   3.778   3.597
 7007SOL    HW121473   4.187   3.720   3.539
 7007SOL    HW221474   4.174   3.846   3.621
 7008SOL     OW21475   4.018   3.922   3.107
 7008SOL    HW121476   3.981   3.953   3.190
 7008SOL    HW221477   4.000   3.828   3.106
 7009SOL     OW21478   4.019   3.787   2.492
 7009SOL    HW121479   4.000   3.878   2.513
 7009SOL    HW221480   4.034   3.746   2.578
 7010SOL     OW21481   4.034   0.008   2.772
 7010SOL    HW121482   4.102   0.073   2.781
 7010SOL    HW221483   4.060   4.436   2.830
 7011SOL     OW21484   4.082   4.246   2.885
 7011SOL    HW121485   4.038   4.164   2.862
 7011SOL    HW221486   4.164   4.244   2.835
 7012SOL     OW21487   3.757   4.283   2.980
 7012SOL    HW121488   3.832   4.268   2.923
 7012SOL    HW221489   3.793   4.280   3.069
 7013SOL     OW21490   3.927   4.257   3.574
 7013SOL    HW121491   3.964   4.187   3.521
 7013SOL    HW221492   3.879   4.311   3.512
 7014SOL     OW21493   0.018   4.296   2.162
 7014SOL    HW121494   4.498   4.220   2.217
 7014SOL    HW221495   0.013   4.371   2.221
 7015SOL     OW21496   4.195   4.205   2.041
 7015SOL    HW121497   4.247   4.284   2.056
 7015SOL    HW221498   4.105   4.238   2.035
 7016SOL     OW21499   3.981   4.045   2.573
 7016SOL    HW121500   3.892   4.072   2.550
 7016SOL    HW221501   3.979   4.038   2.669
 7017SOL     OW21502   4.388   3.928   3.352
 7017SOL    HW121503   4.476   3.953   3.327
 7017SOL    HW221504   4.392   3.918   3.448
 7018SOL     OW21505   3.802   4.034   1.893
 7018SOL    HW121506   3.735   4.044   1.825
 7018SOL    HW221507   3.827   4.123   1.916
 7019SOL     OW21508   3.782   3.874   2.156
 7019SOL    HW121509   3.765   3.945   2.094
 7019SOL    HW221510   3.870   3.843   2.133
 7020SOL     OW21511   4.414   4.267   3.638
 7020SOL    HW121512   4.441   4.348   3.681
 7020SOL    HW221513   4.490   4.240   3.586
 7021SOL     OW21514   4.179   4.156   2.406
 7021SOL    HW121515   4.189   4.092   2.336
 7021SOL    HW221516   4.112   4.119   2.464
 7022SOL     OW21517   4.052   4.272   3.154
 7022SOL    HW121518   4.105   4.211   3.205
 7022SOL    HW221519   4.072   4.251   3.063
 7023SOL     OW21520   3.936   4.282   3.844
 7023SOL    HW121521   3.923   4.371   3.877
 7023SOL    HW221522   3.935   4.292   3.749
 7024SOL     OW21523   3.945   4.016   4.714
 7024SOL    HW121524   3.976   3.979   4.797
 7024SOL    HW221525   3.857   3.980   4.703
 7025SOL     OW21526   3.720   4.100   4.367
 7025SOL    HW121527   3.643   4.132   4.414
 7025SOL    HW221528   3.689   4.024   4.319
 7026SOL     OW21529   0.075   4.494   5.584
 7026SOL    HW121530   0.133   0.052   5.634
 7026SOL    HW221531   0.089   0.019   5.493
 7027SOL     OW21532   4.173   4.106   5.190
 7027SOL    HW121533   4.249   4.049   5.199
 7027SOL    HW221534   4.099   4.053   5.219
 7028SOL     OW21535   3.757   4.406   4.318
 7028SOL    HW121536   3.763   4.310   4.319
 7028SOL    HW221537   3.847   4.435   4.332
 7029SOL     OW21538   3.839   4.489   5.301
 7029SOL    HW121539   3.879   0.012   5.385
 7029SOL    HW221540   3.827   0.074   5.257
 7030SOL     OW21541   0.024   3.737   4.249
 7030SOL    HW121542   0.051   3.790   4.174
 7030SOL    HW221543   4.429   3.747   4.253
 7031SOL     OW21544   4.070   3.972   5.556
 7031SOL    HW121545   4.106   4.056   5.585
 7031SOL    HW221546   3.976   3.980   5.571
 7032SOL     OW21547   4.242   3.905   4.607
 7032SOL    HW121548   4.263   3.909   4.700
 7032SOL    HW221549   4.256   3.994   4.575
 7033SOL     OW21550   3.923   3.989   5.231
 7033SOL    HW121551   3.839   4.034   5.231
 7033SOL    HW221552   3.904   3.902   5.265
 7034SOL     OW21553   4.088   4.394   4.145
 7034SOL    HW121554   4.126   4.314   4.181
 7034SOL    HW221555   4.055   4.442   4.221
 7035SOL     OW21556   4.334   3.814   3.852
 7035SOL    HW121557   4.429   3.812   3.850
 7035SOL    HW221558   4.308   3.799   3.761
 7036SOL     OW21559   4.259   3.788   4.226
 7036SOL    HW121560   4.179   3.790   4.279
 7036SOL    HW221561   4.252   3.865   4.170
 7037SOL     OW21562   4.016   3.771   3.912
 7037SOL    HW121563   4.076   3.833   3.869
 7037SOL    HW221564   4.074   3.709   3.956
 7038SOL     OW21565   0.394   4.378   5.261
 7038SOL    HW121566   0.361   4.363   5.173
 7038SOL    HW221567   0.452   4.304   5.278
 7039SOL     OW21568   3.806   4.281   5.123
 7039SOL    HW121569   3.897   4.275   5.093
 7039SOL    HW221570   3.805   4.358   5.180
 7040SOL     OW21571   4.277   3.921   4.875
 7040SOL    HW121572   4.331   3.898   4.950
 7040SOL    HW221573   4.189   3.933   4.911
 7041SOL     OW21574   4.244   3.987   4.047
 7041SOL    HW121575   4.283   3.927   3.983
 7041SOL    HW221576   4.226   4.066   3.997
 7042SOL     OW21577   4.165   0.021   5.017
 7042SOL    HW121578   4.229   0.013   5.088
 7042SOL    HW221579   4.124   4.435   5.012
 7043SOL     OW21580   4.317   4.254   4.609
 7043SOL    HW121581   4.334   4.332   4.557
 7043SOL    HW221582   4.385   4.253   4.676
 7044SOL     OW21583   4.237   3.778   5.459
 7044SOL    HW121584   4.187   3.720   5.401
 7044SOL    HW221585   4.174   3.846   5.483
 7045SOL     OW21586   4.018   3.923   4.969
 7045SOL    HW121587   3.981   3.953   5.052
 7045SOL    HW221588   4.000   3.829   4.968
 7046SOL     OW21589   4.019   3.787   4.354
 7046SOL    HW121590   4.000   3.878   4.375
 7046SOL    HW221591   4.034   3.746   4.440
 7047SOL     OW21592   4.034   0.008   4.634
 7047SOL    HW121593   4.103   0.073   4.643
 7047SOL    HW221594   4.060   4.436   4.692
 7048SOL     OW21595   4.082   4.246   4.747
 7048SOL    HW121596   4.038   4.164   4.724
 7048SOL    HW221597   4.164   4.244   4.697
 7049SOL     OW21598   3.757   4.284   4.842
 7049SOL    HW121599   3.832   4.268   4.785
 7049SOL    HW221600   3.793   4.280   4.931
 7050SOL     OW21601   3.926   4.256   5.436
 7050SOL    HW121602   3.963   4.186   5.383
 7050SOL    HW221603   3.878   4.311   5.374
 7051SOL     OW21604   0.018   4.296   4.024
 7051SOL    HW121605   4.498   4.220   4.079
 7051SOL    HW221606   0.013   4.370   4.084
 7052SOL     OW21607   4.194   4.206   3.904
 7052SOL    HW121608   4.247   4.284   3.918
 7052SOL    HW221609   4.104   4.237   3.897
 7053SOL     OW21610   3.981   4.045   4.435
 7053SOL    HW121611   3.892   4.072   4.412
 7053SOL    HW221612   3.979   4.038   4.531
 7054SOL     OW21613   4.388   3.927   5.215
 7054SOL    HW121614   4.476   3.953   5.189
 7054SOL    HW221615   4.392   3.917   5.310
 7055SOL     OW21616   3.802   4.034   3.755
 7055SOL    HW121617   3.735   4.044   3.687
 7055SOL    HW221618   3.827   4.123   3.779
 7056SOL     OW21619   3.782   3.874   4.018
 7056SOL    HW121620   3.765   3.945   3.956
 7056SOL    HW221621   3.870   3.843   3.995
 7057SOL     OW21622   4.414   4.268   5.500
 7057SOL    HW121623   4.441   4.349   5.543
 7057SOL    HW221624   4.490   4.241   5.449
 7058SOL     OW21625   4.179   4.156   4.268
 7058SOL    HW121626   4.189   4.092   4.198
 7058SOL    HW221627   4.112   4.119   4.326
 7059SOL     OW21628   4.052   4.272   5.016
 7059SOL    HW121629   4.105   4.211   5.067
 7059SOL    HW221630   4.072   4.251   4.925
 7060SOL     OW21631   3.938   4.283   5.706
 7060SOL    HW121632   3.922   4.371   5.739
 7060SOL    HW221633   3.935   4.292   5.611
 7061SOL     OW21634   3.945   4.016   6.576
 7061SOL    HW121635   3.976   3.979   6.659
 7061SOL    HW221636   3.857   3.980   6.565
 7062SOL     OW21637   3.720   4.101   6.229
 7062SOL    HW121638   3.643   4.132   6.276
 7062SOL    HW221639   3.689   4.024   6.181
 7063SOL     OW21640   0.075   4.494   7.446
 7063SOL    HW121641   0.133   0.052   7.496
 7063SOL    HW221642   0.089   0.019   7.355
 7064SOL     OW21643   4.173   4.106   7.052
 7064SOL    HW121644   4.249   4.049   7.061
 7064SOL    HW221645   4.099   4.053   7.081
 7065SOL     OW21646   3.757   4.406   6.180
 7065SOL    HW121647   3.763   4.310   6.181
 7065SOL    HW221648   3.847   4.435   6.194
 7066SOL     OW21649   3.839   4.490   7.162
 7066SOL    HW121650   3.880   0.011   7.246
 7066SOL    HW221651   3.828   0.074   7.119
 7067SOL     OW21652   0.024   3.737   6.111
 7067SOL    HW121653   0.051   3.791   6.036
 7067SOL    HW221654   4.429   3.748   6.115
 7068SOL     OW21655   4.070   3.972   7.418
 7068SOL    HW121656   4.106   4.056   7.447
 7068SOL    HW221657   3.975   3.980   7.433
 7069SOL     OW21658   4.242   3.905   6.469
 7069SOL    HW121659   4.263   3.909   6.562
 7069SOL    HW221660   4.256   3.994   6.437
 7070SOL     OW21661   3.924   3.989   7.093
 7070SOL    HW121662   3.839   4.034   7.094
 7070SOL    HW221663   3.905   3.902   7.127
 7071SOL     OW21664   4.088   4.395   6.007
 7071SOL    HW121665   4.126   4.314   6.043
 7071SOL    HW221666   4.055   4.442   6.084
 7072SOL     OW21667   4.334   3.814   5.714
 7072SOL    HW121668   4.430   3.812   5.712
 7072SOL    HW221669   4.308   3.800   5.623
 7073SOL     OW21670   4.259   3.788   6.088
 7073SOL    HW121671   4.180   3.790   6.141
 7073SOL    HW221672   4.252   3.865   6.032
 7074SOL     OW21673   4.016   3.772   5.774
 7074SOL    HW121674   4.076   3.833   5.731
 7074SOL    HW221675   4.074   3.709   5.818
 7075SOL     OW21676   0.393   4.378   7.123
 7075SOL    HW121677   0.361   4.363   7.035
 7075SOL    HW221678   0.452   4.304   7.140
 7076SOL     OW21679   3.806   4.281   6.986
 7076SOL    HW121680   3.897   4.275   6.955
 7076SOL    HW221681   3.805   4.358   7.042
 7077SOL     OW21682   4.277   3.921   6.737
 7077SOL    HW121683   4.331   3.898   6.812
 7077SOL    HW221684   4.189   3.933   6.773
 7078SOL     OW21685   4.245   3.987   5.909
 7078SOL    HW121686   4.283   3.927   5.844
 7078SOL    HW221687   4.226   4.067   5.859
 7079SOL     OW21688   4.165   0.021   6.879
 7079SOL    HW121689   4.229   0.012   6.950
 7079SOL    HW221690   4.124   4.434   6.874
 7080SOL     OW21691   4.317   4.254   6.471
 7080SOL    HW121692   4.335   4.332   6.419
 7080SOL    HW221693   4.385   4.254   6.538
 7081SOL     OW21694   4.237   3.778   7.321
 7081SOL    HW121695   4.187   3.720   7.263
 7081SOL    HW221696   4.174   3.846   7.345
 7082SOL     OW21697   4.018   3.922   6.831
 7082SOL    HW121698   3.982   3.953   6.914
 7082SOL    HW221699   4.000   3.828   6.830
 7083SOL     OW21700   4.019   3.787   6.216
 7083SOL    HW121701   4.000   3.878   6.237
 7083SOL    HW221702   4.034   3.746   6.302
 7084SOL     OW21703   4.033   0.008   6.496
 7084SOL    HW121704   4.102   0.073   6.506
 7084SOL    HW221705   4.060   4.436   6.554
 7085SOL     OW21706   4.082   4.246   6.609
 7085SOL    HW121707   4.038   4.165   6.586
 7085SOL    HW221708   4.164   4.245   6.559
 7086SOL     OW21709   3.757   4.284   6.704
 7086SOL    HW121710   3.832   4.268   6.647
 7086SOL    HW221711   3.793   4.280   6.793
 7087SOL     OW21712   3.927   4.257   7.298
 7087SOL    HW121713   3.964   4.187   7.245
 7087SOL    HW221714   3.878   4.311   7.236
 7088SOL     OW21715   0.018   4.296   5.886
 7088SOL    HW121716   4.497   4.220   5.941
 7088SOL    HW221717   0.013   4.370   5.946
 7089SOL     OW21718   4.195   4.206   5.766
 7089SOL    HW121719   4.248   4.285   5.780
 7089SOL    HW221720   4.105   4.238   5.758
 7090SOL     OW21721   3.981   4.045   6.297
 7090SOL    HW121722   3.892   4.072   6.274
 7090SOL    HW221723   3.979   4.038   6.393
 7091SOL     OW21724   4.388   3.928   7.077
 7091SOL    HW121725   4.476   3.953   7.051
 7091SOL    HW221726   4.392   3.917   7.172
 7092SOL     OW21727   3.802   4.033   5.616
 7092SOL    HW121728   3.734   4.042   5.549
 7092SOL    HW221729   3.826   4.123   5.638
 7093SOL     OW21730   3.782   3.874   5.880
 7093SOL    HW121731   3.765   3.945   5.818
 7093SOL    HW221732   3.870   3.843   5.857
 7094SOL     OW21733   4.413   4.268   7.362
 7094SOL    HW121734   4.441   4.349   7.405
 7094SOL    HW221735   4.490   4.241   7.311
 7095SOL     OW21736   4.180   4.156   6.130
 7095SOL    HW121737   4.189   4.092   6.060
 7095SOL    HW221738   4.113   4.119   6.188
 7096SOL     OW21739   4.052   4.272   6.878
 7096SOL    HW121740   4.105   4.211   6.929
 7096SOL    HW221741   4.072   4.251   6.787
 7097SOL     OW21742   3.937   4.283   7.568
 7097SOL    HW121743   3.923   4.371   7.601
 7097SOL    HW221744   3.935   4.292   7.473
 7098SOL     OW21745   3.945   4.016   8.438
 7098SOL    HW121746   3.976   3.979   8.521
 7098SOL    HW221747   3.857   3.980   8.427
 7099SOL     OW21748   3.720   4.101   8.091
 7099SOL    HW121749   3.643   4.132   8.138
 7099SOL    HW221750   3.689   4.024   8.043
 7100SOL     OW21751   0.075   4.494   9.308
 7100SOL    HW121752   0.133   0.052   9.358
 7100SOL    HW221753   0.089   0.019   9.217
 7101SOL     OW21754   4.173   4.106   8.914
 7101SOL    HW121755   4.249   4.049   8.923
 7101SOL    HW221756   4.099   4.053   8.943
 7102SOL     OW21757   3.757   4.406   8.042
 7102SOL    HW121758   3.763   4.311   8.043
 7102SOL    HW221759   3.847   4.436   8.056
 7103SOL     OW21760   3.839   4.490   9.024
 7103SOL    HW121761   3.880   0.011   9.108
 7103SOL    HW221762   3.827   0.074   8.981
 7104SOL     OW21763   0.024   3.737   7.973
 7104SOL    HW121764   0.051   3.790   7.899
 7104SOL    HW221765   4.429   3.747   7.977
 7105SOL     OW21766   4.070   3.972   9.279
 7105SOL    HW121767   4.106   4.056   9.309
 7105SOL    HW221768   3.975   3.980   9.295
 7106SOL     OW21769   4.242   3.905   8.331
 7106SOL    HW121770   4.263   3.909   8.424
 7106SOL    HW221771   4.256   3.994   8.299
 7107SOL     OW21772   3.924   3.989   8.955
 7107SOL    HW121773   3.839   4.034   8.956
 7107SOL    HW221774   3.904   3.902   8.989
 7108SOL     OW21775   4.088   4.394   7.869
 7108SOL    HW121776   4.126   4.314   7.905
 7108SOL    HW221777   4.055   4.442   7.946
 7109SOL     OW21778   4.334   3.814   7.576
 7109SOL    HW121779   4.430   3.812   7.574
 7109SOL    HW221780   4.308   3.799   7.485
 7110SOL     OW21781   4.259   3.788   7.950
 7110SOL    HW121782   4.179   3.790   8.003
 7110SOL    HW221783   4.252   3.865   7.894
 7111SOL     OW21784   4.017   3.771   7.636
 7111SOL    HW121785   4.076   3.833   7.593
 7111SOL    HW221786   4.074   3.709   7.680
 7112SOL     OW21787   0.394   4.378   8.985
 7112SOL    HW121788   0.361   4.363   8.897
 7112SOL    HW221789   0.452   4.304   9.002
 7113SOL     OW21790   3.806   4.281   8.848
 7113SOL    HW121791   3.897   4.275   8.817
 7113SOL    HW221792   3.805   4.358   8.904
 7114SOL     OW21793   4.277   3.921   8.599
 7114SOL    HW121794   4.331   3.899   8.674
 7114SOL    HW221795   4.189   3.932   8.635
 7115SOL     OW21796   4.244   3.987   7.771
 7115SOL    HW121797   4.283   3.927   7.707
 7115SOL    HW221798   4.226   4.066   7.721
 7116SOL     OW21799   4.165   0.021   8.741
 7116SOL    HW121800   4.229   0.012   8.812
 7116SOL    HW221801   4.124   4.434   8.736
 7117SOL     OW21802   4.317   4.254   8.334
 7117SOL    HW121803   4.335   4.332   8.281
 7117SOL    HW221804   4.385   4.253   8.400
 7118SOL     OW21805   4.237   3.778   9.183
 7118SOL    HW121806   4.187   3.720   9.125
 7118SOL    HW221807   4.174   3.846   9.207
 7119SOL     OW21808   4.018   3.922   8.693
 7119SOL    HW121809   3.981   3.953   8.776
 7119SOL    HW221810   4.000   3.828   8.692
 7120SOL     OW21811   4.019   3.786   8.078
 7120SOL    HW121812   4.000   3.878   8.099
 7120SOL    HW221813   4.034   3.746   8.164
 7121SOL     OW21814   4.033   0.008   8.358
 7121SOL    HW121815   4.102   0.073   8.367
 7121SOL    HW221816   4.060   4.436   8.416
 7122SOL     OW21817   4.082   4.246   8.471
 7122SOL    HW121818   4.038   4.164   8.448
 7122SOL    HW221819   4.164   4.245   8.421
 7123SOL     OW21820   3.757   4.283   8.566
 7123SOL    HW121821   3.832   4.268   8.509
 7123SOL    HW221822   3.793   4.280   8.655
 7124SOL     OW21823   3.927   4.257   9.160
 7124SOL    HW121824   3.965   4.187   9.107
 7124SOL    HW221825   3.878   4.311   9.098
 7125SOL     OW21826   0.018   4.296   7.748
 7125SOL    HW121827   4.498   4.220   7.803
 7125SOL    HW221828   0.013   4.371   7.807
 7126SOL     OW21829   4.195   4.205   7.627
 7126SOL    HW121830   4.247   4.284   7.642
 7126SOL    HW221831   4.105   4.238   7.621
 7127SOL     OW21832   3.981   4.045   8.159
 7127SOL    HW121833   3.892   4.072   8.136
 7127SOL    HW221834   3.979   4.038   8.255
 7128SOL     OW21835   4.388   3.928   8.938
 7128SOL    HW121836   4.476   3.954   8.913
 7128SOL    HW221837   4.392   3.917   9.034
 7129SOL     OW21838   3.802   4.034   7.479
 7129SOL    HW121839   3.735   4.044   7.411
 7129SOL    HW221840   3.827   4.124   7.502
 7130SOL     OW21841   3.782   3.874   7.742
 7130SOL    HW121842   3.765   3.945   7.680
 7130SOL    HW221843   3.870   3.843   7.719
 7131SOL     OW21844   4.414   4.268   9.224
 7131SOL    HW121845   4.442   4.348   9.267
 7131SOL    HW221846   4.490   4.241   9.172
 7132SOL     OW21847   4.179   4.156   7.992
 7132SOL    HW121848   4.189   4.092   7.922
 7132SOL    HW221849   4.112   4.119   8.050
 7133SOL     OW21850   4.052   4.272   8.740
 7133SOL    HW121851   4.105   4.211   8.791
 7133SOL    HW221852   4.072   4.251   8.649
 7134SOL     OW21853   3.937   4.283   9.430
 7134SOL    HW121854   3.923   4.372   9.463
 7134SOL    HW221855   3.935   4.292   9.334
 7135SOL     OW21856   3.945   4.016  10.300
 7135SOL    HW121857   3.976   3.979  10.383
 7135SOL    HW221858   3.857   3.980  10.290
 7136SOL     OW21859   3.720   4.100   9.953
 7136SOL    HW121860   3.643   4.132  10.000
 7136SOL    HW221861   3.690   4.023   9.905
 7137SOL     OW21862   4.182   4.119  10.790
 7137SOL    HW121863   4.254   4.057  10.799
 7137SOL    HW221864   4.104   4.070  10.816
 7138SOL     OW21865   3.757   4.406   9.904
 7138SOL    HW121866   3.763   4.311   9.905
 7138SOL    HW221867   3.847   4.436   9.918
 7139SOL     OW21868   3.866   4.463  10.909
 7139SOL    HW121869   3.961   4.464  10.901
 7139SOL    HW221870   3.840   0.055  10.901
 7140SOL     OW21871   0.023   3.736   9.835
 7140SOL    HW121872   0.051   3.790   9.761
 7140SOL    HW221873   4.428   3.747   9.839
 7141SOL     OW21874   4.076   3.974   0.029
 7141SOL    HW121875   4.119   4.055   0.058
 7141SOL    HW221876   3.983   3.993   0.034
 7142SOL     OW21877   4.243   3.906  10.196
 7142SOL    HW121878   4.266   3.913  10.289
 7142SOL    HW221879   4.255   3.994  10.161
 7143SOL     OW21880   3.934   3.988  10.810
 7143SOL    HW121881   3.857   4.044  10.825
 7143SOL    HW221882   3.913   3.907  10.855
 7144SOL     OW21883   4.089   4.395   9.732
 7144SOL    HW121884   4.126   4.314   9.767
 7144SOL    HW221885   4.055   4.442   9.808
 7145SOL     OW21886   4.334   3.814   9.438
 7145SOL    HW121887   4.429   3.812   9.437
 7145SOL    HW221888   4.308   3.799   9.347
 7146SOL     OW21889   4.259   3.788   9.812
 7146SOL    HW121890   4.179   3.790   9.865
 7146SOL    HW221891   4.252   3.865   9.756
 7147SOL     OW21892   4.017   3.771   9.498
 7147SOL    HW121893   4.076   3.833   9.455
 7147SOL    HW221894   4.074   3.709   9.542
 7148SOL     OW21895   0.345   4.354  10.846
 7148SOL    HW121896   0.256   4.332  10.821
 7148SOL    HW221897   0.397   4.278  10.821
 7149SOL     OW21898   3.803   4.274  10.717
 7149SOL    HW121899   3.893   4.267  10.684
 7149SOL    HW221900   3.808   4.338  10.788
 7150SOL     OW21901   4.282   3.924  10.465
 7150SOL    HW121902   4.322   3.859  10.523
 7150SOL    HW221903   4.194   3.935  10.499
 7151SOL     OW21904   4.244   3.987   9.633
 7151SOL    HW121905   4.283   3.927   9.569
 7151SOL    HW221906   4.226   4.066   9.583
 7152SOL     OW21907   4.165   0.010  10.585
 7152SOL    HW121908   4.209   0.007  10.670
 7152SOL    HW221909   4.116   4.429  10.580
 7153SOL     OW21910   4.316   4.254  10.195
 7153SOL    HW121911   4.333   4.331  10.140
 7153SOL    HW221912   4.386   4.256  10.260
 7154SOL     OW21913   4.137   4.461  10.891
 7154SOL    HW121914   4.203   0.030  10.898
 7154SOL    HW221915   4.187   4.379  10.896
 7155SOL     OW21916   4.022   3.923  10.554
 7155SOL    HW121917   3.988   3.953  10.638
 7155SOL    HW221918   4.003   3.829  10.553
 7156SOL     OW21919   4.019   3.787   9.940
 7156SOL    HW121920   3.999   3.878   9.961
 7156SOL    HW221921   4.034   3.746  10.025
 7157SOL     OW21922   4.036   0.009  10.220
 7157SOL    HW121923   4.104   0.075  10.232
 7157SOL    HW221924   4.061   4.437  10.278
 7158SOL     OW21925   4.083   4.246  10.333
 7158SOL    HW121926   4.038   4.165  10.309
 7158SOL    HW221927   4.164   4.245  10.282
 7159SOL     OW21928   3.757   4.289  10.433
 7159SOL    HW121929   3.833   4.271  10.378
 7159SOL    HW221930   3.789   4.281  10.523
 7160SOL     OW21931   0.018   4.296   9.610
 7160SOL    HW121932   4.499   4.220   9.665
 7160SOL    HW221933   0.013   4.371   9.669
 7161SOL     OW21934   4.195   4.205   9.490
 7161SOL    HW121935   4.247   4.284   9.504
 7161SOL    HW221936   4.105   4.238   9.483
 7162SOL     OW21937   3.981   4.045  10.022
 7162SOL    HW121938   3.892   4.072   9.998
 7162SOL    HW221939   3.979   4.038  10.117
 7163SOL     OW21940   4.400   3.940  10.817
 7163SOL    HW121941   4.476   3.958  10.761
 7163SOL    HW221942   4.433   3.948  10.906
 7164SOL     OW21943   3.802   4.034   9.341
 7164SOL    HW121944   3.735   4.044   9.273
 7164SOL    HW221945   3.827   4.124   9.364
 7165SOL     OW21946   3.782   3.874   9.604
 7165SOL    HW121947   3.765   3.945   9.542
 7165SOL    HW221948   3.870   3.843   9.581
 7166SOL     OW21949   4.180   4.156   9.855
 7166SOL    HW121950   4.189   4.092   9.784
 7166SOL    HW221951   4.112   4.119   9.912
 7167SOL     OW21952   4.047   4.264  10.602
 7167SOL    HW121953   4.104   4.209  10.656
 7167SOL    HW221954   4.070   4.242  10.512
   4.50000   4.50000  11.10000
