Built with Packmol
22221
    1LIG      O    1   2.161   2.087   0.066
    1LIG      C    2   2.089   2.125   0.217
    1LIG     C1    3   2.166   2.083   0.377
    1LIG     O1    4   2.095   2.120   0.530
    1LIG     C2    5   2.166   2.082   0.681
    1LIG     C3    6   2.086   2.123   0.838
    1LIG     O2    7   2.157   2.085   0.990
    1LIG     C4    8   2.085   2.122   1.142
    1LIG     C5    9   2.165   2.079   1.300
    1LIG     O3   10   2.093   2.115   1.452
    1LIG     C6   11   2.164   2.077   1.603
    1LIG     C7   12   2.084   2.119   1.760
    1LIG     O4   13   2.154   2.081   1.913
    1LIG     C8   14   2.083   2.118   2.065
    1LIG     C9   15   2.163   2.075   2.221
    1LIG     O5   16   2.092   2.112   2.373
    1LIG    C10   17   2.163   2.074   2.525
    1LIG    C11   18   2.082   2.117   2.682
    1LIG     O6   19   2.153   2.079   2.833
    1LIG    C12   20   2.082   2.116   2.985
    1LIG    C13   21   2.163   2.073   3.142
    1LIG     O7   22   2.091   2.110   3.294
    1LIG    C14   23   2.162   2.073   3.446
    1LIG    C15   24   2.083   2.115   3.604
    1LIG     O8   25   2.153   2.077   3.757
    1LIG    C16   26   2.081   2.115   3.908
    1LIG    C17   27   2.161   2.072   4.066
    1LIG     O9   28   2.090   2.109   4.219
    1LIG    C18   29   2.162   2.071   4.369
    1LIG    C19   30   2.082   2.114   4.526
    1LIG    O10   31   2.153   2.076   4.678
    1LIG    C20   32   2.081   2.114   4.830
    1LIG    C21   33   2.162   2.071   4.986
    1LIG    O11   34   2.091   2.109   5.138
    1LIG    C22   35   2.162   2.071   5.290
    1LIG    C23   36   2.081   2.113   5.447
    1LIG    O12   37   2.152   2.075   5.598
    1LIG    C24   38   2.081   2.113   5.751
    1LIG    C25   39   2.161   2.070   5.909
    1LIG    O13   40   2.090   2.108   6.061
    1LIG    C26   41   2.162   2.070   6.212
    1LIG    C27   42   2.082   2.112   6.369
    1LIG    O14   43   2.153   2.075   6.521
    1LIG    C28   44   2.082   2.113   6.673
    1LIG    C29   45   2.162   2.071   6.831
    1LIG    O15   46   2.090   2.109   6.983
    1LIG    C30   47   2.162   2.071   7.134
    1LIG    C31   48   2.082   2.114   7.291
    1LIG    O16   49   2.153   2.076   7.442
    1LIG    C32   50   2.082   2.113   7.594
    1LIG    C33   51   2.162   2.071   7.752
    1LIG    O17   52   2.091   2.109   7.904
    1LIG    C34   53   2.163   2.071   8.056
    1LIG    C35   54   2.083   2.113   8.213
    1LIG    O18   55   2.154   2.076   8.365
    1LIG    C36   56   2.082   2.114   8.516
    1LIG    C37   57   2.162   2.072   8.674
    1LIG    O19   58   2.091   2.110   8.827
    1LIG    C38   59   2.163   2.073   8.978
    1LIG    C39   60   2.084   2.115   9.136
    1LIG    O20   61   2.155   2.077   9.288
    1LIG    C40   62   2.083   2.115   9.439
    1LIG    C41   63   2.163   2.074   9.597
    1LIG    O21   64   2.092   2.111   9.749
    1LIG    C42   65   2.164   2.073   9.900
    1LIG    C43   66   2.084   2.116  10.057
    1LIG    O22   67   2.155   2.079  10.209
    1LIG    C44   68   2.084   2.116  10.361
    1LIG    C45   69   2.165   2.074  10.518
    1LIG    O23   70   2.094   2.112  10.670
    1LIG    C46   71   2.165   2.075  10.822
    1LIG    C47   72   2.084   2.117  10.979
    1LIG    O24   73   2.156   2.080  11.130
    1LIG    C48   74   2.085   2.117  11.282
    1LIG    C49   75   2.166   2.075  11.439
    1LIG    O25   76   2.095   2.113  11.591
    1LIG    C50   77   2.166   2.076  11.743
    1LIG    C51   78   2.085   2.118  11.900
    1LIG    O26   79   2.157   2.081  12.051
    1LIG    C52   80   2.086   2.118  12.204
    1LIG    C53   81   2.167   2.077  12.360
    1LIG    O27   82   2.095   2.114  12.512
    1LIG    C54   83   2.166   2.077  12.664
    1LIG    C55   84   2.086   2.120  12.822
    1LIG    O28   85   2.158   2.083  12.974
    1LIG    C56   86   2.087   2.120  13.127
    1LIG    C57   87   2.167   2.079  13.285
    1LIG    O29   88   2.096   2.117  13.438
    1LIG    C58   89   2.168   2.079  13.589
    1LIG    C59   90   2.089   2.121  13.747
    1LIG      H   91   1.990   2.077   0.214
    1LIG     H1   92   2.073   2.233   0.215
    1LIG     H2   93   2.265   2.131   0.377
    1LIG     H3   94   2.182   1.975   0.375
    1LIG     H4   95   2.265   2.130   0.683
    1LIG     H5   96   2.182   1.973   0.682
    1LIG     H6   97   1.987   2.076   0.836
    1LIG     H7   98   2.071   2.232   0.837
    1LIG     H8   99   1.987   2.074   1.143
    1LIG     H9  100   2.070   2.230   1.145
    1LIG    H10  101   2.263   2.127   1.299
    1LIG    H11  102   2.180   1.970   1.297
    1LIG    H12  103   2.263   2.125   1.606
    1LIG    H13  104   2.180   1.968   1.604
    1LIG    H14  105   1.985   2.071   1.758
    1LIG    H15  106   2.068   2.227   1.759
    1LIG    H16  107   1.984   2.070   2.066
    1LIG    H17  108   2.067   2.227   2.067
    1LIG    H18  109   2.262   2.123   2.219
    1LIG    H19  110   2.179   1.966   2.219
    1LIG    H20  111   2.261   2.122   2.527
    1LIG    H21  112   2.178   1.966   2.527
    1LIG    H22  113   1.984   2.068   2.679
    1LIG    H23  114   2.067   2.225   2.680
    1LIG    H24  115   1.984   2.068   2.987
    1LIG    H25  116   2.067   2.224   2.988
    1LIG    H26  117   2.261   2.121   3.141
    1LIG    H27  118   2.178   1.964   3.140
    1LIG    H28  119   2.261   2.121   3.448
    1LIG    H29  120   2.178   1.964   3.448
    1LIG    H30  121   1.984   2.066   3.602
    1LIG    H31  122   2.067   2.223   3.603
    1LIG    H32  123   1.983   2.066   3.909
    1LIG    H33  124   2.066   2.223   3.910
    1LIG    H34  125   2.260   2.120   4.064
    1LIG    H35  126   2.177   1.964   4.064
    1LIG    H36  127   2.261   2.120   4.371
    1LIG    H37  128   2.178   1.963   4.371
    1LIG    H38  129   1.984   2.065   4.524
    1LIG    H39  130   2.066   2.222   4.524
    1LIG    H40  131   1.983   2.066   4.832
    1LIG    H41  132   2.066   2.222   4.832
    1LIG    H42  133   2.260   2.119   4.985
    1LIG    H43  134   2.177   1.963   4.984
    1LIG    H44  135   2.260   2.119   5.292
    1LIG    H45  136   2.177   1.962   5.292
    1LIG    H46  137   1.983   2.065   5.445
    1LIG    H47  138   2.066   2.222   5.445
    1LIG    H48  139   1.983   2.065   5.753
    1LIG    H49  140   2.066   2.221   5.753
    1LIG    H50  141   2.260   2.119   5.907
    1LIG    H51  142   2.177   1.962   5.907
    1LIG    H52  143   2.260   2.118   6.214
    1LIG    H53  144   2.177   1.961   6.214
    1LIG    H54  145   1.983   2.064   6.368
    1LIG    H55  146   2.066   2.221   6.367
    1LIG    H56  147   1.983   2.065   6.675
    1LIG    H57  148   2.066   2.221   6.675
    1LIG    H58  149   2.260   2.119   6.829
    1LIG    H59  150   2.178   1.962   6.830
    1LIG    H60  151   2.261   2.119   7.136
    1LIG    H61  152   2.178   1.963   7.136
    1LIG    H62  153   1.983   2.065   7.289
    1LIG    H63  154   2.066   2.222   7.289
    1LIG    H64  155   1.984   2.065   7.596
    1LIG    H65  156   2.067   2.222   7.596
    1LIG    H66  157   2.261   2.120   7.750
    1LIG    H67  158   2.178   1.963   7.751
    1LIG    H68  159   2.261   2.120   8.057
    1LIG    H69  160   2.178   1.963   8.057
    1LIG    H70  161   1.984   2.065   8.212
    1LIG    H71  162   2.067   2.222   8.211
    1LIG    H72  163   1.984   2.066   8.518
    1LIG    H73  164   2.067   2.223   8.518
    1LIG    H74  165   2.261   2.120   8.673
    1LIG    H75  166   2.178   1.964   8.673
    1LIG    H76  167   2.262   2.121   8.979
    1LIG    H77  168   2.179   1.964   8.979
    1LIG    H78  169   1.986   2.066   9.134
    1LIG    H79  170   2.068   2.223   9.134
    1LIG    H80  171   1.985   2.067   9.441
    1LIG    H81  172   2.067   2.224   9.440
    1LIG    H82  173   2.262   2.122   9.595
    1LIG    H83  174   2.179   1.965   9.595
    1LIG    H84  175   2.263   2.122   9.902
    1LIG    H85  176   2.180   1.965   9.902
    1LIG    H86  177   1.986   2.067  10.055
    1LIG    H87  178   2.068   2.224  10.055
    1LIG    H88  179   1.986   2.068  10.363
    1LIG    H89  180   2.068   2.225  10.363
    1LIG    H90  181   2.263   2.123  10.516
    1LIG    H91  182   2.181   1.966  10.516
    1LIG    H92  183   2.263   2.123  10.824
    1LIG    H93  184   2.181   1.966  10.824
    1LIG    H94  185   1.986   2.069  10.977
    1LIG    H95  186   2.068   2.226  10.977
    1LIG    H96  187   1.987   2.069  11.285
    1LIG    H97  188   2.069   2.226  11.284
    1LIG    H98  189   2.264   2.124  11.437
    1LIG    H99  190   2.182   1.967  11.438
    1LIG   H100  191   2.264   2.124  11.745
    1LIG   H101  192   2.182   1.967  11.746
    1LIG   H102  193   1.987   2.069  11.898
    1LIG   H103  194   2.069   2.227  11.898
    1LIG   H104  195   1.988   2.070  12.206
    1LIG   H105  196   2.070   2.227  12.206
    1LIG   H106  197   2.265   2.125  12.358
    1LIG   H107  198   2.183   1.968  12.359
    1LIG   H108  199   2.265   2.126  12.666
    1LIG   H109  200   2.182   1.969  12.666
    1LIG   H110  201   1.988   2.071  12.821
    1LIG   H111  202   2.070   2.228  12.820
    1LIG   H112  203   1.988   2.071  13.128
    1LIG   H113  204   2.070   2.229  13.128
    1LIG   H114  205   2.265   2.128  13.283
    1LIG   H115  206   2.183   1.971  13.284
    1LIG   H116  207   2.266   2.129  13.589
    1LIG   H117  208   2.183   1.971  13.590
    1LIG   H118  209   2.072   2.229  13.747
    1LIG   H119  210   2.142   2.094  13.866
    1LIG      O  211   1.861   1.866   0.066
    1LIG      C  212   1.926   1.916   0.217
    1LIG     C1  213   1.856   1.863   0.377
    1LIG     O1  214   1.919   1.912   0.530
    1LIG     C2  215   1.854   1.863   0.681
    1LIG     C3  216   1.926   1.919   0.838
    1LIG     O2  217   1.861   1.871   0.990
    1LIG     C4  218   1.925   1.920   1.142
    1LIG     C5  219   1.852   1.866   1.300
    1LIG     O3  220   1.916   1.916   1.452
    1LIG     C6  221   1.851   1.867   1.603
    1LIG     C7  222   1.922   1.923   1.760
    1LIG     O4  223   1.859   1.875   1.913
    1LIG     C8  224   1.922   1.924   2.065
    1LIG     C9  225   1.849   1.869   2.221
    1LIG     O5  226   1.913   1.918   2.373
    1LIG    C10  227   1.849   1.870   2.525
    1LIG    C11  228   1.921   1.925   2.682
    1LIG     O6  229   1.857   1.876   2.833
    1LIG    C12  230   1.920   1.925   2.985
    1LIG    C13  231   1.848   1.870   3.142
    1LIG     O7  232   1.912   1.919   3.294
    1LIG    C14  233   1.848   1.871   3.446
    1LIG    C15  234   1.919   1.926   3.604
    1LIG     O8  235   1.855   1.877   3.757
    1LIG    C16  236   1.920   1.927   3.908
    1LIG    C17  237   1.848   1.872   4.066
    1LIG     O9  238   1.911   1.921   4.219
    1LIG    C18  239   1.847   1.871   4.369
    1LIG    C19  240   1.918   1.927   4.526
    1LIG    O10  241   1.855   1.878   4.678
    1LIG    C20  242   1.919   1.927   4.830
    1LIG    C21  243   1.847   1.872   4.986
    1LIG    O11  244   1.910   1.921   5.138
    1LIG    C22  245   1.847   1.872   5.290
    1LIG    C23  246   1.919   1.928   5.447
    1LIG    O12  247   1.854   1.878   5.598
    1LIG    C24  248   1.918   1.927   5.751
    1LIG    C25  249   1.846   1.873   5.909
    1LIG    O13  250   1.910   1.922   6.061
    1LIG    C26  251   1.846   1.872   6.212
    1LIG    C27  252   1.918   1.928   6.369
    1LIG    O14  253   1.854   1.878   6.521
    1LIG    C28  254   1.918   1.927   6.673
    1LIG    C29  255   1.847   1.872   6.831
    1LIG    O15  256   1.910   1.921   6.983
    1LIG    C30  257   1.846   1.872   7.134
    1LIG    C31  258   1.919   1.927   7.291
    1LIG    O16  259   1.855   1.878   7.442
    1LIG    C32  260   1.918   1.927   7.594
    1LIG    C33  261   1.847   1.871   7.752
    1LIG    O17  262   1.911   1.920   7.904
    1LIG    C34  263   1.847   1.871   8.056
    1LIG    C35  264   1.918   1.926   8.213
    1LIG    O18  265   1.854   1.877   8.365
    1LIG    C36  266   1.919   1.926   8.516
    1LIG    C37  267   1.847   1.871   8.674
    1LIG    O19  268   1.912   1.920   8.827
    1LIG    C38  269   1.847   1.870   8.978
    1LIG    C39  270   1.919   1.924   9.136
    1LIG    O20  271   1.855   1.875   9.288
    1LIG    C40  272   1.919   1.925   9.439
    1LIG    C41  273   1.848   1.869   9.597
    1LIG    O21  274   1.912   1.918   9.749
    1LIG    C42  275   1.848   1.868   9.900
    1LIG    C43  276   1.920   1.924  10.057
    1LIG    O22  277   1.857   1.875  10.209
    1LIG    C44  278   1.920   1.924  10.361
    1LIG    C45  279   1.848   1.868  10.518
    1LIG    O23  280   1.912   1.917  10.670
    1LIG    C46  281   1.849   1.867  10.822
    1LIG    C47  282   1.921   1.923  10.979
    1LIG    O24  283   1.857   1.874  11.130
    1LIG    C48  284   1.921   1.922  11.282
    1LIG    C49  285   1.849   1.866  11.439
    1LIG    O25  286   1.912   1.916  11.591
    1LIG    C50  287   1.849   1.866  11.743
    1LIG    C51  288   1.922   1.922  11.900
    1LIG    O26  289   1.858   1.872  12.051
    1LIG    C52  290   1.921   1.921  12.204
    1LIG    C53  291   1.850   1.865  12.360
    1LIG    O27  292   1.914   1.914  12.512
    1LIG    C54  293   1.851   1.865  12.664
    1LIG    C55  294   1.922   1.920  12.822
    1LIG    O28  295   1.859   1.870  12.974
    1LIG    C56  296   1.923   1.920  13.127
    1LIG    C57  297   1.852   1.864  13.285
    1LIG    O29  298   1.915   1.913  13.438
    1LIG    C58  299   1.851   1.863  13.589
    1LIG    C59  300   1.922   1.917  13.747
    1LIG      H  301   1.924   2.025   0.214
    1LIG     H1  302   2.031   1.885   0.215
    1LIG     H2  303   1.858   1.753   0.377
    1LIG     H3  304   1.751   1.894   0.375
    1LIG     H4  305   1.857   1.754   0.683
    1LIG     H5  306   1.749   1.895   0.682
    1LIG     H6  307   1.923   2.029   0.836
    1LIG     H7  308   2.031   1.888   0.837
    1LIG     H8  309   1.922   2.030   1.143
    1LIG     H9  310   2.030   1.889   1.145
    1LIG    H10  311   1.855   1.756   1.299
    1LIG    H11  312   1.747   1.897   1.297
    1LIG    H12  313   1.854   1.757   1.606
    1LIG    H13  314   1.746   1.898   1.604
    1LIG    H14  315   1.920   2.032   1.758
    1LIG    H15  316   2.028   1.892   1.759
    1LIG    H16  317   1.919   2.034   2.066
    1LIG    H17  318   2.027   1.893   2.067
    1LIG    H18  319   1.852   1.759   2.219
    1LIG    H19  320   1.744   1.900   2.219
    1LIG    H20  321   1.852   1.760   2.527
    1LIG    H21  322   1.744   1.901   2.527
    1LIG    H22  323   1.918   2.035   2.679
    1LIG    H23  324   2.026   1.894   2.680
    1LIG    H24  325   1.918   2.035   2.987
    1LIG    H25  326   2.026   1.894   2.988
    1LIG    H26  327   1.851   1.761   3.141
    1LIG    H27  328   1.743   1.901   3.140
    1LIG    H28  329   1.851   1.761   3.448
    1LIG    H29  330   1.743   1.902   3.448
    1LIG    H30  331   1.916   2.035   3.602
    1LIG    H31  332   2.024   1.895   3.603
    1LIG    H32  333   1.917   2.036   3.909
    1LIG    H33  334   2.025   1.896   3.910
    1LIG    H34  335   1.851   1.762   4.064
    1LIG    H35  336   1.743   1.903   4.064
    1LIG    H36  337   1.850   1.762   4.371
    1LIG    H37  338   1.741   1.902   4.371
    1LIG    H38  339   1.916   2.036   4.524
    1LIG    H39  340   2.024   1.896   4.524
    1LIG    H40  341   1.916   2.037   4.832
    1LIG    H41  342   2.024   1.896   4.832
    1LIG    H42  343   1.850   1.762   4.985
    1LIG    H43  344   1.742   1.903   4.984
    1LIG    H44  345   1.849   1.762   5.292
    1LIG    H45  346   1.741   1.903   5.292
    1LIG    H46  347   1.916   2.037   5.445
    1LIG    H47  348   2.024   1.896   5.445
    1LIG    H48  349   1.915   2.037   5.753
    1LIG    H49  350   2.023   1.896   5.753
    1LIG    H50  351   1.849   1.763   5.907
    1LIG    H51  352   1.741   1.903   5.907
    1LIG    H52  353   1.848   1.763   6.214
    1LIG    H53  354   1.740   1.903   6.214
    1LIG    H54  355   1.915   2.037   6.368
    1LIG    H55  356   2.023   1.897   6.367
    1LIG    H56  357   1.915   2.037   6.675
    1LIG    H57  358   2.023   1.896   6.675
    1LIG    H58  359   1.850   1.762   6.829
    1LIG    H59  360   1.741   1.903   6.830
    1LIG    H60  361   1.849   1.762   7.136
    1LIG    H61  362   1.741   1.902   7.136
    1LIG    H62  363   1.916   2.037   7.289
    1LIG    H63  364   2.024   1.896   7.289
    1LIG    H64  365   1.915   2.036   7.596
    1LIG    H65  366   2.023   1.896   7.596
    1LIG    H66  367   1.850   1.762   7.750
    1LIG    H67  368   1.741   1.902   7.751
    1LIG    H68  369   1.850   1.761   8.057
    1LIG    H69  370   1.741   1.902   8.057
    1LIG    H70  371   1.915   2.036   8.212
    1LIG    H71  372   2.023   1.895   8.211
    1LIG    H72  373   1.916   2.036   8.518
    1LIG    H73  374   2.024   1.895   8.518
    1LIG    H74  375   1.850   1.761   8.673
    1LIG    H75  376   1.742   1.902   8.673
    1LIG    H76  377   1.851   1.760   8.979
    1LIG    H77  378   1.742   1.900   8.979
    1LIG    H78  379   1.916   2.034   9.134
    1LIG    H79  380   2.024   1.894   9.134
    1LIG    H80  381   1.916   2.034   9.441
    1LIG    H81  382   2.025   1.894   9.440
    1LIG    H82  383   1.851   1.760   9.595
    1LIG    H83  384   1.743   1.900   9.595
    1LIG    H84  385   1.851   1.759   9.902
    1LIG    H85  386   1.742   1.899   9.902
    1LIG    H86  387   1.916   2.034  10.055
    1LIG    H87  388   2.025   1.894  10.055
    1LIG    H88  389   1.917   2.033  10.363
    1LIG    H89  390   2.026   1.893  10.363
    1LIG    H90  391   1.852   1.758  10.516
    1LIG    H91  392   1.743   1.898  10.516
    1LIG    H92  393   1.852   1.758  10.824
    1LIG    H93  394   1.743   1.898  10.824
    1LIG    H94  395   1.918   2.033  10.977
    1LIG    H95  396   2.026   1.893  10.977
    1LIG    H96  397   1.917   2.032  11.285
    1LIG    H97  398   2.026   1.892  11.284
    1LIG    H98  399   1.852   1.757  11.437
    1LIG    H99  400   1.743   1.897  11.438
    1LIG   H100  401   1.853   1.757  11.745
    1LIG   H101  402   1.744   1.897  11.746
    1LIG   H102  403   1.918   2.032  11.898
    1LIG   H103  404   2.027   1.892  11.898
    1LIG   H104  405   1.918   2.031  12.206
    1LIG   H105  406   2.027   1.891  12.206
    1LIG   H106  407   1.853   1.755  12.358
    1LIG   H107  408   1.744   1.896  12.359
    1LIG   H108  409   1.854   1.755  12.666
    1LIG   H109  410   1.745   1.895  12.666
    1LIG   H110  411   1.919   2.030  12.821
    1LIG   H111  412   2.027   1.890  12.820
    1LIG   H112  413   1.919   2.029  13.128
    1LIG   H113  414   2.028   1.889  13.128
    1LIG   H114  415   1.855   1.754  13.283
    1LIG   H115  416   1.746   1.894  13.284
    1LIG   H116  417   1.856   1.753  13.589
    1LIG   H117  418   1.746   1.894  13.590
    1LIG   H118  419   2.028   1.887  13.747
    1LIG   H119  420   1.875   1.880  13.866
    1MOL     C1  421   1.315   2.203   6.364
    1MOL     H1  422   1.210   2.173   6.372
    1MOL     O1  423   1.347   2.263   6.488
    1MOL     C2  424   1.481   2.316   6.497
    1MOL     H2  425   1.553   2.234   6.485
    1MOL     C3  426   1.498   2.373   6.637
    1MOL     H3  427   1.605   2.394   6.652
    1MOL     H4  428   1.467   2.296   6.710
    1MOL     O2  429   1.420   2.491   6.650
    1MOL     H5  430   1.444   2.533   6.734
    1MOL     C4  431   1.333   2.304   6.249
    1MOL     H6  432   1.265   2.387   6.268
    1MOL     O3  433   1.299   2.253   6.122
    1MOL     H7  434   1.332   2.160   6.113
    1MOL     C5  435   1.476   2.359   6.251
    1MOL     H8  436   1.547   2.277   6.232
    1MOL     O4  437   1.490   2.458   6.150
    1MOL     H9  438   1.443   2.424   6.072
    1MOL     C6  439   1.505   2.420   6.386
    1MOL    H10  440   1.438   2.505   6.402
    1MOL     O5  441   1.641   2.464   6.387
    1MOL     C7  442   1.670   2.591   6.443
    1MOL    H11  443   1.580   2.633   6.490
    1MOL     O6  444   1.764   2.579   6.547
    1MOL     C8  445   1.893   2.528   6.507
    1MOL    H12  446   1.878   2.429   6.461
    1MOL     C9  447   1.979   2.509   6.634
    1MOL    H13  448   2.051   2.429   6.614
    1MOL    H14  449   1.912   2.475   6.714
    1MOL     O7  450   2.044   2.626   6.679
    1MOL    H15  451   2.131   2.629   6.636
    1MOL    C10  452   1.723   2.683   6.332
    1MOL    H16  453   1.735   2.784   6.374
    1MOL     O8  454   1.634   2.697   6.222
    1MOL    H17  455   1.602   2.609   6.195
    1MOL    C11  456   1.861   2.636   6.285
    1MOL    H18  457   1.851   2.536   6.238
    1MOL     O9  458   1.917   2.728   6.192
    1MOL    H19  459   1.845   2.751   6.131
    1MOL    C12  460   1.954   2.624   6.405
    1MOL    H20  461   1.964   2.722   6.453
    1MOL    O10  462   2.082   2.580   6.359
    1MOL    C13  463   2.193   2.661   6.386
    1MOL    H21  464   2.162   2.761   6.418
    1MOL    O11  465   2.270   2.609   6.494
    1MOL    C14  466   2.325   2.477   6.470
    1MOL    H22  467   2.242   2.409   6.448
    1MOL    C15  468   2.394   2.430   6.599
    1MOL    H23  469   2.387   2.320   6.603
    1MOL    H24  470   2.336   2.468   6.684
    1MOL    O12  471   2.527   2.473   6.614
    1MOL    H25  472   2.584   2.403   6.579
    1MOL    C16  473   2.278   2.670   6.259
    1MOL    H26  474   2.360   2.741   6.278
    1MOL    O13  475   2.207   2.720   6.147
    1MOL    H27  476   2.112   2.699   6.157
    1MOL    C17  477   2.340   2.534   6.228
    1MOL    H28  478   2.260   2.462   6.205
    1MOL    O14  479   2.429   2.543   6.117
    1MOL    H29  480   2.382   2.594   6.048
    1MOL    C18  481   2.418   2.485   6.349
    1MOL    H30  482   2.499   2.556   6.372
    1MOL    O15  483   2.474   2.357   6.317
    1MOL    C19  484   2.613   2.338   6.332
    1MOL    H31  485   2.663   2.434   6.346
    1MOL    O16  486   2.643   2.263   6.448
    1MOL    C20  487   2.586   2.129   6.449
    1MOL    H32  488   2.477   2.139   6.438
    1MOL    C21  489   2.615   2.064   6.585
    1MOL    H33  490   2.533   1.995   6.608
    1MOL    H34  491   2.614   2.143   6.661
    1MOL    O17  492   2.740   1.999   6.593
    1MOL    H35  493   2.724   1.905   6.572
    1MOL    C22  494   2.664   2.268   6.206
    1MOL    H36  495   2.774   2.261   6.214
    1MOL    O18  496   2.637   2.338   6.087
    1MOL    H37  497   2.553   2.388   6.097
    1MOL    C23  498   2.609   2.125   6.200
    1MOL    H38  499   2.499   2.130   6.189
    1MOL    O19  500   2.666   2.054   6.091
    1MOL    H39  501   2.661   2.114   6.014
    1MOL    C24  502   2.642   2.052   6.329
    1MOL    H40  503   2.751   2.045   6.341
    1MOL    O20  504   2.586   1.921   6.322
    1MOL    C25  505   2.671   1.810   6.340
    1MOL    H41  506   2.776   1.841   6.338
    1MOL    O21  507   2.651   1.750   6.467
    1MOL    C26  508   2.518   1.698   6.489
    1MOL    H42  509   2.446   1.781   6.483
    1MOL    C27  510   2.512   1.642   6.630
    1MOL    H43  511   2.406   1.621   6.654
    1MOL    H44  512   2.550   1.718   6.700
    1MOL    O22  513   2.590   1.523   6.636
    1MOL    H45  514   2.581   1.485   6.725
    1MOL    C28  515   2.643   1.709   6.228
    1MOL    H46  516   2.712   1.625   6.240
    1MOL    O23  517   2.664   1.762   6.098
    1MOL    H47  518   2.641   1.857   6.097
    1MOL    C29  519   2.500   1.655   6.242
    1MOL    H48  520   2.429   1.738   6.229
    1MOL    O24  521   2.476   1.555   6.144
    1MOL    H49  522   2.514   1.589   6.061
    1MOL    C30  523   2.481   1.595   6.381
    1MOL    H50  524   2.546   1.507   6.391
    1MOL    O25  525   2.344   1.558   6.393
    1MOL    C31  526   2.313   1.433   6.455
    1MOL    H51  527   2.401   1.394   6.506
    1MOL    O26  528   2.216   1.452   6.555
    1MOL    C32  529   2.088   1.503   6.508
    1MOL    H52  530   2.106   1.599   6.457
    1MOL    C33  531   2.000   1.528   6.630
    1MOL    H53  532   1.923   1.602   6.602
    1MOL    H54  533   2.063   1.573   6.707
    1MOL    O27  534   1.940   1.410   6.681
    1MOL    H55  535   1.843   1.422   6.674
    1MOL    C34  536   2.263   1.335   6.347
    1MOL    H56  537   2.249   1.237   6.395
    1MOL    O28  538   2.355   1.314   6.242
    1MOL    H57  539   2.383   1.400   6.205
    1MOL    C35  540   2.128   1.382   6.293
    1MOL    H58  541   2.142   1.478   6.242
    1MOL    O29  542   2.074   1.286   6.202
    1MOL    H59  543   2.149   1.258   6.147
    1MOL    C36  544   2.030   1.401   6.408
    1MOL    H60  545   2.015   1.307   6.462
    1MOL    O30  546   1.906   1.447   6.354
    1MOL    C37  547   1.798   1.355   6.357
    1MOL    H61  548   1.835   1.254   6.376
    1MOL    O31  549   1.708   1.383   6.462
    1MOL    C38  550   1.648   1.513   6.457
    1MOL    H62  551   1.726   1.591   6.454
    1MOL    C39  552   1.571   1.529   6.586
    1MOL    H63  553   1.503   1.444   6.599
    1MOL    H64  554   1.512   1.622   6.585
    1MOL    O32  555   1.669   1.532   6.691
    1MOL    H65  556   1.624   1.553   6.774
    1MOL    C40  557   1.724   1.361   6.223
    1MOL    H66  558   1.646   1.284   6.226
    1MOL    O33  559   1.806   1.337   6.110
    1MOL    H67  560   1.900   1.337   6.136
    1MOL    C41  561   1.655   1.497   6.209
    1MOL    H68  562   1.732   1.576   6.205
    1MOL    O34  563   1.577   1.501   6.090
    1MOL    H69  564   1.634   1.467   6.019
    1MOL    C42  565   1.564   1.524   6.328
    1MOL    H70  566   1.483   1.450   6.330
    1MOL    O35  567   1.509   1.655   6.312
    1MOL    C43  568   1.369   1.672   6.316
    1MOL    H71  569   1.319   1.575   6.319
    1MOL    O36  570   1.328   1.738   6.434
    1MOL    C44  571   1.380   1.872   6.451
    1MOL    H72  572   1.490   1.869   6.453
    1MOL    C45  573   1.330   1.921   6.585
    1MOL    H73  574   1.222   1.901   6.592
    1MOL    H74  575   1.346   2.029   6.593
    1MOL    O37  576   1.402   1.851   6.687
    1MOL    H75  577   1.365   1.877   6.772
    1MOL    C46  578   1.326   1.752   6.193
    1MOL    H76  579   1.216   1.757   6.193
    1MOL    O38  580   1.363   1.692   6.070
    1MOL    H77  581   1.448   1.645   6.080
    1MOL    C47  582   1.380   1.895   6.202
    1MOL    H78  583   1.490   1.892   6.200
    1MOL    O39  584   1.332   1.972   6.092
    1MOL    H79  585   1.343   1.915   6.014
    1MOL    C48  586   1.336   1.960   6.332
    1MOL    H80  587   1.226   1.970   6.332
    1MOL    O40  588   1.396   2.090   6.339
    1MOL     C1  589   2.674   2.203   7.536
    1MOL     H1  590   2.779   2.173   7.527
    1MOL     O1  591   2.642   2.263   7.412
    1MOL     C2  592   2.508   2.316   7.403
    1MOL     H2  593   2.436   2.234   7.415
    1MOL     C3  594   2.490   2.373   7.263
    1MOL     H3  595   2.384   2.394   7.248
    1MOL     H4  596   2.521   2.296   7.190
    1MOL     O2  597   2.569   2.491   7.250
    1MOL     H5  598   2.545   2.533   7.166
    1MOL     C4  599   2.656   2.304   7.651
    1MOL     H6  600   2.724   2.387   7.632
    1MOL     O3  601   2.690   2.253   7.778
    1MOL     H7  602   2.657   2.160   7.787
    1MOL     C5  603   2.513   2.359   7.649
    1MOL     H8  604   2.442   2.277   7.668
    1MOL     O4  605   2.499   2.458   7.750
    1MOL     H9  606   2.546   2.424   7.828
    1MOL     C6  607   2.484   2.420   7.513
    1MOL    H10  608   2.551   2.505   7.498
    1MOL     O5  609   2.348   2.464   7.513
    1MOL     C7  610   2.319   2.591   7.457
    1MOL    H11  611   2.408   2.633   7.410
    1MOL     O6  612   2.225   2.579   7.352
    1MOL     C8  613   2.096   2.528   7.392
    1MOL    H12  614   2.111   2.429   7.439
    1MOL     C9  615   2.010   2.509   7.266
    1MOL    H13  616   1.938   2.429   7.286
    1MOL    H14  617   2.077   2.475   7.186
    1MOL     O7  618   1.945   2.626   7.221
    1MOL    H15  619   1.858   2.629   7.264
    1MOL    C10  620   2.266   2.683   7.568
    1MOL    H16  621   2.254   2.784   7.526
    1MOL     O8  622   2.355   2.697   7.678
    1MOL    H17  623   2.387   2.609   7.705
    1MOL    C11  624   2.128   2.636   7.615
    1MOL    H18  625   2.138   2.536   7.662
    1MOL     O9  626   2.072   2.728   7.708
    1MOL    H19  627   2.144   2.751   7.769
    1MOL    C12  628   2.035   2.624   7.495
    1MOL    H20  629   2.025   2.722   7.447
    1MOL    O10  630   1.907   2.580   7.541
    1MOL    C13  631   1.795   2.661   7.514
    1MOL    H21  632   1.827   2.761   7.481
    1MOL    O11  633   1.719   2.609   7.406
    1MOL    C14  634   1.664   2.477   7.429
    1MOL    H22  635   1.747   2.409   7.452
    1MOL    C15  636   1.595   2.430   7.301
    1MOL    H23  637   1.602   2.320   7.297
    1MOL    H24  638   1.653   2.468   7.216
    1MOL    O12  639   1.462   2.473   7.285
    1MOL    H25  640   1.405   2.403   7.321
    1MOL    C16  641   1.711   2.670   7.641
    1MOL    H26  642   1.629   2.741   7.622
    1MOL    O13  643   1.782   2.720   7.753
    1MOL    H27  644   1.877   2.699   7.743
    1MOL    C17  645   1.649   2.534   7.672
    1MOL    H28  646   1.729   2.462   7.695
    1MOL    O14  647   1.559   2.543   7.783
    1MOL    H29  648   1.607   2.594   7.851
    1MOL    C18  649   1.571   2.485   7.551
    1MOL    H30  650   1.490   2.556   7.528
    1MOL    O15  651   1.515   2.357   7.582
    1MOL    C19  652   1.376   2.338   7.568
    1MOL    H31  653   1.326   2.434   7.554
    1MOL    O16  654   1.346   2.263   7.451
    1MOL    C20  655   1.403   2.129   7.451
    1MOL    H32  656   1.512   2.139   7.462
    1MOL    C21  657   1.374   2.064   7.315
    1MOL    H33  658   1.456   1.995   7.292
    1MOL    H34  659   1.375   2.143   7.239
    1MOL    O17  660   1.249   1.999   7.307
    1MOL    H35  661   1.264   1.905   7.328
    1MOL    C22  662   1.325   2.268   7.694
    1MOL    H36  663   1.215   2.261   7.686
    1MOL    O18  664   1.352   2.338   7.813
    1MOL    H37  665   1.436   2.388   7.803
    1MOL    C23  666   1.380   2.125   7.700
    1MOL    H38  667   1.490   2.130   7.711
    1MOL    O19  668   1.323   2.054   7.809
    1MOL    H39  669   1.328   2.114   7.886
    1MOL    C24  670   1.347   2.052   7.571
    1MOL    H40  671   1.238   2.045   7.559
    1MOL    O20  672   1.403   1.921   7.578
    1MOL    C25  673   1.318   1.810   7.560
    1MOL    H41  674   1.213   1.841   7.561
    1MOL    O21  675   1.338   1.750   7.433
    1MOL    C26  676   1.471   1.698   7.411
    1MOL    H42  677   1.543   1.781   7.417
    1MOL    C27  678   1.477   1.642   7.270
    1MOL    H43  679   1.582   1.621   7.246
    1MOL    H44  680   1.439   1.718   7.200
    1MOL    O22  681   1.399   1.523   7.264
    1MOL    H45  682   1.408   1.485   7.175
    1MOL    C28  683   1.346   1.709   7.672
    1MOL    H46  684   1.277   1.625   7.660
    1MOL    O23  685   1.325   1.762   7.801
    1MOL    H47  686   1.348   1.857   7.802
    1MOL    C29  687   1.489   1.655   7.658
    1MOL    H48  688   1.560   1.738   7.671
    1MOL    O24  689   1.513   1.555   7.756
    1MOL    H49  690   1.475   1.589   7.839
    1MOL    C30  691   1.508   1.595   7.519
    1MOL    H50  692   1.443   1.507   7.509
    1MOL    O25  693   1.645   1.558   7.507
    1MOL    C31  694   1.676   1.433   7.445
    1MOL    H51  695   1.588   1.394   7.394
    1MOL    O26  696   1.773   1.452   7.345
    1MOL    C32  697   1.900   1.503   7.392
    1MOL    H52  698   1.883   1.599   7.442
    1MOL    C33  699   1.989   1.528   7.270
    1MOL    H53  700   2.065   1.602   7.298
    1MOL    H54  701   1.925   1.573   7.193
    1MOL    O27  702   2.049   1.410   7.219
    1MOL    H55  703   2.146   1.422   7.226
    1MOL    C34  704   1.726   1.335   7.553
    1MOL    H56  705   1.740   1.237   7.505
    1MOL    O28  706   1.633   1.314   7.658
    1MOL    H57  707   1.606   1.400   7.695
    1MOL    C35  708   1.861   1.382   7.607
    1MOL    H58  709   1.847   1.478   7.658
    1MOL    O29  710   1.915   1.286   7.698
    1MOL    H59  711   1.840   1.258   7.753
    1MOL    C36  712   1.959   1.401   7.492
    1MOL    H60  713   1.974   1.307   7.438
    1MOL    O30  714   2.083   1.447   7.546
    1MOL    C37  715   2.191   1.355   7.543
    1MOL    H61  716   2.154   1.254   7.524
    1MOL    O31  717   2.281   1.383   7.438
    1MOL    C38  718   2.341   1.513   7.443
    1MOL    H62  719   2.263   1.591   7.446
    1MOL    C39  720   2.418   1.529   7.314
    1MOL    H63  721   2.486   1.444   7.301
    1MOL    H64  722   2.477   1.622   7.315
    1MOL    O32  723   2.320   1.532   7.209
    1MOL    H65  724   2.365   1.553   7.126
    1MOL    C40  725   2.265   1.361   7.677
    1MOL    H66  726   2.343   1.284   7.674
    1MOL    O33  727   2.183   1.337   7.790
    1MOL    H67  728   2.089   1.337   7.764
    1MOL    C41  729   2.334   1.497   7.691
    1MOL    H68  730   2.257   1.576   7.695
    1MOL    O34  731   2.412   1.501   7.810
    1MOL    H69  732   2.355   1.467   7.881
    1MOL    C42  733   2.425   1.524   7.572
    1MOL    H70  734   2.506   1.450   7.570
    1MOL    O35  735   2.480   1.655   7.588
    1MOL    C43  736   2.620   1.672   7.584
    1MOL    H71  737   2.670   1.575   7.581
    1MOL    O36  738   2.661   1.738   7.466
    1MOL    C44  739   2.609   1.872   7.449
    1MOL    H72  740   2.499   1.869   7.447
    1MOL    C45  741   2.659   1.921   7.314
    1MOL    H73  742   2.767   1.901   7.308
    1MOL    H74  743   2.643   2.029   7.307
    1MOL    O37  744   2.587   1.851   7.213
    1MOL    H75  745   2.624   1.877   7.128
    1MOL    C46  746   2.663   1.752   7.707
    1MOL    H76  747   2.773   1.757   7.707
    1MOL    O38  748   2.626   1.692   7.830
    1MOL    H77  749   2.540   1.645   7.820
    1MOL    C47  750   2.609   1.895   7.698
    1MOL    H78  751   2.499   1.892   7.699
    1MOL    O39  752   2.657   1.972   7.808
    1MOL    H79  753   2.646   1.915   7.886
    1MOL    C48  754   2.653   1.960   7.568
    1MOL    H80  755   2.763   1.970   7.568
    1MOL    O40  756   2.593   2.090   7.561
    2SOL     OW  757   0.230   0.628   0.113
    2SOL    HW1  758   0.137   0.626   0.150
    2SOL    HW2  759   0.231   0.589   0.021
    3SOL     OW  760   0.225   0.275   0.996
    3SOL    HW1  761   0.260   0.258   1.088
    3SOL    HW2  762   0.137   0.230   0.984
    4SOL     OW  763   0.019   0.368   0.647
    4SOL    HW1  764  -0.063   0.411   0.686
    4SOL    HW2  765  -0.009   0.295   0.584
    5SOL     OW  766   0.569   1.275   1.165
    5SOL    HW1  767   0.476   1.268   1.128
    5SOL    HW2  768   0.580   1.364   1.209
    6SOL     OW  769   1.555   1.511   0.703
    6SOL    HW1  770   1.498   1.495   0.784
    6SOL    HW2  771   1.496   1.521   0.623
    7SOL     OW  772   1.135   0.703   0.717
    7SOL    HW1  773   1.192   0.781   0.692
    7SOL    HW2  774   1.075   0.729   0.793
    8SOL     OW  775   1.755   0.607   0.231
    8SOL    HW1  776   1.743   0.594   0.132
    8SOL    HW2  777   1.725   0.526   0.280
    9SOL     OW  778   0.768   1.144   1.023
    9SOL    HW1  779   0.690   1.161   1.083
    9SOL    HW2  780   0.802   1.231   0.987
   10SOL     OW  781   0.850   0.798   1.823
   10SOL    HW1  782   0.846   0.874   1.888
   10SOL    HW2  783   0.872   0.834   1.732
   11SOL     OW  784   0.685   1.012   0.665
   11SOL    HW1  785   0.754   0.996   0.735
   11SOL    HW2  786   0.612   1.069   0.703
   12SOL     OW  787   0.686   1.161   1.803
   12SOL    HW1  788   0.746   1.240   1.817
   12SOL    HW2  789   0.600   1.192   1.762
   13SOL     OW  790   0.335   1.435   1.061
   13SOL    HW1  791   0.257   1.404   1.008
   13SOL    HW2  792   0.393   1.493   1.004
   14SOL     OW  793   1.460   1.505   1.339
   14SOL    HW1  794   1.484   1.599   1.365
   14SOL    HW2  795   1.444   1.451   1.421
   15SOL     OW  796   0.438   0.392   1.499
   15SOL    HW1  797   0.520   0.336   1.508
   15SOL    HW2  798   0.357   0.334   1.503
   16SOL     OW  799   1.603   0.447   0.737
   16SOL    HW1  800   1.529   0.493   0.687
   16SOL    HW2  801   1.654   0.515   0.790
   17SOL     OW  802   0.231   1.713   0.483
   17SOL    HW1  803   0.265   1.790   0.537
   17SOL    HW2  804   0.275   1.713   0.393
   18SOL     OW  805   1.127   1.341   1.690
   18SOL    HW1  806   1.174   1.341   1.778
   18SOL    HW2  807   1.079   1.254   1.679
   19SOL     OW  808   0.230   1.434   0.538
   19SOL    HW1  809   0.204   1.530   0.538
   19SOL    HW2  810   0.159   1.380   0.583
   20SOL     OW  811   0.240   1.091   0.886
   20SOL    HW1  812   0.254   1.007   0.938
   20SOL    HW2  813   0.185   1.155   0.941
   21SOL     OW  814   0.620   1.786   1.439
   21SOL    HW1  815   0.528   1.769   1.474
   21SOL    HW2  816   0.648   1.878   1.465
   22SOL     OW  817   0.606   0.964   0.123
   22SOL    HW1  818   0.613   1.048   0.069
   22SOL    HW2  819   0.652   0.977   0.211
   23SOL     OW  820   1.594   0.114   1.480
   23SOL    HW1  821   1.576   0.181   1.408
   23SOL    HW2  822   1.591   0.160   1.569
   24SOL     OW  823   0.122   0.643   0.563
   24SOL    HW1  824   0.077   0.555   0.580
   24SOL    HW2  825   0.121   0.697   0.647
   25SOL     OW  826   0.027   1.596   0.117
   25SOL    HW1  827   0.008   1.500   0.138
   25SOL    HW2  828  -0.006   1.654   0.192
   26SOL     OW  829   1.689   0.922   0.612
   26SOL    HW1  830   1.784   0.893   0.620
   26SOL    HW2  831   1.681   0.987   0.537
   27SOL     OW  832   1.641   1.108   0.432
   27SOL    HW1  833   1.727   1.110   0.380
   27SOL    HW2  834   1.655   1.155   0.520
   28SOL     OW  835   0.113   0.737   1.597
   28SOL    HW1  836   0.201   0.724   1.642
   28SOL    HW2  837   0.100   0.834   1.575
   29SOL     OW  838   0.613   1.365   0.726
   29SOL    HW1  839   0.564   1.278   0.735
   29SOL    HW2  840   0.590   1.408   0.639
   30SOL     OW  841   1.293   1.228   1.423
   30SOL    HW1  842   1.330   1.155   1.365
   30SOL    HW2  843   1.345   1.233   1.508
   31SOL     OW  844   0.809   0.004   0.502
   31SOL    HW1  845   0.849   0.095   0.493
   31SOL    HW2  846   0.709   0.012   0.508
   32SOL     OW  847   0.197   0.976   1.264
   32SOL    HW1  848   0.286   0.931   1.250
   32SOL    HW2  849   0.124   0.911   1.245
   33SOL     OW  850   1.525   0.999   0.190
   33SOL    HW1  851   1.462   0.923   0.203
   33SOL    HW2  852   1.573   1.017   0.276
   34SOL     OW  853   1.187   1.792   1.616
   34SOL    HW1  854   1.211   1.852   1.540
   34SOL    HW2  855   1.194   1.697   1.586
   35SOL     OW  856   0.317   0.251   1.801
   35SOL    HW1  857   0.388   0.322   1.807
   35SOL    HW2  858   0.229   0.290   1.829
   36SOL     OW  859   1.466   1.417   0.953
   36SOL    HW1  860   1.407   1.423   1.033
   36SOL    HW2  861   1.451   1.329   0.907
   37SOL     OW  862   1.667   1.714   0.572
   37SOL    HW1  863   1.626   1.691   0.484
   37SOL    HW2  864   1.649   1.640   0.637
   38SOL     OW  865   0.598   0.729   0.270
   38SOL    HW1  866   0.622   0.798   0.202
   38SOL    HW2  867   0.520   0.762   0.324
   39SOL     OW  868   1.281   0.345   0.944
   39SOL    HW1  869   1.195   0.295   0.931
   39SOL    HW2  870   1.343   0.291   1.000
   40SOL     OW  871   1.576   1.662   0.307
   40SOL    HW1  872   1.665   1.708   0.310
   40SOL    HW2  873   1.555   1.638   0.212
   41SOL     OW  874   0.807   0.605   1.465
   41SOL    HW1  875   0.760   0.602   1.554
   41SOL    HW2  876   0.756   0.550   1.399
   42SOL     OW  877   1.394   0.469   1.674
   42SOL    HW1  878   1.374   0.512   1.762
   42SOL    HW2  879   1.472   0.407   1.683
   43SOL     OW  880   0.973   0.890   1.572
   43SOL    HW1  881   1.019   0.806   1.543
   43SOL    HW2  882   0.917   0.924   1.497
   44SOL     OW  883   0.991   0.410   1.242
   44SOL    HW1  884   0.914   0.444   1.296
   44SOL    HW2  885   0.957   0.359   1.163
   45SOL     OW  886   1.041   0.701   0.429
   45SOL    HW1  887   1.067   0.697   0.525
   45SOL    HW2  888   0.956   0.650   0.415
   46SOL     OW  889   0.076   0.811   0.789
   46SOL    HW1  890   0.175   0.799   0.798
   46SOL    HW2  891   0.052   0.906   0.810
   47SOL     OW  892   0.130   1.821   1.571
   47SOL    HW1  893   0.120   1.806   1.670
   47SOL    HW2  894   0.044   1.857   1.535
   48SOL     OW  895   0.865   0.348   0.195
   48SOL    HW1  896   0.924   0.411   0.146
   48SOL    HW2  897   0.884   0.254   0.166
   49SOL     OW  898   1.719   0.585   1.831
   49SOL    HW1  899   1.693   0.674   1.795
   49SOL    HW2  900   1.717   0.517   1.758
   50SOL     OW  901   1.362   1.144   0.545
   50SOL    HW1  902   1.445   1.115   0.497
   50SOL    HW2  903   1.313   1.211   0.489
   51SOL     OW  904   0.550   0.196   0.885
   51SOL    HW1  905   0.545   0.191   0.985
   51SOL    HW2  906   0.552   0.292   0.856
   52SOL     OW  907   1.008   1.456   0.477
   52SOL    HW1  908   0.962   1.528   0.425
   52SOL    HW2  909   1.004   1.476   0.575
   53SOL     OW  910   0.351   1.801   0.853
   53SOL    HW1  911   0.401   1.715   0.859
   53SOL    HW2  912   0.416   1.878   0.850
   54SOL     OW  913   1.795   1.066   0.873
   54SOL    HW1  914   1.733   1.051   0.797
   54SOL    HW2  915   1.743   1.077   0.958
   55SOL     OW  916   1.227   1.550   1.506
   55SOL    HW1  917   1.233   1.473   1.570
   55SOL    HW2  918   1.175   1.524   1.426
   56SOL     OW  919   0.321   0.943   0.242
   56SOL    HW1  920   0.403   0.982   0.200
   56SOL    HW2  921   0.294   0.861   0.193
   57SOL     OW  922   1.458   0.735   0.728
   57SOL    HW1  923   1.453   0.670   0.803
   57SOL    HW2  924   1.538   0.794   0.741
   58SOL     OW  925   0.461   1.266   1.727
   58SOL    HW1  926   0.411   1.267   1.641
   58SOL    HW2  927   0.398   1.248   1.803
   59SOL     OW  928   1.111   1.776   0.237
   59SOL    HW1  929   1.051   1.714   0.287
   59SOL    HW2  930   1.142   1.732   0.152
   60SOL     OW  931   0.202   0.285   1.498
   60SOL    HW1  932   0.122   0.345   1.485
   60SOL    HW2  933   0.192   0.236   1.584
   61SOL     OW  934   1.632   1.377   0.081
   61SOL    HW1  935   1.600   1.471   0.071
   61SOL    HW2  936   1.556   1.314   0.069
   62SOL     OW  937   0.464   1.743   0.323
   62SOL    HW1  938   0.497   1.782   0.409
   62SOL    HW2  939   0.540   1.736   0.258
   63SOL     OW  940   1.400   0.107   0.426
   63SOL    HW1  941   1.376   0.070   0.336
   63SOL    HW2  942   1.499   0.123   0.430
   64SOL     OW  943   0.249   1.785   1.241
   64SOL    HW1  944   0.306   1.720   1.291
   64SOL    HW2  945   0.233   1.752   1.148
   65SOL     OW  946   0.940   1.698   0.904
   65SOL    HW1  947   1.020   1.641   0.925
   65SOL    HW2  948   0.891   1.658   0.827
   66SOL     OW  949   0.382   0.700   0.480
   66SOL    HW1  950   0.427   0.610   0.477
   66SOL    HW2  951   0.288   0.689   0.513
   67SOL     OW  952   1.547   0.222   1.729
   67SOL    HW1  953   1.542   0.259   1.821
   67SOL    HW2  954   1.475   0.153   1.717
   68SOL     OW  955   0.614   0.122   0.117
   68SOL    HW1  956   0.712   0.100   0.124
   68SOL    HW2  957   0.583   0.105   0.024
   69SOL     OW  958   0.781   0.264   1.749
   69SOL    HW1  959   0.848   0.203   1.792
   69SOL    HW2  960   0.708   0.283   1.814
   70SOL     OW  961   0.888   1.514   1.195
   70SOL    HW1  962   0.865   1.489   1.101
   70SOL    HW2  963   0.949   1.445   1.234
   71SOL     OW  964   1.351   0.590   1.433
   71SOL    HW1  965   1.379   0.547   1.518
   71SOL    HW2  966   1.376   0.686   1.434
   72SOL     OW  967   0.803   1.402   0.924
   72SOL    HW1  968   0.893   1.416   0.882
   72SOL    HW2  969   0.732   1.404   0.853
   73SOL     OW  970   0.922   0.503   0.899
   73SOL    HW1  971   0.897   0.494   0.803
   73SOL    HW2  972   0.970   0.421   0.930
   74SOL     OW  973   0.539   0.064   0.512
   74SOL    HW1  974   0.458   0.065   0.570
   74SOL    HW2  975   0.542   0.147   0.457
   75SOL     OW  976   1.434   1.188   0.041
   75SOL    HW1  977   1.466   1.112   0.098
   75SOL    HW2  978   1.342   1.215   0.071
   76SOL     OW  979   0.297   0.035   0.171
   76SOL    HW1  980   0.346   0.119   0.150
   76SOL    HW2  981   0.359  -0.030   0.216
   77SOL     OW  982   0.935   0.236   0.480
   77SOL    HW1  983   0.887   0.277   0.402
   77SOL    HW2  984   1.034   0.234   0.461
   78SOL     OW  985   1.076   0.683   1.464
   78SOL    HW1  986   0.996   0.622   1.467
   78SOL    HW2  987   1.157   0.630   1.440
   79SOL     OW  988   1.227   1.570   0.793
   79SOL    HW1  989   1.248   1.644   0.728
   79SOL    HW2  990   1.295   1.570   0.866
   80SOL     OW  991   0.459   1.152   0.741
   80SOL    HW1  992   0.388   1.125   0.806
   80SOL    HW2  993   0.433   1.124   0.648
   81SOL     OW  994   1.271   1.797   0.591
   81SOL    HW1  995   1.315   1.861   0.527
   81SOL    HW2  996   1.221   1.849   0.661
   82SOL     OW  997   1.032   0.549   0.016
   82SOL    HW1  998   0.991   0.631  -0.023
   82SOL    HW2  999   1.096   0.575   0.089
   83SOL     OW 1000   0.078   0.556   1.386
   83SOL    HW1 1001   0.170   0.555   1.345
   83SOL    HW2 1002   0.072   0.630   1.453
   84SOL     OW 1003   0.561   0.222   1.147
   84SOL    HW1 1004   0.599   0.138   1.184
   84SOL    HW2 1005   0.473   0.241   1.191
   85SOL     OW 1006   0.866   0.454   0.642
   85SOL    HW1 1007   0.834   0.526   0.580
   85SOL    HW2 1008   0.890   0.373   0.589
   86SOL     OW 1009   1.017   0.039   0.753
   86SOL    HW1 1010   0.945   0.044   0.684
   86SOL    HW2 1011   0.993  -0.030   0.822
   87SOL     OW 1012   1.429   1.173   0.867
   87SOL    HW1 1013   1.374   1.089   0.860
   87SOL    HW2 1014   1.455   1.202   0.775
   88SOL     OW 1015   1.466   0.590   0.992
   88SOL    HW1 1016   1.436   0.495   0.999
   88SOL    HW2 1017   1.539   0.606   1.058
   89SOL     OW 1018   1.857   0.833   0.377
   89SOL    HW1 1019   1.899   0.769   0.441
   89SOL    HW2 1020   1.819   0.782   0.299
   90SOL     OW 1021   0.488   1.385   0.174
   90SOL    HW1 1022   0.401   1.370   0.221
   90SOL    HW2 1023   0.471   1.411   0.079
   91SOL     OW 1024   1.664   1.280   0.657
   91SOL    HW1 1025   1.763   1.288   0.671
   91SOL    HW2 1026   1.619   1.364   0.688
   92SOL     OW 1027   1.390   0.575   0.078
   92SOL    HW1 1028   1.336   0.554   0.159
   92SOL    HW2 1029   1.481   0.534   0.087
   93SOL     OW 1030   0.527   0.256   0.328
   93SOL    HW1 1031   0.554   0.197   0.253
   93SOL    HW2 1032   0.527   0.351   0.297
   94SOL     OW 1033   1.754   1.223   1.588
   94SOL    HW1 1034   1.845   1.184   1.575
   94SOL    HW2 1035   1.762   1.319   1.612
   95SOL     OW 1036   1.064   1.347   1.340
   95SOL    HW1 1037   0.984   1.324   1.395
   95SOL    HW2 1038   1.147   1.321   1.389
   96SOL     OW 1039   1.592   1.629   1.625
   96SOL    HW1 1040   1.619   1.663   1.535
   96SOL    HW2 1041   1.671   1.591   1.671
   97SOL     OW 1042   1.111   1.195   1.100
   97SOL    HW1 1043   1.071   1.239   1.181
   97SOL    HW2 1044   1.070   1.232   1.017
   98SOL     OW 1045   1.638   1.099   1.079
   98SOL    HW1 1046   1.643   1.180   1.138
   98SOL    HW2 1047   1.552   1.101   1.028
   99SOL     OW 1048   0.915   0.089   1.402
   99SOL    HW1 1049   0.940   0.069   1.307
   99SOL    HW2 1050   0.987   0.145   1.444
  100SOL     OW 1051   0.980   1.116   1.719
  100SOL    HW1 1052   0.881   1.122   1.729
  100SOL    HW2 1053   1.003   1.036   1.663
  101SOL     OW 1054   0.705   1.050   0.368
  101SOL    HW1 1055   0.691   1.057   0.467
  101SOL    HW2 1056   0.789   0.999   0.350
  102SOL     OW 1057   0.410   0.813   1.251
  102SOL    HW1 1058   0.496   0.825   1.301
  102SOL    HW2 1059   0.368   0.726   1.278
  103SOL     OW 1060   1.274   0.386   1.262
  103SOL    HW1 1061   1.295   0.460   1.326
  103SOL    HW2 1062   1.185   0.403   1.219
  104SOL     OW 1063   0.064   1.564   1.331
  104SOL    HW1 1064   0.018   1.646   1.297
  104SOL    HW2 1065   0.162   1.583   1.340
  105SOL     OW 1066   0.367   1.100   0.501
  105SOL    HW1 1067   0.360   1.183   0.445
  105SOL    HW2 1068   0.371   1.020   0.441
  106SOL     OW 1069   0.566   0.537   0.865
  106SOL    HW1 1070   0.578   0.603   0.791
  106SOL    HW2 1071   0.612   0.571   0.948
  107SOL     OW 1072   1.252   1.348   0.388
  107SOL    HW1 1073   1.302   1.425   0.428
  107SOL    HW2 1074   1.157   1.350   0.420
  108SOL     OW 1075   1.272   1.445   1.142
  108SOL    HW1 1076   1.319   1.458   1.229
  108SOL    HW2 1077   1.206   1.371   1.151
  109SOL     OW 1078   1.582   0.639   0.472
  109SOL    HW1 1079   1.551   0.700   0.545
  109SOL    HW2 1080   1.632   0.691   0.403
  110SOL     OW 1081   0.354   1.510   1.329
  110SOL    HW1 1082   0.333   1.466   1.242
  110SOL    HW2 1083   0.451   1.536   1.332
  111SOL     OW 1084   0.402   0.751   1.598
  111SOL    HW1 1085   0.470   0.806   1.551
  111SOL    HW2 1086   0.442   0.663   1.625
  112SOL     OW 1087   1.587   0.779   1.670
  112SOL    HW1 1088   1.495   0.817   1.665
  112SOL    HW2 1089   1.647   0.826   1.605
  113SOL     OW 1090   1.013   0.105   1.770
  113SOL    HW1 1091   1.019   0.190   1.718
  113SOL    HW2 1092   1.045   0.029   1.713
  114SOL     OW 1093   0.504   0.050   1.740
  114SOL    HW1 1094   0.462  -0.007   1.670
  114SOL    HW2 1095   0.438   0.119   1.772
  115SOL     OW 1096   0.573   0.870   1.029
  115SOL    HW1 1097   0.617   0.959   1.020
  115SOL    HW2 1098   0.510   0.870   1.106
  116SOL     OW 1099   1.360   0.862   1.045
  116SOL    HW1 1100   1.285   0.862   0.979
  116SOL    HW2 1101   1.397   0.770   1.054
  117SOL     OW 1102   1.209   0.525   0.275
  117SOL    HW1 1103   1.222   0.441   0.329
  117SOL    HW2 1104   1.180   0.599   0.335
  118SOL     OW 1105   0.307   0.213   1.231
  118SOL    HW1 1106   0.284   0.250   1.321
  118SOL    HW2 1107   0.277   0.118   1.225
  119SOL     OW 1108   0.037   1.310   1.282
  119SOL    HW1 1109   0.090   1.261   1.350
  119SOL    HW2 1110   0.059   1.408   1.287
  120SOL     OW 1111   0.732   0.634   1.064
  120SOL    HW1 1112   0.791   0.608   0.988
  120SOL    HW2 1113   0.704   0.730   1.053
  121SOL     OW 1114   1.728   0.935   1.854
  121SOL    HW1 1115   1.682   0.928   1.765
  121SOL    HW2 1116   1.666   0.979   1.920
  122SOL     OW 1117   0.307   0.063   0.618
  122SOL    HW1 1118   0.296   0.157   0.651
  122SOL    HW2 1119   0.302   0.000   0.695
  123SOL     OW 1120   1.622   0.367   0.374
  123SOL    HW1 1121   1.624   0.291   0.438
  123SOL    HW2 1122   1.574   0.444   0.414
  124SOL     OW 1123   1.023   0.766   0.966
  124SOL    HW1 1124   1.038   0.787   1.062
  124SOL    HW2 1125   0.993   0.671   0.957
  125SOL     OW 1126   0.980   1.573   1.700
  125SOL    HW1 1127   0.960   1.617   1.612
  125SOL    HW2 1128   1.019   1.482   1.684
  126SOL     OW 1129   1.859   1.518   1.605
  126SOL    HW1 1130   1.873   1.545   1.510
  126SOL    HW2 1131   1.942   1.540   1.658
  127SOL     OW 1132   0.350   0.898   1.804
  127SOL    HW1 1133   0.426   0.942   1.852
  127SOL    HW2 1134   0.385   0.851   1.722
  128SOL     OW 1135   1.540   0.274   0.125
  128SOL    HW1 1136   1.479   0.199   0.148
  128SOL    HW2 1137   1.562   0.326   0.208
  129SOL     OW 1138   1.303   0.838   0.042
  129SOL    HW1 1139   1.337   0.745   0.057
  129SOL    HW2 1140   1.321   0.865  -0.053
  130SOL     OW 1141   1.068   1.333   0.849
  130SOL    HW1 1142   1.075   1.249   0.794
  130SOL    HW2 1143   1.130   1.402   0.813
  131SOL     OW 1144   0.319   0.810   0.949
  131SOL    HW1 1145   0.412   0.846   0.954
  131SOL    HW2 1146   0.313   0.725   1.001
  132SOL     OW 1147   0.339   0.509   1.006
  132SOL    HW1 1148   0.287   0.426   0.989
  132SOL    HW2 1149   0.416   0.514   0.942
  133SOL     OW 1150   1.138   0.380   1.678
  133SOL    HW1 1151   1.093   0.443   1.742
  133SOL    HW2 1152   1.231   0.411   1.661
  134SOL     OW 1153   1.160   0.207   1.477
  134SOL    HW1 1154   1.160   0.271   1.554
  134SOL    HW2 1155   1.188   0.255   1.394
  135SOL     OW 1156   0.008   1.326   0.200
  135SOL    HW1 1157  -0.085   1.347   0.169
  135SOL    HW2 1158   0.018   1.227   0.213
  136SOL     OW 1159   0.088   1.801   0.927
  136SOL    HW1 1160   0.046   1.715   0.900
  136SOL    HW2 1161   0.182   1.804   0.893
  137SOL     OW 1162   0.504   1.568   0.910
  137SOL    HW1 1163   0.570   1.642   0.919
  137SOL    HW2 1164   0.548   1.489   0.868
  138SOL     OW 1165   1.002   0.796   1.238
  138SOL    HW1 1166   1.043   0.764   1.324
  138SOL    HW2 1167   0.906   0.769   1.235
  139SOL     OW 1168   0.040   0.544   1.114
  139SOL    HW1 1169   0.125   0.511   1.073
  139SOL    HW2 1170   0.053   0.559   1.212
  140SOL     OW 1171   0.189   0.520   1.722
  140SOL    HW1 1172   0.248   0.480   1.652
  140SOL    HW2 1173   0.131   0.591   1.681
  141SOL     OW 1174   1.369   0.950   1.660
  141SOL    HW1 1175   1.408   1.039   1.680
  141SOL    HW2 1176   1.379   0.930   1.563
  142SOL     OW 1177   0.815   0.572   0.325
  142SOL    HW1 1178   0.822   0.483   0.279
  142SOL    HW2 1179   0.721   0.606   0.317
  143SOL     OW 1180   1.657   0.604   1.206
  143SOL    HW1 1181   1.619   0.535   1.268
  143SOL    HW2 1182   1.739   0.568   1.162
  144SOL     OW 1183   0.252   1.564   1.744
  144SOL    HW1 1184   0.222   1.621   1.820
  144SOL    HW2 1185   0.245   1.467   1.770
  145SOL     OW 1186   0.671   0.464   1.269
  145SOL    HW1 1187   0.637   0.375   1.239
  145SOL    HW2 1188   0.697   0.518   1.189
  146SOL     OW 1189   0.930   1.678   1.465
  146SOL    HW1 1190   0.906   1.660   1.370
  146SOL    HW2 1191   0.960   1.772   1.475
  147SOL     OW 1192   0.473   0.500   0.191
  147SOL    HW1 1193   0.534   0.580   0.195
  147SOL    HW2 1194   0.378   0.531   0.198
  148SOL     OW 1195   0.159   1.137   1.466
  148SOL    HW1 1196   0.181   1.076   1.542
  148SOL    HW2 1197   0.169   1.088   1.380
  149SOL     OW 1198   1.347   1.059   1.234
  149SOL    HW1 1199   1.371   0.996   1.160
  149SOL    HW2 1200   1.257   1.099   1.216
  150SOL     OW 1201   1.302   0.855   0.309
  150SOL    HW1 1202   1.216   0.824   0.351
  150SOL    HW2 1203   1.298   0.841   0.210
  151SOL     OW 1204   1.252   1.731   1.128
  151SOL    HW1 1205   1.336   1.736   1.074
  151SOL    HW2 1206   1.229   1.635   1.146
  152SOL     OW 1207   0.083   1.258   1.022
  152SOL    HW1 1208   0.078   1.257   1.122
  152SOL    HW2 1209   0.000   1.217   0.984
  153SOL     OW 1210   0.688   1.662   1.716
  153SOL    HW1 1211   0.632   1.743   1.725
  153SOL    HW2 1212   0.740   1.666   1.630
  154SOL     OW 1213   0.903   0.086   0.133
  154SOL    HW1 1214   0.954   0.087   0.047
  154SOL    HW2 1215   0.959   0.044   0.204
  155SOL     OW 1216   1.726   0.135   0.523
  155SOL    HW1 1217   1.799   0.118   0.456
  155SOL    HW2 1218   1.695   0.048   0.561
  156SOL     OW 1219   1.388   1.573   0.477
  156SOL    HW1 1220   1.455   1.585   0.403
  156SOL    HW2 1221   1.348   1.662   0.500
  157SOL     OW 1222   0.130   1.794   1.851
  157SOL    HW1 1223   0.089   1.720   1.904
  157SOL    HW2 1224   0.194   1.845   1.909
  158SOL     OW 1225   1.280   0.927   0.672
  158SOL    HW1 1226   1.340   0.846   0.674
  158SOL    HW2 1227   1.320   0.996   0.612
  159SOL     OW 1228   0.830   1.273   1.422
  159SOL    HW1 1229   0.825   1.306   1.517
  159SOL    HW2 1230   0.744   1.292   1.376
  160SOL     OW 1231   0.672   1.616   0.154
  160SOL    HW1 1232   0.681   1.626   0.055
  160SOL    HW2 1233   0.632   1.527   0.175
  161SOL     OW 1234   1.650   1.720   1.394
  161SOL    HW1 1235   1.703   1.730   1.310
  161SOL    HW2 1236   1.623   1.810   1.428
  162SOL     OW 1237   1.841   0.175   0.963
  162SOL    HW1 1238   1.880   0.090   0.927
  162SOL    HW2 1239   1.743   0.177   0.944
  163SOL     OW 1240   0.263   0.326   0.720
  163SOL    HW1 1241   0.184   0.377   0.686
  163SOL    HW2 1242   0.254   0.311   0.818
  164SOL     OW 1243   1.194   1.612   0.031
  164SOL    HW1 1244   1.200   1.519   0.068
  164SOL    HW2 1245   1.135   1.612  -0.049
  165SOL     OW 1246   0.822   1.002   1.372
  165SOL    HW1 1247   0.862   1.001   1.280
  165SOL    HW2 1248   0.832   1.094   1.412
  166SOL     OW 1249   0.916   0.910   0.291
  166SOL    HW1 1250   0.979   0.948   0.223
  166SOL    HW2 1251   0.956   0.827   0.330
  167SOL     OW 1252   1.504   1.607   0.044
  167SOL    HW1 1253   1.412   1.644   0.051
  167SOL    HW2 1254   1.542   1.627  -0.046
  168SOL     OW 1255   0.372   1.288   1.490
  168SOL    HW1 1256   0.359   1.381   1.456
  168SOL    HW2 1257   0.288   1.236   1.477
  169SOL     OW 1258   1.614   1.292   1.289
  169SOL    HW1 1259   1.674   1.295   1.369
  169SOL    HW2 1260   1.539   1.356   1.302
  170SOL     OW 1261   1.039   1.098   0.696
  170SOL    HW1 1262   0.969   1.051   0.750
  170SOL    HW2 1263   1.098   1.030   0.653
  171SOL     OW 1264   1.014   0.236   0.971
  171SOL    HW1 1265   1.006   0.200   0.878
  171SOL    HW2 1266   1.012   0.160   1.036
  172SOL     OW 1267   0.590   1.487   0.491
  172SOL    HW1 1268   0.632   1.429   0.421
  172SOL    HW2 1269   0.546   1.566   0.447
  173SOL     OW 1270   1.709   0.385   1.381
  173SOL    HW1 1271   1.782   0.454   1.385
  173SOL    HW2 1272   1.737   0.310   1.322
  174SOL     OW 1273   0.255   1.348   0.290
  174SOL    HW1 1274   0.159   1.349   0.263
  174SOL    HW2 1275   0.267   1.401   0.374
  175SOL     OW 1276   0.105   1.013   1.726
  175SOL    HW1 1277   0.028   0.980   1.780
  175SOL    HW2 1278   0.190   0.983   1.768
  176SOL     OW 1279   0.672   0.203   1.489
  176SOL    HW1 1280   0.762   0.187   1.449
  176SOL    HW2 1281   0.680   0.208   1.588
  177SOL     OW 1282   0.075   0.345   0.033
  177SOL    HW1 1283  -0.017   0.317   0.004
  177SOL    HW2 1284   0.106   0.422  -0.023
  178SOL     OW 1285   1.440   0.856   1.398
  178SOL    HW1 1286   1.383   0.908   1.335
  178SOL    HW2 1287   1.536   0.868   1.374
  179SOL     OW 1288   0.072   0.166   0.318
  179SOL    HW1 1289   0.055   0.249   0.264
  179SOL    HW2 1290   0.162   0.129   0.296
  180SOL     OW 1291   1.183   1.335   0.119
  180SOL    HW1 1292   1.084   1.324   0.121
  180SOL    HW2 1293   1.217   1.350   0.212
  181SOL     OW 1294   0.613   0.842   1.431
  181SOL    HW1 1295   0.669   0.923   1.414
  181SOL    HW2 1296   0.672   0.762   1.434
  182SOL     OW 1297   1.493   1.767   0.959
  182SOL    HW1 1298   1.526   1.831   0.890
  182SOL    HW2 1299   1.559   1.761   1.034
  183SOL     OW 1300   0.716   0.565   1.708
  183SOL    HW1 1301   0.735   0.630   1.782
  183SOL    HW2 1302   0.776   0.485   1.717
  184SOL     OW 1303   1.450   1.220   1.633
  184SOL    HW1 1304   1.441   1.210   1.732
  184SOL    HW2 1305   1.546   1.213   1.607
  185SOL     OW 1306   0.390   1.741   1.560
  185SOL    HW1 1307   0.299   1.782   1.558
  185SOL    HW2 1308   0.383   1.647   1.592
  186SOL     OW 1309   1.674   0.883   1.254
  186SOL    HW1 1310   1.647   0.794   1.217
  186SOL    HW2 1311   1.675   0.951   1.181
  187SOL     OW 1312   1.225   0.325   0.449
  187SOL    HW1 1313   1.290   0.251   0.438
  187SOL    HW2 1314   1.245   0.375   0.533
  188SOL     OW 1315   0.594   0.745   0.652
  188SOL    HW1 1316   0.644   0.830   0.633
  188SOL    HW2 1317   0.506   0.747   0.604
  189SOL     OW 1318   1.777   0.342   1.642
  189SOL    HW1 1319   1.760   0.373   1.548
  189SOL    HW2 1320   1.693   0.305   1.680
  190SOL     OW 1321   1.730   0.934   1.517
  190SOL    HW1 1322   1.768   1.025   1.532
  190SOL    HW2 1323   1.722   0.917   1.418
  191SOL     OW 1324   0.859   1.374   0.016
  191SOL    HW1 1325   0.813   1.389   0.104
  191SOL    HW2 1326   0.903   1.459  -0.014
  192SOL     OW 1327   0.661   1.790   0.953
  192SOL    HW1 1328   0.615   1.878   0.940
  192SOL    HW2 1329   0.760   1.802   0.946
  193SOL     OW 1330   0.859   0.956   0.861
  193SOL    HW1 1331   0.913   0.887   0.909
  193SOL    HW2 1332   0.827   1.025   0.927
  194SOL     OW 1333   1.083   0.984   0.087
  194SOL    HW1 1334   1.060   1.037   0.005
  194SOL    HW2 1335   1.164   0.928   0.068
  195SOL     OW 1336   1.861   1.569   0.851
  195SOL    HW1 1337   1.790   1.557   0.781
  195SOL    HW2 1338   1.862   1.490   0.911
  196SOL     OW 1339   0.221   1.314   1.844
  196SOL    HW1 1340   0.156   1.241   1.823
  196SOL    HW2 1341   0.225   1.328   1.942
  197SOL     OW 1342   0.079   1.240   0.653
  197SOL    HW1 1343   0.078   1.193   0.741
  197SOL    HW2 1344   0.161   1.212   0.602
  198SOL     OW 1345   0.672   1.391   1.624
  198SOL    HW1 1346   0.594   1.341   1.662
  198SOL    HW2 1347   0.669   1.486   1.655
  199SOL     OW 1348   1.824   0.192   1.227
  199SOL    HW1 1349   1.820   0.102   1.271
  199SOL    HW2 1350   1.827   0.181   1.128
  200SOL     OW 1351   0.428   0.424   0.520
  200SOL    HW1 1352   0.458   0.352   0.458
  200SOL    HW2 1353   0.389   0.384   0.603
  201SOL     OW 1354   1.705   1.487   1.104
  201SOL    HW1 1355   1.612   1.462   1.077
  201SOL    HW2 1356   1.731   1.437   1.186
  202SOL     OW 1357   0.317   0.547   1.280
  202SOL    HW1 1358   0.355   0.488   1.352
  202SOL    HW2 1359   0.357   0.521   1.192
  203SOL     OW 1360   0.812   1.586   0.687
  203SOL    HW1 1361   0.844   1.596   0.593
  203SOL    HW2 1362   0.733   1.524   0.689
  204SOL     OW 1363   1.424   0.214   1.112
  204SOL    HW1 1364   1.476   0.149   1.167
  204SOL    HW2 1365   1.375   0.277   1.173
  205SOL     OW 1366   1.001   0.034   1.154
  205SOL    HW1 1367   0.938  -0.038   1.123
  205SOL    HW2 1368   1.094  -0.002   1.154
  206SOL     OW 1369   0.770   1.330   0.301
  206SOL    HW1 1370   0.724   1.243   0.318
  206SOL    HW2 1371   0.861   1.327   0.342
  207SOL     OW 1372   0.618   1.567   1.284
  207SOL    HW1 1373   0.613   1.649   1.341
  207SOL    HW2 1374   0.707   1.564   1.239
  208SOL     OW 1375   1.352   0.052   0.168
  208SOL    HW1 1376   1.387   0.011   0.084
  208SOL    HW2 1377   1.262   0.014   0.188
  209SOL     OW 1378   1.300   0.453   0.691
  209SOL    HW1 1379   1.241   0.533   0.695
  209SOL    HW2 1380   1.315   0.418   0.784
  210SOL     OW 1381   1.593   0.221   0.882
  210SOL    HW1 1382   1.509   0.220   0.936
  210SOL    HW2 1383   1.595   0.304   0.826
  211SOL     OW 1384   0.039   1.077   0.300
  211SOL    HW1 1385   0.138   1.066   0.291
  211SOL    HW2 1386  -0.001   0.991   0.332
  212SOL     OW 1387   0.875   1.646   0.337
  212SOL    HW1 1388   0.798   1.611   0.283
  212SOL    HW2 1389   0.843   1.717   0.399
  213SOL     OW 1390   0.230   0.628   1.975
  213SOL    HW1 1391   0.137   0.626   2.012
  213SOL    HW2 1392   0.231   0.589   1.883
  214SOL     OW 1393   0.225   0.275   2.858
  214SOL    HW1 1394   0.260   0.258   2.950
  214SOL    HW2 1395   0.137   0.230   2.846
  215SOL     OW 1396   0.019   0.368   2.509
  215SOL    HW1 1397  -0.063   0.411   2.548
  215SOL    HW2 1398  -0.009   0.295   2.446
  216SOL     OW 1399   0.569   1.275   3.027
  216SOL    HW1 1400   0.476   1.268   2.990
  216SOL    HW2 1401   0.580   1.364   3.071
  217SOL     OW 1402   1.555   1.511   2.565
  217SOL    HW1 1403   1.498   1.495   2.646
  217SOL    HW2 1404   1.496   1.521   2.485
  218SOL     OW 1405   1.135   0.703   2.579
  218SOL    HW1 1406   1.192   0.781   2.554
  218SOL    HW2 1407   1.075   0.729   2.655
  219SOL     OW 1408   1.755   0.607   2.093
  219SOL    HW1 1409   1.743   0.594   1.994
  219SOL    HW2 1410   1.725   0.526   2.142
  220SOL     OW 1411   0.768   1.144   2.885
  220SOL    HW1 1412   0.690   1.161   2.945
  220SOL    HW2 1413   0.802   1.231   2.849
  221SOL     OW 1414   0.850   0.798   3.685
  221SOL    HW1 1415   0.846   0.874   3.750
  221SOL    HW2 1416   0.872   0.834   3.594
  222SOL     OW 1417   0.685   1.012   2.527
  222SOL    HW1 1418   0.754   0.996   2.597
  222SOL    HW2 1419   0.612   1.069   2.565
  223SOL     OW 1420   0.686   1.161   3.665
  223SOL    HW1 1421   0.746   1.240   3.679
  223SOL    HW2 1422   0.600   1.192   3.624
  224SOL     OW 1423   0.335   1.435   2.923
  224SOL    HW1 1424   0.257   1.404   2.870
  224SOL    HW2 1425   0.393   1.493   2.866
  225SOL     OW 1426   1.460   1.505   3.201
  225SOL    HW1 1427   1.484   1.599   3.227
  225SOL    HW2 1428   1.444   1.451   3.283
  226SOL     OW 1429   0.438   0.392   3.361
  226SOL    HW1 1430   0.520   0.336   3.370
  226SOL    HW2 1431   0.357   0.334   3.365
  227SOL     OW 1432   1.603   0.447   2.599
  227SOL    HW1 1433   1.529   0.493   2.549
  227SOL    HW2 1434   1.654   0.515   2.652
  228SOL     OW 1435   0.231   1.713   2.345
  228SOL    HW1 1436   0.265   1.790   2.399
  228SOL    HW2 1437   0.275   1.713   2.255
  229SOL     OW 1438   1.127   1.341   3.552
  229SOL    HW1 1439   1.174   1.341   3.640
  229SOL    HW2 1440   1.079   1.254   3.541
  230SOL     OW 1441   0.230   1.434   2.400
  230SOL    HW1 1442   0.204   1.530   2.400
  230SOL    HW2 1443   0.159   1.380   2.445
  231SOL     OW 1444   0.240   1.091   2.748
  231SOL    HW1 1445   0.254   1.007   2.800
  231SOL    HW2 1446   0.185   1.155   2.803
  232SOL     OW 1447   0.620   1.786   3.301
  232SOL    HW1 1448   0.528   1.769   3.336
  232SOL    HW2 1449   0.648   1.878   3.327
  233SOL     OW 1450   0.606   0.964   1.985
  233SOL    HW1 1451   0.613   1.048   1.931
  233SOL    HW2 1452   0.652   0.977   2.073
  234SOL     OW 1453   1.594   0.114   3.342
  234SOL    HW1 1454   1.576   0.181   3.270
  234SOL    HW2 1455   1.591   0.160   3.431
  235SOL     OW 1456   0.122   0.643   2.425
  235SOL    HW1 1457   0.077   0.555   2.442
  235SOL    HW2 1458   0.121   0.697   2.509
  236SOL     OW 1459   0.027   1.596   1.979
  236SOL    HW1 1460   0.008   1.500   2.000
  236SOL    HW2 1461  -0.006   1.654   2.054
  237SOL     OW 1462   1.689   0.922   2.474
  237SOL    HW1 1463   1.784   0.893   2.482
  237SOL    HW2 1464   1.681   0.987   2.399
  238SOL     OW 1465   1.641   1.108   2.294
  238SOL    HW1 1466   1.727   1.110   2.242
  238SOL    HW2 1467   1.655   1.155   2.382
  239SOL     OW 1468   0.113   0.737   3.459
  239SOL    HW1 1469   0.201   0.724   3.504
  239SOL    HW2 1470   0.100   0.834   3.437
  240SOL     OW 1471   0.613   1.365   2.588
  240SOL    HW1 1472   0.564   1.278   2.597
  240SOL    HW2 1473   0.590   1.408   2.501
  241SOL     OW 1474   1.293   1.228   3.285
  241SOL    HW1 1475   1.330   1.155   3.227
  241SOL    HW2 1476   1.345   1.233   3.370
  242SOL     OW 1477   0.809   0.004   2.364
  242SOL    HW1 1478   0.849   0.095   2.355
  242SOL    HW2 1479   0.709   0.012   2.370
  243SOL     OW 1480   0.197   0.976   3.126
  243SOL    HW1 1481   0.286   0.931   3.112
  243SOL    HW2 1482   0.124   0.911   3.107
  244SOL     OW 1483   1.525   0.999   2.052
  244SOL    HW1 1484   1.462   0.923   2.065
  244SOL    HW2 1485   1.573   1.017   2.138
  245SOL     OW 1486   1.187   1.792   3.478
  245SOL    HW1 1487   1.211   1.852   3.402
  245SOL    HW2 1488   1.194   1.697   3.448
  246SOL     OW 1489   0.317   0.251   3.663
  246SOL    HW1 1490   0.388   0.322   3.669
  246SOL    HW2 1491   0.229   0.290   3.691
  247SOL     OW 1492   1.466   1.417   2.815
  247SOL    HW1 1493   1.407   1.423   2.895
  247SOL    HW2 1494   1.451   1.329   2.769
  248SOL     OW 1495   1.667   1.714   2.434
  248SOL    HW1 1496   1.626   1.691   2.346
  248SOL    HW2 1497   1.649   1.640   2.499
  249SOL     OW 1498   0.598   0.729   2.132
  249SOL    HW1 1499   0.622   0.798   2.064
  249SOL    HW2 1500   0.520   0.762   2.186
  250SOL     OW 1501   1.281   0.345   2.806
  250SOL    HW1 1502   1.195   0.295   2.793
  250SOL    HW2 1503   1.343   0.291   2.862
  251SOL     OW 1504   1.576   1.662   2.169
  251SOL    HW1 1505   1.665   1.708   2.172
  251SOL    HW2 1506   1.555   1.638   2.074
  252SOL     OW 1507   0.807   0.605   3.327
  252SOL    HW1 1508   0.760   0.602   3.416
  252SOL    HW2 1509   0.756   0.550   3.261
  253SOL     OW 1510   1.394   0.469   3.536
  253SOL    HW1 1511   1.374   0.512   3.624
  253SOL    HW2 1512   1.472   0.407   3.545
  254SOL     OW 1513   0.973   0.890   3.434
  254SOL    HW1 1514   1.019   0.806   3.405
  254SOL    HW2 1515   0.917   0.924   3.359
  255SOL     OW 1516   0.991   0.410   3.104
  255SOL    HW1 1517   0.914   0.444   3.158
  255SOL    HW2 1518   0.957   0.359   3.025
  256SOL     OW 1519   1.041   0.701   2.291
  256SOL    HW1 1520   1.067   0.697   2.387
  256SOL    HW2 1521   0.956   0.650   2.277
  257SOL     OW 1522   0.076   0.811   2.651
  257SOL    HW1 1523   0.175   0.799   2.660
  257SOL    HW2 1524   0.052   0.906   2.672
  258SOL     OW 1525   0.130   1.821   3.433
  258SOL    HW1 1526   0.120   1.806   3.532
  258SOL    HW2 1527   0.044   1.857   3.397
  259SOL     OW 1528   0.865   0.348   2.057
  259SOL    HW1 1529   0.924   0.411   2.008
  259SOL    HW2 1530   0.884   0.254   2.028
  260SOL     OW 1531   1.719   0.585   3.693
  260SOL    HW1 1532   1.693   0.674   3.657
  260SOL    HW2 1533   1.717   0.517   3.620
  261SOL     OW 1534   1.362   1.144   2.407
  261SOL    HW1 1535   1.445   1.115   2.359
  261SOL    HW2 1536   1.313   1.211   2.351
  262SOL     OW 1537   0.550   0.196   2.747
  262SOL    HW1 1538   0.545   0.191   2.847
  262SOL    HW2 1539   0.552   0.292   2.718
  263SOL     OW 1540   1.008   1.456   2.339
  263SOL    HW1 1541   0.962   1.528   2.287
  263SOL    HW2 1542   1.004   1.476   2.437
  264SOL     OW 1543   0.351   1.801   2.715
  264SOL    HW1 1544   0.401   1.715   2.721
  264SOL    HW2 1545   0.416   1.878   2.712
  265SOL     OW 1546   1.795   1.066   2.735
  265SOL    HW1 1547   1.733   1.051   2.659
  265SOL    HW2 1548   1.743   1.077   2.820
  266SOL     OW 1549   1.227   1.550   3.368
  266SOL    HW1 1550   1.233   1.473   3.432
  266SOL    HW2 1551   1.175   1.524   3.288
  267SOL     OW 1552   0.321   0.943   2.104
  267SOL    HW1 1553   0.403   0.982   2.062
  267SOL    HW2 1554   0.294   0.861   2.055
  268SOL     OW 1555   1.458   0.735   2.590
  268SOL    HW1 1556   1.453   0.670   2.665
  268SOL    HW2 1557   1.538   0.794   2.603
  269SOL     OW 1558   0.461   1.266   3.589
  269SOL    HW1 1559   0.411   1.267   3.503
  269SOL    HW2 1560   0.398   1.248   3.665
  270SOL     OW 1561   1.111   1.776   2.099
  270SOL    HW1 1562   1.051   1.714   2.149
  270SOL    HW2 1563   1.142   1.732   2.014
  271SOL     OW 1564   0.202   0.285   3.360
  271SOL    HW1 1565   0.122   0.345   3.347
  271SOL    HW2 1566   0.192   0.236   3.446
  272SOL     OW 1567   1.632   1.377   1.943
  272SOL    HW1 1568   1.600   1.471   1.933
  272SOL    HW2 1569   1.556   1.314   1.931
  273SOL     OW 1570   0.464   1.743   2.185
  273SOL    HW1 1571   0.497   1.782   2.271
  273SOL    HW2 1572   0.540   1.736   2.120
  274SOL     OW 1573   1.400   0.107   2.288
  274SOL    HW1 1574   1.376   0.070   2.198
  274SOL    HW2 1575   1.499   0.123   2.292
  275SOL     OW 1576   0.249   1.785   3.103
  275SOL    HW1 1577   0.306   1.720   3.153
  275SOL    HW2 1578   0.233   1.752   3.010
  276SOL     OW 1579   0.940   1.698   2.766
  276SOL    HW1 1580   1.020   1.641   2.787
  276SOL    HW2 1581   0.891   1.658   2.689
  277SOL     OW 1582   0.382   0.700   2.342
  277SOL    HW1 1583   0.427   0.610   2.339
  277SOL    HW2 1584   0.288   0.689   2.375
  278SOL     OW 1585   1.547   0.222   3.591
  278SOL    HW1 1586   1.542   0.259   3.683
  278SOL    HW2 1587   1.475   0.153   3.579
  279SOL     OW 1588   0.614   0.122   1.979
  279SOL    HW1 1589   0.712   0.100   1.986
  279SOL    HW2 1590   0.583   0.105   1.886
  280SOL     OW 1591   0.781   0.264   3.611
  280SOL    HW1 1592   0.848   0.203   3.654
  280SOL    HW2 1593   0.708   0.283   3.676
  281SOL     OW 1594   0.888   1.514   3.057
  281SOL    HW1 1595   0.865   1.489   2.963
  281SOL    HW2 1596   0.949   1.445   3.096
  282SOL     OW 1597   1.351   0.590   3.295
  282SOL    HW1 1598   1.379   0.547   3.380
  282SOL    HW2 1599   1.376   0.686   3.296
  283SOL     OW 1600   0.803   1.402   2.786
  283SOL    HW1 1601   0.893   1.416   2.744
  283SOL    HW2 1602   0.732   1.404   2.715
  284SOL     OW 1603   0.922   0.503   2.761
  284SOL    HW1 1604   0.897   0.494   2.665
  284SOL    HW2 1605   0.970   0.421   2.792
  285SOL     OW 1606   0.539   0.064   2.374
  285SOL    HW1 1607   0.458   0.065   2.432
  285SOL    HW2 1608   0.542   0.147   2.319
  286SOL     OW 1609   1.434   1.188   1.903
  286SOL    HW1 1610   1.466   1.112   1.960
  286SOL    HW2 1611   1.342   1.215   1.933
  287SOL     OW 1612   0.297   0.035   2.033
  287SOL    HW1 1613   0.346   0.119   2.012
  287SOL    HW2 1614   0.359  -0.030   2.078
  288SOL     OW 1615   0.935   0.236   2.342
  288SOL    HW1 1616   0.887   0.277   2.264
  288SOL    HW2 1617   1.034   0.234   2.323
  289SOL     OW 1618   1.076   0.683   3.326
  289SOL    HW1 1619   0.996   0.622   3.329
  289SOL    HW2 1620   1.157   0.630   3.302
  290SOL     OW 1621   1.227   1.570   2.655
  290SOL    HW1 1622   1.248   1.644   2.590
  290SOL    HW2 1623   1.295   1.570   2.728
  291SOL     OW 1624   0.459   1.152   2.603
  291SOL    HW1 1625   0.388   1.125   2.668
  291SOL    HW2 1626   0.433   1.124   2.510
  292SOL     OW 1627   1.271   1.797   2.453
  292SOL    HW1 1628   1.315   1.861   2.389
  292SOL    HW2 1629   1.221   1.849   2.523
  293SOL     OW 1630   1.032   0.549   1.878
  293SOL    HW1 1631   0.991   0.631   1.839
  293SOL    HW2 1632   1.096   0.575   1.951
  294SOL     OW 1633   0.078   0.556   3.248
  294SOL    HW1 1634   0.170   0.555   3.207
  294SOL    HW2 1635   0.072   0.630   3.315
  295SOL     OW 1636   0.561   0.222   3.009
  295SOL    HW1 1637   0.599   0.138   3.046
  295SOL    HW2 1638   0.473   0.241   3.053
  296SOL     OW 1639   0.866   0.454   2.504
  296SOL    HW1 1640   0.834   0.526   2.442
  296SOL    HW2 1641   0.890   0.373   2.451
  297SOL     OW 1642   1.017   0.039   2.615
  297SOL    HW1 1643   0.945   0.044   2.546
  297SOL    HW2 1644   0.993  -0.030   2.684
  298SOL     OW 1645   1.429   1.173   2.729
  298SOL    HW1 1646   1.374   1.089   2.722
  298SOL    HW2 1647   1.455   1.202   2.637
  299SOL     OW 1648   1.466   0.590   2.854
  299SOL    HW1 1649   1.436   0.495   2.861
  299SOL    HW2 1650   1.539   0.606   2.920
  300SOL     OW 1651   1.857   0.833   2.239
  300SOL    HW1 1652   1.899   0.769   2.303
  300SOL    HW2 1653   1.819   0.782   2.161
  301SOL     OW 1654   0.488   1.385   2.036
  301SOL    HW1 1655   0.401   1.370   2.083
  301SOL    HW2 1656   0.471   1.411   1.941
  302SOL     OW 1657   1.664   1.280   2.519
  302SOL    HW1 1658   1.763   1.288   2.533
  302SOL    HW2 1659   1.619   1.364   2.550
  303SOL     OW 1660   1.390   0.575   1.940
  303SOL    HW1 1661   1.336   0.554   2.021
  303SOL    HW2 1662   1.481   0.534   1.949
  304SOL     OW 1663   0.527   0.256   2.190
  304SOL    HW1 1664   0.554   0.197   2.115
  304SOL    HW2 1665   0.527   0.351   2.159
  305SOL     OW 1666   1.754   1.223   3.450
  305SOL    HW1 1667   1.845   1.184   3.437
  305SOL    HW2 1668   1.762   1.319   3.474
  306SOL     OW 1669   1.064   1.347   3.202
  306SOL    HW1 1670   0.984   1.324   3.257
  306SOL    HW2 1671   1.147   1.321   3.251
  307SOL     OW 1672   1.592   1.629   3.487
  307SOL    HW1 1673   1.619   1.663   3.397
  307SOL    HW2 1674   1.671   1.591   3.533
  308SOL     OW 1675   1.111   1.195   2.962
  308SOL    HW1 1676   1.071   1.239   3.043
  308SOL    HW2 1677   1.070   1.232   2.879
  309SOL     OW 1678   1.638   1.099   2.941
  309SOL    HW1 1679   1.643   1.180   3.000
  309SOL    HW2 1680   1.552   1.101   2.890
  310SOL     OW 1681   0.915   0.089   3.264
  310SOL    HW1 1682   0.940   0.069   3.169
  310SOL    HW2 1683   0.987   0.145   3.306
  311SOL     OW 1684   0.980   1.116   3.581
  311SOL    HW1 1685   0.881   1.122   3.591
  311SOL    HW2 1686   1.003   1.036   3.525
  312SOL     OW 1687   0.705   1.050   2.230
  312SOL    HW1 1688   0.691   1.057   2.329
  312SOL    HW2 1689   0.789   0.999   2.212
  313SOL     OW 1690   0.410   0.813   3.113
  313SOL    HW1 1691   0.496   0.825   3.163
  313SOL    HW2 1692   0.368   0.726   3.140
  314SOL     OW 1693   1.274   0.386   3.124
  314SOL    HW1 1694   1.295   0.460   3.188
  314SOL    HW2 1695   1.185   0.403   3.081
  315SOL     OW 1696   0.064   1.564   3.193
  315SOL    HW1 1697   0.018   1.646   3.159
  315SOL    HW2 1698   0.162   1.583   3.202
  316SOL     OW 1699   0.367   1.100   2.363
  316SOL    HW1 1700   0.360   1.183   2.307
  316SOL    HW2 1701   0.371   1.020   2.303
  317SOL     OW 1702   0.566   0.537   2.727
  317SOL    HW1 1703   0.578   0.603   2.653
  317SOL    HW2 1704   0.612   0.571   2.810
  318SOL     OW 1705   1.252   1.348   2.250
  318SOL    HW1 1706   1.302   1.425   2.290
  318SOL    HW2 1707   1.157   1.350   2.282
  319SOL     OW 1708   1.272   1.445   3.004
  319SOL    HW1 1709   1.319   1.458   3.091
  319SOL    HW2 1710   1.206   1.371   3.013
  320SOL     OW 1711   1.582   0.639   2.334
  320SOL    HW1 1712   1.551   0.700   2.407
  320SOL    HW2 1713   1.632   0.691   2.265
  321SOL     OW 1714   0.354   1.510   3.191
  321SOL    HW1 1715   0.333   1.466   3.104
  321SOL    HW2 1716   0.451   1.536   3.194
  322SOL     OW 1717   0.402   0.751   3.460
  322SOL    HW1 1718   0.470   0.806   3.413
  322SOL    HW2 1719   0.442   0.663   3.487
  323SOL     OW 1720   1.587   0.779   3.532
  323SOL    HW1 1721   1.495   0.817   3.527
  323SOL    HW2 1722   1.647   0.826   3.467
  324SOL     OW 1723   1.013   0.105   3.632
  324SOL    HW1 1724   1.019   0.190   3.580
  324SOL    HW2 1725   1.045   0.029   3.575
  325SOL     OW 1726   0.504   0.050   3.602
  325SOL    HW1 1727   0.462  -0.007   3.532
  325SOL    HW2 1728   0.438   0.119   3.634
  326SOL     OW 1729   0.573   0.870   2.891
  326SOL    HW1 1730   0.617   0.959   2.882
  326SOL    HW2 1731   0.510   0.870   2.968
  327SOL     OW 1732   1.360   0.862   2.907
  327SOL    HW1 1733   1.285   0.862   2.841
  327SOL    HW2 1734   1.397   0.770   2.916
  328SOL     OW 1735   1.209   0.525   2.137
  328SOL    HW1 1736   1.222   0.441   2.191
  328SOL    HW2 1737   1.180   0.599   2.197
  329SOL     OW 1738   0.307   0.213   3.093
  329SOL    HW1 1739   0.284   0.250   3.183
  329SOL    HW2 1740   0.277   0.118   3.087
  330SOL     OW 1741   0.037   1.310   3.144
  330SOL    HW1 1742   0.090   1.261   3.212
  330SOL    HW2 1743   0.059   1.408   3.149
  331SOL     OW 1744   0.732   0.634   2.926
  331SOL    HW1 1745   0.791   0.608   2.850
  331SOL    HW2 1746   0.704   0.730   2.915
  332SOL     OW 1747   1.728   0.935   3.716
  332SOL    HW1 1748   1.682   0.928   3.627
  332SOL    HW2 1749   1.666   0.979   3.782
  333SOL     OW 1750   0.307   0.063   2.480
  333SOL    HW1 1751   0.296   0.157   2.513
  333SOL    HW2 1752   0.302   0.000   2.557
  334SOL     OW 1753   1.622   0.367   2.236
  334SOL    HW1 1754   1.624   0.291   2.300
  334SOL    HW2 1755   1.574   0.444   2.276
  335SOL     OW 1756   1.023   0.766   2.828
  335SOL    HW1 1757   1.038   0.787   2.924
  335SOL    HW2 1758   0.993   0.671   2.819
  336SOL     OW 1759   0.980   1.573   3.562
  336SOL    HW1 1760   0.960   1.617   3.474
  336SOL    HW2 1761   1.019   1.482   3.546
  337SOL     OW 1762   1.859   1.518   3.467
  337SOL    HW1 1763   1.873   1.545   3.372
  337SOL    HW2 1764   1.942   1.540   3.520
  338SOL     OW 1765   0.350   0.898   3.666
  338SOL    HW1 1766   0.426   0.942   3.714
  338SOL    HW2 1767   0.385   0.851   3.584
  339SOL     OW 1768   1.540   0.274   1.987
  339SOL    HW1 1769   1.479   0.199   2.010
  339SOL    HW2 1770   1.562   0.326   2.070
  340SOL     OW 1771   1.303   0.838   1.904
  340SOL    HW1 1772   1.337   0.745   1.919
  340SOL    HW2 1773   1.321   0.865   1.809
  341SOL     OW 1774   1.068   1.333   2.711
  341SOL    HW1 1775   1.075   1.249   2.656
  341SOL    HW2 1776   1.130   1.402   2.675
  342SOL     OW 1777   0.319   0.810   2.811
  342SOL    HW1 1778   0.412   0.846   2.816
  342SOL    HW2 1779   0.313   0.725   2.863
  343SOL     OW 1780   0.339   0.509   2.868
  343SOL    HW1 1781   0.287   0.426   2.851
  343SOL    HW2 1782   0.416   0.514   2.804
  344SOL     OW 1783   1.138   0.380   3.540
  344SOL    HW1 1784   1.093   0.443   3.604
  344SOL    HW2 1785   1.231   0.411   3.523
  345SOL     OW 1786   1.160   0.207   3.339
  345SOL    HW1 1787   1.160   0.271   3.416
  345SOL    HW2 1788   1.188   0.255   3.256
  346SOL     OW 1789   0.008   1.326   2.062
  346SOL    HW1 1790  -0.085   1.347   2.031
  346SOL    HW2 1791   0.018   1.227   2.075
  347SOL     OW 1792   0.088   1.801   2.789
  347SOL    HW1 1793   0.046   1.715   2.762
  347SOL    HW2 1794   0.182   1.804   2.755
  348SOL     OW 1795   0.504   1.568   2.772
  348SOL    HW1 1796   0.570   1.642   2.781
  348SOL    HW2 1797   0.548   1.489   2.730
  349SOL     OW 1798   1.002   0.796   3.100
  349SOL    HW1 1799   1.043   0.764   3.186
  349SOL    HW2 1800   0.906   0.769   3.097
  350SOL     OW 1801   0.040   0.544   2.976
  350SOL    HW1 1802   0.125   0.511   2.935
  350SOL    HW2 1803   0.053   0.559   3.074
  351SOL     OW 1804   0.189   0.520   3.584
  351SOL    HW1 1805   0.248   0.480   3.514
  351SOL    HW2 1806   0.131   0.591   3.543
  352SOL     OW 1807   1.369   0.950   3.522
  352SOL    HW1 1808   1.408   1.039   3.542
  352SOL    HW2 1809   1.379   0.930   3.425
  353SOL     OW 1810   0.815   0.572   2.187
  353SOL    HW1 1811   0.822   0.483   2.141
  353SOL    HW2 1812   0.721   0.606   2.179
  354SOL     OW 1813   1.657   0.604   3.068
  354SOL    HW1 1814   1.619   0.535   3.130
  354SOL    HW2 1815   1.739   0.568   3.024
  355SOL     OW 1816   0.252   1.564   3.606
  355SOL    HW1 1817   0.222   1.621   3.682
  355SOL    HW2 1818   0.245   1.467   3.632
  356SOL     OW 1819   0.671   0.464   3.131
  356SOL    HW1 1820   0.637   0.375   3.101
  356SOL    HW2 1821   0.697   0.518   3.051
  357SOL     OW 1822   0.930   1.678   3.327
  357SOL    HW1 1823   0.906   1.660   3.232
  357SOL    HW2 1824   0.960   1.772   3.337
  358SOL     OW 1825   0.473   0.500   2.053
  358SOL    HW1 1826   0.534   0.580   2.057
  358SOL    HW2 1827   0.378   0.531   2.060
  359SOL     OW 1828   0.159   1.137   3.328
  359SOL    HW1 1829   0.181   1.076   3.404
  359SOL    HW2 1830   0.169   1.088   3.242
  360SOL     OW 1831   1.347   1.059   3.096
  360SOL    HW1 1832   1.371   0.996   3.022
  360SOL    HW2 1833   1.257   1.099   3.078
  361SOL     OW 1834   1.302   0.855   2.171
  361SOL    HW1 1835   1.216   0.824   2.213
  361SOL    HW2 1836   1.298   0.841   2.072
  362SOL     OW 1837   1.252   1.731   2.990
  362SOL    HW1 1838   1.336   1.736   2.936
  362SOL    HW2 1839   1.229   1.635   3.008
  363SOL     OW 1840   0.083   1.258   2.884
  363SOL    HW1 1841   0.078   1.257   2.984
  363SOL    HW2 1842   0.000   1.217   2.846
  364SOL     OW 1843   0.688   1.662   3.578
  364SOL    HW1 1844   0.632   1.743   3.587
  364SOL    HW2 1845   0.740   1.666   3.492
  365SOL     OW 1846   1.726   0.135   2.385
  365SOL    HW1 1847   1.799   0.118   2.318
  365SOL    HW2 1848   1.695   0.048   2.423
  366SOL     OW 1849   1.388   1.573   2.339
  366SOL    HW1 1850   1.455   1.585   2.265
  366SOL    HW2 1851   1.348   1.662   2.362
  367SOL     OW 1852   0.130   1.794   3.713
  367SOL    HW1 1853   0.089   1.720   3.766
  367SOL    HW2 1854   0.194   1.845   3.771
  368SOL     OW 1855   1.280   0.927   2.534
  368SOL    HW1 1856   1.340   0.846   2.536
  368SOL    HW2 1857   1.320   0.996   2.474
  369SOL     OW 1858   0.830   1.273   3.284
  369SOL    HW1 1859   0.825   1.306   3.379
  369SOL    HW2 1860   0.744   1.292   3.238
  370SOL     OW 1861   0.672   1.616   2.016
  370SOL    HW1 1862   0.681   1.626   1.917
  370SOL    HW2 1863   0.632   1.527   2.037
  371SOL     OW 1864   1.650   1.720   3.256
  371SOL    HW1 1865   1.703   1.730   3.172
  371SOL    HW2 1866   1.623   1.810   3.290
  372SOL     OW 1867   1.841   0.175   2.825
  372SOL    HW1 1868   1.880   0.090   2.789
  372SOL    HW2 1869   1.743   0.177   2.806
  373SOL     OW 1870   0.263   0.326   2.582
  373SOL    HW1 1871   0.184   0.377   2.548
  373SOL    HW2 1872   0.254   0.311   2.680
  374SOL     OW 1873   1.194   1.612   1.893
  374SOL    HW1 1874   1.200   1.519   1.930
  374SOL    HW2 1875   1.135   1.612   1.813
  375SOL     OW 1876   0.822   1.002   3.234
  375SOL    HW1 1877   0.862   1.001   3.142
  375SOL    HW2 1878   0.832   1.094   3.274
  376SOL     OW 1879   0.916   0.910   2.153
  376SOL    HW1 1880   0.979   0.948   2.085
  376SOL    HW2 1881   0.956   0.827   2.192
  377SOL     OW 1882   1.504   1.607   1.906
  377SOL    HW1 1883   1.412   1.644   1.913
  377SOL    HW2 1884   1.542   1.627   1.816
  378SOL     OW 1885   0.372   1.288   3.352
  378SOL    HW1 1886   0.359   1.381   3.318
  378SOL    HW2 1887   0.288   1.236   3.339
  379SOL     OW 1888   1.614   1.292   3.151
  379SOL    HW1 1889   1.674   1.295   3.231
  379SOL    HW2 1890   1.539   1.356   3.164
  380SOL     OW 1891   1.039   1.098   2.558
  380SOL    HW1 1892   0.969   1.051   2.612
  380SOL    HW2 1893   1.098   1.030   2.515
  381SOL     OW 1894   1.014   0.236   2.833
  381SOL    HW1 1895   1.006   0.200   2.740
  381SOL    HW2 1896   1.012   0.160   2.898
  382SOL     OW 1897   0.590   1.487   2.353
  382SOL    HW1 1898   0.632   1.429   2.283
  382SOL    HW2 1899   0.546   1.566   2.309
  383SOL     OW 1900   1.709   0.385   3.243
  383SOL    HW1 1901   1.782   0.454   3.247
  383SOL    HW2 1902   1.737   0.310   3.184
  384SOL     OW 1903   0.255   1.348   2.152
  384SOL    HW1 1904   0.159   1.349   2.125
  384SOL    HW2 1905   0.267   1.401   2.236
  385SOL     OW 1906   0.105   1.013   3.588
  385SOL    HW1 1907   0.028   0.980   3.642
  385SOL    HW2 1908   0.190   0.983   3.630
  386SOL     OW 1909   0.672   0.203   3.351
  386SOL    HW1 1910   0.762   0.187   3.311
  386SOL    HW2 1911   0.680   0.208   3.450
  387SOL     OW 1912   0.075   0.345   1.895
  387SOL    HW1 1913  -0.017   0.317   1.866
  387SOL    HW2 1914   0.106   0.422   1.839
  388SOL     OW 1915   1.440   0.856   3.260
  388SOL    HW1 1916   1.383   0.908   3.197
  388SOL    HW2 1917   1.536   0.868   3.236
  389SOL     OW 1918   0.072   0.166   2.180
  389SOL    HW1 1919   0.055   0.249   2.126
  389SOL    HW2 1920   0.162   0.129   2.158
  390SOL     OW 1921   1.183   1.335   1.981
  390SOL    HW1 1922   1.084   1.324   1.983
  390SOL    HW2 1923   1.217   1.350   2.074
  391SOL     OW 1924   0.613   0.842   3.293
  391SOL    HW1 1925   0.669   0.923   3.276
  391SOL    HW2 1926   0.672   0.762   3.296
  392SOL     OW 1927   1.493   1.767   2.821
  392SOL    HW1 1928   1.526   1.831   2.752
  392SOL    HW2 1929   1.559   1.761   2.896
  393SOL     OW 1930   0.716   0.565   3.570
  393SOL    HW1 1931   0.735   0.630   3.644
  393SOL    HW2 1932   0.776   0.485   3.579
  394SOL     OW 1933   1.450   1.220   3.495
  394SOL    HW1 1934   1.441   1.210   3.594
  394SOL    HW2 1935   1.546   1.213   3.469
  395SOL     OW 1936   0.390   1.741   3.422
  395SOL    HW1 1937   0.299   1.782   3.420
  395SOL    HW2 1938   0.383   1.647   3.454
  396SOL     OW 1939   1.674   0.883   3.116
  396SOL    HW1 1940   1.647   0.794   3.079
  396SOL    HW2 1941   1.675   0.951   3.043
  397SOL     OW 1942   1.225   0.325   2.311
  397SOL    HW1 1943   1.290   0.251   2.300
  397SOL    HW2 1944   1.245   0.375   2.395
  398SOL     OW 1945   0.594   0.745   2.514
  398SOL    HW1 1946   0.644   0.830   2.495
  398SOL    HW2 1947   0.506   0.747   2.466
  399SOL     OW 1948   1.777   0.342   3.504
  399SOL    HW1 1949   1.760   0.373   3.410
  399SOL    HW2 1950   1.693   0.305   3.542
  400SOL     OW 1951   1.730   0.934   3.379
  400SOL    HW1 1952   1.768   1.025   3.394
  400SOL    HW2 1953   1.722   0.917   3.280
  401SOL     OW 1954   0.859   1.374   1.878
  401SOL    HW1 1955   0.813   1.389   1.966
  401SOL    HW2 1956   0.903   1.459   1.848
  402SOL     OW 1957   0.661   1.790   2.815
  402SOL    HW1 1958   0.615   1.878   2.802
  402SOL    HW2 1959   0.760   1.802   2.808
  403SOL     OW 1960   0.859   0.956   2.723
  403SOL    HW1 1961   0.913   0.887   2.771
  403SOL    HW2 1962   0.827   1.025   2.789
  404SOL     OW 1963   1.083   0.984   1.949
  404SOL    HW1 1964   1.060   1.037   1.867
  404SOL    HW2 1965   1.164   0.928   1.930
  405SOL     OW 1966   1.861   1.569   2.713
  405SOL    HW1 1967   1.790   1.557   2.643
  405SOL    HW2 1968   1.862   1.490   2.773
  406SOL     OW 1969   0.221   1.314   3.706
  406SOL    HW1 1970   0.156   1.241   3.685
  406SOL    HW2 1971   0.225   1.328   3.804
  407SOL     OW 1972   0.079   1.240   2.515
  407SOL    HW1 1973   0.078   1.193   2.603
  407SOL    HW2 1974   0.161   1.212   2.464
  408SOL     OW 1975   0.672   1.391   3.486
  408SOL    HW1 1976   0.594   1.341   3.524
  408SOL    HW2 1977   0.669   1.486   3.517
  409SOL     OW 1978   1.824   0.192   3.089
  409SOL    HW1 1979   1.820   0.102   3.133
  409SOL    HW2 1980   1.827   0.181   2.990
  410SOL     OW 1981   0.428   0.424   2.382
  410SOL    HW1 1982   0.458   0.352   2.320
  410SOL    HW2 1983   0.389   0.384   2.465
  411SOL     OW 1984   1.705   1.487   2.966
  411SOL    HW1 1985   1.612   1.462   2.939
  411SOL    HW2 1986   1.731   1.437   3.048
  412SOL     OW 1987   0.317   0.547   3.142
  412SOL    HW1 1988   0.355   0.488   3.214
  412SOL    HW2 1989   0.357   0.521   3.054
  413SOL     OW 1990   0.812   1.586   2.549
  413SOL    HW1 1991   0.844   1.596   2.455
  413SOL    HW2 1992   0.733   1.524   2.551
  414SOL     OW 1993   1.424   0.214   2.974
  414SOL    HW1 1994   1.476   0.149   3.029
  414SOL    HW2 1995   1.375   0.277   3.035
  415SOL     OW 1996   1.001   0.034   3.016
  415SOL    HW1 1997   0.938  -0.038   2.985
  415SOL    HW2 1998   1.094  -0.002   3.016
  416SOL     OW 1999   0.770   1.330   2.163
  416SOL    HW1 2000   0.724   1.243   2.180
  416SOL    HW2 2001   0.861   1.327   2.204
  417SOL     OW 2002   0.618   1.567   3.146
  417SOL    HW1 2003   0.613   1.649   3.203
  417SOL    HW2 2004   0.707   1.564   3.101
  418SOL     OW 2005   1.352   0.052   2.030
  418SOL    HW1 2006   1.387   0.011   1.946
  418SOL    HW2 2007   1.262   0.014   2.050
  419SOL     OW 2008   1.300   0.453   2.553
  419SOL    HW1 2009   1.241   0.533   2.557
  419SOL    HW2 2010   1.315   0.418   2.646
  420SOL     OW 2011   1.593   0.221   2.744
  420SOL    HW1 2012   1.509   0.220   2.798
  420SOL    HW2 2013   1.595   0.304   2.688
  421SOL     OW 2014   0.039   1.077   2.162
  421SOL    HW1 2015   0.138   1.066   2.153
  421SOL    HW2 2016  -0.001   0.991   2.194
  422SOL     OW 2017   0.875   1.646   2.199
  422SOL    HW1 2018   0.798   1.611   2.145
  422SOL    HW2 2019   0.843   1.717   2.261
  423SOL     OW 2020   0.230   0.628   3.837
  423SOL    HW1 2021   0.137   0.626   3.874
  423SOL    HW2 2022   0.231   0.589   3.745
  424SOL     OW 2023   0.225   0.275   4.720
  424SOL    HW1 2024   0.260   0.258   4.812
  424SOL    HW2 2025   0.137   0.230   4.708
  425SOL     OW 2026   0.019   0.368   4.371
  425SOL    HW1 2027  -0.063   0.411   4.410
  425SOL    HW2 2028  -0.009   0.295   4.308
  426SOL     OW 2029   0.569   1.275   4.889
  426SOL    HW1 2030   0.476   1.268   4.852
  426SOL    HW2 2031   0.580   1.364   4.933
  427SOL     OW 2032   1.555   1.511   4.427
  427SOL    HW1 2033   1.498   1.495   4.508
  427SOL    HW2 2034   1.496   1.521   4.347
  428SOL     OW 2035   1.135   0.703   4.441
  428SOL    HW1 2036   1.192   0.781   4.416
  428SOL    HW2 2037   1.075   0.729   4.517
  429SOL     OW 2038   1.755   0.607   3.955
  429SOL    HW1 2039   1.743   0.594   3.856
  429SOL    HW2 2040   1.725   0.526   4.004
  430SOL     OW 2041   0.768   1.144   4.747
  430SOL    HW1 2042   0.690   1.161   4.807
  430SOL    HW2 2043   0.802   1.231   4.711
  431SOL     OW 2044   0.850   0.798   5.547
  431SOL    HW1 2045   0.846   0.874   5.612
  431SOL    HW2 2046   0.872   0.834   5.456
  432SOL     OW 2047   0.685   1.012   4.389
  432SOL    HW1 2048   0.754   0.996   4.459
  432SOL    HW2 2049   0.612   1.069   4.427
  433SOL     OW 2050   0.686   1.161   5.527
  433SOL    HW1 2051   0.746   1.240   5.541
  433SOL    HW2 2052   0.600   1.192   5.486
  434SOL     OW 2053   0.335   1.435   4.785
  434SOL    HW1 2054   0.257   1.404   4.732
  434SOL    HW2 2055   0.393   1.493   4.728
  435SOL     OW 2056   1.460   1.505   5.063
  435SOL    HW1 2057   1.484   1.599   5.089
  435SOL    HW2 2058   1.444   1.451   5.145
  436SOL     OW 2059   0.438   0.392   5.223
  436SOL    HW1 2060   0.520   0.336   5.232
  436SOL    HW2 2061   0.357   0.334   5.227
  437SOL     OW 2062   1.603   0.447   4.461
  437SOL    HW1 2063   1.529   0.493   4.411
  437SOL    HW2 2064   1.654   0.515   4.514
  438SOL     OW 2065   0.231   1.713   4.207
  438SOL    HW1 2066   0.265   1.790   4.261
  438SOL    HW2 2067   0.275   1.713   4.117
  439SOL     OW 2068   1.127   1.341   5.414
  439SOL    HW1 2069   1.174   1.341   5.502
  439SOL    HW2 2070   1.079   1.254   5.403
  440SOL     OW 2071   0.230   1.434   4.262
  440SOL    HW1 2072   0.204   1.530   4.262
  440SOL    HW2 2073   0.159   1.380   4.307
  441SOL     OW 2074   0.240   1.091   4.610
  441SOL    HW1 2075   0.254   1.007   4.662
  441SOL    HW2 2076   0.185   1.155   4.665
  442SOL     OW 2077   0.620   1.786   5.163
  442SOL    HW1 2078   0.528   1.769   5.198
  442SOL    HW2 2079   0.648   1.878   5.189
  443SOL     OW 2080   0.606   0.964   3.847
  443SOL    HW1 2081   0.613   1.048   3.793
  443SOL    HW2 2082   0.652   0.977   3.935
  444SOL     OW 2083   1.594   0.114   5.204
  444SOL    HW1 2084   1.576   0.181   5.132
  444SOL    HW2 2085   1.591   0.160   5.293
  445SOL     OW 2086   0.122   0.643   4.287
  445SOL    HW1 2087   0.077   0.555   4.304
  445SOL    HW2 2088   0.121   0.697   4.371
  446SOL     OW 2089   0.027   1.596   3.841
  446SOL    HW1 2090   0.008   1.500   3.862
  446SOL    HW2 2091  -0.006   1.654   3.916
  447SOL     OW 2092   1.689   0.922   4.336
  447SOL    HW1 2093   1.784   0.893   4.344
  447SOL    HW2 2094   1.681   0.987   4.261
  448SOL     OW 2095   1.641   1.108   4.156
  448SOL    HW1 2096   1.727   1.110   4.104
  448SOL    HW2 2097   1.655   1.155   4.244
  449SOL     OW 2098   0.113   0.737   5.321
  449SOL    HW1 2099   0.201   0.724   5.366
  449SOL    HW2 2100   0.100   0.834   5.299
  450SOL     OW 2101   0.613   1.365   4.450
  450SOL    HW1 2102   0.564   1.278   4.459
  450SOL    HW2 2103   0.590   1.408   4.363
  451SOL     OW 2104   1.293   1.228   5.147
  451SOL    HW1 2105   1.330   1.155   5.089
  451SOL    HW2 2106   1.345   1.233   5.232
  452SOL     OW 2107   0.809   0.004   4.226
  452SOL    HW1 2108   0.849   0.095   4.217
  452SOL    HW2 2109   0.709   0.012   4.232
  453SOL     OW 2110   0.197   0.976   4.988
  453SOL    HW1 2111   0.286   0.931   4.974
  453SOL    HW2 2112   0.124   0.911   4.969
  454SOL     OW 2113   1.525   0.999   3.914
  454SOL    HW1 2114   1.462   0.923   3.927
  454SOL    HW2 2115   1.573   1.017   4.000
  455SOL     OW 2116   1.187   1.792   5.340
  455SOL    HW1 2117   1.211   1.852   5.264
  455SOL    HW2 2118   1.194   1.697   5.310
  456SOL     OW 2119   0.317   0.251   5.525
  456SOL    HW1 2120   0.388   0.322   5.531
  456SOL    HW2 2121   0.229   0.290   5.553
  457SOL     OW 2122   1.466   1.417   4.677
  457SOL    HW1 2123   1.407   1.423   4.757
  457SOL    HW2 2124   1.451   1.329   4.631
  458SOL     OW 2125   1.667   1.714   4.296
  458SOL    HW1 2126   1.626   1.691   4.208
  458SOL    HW2 2127   1.649   1.640   4.361
  459SOL     OW 2128   0.598   0.729   3.994
  459SOL    HW1 2129   0.622   0.798   3.926
  459SOL    HW2 2130   0.520   0.762   4.048
  460SOL     OW 2131   1.281   0.345   4.668
  460SOL    HW1 2132   1.195   0.295   4.655
  460SOL    HW2 2133   1.343   0.291   4.724
  461SOL     OW 2134   1.576   1.662   4.031
  461SOL    HW1 2135   1.665   1.708   4.034
  461SOL    HW2 2136   1.555   1.638   3.936
  462SOL     OW 2137   0.807   0.605   5.189
  462SOL    HW1 2138   0.760   0.602   5.278
  462SOL    HW2 2139   0.756   0.550   5.123
  463SOL     OW 2140   1.394   0.469   5.398
  463SOL    HW1 2141   1.374   0.512   5.486
  463SOL    HW2 2142   1.472   0.407   5.407
  464SOL     OW 2143   0.973   0.890   5.296
  464SOL    HW1 2144   1.019   0.806   5.267
  464SOL    HW2 2145   0.917   0.924   5.221
  465SOL     OW 2146   0.991   0.410   4.966
  465SOL    HW1 2147   0.914   0.444   5.020
  465SOL    HW2 2148   0.957   0.359   4.887
  466SOL     OW 2149   1.041   0.701   4.153
  466SOL    HW1 2150   1.067   0.697   4.249
  466SOL    HW2 2151   0.956   0.650   4.139
  467SOL     OW 2152   0.076   0.811   4.513
  467SOL    HW1 2153   0.175   0.799   4.522
  467SOL    HW2 2154   0.052   0.906   4.534
  468SOL     OW 2155   0.130   1.821   5.295
  468SOL    HW1 2156   0.120   1.806   5.394
  468SOL    HW2 2157   0.044   1.857   5.259
  469SOL     OW 2158   0.865   0.348   3.919
  469SOL    HW1 2159   0.924   0.411   3.870
  469SOL    HW2 2160   0.884   0.254   3.890
  470SOL     OW 2161   1.719   0.585   5.555
  470SOL    HW1 2162   1.693   0.674   5.519
  470SOL    HW2 2163   1.717   0.517   5.482
  471SOL     OW 2164   1.362   1.144   4.269
  471SOL    HW1 2165   1.445   1.115   4.221
  471SOL    HW2 2166   1.313   1.211   4.213
  472SOL     OW 2167   0.550   0.196   4.609
  472SOL    HW1 2168   0.545   0.191   4.709
  472SOL    HW2 2169   0.552   0.292   4.580
  473SOL     OW 2170   1.008   1.456   4.201
  473SOL    HW1 2171   0.962   1.528   4.149
  473SOL    HW2 2172   1.004   1.476   4.299
  474SOL     OW 2173   0.351   1.801   4.577
  474SOL    HW1 2174   0.401   1.715   4.583
  474SOL    HW2 2175   0.416   1.878   4.574
  475SOL     OW 2176   1.795   1.066   4.597
  475SOL    HW1 2177   1.733   1.051   4.521
  475SOL    HW2 2178   1.743   1.077   4.682
  476SOL     OW 2179   1.227   1.550   5.230
  476SOL    HW1 2180   1.233   1.473   5.294
  476SOL    HW2 2181   1.175   1.524   5.150
  477SOL     OW 2182   0.321   0.943   3.966
  477SOL    HW1 2183   0.403   0.982   3.924
  477SOL    HW2 2184   0.294   0.861   3.917
  478SOL     OW 2185   1.458   0.735   4.452
  478SOL    HW1 2186   1.453   0.670   4.527
  478SOL    HW2 2187   1.538   0.794   4.465
  479SOL     OW 2188   0.461   1.266   5.451
  479SOL    HW1 2189   0.411   1.267   5.365
  479SOL    HW2 2190   0.398   1.248   5.527
  480SOL     OW 2191   1.111   1.776   3.961
  480SOL    HW1 2192   1.051   1.714   4.011
  480SOL    HW2 2193   1.142   1.732   3.876
  481SOL     OW 2194   0.202   0.285   5.222
  481SOL    HW1 2195   0.122   0.345   5.209
  481SOL    HW2 2196   0.192   0.236   5.308
  482SOL     OW 2197   1.632   1.377   3.805
  482SOL    HW1 2198   1.600   1.471   3.795
  482SOL    HW2 2199   1.556   1.314   3.793
  483SOL     OW 2200   0.464   1.743   4.047
  483SOL    HW1 2201   0.497   1.782   4.133
  483SOL    HW2 2202   0.540   1.736   3.982
  484SOL     OW 2203   1.400   0.107   4.150
  484SOL    HW1 2204   1.376   0.070   4.060
  484SOL    HW2 2205   1.499   0.123   4.154
  485SOL     OW 2206   0.249   1.785   4.965
  485SOL    HW1 2207   0.306   1.720   5.015
  485SOL    HW2 2208   0.233   1.752   4.872
  486SOL     OW 2209   0.940   1.698   4.628
  486SOL    HW1 2210   1.020   1.641   4.649
  486SOL    HW2 2211   0.891   1.658   4.551
  487SOL     OW 2212   0.382   0.700   4.204
  487SOL    HW1 2213   0.427   0.610   4.201
  487SOL    HW2 2214   0.288   0.689   4.237
  488SOL     OW 2215   1.547   0.222   5.453
  488SOL    HW1 2216   1.542   0.259   5.545
  488SOL    HW2 2217   1.475   0.153   5.441
  489SOL     OW 2218   0.614   0.122   3.841
  489SOL    HW1 2219   0.712   0.100   3.848
  489SOL    HW2 2220   0.583   0.105   3.748
  490SOL     OW 2221   0.781   0.264   5.473
  490SOL    HW1 2222   0.848   0.203   5.516
  490SOL    HW2 2223   0.708   0.283   5.538
  491SOL     OW 2224   0.888   1.514   4.919
  491SOL    HW1 2225   0.865   1.489   4.825
  491SOL    HW2 2226   0.949   1.445   4.958
  492SOL     OW 2227   1.351   0.590   5.157
  492SOL    HW1 2228   1.379   0.547   5.242
  492SOL    HW2 2229   1.376   0.686   5.158
  493SOL     OW 2230   0.803   1.402   4.648
  493SOL    HW1 2231   0.893   1.416   4.606
  493SOL    HW2 2232   0.732   1.404   4.577
  494SOL     OW 2233   0.922   0.503   4.623
  494SOL    HW1 2234   0.897   0.494   4.527
  494SOL    HW2 2235   0.970   0.421   4.654
  495SOL     OW 2236   0.539   0.064   4.236
  495SOL    HW1 2237   0.458   0.065   4.294
  495SOL    HW2 2238   0.542   0.147   4.181
  496SOL     OW 2239   1.434   1.188   3.765
  496SOL    HW1 2240   1.466   1.112   3.822
  496SOL    HW2 2241   1.342   1.215   3.795
  497SOL     OW 2242   0.297   0.035   3.895
  497SOL    HW1 2243   0.346   0.119   3.874
  497SOL    HW2 2244   0.359  -0.030   3.940
  498SOL     OW 2245   0.935   0.236   4.204
  498SOL    HW1 2246   0.887   0.277   4.126
  498SOL    HW2 2247   1.034   0.234   4.185
  499SOL     OW 2248   1.076   0.683   5.188
  499SOL    HW1 2249   0.996   0.622   5.191
  499SOL    HW2 2250   1.157   0.630   5.164
  500SOL     OW 2251   1.227   1.570   4.517
  500SOL    HW1 2252   1.248   1.644   4.452
  500SOL    HW2 2253   1.295   1.570   4.590
  501SOL     OW 2254   0.459   1.152   4.465
  501SOL    HW1 2255   0.388   1.125   4.530
  501SOL    HW2 2256   0.433   1.124   4.372
  502SOL     OW 2257   1.271   1.797   4.315
  502SOL    HW1 2258   1.315   1.861   4.251
  502SOL    HW2 2259   1.221   1.849   4.385
  503SOL     OW 2260   1.032   0.549   3.740
  503SOL    HW1 2261   0.991   0.631   3.701
  503SOL    HW2 2262   1.096   0.575   3.813
  504SOL     OW 2263   0.078   0.556   5.110
  504SOL    HW1 2264   0.170   0.555   5.069
  504SOL    HW2 2265   0.072   0.630   5.177
  505SOL     OW 2266   0.561   0.222   4.871
  505SOL    HW1 2267   0.599   0.138   4.908
  505SOL    HW2 2268   0.473   0.241   4.915
  506SOL     OW 2269   0.866   0.454   4.366
  506SOL    HW1 2270   0.834   0.526   4.304
  506SOL    HW2 2271   0.890   0.373   4.313
  507SOL     OW 2272   1.017   0.039   4.477
  507SOL    HW1 2273   0.945   0.044   4.408
  507SOL    HW2 2274   0.993  -0.030   4.546
  508SOL     OW 2275   1.429   1.173   4.591
  508SOL    HW1 2276   1.374   1.089   4.584
  508SOL    HW2 2277   1.455   1.202   4.499
  509SOL     OW 2278   1.466   0.590   4.716
  509SOL    HW1 2279   1.436   0.495   4.723
  509SOL    HW2 2280   1.539   0.606   4.782
  510SOL     OW 2281   1.857   0.833   4.101
  510SOL    HW1 2282   1.899   0.769   4.165
  510SOL    HW2 2283   1.819   0.782   4.023
  511SOL     OW 2284   0.488   1.385   3.898
  511SOL    HW1 2285   0.401   1.370   3.945
  511SOL    HW2 2286   0.471   1.411   3.803
  512SOL     OW 2287   1.664   1.280   4.381
  512SOL    HW1 2288   1.763   1.288   4.395
  512SOL    HW2 2289   1.619   1.364   4.412
  513SOL     OW 2290   1.390   0.575   3.802
  513SOL    HW1 2291   1.336   0.554   3.883
  513SOL    HW2 2292   1.481   0.534   3.811
  514SOL     OW 2293   0.527   0.256   4.052
  514SOL    HW1 2294   0.554   0.197   3.977
  514SOL    HW2 2295   0.527   0.351   4.021
  515SOL     OW 2296   1.754   1.223   5.312
  515SOL    HW1 2297   1.845   1.184   5.299
  515SOL    HW2 2298   1.762   1.319   5.336
  516SOL     OW 2299   1.064   1.347   5.064
  516SOL    HW1 2300   0.984   1.324   5.119
  516SOL    HW2 2301   1.147   1.321   5.113
  517SOL     OW 2302   1.592   1.629   5.349
  517SOL    HW1 2303   1.619   1.663   5.259
  517SOL    HW2 2304   1.671   1.591   5.395
  518SOL     OW 2305   1.111   1.195   4.824
  518SOL    HW1 2306   1.071   1.239   4.905
  518SOL    HW2 2307   1.070   1.232   4.741
  519SOL     OW 2308   1.638   1.099   4.803
  519SOL    HW1 2309   1.643   1.180   4.862
  519SOL    HW2 2310   1.552   1.101   4.752
  520SOL     OW 2311   0.915   0.089   5.126
  520SOL    HW1 2312   0.940   0.069   5.031
  520SOL    HW2 2313   0.987   0.145   5.168
  521SOL     OW 2314   0.980   1.116   5.443
  521SOL    HW1 2315   0.881   1.122   5.453
  521SOL    HW2 2316   1.003   1.036   5.387
  522SOL     OW 2317   0.705   1.050   4.092
  522SOL    HW1 2318   0.691   1.057   4.191
  522SOL    HW2 2319   0.789   0.999   4.074
  523SOL     OW 2320   0.410   0.813   4.975
  523SOL    HW1 2321   0.496   0.825   5.025
  523SOL    HW2 2322   0.368   0.726   5.002
  524SOL     OW 2323   1.274   0.386   4.986
  524SOL    HW1 2324   1.295   0.460   5.050
  524SOL    HW2 2325   1.185   0.403   4.943
  525SOL     OW 2326   0.064   1.564   5.055
  525SOL    HW1 2327   0.018   1.646   5.021
  525SOL    HW2 2328   0.162   1.583   5.064
  526SOL     OW 2329   0.367   1.100   4.225
  526SOL    HW1 2330   0.360   1.183   4.169
  526SOL    HW2 2331   0.371   1.020   4.165
  527SOL     OW 2332   0.566   0.537   4.589
  527SOL    HW1 2333   0.578   0.603   4.515
  527SOL    HW2 2334   0.612   0.571   4.672
  528SOL     OW 2335   1.252   1.348   4.112
  528SOL    HW1 2336   1.302   1.425   4.152
  528SOL    HW2 2337   1.157   1.350   4.144
  529SOL     OW 2338   1.272   1.445   4.866
  529SOL    HW1 2339   1.319   1.458   4.953
  529SOL    HW2 2340   1.206   1.371   4.875
  530SOL     OW 2341   1.582   0.639   4.196
  530SOL    HW1 2342   1.551   0.700   4.269
  530SOL    HW2 2343   1.632   0.691   4.127
  531SOL     OW 2344   0.354   1.510   5.053
  531SOL    HW1 2345   0.333   1.466   4.966
  531SOL    HW2 2346   0.451   1.536   5.056
  532SOL     OW 2347   0.402   0.751   5.322
  532SOL    HW1 2348   0.470   0.806   5.275
  532SOL    HW2 2349   0.442   0.663   5.349
  533SOL     OW 2350   1.587   0.779   5.394
  533SOL    HW1 2351   1.495   0.817   5.389
  533SOL    HW2 2352   1.647   0.826   5.329
  534SOL     OW 2353   1.013   0.105   5.494
  534SOL    HW1 2354   1.019   0.190   5.442
  534SOL    HW2 2355   1.045   0.029   5.437
  535SOL     OW 2356   0.504   0.050   5.464
  535SOL    HW1 2357   0.462  -0.007   5.394
  535SOL    HW2 2358   0.438   0.119   5.496
  536SOL     OW 2359   0.573   0.870   4.753
  536SOL    HW1 2360   0.617   0.959   4.744
  536SOL    HW2 2361   0.510   0.870   4.830
  537SOL     OW 2362   1.360   0.862   4.769
  537SOL    HW1 2363   1.285   0.862   4.703
  537SOL    HW2 2364   1.397   0.770   4.778
  538SOL     OW 2365   1.209   0.525   3.999
  538SOL    HW1 2366   1.222   0.441   4.053
  538SOL    HW2 2367   1.180   0.599   4.059
  539SOL     OW 2368   0.307   0.213   4.955
  539SOL    HW1 2369   0.284   0.250   5.045
  539SOL    HW2 2370   0.277   0.118   4.949
  540SOL     OW 2371   0.037   1.310   5.006
  540SOL    HW1 2372   0.090   1.261   5.074
  540SOL    HW2 2373   0.059   1.408   5.011
  541SOL     OW 2374   0.732   0.634   4.788
  541SOL    HW1 2375   0.791   0.608   4.712
  541SOL    HW2 2376   0.704   0.730   4.777
  542SOL     OW 2377   1.728   0.935   5.578
  542SOL    HW1 2378   1.682   0.928   5.489
  542SOL    HW2 2379   1.666   0.979   5.644
  543SOL     OW 2380   0.307   0.063   4.342
  543SOL    HW1 2381   0.296   0.157   4.375
  543SOL    HW2 2382   0.302   0.000   4.419
  544SOL     OW 2383   1.622   0.367   4.098
  544SOL    HW1 2384   1.624   0.291   4.162
  544SOL    HW2 2385   1.574   0.444   4.138
  545SOL     OW 2386   1.023   0.766   4.690
  545SOL    HW1 2387   1.038   0.787   4.786
  545SOL    HW2 2388   0.993   0.671   4.681
  546SOL     OW 2389   0.980   1.573   5.424
  546SOL    HW1 2390   0.960   1.617   5.336
  546SOL    HW2 2391   1.019   1.482   5.408
  547SOL     OW 2392   1.859   1.518   5.329
  547SOL    HW1 2393   1.873   1.545   5.234
  547SOL    HW2 2394   1.942   1.540   5.382
  548SOL     OW 2395   0.350   0.898   5.528
  548SOL    HW1 2396   0.426   0.942   5.576
  548SOL    HW2 2397   0.385   0.851   5.446
  549SOL     OW 2398   1.540   0.274   3.849
  549SOL    HW1 2399   1.479   0.199   3.872
  549SOL    HW2 2400   1.562   0.326   3.932
  550SOL     OW 2401   1.303   0.838   3.766
  550SOL    HW1 2402   1.337   0.745   3.781
  550SOL    HW2 2403   1.321   0.865   3.671
  551SOL     OW 2404   1.068   1.333   4.573
  551SOL    HW1 2405   1.075   1.249   4.518
  551SOL    HW2 2406   1.130   1.402   4.537
  552SOL     OW 2407   0.319   0.810   4.673
  552SOL    HW1 2408   0.412   0.846   4.678
  552SOL    HW2 2409   0.313   0.725   4.725
  553SOL     OW 2410   0.339   0.509   4.730
  553SOL    HW1 2411   0.287   0.426   4.713
  553SOL    HW2 2412   0.416   0.514   4.666
  554SOL     OW 2413   1.138   0.380   5.402
  554SOL    HW1 2414   1.093   0.443   5.466
  554SOL    HW2 2415   1.231   0.411   5.385
  555SOL     OW 2416   1.160   0.207   5.201
  555SOL    HW1 2417   1.160   0.271   5.278
  555SOL    HW2 2418   1.188   0.255   5.118
  556SOL     OW 2419   0.008   1.326   3.924
  556SOL    HW1 2420  -0.085   1.347   3.893
  556SOL    HW2 2421   0.018   1.227   3.937
  557SOL     OW 2422   0.088   1.801   4.651
  557SOL    HW1 2423   0.046   1.715   4.624
  557SOL    HW2 2424   0.182   1.804   4.617
  558SOL     OW 2425   0.504   1.568   4.634
  558SOL    HW1 2426   0.570   1.642   4.643
  558SOL    HW2 2427   0.548   1.489   4.592
  559SOL     OW 2428   1.002   0.796   4.962
  559SOL    HW1 2429   1.043   0.764   5.048
  559SOL    HW2 2430   0.906   0.769   4.959
  560SOL     OW 2431   0.040   0.544   4.838
  560SOL    HW1 2432   0.125   0.511   4.797
  560SOL    HW2 2433   0.053   0.559   4.936
  561SOL     OW 2434   0.189   0.520   5.446
  561SOL    HW1 2435   0.248   0.480   5.376
  561SOL    HW2 2436   0.131   0.591   5.405
  562SOL     OW 2437   1.369   0.950   5.384
  562SOL    HW1 2438   1.408   1.039   5.404
  562SOL    HW2 2439   1.379   0.930   5.287
  563SOL     OW 2440   0.815   0.572   4.049
  563SOL    HW1 2441   0.822   0.483   4.003
  563SOL    HW2 2442   0.721   0.606   4.041
  564SOL     OW 2443   1.657   0.604   4.930
  564SOL    HW1 2444   1.619   0.535   4.992
  564SOL    HW2 2445   1.739   0.568   4.886
  565SOL     OW 2446   0.252   1.564   5.468
  565SOL    HW1 2447   0.222   1.621   5.544
  565SOL    HW2 2448   0.245   1.467   5.494
  566SOL     OW 2449   0.671   0.464   4.993
  566SOL    HW1 2450   0.637   0.375   4.963
  566SOL    HW2 2451   0.697   0.518   4.913
  567SOL     OW 2452   0.930   1.678   5.189
  567SOL    HW1 2453   0.906   1.660   5.094
  567SOL    HW2 2454   0.960   1.772   5.199
  568SOL     OW 2455   0.473   0.500   3.915
  568SOL    HW1 2456   0.534   0.580   3.919
  568SOL    HW2 2457   0.378   0.531   3.922
  569SOL     OW 2458   0.159   1.137   5.190
  569SOL    HW1 2459   0.181   1.076   5.266
  569SOL    HW2 2460   0.169   1.088   5.104
  570SOL     OW 2461   1.347   1.059   4.958
  570SOL    HW1 2462   1.371   0.996   4.884
  570SOL    HW2 2463   1.257   1.099   4.940
  571SOL     OW 2464   1.302   0.855   4.033
  571SOL    HW1 2465   1.216   0.824   4.075
  571SOL    HW2 2466   1.298   0.841   3.934
  572SOL     OW 2467   1.252   1.731   4.852
  572SOL    HW1 2468   1.336   1.736   4.798
  572SOL    HW2 2469   1.229   1.635   4.870
  573SOL     OW 2470   0.083   1.258   4.746
  573SOL    HW1 2471   0.078   1.257   4.846
  573SOL    HW2 2472   0.000   1.217   4.708
  574SOL     OW 2473   0.688   1.662   5.440
  574SOL    HW1 2474   0.632   1.743   5.449
  574SOL    HW2 2475   0.740   1.666   5.354
  575SOL     OW 2476   1.726   0.135   4.247
  575SOL    HW1 2477   1.799   0.118   4.180
  575SOL    HW2 2478   1.695   0.048   4.285
  576SOL     OW 2479   1.388   1.573   4.201
  576SOL    HW1 2480   1.455   1.585   4.127
  576SOL    HW2 2481   1.348   1.662   4.224
  577SOL     OW 2482   0.130   1.794   5.575
  577SOL    HW1 2483   0.089   1.720   5.628
  577SOL    HW2 2484   0.194   1.845   5.633
  578SOL     OW 2485   1.280   0.927   4.396
  578SOL    HW1 2486   1.340   0.846   4.398
  578SOL    HW2 2487   1.320   0.996   4.336
  579SOL     OW 2488   0.830   1.273   5.146
  579SOL    HW1 2489   0.825   1.306   5.241
  579SOL    HW2 2490   0.744   1.292   5.100
  580SOL     OW 2491   0.672   1.616   3.878
  580SOL    HW1 2492   0.681   1.626   3.779
  580SOL    HW2 2493   0.632   1.527   3.899
  581SOL     OW 2494   1.650   1.720   5.118
  581SOL    HW1 2495   1.703   1.730   5.034
  581SOL    HW2 2496   1.623   1.810   5.152
  582SOL     OW 2497   1.841   0.175   4.687
  582SOL    HW1 2498   1.880   0.090   4.651
  582SOL    HW2 2499   1.743   0.177   4.668
  583SOL     OW 2500   0.263   0.326   4.444
  583SOL    HW1 2501   0.184   0.377   4.410
  583SOL    HW2 2502   0.254   0.311   4.542
  584SOL     OW 2503   1.194   1.612   3.755
  584SOL    HW1 2504   1.200   1.519   3.792
  584SOL    HW2 2505   1.135   1.612   3.675
  585SOL     OW 2506   0.822   1.002   5.096
  585SOL    HW1 2507   0.862   1.001   5.004
  585SOL    HW2 2508   0.832   1.094   5.136
  586SOL     OW 2509   0.916   0.910   4.015
  586SOL    HW1 2510   0.979   0.948   3.947
  586SOL    HW2 2511   0.956   0.827   4.054
  587SOL     OW 2512   1.504   1.607   3.768
  587SOL    HW1 2513   1.412   1.644   3.775
  587SOL    HW2 2514   1.542   1.627   3.678
  588SOL     OW 2515   0.372   1.288   5.214
  588SOL    HW1 2516   0.359   1.381   5.180
  588SOL    HW2 2517   0.288   1.236   5.201
  589SOL     OW 2518   1.614   1.292   5.013
  589SOL    HW1 2519   1.674   1.295   5.093
  589SOL    HW2 2520   1.539   1.356   5.026
  590SOL     OW 2521   1.039   1.098   4.420
  590SOL    HW1 2522   0.969   1.051   4.474
  590SOL    HW2 2523   1.098   1.030   4.377
  591SOL     OW 2524   1.014   0.236   4.695
  591SOL    HW1 2525   1.006   0.200   4.602
  591SOL    HW2 2526   1.012   0.160   4.760
  592SOL     OW 2527   0.590   1.487   4.215
  592SOL    HW1 2528   0.632   1.429   4.145
  592SOL    HW2 2529   0.546   1.566   4.171
  593SOL     OW 2530   1.709   0.385   5.105
  593SOL    HW1 2531   1.782   0.454   5.109
  593SOL    HW2 2532   1.737   0.310   5.046
  594SOL     OW 2533   0.255   1.348   4.014
  594SOL    HW1 2534   0.159   1.349   3.987
  594SOL    HW2 2535   0.267   1.401   4.098
  595SOL     OW 2536   0.105   1.013   5.450
  595SOL    HW1 2537   0.028   0.980   5.504
  595SOL    HW2 2538   0.190   0.983   5.492
  596SOL     OW 2539   0.672   0.203   5.213
  596SOL    HW1 2540   0.762   0.187   5.173
  596SOL    HW2 2541   0.680   0.208   5.312
  597SOL     OW 2542   0.075   0.345   3.757
  597SOL    HW1 2543  -0.017   0.317   3.728
  597SOL    HW2 2544   0.106   0.422   3.701
  598SOL     OW 2545   1.440   0.856   5.122
  598SOL    HW1 2546   1.383   0.908   5.059
  598SOL    HW2 2547   1.536   0.868   5.098
  599SOL     OW 2548   0.072   0.166   4.042
  599SOL    HW1 2549   0.055   0.249   3.988
  599SOL    HW2 2550   0.162   0.129   4.020
  600SOL     OW 2551   1.183   1.335   3.843
  600SOL    HW1 2552   1.084   1.324   3.845
  600SOL    HW2 2553   1.217   1.350   3.936
  601SOL     OW 2554   0.613   0.842   5.155
  601SOL    HW1 2555   0.669   0.923   5.138
  601SOL    HW2 2556   0.672   0.762   5.158
  602SOL     OW 2557   1.493   1.767   4.683
  602SOL    HW1 2558   1.526   1.831   4.614
  602SOL    HW2 2559   1.559   1.761   4.758
  603SOL     OW 2560   0.716   0.565   5.432
  603SOL    HW1 2561   0.735   0.630   5.506
  603SOL    HW2 2562   0.776   0.485   5.441
  604SOL     OW 2563   1.450   1.220   5.357
  604SOL    HW1 2564   1.441   1.210   5.456
  604SOL    HW2 2565   1.546   1.213   5.331
  605SOL     OW 2566   0.390   1.741   5.284
  605SOL    HW1 2567   0.299   1.782   5.282
  605SOL    HW2 2568   0.383   1.647   5.316
  606SOL     OW 2569   1.674   0.883   4.978
  606SOL    HW1 2570   1.647   0.794   4.941
  606SOL    HW2 2571   1.675   0.951   4.905
  607SOL     OW 2572   1.225   0.325   4.173
  607SOL    HW1 2573   1.290   0.251   4.162
  607SOL    HW2 2574   1.245   0.375   4.257
  608SOL     OW 2575   0.594   0.745   4.376
  608SOL    HW1 2576   0.644   0.830   4.357
  608SOL    HW2 2577   0.506   0.747   4.328
  609SOL     OW 2578   1.777   0.342   5.366
  609SOL    HW1 2579   1.760   0.373   5.272
  609SOL    HW2 2580   1.693   0.305   5.404
  610SOL     OW 2581   1.730   0.934   5.241
  610SOL    HW1 2582   1.768   1.025   5.256
  610SOL    HW2 2583   1.722   0.917   5.142
  611SOL     OW 2584   0.859   1.374   3.740
  611SOL    HW1 2585   0.813   1.389   3.828
  611SOL    HW2 2586   0.903   1.459   3.710
  612SOL     OW 2587   0.661   1.790   4.677
  612SOL    HW1 2588   0.615   1.878   4.664
  612SOL    HW2 2589   0.760   1.802   4.670
  613SOL     OW 2590   0.859   0.956   4.585
  613SOL    HW1 2591   0.913   0.887   4.633
  613SOL    HW2 2592   0.827   1.025   4.651
  614SOL     OW 2593   1.083   0.984   3.811
  614SOL    HW1 2594   1.060   1.037   3.729
  614SOL    HW2 2595   1.164   0.928   3.792
  615SOL     OW 2596   1.861   1.569   4.575
  615SOL    HW1 2597   1.790   1.557   4.505
  615SOL    HW2 2598   1.862   1.490   4.635
  616SOL     OW 2599   0.221   1.314   5.568
  616SOL    HW1 2600   0.156   1.241   5.547
  616SOL    HW2 2601   0.225   1.328   5.666
  617SOL     OW 2602   0.079   1.240   4.377
  617SOL    HW1 2603   0.078   1.193   4.465
  617SOL    HW2 2604   0.161   1.212   4.326
  618SOL     OW 2605   0.672   1.391   5.348
  618SOL    HW1 2606   0.594   1.341   5.386
  618SOL    HW2 2607   0.669   1.486   5.379
  619SOL     OW 2608   1.824   0.192   4.951
  619SOL    HW1 2609   1.820   0.102   4.995
  619SOL    HW2 2610   1.827   0.181   4.852
  620SOL     OW 2611   0.428   0.424   4.244
  620SOL    HW1 2612   0.458   0.352   4.182
  620SOL    HW2 2613   0.389   0.384   4.327
  621SOL     OW 2614   1.705   1.487   4.828
  621SOL    HW1 2615   1.612   1.462   4.801
  621SOL    HW2 2616   1.731   1.437   4.910
  622SOL     OW 2617   0.317   0.547   5.004
  622SOL    HW1 2618   0.355   0.488   5.076
  622SOL    HW2 2619   0.357   0.521   4.916
  623SOL     OW 2620   0.812   1.586   4.411
  623SOL    HW1 2621   0.844   1.596   4.317
  623SOL    HW2 2622   0.733   1.524   4.413
  624SOL     OW 2623   1.424   0.214   4.836
  624SOL    HW1 2624   1.476   0.149   4.891
  624SOL    HW2 2625   1.375   0.277   4.897
  625SOL     OW 2626   1.001   0.034   4.878
  625SOL    HW1 2627   0.938  -0.038   4.847
  625SOL    HW2 2628   1.094  -0.002   4.878
  626SOL     OW 2629   0.770   1.330   4.025
  626SOL    HW1 2630   0.724   1.243   4.042
  626SOL    HW2 2631   0.861   1.327   4.066
  627SOL     OW 2632   0.618   1.567   5.008
  627SOL    HW1 2633   0.613   1.649   5.065
  627SOL    HW2 2634   0.707   1.564   4.963
  628SOL     OW 2635   1.352   0.052   3.892
  628SOL    HW1 2636   1.387   0.011   3.808
  628SOL    HW2 2637   1.262   0.014   3.912
  629SOL     OW 2638   1.300   0.453   4.415
  629SOL    HW1 2639   1.241   0.533   4.419
  629SOL    HW2 2640   1.315   0.418   4.508
  630SOL     OW 2641   1.593   0.221   4.606
  630SOL    HW1 2642   1.509   0.220   4.660
  630SOL    HW2 2643   1.595   0.304   4.550
  631SOL     OW 2644   0.039   1.077   4.024
  631SOL    HW1 2645   0.138   1.066   4.015
  631SOL    HW2 2646  -0.001   0.991   4.056
  632SOL     OW 2647   0.875   1.646   4.061
  632SOL    HW1 2648   0.798   1.611   4.007
  632SOL    HW2 2649   0.843   1.717   4.123
  633SOL     OW 2650   0.230   0.628   5.699
  633SOL    HW1 2651   0.137   0.626   5.736
  633SOL    HW2 2652   0.231   0.589   5.607
  634SOL     OW 2653   0.225   0.275   6.582
  634SOL    HW1 2654   0.260   0.258   6.674
  634SOL    HW2 2655   0.137   0.230   6.570
  635SOL     OW 2656   0.019   0.368   6.233
  635SOL    HW1 2657  -0.063   0.411   6.272
  635SOL    HW2 2658  -0.009   0.295   6.170
  636SOL     OW 2659   0.569   1.275   6.751
  636SOL    HW1 2660   0.476   1.268   6.714
  636SOL    HW2 2661   0.580   1.364   6.795
  637SOL     OW 2662   1.135   0.703   6.303
  637SOL    HW1 2663   1.192   0.781   6.278
  637SOL    HW2 2664   1.075   0.729   6.379
  638SOL     OW 2665   1.755   0.607   5.817
  638SOL    HW1 2666   1.743   0.594   5.718
  638SOL    HW2 2667   1.725   0.526   5.866
  639SOL     OW 2668   0.768   1.144   6.609
  639SOL    HW1 2669   0.690   1.161   6.669
  639SOL    HW2 2670   0.802   1.231   6.573
  640SOL     OW 2671   0.850   0.798   7.409
  640SOL    HW1 2672   0.846   0.874   7.474
  640SOL    HW2 2673   0.872   0.834   7.318
  641SOL     OW 2674   0.685   1.012   6.251
  641SOL    HW1 2675   0.754   0.996   6.321
  641SOL    HW2 2676   0.612   1.069   6.289
  642SOL     OW 2677   0.686   1.161   7.389
  642SOL    HW1 2678   0.746   1.240   7.403
  642SOL    HW2 2679   0.600   1.192   7.348
  643SOL     OW 2680   0.335   1.435   6.647
  643SOL    HW1 2681   0.257   1.404   6.594
  643SOL    HW2 2682   0.393   1.493   6.590
  644SOL     OW 2683   1.460   1.505   6.925
  644SOL    HW1 2684   1.484   1.599   6.951
  644SOL    HW2 2685   1.444   1.451   7.007
  645SOL     OW 2686   0.438   0.392   7.085
  645SOL    HW1 2687   0.520   0.336   7.094
  645SOL    HW2 2688   0.357   0.334   7.089
  646SOL     OW 2689   1.603   0.447   6.323
  646SOL    HW1 2690   1.529   0.493   6.273
  646SOL    HW2 2691   1.654   0.515   6.376
  647SOL     OW 2692   0.231   1.713   6.069
  647SOL    HW1 2693   0.265   1.790   6.123
  647SOL    HW2 2694   0.275   1.713   5.979
  648SOL     OW 2695   1.127   1.341   7.276
  648SOL    HW1 2696   1.174   1.341   7.364
  648SOL    HW2 2697   1.079   1.254   7.265
  649SOL     OW 2698   0.230   1.434   6.124
  649SOL    HW1 2699   0.204   1.530   6.124
  649SOL    HW2 2700   0.159   1.380   6.169
  650SOL     OW 2701   0.240   1.091   6.472
  650SOL    HW1 2702   0.254   1.007   6.524
  650SOL    HW2 2703   0.185   1.155   6.527
  651SOL     OW 2704   0.620   1.786   7.025
  651SOL    HW1 2705   0.528   1.769   7.060
  651SOL    HW2 2706   0.648   1.878   7.051
  652SOL     OW 2707   0.606   0.964   5.709
  652SOL    HW1 2708   0.613   1.048   5.655
  652SOL    HW2 2709   0.652   0.977   5.797
  653SOL     OW 2710   1.594   0.114   7.066
  653SOL    HW1 2711   1.576   0.181   6.994
  653SOL    HW2 2712   1.591   0.160   7.155
  654SOL     OW 2713   0.122   0.643   6.149
  654SOL    HW1 2714   0.077   0.555   6.166
  654SOL    HW2 2715   0.121   0.697   6.233
  655SOL     OW 2716   0.027   1.596   5.703
  655SOL    HW1 2717   0.008   1.500   5.724
  655SOL    HW2 2718  -0.006   1.654   5.778
  656SOL     OW 2719   1.689   0.922   6.198
  656SOL    HW1 2720   1.784   0.893   6.206
  656SOL    HW2 2721   1.681   0.987   6.123
  657SOL     OW 2722   1.641   1.108   6.018
  657SOL    HW1 2723   1.727   1.110   5.966
  657SOL    HW2 2724   1.655   1.155   6.106
  658SOL     OW 2725   0.113   0.737   7.183
  658SOL    HW1 2726   0.201   0.724   7.228
  658SOL    HW2 2727   0.100   0.834   7.161
  659SOL     OW 2728   0.613   1.365   6.312
  659SOL    HW1 2729   0.564   1.278   6.321
  659SOL    HW2 2730   0.590   1.408   6.225
  660SOL     OW 2731   1.293   1.228   7.009
  660SOL    HW1 2732   1.330   1.155   6.951
  660SOL    HW2 2733   1.345   1.233   7.094
  661SOL     OW 2734   0.809   0.004   6.088
  661SOL    HW1 2735   0.849   0.095   6.079
  661SOL    HW2 2736   0.709   0.012   6.094
  662SOL     OW 2737   0.197   0.976   6.850
  662SOL    HW1 2738   0.286   0.931   6.836
  662SOL    HW2 2739   0.124   0.911   6.831
  663SOL     OW 2740   1.525   0.999   5.776
  663SOL    HW1 2741   1.462   0.923   5.789
  663SOL    HW2 2742   1.573   1.017   5.862
  664SOL     OW 2743   1.187   1.792   7.202
  664SOL    HW1 2744   1.211   1.852   7.126
  664SOL    HW2 2745   1.194   1.697   7.172
  665SOL     OW 2746   0.317   0.251   7.387
  665SOL    HW1 2747   0.388   0.322   7.393
  665SOL    HW2 2748   0.229   0.290   7.415
  666SOL     OW 2749   0.598   0.729   5.856
  666SOL    HW1 2750   0.622   0.798   5.788
  666SOL    HW2 2751   0.520   0.762   5.910
  667SOL     OW 2752   1.281   0.345   6.530
  667SOL    HW1 2753   1.195   0.295   6.517
  667SOL    HW2 2754   1.343   0.291   6.586
  668SOL     OW 2755   1.576   1.662   5.893
  668SOL    HW1 2756   1.665   1.708   5.896
  668SOL    HW2 2757   1.555   1.638   5.798
  669SOL     OW 2758   0.807   0.605   7.051
  669SOL    HW1 2759   0.760   0.602   7.140
  669SOL    HW2 2760   0.756   0.550   6.985
  670SOL     OW 2761   1.394   0.469   7.260
  670SOL    HW1 2762   1.374   0.512   7.348
  670SOL    HW2 2763   1.472   0.407   7.269
  671SOL     OW 2764   0.973   0.890   7.158
  671SOL    HW1 2765   1.019   0.806   7.129
  671SOL    HW2 2766   0.917   0.924   7.083
  672SOL     OW 2767   0.991   0.410   6.828
  672SOL    HW1 2768   0.914   0.444   6.882
  672SOL    HW2 2769   0.957   0.359   6.749
  673SOL     OW 2770   1.041   0.701   6.015
  673SOL    HW1 2771   1.067   0.697   6.111
  673SOL    HW2 2772   0.956   0.650   6.001
  674SOL     OW 2773   0.076   0.811   6.375
  674SOL    HW1 2774   0.175   0.799   6.384
  674SOL    HW2 2775   0.052   0.906   6.396
  675SOL     OW 2776   0.130   1.821   7.157
  675SOL    HW1 2777   0.120   1.806   7.256
  675SOL    HW2 2778   0.044   1.857   7.121
  676SOL     OW 2779   0.865   0.348   5.781
  676SOL    HW1 2780   0.924   0.411   5.732
  676SOL    HW2 2781   0.884   0.254   5.752
  677SOL     OW 2782   1.719   0.585   7.417
  677SOL    HW1 2783   1.693   0.674   7.381
  677SOL    HW2 2784   1.717   0.517   7.344
  678SOL     OW 2785   1.362   1.144   6.131
  678SOL    HW1 2786   1.445   1.115   6.083
  678SOL    HW2 2787   1.313   1.211   6.075
  679SOL     OW 2788   0.550   0.196   6.471
  679SOL    HW1 2789   0.545   0.191   6.571
  679SOL    HW2 2790   0.552   0.292   6.442
  680SOL     OW 2791   1.008   1.456   6.063
  680SOL    HW1 2792   0.962   1.528   6.011
  680SOL    HW2 2793   1.004   1.476   6.161
  681SOL     OW 2794   0.351   1.801   6.439
  681SOL    HW1 2795   0.401   1.715   6.445
  681SOL    HW2 2796   0.416   1.878   6.436
  682SOL     OW 2797   1.795   1.066   6.459
  682SOL    HW1 2798   1.733   1.051   6.383
  682SOL    HW2 2799   1.743   1.077   6.544
  683SOL     OW 2800   1.227   1.550   7.092
  683SOL    HW1 2801   1.233   1.473   7.156
  683SOL    HW2 2802   1.175   1.524   7.012
  684SOL     OW 2803   0.321   0.943   5.828
  684SOL    HW1 2804   0.403   0.982   5.786
  684SOL    HW2 2805   0.294   0.861   5.779
  685SOL     OW 2806   1.458   0.735   6.314
  685SOL    HW1 2807   1.453   0.670   6.389
  685SOL    HW2 2808   1.538   0.794   6.327
  686SOL     OW 2809   0.461   1.266   7.313
  686SOL    HW1 2810   0.411   1.267   7.227
  686SOL    HW2 2811   0.398   1.248   7.389
  687SOL     OW 2812   1.111   1.776   5.823
  687SOL    HW1 2813   1.051   1.714   5.873
  687SOL    HW2 2814   1.142   1.732   5.738
  688SOL     OW 2815   0.202   0.285   7.084
  688SOL    HW1 2816   0.122   0.345   7.071
  688SOL    HW2 2817   0.192   0.236   7.170
  689SOL     OW 2818   1.632   1.377   5.667
  689SOL    HW1 2819   1.600   1.471   5.657
  689SOL    HW2 2820   1.556   1.314   5.655
  690SOL     OW 2821   0.464   1.743   5.909
  690SOL    HW1 2822   0.497   1.782   5.995
  690SOL    HW2 2823   0.540   1.736   5.844
  691SOL     OW 2824   1.400   0.107   6.012
  691SOL    HW1 2825   1.376   0.070   5.922
  691SOL    HW2 2826   1.499   0.123   6.016
  692SOL     OW 2827   0.249   1.785   6.827
  692SOL    HW1 2828   0.306   1.720   6.877
  692SOL    HW2 2829   0.233   1.752   6.734
  693SOL     OW 2830   0.940   1.698   6.490
  693SOL    HW1 2831   1.020   1.641   6.511
  693SOL    HW2 2832   0.891   1.658   6.413
  694SOL     OW 2833   0.382   0.700   6.066
  694SOL    HW1 2834   0.427   0.610   6.063
  694SOL    HW2 2835   0.288   0.689   6.099
  695SOL     OW 2836   1.547   0.222   7.315
  695SOL    HW1 2837   1.542   0.259   7.407
  695SOL    HW2 2838   1.475   0.153   7.303
  696SOL     OW 2839   0.614   0.122   5.703
  696SOL    HW1 2840   0.712   0.100   5.710
  696SOL    HW2 2841   0.583   0.105   5.610
  697SOL     OW 2842   0.781   0.264   7.335
  697SOL    HW1 2843   0.848   0.203   7.378
  697SOL    HW2 2844   0.708   0.283   7.400
  698SOL     OW 2845   0.888   1.514   6.781
  698SOL    HW1 2846   0.865   1.489   6.687
  698SOL    HW2 2847   0.949   1.445   6.820
  699SOL     OW 2848   1.351   0.590   7.019
  699SOL    HW1 2849   1.379   0.547   7.104
  699SOL    HW2 2850   1.376   0.686   7.020
  700SOL     OW 2851   0.803   1.402   6.510
  700SOL    HW1 2852   0.893   1.416   6.468
  700SOL    HW2 2853   0.732   1.404   6.439
  701SOL     OW 2854   0.922   0.503   6.485
  701SOL    HW1 2855   0.897   0.494   6.389
  701SOL    HW2 2856   0.970   0.421   6.516
  702SOL     OW 2857   0.539   0.064   6.098
  702SOL    HW1 2858   0.458   0.065   6.156
  702SOL    HW2 2859   0.542   0.147   6.043
  703SOL     OW 2860   1.434   1.188   5.627
  703SOL    HW1 2861   1.466   1.112   5.684
  703SOL    HW2 2862   1.342   1.215   5.657
  704SOL     OW 2863   0.297   0.035   5.757
  704SOL    HW1 2864   0.346   0.119   5.736
  704SOL    HW2 2865   0.359  -0.030   5.802
  705SOL     OW 2866   0.935   0.236   6.066
  705SOL    HW1 2867   0.887   0.277   5.988
  705SOL    HW2 2868   1.034   0.234   6.047
  706SOL     OW 2869   1.076   0.683   7.050
  706SOL    HW1 2870   0.996   0.622   7.053
  706SOL    HW2 2871   1.157   0.630   7.026
  707SOL     OW 2872   0.459   1.152   6.327
  707SOL    HW1 2873   0.388   1.125   6.392
  707SOL    HW2 2874   0.433   1.124   6.234
  708SOL     OW 2875   1.032   0.549   5.602
  708SOL    HW1 2876   0.991   0.631   5.563
  708SOL    HW2 2877   1.096   0.575   5.675
  709SOL     OW 2878   0.078   0.556   6.972
  709SOL    HW1 2879   0.170   0.555   6.931
  709SOL    HW2 2880   0.072   0.630   7.039
  710SOL     OW 2881   0.561   0.222   6.733
  710SOL    HW1 2882   0.599   0.138   6.770
  710SOL    HW2 2883   0.473   0.241   6.777
  711SOL     OW 2884   0.866   0.454   6.228
  711SOL    HW1 2885   0.834   0.526   6.166
  711SOL    HW2 2886   0.890   0.373   6.175
  712SOL     OW 2887   1.017   0.039   6.339
  712SOL    HW1 2888   0.945   0.044   6.270
  712SOL    HW2 2889   0.993  -0.030   6.408
  713SOL     OW 2890   1.429   1.173   6.453
  713SOL    HW1 2891   1.374   1.089   6.446
  713SOL    HW2 2892   1.455   1.202   6.361
  714SOL     OW 2893   1.466   0.590   6.578
  714SOL    HW1 2894   1.436   0.495   6.585
  714SOL    HW2 2895   1.539   0.606   6.644
  715SOL     OW 2896   1.857   0.833   5.963
  715SOL    HW1 2897   1.899   0.769   6.027
  715SOL    HW2 2898   1.819   0.782   5.885
  716SOL     OW 2899   0.488   1.385   5.760
  716SOL    HW1 2900   0.401   1.370   5.807
  716SOL    HW2 2901   0.471   1.411   5.665
  717SOL     OW 2902   1.390   0.575   5.664
  717SOL    HW1 2903   1.336   0.554   5.745
  717SOL    HW2 2904   1.481   0.534   5.673
  718SOL     OW 2905   0.527   0.256   5.914
  718SOL    HW1 2906   0.554   0.197   5.839
  718SOL    HW2 2907   0.527   0.351   5.883
  719SOL     OW 2908   1.754   1.223   7.174
  719SOL    HW1 2909   1.845   1.184   7.161
  719SOL    HW2 2910   1.762   1.319   7.198
  720SOL     OW 2911   1.064   1.347   6.926
  720SOL    HW1 2912   0.984   1.324   6.981
  720SOL    HW2 2913   1.147   1.321   6.975
  721SOL     OW 2914   1.111   1.195   6.686
  721SOL    HW1 2915   1.071   1.239   6.767
  721SOL    HW2 2916   1.070   1.232   6.603
  722SOL     OW 2917   1.638   1.099   6.665
  722SOL    HW1 2918   1.643   1.180   6.724
  722SOL    HW2 2919   1.552   1.101   6.614
  723SOL     OW 2920   0.915   0.089   6.988
  723SOL    HW1 2921   0.940   0.069   6.893
  723SOL    HW2 2922   0.987   0.145   7.030
  724SOL     OW 2923   0.980   1.116   7.305
  724SOL    HW1 2924   0.881   1.122   7.315
  724SOL    HW2 2925   1.003   1.036   7.249
  725SOL     OW 2926   0.705   1.050   5.954
  725SOL    HW1 2927   0.691   1.057   6.053
  725SOL    HW2 2928   0.789   0.999   5.936
  726SOL     OW 2929   0.410   0.813   6.837
  726SOL    HW1 2930   0.496   0.825   6.887
  726SOL    HW2 2931   0.368   0.726   6.864
  727SOL     OW 2932   1.274   0.386   6.848
  727SOL    HW1 2933   1.295   0.460   6.912
  727SOL    HW2 2934   1.185   0.403   6.805
  728SOL     OW 2935   0.064   1.564   6.917
  728SOL    HW1 2936   0.018   1.646   6.883
  728SOL    HW2 2937   0.162   1.583   6.926
  729SOL     OW 2938   0.367   1.100   6.087
  729SOL    HW1 2939   0.360   1.183   6.031
  729SOL    HW2 2940   0.371   1.020   6.027
  730SOL     OW 2941   0.566   0.537   6.451
  730SOL    HW1 2942   0.578   0.603   6.377
  730SOL    HW2 2943   0.612   0.571   6.534
  731SOL     OW 2944   1.252   1.348   5.974
  731SOL    HW1 2945   1.302   1.425   6.014
  731SOL    HW2 2946   1.157   1.350   6.006
  732SOL     OW 2947   1.272   1.445   6.728
  732SOL    HW1 2948   1.319   1.458   6.815
  732SOL    HW2 2949   1.206   1.371   6.737
  733SOL     OW 2950   1.582   0.639   6.058
  733SOL    HW1 2951   1.551   0.700   6.131
  733SOL    HW2 2952   1.632   0.691   5.989
  734SOL     OW 2953   0.354   1.510   6.915
  734SOL    HW1 2954   0.333   1.466   6.828
  734SOL    HW2 2955   0.451   1.536   6.918
  735SOL     OW 2956   0.402   0.751   7.184
  735SOL    HW1 2957   0.470   0.806   7.137
  735SOL    HW2 2958   0.442   0.663   7.211
  736SOL     OW 2959   1.587   0.779   7.256
  736SOL    HW1 2960   1.495   0.817   7.251
  736SOL    HW2 2961   1.647   0.826   7.191
  737SOL     OW 2962   1.013   0.105   7.356
  737SOL    HW1 2963   1.019   0.190   7.304
  737SOL    HW2 2964   1.045   0.029   7.299
  738SOL     OW 2965   0.504   0.050   7.326
  738SOL    HW1 2966   0.462  -0.007   7.256
  738SOL    HW2 2967   0.438   0.119   7.358
  739SOL     OW 2968   0.573   0.870   6.615
  739SOL    HW1 2969   0.617   0.959   6.606
  739SOL    HW2 2970   0.510   0.870   6.692
  740SOL     OW 2971   1.360   0.862   6.631
  740SOL    HW1 2972   1.285   0.862   6.565
  740SOL    HW2 2973   1.397   0.770   6.640
  741SOL     OW 2974   1.209   0.525   5.861
  741SOL    HW1 2975   1.222   0.441   5.915
  741SOL    HW2 2976   1.180   0.599   5.921
  742SOL     OW 2977   0.307   0.213   6.817
  742SOL    HW1 2978   0.284   0.250   6.907
  742SOL    HW2 2979   0.277   0.118   6.811
  743SOL     OW 2980   0.037   1.310   6.868
  743SOL    HW1 2981   0.090   1.261   6.936
  743SOL    HW2 2982   0.059   1.408   6.873
  744SOL     OW 2983   0.732   0.634   6.650
  744SOL    HW1 2984   0.791   0.608   6.574
  744SOL    HW2 2985   0.704   0.730   6.639
  745SOL     OW 2986   1.728   0.935   7.440
  745SOL    HW1 2987   1.682   0.928   7.351
  745SOL    HW2 2988   1.666   0.979   7.506
  746SOL     OW 2989   0.307   0.063   6.204
  746SOL    HW1 2990   0.296   0.157   6.237
  746SOL    HW2 2991   0.302   0.000   6.281
  747SOL     OW 2992   1.622   0.367   5.960
  747SOL    HW1 2993   1.624   0.291   6.024
  747SOL    HW2 2994   1.574   0.444   6.000
  748SOL     OW 2995   1.023   0.766   6.552
  748SOL    HW1 2996   1.038   0.787   6.648
  748SOL    HW2 2997   0.993   0.671   6.543
  749SOL     OW 2998   0.980   1.573   7.286
  749SOL    HW1 2999   0.960   1.617   7.198
  749SOL    HW2 3000   1.019   1.482   7.270
  750SOL     OW 3001   0.350   0.898   7.390
  750SOL    HW1 3002   0.426   0.942   7.438
  750SOL    HW2 3003   0.385   0.851   7.308
  751SOL     OW 3004   1.540   0.274   5.711
  751SOL    HW1 3005   1.479   0.199   5.734
  751SOL    HW2 3006   1.562   0.326   5.794
  752SOL     OW 3007   1.303   0.838   5.628
  752SOL    HW1 3008   1.337   0.745   5.643
  752SOL    HW2 3009   1.321   0.865   5.533
  753SOL     OW 3010   1.068   1.333   6.435
  753SOL    HW1 3011   1.075   1.249   6.380
  753SOL    HW2 3012   1.130   1.402   6.399
  754SOL     OW 3013   0.319   0.810   6.535
  754SOL    HW1 3014   0.412   0.846   6.540
  754SOL    HW2 3015   0.313   0.725   6.587
  755SOL     OW 3016   0.339   0.509   6.592
  755SOL    HW1 3017   0.287   0.426   6.575
  755SOL    HW2 3018   0.416   0.514   6.528
  756SOL     OW 3019   1.138   0.380   7.264
  756SOL    HW1 3020   1.093   0.443   7.328
  756SOL    HW2 3021   1.231   0.411   7.247
  757SOL     OW 3022   1.160   0.207   7.063
  757SOL    HW1 3023   1.160   0.271   7.140
  757SOL    HW2 3024   1.188   0.255   6.980
  758SOL     OW 3025   0.008   1.326   5.786
  758SOL    HW1 3026  -0.085   1.347   5.755
  758SOL    HW2 3027   0.018   1.227   5.799
  759SOL     OW 3028   0.088   1.801   6.513
  759SOL    HW1 3029   0.046   1.715   6.486
  759SOL    HW2 3030   0.182   1.804   6.479
  760SOL     OW 3031   0.504   1.568   6.496
  760SOL    HW1 3032   0.570   1.642   6.505
  760SOL    HW2 3033   0.548   1.489   6.454
  761SOL     OW 3034   1.002   0.796   6.824
  761SOL    HW1 3035   1.043   0.764   6.910
  761SOL    HW2 3036   0.906   0.769   6.821
  762SOL     OW 3037   0.040   0.544   6.700
  762SOL    HW1 3038   0.125   0.511   6.659
  762SOL    HW2 3039   0.053   0.559   6.798
  763SOL     OW 3040   0.189   0.520   7.308
  763SOL    HW1 3041   0.248   0.480   7.238
  763SOL    HW2 3042   0.131   0.591   7.267
  764SOL     OW 3043   1.369   0.950   7.246
  764SOL    HW1 3044   1.408   1.039   7.266
  764SOL    HW2 3045   1.379   0.930   7.149
  765SOL     OW 3046   0.815   0.572   5.911
  765SOL    HW1 3047   0.822   0.483   5.865
  765SOL    HW2 3048   0.721   0.606   5.903
  766SOL     OW 3049   1.657   0.604   6.792
  766SOL    HW1 3050   1.619   0.535   6.854
  766SOL    HW2 3051   1.739   0.568   6.748
  767SOL     OW 3052   0.252   1.564   7.330
  767SOL    HW1 3053   0.222   1.621   7.406
  767SOL    HW2 3054   0.245   1.467   7.356
  768SOL     OW 3055   0.671   0.464   6.855
  768SOL    HW1 3056   0.637   0.375   6.825
  768SOL    HW2 3057   0.697   0.518   6.775
  769SOL     OW 3058   0.930   1.678   7.051
  769SOL    HW1 3059   0.906   1.660   6.956
  769SOL    HW2 3060   0.960   1.772   7.061
  770SOL     OW 3061   0.473   0.500   5.777
  770SOL    HW1 3062   0.534   0.580   5.781
  770SOL    HW2 3063   0.378   0.531   5.784
  771SOL     OW 3064   0.159   1.137   7.052
  771SOL    HW1 3065   0.181   1.076   7.128
  771SOL    HW2 3066   0.169   1.088   6.966
  772SOL     OW 3067   1.347   1.059   6.820
  772SOL    HW1 3068   1.371   0.996   6.746
  772SOL    HW2 3069   1.257   1.099   6.802
  773SOL     OW 3070   1.302   0.855   5.895
  773SOL    HW1 3071   1.216   0.824   5.937
  773SOL    HW2 3072   1.298   0.841   5.796
  774SOL     OW 3073   0.083   1.258   6.608
  774SOL    HW1 3074   0.078   1.257   6.708
  774SOL    HW2 3075   0.000   1.217   6.570
  775SOL     OW 3076   0.688   1.662   7.302
  775SOL    HW1 3077   0.632   1.743   7.311
  775SOL    HW2 3078   0.740   1.666   7.216
  776SOL     OW 3079   1.726   0.135   6.109
  776SOL    HW1 3080   1.799   0.118   6.042
  776SOL    HW2 3081   1.695   0.048   6.147
  777SOL     OW 3082   0.130   1.794   7.437
  777SOL    HW1 3083   0.089   1.720   7.490
  777SOL    HW2 3084   0.194   1.845   7.495
  778SOL     OW 3085   1.280   0.927   6.258
  778SOL    HW1 3086   1.340   0.846   6.260
  778SOL    HW2 3087   1.320   0.996   6.198
  779SOL     OW 3088   0.830   1.273   7.008
  779SOL    HW1 3089   0.825   1.306   7.103
  779SOL    HW2 3090   0.744   1.292   6.962
  780SOL     OW 3091   0.672   1.616   5.740
  780SOL    HW1 3092   0.681   1.626   5.641
  780SOL    HW2 3093   0.632   1.527   5.761
  781SOL     OW 3094   1.650   1.720   6.980
  781SOL    HW1 3095   1.703   1.730   6.896
  781SOL    HW2 3096   1.623   1.810   7.014
  782SOL     OW 3097   1.841   0.175   6.549
  782SOL    HW1 3098   1.880   0.090   6.513
  782SOL    HW2 3099   1.743   0.177   6.530
  783SOL     OW 3100   0.263   0.326   6.306
  783SOL    HW1 3101   0.184   0.377   6.272
  783SOL    HW2 3102   0.254   0.311   6.404
  784SOL     OW 3103   1.194   1.612   5.617
  784SOL    HW1 3104   1.200   1.519   5.654
  784SOL    HW2 3105   1.135   1.612   5.537
  785SOL     OW 3106   0.822   1.002   6.958
  785SOL    HW1 3107   0.862   1.001   6.866
  785SOL    HW2 3108   0.832   1.094   6.998
  786SOL     OW 3109   0.916   0.910   5.877
  786SOL    HW1 3110   0.979   0.948   5.809
  786SOL    HW2 3111   0.956   0.827   5.916
  787SOL     OW 3112   1.504   1.607   5.630
  787SOL    HW1 3113   1.412   1.644   5.637
  787SOL    HW2 3114   1.542   1.627   5.540
  788SOL     OW 3115   0.372   1.288   7.076
  788SOL    HW1 3116   0.359   1.381   7.042
  788SOL    HW2 3117   0.288   1.236   7.063
  789SOL     OW 3118   1.614   1.292   6.875
  789SOL    HW1 3119   1.674   1.295   6.955
  789SOL    HW2 3120   1.539   1.356   6.888
  790SOL     OW 3121   1.039   1.098   6.282
  790SOL    HW1 3122   0.969   1.051   6.336
  790SOL    HW2 3123   1.098   1.030   6.239
  791SOL     OW 3124   1.014   0.236   6.557
  791SOL    HW1 3125   1.006   0.200   6.464
  791SOL    HW2 3126   1.012   0.160   6.622
  792SOL     OW 3127   0.590   1.487   6.077
  792SOL    HW1 3128   0.632   1.429   6.007
  792SOL    HW2 3129   0.546   1.566   6.033
  793SOL     OW 3130   1.709   0.385   6.967
  793SOL    HW1 3131   1.782   0.454   6.971
  793SOL    HW2 3132   1.737   0.310   6.908
  794SOL     OW 3133   0.255   1.348   5.876
  794SOL    HW1 3134   0.159   1.349   5.849
  794SOL    HW2 3135   0.267   1.401   5.960
  795SOL     OW 3136   0.105   1.013   7.312
  795SOL    HW1 3137   0.028   0.980   7.366
  795SOL    HW2 3138   0.190   0.983   7.354
  796SOL     OW 3139   0.672   0.203   7.075
  796SOL    HW1 3140   0.762   0.187   7.035
  796SOL    HW2 3141   0.680   0.208   7.174
  797SOL     OW 3142   0.075   0.345   5.619
  797SOL    HW1 3143  -0.017   0.317   5.590
  797SOL    HW2 3144   0.106   0.422   5.563
  798SOL     OW 3145   1.440   0.856   6.984
  798SOL    HW1 3146   1.383   0.908   6.921
  798SOL    HW2 3147   1.536   0.868   6.960
  799SOL     OW 3148   0.072   0.166   5.904
  799SOL    HW1 3149   0.055   0.249   5.850
  799SOL    HW2 3150   0.162   0.129   5.882
  800SOL     OW 3151   1.183   1.335   5.705
  800SOL    HW1 3152   1.084   1.324   5.707
  800SOL    HW2 3153   1.217   1.350   5.798
  801SOL     OW 3154   0.613   0.842   7.017
  801SOL    HW1 3155   0.669   0.923   7.000
  801SOL    HW2 3156   0.672   0.762   7.020
  802SOL     OW 3157   0.716   0.565   7.294
  802SOL    HW1 3158   0.735   0.630   7.368
  802SOL    HW2 3159   0.776   0.485   7.303
  803SOL     OW 3160   1.450   1.220   7.219
  803SOL    HW1 3161   1.441   1.210   7.318
  803SOL    HW2 3162   1.546   1.213   7.193
  804SOL     OW 3163   0.390   1.741   7.146
  804SOL    HW1 3164   0.299   1.782   7.144
  804SOL    HW2 3165   0.383   1.647   7.178
  805SOL     OW 3166   1.674   0.883   6.840
  805SOL    HW1 3167   1.647   0.794   6.803
  805SOL    HW2 3168   1.675   0.951   6.767
  806SOL     OW 3169   1.225   0.325   6.035
  806SOL    HW1 3170   1.290   0.251   6.024
  806SOL    HW2 3171   1.245   0.375   6.119
  807SOL     OW 3172   0.594   0.745   6.238
  807SOL    HW1 3173   0.644   0.830   6.219
  807SOL    HW2 3174   0.506   0.747   6.190
  808SOL     OW 3175   1.777   0.342   7.228
  808SOL    HW1 3176   1.760   0.373   7.134
  808SOL    HW2 3177   1.693   0.305   7.266
  809SOL     OW 3178   1.730   0.934   7.103
  809SOL    HW1 3179   1.768   1.025   7.118
  809SOL    HW2 3180   1.722   0.917   7.004
  810SOL     OW 3181   0.859   1.374   5.602
  810SOL    HW1 3182   0.813   1.389   5.690
  810SOL    HW2 3183   0.903   1.459   5.572
  811SOL     OW 3184   0.661   1.790   6.539
  811SOL    HW1 3185   0.615   1.878   6.526
  811SOL    HW2 3186   0.760   1.802   6.532
  812SOL     OW 3187   0.859   0.956   6.447
  812SOL    HW1 3188   0.913   0.887   6.495
  812SOL    HW2 3189   0.827   1.025   6.513
  813SOL     OW 3190   1.083   0.984   5.673
  813SOL    HW1 3191   1.060   1.037   5.591
  813SOL    HW2 3192   1.164   0.928   5.654
  814SOL     OW 3193   0.221   1.314   7.430
  814SOL    HW1 3194   0.156   1.241   7.409
  814SOL    HW2 3195   0.225   1.328   7.528
  815SOL     OW 3196   0.079   1.240   6.239
  815SOL    HW1 3197   0.078   1.193   6.327
  815SOL    HW2 3198   0.161   1.212   6.188
  816SOL     OW 3199   0.672   1.391   7.210
  816SOL    HW1 3200   0.594   1.341   7.248
  816SOL    HW2 3201   0.669   1.486   7.241
  817SOL     OW 3202   1.824   0.192   6.813
  817SOL    HW1 3203   1.820   0.102   6.857
  817SOL    HW2 3204   1.827   0.181   6.714
  818SOL     OW 3205   0.428   0.424   6.106
  818SOL    HW1 3206   0.458   0.352   6.044
  818SOL    HW2 3207   0.389   0.384   6.189
  819SOL     OW 3208   0.317   0.547   6.866
  819SOL    HW1 3209   0.355   0.488   6.938
  819SOL    HW2 3210   0.357   0.521   6.778
  820SOL     OW 3211   0.812   1.586   6.273
  820SOL    HW1 3212   0.844   1.596   6.179
  820SOL    HW2 3213   0.733   1.524   6.275
  821SOL     OW 3214   1.424   0.214   6.698
  821SOL    HW1 3215   1.476   0.149   6.753
  821SOL    HW2 3216   1.375   0.277   6.759
  822SOL     OW 3217   1.001   0.034   6.740
  822SOL    HW1 3218   0.938  -0.038   6.709
  822SOL    HW2 3219   1.094  -0.002   6.740
  823SOL     OW 3220   0.770   1.330   5.887
  823SOL    HW1 3221   0.724   1.243   5.904
  823SOL    HW2 3222   0.861   1.327   5.928
  824SOL     OW 3223   0.618   1.567   6.870
  824SOL    HW1 3224   0.613   1.649   6.927
  824SOL    HW2 3225   0.707   1.564   6.825
  825SOL     OW 3226   1.352   0.052   5.754
  825SOL    HW1 3227   1.387   0.011   5.670
  825SOL    HW2 3228   1.262   0.014   5.774
  826SOL     OW 3229   1.300   0.453   6.277
  826SOL    HW1 3230   1.241   0.533   6.281
  826SOL    HW2 3231   1.315   0.418   6.370
  827SOL     OW 3232   1.593   0.221   6.468
  827SOL    HW1 3233   1.509   0.220   6.522
  827SOL    HW2 3234   1.595   0.304   6.412
  828SOL     OW 3235   0.039   1.077   5.886
  828SOL    HW1 3236   0.138   1.066   5.877
  828SOL    HW2 3237  -0.001   0.991   5.918
  829SOL     OW 3238   0.875   1.646   5.923
  829SOL    HW1 3239   0.798   1.611   5.869
  829SOL    HW2 3240   0.843   1.717   5.985
  830SOL     OW 3241   0.230   0.628   7.561
  830SOL    HW1 3242   0.137   0.626   7.598
  830SOL    HW2 3243   0.231   0.589   7.469
  831SOL     OW 3244   0.225   0.275   8.444
  831SOL    HW1 3245   0.260   0.258   8.536
  831SOL    HW2 3246   0.137   0.230   8.432
  832SOL     OW 3247   0.019   0.368   8.095
  832SOL    HW1 3248  -0.063   0.411   8.134
  832SOL    HW2 3249  -0.009   0.295   8.032
  833SOL     OW 3250   0.569   1.275   8.613
  833SOL    HW1 3251   0.476   1.268   8.576
  833SOL    HW2 3252   0.580   1.364   8.657
  834SOL     OW 3253   1.555   1.511   8.151
  834SOL    HW1 3254   1.498   1.495   8.232
  834SOL    HW2 3255   1.496   1.521   8.071
  835SOL     OW 3256   1.135   0.703   8.165
  835SOL    HW1 3257   1.192   0.781   8.140
  835SOL    HW2 3258   1.075   0.729   8.241
  836SOL     OW 3259   1.755   0.607   7.679
  836SOL    HW1 3260   1.743   0.594   7.580
  836SOL    HW2 3261   1.725   0.526   7.728
  837SOL     OW 3262   0.768   1.144   8.471
  837SOL    HW1 3263   0.690   1.161   8.531
  837SOL    HW2 3264   0.802   1.231   8.435
  838SOL     OW 3265   0.850   0.798   9.271
  838SOL    HW1 3266   0.846   0.874   9.336
  838SOL    HW2 3267   0.872   0.834   9.180
  839SOL     OW 3268   0.685   1.012   8.113
  839SOL    HW1 3269   0.754   0.996   8.183
  839SOL    HW2 3270   0.612   1.069   8.151
  840SOL     OW 3271   0.686   1.161   9.251
  840SOL    HW1 3272   0.746   1.240   9.265
  840SOL    HW2 3273   0.600   1.192   9.210
  841SOL     OW 3274   0.335   1.435   8.509
  841SOL    HW1 3275   0.257   1.404   8.456
  841SOL    HW2 3276   0.393   1.493   8.452
  842SOL     OW 3277   1.460   1.505   8.787
  842SOL    HW1 3278   1.484   1.599   8.813
  842SOL    HW2 3279   1.444   1.451   8.869
  843SOL     OW 3280   0.438   0.392   8.947
  843SOL    HW1 3281   0.520   0.336   8.956
  843SOL    HW2 3282   0.357   0.334   8.951
  844SOL     OW 3283   1.603   0.447   8.185
  844SOL    HW1 3284   1.529   0.493   8.135
  844SOL    HW2 3285   1.654   0.515   8.238
  845SOL     OW 3286   0.231   1.713   7.931
  845SOL    HW1 3287   0.265   1.790   7.985
  845SOL    HW2 3288   0.275   1.713   7.841
  846SOL     OW 3289   1.127   1.341   9.138
  846SOL    HW1 3290   1.174   1.341   9.226
  846SOL    HW2 3291   1.079   1.254   9.127
  847SOL     OW 3292   0.230   1.434   7.986
  847SOL    HW1 3293   0.204   1.530   7.986
  847SOL    HW2 3294   0.159   1.380   8.031
  848SOL     OW 3295   0.240   1.091   8.334
  848SOL    HW1 3296   0.254   1.007   8.386
  848SOL    HW2 3297   0.185   1.155   8.389
  849SOL     OW 3298   0.620   1.786   8.887
  849SOL    HW1 3299   0.528   1.769   8.922
  849SOL    HW2 3300   0.648   1.878   8.913
  850SOL     OW 3301   0.606   0.964   7.571
  850SOL    HW1 3302   0.613   1.048   7.517
  850SOL    HW2 3303   0.652   0.977   7.659
  851SOL     OW 3304   1.594   0.114   8.928
  851SOL    HW1 3305   1.576   0.181   8.856
  851SOL    HW2 3306   1.591   0.160   9.017
  852SOL     OW 3307   0.122   0.643   8.011
  852SOL    HW1 3308   0.077   0.555   8.028
  852SOL    HW2 3309   0.121   0.697   8.095
  853SOL     OW 3310   0.027   1.596   7.565
  853SOL    HW1 3311   0.008   1.500   7.586
  853SOL    HW2 3312  -0.006   1.654   7.640
  854SOL     OW 3313   1.689   0.922   8.060
  854SOL    HW1 3314   1.784   0.893   8.068
  854SOL    HW2 3315   1.681   0.987   7.985
  855SOL     OW 3316   1.641   1.108   7.880
  855SOL    HW1 3317   1.727   1.110   7.828
  855SOL    HW2 3318   1.655   1.155   7.968
  856SOL     OW 3319   0.113   0.737   9.045
  856SOL    HW1 3320   0.201   0.724   9.090
  856SOL    HW2 3321   0.100   0.834   9.023
  857SOL     OW 3322   0.613   1.365   8.174
  857SOL    HW1 3323   0.564   1.278   8.183
  857SOL    HW2 3324   0.590   1.408   8.087
  858SOL     OW 3325   1.293   1.228   8.871
  858SOL    HW1 3326   1.330   1.155   8.813
  858SOL    HW2 3327   1.345   1.233   8.956
  859SOL     OW 3328   0.809   0.004   7.950
  859SOL    HW1 3329   0.849   0.095   7.941
  859SOL    HW2 3330   0.709   0.012   7.956
  860SOL     OW 3331   0.197   0.976   8.712
  860SOL    HW1 3332   0.286   0.931   8.698
  860SOL    HW2 3333   0.124   0.911   8.693
  861SOL     OW 3334   1.525   0.999   7.638
  861SOL    HW1 3335   1.462   0.923   7.651
  861SOL    HW2 3336   1.573   1.017   7.724
  862SOL     OW 3337   1.187   1.792   9.064
  862SOL    HW1 3338   1.211   1.852   8.988
  862SOL    HW2 3339   1.194   1.697   9.034
  863SOL     OW 3340   0.317   0.251   9.249
  863SOL    HW1 3341   0.388   0.322   9.255
  863SOL    HW2 3342   0.229   0.290   9.277
  864SOL     OW 3343   1.466   1.417   8.401
  864SOL    HW1 3344   1.407   1.423   8.481
  864SOL    HW2 3345   1.451   1.329   8.355
  865SOL     OW 3346   1.667   1.714   8.020
  865SOL    HW1 3347   1.626   1.691   7.932
  865SOL    HW2 3348   1.649   1.640   8.085
  866SOL     OW 3349   0.598   0.729   7.718
  866SOL    HW1 3350   0.622   0.798   7.650
  866SOL    HW2 3351   0.520   0.762   7.772
  867SOL     OW 3352   1.281   0.345   8.392
  867SOL    HW1 3353   1.195   0.295   8.379
  867SOL    HW2 3354   1.343   0.291   8.448
  868SOL     OW 3355   0.807   0.605   8.913
  868SOL    HW1 3356   0.760   0.602   9.002
  868SOL    HW2 3357   0.756   0.550   8.847
  869SOL     OW 3358   1.394   0.469   9.122
  869SOL    HW1 3359   1.374   0.512   9.210
  869SOL    HW2 3360   1.472   0.407   9.131
  870SOL     OW 3361   0.973   0.890   9.020
  870SOL    HW1 3362   1.019   0.806   8.991
  870SOL    HW2 3363   0.917   0.924   8.945
  871SOL     OW 3364   0.991   0.410   8.690
  871SOL    HW1 3365   0.914   0.444   8.744
  871SOL    HW2 3366   0.957   0.359   8.611
  872SOL     OW 3367   1.041   0.701   7.877
  872SOL    HW1 3368   1.067   0.697   7.973
  872SOL    HW2 3369   0.956   0.650   7.863
  873SOL     OW 3370   0.076   0.811   8.237
  873SOL    HW1 3371   0.175   0.799   8.246
  873SOL    HW2 3372   0.052   0.906   8.258
  874SOL     OW 3373   0.130   1.821   9.019
  874SOL    HW1 3374   0.120   1.806   9.118
  874SOL    HW2 3375   0.044   1.857   8.983
  875SOL     OW 3376   0.865   0.348   7.643
  875SOL    HW1 3377   0.924   0.411   7.594
  875SOL    HW2 3378   0.884   0.254   7.614
  876SOL     OW 3379   1.719   0.585   9.279
  876SOL    HW1 3380   1.693   0.674   9.243
  876SOL    HW2 3381   1.717   0.517   9.206
  877SOL     OW 3382   1.362   1.144   7.993
  877SOL    HW1 3383   1.445   1.115   7.945
  877SOL    HW2 3384   1.313   1.211   7.937
  878SOL     OW 3385   0.550   0.196   8.333
  878SOL    HW1 3386   0.545   0.191   8.433
  878SOL    HW2 3387   0.552   0.292   8.304
  879SOL     OW 3388   1.008   1.456   7.925
  879SOL    HW1 3389   0.962   1.528   7.873
  879SOL    HW2 3390   1.004   1.476   8.023
  880SOL     OW 3391   0.351   1.801   8.301
  880SOL    HW1 3392   0.401   1.715   8.307
  880SOL    HW2 3393   0.416   1.878   8.298
  881SOL     OW 3394   1.795   1.066   8.321
  881SOL    HW1 3395   1.733   1.051   8.245
  881SOL    HW2 3396   1.743   1.077   8.406
  882SOL     OW 3397   1.227   1.550   8.954
  882SOL    HW1 3398   1.233   1.473   9.018
  882SOL    HW2 3399   1.175   1.524   8.874
  883SOL     OW 3400   0.321   0.943   7.690
  883SOL    HW1 3401   0.403   0.982   7.648
  883SOL    HW2 3402   0.294   0.861   7.641
  884SOL     OW 3403   1.458   0.735   8.176
  884SOL    HW1 3404   1.453   0.670   8.251
  884SOL    HW2 3405   1.538   0.794   8.189
  885SOL     OW 3406   0.461   1.266   9.175
  885SOL    HW1 3407   0.411   1.267   9.089
  885SOL    HW2 3408   0.398   1.248   9.251
  886SOL     OW 3409   0.202   0.285   8.946
  886SOL    HW1 3410   0.122   0.345   8.933
  886SOL    HW2 3411   0.192   0.236   9.032
  887SOL     OW 3412   0.464   1.743   7.771
  887SOL    HW1 3413   0.497   1.782   7.857
  887SOL    HW2 3414   0.540   1.736   7.706
  888SOL     OW 3415   1.400   0.107   7.874
  888SOL    HW1 3416   1.376   0.070   7.784
  888SOL    HW2 3417   1.499   0.123   7.878
  889SOL     OW 3418   0.249   1.785   8.689
  889SOL    HW1 3419   0.306   1.720   8.739
  889SOL    HW2 3420   0.233   1.752   8.596
  890SOL     OW 3421   0.940   1.698   8.352
  890SOL    HW1 3422   1.020   1.641   8.373
  890SOL    HW2 3423   0.891   1.658   8.275
  891SOL     OW 3424   0.382   0.700   7.928
  891SOL    HW1 3425   0.427   0.610   7.925
  891SOL    HW2 3426   0.288   0.689   7.961
  892SOL     OW 3427   1.547   0.222   9.177
  892SOL    HW1 3428   1.542   0.259   9.269
  892SOL    HW2 3429   1.475   0.153   9.165
  893SOL     OW 3430   0.614   0.122   7.565
  893SOL    HW1 3431   0.712   0.100   7.572
  893SOL    HW2 3432   0.583   0.105   7.472
  894SOL     OW 3433   0.781   0.264   9.197
  894SOL    HW1 3434   0.848   0.203   9.240
  894SOL    HW2 3435   0.708   0.283   9.262
  895SOL     OW 3436   0.888   1.514   8.643
  895SOL    HW1 3437   0.865   1.489   8.549
  895SOL    HW2 3438   0.949   1.445   8.682
  896SOL     OW 3439   1.351   0.590   8.881
  896SOL    HW1 3440   1.379   0.547   8.966
  896SOL    HW2 3441   1.376   0.686   8.882
  897SOL     OW 3442   0.803   1.402   8.372
  897SOL    HW1 3443   0.893   1.416   8.330
  897SOL    HW2 3444   0.732   1.404   8.301
  898SOL     OW 3445   0.922   0.503   8.347
  898SOL    HW1 3446   0.897   0.494   8.251
  898SOL    HW2 3447   0.970   0.421   8.378
  899SOL     OW 3448   0.539   0.064   7.960
  899SOL    HW1 3449   0.458   0.065   8.018
  899SOL    HW2 3450   0.542   0.147   7.905
  900SOL     OW 3451   1.434   1.188   7.489
  900SOL    HW1 3452   1.466   1.112   7.546
  900SOL    HW2 3453   1.342   1.215   7.519
  901SOL     OW 3454   0.297   0.035   7.619
  901SOL    HW1 3455   0.346   0.119   7.598
  901SOL    HW2 3456   0.359  -0.030   7.664
  902SOL     OW 3457   0.935   0.236   7.928
  902SOL    HW1 3458   0.887   0.277   7.850
  902SOL    HW2 3459   1.034   0.234   7.909
  903SOL     OW 3460   1.076   0.683   8.912
  903SOL    HW1 3461   0.996   0.622   8.915
  903SOL    HW2 3462   1.157   0.630   8.888
  904SOL     OW 3463   1.227   1.570   8.241
  904SOL    HW1 3464   1.248   1.644   8.176
  904SOL    HW2 3465   1.295   1.570   8.314
  905SOL     OW 3466   0.459   1.152   8.189
  905SOL    HW1 3467   0.388   1.125   8.254
  905SOL    HW2 3468   0.433   1.124   8.096
  906SOL     OW 3469   1.271   1.797   8.039
  906SOL    HW1 3470   1.315   1.861   7.975
  906SOL    HW2 3471   1.221   1.849   8.109
  907SOL     OW 3472   1.032   0.549   7.464
  907SOL    HW1 3473   0.991   0.631   7.425
  907SOL    HW2 3474   1.096   0.575   7.537
  908SOL     OW 3475   0.078   0.556   8.834
  908SOL    HW1 3476   0.170   0.555   8.793
  908SOL    HW2 3477   0.072   0.630   8.901
  909SOL     OW 3478   0.561   0.222   8.595
  909SOL    HW1 3479   0.599   0.138   8.632
  909SOL    HW2 3480   0.473   0.241   8.639
  910SOL     OW 3481   0.866   0.454   8.090
  910SOL    HW1 3482   0.834   0.526   8.028
  910SOL    HW2 3483   0.890   0.373   8.037
  911SOL     OW 3484   1.017   0.039   8.201
  911SOL    HW1 3485   0.945   0.044   8.132
  911SOL    HW2 3486   0.993  -0.030   8.270
  912SOL     OW 3487   1.429   1.173   8.315
  912SOL    HW1 3488   1.374   1.089   8.308
  912SOL    HW2 3489   1.455   1.202   8.223
  913SOL     OW 3490   1.466   0.590   8.440
  913SOL    HW1 3491   1.436   0.495   8.447
  913SOL    HW2 3492   1.539   0.606   8.506
  914SOL     OW 3493   1.857   0.833   7.825
  914SOL    HW1 3494   1.899   0.769   7.889
  914SOL    HW2 3495   1.819   0.782   7.747
  915SOL     OW 3496   0.488   1.385   7.622
  915SOL    HW1 3497   0.401   1.370   7.669
  915SOL    HW2 3498   0.471   1.411   7.527
  916SOL     OW 3499   1.664   1.280   8.105
  916SOL    HW1 3500   1.763   1.288   8.119
  916SOL    HW2 3501   1.619   1.364   8.136
  917SOL     OW 3502   1.390   0.575   7.526
  917SOL    HW1 3503   1.336   0.554   7.607
  917SOL    HW2 3504   1.481   0.534   7.535
  918SOL     OW 3505   0.527   0.256   7.776
  918SOL    HW1 3506   0.554   0.197   7.701
  918SOL    HW2 3507   0.527   0.351   7.745
  919SOL     OW 3508   1.754   1.223   9.036
  919SOL    HW1 3509   1.845   1.184   9.023
  919SOL    HW2 3510   1.762   1.319   9.060
  920SOL     OW 3511   1.064   1.347   8.788
  920SOL    HW1 3512   0.984   1.324   8.843
  920SOL    HW2 3513   1.147   1.321   8.837
  921SOL     OW 3514   1.592   1.629   9.073
  921SOL    HW1 3515   1.619   1.663   8.983
  921SOL    HW2 3516   1.671   1.591   9.119
  922SOL     OW 3517   1.111   1.195   8.548
  922SOL    HW1 3518   1.071   1.239   8.629
  922SOL    HW2 3519   1.070   1.232   8.465
  923SOL     OW 3520   1.638   1.099   8.527
  923SOL    HW1 3521   1.643   1.180   8.586
  923SOL    HW2 3522   1.552   1.101   8.476
  924SOL     OW 3523   0.915   0.089   8.850
  924SOL    HW1 3524   0.940   0.069   8.755
  924SOL    HW2 3525   0.987   0.145   8.892
  925SOL     OW 3526   0.980   1.116   9.167
  925SOL    HW1 3527   0.881   1.122   9.177
  925SOL    HW2 3528   1.003   1.036   9.111
  926SOL     OW 3529   0.705   1.050   7.816
  926SOL    HW1 3530   0.691   1.057   7.915
  926SOL    HW2 3531   0.789   0.999   7.798
  927SOL     OW 3532   0.410   0.813   8.699
  927SOL    HW1 3533   0.496   0.825   8.749
  927SOL    HW2 3534   0.368   0.726   8.726
  928SOL     OW 3535   1.274   0.386   8.710
  928SOL    HW1 3536   1.295   0.460   8.774
  928SOL    HW2 3537   1.185   0.403   8.667
  929SOL     OW 3538   0.064   1.564   8.779
  929SOL    HW1 3539   0.018   1.646   8.745
  929SOL    HW2 3540   0.162   1.583   8.788
  930SOL     OW 3541   0.367   1.100   7.949
  930SOL    HW1 3542   0.360   1.183   7.893
  930SOL    HW2 3543   0.371   1.020   7.889
  931SOL     OW 3544   0.566   0.537   8.313
  931SOL    HW1 3545   0.578   0.603   8.239
  931SOL    HW2 3546   0.612   0.571   8.396
  932SOL     OW 3547   1.252   1.348   7.836
  932SOL    HW1 3548   1.302   1.425   7.876
  932SOL    HW2 3549   1.157   1.350   7.868
  933SOL     OW 3550   1.272   1.445   8.590
  933SOL    HW1 3551   1.319   1.458   8.677
  933SOL    HW2 3552   1.206   1.371   8.599
  934SOL     OW 3553   1.582   0.639   7.920
  934SOL    HW1 3554   1.551   0.700   7.993
  934SOL    HW2 3555   1.632   0.691   7.851
  935SOL     OW 3556   0.354   1.510   8.777
  935SOL    HW1 3557   0.333   1.466   8.690
  935SOL    HW2 3558   0.451   1.536   8.780
  936SOL     OW 3559   0.402   0.751   9.046
  936SOL    HW1 3560   0.470   0.806   8.999
  936SOL    HW2 3561   0.442   0.663   9.073
  937SOL     OW 3562   1.587   0.779   9.118
  937SOL    HW1 3563   1.495   0.817   9.113
  937SOL    HW2 3564   1.647   0.826   9.053
  938SOL     OW 3565   1.013   0.105   9.218
  938SOL    HW1 3566   1.019   0.190   9.166
  938SOL    HW2 3567   1.045   0.029   9.161
  939SOL     OW 3568   0.504   0.050   9.188
  939SOL    HW1 3569   0.462  -0.007   9.118
  939SOL    HW2 3570   0.438   0.119   9.220
  940SOL     OW 3571   0.573   0.870   8.477
  940SOL    HW1 3572   0.617   0.959   8.468
  940SOL    HW2 3573   0.510   0.870   8.554
  941SOL     OW 3574   1.360   0.862   8.493
  941SOL    HW1 3575   1.285   0.862   8.427
  941SOL    HW2 3576   1.397   0.770   8.502
  942SOL     OW 3577   1.209   0.525   7.723
  942SOL    HW1 3578   1.222   0.441   7.777
  942SOL    HW2 3579   1.180   0.599   7.783
  943SOL     OW 3580   0.307   0.213   8.679
  943SOL    HW1 3581   0.284   0.250   8.769
  943SOL    HW2 3582   0.277   0.118   8.673
  944SOL     OW 3583   0.037   1.310   8.730
  944SOL    HW1 3584   0.090   1.261   8.798
  944SOL    HW2 3585   0.059   1.408   8.735
  945SOL     OW 3586   0.732   0.634   8.512
  945SOL    HW1 3587   0.791   0.608   8.436
  945SOL    HW2 3588   0.704   0.730   8.501
  946SOL     OW 3589   1.728   0.935   9.302
  946SOL    HW1 3590   1.682   0.928   9.213
  946SOL    HW2 3591   1.666   0.979   9.368
  947SOL     OW 3592   0.307   0.063   8.066
  947SOL    HW1 3593   0.296   0.157   8.099
  947SOL    HW2 3594   0.302   0.000   8.143
  948SOL     OW 3595   1.622   0.367   7.822
  948SOL    HW1 3596   1.624   0.291   7.886
  948SOL    HW2 3597   1.574   0.444   7.862
  949SOL     OW 3598   1.023   0.766   8.414
  949SOL    HW1 3599   1.038   0.787   8.510
  949SOL    HW2 3600   0.993   0.671   8.405
  950SOL     OW 3601   0.980   1.573   9.148
  950SOL    HW1 3602   0.960   1.617   9.060
  950SOL    HW2 3603   1.019   1.482   9.132
  951SOL     OW 3604   1.859   1.518   9.053
  951SOL    HW1 3605   1.873   1.545   8.958
  951SOL    HW2 3606   1.942   1.540   9.106
  952SOL     OW 3607   0.350   0.898   9.252
  952SOL    HW1 3608   0.426   0.942   9.300
  952SOL    HW2 3609   0.385   0.851   9.170
  953SOL     OW 3610   1.540   0.274   7.573
  953SOL    HW1 3611   1.479   0.199   7.596
  953SOL    HW2 3612   1.562   0.326   7.656
  954SOL     OW 3613   1.303   0.838   7.490
  954SOL    HW1 3614   1.337   0.745   7.505
  954SOL    HW2 3615   1.321   0.865   7.395
  955SOL     OW 3616   1.068   1.333   8.297
  955SOL    HW1 3617   1.075   1.249   8.242
  955SOL    HW2 3618   1.130   1.402   8.261
  956SOL     OW 3619   0.319   0.810   8.397
  956SOL    HW1 3620   0.412   0.846   8.402
  956SOL    HW2 3621   0.313   0.725   8.449
  957SOL     OW 3622   0.339   0.509   8.454
  957SOL    HW1 3623   0.287   0.426   8.437
  957SOL    HW2 3624   0.416   0.514   8.390
  958SOL     OW 3625   1.138   0.380   9.126
  958SOL    HW1 3626   1.093   0.443   9.190
  958SOL    HW2 3627   1.231   0.411   9.109
  959SOL     OW 3628   1.160   0.207   8.925
  959SOL    HW1 3629   1.160   0.271   9.002
  959SOL    HW2 3630   1.188   0.255   8.842
  960SOL     OW 3631   0.008   1.326   7.648
  960SOL    HW1 3632  -0.085   1.347   7.617
  960SOL    HW2 3633   0.018   1.227   7.661
  961SOL     OW 3634   0.088   1.801   8.375
  961SOL    HW1 3635   0.046   1.715   8.348
  961SOL    HW2 3636   0.182   1.804   8.341
  962SOL     OW 3637   0.504   1.568   8.358
  962SOL    HW1 3638   0.570   1.642   8.367
  962SOL    HW2 3639   0.548   1.489   8.316
  963SOL     OW 3640   1.002   0.796   8.686
  963SOL    HW1 3641   1.043   0.764   8.772
  963SOL    HW2 3642   0.906   0.769   8.683
  964SOL     OW 3643   0.040   0.544   8.562
  964SOL    HW1 3644   0.125   0.511   8.521
  964SOL    HW2 3645   0.053   0.559   8.660
  965SOL     OW 3646   0.189   0.520   9.170
  965SOL    HW1 3647   0.248   0.480   9.100
  965SOL    HW2 3648   0.131   0.591   9.129
  966SOL     OW 3649   1.369   0.950   9.108
  966SOL    HW1 3650   1.408   1.039   9.128
  966SOL    HW2 3651   1.379   0.930   9.011
  967SOL     OW 3652   0.815   0.572   7.773
  967SOL    HW1 3653   0.822   0.483   7.727
  967SOL    HW2 3654   0.721   0.606   7.765
  968SOL     OW 3655   1.657   0.604   8.654
  968SOL    HW1 3656   1.619   0.535   8.716
  968SOL    HW2 3657   1.739   0.568   8.610
  969SOL     OW 3658   0.252   1.564   9.192
  969SOL    HW1 3659   0.222   1.621   9.268
  969SOL    HW2 3660   0.245   1.467   9.218
  970SOL     OW 3661   0.671   0.464   8.717
  970SOL    HW1 3662   0.637   0.375   8.687
  970SOL    HW2 3663   0.697   0.518   8.637
  971SOL     OW 3664   0.930   1.678   8.913
  971SOL    HW1 3665   0.906   1.660   8.818
  971SOL    HW2 3666   0.960   1.772   8.923
  972SOL     OW 3667   0.473   0.500   7.639
  972SOL    HW1 3668   0.534   0.580   7.643
  972SOL    HW2 3669   0.378   0.531   7.646
  973SOL     OW 3670   0.159   1.137   8.914
  973SOL    HW1 3671   0.181   1.076   8.990
  973SOL    HW2 3672   0.169   1.088   8.828
  974SOL     OW 3673   1.347   1.059   8.682
  974SOL    HW1 3674   1.371   0.996   8.608
  974SOL    HW2 3675   1.257   1.099   8.664
  975SOL     OW 3676   1.302   0.855   7.757
  975SOL    HW1 3677   1.216   0.824   7.799
  975SOL    HW2 3678   1.298   0.841   7.658
  976SOL     OW 3679   1.252   1.731   8.576
  976SOL    HW1 3680   1.336   1.736   8.522
  976SOL    HW2 3681   1.229   1.635   8.594
  977SOL     OW 3682   0.083   1.258   8.470
  977SOL    HW1 3683   0.078   1.257   8.570
  977SOL    HW2 3684   0.000   1.217   8.432
  978SOL     OW 3685   0.688   1.662   9.164
  978SOL    HW1 3686   0.632   1.743   9.173
  978SOL    HW2 3687   0.740   1.666   9.078
  979SOL     OW 3688   1.726   0.135   7.971
  979SOL    HW1 3689   1.799   0.118   7.904
  979SOL    HW2 3690   1.695   0.048   8.009
  980SOL     OW 3691   0.130   1.794   9.299
  980SOL    HW1 3692   0.089   1.720   9.352
  980SOL    HW2 3693   0.194   1.845   9.357
  981SOL     OW 3694   1.280   0.927   8.120
  981SOL    HW1 3695   1.340   0.846   8.122
  981SOL    HW2 3696   1.320   0.996   8.060
  982SOL     OW 3697   0.830   1.273   8.870
  982SOL    HW1 3698   0.825   1.306   8.965
  982SOL    HW2 3699   0.744   1.292   8.824
  983SOL     OW 3700   0.672   1.616   7.602
  983SOL    HW1 3701   0.681   1.626   7.503
  983SOL    HW2 3702   0.632   1.527   7.623
  984SOL     OW 3703   1.650   1.720   8.842
  984SOL    HW1 3704   1.703   1.730   8.758
  984SOL    HW2 3705   1.623   1.810   8.876
  985SOL     OW 3706   1.841   0.175   8.411
  985SOL    HW1 3707   1.880   0.090   8.375
  985SOL    HW2 3708   1.743   0.177   8.392
  986SOL     OW 3709   0.263   0.326   8.168
  986SOL    HW1 3710   0.184   0.377   8.134
  986SOL    HW2 3711   0.254   0.311   8.266
  987SOL     OW 3712   1.194   1.612   7.479
  987SOL    HW1 3713   1.200   1.519   7.516
  987SOL    HW2 3714   1.135   1.612   7.399
  988SOL     OW 3715   0.822   1.002   8.820
  988SOL    HW1 3716   0.862   1.001   8.728
  988SOL    HW2 3717   0.832   1.094   8.860
  989SOL     OW 3718   0.916   0.910   7.739
  989SOL    HW1 3719   0.979   0.948   7.671
  989SOL    HW2 3720   0.956   0.827   7.778
  990SOL     OW 3721   0.372   1.288   8.938
  990SOL    HW1 3722   0.359   1.381   8.904
  990SOL    HW2 3723   0.288   1.236   8.925
  991SOL     OW 3724   1.614   1.292   8.737
  991SOL    HW1 3725   1.674   1.295   8.817
  991SOL    HW2 3726   1.539   1.356   8.750
  992SOL     OW 3727   1.039   1.098   8.144
  992SOL    HW1 3728   0.969   1.051   8.198
  992SOL    HW2 3729   1.098   1.030   8.101
  993SOL     OW 3730   1.014   0.236   8.419
  993SOL    HW1 3731   1.006   0.200   8.326
  993SOL    HW2 3732   1.012   0.160   8.484
  994SOL     OW 3733   0.590   1.487   7.939
  994SOL    HW1 3734   0.632   1.429   7.869
  994SOL    HW2 3735   0.546   1.566   7.895
  995SOL     OW 3736   1.709   0.385   8.829
  995SOL    HW1 3737   1.782   0.454   8.833
  995SOL    HW2 3738   1.737   0.310   8.770
  996SOL     OW 3739   0.255   1.348   7.738
  996SOL    HW1 3740   0.159   1.349   7.711
  996SOL    HW2 3741   0.267   1.401   7.822
  997SOL     OW 3742   0.105   1.013   9.174
  997SOL    HW1 3743   0.028   0.980   9.228
  997SOL    HW2 3744   0.190   0.983   9.216
  998SOL     OW 3745   0.672   0.203   8.937
  998SOL    HW1 3746   0.762   0.187   8.897
  998SOL    HW2 3747   0.680   0.208   9.036
  999SOL     OW 3748   0.075   0.345   7.481
  999SOL    HW1 3749  -0.017   0.317   7.452
  999SOL    HW2 3750   0.106   0.422   7.425
 1000SOL     OW 3751   1.440   0.856   8.846
 1000SOL    HW1 3752   1.383   0.908   8.783
 1000SOL    HW2 3753   1.536   0.868   8.822
 1001SOL     OW 3754   0.072   0.166   7.766
 1001SOL    HW1 3755   0.055   0.249   7.712
 1001SOL    HW2 3756   0.162   0.129   7.744
 1002SOL     OW 3757   1.183   1.335   7.567
 1002SOL    HW1 3758   1.084   1.324   7.569
 1002SOL    HW2 3759   1.217   1.350   7.660
 1003SOL     OW 3760   0.613   0.842   8.879
 1003SOL    HW1 3761   0.669   0.923   8.862
 1003SOL    HW2 3762   0.672   0.762   8.882
 1004SOL     OW 3763   1.493   1.767   8.407
 1004SOL    HW1 3764   1.526   1.831   8.338
 1004SOL    HW2 3765   1.559   1.761   8.482
 1005SOL     OW 3766   0.716   0.565   9.156
 1005SOL    HW1 3767   0.735   0.630   9.230
 1005SOL    HW2 3768   0.776   0.485   9.165
 1006SOL     OW 3769   1.450   1.220   9.081
 1006SOL    HW1 3770   1.441   1.210   9.180
 1006SOL    HW2 3771   1.546   1.213   9.055
 1007SOL     OW 3772   0.390   1.741   9.008
 1007SOL    HW1 3773   0.299   1.782   9.006
 1007SOL    HW2 3774   0.383   1.647   9.040
 1008SOL     OW 3775   1.674   0.883   8.702
 1008SOL    HW1 3776   1.647   0.794   8.665
 1008SOL    HW2 3777   1.675   0.951   8.629
 1009SOL     OW 3778   1.225   0.325   7.897
 1009SOL    HW1 3779   1.290   0.251   7.886
 1009SOL    HW2 3780   1.245   0.375   7.981
 1010SOL     OW 3781   0.594   0.745   8.100
 1010SOL    HW1 3782   0.644   0.830   8.081
 1010SOL    HW2 3783   0.506   0.747   8.052
 1011SOL     OW 3784   1.777   0.342   9.090
 1011SOL    HW1 3785   1.760   0.373   8.996
 1011SOL    HW2 3786   1.693   0.305   9.128
 1012SOL     OW 3787   1.730   0.934   8.965
 1012SOL    HW1 3788   1.768   1.025   8.980
 1012SOL    HW2 3789   1.722   0.917   8.866
 1013SOL     OW 3790   0.859   1.374   7.464
 1013SOL    HW1 3791   0.813   1.389   7.552
 1013SOL    HW2 3792   0.903   1.459   7.434
 1014SOL     OW 3793   0.661   1.790   8.401
 1014SOL    HW1 3794   0.615   1.878   8.388
 1014SOL    HW2 3795   0.760   1.802   8.394
 1015SOL     OW 3796   0.859   0.956   8.309
 1015SOL    HW1 3797   0.913   0.887   8.357
 1015SOL    HW2 3798   0.827   1.025   8.375
 1016SOL     OW 3799   1.083   0.984   7.535
 1016SOL    HW1 3800   1.060   1.037   7.453
 1016SOL    HW2 3801   1.164   0.928   7.516
 1017SOL     OW 3802   1.861   1.569   8.299
 1017SOL    HW1 3803   1.790   1.557   8.229
 1017SOL    HW2 3804   1.862   1.490   8.359
 1018SOL     OW 3805   0.221   1.314   9.292
 1018SOL    HW1 3806   0.156   1.241   9.271
 1018SOL    HW2 3807   0.225   1.328   9.390
 1019SOL     OW 3808   0.079   1.240   8.101
 1019SOL    HW1 3809   0.078   1.193   8.189
 1019SOL    HW2 3810   0.161   1.212   8.050
 1020SOL     OW 3811   0.672   1.391   9.072
 1020SOL    HW1 3812   0.594   1.341   9.110
 1020SOL    HW2 3813   0.669   1.486   9.103
 1021SOL     OW 3814   1.824   0.192   8.675
 1021SOL    HW1 3815   1.820   0.102   8.719
 1021SOL    HW2 3816   1.827   0.181   8.576
 1022SOL     OW 3817   0.428   0.424   7.968
 1022SOL    HW1 3818   0.458   0.352   7.906
 1022SOL    HW2 3819   0.389   0.384   8.051
 1023SOL     OW 3820   1.705   1.487   8.552
 1023SOL    HW1 3821   1.612   1.462   8.525
 1023SOL    HW2 3822   1.731   1.437   8.634
 1024SOL     OW 3823   0.317   0.547   8.728
 1024SOL    HW1 3824   0.355   0.488   8.800
 1024SOL    HW2 3825   0.357   0.521   8.640
 1025SOL     OW 3826   0.812   1.586   8.135
 1025SOL    HW1 3827   0.844   1.596   8.041
 1025SOL    HW2 3828   0.733   1.524   8.137
 1026SOL     OW 3829   1.424   0.214   8.560
 1026SOL    HW1 3830   1.476   0.149   8.615
 1026SOL    HW2 3831   1.375   0.277   8.621
 1027SOL     OW 3832   1.001   0.034   8.602
 1027SOL    HW1 3833   0.938  -0.038   8.571
 1027SOL    HW2 3834   1.094  -0.002   8.602
 1028SOL     OW 3835   0.770   1.330   7.749
 1028SOL    HW1 3836   0.724   1.243   7.766
 1028SOL    HW2 3837   0.861   1.327   7.790
 1029SOL     OW 3838   0.618   1.567   8.732
 1029SOL    HW1 3839   0.613   1.649   8.789
 1029SOL    HW2 3840   0.707   1.564   8.687
 1030SOL     OW 3841   1.352   0.052   7.616
 1030SOL    HW1 3842   1.387   0.011   7.532
 1030SOL    HW2 3843   1.262   0.014   7.636
 1031SOL     OW 3844   1.300   0.453   8.139
 1031SOL    HW1 3845   1.241   0.533   8.143
 1031SOL    HW2 3846   1.315   0.418   8.232
 1032SOL     OW 3847   1.593   0.221   8.330
 1032SOL    HW1 3848   1.509   0.220   8.384
 1032SOL    HW2 3849   1.595   0.304   8.274
 1033SOL     OW 3850   0.039   1.077   7.748
 1033SOL    HW1 3851   0.138   1.066   7.739
 1033SOL    HW2 3852  -0.001   0.991   7.780
 1034SOL     OW 3853   0.875   1.646   7.785
 1034SOL    HW1 3854   0.798   1.611   7.731
 1034SOL    HW2 3855   0.843   1.717   7.847
 1035SOL     OW 3856   0.230   0.628   9.423
 1035SOL    HW1 3857   0.137   0.626   9.460
 1035SOL    HW2 3858   0.231   0.589   9.331
 1036SOL     OW 3859   0.225   0.275  10.306
 1036SOL    HW1 3860   0.260   0.258  10.398
 1036SOL    HW2 3861   0.137   0.230  10.294
 1037SOL     OW 3862   0.019   0.368   9.957
 1037SOL    HW1 3863  -0.063   0.411   9.996
 1037SOL    HW2 3864  -0.009   0.295   9.894
 1038SOL     OW 3865   0.569   1.275  10.475
 1038SOL    HW1 3866   0.476   1.268  10.438
 1038SOL    HW2 3867   0.580   1.364  10.519
 1039SOL     OW 3868   1.555   1.511  10.013
 1039SOL    HW1 3869   1.498   1.495  10.094
 1039SOL    HW2 3870   1.496   1.521   9.933
 1040SOL     OW 3871   1.135   0.703  10.027
 1040SOL    HW1 3872   1.192   0.781  10.002
 1040SOL    HW2 3873   1.075   0.729  10.103
 1041SOL     OW 3874   1.755   0.607   9.541
 1041SOL    HW1 3875   1.743   0.594   9.442
 1041SOL    HW2 3876   1.725   0.526   9.590
 1042SOL     OW 3877   0.768   1.144  10.333
 1042SOL    HW1 3878   0.690   1.161  10.393
 1042SOL    HW2 3879   0.802   1.231  10.297
 1043SOL     OW 3880   0.850   0.798  11.133
 1043SOL    HW1 3881   0.846   0.874  11.198
 1043SOL    HW2 3882   0.872   0.834  11.042
 1044SOL     OW 3883   0.685   1.012   9.975
 1044SOL    HW1 3884   0.754   0.996  10.045
 1044SOL    HW2 3885   0.612   1.069  10.013
 1045SOL     OW 3886   0.686   1.161  11.113
 1045SOL    HW1 3887   0.746   1.240  11.127
 1045SOL    HW2 3888   0.600   1.192  11.072
 1046SOL     OW 3889   0.335   1.435  10.371
 1046SOL    HW1 3890   0.257   1.404  10.318
 1046SOL    HW2 3891   0.393   1.493  10.314
 1047SOL     OW 3892   1.460   1.505  10.649
 1047SOL    HW1 3893   1.484   1.599  10.675
 1047SOL    HW2 3894   1.444   1.451  10.731
 1048SOL     OW 3895   0.438   0.392  10.809
 1048SOL    HW1 3896   0.520   0.336  10.818
 1048SOL    HW2 3897   0.357   0.334  10.813
 1049SOL     OW 3898   1.603   0.447  10.047
 1049SOL    HW1 3899   1.529   0.493   9.997
 1049SOL    HW2 3900   1.654   0.515  10.100
 1050SOL     OW 3901   0.231   1.713   9.793
 1050SOL    HW1 3902   0.265   1.790   9.847
 1050SOL    HW2 3903   0.275   1.713   9.703
 1051SOL     OW 3904   1.127   1.341  11.000
 1051SOL    HW1 3905   1.174   1.341  11.088
 1051SOL    HW2 3906   1.079   1.254  10.989
 1052SOL     OW 3907   0.230   1.434   9.848
 1052SOL    HW1 3908   0.204   1.530   9.848
 1052SOL    HW2 3909   0.159   1.380   9.893
 1053SOL     OW 3910   0.240   1.091  10.196
 1053SOL    HW1 3911   0.254   1.007  10.248
 1053SOL    HW2 3912   0.185   1.155  10.251
 1054SOL     OW 3913   0.620   1.786  10.749
 1054SOL    HW1 3914   0.528   1.769  10.784
 1054SOL    HW2 3915   0.648   1.878  10.775
 1055SOL     OW 3916   0.606   0.964   9.433
 1055SOL    HW1 3917   0.613   1.048   9.379
 1055SOL    HW2 3918   0.652   0.977   9.521
 1056SOL     OW 3919   1.594   0.114  10.790
 1056SOL    HW1 3920   1.576   0.181  10.718
 1056SOL    HW2 3921   1.591   0.160  10.879
 1057SOL     OW 3922   0.122   0.643   9.873
 1057SOL    HW1 3923   0.077   0.555   9.890
 1057SOL    HW2 3924   0.121   0.697   9.957
 1058SOL     OW 3925   0.027   1.596   9.427
 1058SOL    HW1 3926   0.008   1.500   9.448
 1058SOL    HW2 3927  -0.006   1.654   9.502
 1059SOL     OW 3928   1.689   0.922   9.922
 1059SOL    HW1 3929   1.784   0.893   9.930
 1059SOL    HW2 3930   1.681   0.987   9.847
 1060SOL     OW 3931   1.641   1.108   9.742
 1060SOL    HW1 3932   1.727   1.110   9.690
 1060SOL    HW2 3933   1.655   1.155   9.830
 1061SOL     OW 3934   0.113   0.737  10.907
 1061SOL    HW1 3935   0.201   0.724  10.952
 1061SOL    HW2 3936   0.100   0.834  10.885
 1062SOL     OW 3937   0.613   1.365  10.036
 1062SOL    HW1 3938   0.564   1.278  10.045
 1062SOL    HW2 3939   0.590   1.408   9.949
 1063SOL     OW 3940   1.293   1.228  10.733
 1063SOL    HW1 3941   1.330   1.155  10.675
 1063SOL    HW2 3942   1.345   1.233  10.818
 1064SOL     OW 3943   0.809   0.004   9.812
 1064SOL    HW1 3944   0.849   0.095   9.803
 1064SOL    HW2 3945   0.709   0.012   9.818
 1065SOL     OW 3946   0.197   0.976  10.574
 1065SOL    HW1 3947   0.286   0.931  10.560
 1065SOL    HW2 3948   0.124   0.911  10.555
 1066SOL     OW 3949   1.525   0.999   9.500
 1066SOL    HW1 3950   1.462   0.923   9.513
 1066SOL    HW2 3951   1.573   1.017   9.586
 1067SOL     OW 3952   1.187   1.792  10.926
 1067SOL    HW1 3953   1.211   1.852  10.850
 1067SOL    HW2 3954   1.194   1.697  10.896
 1068SOL     OW 3955   0.317   0.251  11.111
 1068SOL    HW1 3956   0.388   0.322  11.117
 1068SOL    HW2 3957   0.229   0.290  11.139
 1069SOL     OW 3958   1.466   1.417  10.263
 1069SOL    HW1 3959   1.407   1.423  10.343
 1069SOL    HW2 3960   1.451   1.329  10.217
 1070SOL     OW 3961   1.667   1.714   9.882
 1070SOL    HW1 3962   1.626   1.691   9.794
 1070SOL    HW2 3963   1.649   1.640   9.947
 1071SOL     OW 3964   0.598   0.729   9.580
 1071SOL    HW1 3965   0.622   0.798   9.512
 1071SOL    HW2 3966   0.520   0.762   9.634
 1072SOL     OW 3967   1.281   0.345  10.254
 1072SOL    HW1 3968   1.195   0.295  10.241
 1072SOL    HW2 3969   1.343   0.291  10.310
 1073SOL     OW 3970   1.576   1.662   9.617
 1073SOL    HW1 3971   1.665   1.708   9.620
 1073SOL    HW2 3972   1.555   1.638   9.522
 1074SOL     OW 3973   0.807   0.605  10.775
 1074SOL    HW1 3974   0.760   0.602  10.864
 1074SOL    HW2 3975   0.756   0.550  10.709
 1075SOL     OW 3976   1.394   0.469  10.984
 1075SOL    HW1 3977   1.374   0.512  11.072
 1075SOL    HW2 3978   1.472   0.407  10.993
 1076SOL     OW 3979   0.973   0.890  10.882
 1076SOL    HW1 3980   1.019   0.806  10.853
 1076SOL    HW2 3981   0.917   0.924  10.807
 1077SOL     OW 3982   0.991   0.410  10.552
 1077SOL    HW1 3983   0.914   0.444  10.606
 1077SOL    HW2 3984   0.957   0.359  10.473
 1078SOL     OW 3985   1.041   0.701   9.739
 1078SOL    HW1 3986   1.067   0.697   9.835
 1078SOL    HW2 3987   0.956   0.650   9.725
 1079SOL     OW 3988   0.076   0.811  10.099
 1079SOL    HW1 3989   0.175   0.799  10.108
 1079SOL    HW2 3990   0.052   0.906  10.120
 1080SOL     OW 3991   0.130   1.821  10.881
 1080SOL    HW1 3992   0.120   1.806  10.980
 1080SOL    HW2 3993   0.044   1.857  10.845
 1081SOL     OW 3994   0.865   0.348   9.505
 1081SOL    HW1 3995   0.924   0.411   9.456
 1081SOL    HW2 3996   0.884   0.254   9.476
 1082SOL     OW 3997   1.719   0.585  11.141
 1082SOL    HW1 3998   1.693   0.674  11.105
 1082SOL    HW2 3999   1.717   0.517  11.068
 1083SOL     OW 4000   1.362   1.144   9.855
 1083SOL    HW1 4001   1.445   1.115   9.807
 1083SOL    HW2 4002   1.313   1.211   9.799
 1084SOL     OW 4003   0.550   0.196  10.195
 1084SOL    HW1 4004   0.545   0.191  10.295
 1084SOL    HW2 4005   0.552   0.292  10.166
 1085SOL     OW 4006   1.008   1.456   9.787
 1085SOL    HW1 4007   0.962   1.528   9.735
 1085SOL    HW2 4008   1.004   1.476   9.885
 1086SOL     OW 4009   0.351   1.801  10.163
 1086SOL    HW1 4010   0.401   1.715  10.169
 1086SOL    HW2 4011   0.416   1.878  10.160
 1087SOL     OW 4012   1.795   1.066  10.183
 1087SOL    HW1 4013   1.733   1.051  10.107
 1087SOL    HW2 4014   1.743   1.077  10.268
 1088SOL     OW 4015   1.227   1.550  10.816
 1088SOL    HW1 4016   1.233   1.473  10.880
 1088SOL    HW2 4017   1.175   1.524  10.736
 1089SOL     OW 4018   0.321   0.943   9.552
 1089SOL    HW1 4019   0.403   0.982   9.510
 1089SOL    HW2 4020   0.294   0.861   9.503
 1090SOL     OW 4021   1.458   0.735  10.038
 1090SOL    HW1 4022   1.453   0.670  10.113
 1090SOL    HW2 4023   1.538   0.794  10.051
 1091SOL     OW 4024   0.461   1.266  11.037
 1091SOL    HW1 4025   0.411   1.267  10.951
 1091SOL    HW2 4026   0.398   1.248  11.113
 1092SOL     OW 4027   1.111   1.776   9.547
 1092SOL    HW1 4028   1.051   1.714   9.597
 1092SOL    HW2 4029   1.142   1.732   9.462
 1093SOL     OW 4030   0.202   0.285  10.808
 1093SOL    HW1 4031   0.122   0.345  10.795
 1093SOL    HW2 4032   0.192   0.236  10.894
 1094SOL     OW 4033   1.632   1.377   9.391
 1094SOL    HW1 4034   1.600   1.471   9.381
 1094SOL    HW2 4035   1.556   1.314   9.379
 1095SOL     OW 4036   0.464   1.743   9.633
 1095SOL    HW1 4037   0.497   1.782   9.719
 1095SOL    HW2 4038   0.540   1.736   9.568
 1096SOL     OW 4039   1.400   0.107   9.736
 1096SOL    HW1 4040   1.376   0.070   9.646
 1096SOL    HW2 4041   1.499   0.123   9.740
 1097SOL     OW 4042   0.249   1.785  10.551
 1097SOL    HW1 4043   0.306   1.720  10.601
 1097SOL    HW2 4044   0.233   1.752  10.458
 1098SOL     OW 4045   0.940   1.698  10.214
 1098SOL    HW1 4046   1.020   1.641  10.235
 1098SOL    HW2 4047   0.891   1.658  10.137
 1099SOL     OW 4048   0.382   0.700   9.790
 1099SOL    HW1 4049   0.427   0.610   9.787
 1099SOL    HW2 4050   0.288   0.689   9.823
 1100SOL     OW 4051   1.547   0.222  11.039
 1100SOL    HW1 4052   1.542   0.259  11.131
 1100SOL    HW2 4053   1.475   0.153  11.027
 1101SOL     OW 4054   0.614   0.122   9.427
 1101SOL    HW1 4055   0.712   0.100   9.434
 1101SOL    HW2 4056   0.583   0.105   9.334
 1102SOL     OW 4057   0.781   0.264  11.059
 1102SOL    HW1 4058   0.848   0.203  11.102
 1102SOL    HW2 4059   0.708   0.283  11.124
 1103SOL     OW 4060   0.888   1.514  10.505
 1103SOL    HW1 4061   0.865   1.489  10.411
 1103SOL    HW2 4062   0.949   1.445  10.544
 1104SOL     OW 4063   1.351   0.590  10.743
 1104SOL    HW1 4064   1.379   0.547  10.828
 1104SOL    HW2 4065   1.376   0.686  10.744
 1105SOL     OW 4066   0.803   1.402  10.234
 1105SOL    HW1 4067   0.893   1.416  10.192
 1105SOL    HW2 4068   0.732   1.404  10.163
 1106SOL     OW 4069   0.922   0.503  10.209
 1106SOL    HW1 4070   0.897   0.494  10.113
 1106SOL    HW2 4071   0.970   0.421  10.240
 1107SOL     OW 4072   0.539   0.064   9.822
 1107SOL    HW1 4073   0.458   0.065   9.880
 1107SOL    HW2 4074   0.542   0.147   9.767
 1108SOL     OW 4075   1.434   1.188   9.351
 1108SOL    HW1 4076   1.466   1.112   9.408
 1108SOL    HW2 4077   1.342   1.215   9.381
 1109SOL     OW 4078   0.297   0.035   9.481
 1109SOL    HW1 4079   0.346   0.119   9.460
 1109SOL    HW2 4080   0.359  -0.030   9.526
 1110SOL     OW 4081   0.935   0.236   9.790
 1110SOL    HW1 4082   0.887   0.277   9.712
 1110SOL    HW2 4083   1.034   0.234   9.771
 1111SOL     OW 4084   1.076   0.683  10.774
 1111SOL    HW1 4085   0.996   0.622  10.777
 1111SOL    HW2 4086   1.157   0.630  10.750
 1112SOL     OW 4087   1.227   1.570  10.103
 1112SOL    HW1 4088   1.248   1.644  10.038
 1112SOL    HW2 4089   1.295   1.570  10.176
 1113SOL     OW 4090   0.459   1.152  10.051
 1113SOL    HW1 4091   0.388   1.125  10.116
 1113SOL    HW2 4092   0.433   1.124   9.958
 1114SOL     OW 4093   1.271   1.797   9.901
 1114SOL    HW1 4094   1.315   1.861   9.837
 1114SOL    HW2 4095   1.221   1.849   9.971
 1115SOL     OW 4096   1.032   0.549   9.326
 1115SOL    HW1 4097   0.991   0.631   9.287
 1115SOL    HW2 4098   1.096   0.575   9.399
 1116SOL     OW 4099   0.078   0.556  10.696
 1116SOL    HW1 4100   0.170   0.555  10.655
 1116SOL    HW2 4101   0.072   0.630  10.763
 1117SOL     OW 4102   0.561   0.222  10.457
 1117SOL    HW1 4103   0.599   0.138  10.494
 1117SOL    HW2 4104   0.473   0.241  10.501
 1118SOL     OW 4105   0.866   0.454   9.952
 1118SOL    HW1 4106   0.834   0.526   9.890
 1118SOL    HW2 4107   0.890   0.373   9.899
 1119SOL     OW 4108   1.017   0.039  10.063
 1119SOL    HW1 4109   0.945   0.044   9.994
 1119SOL    HW2 4110   0.993  -0.030  10.132
 1120SOL     OW 4111   1.429   1.173  10.177
 1120SOL    HW1 4112   1.374   1.089  10.170
 1120SOL    HW2 4113   1.455   1.202  10.085
 1121SOL     OW 4114   1.466   0.590  10.302
 1121SOL    HW1 4115   1.436   0.495  10.309
 1121SOL    HW2 4116   1.539   0.606  10.368
 1122SOL     OW 4117   1.857   0.833   9.687
 1122SOL    HW1 4118   1.899   0.769   9.751
 1122SOL    HW2 4119   1.819   0.782   9.609
 1123SOL     OW 4120   0.488   1.385   9.484
 1123SOL    HW1 4121   0.401   1.370   9.531
 1123SOL    HW2 4122   0.471   1.411   9.389
 1124SOL     OW 4123   1.664   1.280   9.967
 1124SOL    HW1 4124   1.763   1.288   9.981
 1124SOL    HW2 4125   1.619   1.364   9.998
 1125SOL     OW 4126   1.390   0.575   9.388
 1125SOL    HW1 4127   1.336   0.554   9.469
 1125SOL    HW2 4128   1.481   0.534   9.397
 1126SOL     OW 4129   0.527   0.256   9.638
 1126SOL    HW1 4130   0.554   0.197   9.563
 1126SOL    HW2 4131   0.527   0.351   9.607
 1127SOL     OW 4132   1.754   1.223  10.898
 1127SOL    HW1 4133   1.845   1.184  10.885
 1127SOL    HW2 4134   1.762   1.319  10.922
 1128SOL     OW 4135   1.064   1.347  10.650
 1128SOL    HW1 4136   0.984   1.324  10.705
 1128SOL    HW2 4137   1.147   1.321  10.699
 1129SOL     OW 4138   1.592   1.629  10.935
 1129SOL    HW1 4139   1.619   1.663  10.845
 1129SOL    HW2 4140   1.671   1.591  10.981
 1130SOL     OW 4141   1.111   1.195  10.410
 1130SOL    HW1 4142   1.071   1.239  10.491
 1130SOL    HW2 4143   1.070   1.232  10.327
 1131SOL     OW 4144   1.638   1.099  10.389
 1131SOL    HW1 4145   1.643   1.180  10.448
 1131SOL    HW2 4146   1.552   1.101  10.338
 1132SOL     OW 4147   0.915   0.089  10.712
 1132SOL    HW1 4148   0.940   0.069  10.617
 1132SOL    HW2 4149   0.987   0.145  10.754
 1133SOL     OW 4150   0.980   1.116  11.029
 1133SOL    HW1 4151   0.881   1.122  11.039
 1133SOL    HW2 4152   1.003   1.036  10.973
 1134SOL     OW 4153   0.705   1.050   9.678
 1134SOL    HW1 4154   0.691   1.057   9.777
 1134SOL    HW2 4155   0.789   0.999   9.660
 1135SOL     OW 4156   0.410   0.813  10.561
 1135SOL    HW1 4157   0.496   0.825  10.611
 1135SOL    HW2 4158   0.368   0.726  10.588
 1136SOL     OW 4159   1.274   0.386  10.572
 1136SOL    HW1 4160   1.295   0.460  10.636
 1136SOL    HW2 4161   1.185   0.403  10.529
 1137SOL     OW 4162   0.064   1.564  10.641
 1137SOL    HW1 4163   0.018   1.646  10.607
 1137SOL    HW2 4164   0.162   1.583  10.650
 1138SOL     OW 4165   0.367   1.100   9.811
 1138SOL    HW1 4166   0.360   1.183   9.755
 1138SOL    HW2 4167   0.371   1.020   9.751
 1139SOL     OW 4168   0.566   0.537  10.175
 1139SOL    HW1 4169   0.578   0.603  10.101
 1139SOL    HW2 4170   0.612   0.571  10.258
 1140SOL     OW 4171   1.252   1.348   9.698
 1140SOL    HW1 4172   1.302   1.425   9.738
 1140SOL    HW2 4173   1.157   1.350   9.730
 1141SOL     OW 4174   1.272   1.445  10.452
 1141SOL    HW1 4175   1.319   1.458  10.539
 1141SOL    HW2 4176   1.206   1.371  10.461
 1142SOL     OW 4177   1.582   0.639   9.782
 1142SOL    HW1 4178   1.551   0.700   9.855
 1142SOL    HW2 4179   1.632   0.691   9.713
 1143SOL     OW 4180   0.354   1.510  10.639
 1143SOL    HW1 4181   0.333   1.466  10.552
 1143SOL    HW2 4182   0.451   1.536  10.642
 1144SOL     OW 4183   0.402   0.751  10.908
 1144SOL    HW1 4184   0.470   0.806  10.861
 1144SOL    HW2 4185   0.442   0.663  10.935
 1145SOL     OW 4186   1.587   0.779  10.980
 1145SOL    HW1 4187   1.495   0.817  10.975
 1145SOL    HW2 4188   1.647   0.826  10.915
 1146SOL     OW 4189   1.013   0.105  11.080
 1146SOL    HW1 4190   1.019   0.190  11.028
 1146SOL    HW2 4191   1.045   0.029  11.023
 1147SOL     OW 4192   0.504   0.050  11.050
 1147SOL    HW1 4193   0.462  -0.007  10.980
 1147SOL    HW2 4194   0.438   0.119  11.082
 1148SOL     OW 4195   0.573   0.870  10.339
 1148SOL    HW1 4196   0.617   0.959  10.330
 1148SOL    HW2 4197   0.510   0.870  10.416
 1149SOL     OW 4198   1.360   0.862  10.355
 1149SOL    HW1 4199   1.285   0.862  10.289
 1149SOL    HW2 4200   1.397   0.770  10.364
 1150SOL     OW 4201   1.209   0.525   9.585
 1150SOL    HW1 4202   1.222   0.441   9.639
 1150SOL    HW2 4203   1.180   0.599   9.645
 1151SOL     OW 4204   0.307   0.213  10.541
 1151SOL    HW1 4205   0.284   0.250  10.631
 1151SOL    HW2 4206   0.277   0.118  10.535
 1152SOL     OW 4207   0.037   1.310  10.592
 1152SOL    HW1 4208   0.090   1.261  10.660
 1152SOL    HW2 4209   0.059   1.408  10.597
 1153SOL     OW 4210   0.732   0.634  10.374
 1153SOL    HW1 4211   0.791   0.608  10.298
 1153SOL    HW2 4212   0.704   0.730  10.363
 1154SOL     OW 4213   1.728   0.935  11.164
 1154SOL    HW1 4214   1.682   0.928  11.075
 1154SOL    HW2 4215   1.666   0.979  11.230
 1155SOL     OW 4216   0.307   0.063   9.928
 1155SOL    HW1 4217   0.296   0.157   9.961
 1155SOL    HW2 4218   0.302   0.000  10.005
 1156SOL     OW 4219   1.622   0.367   9.684
 1156SOL    HW1 4220   1.624   0.291   9.748
 1156SOL    HW2 4221   1.574   0.444   9.724
 1157SOL     OW 4222   1.023   0.766  10.276
 1157SOL    HW1 4223   1.038   0.787  10.372
 1157SOL    HW2 4224   0.993   0.671  10.267
 1158SOL     OW 4225   0.980   1.573  11.010
 1158SOL    HW1 4226   0.960   1.617  10.922
 1158SOL    HW2 4227   1.019   1.482  10.994
 1159SOL     OW 4228   1.859   1.518  10.915
 1159SOL    HW1 4229   1.873   1.545  10.820
 1159SOL    HW2 4230   1.942   1.540  10.968
 1160SOL     OW 4231   0.350   0.898  11.114
 1160SOL    HW1 4232   0.426   0.942  11.162
 1160SOL    HW2 4233   0.385   0.851  11.032
 1161SOL     OW 4234   1.540   0.274   9.435
 1161SOL    HW1 4235   1.479   0.199   9.458
 1161SOL    HW2 4236   1.562   0.326   9.518
 1162SOL     OW 4237   1.303   0.838   9.352
 1162SOL    HW1 4238   1.337   0.745   9.367
 1162SOL    HW2 4239   1.321   0.865   9.257
 1163SOL     OW 4240   1.068   1.333  10.159
 1163SOL    HW1 4241   1.075   1.249  10.104
 1163SOL    HW2 4242   1.130   1.402  10.123
 1164SOL     OW 4243   0.319   0.810  10.259
 1164SOL    HW1 4244   0.412   0.846  10.264
 1164SOL    HW2 4245   0.313   0.725  10.311
 1165SOL     OW 4246   0.339   0.509  10.316
 1165SOL    HW1 4247   0.287   0.426  10.299
 1165SOL    HW2 4248   0.416   0.514  10.252
 1166SOL     OW 4249   1.138   0.380  10.988
 1166SOL    HW1 4250   1.093   0.443  11.052
 1166SOL    HW2 4251   1.231   0.411  10.971
 1167SOL     OW 4252   1.160   0.207  10.787
 1167SOL    HW1 4253   1.160   0.271  10.864
 1167SOL    HW2 4254   1.188   0.255  10.704
 1168SOL     OW 4255   0.008   1.326   9.510
 1168SOL    HW1 4256  -0.085   1.347   9.479
 1168SOL    HW2 4257   0.018   1.227   9.523
 1169SOL     OW 4258   0.088   1.801  10.237
 1169SOL    HW1 4259   0.046   1.715  10.210
 1169SOL    HW2 4260   0.182   1.804  10.203
 1170SOL     OW 4261   0.504   1.568  10.220
 1170SOL    HW1 4262   0.570   1.642  10.229
 1170SOL    HW2 4263   0.548   1.489  10.178
 1171SOL     OW 4264   1.002   0.796  10.548
 1171SOL    HW1 4265   1.043   0.764  10.634
 1171SOL    HW2 4266   0.906   0.769  10.545
 1172SOL     OW 4267   0.040   0.544  10.424
 1172SOL    HW1 4268   0.125   0.511  10.383
 1172SOL    HW2 4269   0.053   0.559  10.522
 1173SOL     OW 4270   0.189   0.520  11.032
 1173SOL    HW1 4271   0.248   0.480  10.962
 1173SOL    HW2 4272   0.131   0.591  10.991
 1174SOL     OW 4273   1.369   0.950  10.970
 1174SOL    HW1 4274   1.408   1.039  10.990
 1174SOL    HW2 4275   1.379   0.930  10.873
 1175SOL     OW 4276   0.815   0.572   9.635
 1175SOL    HW1 4277   0.822   0.483   9.589
 1175SOL    HW2 4278   0.721   0.606   9.627
 1176SOL     OW 4279   1.657   0.604  10.516
 1176SOL    HW1 4280   1.619   0.535  10.578
 1176SOL    HW2 4281   1.739   0.568  10.472
 1177SOL     OW 4282   0.252   1.564  11.054
 1177SOL    HW1 4283   0.222   1.621  11.130
 1177SOL    HW2 4284   0.245   1.467  11.080
 1178SOL     OW 4285   0.671   0.464  10.579
 1178SOL    HW1 4286   0.637   0.375  10.549
 1178SOL    HW2 4287   0.697   0.518  10.499
 1179SOL     OW 4288   0.930   1.678  10.775
 1179SOL    HW1 4289   0.906   1.660  10.680
 1179SOL    HW2 4290   0.960   1.772  10.785
 1180SOL     OW 4291   0.473   0.500   9.501
 1180SOL    HW1 4292   0.534   0.580   9.505
 1180SOL    HW2 4293   0.378   0.531   9.508
 1181SOL     OW 4294   0.159   1.137  10.776
 1181SOL    HW1 4295   0.181   1.076  10.852
 1181SOL    HW2 4296   0.169   1.088  10.690
 1182SOL     OW 4297   1.347   1.059  10.544
 1182SOL    HW1 4298   1.371   0.996  10.470
 1182SOL    HW2 4299   1.257   1.099  10.526
 1183SOL     OW 4300   1.302   0.855   9.619
 1183SOL    HW1 4301   1.216   0.824   9.661
 1183SOL    HW2 4302   1.298   0.841   9.520
 1184SOL     OW 4303   1.252   1.731  10.438
 1184SOL    HW1 4304   1.336   1.736  10.384
 1184SOL    HW2 4305   1.229   1.635  10.456
 1185SOL     OW 4306   0.083   1.258  10.332
 1185SOL    HW1 4307   0.078   1.257  10.432
 1185SOL    HW2 4308   0.000   1.217  10.294
 1186SOL     OW 4309   0.688   1.662  11.026
 1186SOL    HW1 4310   0.632   1.743  11.035
 1186SOL    HW2 4311   0.740   1.666  10.940
 1187SOL     OW 4312   1.726   0.135   9.833
 1187SOL    HW1 4313   1.799   0.118   9.766
 1187SOL    HW2 4314   1.695   0.048   9.871
 1188SOL     OW 4315   1.388   1.573   9.787
 1188SOL    HW1 4316   1.455   1.585   9.713
 1188SOL    HW2 4317   1.348   1.662   9.810
 1189SOL     OW 4318   0.130   1.794  11.161
 1189SOL    HW1 4319   0.089   1.720  11.214
 1189SOL    HW2 4320   0.194   1.845  11.219
 1190SOL     OW 4321   1.280   0.927   9.982
 1190SOL    HW1 4322   1.340   0.846   9.984
 1190SOL    HW2 4323   1.320   0.996   9.922
 1191SOL     OW 4324   0.830   1.273  10.732
 1191SOL    HW1 4325   0.825   1.306  10.827
 1191SOL    HW2 4326   0.744   1.292  10.686
 1192SOL     OW 4327   0.672   1.616   9.464
 1192SOL    HW1 4328   0.681   1.626   9.365
 1192SOL    HW2 4329   0.632   1.527   9.485
 1193SOL     OW 4330   1.650   1.720  10.704
 1193SOL    HW1 4331   1.703   1.730  10.620
 1193SOL    HW2 4332   1.623   1.810  10.738
 1194SOL     OW 4333   1.841   0.175  10.273
 1194SOL    HW1 4334   1.880   0.090  10.237
 1194SOL    HW2 4335   1.743   0.177  10.254
 1195SOL     OW 4336   0.263   0.326  10.030
 1195SOL    HW1 4337   0.184   0.377   9.996
 1195SOL    HW2 4338   0.254   0.311  10.128
 1196SOL     OW 4339   1.194   1.612   9.341
 1196SOL    HW1 4340   1.200   1.519   9.378
 1196SOL    HW2 4341   1.135   1.612   9.261
 1197SOL     OW 4342   0.822   1.002  10.682
 1197SOL    HW1 4343   0.862   1.001  10.590
 1197SOL    HW2 4344   0.832   1.094  10.722
 1198SOL     OW 4345   0.916   0.910   9.601
 1198SOL    HW1 4346   0.979   0.948   9.533
 1198SOL    HW2 4347   0.956   0.827   9.640
 1199SOL     OW 4348   1.504   1.607   9.354
 1199SOL    HW1 4349   1.412   1.644   9.361
 1199SOL    HW2 4350   1.542   1.627   9.264
 1200SOL     OW 4351   0.372   1.288  10.800
 1200SOL    HW1 4352   0.359   1.381  10.766
 1200SOL    HW2 4353   0.288   1.236  10.787
 1201SOL     OW 4354   1.614   1.292  10.599
 1201SOL    HW1 4355   1.674   1.295  10.679
 1201SOL    HW2 4356   1.539   1.356  10.612
 1202SOL     OW 4357   1.039   1.098  10.006
 1202SOL    HW1 4358   0.969   1.051  10.060
 1202SOL    HW2 4359   1.098   1.030   9.963
 1203SOL     OW 4360   1.014   0.236  10.281
 1203SOL    HW1 4361   1.006   0.200  10.188
 1203SOL    HW2 4362   1.012   0.160  10.346
 1204SOL     OW 4363   0.590   1.487   9.801
 1204SOL    HW1 4364   0.632   1.429   9.731
 1204SOL    HW2 4365   0.546   1.566   9.757
 1205SOL     OW 4366   1.709   0.385  10.691
 1205SOL    HW1 4367   1.782   0.454  10.695
 1205SOL    HW2 4368   1.737   0.310  10.632
 1206SOL     OW 4369   0.255   1.348   9.600
 1206SOL    HW1 4370   0.159   1.349   9.573
 1206SOL    HW2 4371   0.267   1.401   9.684
 1207SOL     OW 4372   0.105   1.013  11.036
 1207SOL    HW1 4373   0.028   0.980  11.090
 1207SOL    HW2 4374   0.190   0.983  11.078
 1208SOL     OW 4375   0.672   0.203  10.799
 1208SOL    HW1 4376   0.762   0.187  10.759
 1208SOL    HW2 4377   0.680   0.208  10.898
 1209SOL     OW 4378   0.075   0.345   9.343
 1209SOL    HW1 4379  -0.017   0.317   9.314
 1209SOL    HW2 4380   0.106   0.422   9.287
 1210SOL     OW 4381   1.440   0.856  10.708
 1210SOL    HW1 4382   1.383   0.908  10.645
 1210SOL    HW2 4383   1.536   0.868  10.684
 1211SOL     OW 4384   0.072   0.166   9.628
 1211SOL    HW1 4385   0.055   0.249   9.574
 1211SOL    HW2 4386   0.162   0.129   9.606
 1212SOL     OW 4387   1.183   1.335   9.429
 1212SOL    HW1 4388   1.084   1.324   9.431
 1212SOL    HW2 4389   1.217   1.350   9.522
 1213SOL     OW 4390   0.613   0.842  10.741
 1213SOL    HW1 4391   0.669   0.923  10.724
 1213SOL    HW2 4392   0.672   0.762  10.744
 1214SOL     OW 4393   1.493   1.767  10.269
 1214SOL    HW1 4394   1.526   1.831  10.200
 1214SOL    HW2 4395   1.559   1.761  10.344
 1215SOL     OW 4396   0.716   0.565  11.018
 1215SOL    HW1 4397   0.735   0.630  11.092
 1215SOL    HW2 4398   0.776   0.485  11.027
 1216SOL     OW 4399   1.450   1.220  10.943
 1216SOL    HW1 4400   1.441   1.210  11.042
 1216SOL    HW2 4401   1.546   1.213  10.917
 1217SOL     OW 4402   0.390   1.741  10.870
 1217SOL    HW1 4403   0.299   1.782  10.868
 1217SOL    HW2 4404   0.383   1.647  10.902
 1218SOL     OW 4405   1.674   0.883  10.564
 1218SOL    HW1 4406   1.647   0.794  10.527
 1218SOL    HW2 4407   1.675   0.951  10.491
 1219SOL     OW 4408   1.225   0.325   9.759
 1219SOL    HW1 4409   1.290   0.251   9.748
 1219SOL    HW2 4410   1.245   0.375   9.843
 1220SOL     OW 4411   0.594   0.745   9.962
 1220SOL    HW1 4412   0.644   0.830   9.943
 1220SOL    HW2 4413   0.506   0.747   9.914
 1221SOL     OW 4414   1.777   0.342  10.952
 1221SOL    HW1 4415   1.760   0.373  10.858
 1221SOL    HW2 4416   1.693   0.305  10.990
 1222SOL     OW 4417   1.730   0.934  10.827
 1222SOL    HW1 4418   1.768   1.025  10.842
 1222SOL    HW2 4419   1.722   0.917  10.728
 1223SOL     OW 4420   0.859   1.374   9.326
 1223SOL    HW1 4421   0.813   1.389   9.414
 1223SOL    HW2 4422   0.903   1.459   9.296
 1224SOL     OW 4423   0.661   1.790  10.263
 1224SOL    HW1 4424   0.615   1.878  10.250
 1224SOL    HW2 4425   0.760   1.802  10.256
 1225SOL     OW 4426   0.859   0.956  10.171
 1225SOL    HW1 4427   0.913   0.887  10.219
 1225SOL    HW2 4428   0.827   1.025  10.237
 1226SOL     OW 4429   1.083   0.984   9.397
 1226SOL    HW1 4430   1.060   1.037   9.315
 1226SOL    HW2 4431   1.164   0.928   9.378
 1227SOL     OW 4432   1.861   1.569  10.161
 1227SOL    HW1 4433   1.790   1.557  10.091
 1227SOL    HW2 4434   1.862   1.490  10.221
 1228SOL     OW 4435   0.221   1.314  11.154
 1228SOL    HW1 4436   0.156   1.241  11.133
 1228SOL    HW2 4437   0.225   1.328  11.252
 1229SOL     OW 4438   0.079   1.240   9.963
 1229SOL    HW1 4439   0.078   1.193  10.051
 1229SOL    HW2 4440   0.161   1.212   9.912
 1230SOL     OW 4441   0.672   1.391  10.934
 1230SOL    HW1 4442   0.594   1.341  10.972
 1230SOL    HW2 4443   0.669   1.486  10.965
 1231SOL     OW 4444   1.824   0.192  10.537
 1231SOL    HW1 4445   1.820   0.102  10.581
 1231SOL    HW2 4446   1.827   0.181  10.438
 1232SOL     OW 4447   0.428   0.424   9.830
 1232SOL    HW1 4448   0.458   0.352   9.768
 1232SOL    HW2 4449   0.389   0.384   9.913
 1233SOL     OW 4450   1.705   1.487  10.414
 1233SOL    HW1 4451   1.612   1.462  10.387
 1233SOL    HW2 4452   1.731   1.437  10.496
 1234SOL     OW 4453   0.317   0.547  10.590
 1234SOL    HW1 4454   0.355   0.488  10.662
 1234SOL    HW2 4455   0.357   0.521  10.502
 1235SOL     OW 4456   0.812   1.586   9.997
 1235SOL    HW1 4457   0.844   1.596   9.903
 1235SOL    HW2 4458   0.733   1.524   9.999
 1236SOL     OW 4459   1.424   0.214  10.422
 1236SOL    HW1 4460   1.476   0.149  10.477
 1236SOL    HW2 4461   1.375   0.277  10.483
 1237SOL     OW 4462   1.001   0.034  10.464
 1237SOL    HW1 4463   0.938  -0.038  10.433
 1237SOL    HW2 4464   1.094  -0.002  10.464
 1238SOL     OW 4465   0.770   1.330   9.611
 1238SOL    HW1 4466   0.724   1.243   9.628
 1238SOL    HW2 4467   0.861   1.327   9.652
 1239SOL     OW 4468   0.618   1.567  10.594
 1239SOL    HW1 4469   0.613   1.649  10.651
 1239SOL    HW2 4470   0.707   1.564  10.549
 1240SOL     OW 4471   1.352   0.052   9.478
 1240SOL    HW1 4472   1.387   0.011   9.394
 1240SOL    HW2 4473   1.262   0.014   9.498
 1241SOL     OW 4474   1.300   0.453  10.001
 1241SOL    HW1 4475   1.241   0.533  10.005
 1241SOL    HW2 4476   1.315   0.418  10.094
 1242SOL     OW 4477   1.593   0.221  10.192
 1242SOL    HW1 4478   1.509   0.220  10.246
 1242SOL    HW2 4479   1.595   0.304  10.136
 1243SOL     OW 4480   0.039   1.077   9.610
 1243SOL    HW1 4481   0.138   1.066   9.601
 1243SOL    HW2 4482  -0.001   0.991   9.642
 1244SOL     OW 4483   0.875   1.646   9.647
 1244SOL    HW1 4484   0.798   1.611   9.593
 1244SOL    HW2 4485   0.843   1.717   9.709
 1245SOL     OW 4486   0.230   0.628  11.285
 1245SOL    HW1 4487   0.137   0.626  11.322
 1245SOL    HW2 4488   0.231   0.589  11.193
 1246SOL     OW 4489   0.225   0.275  12.168
 1246SOL    HW1 4490   0.260   0.258  12.260
 1246SOL    HW2 4491   0.137   0.230  12.156
 1247SOL     OW 4492   0.019   0.368  11.819
 1247SOL    HW1 4493  -0.063   0.411  11.858
 1247SOL    HW2 4494  -0.009   0.295  11.756
 1248SOL     OW 4495   0.569   1.275  12.337
 1248SOL    HW1 4496   0.476   1.268  12.300
 1248SOL    HW2 4497   0.580   1.364  12.381
 1249SOL     OW 4498   1.555   1.511  11.875
 1249SOL    HW1 4499   1.498   1.495  11.956
 1249SOL    HW2 4500   1.496   1.521  11.795
 1250SOL     OW 4501   1.135   0.703  11.889
 1250SOL    HW1 4502   1.192   0.781  11.864
 1250SOL    HW2 4503   1.075   0.729  11.965
 1251SOL     OW 4504   1.755   0.607  11.403
 1251SOL    HW1 4505   1.743   0.594  11.304
 1251SOL    HW2 4506   1.725   0.526  11.452
 1252SOL     OW 4507   0.768   1.144  12.195
 1252SOL    HW1 4508   0.690   1.161  12.255
 1252SOL    HW2 4509   0.802   1.231  12.159
 1253SOL     OW 4510   0.850   0.798  12.995
 1253SOL    HW1 4511   0.846   0.874  13.060
 1253SOL    HW2 4512   0.872   0.834  12.904
 1254SOL     OW 4513   0.685   1.012  11.837
 1254SOL    HW1 4514   0.754   0.996  11.907
 1254SOL    HW2 4515   0.612   1.069  11.875
 1255SOL     OW 4516   0.686   1.161  12.975
 1255SOL    HW1 4517   0.746   1.240  12.989
 1255SOL    HW2 4518   0.600   1.192  12.934
 1256SOL     OW 4519   0.335   1.435  12.233
 1256SOL    HW1 4520   0.257   1.404  12.180
 1256SOL    HW2 4521   0.393   1.493  12.176
 1257SOL     OW 4522   1.460   1.505  12.511
 1257SOL    HW1 4523   1.484   1.599  12.537
 1257SOL    HW2 4524   1.444   1.451  12.593
 1258SOL     OW 4525   0.438   0.392  12.671
 1258SOL    HW1 4526   0.520   0.336  12.680
 1258SOL    HW2 4527   0.357   0.334  12.675
 1259SOL     OW 4528   1.603   0.447  11.909
 1259SOL    HW1 4529   1.529   0.493  11.859
 1259SOL    HW2 4530   1.654   0.515  11.962
 1260SOL     OW 4531   0.231   1.713  11.655
 1260SOL    HW1 4532   0.265   1.790  11.709
 1260SOL    HW2 4533   0.275   1.713  11.565
 1261SOL     OW 4534   1.127   1.341  12.862
 1261SOL    HW1 4535   1.174   1.341  12.950
 1261SOL    HW2 4536   1.079   1.254  12.851
 1262SOL     OW 4537   0.230   1.434  11.710
 1262SOL    HW1 4538   0.204   1.530  11.710
 1262SOL    HW2 4539   0.159   1.380  11.755
 1263SOL     OW 4540   0.240   1.091  12.058
 1263SOL    HW1 4541   0.254   1.007  12.110
 1263SOL    HW2 4542   0.185   1.155  12.113
 1264SOL     OW 4543   0.620   1.786  12.611
 1264SOL    HW1 4544   0.528   1.769  12.646
 1264SOL    HW2 4545   0.648   1.878  12.637
 1265SOL     OW 4546   0.606   0.964  11.295
 1265SOL    HW1 4547   0.613   1.048  11.241
 1265SOL    HW2 4548   0.652   0.977  11.383
 1266SOL     OW 4549   1.594   0.114  12.652
 1266SOL    HW1 4550   1.576   0.181  12.580
 1266SOL    HW2 4551   1.591   0.160  12.741
 1267SOL     OW 4552   0.122   0.643  11.735
 1267SOL    HW1 4553   0.077   0.555  11.752
 1267SOL    HW2 4554   0.121   0.697  11.819
 1268SOL     OW 4555   0.027   1.596  11.289
 1268SOL    HW1 4556   0.008   1.500  11.310
 1268SOL    HW2 4557  -0.006   1.654  11.364
 1269SOL     OW 4558   1.689   0.922  11.784
 1269SOL    HW1 4559   1.784   0.893  11.792
 1269SOL    HW2 4560   1.681   0.987  11.709
 1270SOL     OW 4561   1.641   1.108  11.604
 1270SOL    HW1 4562   1.727   1.110  11.552
 1270SOL    HW2 4563   1.655   1.155  11.692
 1271SOL     OW 4564   0.113   0.737  12.769
 1271SOL    HW1 4565   0.201   0.724  12.814
 1271SOL    HW2 4566   0.100   0.834  12.747
 1272SOL     OW 4567   0.613   1.365  11.898
 1272SOL    HW1 4568   0.564   1.278  11.907
 1272SOL    HW2 4569   0.590   1.408  11.811
 1273SOL     OW 4570   1.293   1.228  12.595
 1273SOL    HW1 4571   1.330   1.155  12.537
 1273SOL    HW2 4572   1.345   1.233  12.680
 1274SOL     OW 4573   0.809   0.004  11.674
 1274SOL    HW1 4574   0.849   0.095  11.665
 1274SOL    HW2 4575   0.709   0.012  11.680
 1275SOL     OW 4576   0.197   0.976  12.436
 1275SOL    HW1 4577   0.286   0.931  12.422
 1275SOL    HW2 4578   0.124   0.911  12.417
 1276SOL     OW 4579   1.525   0.999  11.362
 1276SOL    HW1 4580   1.462   0.923  11.375
 1276SOL    HW2 4581   1.573   1.017  11.448
 1277SOL     OW 4582   1.187   1.792  12.788
 1277SOL    HW1 4583   1.211   1.852  12.712
 1277SOL    HW2 4584   1.194   1.697  12.758
 1278SOL     OW 4585   0.317   0.251  12.973
 1278SOL    HW1 4586   0.388   0.322  12.979
 1278SOL    HW2 4587   0.229   0.290  13.001
 1279SOL     OW 4588   1.466   1.417  12.125
 1279SOL    HW1 4589   1.407   1.423  12.205
 1279SOL    HW2 4590   1.451   1.329  12.079
 1280SOL     OW 4591   1.667   1.714  11.744
 1280SOL    HW1 4592   1.626   1.691  11.656
 1280SOL    HW2 4593   1.649   1.640  11.809
 1281SOL     OW 4594   0.598   0.729  11.442
 1281SOL    HW1 4595   0.622   0.798  11.374
 1281SOL    HW2 4596   0.520   0.762  11.496
 1282SOL     OW 4597   1.281   0.345  12.116
 1282SOL    HW1 4598   1.195   0.295  12.103
 1282SOL    HW2 4599   1.343   0.291  12.172
 1283SOL     OW 4600   1.576   1.662  11.479
 1283SOL    HW1 4601   1.665   1.708  11.482
 1283SOL    HW2 4602   1.555   1.638  11.384
 1284SOL     OW 4603   0.807   0.605  12.637
 1284SOL    HW1 4604   0.760   0.602  12.726
 1284SOL    HW2 4605   0.756   0.550  12.571
 1285SOL     OW 4606   1.394   0.469  12.846
 1285SOL    HW1 4607   1.374   0.512  12.934
 1285SOL    HW2 4608   1.472   0.407  12.855
 1286SOL     OW 4609   0.973   0.890  12.744
 1286SOL    HW1 4610   1.019   0.806  12.715
 1286SOL    HW2 4611   0.917   0.924  12.669
 1287SOL     OW 4612   0.991   0.410  12.414
 1287SOL    HW1 4613   0.914   0.444  12.468
 1287SOL    HW2 4614   0.957   0.359  12.335
 1288SOL     OW 4615   1.041   0.701  11.601
 1288SOL    HW1 4616   1.067   0.697  11.697
 1288SOL    HW2 4617   0.956   0.650  11.587
 1289SOL     OW 4618   0.076   0.811  11.961
 1289SOL    HW1 4619   0.175   0.799  11.970
 1289SOL    HW2 4620   0.052   0.906  11.982
 1290SOL     OW 4621   0.130   1.821  12.743
 1290SOL    HW1 4622   0.120   1.806  12.842
 1290SOL    HW2 4623   0.044   1.857  12.707
 1291SOL     OW 4624   0.865   0.348  11.367
 1291SOL    HW1 4625   0.924   0.411  11.318
 1291SOL    HW2 4626   0.884   0.254  11.338
 1292SOL     OW 4627   1.719   0.585  13.003
 1292SOL    HW1 4628   1.693   0.674  12.967
 1292SOL    HW2 4629   1.717   0.517  12.930
 1293SOL     OW 4630   1.362   1.144  11.717
 1293SOL    HW1 4631   1.445   1.115  11.669
 1293SOL    HW2 4632   1.313   1.211  11.661
 1294SOL     OW 4633   0.550   0.196  12.057
 1294SOL    HW1 4634   0.545   0.191  12.157
 1294SOL    HW2 4635   0.552   0.292  12.028
 1295SOL     OW 4636   1.008   1.456  11.649
 1295SOL    HW1 4637   0.962   1.528  11.597
 1295SOL    HW2 4638   1.004   1.476  11.747
 1296SOL     OW 4639   0.351   1.801  12.025
 1296SOL    HW1 4640   0.401   1.715  12.031
 1296SOL    HW2 4641   0.416   1.878  12.022
 1297SOL     OW 4642   1.795   1.066  12.045
 1297SOL    HW1 4643   1.733   1.051  11.969
 1297SOL    HW2 4644   1.743   1.077  12.130
 1298SOL     OW 4645   1.227   1.550  12.678
 1298SOL    HW1 4646   1.233   1.473  12.742
 1298SOL    HW2 4647   1.175   1.524  12.598
 1299SOL     OW 4648   0.321   0.943  11.414
 1299SOL    HW1 4649   0.403   0.982  11.372
 1299SOL    HW2 4650   0.294   0.861  11.365
 1300SOL     OW 4651   1.458   0.735  11.900
 1300SOL    HW1 4652   1.453   0.670  11.975
 1300SOL    HW2 4653   1.538   0.794  11.913
 1301SOL     OW 4654   0.461   1.266  12.899
 1301SOL    HW1 4655   0.411   1.267  12.813
 1301SOL    HW2 4656   0.398   1.248  12.975
 1302SOL     OW 4657   1.111   1.776  11.409
 1302SOL    HW1 4658   1.051   1.714  11.459
 1302SOL    HW2 4659   1.142   1.732  11.324
 1303SOL     OW 4660   0.202   0.285  12.670
 1303SOL    HW1 4661   0.122   0.345  12.657
 1303SOL    HW2 4662   0.192   0.236  12.756
 1304SOL     OW 4663   1.632   1.377  11.253
 1304SOL    HW1 4664   1.600   1.471  11.243
 1304SOL    HW2 4665   1.556   1.314  11.241
 1305SOL     OW 4666   0.464   1.743  11.495
 1305SOL    HW1 4667   0.497   1.782  11.581
 1305SOL    HW2 4668   0.540   1.736  11.430
 1306SOL     OW 4669   1.400   0.107  11.598
 1306SOL    HW1 4670   1.376   0.070  11.508
 1306SOL    HW2 4671   1.499   0.123  11.602
 1307SOL     OW 4672   0.249   1.785  12.413
 1307SOL    HW1 4673   0.306   1.720  12.463
 1307SOL    HW2 4674   0.233   1.752  12.320
 1308SOL     OW 4675   0.940   1.698  12.076
 1308SOL    HW1 4676   1.020   1.641  12.097
 1308SOL    HW2 4677   0.891   1.658  11.999
 1309SOL     OW 4678   0.382   0.700  11.652
 1309SOL    HW1 4679   0.427   0.610  11.649
 1309SOL    HW2 4680   0.288   0.689  11.685
 1310SOL     OW 4681   1.547   0.222  12.901
 1310SOL    HW1 4682   1.542   0.259  12.993
 1310SOL    HW2 4683   1.475   0.153  12.889
 1311SOL     OW 4684   0.614   0.122  11.289
 1311SOL    HW1 4685   0.712   0.100  11.296
 1311SOL    HW2 4686   0.583   0.105  11.196
 1312SOL     OW 4687   0.781   0.264  12.921
 1312SOL    HW1 4688   0.848   0.203  12.964
 1312SOL    HW2 4689   0.708   0.283  12.986
 1313SOL     OW 4690   0.888   1.514  12.367
 1313SOL    HW1 4691   0.865   1.489  12.273
 1313SOL    HW2 4692   0.949   1.445  12.406
 1314SOL     OW 4693   1.351   0.590  12.605
 1314SOL    HW1 4694   1.379   0.547  12.690
 1314SOL    HW2 4695   1.376   0.686  12.606
 1315SOL     OW 4696   0.803   1.402  12.096
 1315SOL    HW1 4697   0.893   1.416  12.054
 1315SOL    HW2 4698   0.732   1.404  12.025
 1316SOL     OW 4699   0.922   0.503  12.071
 1316SOL    HW1 4700   0.897   0.494  11.975
 1316SOL    HW2 4701   0.970   0.421  12.102
 1317SOL     OW 4702   0.539   0.064  11.684
 1317SOL    HW1 4703   0.458   0.065  11.742
 1317SOL    HW2 4704   0.542   0.147  11.629
 1318SOL     OW 4705   1.434   1.188  11.213
 1318SOL    HW1 4706   1.466   1.112  11.270
 1318SOL    HW2 4707   1.342   1.215  11.243
 1319SOL     OW 4708   0.297   0.035  11.343
 1319SOL    HW1 4709   0.346   0.119  11.322
 1319SOL    HW2 4710   0.359  -0.030  11.388
 1320SOL     OW 4711   0.935   0.236  11.652
 1320SOL    HW1 4712   0.887   0.277  11.574
 1320SOL    HW2 4713   1.034   0.234  11.633
 1321SOL     OW 4714   1.076   0.683  12.636
 1321SOL    HW1 4715   0.996   0.622  12.639
 1321SOL    HW2 4716   1.157   0.630  12.612
 1322SOL     OW 4717   1.227   1.570  11.965
 1322SOL    HW1 4718   1.248   1.644  11.900
 1322SOL    HW2 4719   1.295   1.570  12.038
 1323SOL     OW 4720   0.459   1.152  11.913
 1323SOL    HW1 4721   0.388   1.125  11.978
 1323SOL    HW2 4722   0.433   1.124  11.820
 1324SOL     OW 4723   1.271   1.797  11.763
 1324SOL    HW1 4724   1.315   1.861  11.699
 1324SOL    HW2 4725   1.221   1.849  11.833
 1325SOL     OW 4726   1.032   0.549  11.188
 1325SOL    HW1 4727   0.991   0.631  11.149
 1325SOL    HW2 4728   1.096   0.575  11.261
 1326SOL     OW 4729   0.078   0.556  12.558
 1326SOL    HW1 4730   0.170   0.555  12.517
 1326SOL    HW2 4731   0.072   0.630  12.625
 1327SOL     OW 4732   0.561   0.222  12.319
 1327SOL    HW1 4733   0.599   0.138  12.356
 1327SOL    HW2 4734   0.473   0.241  12.363
 1328SOL     OW 4735   0.866   0.454  11.814
 1328SOL    HW1 4736   0.834   0.526  11.752
 1328SOL    HW2 4737   0.890   0.373  11.761
 1329SOL     OW 4738   1.017   0.039  11.925
 1329SOL    HW1 4739   0.945   0.044  11.856
 1329SOL    HW2 4740   0.993  -0.030  11.994
 1330SOL     OW 4741   1.429   1.173  12.039
 1330SOL    HW1 4742   1.374   1.089  12.032
 1330SOL    HW2 4743   1.455   1.202  11.947
 1331SOL     OW 4744   1.466   0.590  12.164
 1331SOL    HW1 4745   1.436   0.495  12.171
 1331SOL    HW2 4746   1.539   0.606  12.230
 1332SOL     OW 4747   1.857   0.833  11.549
 1332SOL    HW1 4748   1.899   0.769  11.613
 1332SOL    HW2 4749   1.819   0.782  11.471
 1333SOL     OW 4750   0.488   1.385  11.346
 1333SOL    HW1 4751   0.401   1.370  11.393
 1333SOL    HW2 4752   0.471   1.411  11.251
 1334SOL     OW 4753   1.664   1.280  11.829
 1334SOL    HW1 4754   1.763   1.288  11.843
 1334SOL    HW2 4755   1.619   1.364  11.860
 1335SOL     OW 4756   1.390   0.575  11.250
 1335SOL    HW1 4757   1.336   0.554  11.331
 1335SOL    HW2 4758   1.481   0.534  11.259
 1336SOL     OW 4759   0.527   0.256  11.500
 1336SOL    HW1 4760   0.554   0.197  11.425
 1336SOL    HW2 4761   0.527   0.351  11.469
 1337SOL     OW 4762   1.754   1.223  12.760
 1337SOL    HW1 4763   1.845   1.184  12.747
 1337SOL    HW2 4764   1.762   1.319  12.784
 1338SOL     OW 4765   1.064   1.347  12.512
 1338SOL    HW1 4766   0.984   1.324  12.567
 1338SOL    HW2 4767   1.147   1.321  12.561
 1339SOL     OW 4768   1.592   1.629  12.797
 1339SOL    HW1 4769   1.619   1.663  12.707
 1339SOL    HW2 4770   1.671   1.591  12.843
 1340SOL     OW 4771   1.111   1.195  12.272
 1340SOL    HW1 4772   1.071   1.239  12.353
 1340SOL    HW2 4773   1.070   1.232  12.189
 1341SOL     OW 4774   1.638   1.099  12.251
 1341SOL    HW1 4775   1.643   1.180  12.310
 1341SOL    HW2 4776   1.552   1.101  12.200
 1342SOL     OW 4777   0.915   0.089  12.574
 1342SOL    HW1 4778   0.940   0.069  12.479
 1342SOL    HW2 4779   0.987   0.145  12.616
 1343SOL     OW 4780   0.980   1.116  12.891
 1343SOL    HW1 4781   0.881   1.122  12.901
 1343SOL    HW2 4782   1.003   1.036  12.835
 1344SOL     OW 4783   0.705   1.050  11.540
 1344SOL    HW1 4784   0.691   1.057  11.639
 1344SOL    HW2 4785   0.789   0.999  11.522
 1345SOL     OW 4786   0.410   0.813  12.423
 1345SOL    HW1 4787   0.496   0.825  12.473
 1345SOL    HW2 4788   0.368   0.726  12.450
 1346SOL     OW 4789   1.274   0.386  12.434
 1346SOL    HW1 4790   1.295   0.460  12.498
 1346SOL    HW2 4791   1.185   0.403  12.391
 1347SOL     OW 4792   0.064   1.564  12.503
 1347SOL    HW1 4793   0.018   1.646  12.469
 1347SOL    HW2 4794   0.162   1.583  12.512
 1348SOL     OW 4795   0.367   1.100  11.673
 1348SOL    HW1 4796   0.360   1.183  11.617
 1348SOL    HW2 4797   0.371   1.020  11.613
 1349SOL     OW 4798   0.566   0.537  12.037
 1349SOL    HW1 4799   0.578   0.603  11.963
 1349SOL    HW2 4800   0.612   0.571  12.120
 1350SOL     OW 4801   1.252   1.348  11.560
 1350SOL    HW1 4802   1.302   1.425  11.600
 1350SOL    HW2 4803   1.157   1.350  11.592
 1351SOL     OW 4804   1.272   1.445  12.314
 1351SOL    HW1 4805   1.319   1.458  12.401
 1351SOL    HW2 4806   1.206   1.371  12.323
 1352SOL     OW 4807   1.582   0.639  11.644
 1352SOL    HW1 4808   1.551   0.700  11.717
 1352SOL    HW2 4809   1.632   0.691  11.575
 1353SOL     OW 4810   0.354   1.510  12.501
 1353SOL    HW1 4811   0.333   1.466  12.414
 1353SOL    HW2 4812   0.451   1.536  12.504
 1354SOL     OW 4813   0.402   0.751  12.770
 1354SOL    HW1 4814   0.470   0.806  12.723
 1354SOL    HW2 4815   0.442   0.663  12.797
 1355SOL     OW 4816   1.587   0.779  12.842
 1355SOL    HW1 4817   1.495   0.817  12.837
 1355SOL    HW2 4818   1.647   0.826  12.777
 1356SOL     OW 4819   1.013   0.105  12.942
 1356SOL    HW1 4820   1.019   0.190  12.890
 1356SOL    HW2 4821   1.045   0.029  12.885
 1357SOL     OW 4822   0.504   0.050  12.912
 1357SOL    HW1 4823   0.462  -0.007  12.842
 1357SOL    HW2 4824   0.438   0.119  12.944
 1358SOL     OW 4825   0.573   0.870  12.201
 1358SOL    HW1 4826   0.617   0.959  12.192
 1358SOL    HW2 4827   0.510   0.870  12.278
 1359SOL     OW 4828   1.360   0.862  12.217
 1359SOL    HW1 4829   1.285   0.862  12.151
 1359SOL    HW2 4830   1.397   0.770  12.226
 1360SOL     OW 4831   1.209   0.525  11.447
 1360SOL    HW1 4832   1.222   0.441  11.501
 1360SOL    HW2 4833   1.180   0.599  11.507
 1361SOL     OW 4834   0.307   0.213  12.403
 1361SOL    HW1 4835   0.284   0.250  12.493
 1361SOL    HW2 4836   0.277   0.118  12.397
 1362SOL     OW 4837   0.037   1.310  12.454
 1362SOL    HW1 4838   0.090   1.261  12.522
 1362SOL    HW2 4839   0.059   1.408  12.459
 1363SOL     OW 4840   0.732   0.634  12.236
 1363SOL    HW1 4841   0.791   0.608  12.160
 1363SOL    HW2 4842   0.704   0.730  12.225
 1364SOL     OW 4843   1.728   0.935  13.026
 1364SOL    HW1 4844   1.682   0.928  12.937
 1364SOL    HW2 4845   1.666   0.979  13.092
 1365SOL     OW 4846   0.307   0.063  11.790
 1365SOL    HW1 4847   0.296   0.157  11.823
 1365SOL    HW2 4848   0.302   0.000  11.867
 1366SOL     OW 4849   1.622   0.367  11.546
 1366SOL    HW1 4850   1.624   0.291  11.610
 1366SOL    HW2 4851   1.574   0.444  11.586
 1367SOL     OW 4852   1.023   0.766  12.138
 1367SOL    HW1 4853   1.038   0.787  12.234
 1367SOL    HW2 4854   0.993   0.671  12.129
 1368SOL     OW 4855   0.980   1.573  12.872
 1368SOL    HW1 4856   0.960   1.617  12.784
 1368SOL    HW2 4857   1.019   1.482  12.856
 1369SOL     OW 4858   1.859   1.518  12.777
 1369SOL    HW1 4859   1.873   1.545  12.682
 1369SOL    HW2 4860   1.942   1.540  12.830
 1370SOL     OW 4861   0.350   0.898  12.976
 1370SOL    HW1 4862   0.426   0.942  13.024
 1370SOL    HW2 4863   0.385   0.851  12.894
 1371SOL     OW 4864   1.540   0.274  11.297
 1371SOL    HW1 4865   1.479   0.199  11.320
 1371SOL    HW2 4866   1.562   0.326  11.380
 1372SOL     OW 4867   1.303   0.838  11.214
 1372SOL    HW1 4868   1.337   0.745  11.229
 1372SOL    HW2 4869   1.321   0.865  11.119
 1373SOL     OW 4870   1.068   1.333  12.021
 1373SOL    HW1 4871   1.075   1.249  11.966
 1373SOL    HW2 4872   1.130   1.402  11.985
 1374SOL     OW 4873   0.319   0.810  12.121
 1374SOL    HW1 4874   0.412   0.846  12.126
 1374SOL    HW2 4875   0.313   0.725  12.173
 1375SOL     OW 4876   0.339   0.509  12.178
 1375SOL    HW1 4877   0.287   0.426  12.161
 1375SOL    HW2 4878   0.416   0.514  12.114
 1376SOL     OW 4879   1.138   0.380  12.850
 1376SOL    HW1 4880   1.093   0.443  12.914
 1376SOL    HW2 4881   1.231   0.411  12.833
 1377SOL     OW 4882   1.160   0.207  12.649
 1377SOL    HW1 4883   1.160   0.271  12.726
 1377SOL    HW2 4884   1.188   0.255  12.566
 1378SOL     OW 4885   0.008   1.326  11.372
 1378SOL    HW1 4886  -0.085   1.347  11.341
 1378SOL    HW2 4887   0.018   1.227  11.385
 1379SOL     OW 4888   0.088   1.801  12.099
 1379SOL    HW1 4889   0.046   1.715  12.072
 1379SOL    HW2 4890   0.182   1.804  12.065
 1380SOL     OW 4891   0.504   1.568  12.082
 1380SOL    HW1 4892   0.570   1.642  12.091
 1380SOL    HW2 4893   0.548   1.489  12.040
 1381SOL     OW 4894   1.002   0.796  12.410
 1381SOL    HW1 4895   1.043   0.764  12.496
 1381SOL    HW2 4896   0.906   0.769  12.407
 1382SOL     OW 4897   0.040   0.544  12.286
 1382SOL    HW1 4898   0.125   0.511  12.245
 1382SOL    HW2 4899   0.053   0.559  12.384
 1383SOL     OW 4900   0.189   0.520  12.894
 1383SOL    HW1 4901   0.248   0.480  12.824
 1383SOL    HW2 4902   0.131   0.591  12.853
 1384SOL     OW 4903   1.369   0.950  12.832
 1384SOL    HW1 4904   1.408   1.039  12.852
 1384SOL    HW2 4905   1.379   0.930  12.735
 1385SOL     OW 4906   0.815   0.572  11.497
 1385SOL    HW1 4907   0.822   0.483  11.451
 1385SOL    HW2 4908   0.721   0.606  11.489
 1386SOL     OW 4909   1.657   0.604  12.378
 1386SOL    HW1 4910   1.619   0.535  12.440
 1386SOL    HW2 4911   1.739   0.568  12.334
 1387SOL     OW 4912   0.252   1.564  12.916
 1387SOL    HW1 4913   0.222   1.621  12.992
 1387SOL    HW2 4914   0.245   1.467  12.942
 1388SOL     OW 4915   0.671   0.464  12.441
 1388SOL    HW1 4916   0.637   0.375  12.411
 1388SOL    HW2 4917   0.697   0.518  12.361
 1389SOL     OW 4918   0.930   1.678  12.637
 1389SOL    HW1 4919   0.906   1.660  12.542
 1389SOL    HW2 4920   0.960   1.772  12.647
 1390SOL     OW 4921   0.473   0.500  11.363
 1390SOL    HW1 4922   0.534   0.580  11.367
 1390SOL    HW2 4923   0.378   0.531  11.370
 1391SOL     OW 4924   0.159   1.137  12.638
 1391SOL    HW1 4925   0.181   1.076  12.714
 1391SOL    HW2 4926   0.169   1.088  12.552
 1392SOL     OW 4927   1.347   1.059  12.406
 1392SOL    HW1 4928   1.371   0.996  12.332
 1392SOL    HW2 4929   1.257   1.099  12.388
 1393SOL     OW 4930   1.302   0.855  11.481
 1393SOL    HW1 4931   1.216   0.824  11.523
 1393SOL    HW2 4932   1.298   0.841  11.382
 1394SOL     OW 4933   1.252   1.731  12.300
 1394SOL    HW1 4934   1.336   1.736  12.246
 1394SOL    HW2 4935   1.229   1.635  12.318
 1395SOL     OW 4936   0.083   1.258  12.194
 1395SOL    HW1 4937   0.078   1.257  12.294
 1395SOL    HW2 4938   0.000   1.217  12.156
 1396SOL     OW 4939   0.688   1.662  12.888
 1396SOL    HW1 4940   0.632   1.743  12.897
 1396SOL    HW2 4941   0.740   1.666  12.802
 1397SOL     OW 4942   1.726   0.135  11.695
 1397SOL    HW1 4943   1.799   0.118  11.628
 1397SOL    HW2 4944   1.695   0.048  11.733
 1398SOL     OW 4945   1.388   1.573  11.649
 1398SOL    HW1 4946   1.455   1.585  11.575
 1398SOL    HW2 4947   1.348   1.662  11.672
 1399SOL     OW 4948   0.130   1.794  13.023
 1399SOL    HW1 4949   0.089   1.720  13.076
 1399SOL    HW2 4950   0.194   1.845  13.081
 1400SOL     OW 4951   1.280   0.927  11.844
 1400SOL    HW1 4952   1.340   0.846  11.846
 1400SOL    HW2 4953   1.320   0.996  11.784
 1401SOL     OW 4954   0.830   1.273  12.594
 1401SOL    HW1 4955   0.825   1.306  12.689
 1401SOL    HW2 4956   0.744   1.292  12.548
 1402SOL     OW 4957   0.672   1.616  11.326
 1402SOL    HW1 4958   0.681   1.626  11.227
 1402SOL    HW2 4959   0.632   1.527  11.347
 1403SOL     OW 4960   1.650   1.720  12.566
 1403SOL    HW1 4961   1.703   1.730  12.482
 1403SOL    HW2 4962   1.623   1.810  12.600
 1404SOL     OW 4963   1.841   0.175  12.135
 1404SOL    HW1 4964   1.880   0.090  12.099
 1404SOL    HW2 4965   1.743   0.177  12.116
 1405SOL     OW 4966   0.263   0.326  11.892
 1405SOL    HW1 4967   0.184   0.377  11.858
 1405SOL    HW2 4968   0.254   0.311  11.990
 1406SOL     OW 4969   1.194   1.612  11.203
 1406SOL    HW1 4970   1.200   1.519  11.240
 1406SOL    HW2 4971   1.135   1.612  11.123
 1407SOL     OW 4972   0.822   1.002  12.544
 1407SOL    HW1 4973   0.862   1.001  12.452
 1407SOL    HW2 4974   0.832   1.094  12.584
 1408SOL     OW 4975   0.916   0.910  11.463
 1408SOL    HW1 4976   0.979   0.948  11.395
 1408SOL    HW2 4977   0.956   0.827  11.502
 1409SOL     OW 4978   1.504   1.607  11.216
 1409SOL    HW1 4979   1.412   1.644  11.223
 1409SOL    HW2 4980   1.542   1.627  11.126
 1410SOL     OW 4981   0.372   1.288  12.662
 1410SOL    HW1 4982   0.359   1.381  12.628
 1410SOL    HW2 4983   0.288   1.236  12.649
 1411SOL     OW 4984   1.614   1.292  12.461
 1411SOL    HW1 4985   1.674   1.295  12.541
 1411SOL    HW2 4986   1.539   1.356  12.474
 1412SOL     OW 4987   1.039   1.098  11.868
 1412SOL    HW1 4988   0.969   1.051  11.922
 1412SOL    HW2 4989   1.098   1.030  11.825
 1413SOL     OW 4990   1.014   0.236  12.143
 1413SOL    HW1 4991   1.006   0.200  12.050
 1413SOL    HW2 4992   1.012   0.160  12.208
 1414SOL     OW 4993   0.590   1.487  11.663
 1414SOL    HW1 4994   0.632   1.429  11.593
 1414SOL    HW2 4995   0.546   1.566  11.619
 1415SOL     OW 4996   1.709   0.385  12.553
 1415SOL    HW1 4997   1.782   0.454  12.557
 1415SOL    HW2 4998   1.737   0.310  12.494
 1416SOL     OW 4999   0.255   1.348  11.462
 1416SOL    HW1 5000   0.159   1.349  11.435
 1416SOL    HW2 5001   0.267   1.401  11.546
 1417SOL     OW 5002   0.105   1.013  12.898
 1417SOL    HW1 5003   0.028   0.980  12.952
 1417SOL    HW2 5004   0.190   0.983  12.940
 1418SOL     OW 5005   0.672   0.203  12.661
 1418SOL    HW1 5006   0.762   0.187  12.621
 1418SOL    HW2 5007   0.680   0.208  12.760
 1419SOL     OW 5008   0.075   0.345  11.205
 1419SOL    HW1 5009  -0.017   0.317  11.176
 1419SOL    HW2 5010   0.106   0.422  11.149
 1420SOL     OW 5011   1.440   0.856  12.570
 1420SOL    HW1 5012   1.383   0.908  12.507
 1420SOL    HW2 5013   1.536   0.868  12.546
 1421SOL     OW 5014   0.072   0.166  11.490
 1421SOL    HW1 5015   0.055   0.249  11.436
 1421SOL    HW2 5016   0.162   0.129  11.468
 1422SOL     OW 5017   1.183   1.335  11.291
 1422SOL    HW1 5018   1.084   1.324  11.293
 1422SOL    HW2 5019   1.217   1.350  11.384
 1423SOL     OW 5020   0.613   0.842  12.603
 1423SOL    HW1 5021   0.669   0.923  12.586
 1423SOL    HW2 5022   0.672   0.762  12.606
 1424SOL     OW 5023   1.493   1.767  12.131
 1424SOL    HW1 5024   1.526   1.831  12.062
 1424SOL    HW2 5025   1.559   1.761  12.206
 1425SOL     OW 5026   0.716   0.565  12.880
 1425SOL    HW1 5027   0.735   0.630  12.954
 1425SOL    HW2 5028   0.776   0.485  12.889
 1426SOL     OW 5029   1.450   1.220  12.805
 1426SOL    HW1 5030   1.441   1.210  12.904
 1426SOL    HW2 5031   1.546   1.213  12.779
 1427SOL     OW 5032   0.390   1.741  12.732
 1427SOL    HW1 5033   0.299   1.782  12.730
 1427SOL    HW2 5034   0.383   1.647  12.764
 1428SOL     OW 5035   1.674   0.883  12.426
 1428SOL    HW1 5036   1.647   0.794  12.389
 1428SOL    HW2 5037   1.675   0.951  12.353
 1429SOL     OW 5038   1.225   0.325  11.621
 1429SOL    HW1 5039   1.290   0.251  11.610
 1429SOL    HW2 5040   1.245   0.375  11.705
 1430SOL     OW 5041   0.594   0.745  11.824
 1430SOL    HW1 5042   0.644   0.830  11.805
 1430SOL    HW2 5043   0.506   0.747  11.776
 1431SOL     OW 5044   1.777   0.342  12.814
 1431SOL    HW1 5045   1.760   0.373  12.720
 1431SOL    HW2 5046   1.693   0.305  12.852
 1432SOL     OW 5047   1.730   0.934  12.689
 1432SOL    HW1 5048   1.768   1.025  12.704
 1432SOL    HW2 5049   1.722   0.917  12.590
 1433SOL     OW 5050   0.859   1.374  11.188
 1433SOL    HW1 5051   0.813   1.389  11.276
 1433SOL    HW2 5052   0.903   1.459  11.158
 1434SOL     OW 5053   0.661   1.790  12.125
 1434SOL    HW1 5054   0.615   1.878  12.112
 1434SOL    HW2 5055   0.760   1.802  12.118
 1435SOL     OW 5056   0.859   0.956  12.033
 1435SOL    HW1 5057   0.913   0.887  12.081
 1435SOL    HW2 5058   0.827   1.025  12.099
 1436SOL     OW 5059   1.083   0.984  11.259
 1436SOL    HW1 5060   1.060   1.037  11.177
 1436SOL    HW2 5061   1.164   0.928  11.240
 1437SOL     OW 5062   1.861   1.569  12.023
 1437SOL    HW1 5063   1.790   1.557  11.953
 1437SOL    HW2 5064   1.862   1.490  12.083
 1438SOL     OW 5065   0.221   1.314  13.016
 1438SOL    HW1 5066   0.156   1.241  12.995
 1438SOL    HW2 5067   0.225   1.328  13.114
 1439SOL     OW 5068   0.079   1.240  11.825
 1439SOL    HW1 5069   0.078   1.193  11.913
 1439SOL    HW2 5070   0.161   1.212  11.774
 1440SOL     OW 5071   0.672   1.391  12.796
 1440SOL    HW1 5072   0.594   1.341  12.834
 1440SOL    HW2 5073   0.669   1.486  12.827
 1441SOL     OW 5074   1.824   0.192  12.399
 1441SOL    HW1 5075   1.820   0.102  12.443
 1441SOL    HW2 5076   1.827   0.181  12.300
 1442SOL     OW 5077   0.428   0.424  11.692
 1442SOL    HW1 5078   0.458   0.352  11.630
 1442SOL    HW2 5079   0.389   0.384  11.775
 1443SOL     OW 5080   1.705   1.487  12.276
 1443SOL    HW1 5081   1.612   1.462  12.249
 1443SOL    HW2 5082   1.731   1.437  12.358
 1444SOL     OW 5083   0.317   0.547  12.452
 1444SOL    HW1 5084   0.355   0.488  12.524
 1444SOL    HW2 5085   0.357   0.521  12.364
 1445SOL     OW 5086   0.812   1.586  11.859
 1445SOL    HW1 5087   0.844   1.596  11.765
 1445SOL    HW2 5088   0.733   1.524  11.861
 1446SOL     OW 5089   1.424   0.214  12.284
 1446SOL    HW1 5090   1.476   0.149  12.339
 1446SOL    HW2 5091   1.375   0.277  12.345
 1447SOL     OW 5092   1.001   0.034  12.326
 1447SOL    HW1 5093   0.938  -0.038  12.295
 1447SOL    HW2 5094   1.094  -0.002  12.326
 1448SOL     OW 5095   0.770   1.330  11.473
 1448SOL    HW1 5096   0.724   1.243  11.490
 1448SOL    HW2 5097   0.861   1.327  11.514
 1449SOL     OW 5098   0.618   1.567  12.456
 1449SOL    HW1 5099   0.613   1.649  12.513
 1449SOL    HW2 5100   0.707   1.564  12.411
 1450SOL     OW 5101   1.352   0.052  11.340
 1450SOL    HW1 5102   1.387   0.011  11.256
 1450SOL    HW2 5103   1.262   0.014  11.360
 1451SOL     OW 5104   1.300   0.453  11.863
 1451SOL    HW1 5105   1.241   0.533  11.867
 1451SOL    HW2 5106   1.315   0.418  11.956
 1452SOL     OW 5107   1.593   0.221  12.054
 1452SOL    HW1 5108   1.509   0.220  12.108
 1452SOL    HW2 5109   1.595   0.304  11.998
 1453SOL     OW 5110   0.039   1.077  11.472
 1453SOL    HW1 5111   0.138   1.066  11.463
 1453SOL    HW2 5112  -0.001   0.991  11.504
 1454SOL     OW 5113   0.875   1.646  11.509
 1454SOL    HW1 5114   0.798   1.611  11.455
 1454SOL    HW2 5115   0.843   1.717  11.571
 1455SOL     OW 5116   0.230   0.628  13.147
 1455SOL    HW1 5117   0.137   0.626  13.184
 1455SOL    HW2 5118   0.231   0.589  13.055
 1456SOL     OW 5119   0.225   0.275  14.030
 1456SOL    HW1 5120   0.260   0.258  14.122
 1456SOL    HW2 5121   0.137   0.230  14.018
 1457SOL     OW 5122   0.019   0.368  13.681
 1457SOL    HW1 5123  -0.063   0.411  13.720
 1457SOL    HW2 5124  -0.009   0.295  13.618
 1458SOL     OW 5125   1.555   1.511  13.737
 1458SOL    HW1 5126   1.498   1.495  13.818
 1458SOL    HW2 5127   1.496   1.521  13.657
 1459SOL     OW 5128   1.135   0.703  13.751
 1459SOL    HW1 5129   1.192   0.781  13.726
 1459SOL    HW2 5130   1.075   0.729  13.827
 1460SOL     OW 5131   1.755   0.607  13.265
 1460SOL    HW1 5132   1.743   0.594  13.166
 1460SOL    HW2 5133   1.725   0.526  13.314
 1461SOL     OW 5134   0.685   1.012  13.699
 1461SOL    HW1 5135   0.754   0.996  13.769
 1461SOL    HW2 5136   0.612   1.069  13.737
 1462SOL     OW 5137   1.603   0.447  13.771
 1462SOL    HW1 5138   1.529   0.493  13.721
 1462SOL    HW2 5139   1.654   0.515  13.824
 1463SOL     OW 5140   0.231   1.713  13.517
 1463SOL    HW1 5141   0.265   1.790  13.571
 1463SOL    HW2 5142   0.275   1.713  13.427
 1464SOL     OW 5143   0.230   1.434  13.572
 1464SOL    HW1 5144   0.204   1.530  13.572
 1464SOL    HW2 5145   0.159   1.380  13.617
 1465SOL     OW 5146   0.240   1.091  13.920
 1465SOL    HW1 5147   0.254   1.007  13.972
 1465SOL    HW2 5148   0.185   1.155  13.975
 1466SOL     OW 5149   0.606   0.964  13.157
 1466SOL    HW1 5150   0.613   1.048  13.103
 1466SOL    HW2 5151   0.652   0.977  13.245
 1467SOL     OW 5152   0.122   0.643  13.597
 1467SOL    HW1 5153   0.077   0.555  13.614
 1467SOL    HW2 5154   0.121   0.697  13.681
 1468SOL     OW 5155   0.027   1.596  13.151
 1468SOL    HW1 5156   0.008   1.500  13.172
 1468SOL    HW2 5157  -0.006   1.654  13.226
 1469SOL     OW 5158   1.689   0.922  13.646
 1469SOL    HW1 5159   1.784   0.893  13.654
 1469SOL    HW2 5160   1.681   0.987  13.571
 1470SOL     OW 5161   1.641   1.108  13.466
 1470SOL    HW1 5162   1.727   1.110  13.414
 1470SOL    HW2 5163   1.655   1.155  13.554
 1471SOL     OW 5164   0.613   1.365  13.760
 1471SOL    HW1 5165   0.564   1.278  13.769
 1471SOL    HW2 5166   0.590   1.408  13.673
 1472SOL     OW 5167   0.809   0.004  13.536
 1472SOL    HW1 5168   0.849   0.095  13.527
 1472SOL    HW2 5169   0.709   0.012  13.542
 1473SOL     OW 5170   1.525   0.999  13.224
 1473SOL    HW1 5171   1.462   0.923  13.237
 1473SOL    HW2 5172   1.573   1.017  13.310
 1474SOL     OW 5173   1.667   1.714  13.606
 1474SOL    HW1 5174   1.626   1.691  13.518
 1474SOL    HW2 5175   1.649   1.640  13.671
 1475SOL     OW 5176   0.598   0.729  13.304
 1475SOL    HW1 5177   0.622   0.798  13.236
 1475SOL    HW2 5178   0.520   0.762  13.358
 1476SOL     OW 5179   1.281   0.345  13.978
 1476SOL    HW1 5180   1.195   0.295  13.965
 1476SOL    HW2 5181   1.343   0.291  14.034
 1477SOL     OW 5182   1.576   1.662  13.341
 1477SOL    HW1 5183   1.665   1.708  13.344
 1477SOL    HW2 5184   1.555   1.638  13.246
 1478SOL     OW 5185   1.041   0.701  13.463
 1478SOL    HW1 5186   1.067   0.697  13.559
 1478SOL    HW2 5187   0.956   0.650  13.449
 1479SOL     OW 5188   0.076   0.811  13.823
 1479SOL    HW1 5189   0.175   0.799  13.832
 1479SOL    HW2 5190   0.052   0.906  13.844
 1480SOL     OW 5191   0.865   0.348  13.229
 1480SOL    HW1 5192   0.924   0.411  13.180
 1480SOL    HW2 5193   0.884   0.254  13.200
 1481SOL     OW 5194   1.362   1.144  13.579
 1481SOL    HW1 5195   1.445   1.115  13.531
 1481SOL    HW2 5196   1.313   1.211  13.523
 1482SOL     OW 5197   1.008   1.456  13.511
 1482SOL    HW1 5198   0.962   1.528  13.459
 1482SOL    HW2 5199   1.004   1.476  13.609
 1483SOL     OW 5200   0.351   1.801  13.887
 1483SOL    HW1 5201   0.401   1.715  13.893
 1483SOL    HW2 5202   0.416   1.878  13.884
 1484SOL     OW 5203   1.795   1.066  13.907
 1484SOL    HW1 5204   1.733   1.051  13.831
 1484SOL    HW2 5205   1.743   1.077  13.992
 1485SOL     OW 5206   0.321   0.943  13.276
 1485SOL    HW1 5207   0.403   0.982  13.234
 1485SOL    HW2 5208   0.294   0.861  13.227
 1486SOL     OW 5209   1.458   0.735  13.762
 1486SOL    HW1 5210   1.453   0.670  13.837
 1486SOL    HW2 5211   1.538   0.794  13.775
 1487SOL     OW 5212   1.111   1.776  13.271
 1487SOL    HW1 5213   1.051   1.714  13.321
 1487SOL    HW2 5214   1.142   1.732  13.186
 1488SOL     OW 5215   1.632   1.377  13.115
 1488SOL    HW1 5216   1.600   1.471  13.105
 1488SOL    HW2 5217   1.556   1.314  13.103
 1489SOL     OW 5218   0.464   1.743  13.357
 1489SOL    HW1 5219   0.497   1.782  13.443
 1489SOL    HW2 5220   0.540   1.736  13.292
 1490SOL     OW 5221   1.400   0.107  13.460
 1490SOL    HW1 5222   1.376   0.070  13.370
 1490SOL    HW2 5223   1.499   0.123  13.464
 1491SOL     OW 5224   0.940   1.698  13.938
 1491SOL    HW1 5225   1.020   1.641  13.959
 1491SOL    HW2 5226   0.891   1.658  13.861
 1492SOL     OW 5227   0.382   0.700  13.514
 1492SOL    HW1 5228   0.427   0.610  13.511
 1492SOL    HW2 5229   0.288   0.689  13.547
 1493SOL     OW 5230   0.614   0.122  13.151
 1493SOL    HW1 5231   0.712   0.100  13.158
 1493SOL    HW2 5232   0.583   0.105  13.058
 1494SOL     OW 5233   0.539   0.064  13.546
 1494SOL    HW1 5234   0.458   0.065  13.604
 1494SOL    HW2 5235   0.542   0.147  13.491
 1495SOL     OW 5236   1.434   1.188  13.075
 1495SOL    HW1 5237   1.466   1.112  13.132
 1495SOL    HW2 5238   1.342   1.215  13.105
 1496SOL     OW 5239   0.297   0.035  13.205
 1496SOL    HW1 5240   0.346   0.119  13.184
 1496SOL    HW2 5241   0.359  -0.030  13.250
 1497SOL     OW 5242   0.935   0.236  13.514
 1497SOL    HW1 5243   0.887   0.277  13.436
 1497SOL    HW2 5244   1.034   0.234  13.495
 1498SOL     OW 5245   0.459   1.152  13.775
 1498SOL    HW1 5246   0.388   1.125  13.840
 1498SOL    HW2 5247   0.433   1.124  13.682
 1499SOL     OW 5248   1.271   1.797  13.625
 1499SOL    HW1 5249   1.315   1.861  13.561
 1499SOL    HW2 5250   1.221   1.849  13.695
 1500SOL     OW 5251   1.032   0.549  13.050
 1500SOL    HW1 5252   0.991   0.631  13.011
 1500SOL    HW2 5253   1.096   0.575  13.123
 1501SOL     OW 5254   0.866   0.454  13.676
 1501SOL    HW1 5255   0.834   0.526  13.614
 1501SOL    HW2 5256   0.890   0.373  13.623
 1502SOL     OW 5257   1.017   0.039  13.787
 1502SOL    HW1 5258   0.945   0.044  13.718
 1502SOL    HW2 5259   0.993  -0.030  13.856
 1503SOL     OW 5260   1.857   0.833  13.411
 1503SOL    HW1 5261   1.899   0.769  13.475
 1503SOL    HW2 5262   1.819   0.782  13.333
 1504SOL     OW 5263   0.488   1.385  13.208
 1504SOL    HW1 5264   0.401   1.370  13.255
 1504SOL    HW2 5265   0.471   1.411  13.113
 1505SOL     OW 5266   1.664   1.280  13.691
 1505SOL    HW1 5267   1.763   1.288  13.705
 1505SOL    HW2 5268   1.619   1.364  13.722
 1506SOL     OW 5269   1.390   0.575  13.112
 1506SOL    HW1 5270   1.336   0.554  13.193
 1506SOL    HW2 5271   1.481   0.534  13.121
 1507SOL     OW 5272   0.527   0.256  13.362
 1507SOL    HW1 5273   0.554   0.197  13.287
 1507SOL    HW2 5274   0.527   0.351  13.331
 1508SOL     OW 5275   0.705   1.050  13.402
 1508SOL    HW1 5276   0.691   1.057  13.501
 1508SOL    HW2 5277   0.789   0.999  13.384
 1509SOL     OW 5278   0.367   1.100  13.535
 1509SOL    HW1 5279   0.360   1.183  13.479
 1509SOL    HW2 5280   0.371   1.020  13.475
 1510SOL     OW 5281   0.566   0.537  13.899
 1510SOL    HW1 5282   0.578   0.603  13.825
 1510SOL    HW2 5283   0.612   0.571  13.982
 1511SOL     OW 5284   1.252   1.348  13.422
 1511SOL    HW1 5285   1.302   1.425  13.462
 1511SOL    HW2 5286   1.157   1.350  13.454
 1512SOL     OW 5287   1.582   0.639  13.506
 1512SOL    HW1 5288   1.551   0.700  13.579
 1512SOL    HW2 5289   1.632   0.691  13.437
 1513SOL     OW 5290   1.209   0.525  13.309
 1513SOL    HW1 5291   1.222   0.441  13.363
 1513SOL    HW2 5292   1.180   0.599  13.369
 1514SOL     OW 5293   0.307   0.063  13.652
 1514SOL    HW1 5294   0.296   0.157  13.685
 1514SOL    HW2 5295   0.302   0.000  13.729
 1515SOL     OW 5296   1.622   0.367  13.408
 1515SOL    HW1 5297   1.624   0.291  13.472
 1515SOL    HW2 5298   1.574   0.444  13.448
 1516SOL     OW 5299   1.540   0.274  13.159
 1516SOL    HW1 5300   1.479   0.199  13.182
 1516SOL    HW2 5301   1.562   0.326  13.242
 1517SOL     OW 5302   1.303   0.838  13.076
 1517SOL    HW1 5303   1.337   0.745  13.091
 1517SOL    HW2 5304   1.321   0.865  12.981
 1518SOL     OW 5305   0.008   1.326  13.234
 1518SOL    HW1 5306  -0.085   1.347  13.203
 1518SOL    HW2 5307   0.018   1.227  13.247
 1519SOL     OW 5308   0.815   0.572  13.359
 1519SOL    HW1 5309   0.822   0.483  13.313
 1519SOL    HW2 5310   0.721   0.606  13.351
 1520SOL     OW 5311   0.473   0.500  13.225
 1520SOL    HW1 5312   0.534   0.580  13.229
 1520SOL    HW2 5313   0.378   0.531  13.232
 1521SOL     OW 5314   1.302   0.855  13.343
 1521SOL    HW1 5315   1.216   0.824  13.385
 1521SOL    HW2 5316   1.298   0.841  13.244
 1522SOL     OW 5317   1.726   0.135  13.557
 1522SOL    HW1 5318   1.799   0.118  13.490
 1522SOL    HW2 5319   1.695   0.048  13.595
 1523SOL     OW 5320   1.388   1.573  13.511
 1523SOL    HW1 5321   1.455   1.585  13.437
 1523SOL    HW2 5322   1.348   1.662  13.534
 1524SOL     OW 5323   1.280   0.927  13.706
 1524SOL    HW1 5324   1.340   0.846  13.708
 1524SOL    HW2 5325   1.320   0.996  13.646
 1525SOL     OW 5326   0.672   1.616  13.188
 1525SOL    HW1 5327   0.681   1.626  13.089
 1525SOL    HW2 5328   0.632   1.527  13.209
 1526SOL     OW 5329   1.841   0.175  13.997
 1526SOL    HW1 5330   1.880   0.090  13.961
 1526SOL    HW2 5331   1.743   0.177  13.978
 1527SOL     OW 5332   0.263   0.326  13.754
 1527SOL    HW1 5333   0.184   0.377  13.720
 1527SOL    HW2 5334   0.254   0.311  13.852
 1528SOL     OW 5335   1.194   1.612  13.065
 1528SOL    HW1 5336   1.200   1.519  13.102
 1528SOL    HW2 5337   1.135   1.612  12.985
 1529SOL     OW 5338   0.916   0.910  13.325
 1529SOL    HW1 5339   0.979   0.948  13.257
 1529SOL    HW2 5340   0.956   0.827  13.364
 1530SOL     OW 5341   1.504   1.607  13.078
 1530SOL    HW1 5342   1.412   1.644  13.085
 1530SOL    HW2 5343   1.542   1.627  12.988
 1531SOL     OW 5344   1.039   1.098  13.730
 1531SOL    HW1 5345   0.969   1.051  13.784
 1531SOL    HW2 5346   1.098   1.030  13.687
 1532SOL     OW 5347   0.590   1.487  13.525
 1532SOL    HW1 5348   0.632   1.429  13.455
 1532SOL    HW2 5349   0.546   1.566  13.481
 1533SOL     OW 5350   0.255   1.348  13.324
 1533SOL    HW1 5351   0.159   1.349  13.297
 1533SOL    HW2 5352   0.267   1.401  13.408
 1534SOL     OW 5353   0.075   0.345  13.067
 1534SOL    HW1 5354  -0.017   0.317  13.038
 1534SOL    HW2 5355   0.106   0.422  13.011
 1535SOL     OW 5356   0.072   0.166  13.352
 1535SOL    HW1 5357   0.055   0.249  13.298
 1535SOL    HW2 5358   0.162   0.129  13.330
 1536SOL     OW 5359   1.183   1.335  13.153
 1536SOL    HW1 5360   1.084   1.324  13.155
 1536SOL    HW2 5361   1.217   1.350  13.246
 1537SOL     OW 5362   1.225   0.325  13.483
 1537SOL    HW1 5363   1.290   0.251  13.472
 1537SOL    HW2 5364   1.245   0.375  13.567
 1538SOL     OW 5365   0.594   0.745  13.686
 1538SOL    HW1 5366   0.644   0.830  13.667
 1538SOL    HW2 5367   0.506   0.747  13.638
 1539SOL     OW 5368   0.859   1.374  13.050
 1539SOL    HW1 5369   0.813   1.389  13.138
 1539SOL    HW2 5370   0.903   1.459  13.020
 1540SOL     OW 5371   0.661   1.790  13.987
 1540SOL    HW1 5372   0.615   1.878  13.974
 1540SOL    HW2 5373   0.760   1.802  13.980
 1541SOL     OW 5374   0.859   0.956  13.895
 1541SOL    HW1 5375   0.913   0.887  13.943
 1541SOL    HW2 5376   0.827   1.025  13.961
 1542SOL     OW 5377   1.083   0.984  13.121
 1542SOL    HW1 5378   1.060   1.037  13.039
 1542SOL    HW2 5379   1.164   0.928  13.102
 1543SOL     OW 5380   0.079   1.240  13.687
 1543SOL    HW1 5381   0.078   1.193  13.775
 1543SOL    HW2 5382   0.161   1.212  13.636
 1544SOL     OW 5383   0.428   0.424  13.554
 1544SOL    HW1 5384   0.458   0.352  13.492
 1544SOL    HW2 5385   0.389   0.384  13.637
 1545SOL     OW 5386   1.705   1.487  14.138
 1545SOL    HW1 5387   1.612   1.462  14.111
 1545SOL    HW2 5388   1.731   1.437  14.220
 1546SOL     OW 5389   0.812   1.586  13.721
 1546SOL    HW1 5390   0.844   1.596  13.627
 1546SOL    HW2 5391   0.733   1.524  13.723
 1547SOL     OW 5392   0.770   1.330  13.335
 1547SOL    HW1 5393   0.724   1.243  13.352
 1547SOL    HW2 5394   0.861   1.327  13.376
 1548SOL     OW 5395   1.352   0.052  13.202
 1548SOL    HW1 5396   1.387   0.011  13.118
 1548SOL    HW2 5397   1.262   0.014  13.222
 1549SOL     OW 5398   1.300   0.453  13.725
 1549SOL    HW1 5399   1.241   0.533  13.729
 1549SOL    HW2 5400   1.315   0.418  13.818
 1550SOL     OW 5401   0.039   1.077  13.334
 1550SOL    HW1 5402   0.138   1.066  13.325
 1550SOL    HW2 5403  -0.001   0.991  13.366
 1551SOL     OW 5404   0.875   1.646  13.371
 1551SOL    HW1 5405   0.798   1.611  13.317
 1551SOL    HW2 5406   0.843   1.717  13.433
 1552SOL     OW 5407   0.230   2.490   0.113
 1552SOL    HW1 5408   0.137   2.488   0.150
 1552SOL    HW2 5409   0.231   2.451   0.021
 1553SOL     OW 5410   0.225   2.137   0.996
 1553SOL    HW1 5411   0.260   2.120   1.088
 1553SOL    HW2 5412   0.137   2.092   0.984
 1554SOL     OW 5413   0.019   2.230   0.647
 1554SOL    HW1 5414  -0.063   2.273   0.686
 1554SOL    HW2 5415  -0.009   2.157   0.584
 1555SOL     OW 5416   0.569   3.137   1.165
 1555SOL    HW1 5417   0.476   3.130   1.128
 1555SOL    HW2 5418   0.580   3.226   1.209
 1556SOL     OW 5419   1.555   3.373   0.703
 1556SOL    HW1 5420   1.498   3.357   0.784
 1556SOL    HW2 5421   1.496   3.383   0.623
 1557SOL     OW 5422   1.135   2.565   0.717
 1557SOL    HW1 5423   1.192   2.643   0.692
 1557SOL    HW2 5424   1.075   2.591   0.793
 1558SOL     OW 5425   1.755   2.469   0.231
 1558SOL    HW1 5426   1.743   2.456   0.132
 1558SOL    HW2 5427   1.725   2.388   0.280
 1559SOL     OW 5428   0.768   3.006   1.023
 1559SOL    HW1 5429   0.690   3.023   1.083
 1559SOL    HW2 5430   0.802   3.093   0.987
 1560SOL     OW 5431   0.850   2.660   1.823
 1560SOL    HW1 5432   0.846   2.736   1.888
 1560SOL    HW2 5433   0.872   2.696   1.732
 1561SOL     OW 5434   0.685   2.874   0.665
 1561SOL    HW1 5435   0.754   2.858   0.735
 1561SOL    HW2 5436   0.612   2.931   0.703
 1562SOL     OW 5437   0.686   3.023   1.803
 1562SOL    HW1 5438   0.746   3.102   1.817
 1562SOL    HW2 5439   0.600   3.054   1.762
 1563SOL     OW 5440   0.335   3.297   1.061
 1563SOL    HW1 5441   0.257   3.266   1.008
 1563SOL    HW2 5442   0.393   3.355   1.004
 1564SOL     OW 5443   1.460   3.367   1.339
 1564SOL    HW1 5444   1.484   3.461   1.365
 1564SOL    HW2 5445   1.444   3.313   1.421
 1565SOL     OW 5446   0.438   2.254   1.499
 1565SOL    HW1 5447   0.520   2.198   1.508
 1565SOL    HW2 5448   0.357   2.196   1.503
 1566SOL     OW 5449   1.603   2.309   0.737
 1566SOL    HW1 5450   1.529   2.355   0.687
 1566SOL    HW2 5451   1.654   2.377   0.790
 1567SOL     OW 5452   0.231   3.575   0.483
 1567SOL    HW1 5453   0.265   3.652   0.537
 1567SOL    HW2 5454   0.275   3.575   0.393
 1568SOL     OW 5455   1.127   3.203   1.690
 1568SOL    HW1 5456   1.174   3.203   1.778
 1568SOL    HW2 5457   1.079   3.116   1.679
 1569SOL     OW 5458   0.230   3.296   0.538
 1569SOL    HW1 5459   0.204   3.392   0.538
 1569SOL    HW2 5460   0.159   3.242   0.583
 1570SOL     OW 5461   0.240   2.953   0.886
 1570SOL    HW1 5462   0.254   2.869   0.938
 1570SOL    HW2 5463   0.185   3.017   0.941
 1571SOL     OW 5464   0.620   3.648   1.439
 1571SOL    HW1 5465   0.528   3.631   1.474
 1571SOL    HW2 5466   0.648   3.740   1.465
 1572SOL     OW 5467   0.606   2.826   0.123
 1572SOL    HW1 5468   0.613   2.910   0.069
 1572SOL    HW2 5469   0.652   2.839   0.211
 1573SOL     OW 5470   1.594   1.976   1.480
 1573SOL    HW1 5471   1.576   2.043   1.408
 1573SOL    HW2 5472   1.591   2.022   1.569
 1574SOL     OW 5473   0.122   2.505   0.563
 1574SOL    HW1 5474   0.077   2.417   0.580
 1574SOL    HW2 5475   0.121   2.559   0.647
 1575SOL     OW 5476   1.842   3.629   0.359
 1575SOL    HW1 5477   1.896   3.600   0.439
 1575SOL    HW2 5478   1.872   3.719   0.330
 1576SOL     OW 5479   0.027   3.458   0.117
 1576SOL    HW1 5480   0.008   3.362   0.138
 1576SOL    HW2 5481  -0.006   3.516   0.192
 1577SOL     OW 5482   1.689   2.784   0.612
 1577SOL    HW1 5483   1.784   2.755   0.620
 1577SOL    HW2 5484   1.681   2.849   0.537
 1578SOL     OW 5485   1.641   2.970   0.432
 1578SOL    HW1 5486   1.727   2.972   0.380
 1578SOL    HW2 5487   1.655   3.017   0.520
 1579SOL     OW 5488   0.113   2.599   1.597
 1579SOL    HW1 5489   0.201   2.586   1.642
 1579SOL    HW2 5490   0.100   2.696   1.575
 1580SOL     OW 5491   0.613   3.227   0.726
 1580SOL    HW1 5492   0.564   3.140   0.735
 1580SOL    HW2 5493   0.590   3.270   0.639
 1581SOL     OW 5494   1.293   3.090   1.423
 1581SOL    HW1 5495   1.330   3.017   1.365
 1581SOL    HW2 5496   1.345   3.095   1.508
 1582SOL     OW 5497   0.809   1.866   0.502
 1582SOL    HW1 5498   0.849   1.957   0.493
 1582SOL    HW2 5499   0.709   1.874   0.508
 1583SOL     OW 5500   0.197   2.838   1.264
 1583SOL    HW1 5501   0.286   2.793   1.250
 1583SOL    HW2 5502   0.124   2.773   1.245
 1584SOL     OW 5503   1.525   2.861   0.190
 1584SOL    HW1 5504   1.462   2.785   0.203
 1584SOL    HW2 5505   1.573   2.879   0.276
 1585SOL     OW 5506   1.187   3.654   1.616
 1585SOL    HW1 5507   1.211   3.714   1.540
 1585SOL    HW2 5508   1.194   3.559   1.586
 1586SOL     OW 5509   0.317   2.113   1.801
 1586SOL    HW1 5510   0.388   2.184   1.807
 1586SOL    HW2 5511   0.229   2.152   1.829
 1587SOL     OW 5512   1.466   3.279   0.953
 1587SOL    HW1 5513   1.407   3.285   1.033
 1587SOL    HW2 5514   1.451   3.191   0.907
 1588SOL     OW 5515   1.667   3.576   0.572
 1588SOL    HW1 5516   1.626   3.553   0.484
 1588SOL    HW2 5517   1.649   3.502   0.637
 1589SOL     OW 5518   0.598   2.591   0.270
 1589SOL    HW1 5519   0.622   2.660   0.202
 1589SOL    HW2 5520   0.520   2.624   0.324
 1590SOL     OW 5521   1.281   2.207   0.944
 1590SOL    HW1 5522   1.195   2.157   0.931
 1590SOL    HW2 5523   1.343   2.153   1.000
 1591SOL     OW 5524   1.576   3.524   0.307
 1591SOL    HW1 5525   1.665   3.570   0.310
 1591SOL    HW2 5526   1.555   3.500   0.212
 1592SOL     OW 5527   0.807   2.467   1.465
 1592SOL    HW1 5528   0.760   2.464   1.554
 1592SOL    HW2 5529   0.756   2.412   1.399
 1593SOL     OW 5530   1.394   2.331   1.674
 1593SOL    HW1 5531   1.374   2.374   1.762
 1593SOL    HW2 5532   1.472   2.269   1.683
 1594SOL     OW 5533   0.973   2.752   1.572
 1594SOL    HW1 5534   1.019   2.668   1.543
 1594SOL    HW2 5535   0.917   2.786   1.497
 1595SOL     OW 5536   0.991   2.272   1.242
 1595SOL    HW1 5537   0.914   2.306   1.296
 1595SOL    HW2 5538   0.957   2.221   1.163
 1596SOL     OW 5539   1.041   2.563   0.429
 1596SOL    HW1 5540   1.067   2.559   0.525
 1596SOL    HW2 5541   0.956   2.512   0.415
 1597SOL     OW 5542   0.076   2.673   0.789
 1597SOL    HW1 5543   0.175   2.661   0.798
 1597SOL    HW2 5544   0.052   2.768   0.810
 1598SOL     OW 5545   0.130   3.683   1.571
 1598SOL    HW1 5546   0.120   3.668   1.670
 1598SOL    HW2 5547   0.044   3.719   1.535
 1599SOL     OW 5548   0.865   2.210   0.195
 1599SOL    HW1 5549   0.924   2.273   0.146
 1599SOL    HW2 5550   0.884   2.116   0.166
 1600SOL     OW 5551   1.719   2.447   1.831
 1600SOL    HW1 5552   1.693   2.536   1.795
 1600SOL    HW2 5553   1.717   2.379   1.758
 1601SOL     OW 5554   1.362   3.006   0.545
 1601SOL    HW1 5555   1.445   2.977   0.497
 1601SOL    HW2 5556   1.313   3.073   0.489
 1602SOL     OW 5557   0.550   2.058   0.885
 1602SOL    HW1 5558   0.545   2.053   0.985
 1602SOL    HW2 5559   0.552   2.154   0.856
 1603SOL     OW 5560   1.008   3.318   0.477
 1603SOL    HW1 5561   0.962   3.390   0.425
 1603SOL    HW2 5562   1.004   3.338   0.575
 1604SOL     OW 5563   0.351   3.663   0.853
 1604SOL    HW1 5564   0.401   3.577   0.859
 1604SOL    HW2 5565   0.416   3.740   0.850
 1605SOL     OW 5566   1.795   2.928   0.873
 1605SOL    HW1 5567   1.733   2.913   0.797
 1605SOL    HW2 5568   1.743   2.939   0.958
 1606SOL     OW 5569   1.227   3.412   1.506
 1606SOL    HW1 5570   1.233   3.335   1.570
 1606SOL    HW2 5571   1.175   3.386   1.426
 1607SOL     OW 5572   0.321   2.805   0.242
 1607SOL    HW1 5573   0.403   2.844   0.200
 1607SOL    HW2 5574   0.294   2.723   0.193
 1608SOL     OW 5575   1.458   2.597   0.728
 1608SOL    HW1 5576   1.453   2.532   0.803
 1608SOL    HW2 5577   1.538   2.656   0.741
 1609SOL     OW 5578   0.461   3.128   1.727
 1609SOL    HW1 5579   0.411   3.129   1.641
 1609SOL    HW2 5580   0.398   3.110   1.803
 1610SOL     OW 5581   1.111   3.638   0.237
 1610SOL    HW1 5582   1.051   3.576   0.287
 1610SOL    HW2 5583   1.142   3.594   0.152
 1611SOL     OW 5584   0.202   2.147   1.498
 1611SOL    HW1 5585   0.122   2.207   1.485
 1611SOL    HW2 5586   0.192   2.098   1.584
 1612SOL     OW 5587   1.632   3.239   0.081
 1612SOL    HW1 5588   1.600   3.333   0.071
 1612SOL    HW2 5589   1.556   3.176   0.069
 1613SOL     OW 5590   0.464   3.605   0.323
 1613SOL    HW1 5591   0.497   3.644   0.409
 1613SOL    HW2 5592   0.540   3.598   0.258
 1614SOL     OW 5593   1.400   1.969   0.426
 1614SOL    HW1 5594   1.376   1.932   0.336
 1614SOL    HW2 5595   1.499   1.985   0.430
 1615SOL     OW 5596   0.249   3.647   1.241
 1615SOL    HW1 5597   0.306   3.582   1.291
 1615SOL    HW2 5598   0.233   3.614   1.148
 1616SOL     OW 5599   0.940   3.560   0.904
 1616SOL    HW1 5600   1.020   3.503   0.925
 1616SOL    HW2 5601   0.891   3.520   0.827
 1617SOL     OW 5602   0.382   2.562   0.480
 1617SOL    HW1 5603   0.427   2.472   0.477
 1617SOL    HW2 5604   0.288   2.551   0.513
 1618SOL     OW 5605   1.547   2.084   1.729
 1618SOL    HW1 5606   1.542   2.121   1.821
 1618SOL    HW2 5607   1.475   2.015   1.717
 1619SOL     OW 5608   0.781   2.126   1.749
 1619SOL    HW1 5609   0.848   2.065   1.792
 1619SOL    HW2 5610   0.708   2.145   1.814
 1620SOL     OW 5611   0.888   3.376   1.195
 1620SOL    HW1 5612   0.865   3.351   1.101
 1620SOL    HW2 5613   0.949   3.307   1.234
 1621SOL     OW 5614   1.351   2.452   1.433
 1621SOL    HW1 5615   1.379   2.409   1.518
 1621SOL    HW2 5616   1.376   2.548   1.434
 1622SOL     OW 5617   0.803   3.264   0.924
 1622SOL    HW1 5618   0.893   3.278   0.882
 1622SOL    HW2 5619   0.732   3.266   0.853
 1623SOL     OW 5620   0.922   2.365   0.899
 1623SOL    HW1 5621   0.897   2.356   0.803
 1623SOL    HW2 5622   0.970   2.283   0.930
 1624SOL     OW 5623   0.539   1.926   0.512
 1624SOL    HW1 5624   0.458   1.927   0.570
 1624SOL    HW2 5625   0.542   2.009   0.457
 1625SOL     OW 5626   1.434   3.050   0.041
 1625SOL    HW1 5627   1.466   2.974   0.098
 1625SOL    HW2 5628   1.342   3.077   0.071
 1626SOL     OW 5629   0.297   1.897   0.171
 1626SOL    HW1 5630   0.346   1.981   0.150
 1626SOL    HW2 5631   0.359   1.832   0.216
 1627SOL     OW 5632   0.935   2.098   0.480
 1627SOL    HW1 5633   0.887   2.139   0.402
 1627SOL    HW2 5634   1.034   2.096   0.461
 1628SOL     OW 5635   1.076   2.545   1.464
 1628SOL    HW1 5636   0.996   2.484   1.467
 1628SOL    HW2 5637   1.157   2.492   1.440
 1629SOL     OW 5638   1.227   3.432   0.793
 1629SOL    HW1 5639   1.248   3.506   0.728
 1629SOL    HW2 5640   1.295   3.432   0.866
 1630SOL     OW 5641   0.459   3.014   0.741
 1630SOL    HW1 5642   0.388   2.987   0.806
 1630SOL    HW2 5643   0.433   2.986   0.648
 1631SOL     OW 5644   1.271   3.659   0.591
 1631SOL    HW1 5645   1.315   3.723   0.527
 1631SOL    HW2 5646   1.221   3.711   0.661
 1632SOL     OW 5647   1.032   2.411   0.016
 1632SOL    HW1 5648   0.991   2.493  -0.023
 1632SOL    HW2 5649   1.096   2.437   0.089
 1633SOL     OW 5650   0.078   2.418   1.386
 1633SOL    HW1 5651   0.170   2.417   1.345
 1633SOL    HW2 5652   0.072   2.492   1.453
 1634SOL     OW 5653   0.561   2.084   1.147
 1634SOL    HW1 5654   0.599   2.000   1.184
 1634SOL    HW2 5655   0.473   2.103   1.191
 1635SOL     OW 5656   0.866   2.316   0.642
 1635SOL    HW1 5657   0.834   2.388   0.580
 1635SOL    HW2 5658   0.890   2.235   0.589
 1636SOL     OW 5659   1.017   1.901   0.753
 1636SOL    HW1 5660   0.945   1.906   0.684
 1636SOL    HW2 5661   0.993   1.832   0.822
 1637SOL     OW 5662   1.429   3.035   0.867
 1637SOL    HW1 5663   1.374   2.951   0.860
 1637SOL    HW2 5664   1.455   3.064   0.775
 1638SOL     OW 5665   1.466   2.452   0.992
 1638SOL    HW1 5666   1.436   2.357   0.999
 1638SOL    HW2 5667   1.539   2.468   1.058
 1639SOL     OW 5668   1.857   2.695   0.377
 1639SOL    HW1 5669   1.899   2.631   0.441
 1639SOL    HW2 5670   1.819   2.644   0.299
 1640SOL     OW 5671   0.488   3.247   0.174
 1640SOL    HW1 5672   0.401   3.232   0.221
 1640SOL    HW2 5673   0.471   3.273   0.079
 1641SOL     OW 5674   1.664   3.142   0.657
 1641SOL    HW1 5675   1.763   3.150   0.671
 1641SOL    HW2 5676   1.619   3.226   0.688
 1642SOL     OW 5677   1.390   2.437   0.078
 1642SOL    HW1 5678   1.336   2.416   0.159
 1642SOL    HW2 5679   1.481   2.396   0.087
 1643SOL     OW 5680   0.527   2.118   0.328
 1643SOL    HW1 5681   0.554   2.059   0.253
 1643SOL    HW2 5682   0.527   2.213   0.297
 1644SOL     OW 5683   1.754   3.085   1.588
 1644SOL    HW1 5684   1.845   3.046   1.575
 1644SOL    HW2 5685   1.762   3.181   1.612
 1645SOL     OW 5686   1.064   3.209   1.340
 1645SOL    HW1 5687   0.984   3.186   1.395
 1645SOL    HW2 5688   1.147   3.183   1.389
 1646SOL     OW 5689   1.592   3.491   1.625
 1646SOL    HW1 5690   1.619   3.525   1.535
 1646SOL    HW2 5691   1.671   3.453   1.671
 1647SOL     OW 5692   1.111   3.057   1.100
 1647SOL    HW1 5693   1.071   3.101   1.181
 1647SOL    HW2 5694   1.070   3.094   1.017
 1648SOL     OW 5695   1.638   2.961   1.079
 1648SOL    HW1 5696   1.643   3.042   1.138
 1648SOL    HW2 5697   1.552   2.963   1.028
 1649SOL     OW 5698   0.915   1.951   1.402
 1649SOL    HW1 5699   0.940   1.931   1.307
 1649SOL    HW2 5700   0.987   2.007   1.444
 1650SOL     OW 5701   0.980   2.978   1.719
 1650SOL    HW1 5702   0.881   2.984   1.729
 1650SOL    HW2 5703   1.003   2.898   1.663
 1651SOL     OW 5704   0.705   2.912   0.368
 1651SOL    HW1 5705   0.691   2.919   0.467
 1651SOL    HW2 5706   0.789   2.861   0.350
 1652SOL     OW 5707   0.410   2.675   1.251
 1652SOL    HW1 5708   0.496   2.687   1.301
 1652SOL    HW2 5709   0.368   2.588   1.278
 1653SOL     OW 5710   1.274   2.248   1.262
 1653SOL    HW1 5711   1.295   2.322   1.326
 1653SOL    HW2 5712   1.185   2.265   1.219
 1654SOL     OW 5713   0.064   3.426   1.331
 1654SOL    HW1 5714   0.018   3.508   1.297
 1654SOL    HW2 5715   0.162   3.445   1.340
 1655SOL     OW 5716   0.367   2.962   0.501
 1655SOL    HW1 5717   0.360   3.045   0.445
 1655SOL    HW2 5718   0.371   2.882   0.441
 1656SOL     OW 5719   0.566   2.399   0.865
 1656SOL    HW1 5720   0.578   2.465   0.791
 1656SOL    HW2 5721   0.612   2.433   0.948
 1657SOL     OW 5722   1.252   3.210   0.388
 1657SOL    HW1 5723   1.302   3.287   0.428
 1657SOL    HW2 5724   1.157   3.212   0.420
 1658SOL     OW 5725   1.272   3.307   1.142
 1658SOL    HW1 5726   1.319   3.320   1.229
 1658SOL    HW2 5727   1.206   3.233   1.151
 1659SOL     OW 5728   1.582   2.501   0.472
 1659SOL    HW1 5729   1.551   2.562   0.545
 1659SOL    HW2 5730   1.632   2.553   0.403
 1660SOL     OW 5731   0.354   3.372   1.329
 1660SOL    HW1 5732   0.333   3.328   1.242
 1660SOL    HW2 5733   0.451   3.398   1.332
 1661SOL     OW 5734   0.402   2.613   1.598
 1661SOL    HW1 5735   0.470   2.668   1.551
 1661SOL    HW2 5736   0.442   2.525   1.625
 1662SOL     OW 5737   1.587   2.641   1.670
 1662SOL    HW1 5738   1.495   2.679   1.665
 1662SOL    HW2 5739   1.647   2.688   1.605
 1663SOL     OW 5740   1.013   1.967   1.770
 1663SOL    HW1 5741   1.019   2.052   1.718
 1663SOL    HW2 5742   1.045   1.891   1.713
 1664SOL     OW 5743   0.504   1.912   1.740
 1664SOL    HW1 5744   0.462   1.855   1.670
 1664SOL    HW2 5745   0.438   1.981   1.772
 1665SOL     OW 5746   0.573   2.732   1.029
 1665SOL    HW1 5747   0.617   2.821   1.020
 1665SOL    HW2 5748   0.510   2.732   1.106
 1666SOL     OW 5749   1.360   2.724   1.045
 1666SOL    HW1 5750   1.285   2.724   0.979
 1666SOL    HW2 5751   1.397   2.632   1.054
 1667SOL     OW 5752   1.209   2.387   0.275
 1667SOL    HW1 5753   1.222   2.303   0.329
 1667SOL    HW2 5754   1.180   2.461   0.335
 1668SOL     OW 5755   0.307   2.075   1.231
 1668SOL    HW1 5756   0.284   2.112   1.321
 1668SOL    HW2 5757   0.277   1.980   1.225
 1669SOL     OW 5758   0.037   3.172   1.282
 1669SOL    HW1 5759   0.090   3.123   1.350
 1669SOL    HW2 5760   0.059   3.270   1.287
 1670SOL     OW 5761   0.732   2.496   1.064
 1670SOL    HW1 5762   0.791   2.470   0.988
 1670SOL    HW2 5763   0.704   2.592   1.053
 1671SOL     OW 5764   1.728   2.797   1.854
 1671SOL    HW1 5765   1.682   2.790   1.765
 1671SOL    HW2 5766   1.666   2.841   1.920
 1672SOL     OW 5767   0.307   1.925   0.618
 1672SOL    HW1 5768   0.296   2.019   0.651
 1672SOL    HW2 5769   0.302   1.862   0.695
 1673SOL     OW 5770   1.622   2.229   0.374
 1673SOL    HW1 5771   1.624   2.153   0.438
 1673SOL    HW2 5772   1.574   2.306   0.414
 1674SOL     OW 5773   1.023   2.628   0.966
 1674SOL    HW1 5774   1.038   2.649   1.062
 1674SOL    HW2 5775   0.993   2.533   0.957
 1675SOL     OW 5776   0.980   3.435   1.700
 1675SOL    HW1 5777   0.960   3.479   1.612
 1675SOL    HW2 5778   1.019   3.344   1.684
 1676SOL     OW 5779   1.859   3.380   1.605
 1676SOL    HW1 5780   1.873   3.407   1.510
 1676SOL    HW2 5781   1.942   3.402   1.658
 1677SOL     OW 5782   0.350   2.760   1.804
 1677SOL    HW1 5783   0.426   2.804   1.852
 1677SOL    HW2 5784   0.385   2.713   1.722
 1678SOL     OW 5785   1.540   2.136   0.125
 1678SOL    HW1 5786   1.479   2.061   0.148
 1678SOL    HW2 5787   1.562   2.188   0.208
 1679SOL     OW 5788   1.303   2.700   0.042
 1679SOL    HW1 5789   1.337   2.607   0.057
 1679SOL    HW2 5790   1.321   2.727  -0.053
 1680SOL     OW 5791   1.068   3.195   0.849
 1680SOL    HW1 5792   1.075   3.111   0.794
 1680SOL    HW2 5793   1.130   3.264   0.813
 1681SOL     OW 5794   0.319   2.672   0.949
 1681SOL    HW1 5795   0.412   2.708   0.954
 1681SOL    HW2 5796   0.313   2.587   1.001
 1682SOL     OW 5797   0.339   2.371   1.006
 1682SOL    HW1 5798   0.287   2.288   0.989
 1682SOL    HW2 5799   0.416   2.376   0.942
 1683SOL     OW 5800   1.138   2.242   1.678
 1683SOL    HW1 5801   1.093   2.305   1.742
 1683SOL    HW2 5802   1.231   2.273   1.661
 1684SOL     OW 5803   1.160   2.069   1.477
 1684SOL    HW1 5804   1.160   2.133   1.554
 1684SOL    HW2 5805   1.188   2.117   1.394
 1685SOL     OW 5806   0.008   3.188   0.200
 1685SOL    HW1 5807  -0.085   3.209   0.169
 1685SOL    HW2 5808   0.018   3.089   0.213
 1686SOL     OW 5809   0.088   3.663   0.927
 1686SOL    HW1 5810   0.046   3.577   0.900
 1686SOL    HW2 5811   0.182   3.666   0.893
 1687SOL     OW 5812   0.504   3.430   0.910
 1687SOL    HW1 5813   0.570   3.504   0.919
 1687SOL    HW2 5814   0.548   3.351   0.868
 1688SOL     OW 5815   1.002   2.658   1.238
 1688SOL    HW1 5816   1.043   2.626   1.324
 1688SOL    HW2 5817   0.906   2.631   1.235
 1689SOL     OW 5818   0.040   2.406   1.114
 1689SOL    HW1 5819   0.125   2.373   1.073
 1689SOL    HW2 5820   0.053   2.421   1.212
 1690SOL     OW 5821   0.189   2.382   1.722
 1690SOL    HW1 5822   0.248   2.342   1.652
 1690SOL    HW2 5823   0.131   2.453   1.681
 1691SOL     OW 5824   1.369   2.812   1.660
 1691SOL    HW1 5825   1.408   2.901   1.680
 1691SOL    HW2 5826   1.379   2.792   1.563
 1692SOL     OW 5827   0.815   2.434   0.325
 1692SOL    HW1 5828   0.822   2.345   0.279
 1692SOL    HW2 5829   0.721   2.468   0.317
 1693SOL     OW 5830   1.657   2.466   1.206
 1693SOL    HW1 5831   1.619   2.397   1.268
 1693SOL    HW2 5832   1.739   2.430   1.162
 1694SOL     OW 5833   0.252   3.426   1.744
 1694SOL    HW1 5834   0.222   3.483   1.820
 1694SOL    HW2 5835   0.245   3.329   1.770
 1695SOL     OW 5836   0.671   2.326   1.269
 1695SOL    HW1 5837   0.637   2.237   1.239
 1695SOL    HW2 5838   0.697   2.380   1.189
 1696SOL     OW 5839   0.930   3.540   1.465
 1696SOL    HW1 5840   0.906   3.522   1.370
 1696SOL    HW2 5841   0.960   3.634   1.475
 1697SOL     OW 5842   0.473   2.362   0.191
 1697SOL    HW1 5843   0.534   2.442   0.195
 1697SOL    HW2 5844   0.378   2.393   0.198
 1698SOL     OW 5845   0.159   2.999   1.466
 1698SOL    HW1 5846   0.181   2.938   1.542
 1698SOL    HW2 5847   0.169   2.950   1.380
 1699SOL     OW 5848   1.347   2.921   1.234
 1699SOL    HW1 5849   1.371   2.858   1.160
 1699SOL    HW2 5850   1.257   2.961   1.216
 1700SOL     OW 5851   1.302   2.717   0.309
 1700SOL    HW1 5852   1.216   2.686   0.351
 1700SOL    HW2 5853   1.298   2.703   0.210
 1701SOL     OW 5854   1.759   3.609   1.154
 1701SOL    HW1 5855   1.820   3.639   1.081
 1701SOL    HW2 5856   1.721   3.520   1.132
 1702SOL     OW 5857   1.252   3.593   1.128
 1702SOL    HW1 5858   1.336   3.598   1.074
 1702SOL    HW2 5859   1.229   3.497   1.146
 1703SOL     OW 5860   0.083   3.120   1.022
 1703SOL    HW1 5861   0.078   3.119   1.122
 1703SOL    HW2 5862   0.000   3.079   0.984
 1704SOL     OW 5863   0.688   3.524   1.716
 1704SOL    HW1 5864   0.632   3.605   1.725
 1704SOL    HW2 5865   0.740   3.528   1.630
 1705SOL     OW 5866   0.903   1.948   0.133
 1705SOL    HW1 5867   0.954   1.949   0.047
 1705SOL    HW2 5868   0.959   1.906   0.204
 1706SOL     OW 5869   1.388   3.435   0.477
 1706SOL    HW1 5870   1.455   3.447   0.403
 1706SOL    HW2 5871   1.348   3.524   0.500
 1707SOL     OW 5872   0.130   3.656   1.851
 1707SOL    HW1 5873   0.089   3.582   1.904
 1707SOL    HW2 5874   0.194   3.707   1.909
 1708SOL     OW 5875   1.280   2.789   0.672
 1708SOL    HW1 5876   1.340   2.708   0.674
 1708SOL    HW2 5877   1.320   2.858   0.612
 1709SOL     OW 5878   0.830   3.135   1.422
 1709SOL    HW1 5879   0.825   3.168   1.517
 1709SOL    HW2 5880   0.744   3.154   1.376
 1710SOL     OW 5881   0.672   3.478   0.154
 1710SOL    HW1 5882   0.681   3.488   0.055
 1710SOL    HW2 5883   0.632   3.389   0.175
 1711SOL     OW 5884   1.650   3.582   1.394
 1711SOL    HW1 5885   1.703   3.592   1.310
 1711SOL    HW2 5886   1.623   3.672   1.428
 1712SOL     OW 5887   0.263   2.188   0.720
 1712SOL    HW1 5888   0.184   2.239   0.686
 1712SOL    HW2 5889   0.254   2.173   0.818
 1713SOL     OW 5890   1.194   3.474   0.031
 1713SOL    HW1 5891   1.200   3.381   0.068
 1713SOL    HW2 5892   1.135   3.474  -0.049
 1714SOL     OW 5893   0.822   2.864   1.372
 1714SOL    HW1 5894   0.862   2.863   1.280
 1714SOL    HW2 5895   0.832   2.956   1.412
 1715SOL     OW 5896   0.916   2.772   0.291
 1715SOL    HW1 5897   0.979   2.810   0.223
 1715SOL    HW2 5898   0.956   2.689   0.330
 1716SOL     OW 5899   1.504   3.469   0.044
 1716SOL    HW1 5900   1.412   3.506   0.051
 1716SOL    HW2 5901   1.542   3.489  -0.046
 1717SOL     OW 5902   0.372   3.150   1.490
 1717SOL    HW1 5903   0.359   3.243   1.456
 1717SOL    HW2 5904   0.288   3.098   1.477
 1718SOL     OW 5905   1.614   3.154   1.289
 1718SOL    HW1 5906   1.674   3.157   1.369
 1718SOL    HW2 5907   1.539   3.218   1.302
 1719SOL     OW 5908   1.039   2.960   0.696
 1719SOL    HW1 5909   0.969   2.913   0.750
 1719SOL    HW2 5910   1.098   2.892   0.653
 1720SOL     OW 5911   1.014   2.098   0.971
 1720SOL    HW1 5912   1.006   2.062   0.878
 1720SOL    HW2 5913   1.012   2.022   1.036
 1721SOL     OW 5914   0.590   3.349   0.491
 1721SOL    HW1 5915   0.632   3.291   0.421
 1721SOL    HW2 5916   0.546   3.428   0.447
 1722SOL     OW 5917   1.709   2.247   1.381
 1722SOL    HW1 5918   1.782   2.316   1.385
 1722SOL    HW2 5919   1.737   2.172   1.322
 1723SOL     OW 5920   0.255   3.210   0.290
 1723SOL    HW1 5921   0.159   3.211   0.263
 1723SOL    HW2 5922   0.267   3.263   0.374
 1724SOL     OW 5923   0.105   2.875   1.726
 1724SOL    HW1 5924   0.028   2.842   1.780
 1724SOL    HW2 5925   0.190   2.845   1.768
 1725SOL     OW 5926   0.672   2.065   1.489
 1725SOL    HW1 5927   0.762   2.049   1.449
 1725SOL    HW2 5928   0.680   2.070   1.588
 1726SOL     OW 5929   0.075   2.207   0.033
 1726SOL    HW1 5930  -0.017   2.179   0.004
 1726SOL    HW2 5931   0.106   2.284  -0.023
 1727SOL     OW 5932   1.440   2.718   1.398
 1727SOL    HW1 5933   1.383   2.770   1.335
 1727SOL    HW2 5934   1.536   2.730   1.374
 1728SOL     OW 5935   0.072   2.028   0.318
 1728SOL    HW1 5936   0.055   2.111   0.264
 1728SOL    HW2 5937   0.162   1.991   0.296
 1729SOL     OW 5938   1.183   3.197   0.119
 1729SOL    HW1 5939   1.084   3.186   0.121
 1729SOL    HW2 5940   1.217   3.212   0.212
 1730SOL     OW 5941   0.613   2.704   1.431
 1730SOL    HW1 5942   0.669   2.785   1.414
 1730SOL    HW2 5943   0.672   2.624   1.434
 1731SOL     OW 5944   1.493   3.629   0.959
 1731SOL    HW1 5945   1.526   3.693   0.890
 1731SOL    HW2 5946   1.559   3.623   1.034
 1732SOL     OW 5947   0.716   2.427   1.708
 1732SOL    HW1 5948   0.735   2.492   1.782
 1732SOL    HW2 5949   0.776   2.347   1.717
 1733SOL     OW 5950   1.450   3.082   1.633
 1733SOL    HW1 5951   1.441   3.072   1.732
 1733SOL    HW2 5952   1.546   3.075   1.607
 1734SOL     OW 5953   0.390   3.603   1.560
 1734SOL    HW1 5954   0.299   3.644   1.558
 1734SOL    HW2 5955   0.383   3.509   1.592
 1735SOL     OW 5956   1.674   2.745   1.254
 1735SOL    HW1 5957   1.647   2.656   1.217
 1735SOL    HW2 5958   1.675   2.813   1.181
 1736SOL     OW 5959   1.225   2.187   0.449
 1736SOL    HW1 5960   1.290   2.113   0.438
 1736SOL    HW2 5961   1.245   2.237   0.533
 1737SOL     OW 5962   0.594   2.607   0.652
 1737SOL    HW1 5963   0.644   2.692   0.633
 1737SOL    HW2 5964   0.506   2.609   0.604
 1738SOL     OW 5965   1.777   2.204   1.642
 1738SOL    HW1 5966   1.760   2.235   1.548
 1738SOL    HW2 5967   1.693   2.167   1.680
 1739SOL     OW 5968   1.730   2.796   1.517
 1739SOL    HW1 5969   1.768   2.887   1.532
 1739SOL    HW2 5970   1.722   2.779   1.418
 1740SOL     OW 5971   0.859   3.236   0.016
 1740SOL    HW1 5972   0.813   3.251   0.104
 1740SOL    HW2 5973   0.903   3.321  -0.014
 1741SOL     OW 5974   0.661   3.652   0.953
 1741SOL    HW1 5975   0.615   3.740   0.940
 1741SOL    HW2 5976   0.760   3.664   0.946
 1742SOL     OW 5977   0.859   2.818   0.861
 1742SOL    HW1 5978   0.913   2.749   0.909
 1742SOL    HW2 5979   0.827   2.887   0.927
 1743SOL     OW 5980   1.083   2.846   0.087
 1743SOL    HW1 5981   1.060   2.899   0.005
 1743SOL    HW2 5982   1.164   2.790   0.068
 1744SOL     OW 5983   1.861   3.431   0.851
 1744SOL    HW1 5984   1.790   3.419   0.781
 1744SOL    HW2 5985   1.862   3.352   0.911
 1745SOL     OW 5986   0.221   3.176   1.844
 1745SOL    HW1 5987   0.156   3.103   1.823
 1745SOL    HW2 5988   0.225   3.190   1.942
 1746SOL     OW 5989   0.079   3.102   0.653
 1746SOL    HW1 5990   0.078   3.055   0.741
 1746SOL    HW2 5991   0.161   3.074   0.602
 1747SOL     OW 5992   0.672   3.253   1.624
 1747SOL    HW1 5993   0.594   3.203   1.662
 1747SOL    HW2 5994   0.669   3.348   1.655
 1748SOL     OW 5995   0.428   2.286   0.520
 1748SOL    HW1 5996   0.458   2.214   0.458
 1748SOL    HW2 5997   0.389   2.246   0.603
 1749SOL     OW 5998   1.705   3.349   1.104
 1749SOL    HW1 5999   1.612   3.324   1.077
 1749SOL    HW2 6000   1.731   3.299   1.186
 1750SOL     OW 6001   0.317   2.409   1.280
 1750SOL    HW1 6002   0.355   2.350   1.352
 1750SOL    HW2 6003   0.357   2.383   1.192
 1751SOL     OW 6004   0.812   3.448   0.687
 1751SOL    HW1 6005   0.844   3.458   0.593
 1751SOL    HW2 6006   0.733   3.386   0.689
 1752SOL     OW 6007   1.424   2.076   1.112
 1752SOL    HW1 6008   1.476   2.011   1.167
 1752SOL    HW2 6009   1.375   2.139   1.173
 1753SOL     OW 6010   1.001   1.896   1.154
 1753SOL    HW1 6011   0.938   1.824   1.123
 1753SOL    HW2 6012   1.094   1.860   1.154
 1754SOL     OW 6013   0.770   3.192   0.301
 1754SOL    HW1 6014   0.724   3.105   0.318
 1754SOL    HW2 6015   0.861   3.189   0.342
 1755SOL     OW 6016   0.618   3.429   1.284
 1755SOL    HW1 6017   0.613   3.511   1.341
 1755SOL    HW2 6018   0.707   3.426   1.239
 1756SOL     OW 6019   1.352   1.914   0.168
 1756SOL    HW1 6020   1.387   1.873   0.084
 1756SOL    HW2 6021   1.262   1.876   0.188
 1757SOL     OW 6022   1.300   2.315   0.691
 1757SOL    HW1 6023   1.241   2.395   0.695
 1757SOL    HW2 6024   1.315   2.280   0.784
 1758SOL     OW 6025   1.593   2.083   0.882
 1758SOL    HW1 6026   1.509   2.082   0.936
 1758SOL    HW2 6027   1.595   2.166   0.826
 1759SOL     OW 6028   0.039   2.939   0.300
 1759SOL    HW1 6029   0.138   2.928   0.291
 1759SOL    HW2 6030  -0.001   2.853   0.332
 1760SOL     OW 6031   0.875   3.508   0.337
 1760SOL    HW1 6032   0.798   3.473   0.283
 1760SOL    HW2 6033   0.843   3.579   0.399
 1761SOL     OW 6034   0.230   2.490   1.975
 1761SOL    HW1 6035   0.137   2.488   2.012
 1761SOL    HW2 6036   0.231   2.451   1.883
 1762SOL     OW 6037   0.225   2.137   2.858
 1762SOL    HW1 6038   0.260   2.120   2.950
 1762SOL    HW2 6039   0.137   2.092   2.846
 1763SOL     OW 6040   0.019   2.230   2.509
 1763SOL    HW1 6041  -0.063   2.273   2.548
 1763SOL    HW2 6042  -0.009   2.157   2.446
 1764SOL     OW 6043   0.569   3.137   3.027
 1764SOL    HW1 6044   0.476   3.130   2.990
 1764SOL    HW2 6045   0.580   3.226   3.071
 1765SOL     OW 6046   1.555   3.373   2.565
 1765SOL    HW1 6047   1.498   3.357   2.646
 1765SOL    HW2 6048   1.496   3.383   2.485
 1766SOL     OW 6049   1.135   2.565   2.579
 1766SOL    HW1 6050   1.192   2.643   2.554
 1766SOL    HW2 6051   1.075   2.591   2.655
 1767SOL     OW 6052   1.755   2.469   2.093
 1767SOL    HW1 6053   1.743   2.456   1.994
 1767SOL    HW2 6054   1.725   2.388   2.142
 1768SOL     OW 6055   0.768   3.006   2.885
 1768SOL    HW1 6056   0.690   3.023   2.945
 1768SOL    HW2 6057   0.802   3.093   2.849
 1769SOL     OW 6058   0.850   2.660   3.685
 1769SOL    HW1 6059   0.846   2.736   3.750
 1769SOL    HW2 6060   0.872   2.696   3.594
 1770SOL     OW 6061   0.685   2.874   2.527
 1770SOL    HW1 6062   0.754   2.858   2.597
 1770SOL    HW2 6063   0.612   2.931   2.565
 1771SOL     OW 6064   0.686   3.023   3.665
 1771SOL    HW1 6065   0.746   3.102   3.679
 1771SOL    HW2 6066   0.600   3.054   3.624
 1772SOL     OW 6067   0.335   3.297   2.923
 1772SOL    HW1 6068   0.257   3.266   2.870
 1772SOL    HW2 6069   0.393   3.355   2.866
 1773SOL     OW 6070   1.460   3.367   3.201
 1773SOL    HW1 6071   1.484   3.461   3.227
 1773SOL    HW2 6072   1.444   3.313   3.283
 1774SOL     OW 6073   0.438   2.254   3.361
 1774SOL    HW1 6074   0.520   2.198   3.370
 1774SOL    HW2 6075   0.357   2.196   3.365
 1775SOL     OW 6076   1.603   2.309   2.599
 1775SOL    HW1 6077   1.529   2.355   2.549
 1775SOL    HW2 6078   1.654   2.377   2.652
 1776SOL     OW 6079   0.231   3.575   2.345
 1776SOL    HW1 6080   0.265   3.652   2.399
 1776SOL    HW2 6081   0.275   3.575   2.255
 1777SOL     OW 6082   1.127   3.203   3.552
 1777SOL    HW1 6083   1.174   3.203   3.640
 1777SOL    HW2 6084   1.079   3.116   3.541
 1778SOL     OW 6085   0.230   3.296   2.400
 1778SOL    HW1 6086   0.204   3.392   2.400
 1778SOL    HW2 6087   0.159   3.242   2.445
 1779SOL     OW 6088   0.240   2.953   2.748
 1779SOL    HW1 6089   0.254   2.869   2.800
 1779SOL    HW2 6090   0.185   3.017   2.803
 1780SOL     OW 6091   0.620   3.648   3.301
 1780SOL    HW1 6092   0.528   3.631   3.336
 1780SOL    HW2 6093   0.648   3.740   3.327
 1781SOL     OW 6094   0.606   2.826   1.985
 1781SOL    HW1 6095   0.613   2.910   1.931
 1781SOL    HW2 6096   0.652   2.839   2.073
 1782SOL     OW 6097   1.594   1.976   3.342
 1782SOL    HW1 6098   1.576   2.043   3.270
 1782SOL    HW2 6099   1.591   2.022   3.431
 1783SOL     OW 6100   0.122   2.505   2.425
 1783SOL    HW1 6101   0.077   2.417   2.442
 1783SOL    HW2 6102   0.121   2.559   2.509
 1784SOL     OW 6103   1.842   3.629   2.221
 1784SOL    HW1 6104   1.896   3.600   2.301
 1784SOL    HW2 6105   1.872   3.719   2.192
 1785SOL     OW 6106   0.027   3.458   1.979
 1785SOL    HW1 6107   0.008   3.362   2.000
 1785SOL    HW2 6108  -0.006   3.516   2.054
 1786SOL     OW 6109   1.689   2.784   2.474
 1786SOL    HW1 6110   1.784   2.755   2.482
 1786SOL    HW2 6111   1.681   2.849   2.399
 1787SOL     OW 6112   1.641   2.970   2.294
 1787SOL    HW1 6113   1.727   2.972   2.242
 1787SOL    HW2 6114   1.655   3.017   2.382
 1788SOL     OW 6115   0.113   2.599   3.459
 1788SOL    HW1 6116   0.201   2.586   3.504
 1788SOL    HW2 6117   0.100   2.696   3.437
 1789SOL     OW 6118   0.613   3.227   2.588
 1789SOL    HW1 6119   0.564   3.140   2.597
 1789SOL    HW2 6120   0.590   3.270   2.501
 1790SOL     OW 6121   1.293   3.090   3.285
 1790SOL    HW1 6122   1.330   3.017   3.227
 1790SOL    HW2 6123   1.345   3.095   3.370
 1791SOL     OW 6124   0.809   1.866   2.364
 1791SOL    HW1 6125   0.849   1.957   2.355
 1791SOL    HW2 6126   0.709   1.874   2.370
 1792SOL     OW 6127   0.197   2.838   3.126
 1792SOL    HW1 6128   0.286   2.793   3.112
 1792SOL    HW2 6129   0.124   2.773   3.107
 1793SOL     OW 6130   1.525   2.861   2.052
 1793SOL    HW1 6131   1.462   2.785   2.065
 1793SOL    HW2 6132   1.573   2.879   2.138
 1794SOL     OW 6133   1.187   3.654   3.478
 1794SOL    HW1 6134   1.211   3.714   3.402
 1794SOL    HW2 6135   1.194   3.559   3.448
 1795SOL     OW 6136   0.317   2.113   3.663
 1795SOL    HW1 6137   0.388   2.184   3.669
 1795SOL    HW2 6138   0.229   2.152   3.691
 1796SOL     OW 6139   1.466   3.279   2.815
 1796SOL    HW1 6140   1.407   3.285   2.895
 1796SOL    HW2 6141   1.451   3.191   2.769
 1797SOL     OW 6142   1.667   3.576   2.434
 1797SOL    HW1 6143   1.626   3.553   2.346
 1797SOL    HW2 6144   1.649   3.502   2.499
 1798SOL     OW 6145   0.598   2.591   2.132
 1798SOL    HW1 6146   0.622   2.660   2.064
 1798SOL    HW2 6147   0.520   2.624   2.186
 1799SOL     OW 6148   1.281   2.207   2.806
 1799SOL    HW1 6149   1.195   2.157   2.793
 1799SOL    HW2 6150   1.343   2.153   2.862
 1800SOL     OW 6151   1.576   3.524   2.169
 1800SOL    HW1 6152   1.665   3.570   2.172
 1800SOL    HW2 6153   1.555   3.500   2.074
 1801SOL     OW 6154   0.807   2.467   3.327
 1801SOL    HW1 6155   0.760   2.464   3.416
 1801SOL    HW2 6156   0.756   2.412   3.261
 1802SOL     OW 6157   1.394   2.331   3.536
 1802SOL    HW1 6158   1.374   2.374   3.624
 1802SOL    HW2 6159   1.472   2.269   3.545
 1803SOL     OW 6160   0.973   2.752   3.434
 1803SOL    HW1 6161   1.019   2.668   3.405
 1803SOL    HW2 6162   0.917   2.786   3.359
 1804SOL     OW 6163   0.991   2.272   3.104
 1804SOL    HW1 6164   0.914   2.306   3.158
 1804SOL    HW2 6165   0.957   2.221   3.025
 1805SOL     OW 6166   1.041   2.563   2.291
 1805SOL    HW1 6167   1.067   2.559   2.387
 1805SOL    HW2 6168   0.956   2.512   2.277
 1806SOL     OW 6169   0.076   2.673   2.651
 1806SOL    HW1 6170   0.175   2.661   2.660
 1806SOL    HW2 6171   0.052   2.768   2.672
 1807SOL     OW 6172   0.130   3.683   3.433
 1807SOL    HW1 6173   0.120   3.668   3.532
 1807SOL    HW2 6174   0.044   3.719   3.397
 1808SOL     OW 6175   0.865   2.210   2.057
 1808SOL    HW1 6176   0.924   2.273   2.008
 1808SOL    HW2 6177   0.884   2.116   2.028
 1809SOL     OW 6178   1.719   2.447   3.693
 1809SOL    HW1 6179   1.693   2.536   3.657
 1809SOL    HW2 6180   1.717   2.379   3.620
 1810SOL     OW 6181   1.362   3.006   2.407
 1810SOL    HW1 6182   1.445   2.977   2.359
 1810SOL    HW2 6183   1.313   3.073   2.351
 1811SOL     OW 6184   0.550   2.058   2.747
 1811SOL    HW1 6185   0.545   2.053   2.847
 1811SOL    HW2 6186   0.552   2.154   2.718
 1812SOL     OW 6187   1.008   3.318   2.339
 1812SOL    HW1 6188   0.962   3.390   2.287
 1812SOL    HW2 6189   1.004   3.338   2.437
 1813SOL     OW 6190   0.351   3.663   2.715
 1813SOL    HW1 6191   0.401   3.577   2.721
 1813SOL    HW2 6192   0.416   3.740   2.712
 1814SOL     OW 6193   1.795   2.928   2.735
 1814SOL    HW1 6194   1.733   2.913   2.659
 1814SOL    HW2 6195   1.743   2.939   2.820
 1815SOL     OW 6196   1.227   3.412   3.368
 1815SOL    HW1 6197   1.233   3.335   3.432
 1815SOL    HW2 6198   1.175   3.386   3.288
 1816SOL     OW 6199   0.321   2.805   2.104
 1816SOL    HW1 6200   0.403   2.844   2.062
 1816SOL    HW2 6201   0.294   2.723   2.055
 1817SOL     OW 6202   1.458   2.597   2.590
 1817SOL    HW1 6203   1.453   2.532   2.665
 1817SOL    HW2 6204   1.538   2.656   2.603
 1818SOL     OW 6205   0.461   3.128   3.589
 1818SOL    HW1 6206   0.411   3.129   3.503
 1818SOL    HW2 6207   0.398   3.110   3.665
 1819SOL     OW 6208   1.111   3.638   2.099
 1819SOL    HW1 6209   1.051   3.576   2.149
 1819SOL    HW2 6210   1.142   3.594   2.014
 1820SOL     OW 6211   0.202   2.147   3.360
 1820SOL    HW1 6212   0.122   2.207   3.347
 1820SOL    HW2 6213   0.192   2.098   3.446
 1821SOL     OW 6214   1.632   3.239   1.943
 1821SOL    HW1 6215   1.600   3.333   1.933
 1821SOL    HW2 6216   1.556   3.176   1.931
 1822SOL     OW 6217   0.464   3.605   2.185
 1822SOL    HW1 6218   0.497   3.644   2.271
 1822SOL    HW2 6219   0.540   3.598   2.120
 1823SOL     OW 6220   1.400   1.969   2.288
 1823SOL    HW1 6221   1.376   1.932   2.198
 1823SOL    HW2 6222   1.499   1.985   2.292
 1824SOL     OW 6223   0.249   3.647   3.103
 1824SOL    HW1 6224   0.306   3.582   3.153
 1824SOL    HW2 6225   0.233   3.614   3.010
 1825SOL     OW 6226   0.940   3.560   2.766
 1825SOL    HW1 6227   1.020   3.503   2.787
 1825SOL    HW2 6228   0.891   3.520   2.689
 1826SOL     OW 6229   0.382   2.562   2.342
 1826SOL    HW1 6230   0.427   2.472   2.339
 1826SOL    HW2 6231   0.288   2.551   2.375
 1827SOL     OW 6232   1.547   2.084   3.591
 1827SOL    HW1 6233   1.542   2.121   3.683
 1827SOL    HW2 6234   1.475   2.015   3.579
 1828SOL     OW 6235   0.614   1.984   1.979
 1828SOL    HW1 6236   0.712   1.962   1.986
 1828SOL    HW2 6237   0.583   1.967   1.886
 1829SOL     OW 6238   0.781   2.126   3.611
 1829SOL    HW1 6239   0.848   2.065   3.654
 1829SOL    HW2 6240   0.708   2.145   3.676
 1830SOL     OW 6241   0.888   3.376   3.057
 1830SOL    HW1 6242   0.865   3.351   2.963
 1830SOL    HW2 6243   0.949   3.307   3.096
 1831SOL     OW 6244   1.351   2.452   3.295
 1831SOL    HW1 6245   1.379   2.409   3.380
 1831SOL    HW2 6246   1.376   2.548   3.296
 1832SOL     OW 6247   0.803   3.264   2.786
 1832SOL    HW1 6248   0.893   3.278   2.744
 1832SOL    HW2 6249   0.732   3.266   2.715
 1833SOL     OW 6250   0.922   2.365   2.761
 1833SOL    HW1 6251   0.897   2.356   2.665
 1833SOL    HW2 6252   0.970   2.283   2.792
 1834SOL     OW 6253   0.539   1.926   2.374
 1834SOL    HW1 6254   0.458   1.927   2.432
 1834SOL    HW2 6255   0.542   2.009   2.319
 1835SOL     OW 6256   1.434   3.050   1.903
 1835SOL    HW1 6257   1.466   2.974   1.960
 1835SOL    HW2 6258   1.342   3.077   1.933
 1836SOL     OW 6259   0.297   1.897   2.033
 1836SOL    HW1 6260   0.346   1.981   2.012
 1836SOL    HW2 6261   0.359   1.832   2.078
 1837SOL     OW 6262   0.935   2.098   2.342
 1837SOL    HW1 6263   0.887   2.139   2.264
 1837SOL    HW2 6264   1.034   2.096   2.323
 1838SOL     OW 6265   1.076   2.545   3.326
 1838SOL    HW1 6266   0.996   2.484   3.329
 1838SOL    HW2 6267   1.157   2.492   3.302
 1839SOL     OW 6268   1.227   3.432   2.655
 1839SOL    HW1 6269   1.248   3.506   2.590
 1839SOL    HW2 6270   1.295   3.432   2.728
 1840SOL     OW 6271   0.459   3.014   2.603
 1840SOL    HW1 6272   0.388   2.987   2.668
 1840SOL    HW2 6273   0.433   2.986   2.510
 1841SOL     OW 6274   1.271   3.659   2.453
 1841SOL    HW1 6275   1.315   3.723   2.389
 1841SOL    HW2 6276   1.221   3.711   2.523
 1842SOL     OW 6277   1.032   2.411   1.878
 1842SOL    HW1 6278   0.991   2.493   1.839
 1842SOL    HW2 6279   1.096   2.437   1.951
 1843SOL     OW 6280   0.078   2.418   3.248
 1843SOL    HW1 6281   0.170   2.417   3.207
 1843SOL    HW2 6282   0.072   2.492   3.315
 1844SOL     OW 6283   0.561   2.084   3.009
 1844SOL    HW1 6284   0.599   2.000   3.046
 1844SOL    HW2 6285   0.473   2.103   3.053
 1845SOL     OW 6286   0.866   2.316   2.504
 1845SOL    HW1 6287   0.834   2.388   2.442
 1845SOL    HW2 6288   0.890   2.235   2.451
 1846SOL     OW 6289   1.017   1.901   2.615
 1846SOL    HW1 6290   0.945   1.906   2.546
 1846SOL    HW2 6291   0.993   1.832   2.684
 1847SOL     OW 6292   1.429   3.035   2.729
 1847SOL    HW1 6293   1.374   2.951   2.722
 1847SOL    HW2 6294   1.455   3.064   2.637
 1848SOL     OW 6295   1.466   2.452   2.854
 1848SOL    HW1 6296   1.436   2.357   2.861
 1848SOL    HW2 6297   1.539   2.468   2.920
 1849SOL     OW 6298   1.857   2.695   2.239
 1849SOL    HW1 6299   1.899   2.631   2.303
 1849SOL    HW2 6300   1.819   2.644   2.161
 1850SOL     OW 6301   0.488   3.247   2.036
 1850SOL    HW1 6302   0.401   3.232   2.083
 1850SOL    HW2 6303   0.471   3.273   1.941
 1851SOL     OW 6304   1.664   3.142   2.519
 1851SOL    HW1 6305   1.763   3.150   2.533
 1851SOL    HW2 6306   1.619   3.226   2.550
 1852SOL     OW 6307   1.390   2.437   1.940
 1852SOL    HW1 6308   1.336   2.416   2.021
 1852SOL    HW2 6309   1.481   2.396   1.949
 1853SOL     OW 6310   0.527   2.118   2.190
 1853SOL    HW1 6311   0.554   2.059   2.115
 1853SOL    HW2 6312   0.527   2.213   2.159
 1854SOL     OW 6313   1.754   3.085   3.450
 1854SOL    HW1 6314   1.845   3.046   3.437
 1854SOL    HW2 6315   1.762   3.181   3.474
 1855SOL     OW 6316   1.064   3.209   3.202
 1855SOL    HW1 6317   0.984   3.186   3.257
 1855SOL    HW2 6318   1.147   3.183   3.251
 1856SOL     OW 6319   1.592   3.491   3.487
 1856SOL    HW1 6320   1.619   3.525   3.397
 1856SOL    HW2 6321   1.671   3.453   3.533
 1857SOL     OW 6322   1.111   3.057   2.962
 1857SOL    HW1 6323   1.071   3.101   3.043
 1857SOL    HW2 6324   1.070   3.094   2.879
 1858SOL     OW 6325   1.638   2.961   2.941
 1858SOL    HW1 6326   1.643   3.042   3.000
 1858SOL    HW2 6327   1.552   2.963   2.890
 1859SOL     OW 6328   0.915   1.951   3.264
 1859SOL    HW1 6329   0.940   1.931   3.169
 1859SOL    HW2 6330   0.987   2.007   3.306
 1860SOL     OW 6331   0.980   2.978   3.581
 1860SOL    HW1 6332   0.881   2.984   3.591
 1860SOL    HW2 6333   1.003   2.898   3.525
 1861SOL     OW 6334   0.705   2.912   2.230
 1861SOL    HW1 6335   0.691   2.919   2.329
 1861SOL    HW2 6336   0.789   2.861   2.212
 1862SOL     OW 6337   0.410   2.675   3.113
 1862SOL    HW1 6338   0.496   2.687   3.163
 1862SOL    HW2 6339   0.368   2.588   3.140
 1863SOL     OW 6340   1.274   2.248   3.124
 1863SOL    HW1 6341   1.295   2.322   3.188
 1863SOL    HW2 6342   1.185   2.265   3.081
 1864SOL     OW 6343   0.064   3.426   3.193
 1864SOL    HW1 6344   0.018   3.508   3.159
 1864SOL    HW2 6345   0.162   3.445   3.202
 1865SOL     OW 6346   0.367   2.962   2.363
 1865SOL    HW1 6347   0.360   3.045   2.307
 1865SOL    HW2 6348   0.371   2.882   2.303
 1866SOL     OW 6349   0.566   2.399   2.727
 1866SOL    HW1 6350   0.578   2.465   2.653
 1866SOL    HW2 6351   0.612   2.433   2.810
 1867SOL     OW 6352   1.252   3.210   2.250
 1867SOL    HW1 6353   1.302   3.287   2.290
 1867SOL    HW2 6354   1.157   3.212   2.282
 1868SOL     OW 6355   1.272   3.307   3.004
 1868SOL    HW1 6356   1.319   3.320   3.091
 1868SOL    HW2 6357   1.206   3.233   3.013
 1869SOL     OW 6358   1.582   2.501   2.334
 1869SOL    HW1 6359   1.551   2.562   2.407
 1869SOL    HW2 6360   1.632   2.553   2.265
 1870SOL     OW 6361   0.354   3.372   3.191
 1870SOL    HW1 6362   0.333   3.328   3.104
 1870SOL    HW2 6363   0.451   3.398   3.194
 1871SOL     OW 6364   0.402   2.613   3.460
 1871SOL    HW1 6365   0.470   2.668   3.413
 1871SOL    HW2 6366   0.442   2.525   3.487
 1872SOL     OW 6367   1.587   2.641   3.532
 1872SOL    HW1 6368   1.495   2.679   3.527
 1872SOL    HW2 6369   1.647   2.688   3.467
 1873SOL     OW 6370   1.013   1.967   3.632
 1873SOL    HW1 6371   1.019   2.052   3.580
 1873SOL    HW2 6372   1.045   1.891   3.575
 1874SOL     OW 6373   0.504   1.912   3.602
 1874SOL    HW1 6374   0.462   1.855   3.532
 1874SOL    HW2 6375   0.438   1.981   3.634
 1875SOL     OW 6376   0.573   2.732   2.891
 1875SOL    HW1 6377   0.617   2.821   2.882
 1875SOL    HW2 6378   0.510   2.732   2.968
 1876SOL     OW 6379   1.360   2.724   2.907
 1876SOL    HW1 6380   1.285   2.724   2.841
 1876SOL    HW2 6381   1.397   2.632   2.916
 1877SOL     OW 6382   1.209   2.387   2.137
 1877SOL    HW1 6383   1.222   2.303   2.191
 1877SOL    HW2 6384   1.180   2.461   2.197
 1878SOL     OW 6385   0.307   2.075   3.093
 1878SOL    HW1 6386   0.284   2.112   3.183
 1878SOL    HW2 6387   0.277   1.980   3.087
 1879SOL     OW 6388   0.037   3.172   3.144
 1879SOL    HW1 6389   0.090   3.123   3.212
 1879SOL    HW2 6390   0.059   3.270   3.149
 1880SOL     OW 6391   0.732   2.496   2.926
 1880SOL    HW1 6392   0.791   2.470   2.850
 1880SOL    HW2 6393   0.704   2.592   2.915
 1881SOL     OW 6394   1.728   2.797   3.716
 1881SOL    HW1 6395   1.682   2.790   3.627
 1881SOL    HW2 6396   1.666   2.841   3.782
 1882SOL     OW 6397   0.307   1.925   2.480
 1882SOL    HW1 6398   0.296   2.019   2.513
 1882SOL    HW2 6399   0.302   1.862   2.557
 1883SOL     OW 6400   1.622   2.229   2.236
 1883SOL    HW1 6401   1.624   2.153   2.300
 1883SOL    HW2 6402   1.574   2.306   2.276
 1884SOL     OW 6403   1.023   2.628   2.828
 1884SOL    HW1 6404   1.038   2.649   2.924
 1884SOL    HW2 6405   0.993   2.533   2.819
 1885SOL     OW 6406   0.980   3.435   3.562
 1885SOL    HW1 6407   0.960   3.479   3.474
 1885SOL    HW2 6408   1.019   3.344   3.546
 1886SOL     OW 6409   1.859   3.380   3.467
 1886SOL    HW1 6410   1.873   3.407   3.372
 1886SOL    HW2 6411   1.942   3.402   3.520
 1887SOL     OW 6412   0.350   2.760   3.666
 1887SOL    HW1 6413   0.426   2.804   3.714
 1887SOL    HW2 6414   0.385   2.713   3.584
 1888SOL     OW 6415   1.540   2.136   1.987
 1888SOL    HW1 6416   1.479   2.061   2.010
 1888SOL    HW2 6417   1.562   2.188   2.070
 1889SOL     OW 6418   1.303   2.700   1.904
 1889SOL    HW1 6419   1.337   2.607   1.919
 1889SOL    HW2 6420   1.321   2.727   1.809
 1890SOL     OW 6421   1.068   3.195   2.711
 1890SOL    HW1 6422   1.075   3.111   2.656
 1890SOL    HW2 6423   1.130   3.264   2.675
 1891SOL     OW 6424   0.319   2.672   2.811
 1891SOL    HW1 6425   0.412   2.708   2.816
 1891SOL    HW2 6426   0.313   2.587   2.863
 1892SOL     OW 6427   0.339   2.371   2.868
 1892SOL    HW1 6428   0.287   2.288   2.851
 1892SOL    HW2 6429   0.416   2.376   2.804
 1893SOL     OW 6430   1.138   2.242   3.540
 1893SOL    HW1 6431   1.093   2.305   3.604
 1893SOL    HW2 6432   1.231   2.273   3.523
 1894SOL     OW 6433   1.160   2.069   3.339
 1894SOL    HW1 6434   1.160   2.133   3.416
 1894SOL    HW2 6435   1.188   2.117   3.256
 1895SOL     OW 6436   0.008   3.188   2.062
 1895SOL    HW1 6437  -0.085   3.209   2.031
 1895SOL    HW2 6438   0.018   3.089   2.075
 1896SOL     OW 6439   0.088   3.663   2.789
 1896SOL    HW1 6440   0.046   3.577   2.762
 1896SOL    HW2 6441   0.182   3.666   2.755
 1897SOL     OW 6442   0.504   3.430   2.772
 1897SOL    HW1 6443   0.570   3.504   2.781
 1897SOL    HW2 6444   0.548   3.351   2.730
 1898SOL     OW 6445   1.002   2.658   3.100
 1898SOL    HW1 6446   1.043   2.626   3.186
 1898SOL    HW2 6447   0.906   2.631   3.097
 1899SOL     OW 6448   0.040   2.406   2.976
 1899SOL    HW1 6449   0.125   2.373   2.935
 1899SOL    HW2 6450   0.053   2.421   3.074
 1900SOL     OW 6451   0.189   2.382   3.584
 1900SOL    HW1 6452   0.248   2.342   3.514
 1900SOL    HW2 6453   0.131   2.453   3.543
 1901SOL     OW 6454   1.369   2.812   3.522
 1901SOL    HW1 6455   1.408   2.901   3.542
 1901SOL    HW2 6456   1.379   2.792   3.425
 1902SOL     OW 6457   0.815   2.434   2.187
 1902SOL    HW1 6458   0.822   2.345   2.141
 1902SOL    HW2 6459   0.721   2.468   2.179
 1903SOL     OW 6460   1.657   2.466   3.068
 1903SOL    HW1 6461   1.619   2.397   3.130
 1903SOL    HW2 6462   1.739   2.430   3.024
 1904SOL     OW 6463   0.252   3.426   3.606
 1904SOL    HW1 6464   0.222   3.483   3.682
 1904SOL    HW2 6465   0.245   3.329   3.632
 1905SOL     OW 6466   0.671   2.326   3.131
 1905SOL    HW1 6467   0.637   2.237   3.101
 1905SOL    HW2 6468   0.697   2.380   3.051
 1906SOL     OW 6469   0.930   3.540   3.327
 1906SOL    HW1 6470   0.906   3.522   3.232
 1906SOL    HW2 6471   0.960   3.634   3.337
 1907SOL     OW 6472   0.473   2.362   2.053
 1907SOL    HW1 6473   0.534   2.442   2.057
 1907SOL    HW2 6474   0.378   2.393   2.060
 1908SOL     OW 6475   0.159   2.999   3.328
 1908SOL    HW1 6476   0.181   2.938   3.404
 1908SOL    HW2 6477   0.169   2.950   3.242
 1909SOL     OW 6478   1.347   2.921   3.096
 1909SOL    HW1 6479   1.371   2.858   3.022
 1909SOL    HW2 6480   1.257   2.961   3.078
 1910SOL     OW 6481   1.302   2.717   2.171
 1910SOL    HW1 6482   1.216   2.686   2.213
 1910SOL    HW2 6483   1.298   2.703   2.072
 1911SOL     OW 6484   1.759   3.609   3.016
 1911SOL    HW1 6485   1.820   3.639   2.943
 1911SOL    HW2 6486   1.721   3.520   2.994
 1912SOL     OW 6487   1.252   3.593   2.990
 1912SOL    HW1 6488   1.336   3.598   2.936
 1912SOL    HW2 6489   1.229   3.497   3.008
 1913SOL     OW 6490   0.083   3.120   2.884
 1913SOL    HW1 6491   0.078   3.119   2.984
 1913SOL    HW2 6492   0.000   3.079   2.846
 1914SOL     OW 6493   0.688   3.524   3.578
 1914SOL    HW1 6494   0.632   3.605   3.587
 1914SOL    HW2 6495   0.740   3.528   3.492
 1915SOL     OW 6496   1.388   3.435   2.339
 1915SOL    HW1 6497   1.455   3.447   2.265
 1915SOL    HW2 6498   1.348   3.524   2.362
 1916SOL     OW 6499   0.130   3.656   3.713
 1916SOL    HW1 6500   0.089   3.582   3.766
 1916SOL    HW2 6501   0.194   3.707   3.771
 1917SOL     OW 6502   1.280   2.789   2.534
 1917SOL    HW1 6503   1.340   2.708   2.536
 1917SOL    HW2 6504   1.320   2.858   2.474
 1918SOL     OW 6505   0.830   3.135   3.284
 1918SOL    HW1 6506   0.825   3.168   3.379
 1918SOL    HW2 6507   0.744   3.154   3.238
 1919SOL     OW 6508   0.672   3.478   2.016
 1919SOL    HW1 6509   0.681   3.488   1.917
 1919SOL    HW2 6510   0.632   3.389   2.037
 1920SOL     OW 6511   1.650   3.582   3.256
 1920SOL    HW1 6512   1.703   3.592   3.172
 1920SOL    HW2 6513   1.623   3.672   3.290
 1921SOL     OW 6514   0.263   2.188   2.582
 1921SOL    HW1 6515   0.184   2.239   2.548
 1921SOL    HW2 6516   0.254   2.173   2.680
 1922SOL     OW 6517   1.194   3.474   1.893
 1922SOL    HW1 6518   1.200   3.381   1.930
 1922SOL    HW2 6519   1.135   3.474   1.813
 1923SOL     OW 6520   0.822   2.864   3.234
 1923SOL    HW1 6521   0.862   2.863   3.142
 1923SOL    HW2 6522   0.832   2.956   3.274
 1924SOL     OW 6523   0.916   2.772   2.153
 1924SOL    HW1 6524   0.979   2.810   2.085
 1924SOL    HW2 6525   0.956   2.689   2.192
 1925SOL     OW 6526   1.504   3.469   1.906
 1925SOL    HW1 6527   1.412   3.506   1.913
 1925SOL    HW2 6528   1.542   3.489   1.816
 1926SOL     OW 6529   0.372   3.150   3.352
 1926SOL    HW1 6530   0.359   3.243   3.318
 1926SOL    HW2 6531   0.288   3.098   3.339
 1927SOL     OW 6532   1.614   3.154   3.151
 1927SOL    HW1 6533   1.674   3.157   3.231
 1927SOL    HW2 6534   1.539   3.218   3.164
 1928SOL     OW 6535   1.039   2.960   2.558
 1928SOL    HW1 6536   0.969   2.913   2.612
 1928SOL    HW2 6537   1.098   2.892   2.515
 1929SOL     OW 6538   1.014   2.098   2.833
 1929SOL    HW1 6539   1.006   2.062   2.740
 1929SOL    HW2 6540   1.012   2.022   2.898
 1930SOL     OW 6541   0.590   3.349   2.353
 1930SOL    HW1 6542   0.632   3.291   2.283
 1930SOL    HW2 6543   0.546   3.428   2.309
 1931SOL     OW 6544   1.709   2.247   3.243
 1931SOL    HW1 6545   1.782   2.316   3.247
 1931SOL    HW2 6546   1.737   2.172   3.184
 1932SOL     OW 6547   0.255   3.210   2.152
 1932SOL    HW1 6548   0.159   3.211   2.125
 1932SOL    HW2 6549   0.267   3.263   2.236
 1933SOL     OW 6550   0.105   2.875   3.588
 1933SOL    HW1 6551   0.028   2.842   3.642
 1933SOL    HW2 6552   0.190   2.845   3.630
 1934SOL     OW 6553   0.672   2.065   3.351
 1934SOL    HW1 6554   0.762   2.049   3.311
 1934SOL    HW2 6555   0.680   2.070   3.450
 1935SOL     OW 6556   0.075   2.207   1.895
 1935SOL    HW1 6557  -0.017   2.179   1.866
 1935SOL    HW2 6558   0.106   2.284   1.839
 1936SOL     OW 6559   1.440   2.718   3.260
 1936SOL    HW1 6560   1.383   2.770   3.197
 1936SOL    HW2 6561   1.536   2.730   3.236
 1937SOL     OW 6562   0.072   2.028   2.180
 1937SOL    HW1 6563   0.055   2.111   2.126
 1937SOL    HW2 6564   0.162   1.991   2.158
 1938SOL     OW 6565   1.183   3.197   1.981
 1938SOL    HW1 6566   1.084   3.186   1.983
 1938SOL    HW2 6567   1.217   3.212   2.074
 1939SOL     OW 6568   0.613   2.704   3.293
 1939SOL    HW1 6569   0.669   2.785   3.276
 1939SOL    HW2 6570   0.672   2.624   3.296
 1940SOL     OW 6571   1.493   3.629   2.821
 1940SOL    HW1 6572   1.526   3.693   2.752
 1940SOL    HW2 6573   1.559   3.623   2.896
 1941SOL     OW 6574   0.716   2.427   3.570
 1941SOL    HW1 6575   0.735   2.492   3.644
 1941SOL    HW2 6576   0.776   2.347   3.579
 1942SOL     OW 6577   1.450   3.082   3.495
 1942SOL    HW1 6578   1.441   3.072   3.594
 1942SOL    HW2 6579   1.546   3.075   3.469
 1943SOL     OW 6580   0.390   3.603   3.422
 1943SOL    HW1 6581   0.299   3.644   3.420
 1943SOL    HW2 6582   0.383   3.509   3.454
 1944SOL     OW 6583   1.674   2.745   3.116
 1944SOL    HW1 6584   1.647   2.656   3.079
 1944SOL    HW2 6585   1.675   2.813   3.043
 1945SOL     OW 6586   1.225   2.187   2.311
 1945SOL    HW1 6587   1.290   2.113   2.300
 1945SOL    HW2 6588   1.245   2.237   2.395
 1946SOL     OW 6589   0.594   2.607   2.514
 1946SOL    HW1 6590   0.644   2.692   2.495
 1946SOL    HW2 6591   0.506   2.609   2.466
 1947SOL     OW 6592   1.777   2.204   3.504
 1947SOL    HW1 6593   1.760   2.235   3.410
 1947SOL    HW2 6594   1.693   2.167   3.542
 1948SOL     OW 6595   1.730   2.796   3.379
 1948SOL    HW1 6596   1.768   2.887   3.394
 1948SOL    HW2 6597   1.722   2.779   3.280
 1949SOL     OW 6598   0.859   3.236   1.878
 1949SOL    HW1 6599   0.813   3.251   1.966
 1949SOL    HW2 6600   0.903   3.321   1.848
 1950SOL     OW 6601   0.661   3.652   2.815
 1950SOL    HW1 6602   0.615   3.740   2.802
 1950SOL    HW2 6603   0.760   3.664   2.808
 1951SOL     OW 6604   0.859   2.818   2.723
 1951SOL    HW1 6605   0.913   2.749   2.771
 1951SOL    HW2 6606   0.827   2.887   2.789
 1952SOL     OW 6607   1.083   2.846   1.949
 1952SOL    HW1 6608   1.060   2.899   1.867
 1952SOL    HW2 6609   1.164   2.790   1.930
 1953SOL     OW 6610   1.861   3.431   2.713
 1953SOL    HW1 6611   1.790   3.419   2.643
 1953SOL    HW2 6612   1.862   3.352   2.773
 1954SOL     OW 6613   0.221   3.176   3.706
 1954SOL    HW1 6614   0.156   3.103   3.685
 1954SOL    HW2 6615   0.225   3.190   3.804
 1955SOL     OW 6616   0.079   3.102   2.515
 1955SOL    HW1 6617   0.078   3.055   2.603
 1955SOL    HW2 6618   0.161   3.074   2.464
 1956SOL     OW 6619   0.672   3.253   3.486
 1956SOL    HW1 6620   0.594   3.203   3.524
 1956SOL    HW2 6621   0.669   3.348   3.517
 1957SOL     OW 6622   0.428   2.286   2.382
 1957SOL    HW1 6623   0.458   2.214   2.320
 1957SOL    HW2 6624   0.389   2.246   2.465
 1958SOL     OW 6625   1.705   3.349   2.966
 1958SOL    HW1 6626   1.612   3.324   2.939
 1958SOL    HW2 6627   1.731   3.299   3.048
 1959SOL     OW 6628   0.317   2.409   3.142
 1959SOL    HW1 6629   0.355   2.350   3.214
 1959SOL    HW2 6630   0.357   2.383   3.054
 1960SOL     OW 6631   0.812   3.448   2.549
 1960SOL    HW1 6632   0.844   3.458   2.455
 1960SOL    HW2 6633   0.733   3.386   2.551
 1961SOL     OW 6634   1.424   2.076   2.974
 1961SOL    HW1 6635   1.476   2.011   3.029
 1961SOL    HW2 6636   1.375   2.139   3.035
 1962SOL     OW 6637   1.001   1.896   3.016
 1962SOL    HW1 6638   0.938   1.824   2.985
 1962SOL    HW2 6639   1.094   1.860   3.016
 1963SOL     OW 6640   0.770   3.192   2.163
 1963SOL    HW1 6641   0.724   3.105   2.180
 1963SOL    HW2 6642   0.861   3.189   2.204
 1964SOL     OW 6643   0.618   3.429   3.146
 1964SOL    HW1 6644   0.613   3.511   3.203
 1964SOL    HW2 6645   0.707   3.426   3.101
 1965SOL     OW 6646   1.352   1.914   2.030
 1965SOL    HW1 6647   1.387   1.873   1.946
 1965SOL    HW2 6648   1.262   1.876   2.050
 1966SOL     OW 6649   1.300   2.315   2.553
 1966SOL    HW1 6650   1.241   2.395   2.557
 1966SOL    HW2 6651   1.315   2.280   2.646
 1967SOL     OW 6652   1.593   2.083   2.744
 1967SOL    HW1 6653   1.509   2.082   2.798
 1967SOL    HW2 6654   1.595   2.166   2.688
 1968SOL     OW 6655   0.039   2.939   2.162
 1968SOL    HW1 6656   0.138   2.928   2.153
 1968SOL    HW2 6657  -0.001   2.853   2.194
 1969SOL     OW 6658   0.875   3.508   2.199
 1969SOL    HW1 6659   0.798   3.473   2.145
 1969SOL    HW2 6660   0.843   3.579   2.261
 1970SOL     OW 6661   0.230   2.490   3.837
 1970SOL    HW1 6662   0.137   2.488   3.874
 1970SOL    HW2 6663   0.231   2.451   3.745
 1971SOL     OW 6664   0.225   2.137   4.720
 1971SOL    HW1 6665   0.260   2.120   4.812
 1971SOL    HW2 6666   0.137   2.092   4.708
 1972SOL     OW 6667   0.019   2.230   4.371
 1972SOL    HW1 6668  -0.063   2.273   4.410
 1972SOL    HW2 6669  -0.009   2.157   4.308
 1973SOL     OW 6670   0.569   3.137   4.889
 1973SOL    HW1 6671   0.476   3.130   4.852
 1973SOL    HW2 6672   0.580   3.226   4.933
 1974SOL     OW 6673   1.555   3.373   4.427
 1974SOL    HW1 6674   1.498   3.357   4.508
 1974SOL    HW2 6675   1.496   3.383   4.347
 1975SOL     OW 6676   1.135   2.565   4.441
 1975SOL    HW1 6677   1.192   2.643   4.416
 1975SOL    HW2 6678   1.075   2.591   4.517
 1976SOL     OW 6679   1.755   2.469   3.955
 1976SOL    HW1 6680   1.743   2.456   3.856
 1976SOL    HW2 6681   1.725   2.388   4.004
 1977SOL     OW 6682   0.768   3.006   4.747
 1977SOL    HW1 6683   0.690   3.023   4.807
 1977SOL    HW2 6684   0.802   3.093   4.711
 1978SOL     OW 6685   0.850   2.660   5.547
 1978SOL    HW1 6686   0.846   2.736   5.612
 1978SOL    HW2 6687   0.872   2.696   5.456
 1979SOL     OW 6688   0.685   2.874   4.389
 1979SOL    HW1 6689   0.754   2.858   4.459
 1979SOL    HW2 6690   0.612   2.931   4.427
 1980SOL     OW 6691   0.686   3.023   5.527
 1980SOL    HW1 6692   0.746   3.102   5.541
 1980SOL    HW2 6693   0.600   3.054   5.486
 1981SOL     OW 6694   0.335   3.297   4.785
 1981SOL    HW1 6695   0.257   3.266   4.732
 1981SOL    HW2 6696   0.393   3.355   4.728
 1982SOL     OW 6697   1.460   3.367   5.063
 1982SOL    HW1 6698   1.484   3.461   5.089
 1982SOL    HW2 6699   1.444   3.313   5.145
 1983SOL     OW 6700   0.438   2.254   5.223
 1983SOL    HW1 6701   0.520   2.198   5.232
 1983SOL    HW2 6702   0.357   2.196   5.227
 1984SOL     OW 6703   1.603   2.309   4.461
 1984SOL    HW1 6704   1.529   2.355   4.411
 1984SOL    HW2 6705   1.654   2.377   4.514
 1985SOL     OW 6706   0.231   3.575   4.207
 1985SOL    HW1 6707   0.265   3.652   4.261
 1985SOL    HW2 6708   0.275   3.575   4.117
 1986SOL     OW 6709   1.127   3.203   5.414
 1986SOL    HW1 6710   1.174   3.203   5.502
 1986SOL    HW2 6711   1.079   3.116   5.403
 1987SOL     OW 6712   0.230   3.296   4.262
 1987SOL    HW1 6713   0.204   3.392   4.262
 1987SOL    HW2 6714   0.159   3.242   4.307
 1988SOL     OW 6715   0.240   2.953   4.610
 1988SOL    HW1 6716   0.254   2.869   4.662
 1988SOL    HW2 6717   0.185   3.017   4.665
 1989SOL     OW 6718   0.620   3.648   5.163
 1989SOL    HW1 6719   0.528   3.631   5.198
 1989SOL    HW2 6720   0.648   3.740   5.189
 1990SOL     OW 6721   0.606   2.826   3.847
 1990SOL    HW1 6722   0.613   2.910   3.793
 1990SOL    HW2 6723   0.652   2.839   3.935
 1991SOL     OW 6724   1.594   1.976   5.204
 1991SOL    HW1 6725   1.576   2.043   5.132
 1991SOL    HW2 6726   1.591   2.022   5.293
 1992SOL     OW 6727   0.122   2.505   4.287
 1992SOL    HW1 6728   0.077   2.417   4.304
 1992SOL    HW2 6729   0.121   2.559   4.371
 1993SOL     OW 6730   1.842   3.629   4.083
 1993SOL    HW1 6731   1.896   3.600   4.163
 1993SOL    HW2 6732   1.872   3.719   4.054
 1994SOL     OW 6733   0.027   3.458   3.841
 1994SOL    HW1 6734   0.008   3.362   3.862
 1994SOL    HW2 6735  -0.006   3.516   3.916
 1995SOL     OW 6736   1.689   2.784   4.336
 1995SOL    HW1 6737   1.784   2.755   4.344
 1995SOL    HW2 6738   1.681   2.849   4.261
 1996SOL     OW 6739   1.641   2.970   4.156
 1996SOL    HW1 6740   1.727   2.972   4.104
 1996SOL    HW2 6741   1.655   3.017   4.244
 1997SOL     OW 6742   0.113   2.599   5.321
 1997SOL    HW1 6743   0.201   2.586   5.366
 1997SOL    HW2 6744   0.100   2.696   5.299
 1998SOL     OW 6745   0.613   3.227   4.450
 1998SOL    HW1 6746   0.564   3.140   4.459
 1998SOL    HW2 6747   0.590   3.270   4.363
 1999SOL     OW 6748   1.293   3.090   5.147
 1999SOL    HW1 6749   1.330   3.017   5.089
 1999SOL    HW2 6750   1.345   3.095   5.232
 2000SOL     OW 6751   0.809   1.866   4.226
 2000SOL    HW1 6752   0.849   1.957   4.217
 2000SOL    HW2 6753   0.709   1.874   4.232
 2001SOL     OW 6754   0.197   2.838   4.988
 2001SOL    HW1 6755   0.286   2.793   4.974
 2001SOL    HW2 6756   0.124   2.773   4.969
 2002SOL     OW 6757   1.525   2.861   3.914
 2002SOL    HW1 6758   1.462   2.785   3.927
 2002SOL    HW2 6759   1.573   2.879   4.000
 2003SOL     OW 6760   1.187   3.654   5.340
 2003SOL    HW1 6761   1.211   3.714   5.264
 2003SOL    HW2 6762   1.194   3.559   5.310
 2004SOL     OW 6763   0.317   2.113   5.525
 2004SOL    HW1 6764   0.388   2.184   5.531
 2004SOL    HW2 6765   0.229   2.152   5.553
 2005SOL     OW 6766   1.466   3.279   4.677
 2005SOL    HW1 6767   1.407   3.285   4.757
 2005SOL    HW2 6768   1.451   3.191   4.631
 2006SOL     OW 6769   1.667   3.576   4.296
 2006SOL    HW1 6770   1.626   3.553   4.208
 2006SOL    HW2 6771   1.649   3.502   4.361
 2007SOL     OW 6772   0.598   2.591   3.994
 2007SOL    HW1 6773   0.622   2.660   3.926
 2007SOL    HW2 6774   0.520   2.624   4.048
 2008SOL     OW 6775   1.281   2.207   4.668
 2008SOL    HW1 6776   1.195   2.157   4.655
 2008SOL    HW2 6777   1.343   2.153   4.724
 2009SOL     OW 6778   1.576   3.524   4.031
 2009SOL    HW1 6779   1.665   3.570   4.034
 2009SOL    HW2 6780   1.555   3.500   3.936
 2010SOL     OW 6781   0.807   2.467   5.189
 2010SOL    HW1 6782   0.760   2.464   5.278
 2010SOL    HW2 6783   0.756   2.412   5.123
 2011SOL     OW 6784   1.394   2.331   5.398
 2011SOL    HW1 6785   1.374   2.374   5.486
 2011SOL    HW2 6786   1.472   2.269   5.407
 2012SOL     OW 6787   0.973   2.752   5.296
 2012SOL    HW1 6788   1.019   2.668   5.267
 2012SOL    HW2 6789   0.917   2.786   5.221
 2013SOL     OW 6790   0.991   2.272   4.966
 2013SOL    HW1 6791   0.914   2.306   5.020
 2013SOL    HW2 6792   0.957   2.221   4.887
 2014SOL     OW 6793   1.041   2.563   4.153
 2014SOL    HW1 6794   1.067   2.559   4.249
 2014SOL    HW2 6795   0.956   2.512   4.139
 2015SOL     OW 6796   0.076   2.673   4.513
 2015SOL    HW1 6797   0.175   2.661   4.522
 2015SOL    HW2 6798   0.052   2.768   4.534
 2016SOL     OW 6799   0.130   3.683   5.295
 2016SOL    HW1 6800   0.120   3.668   5.394
 2016SOL    HW2 6801   0.044   3.719   5.259
 2017SOL     OW 6802   0.865   2.210   3.919
 2017SOL    HW1 6803   0.924   2.273   3.870
 2017SOL    HW2 6804   0.884   2.116   3.890
 2018SOL     OW 6805   1.719   2.447   5.555
 2018SOL    HW1 6806   1.693   2.536   5.519
 2018SOL    HW2 6807   1.717   2.379   5.482
 2019SOL     OW 6808   1.362   3.006   4.269
 2019SOL    HW1 6809   1.445   2.977   4.221
 2019SOL    HW2 6810   1.313   3.073   4.213
 2020SOL     OW 6811   0.550   2.058   4.609
 2020SOL    HW1 6812   0.545   2.053   4.709
 2020SOL    HW2 6813   0.552   2.154   4.580
 2021SOL     OW 6814   1.008   3.318   4.201
 2021SOL    HW1 6815   0.962   3.390   4.149
 2021SOL    HW2 6816   1.004   3.338   4.299
 2022SOL     OW 6817   0.351   3.663   4.577
 2022SOL    HW1 6818   0.401   3.577   4.583
 2022SOL    HW2 6819   0.416   3.740   4.574
 2023SOL     OW 6820   1.795   2.928   4.597
 2023SOL    HW1 6821   1.733   2.913   4.521
 2023SOL    HW2 6822   1.743   2.939   4.682
 2024SOL     OW 6823   1.227   3.412   5.230
 2024SOL    HW1 6824   1.233   3.335   5.294
 2024SOL    HW2 6825   1.175   3.386   5.150
 2025SOL     OW 6826   0.321   2.805   3.966
 2025SOL    HW1 6827   0.403   2.844   3.924
 2025SOL    HW2 6828   0.294   2.723   3.917
 2026SOL     OW 6829   1.458   2.597   4.452
 2026SOL    HW1 6830   1.453   2.532   4.527
 2026SOL    HW2 6831   1.538   2.656   4.465
 2027SOL     OW 6832   0.461   3.128   5.451
 2027SOL    HW1 6833   0.411   3.129   5.365
 2027SOL    HW2 6834   0.398   3.110   5.527
 2028SOL     OW 6835   1.111   3.638   3.961
 2028SOL    HW1 6836   1.051   3.576   4.011
 2028SOL    HW2 6837   1.142   3.594   3.876
 2029SOL     OW 6838   0.202   2.147   5.222
 2029SOL    HW1 6839   0.122   2.207   5.209
 2029SOL    HW2 6840   0.192   2.098   5.308
 2030SOL     OW 6841   1.632   3.239   3.805
 2030SOL    HW1 6842   1.600   3.333   3.795
 2030SOL    HW2 6843   1.556   3.176   3.793
 2031SOL     OW 6844   0.464   3.605   4.047
 2031SOL    HW1 6845   0.497   3.644   4.133
 2031SOL    HW2 6846   0.540   3.598   3.982
 2032SOL     OW 6847   1.400   1.969   4.150
 2032SOL    HW1 6848   1.376   1.932   4.060
 2032SOL    HW2 6849   1.499   1.985   4.154
 2033SOL     OW 6850   0.249   3.647   4.965
 2033SOL    HW1 6851   0.306   3.582   5.015
 2033SOL    HW2 6852   0.233   3.614   4.872
 2034SOL     OW 6853   0.940   3.560   4.628
 2034SOL    HW1 6854   1.020   3.503   4.649
 2034SOL    HW2 6855   0.891   3.520   4.551
 2035SOL     OW 6856   0.382   2.562   4.204
 2035SOL    HW1 6857   0.427   2.472   4.201
 2035SOL    HW2 6858   0.288   2.551   4.237
 2036SOL     OW 6859   1.547   2.084   5.453
 2036SOL    HW1 6860   1.542   2.121   5.545
 2036SOL    HW2 6861   1.475   2.015   5.441
 2037SOL     OW 6862   0.614   1.984   3.841
 2037SOL    HW1 6863   0.712   1.962   3.848
 2037SOL    HW2 6864   0.583   1.967   3.748
 2038SOL     OW 6865   0.781   2.126   5.473
 2038SOL    HW1 6866   0.848   2.065   5.516
 2038SOL    HW2 6867   0.708   2.145   5.538
 2039SOL     OW 6868   0.888   3.376   4.919
 2039SOL    HW1 6869   0.865   3.351   4.825
 2039SOL    HW2 6870   0.949   3.307   4.958
 2040SOL     OW 6871   1.351   2.452   5.157
 2040SOL    HW1 6872   1.379   2.409   5.242
 2040SOL    HW2 6873   1.376   2.548   5.158
 2041SOL     OW 6874   0.803   3.264   4.648
 2041SOL    HW1 6875   0.893   3.278   4.606
 2041SOL    HW2 6876   0.732   3.266   4.577
 2042SOL     OW 6877   0.922   2.365   4.623
 2042SOL    HW1 6878   0.897   2.356   4.527
 2042SOL    HW2 6879   0.970   2.283   4.654
 2043SOL     OW 6880   0.539   1.926   4.236
 2043SOL    HW1 6881   0.458   1.927   4.294
 2043SOL    HW2 6882   0.542   2.009   4.181
 2044SOL     OW 6883   1.434   3.050   3.765
 2044SOL    HW1 6884   1.466   2.974   3.822
 2044SOL    HW2 6885   1.342   3.077   3.795
 2045SOL     OW 6886   0.297   1.897   3.895
 2045SOL    HW1 6887   0.346   1.981   3.874
 2045SOL    HW2 6888   0.359   1.832   3.940
 2046SOL     OW 6889   0.935   2.098   4.204
 2046SOL    HW1 6890   0.887   2.139   4.126
 2046SOL    HW2 6891   1.034   2.096   4.185
 2047SOL     OW 6892   1.076   2.545   5.188
 2047SOL    HW1 6893   0.996   2.484   5.191
 2047SOL    HW2 6894   1.157   2.492   5.164
 2048SOL     OW 6895   1.227   3.432   4.517
 2048SOL    HW1 6896   1.248   3.506   4.452
 2048SOL    HW2 6897   1.295   3.432   4.590
 2049SOL     OW 6898   0.459   3.014   4.465
 2049SOL    HW1 6899   0.388   2.987   4.530
 2049SOL    HW2 6900   0.433   2.986   4.372
 2050SOL     OW 6901   1.271   3.659   4.315
 2050SOL    HW1 6902   1.315   3.723   4.251
 2050SOL    HW2 6903   1.221   3.711   4.385
 2051SOL     OW 6904   1.032   2.411   3.740
 2051SOL    HW1 6905   0.991   2.493   3.701
 2051SOL    HW2 6906   1.096   2.437   3.813
 2052SOL     OW 6907   0.078   2.418   5.110
 2052SOL    HW1 6908   0.170   2.417   5.069
 2052SOL    HW2 6909   0.072   2.492   5.177
 2053SOL     OW 6910   0.561   2.084   4.871
 2053SOL    HW1 6911   0.599   2.000   4.908
 2053SOL    HW2 6912   0.473   2.103   4.915
 2054SOL     OW 6913   0.866   2.316   4.366
 2054SOL    HW1 6914   0.834   2.388   4.304
 2054SOL    HW2 6915   0.890   2.235   4.313
 2055SOL     OW 6916   1.017   1.901   4.477
 2055SOL    HW1 6917   0.945   1.906   4.408
 2055SOL    HW2 6918   0.993   1.832   4.546
 2056SOL     OW 6919   1.429   3.035   4.591
 2056SOL    HW1 6920   1.374   2.951   4.584
 2056SOL    HW2 6921   1.455   3.064   4.499
 2057SOL     OW 6922   1.466   2.452   4.716
 2057SOL    HW1 6923   1.436   2.357   4.723
 2057SOL    HW2 6924   1.539   2.468   4.782
 2058SOL     OW 6925   1.857   2.695   4.101
 2058SOL    HW1 6926   1.899   2.631   4.165
 2058SOL    HW2 6927   1.819   2.644   4.023
 2059SOL     OW 6928   0.488   3.247   3.898
 2059SOL    HW1 6929   0.401   3.232   3.945
 2059SOL    HW2 6930   0.471   3.273   3.803
 2060SOL     OW 6931   1.664   3.142   4.381
 2060SOL    HW1 6932   1.763   3.150   4.395
 2060SOL    HW2 6933   1.619   3.226   4.412
 2061SOL     OW 6934   1.390   2.437   3.802
 2061SOL    HW1 6935   1.336   2.416   3.883
 2061SOL    HW2 6936   1.481   2.396   3.811
 2062SOL     OW 6937   0.527   2.118   4.052
 2062SOL    HW1 6938   0.554   2.059   3.977
 2062SOL    HW2 6939   0.527   2.213   4.021
 2063SOL     OW 6940   1.754   3.085   5.312
 2063SOL    HW1 6941   1.845   3.046   5.299
 2063SOL    HW2 6942   1.762   3.181   5.336
 2064SOL     OW 6943   1.064   3.209   5.064
 2064SOL    HW1 6944   0.984   3.186   5.119
 2064SOL    HW2 6945   1.147   3.183   5.113
 2065SOL     OW 6946   1.592   3.491   5.349
 2065SOL    HW1 6947   1.619   3.525   5.259
 2065SOL    HW2 6948   1.671   3.453   5.395
 2066SOL     OW 6949   1.111   3.057   4.824
 2066SOL    HW1 6950   1.071   3.101   4.905
 2066SOL    HW2 6951   1.070   3.094   4.741
 2067SOL     OW 6952   1.638   2.961   4.803
 2067SOL    HW1 6953   1.643   3.042   4.862
 2067SOL    HW2 6954   1.552   2.963   4.752
 2068SOL     OW 6955   0.915   1.951   5.126
 2068SOL    HW1 6956   0.940   1.931   5.031
 2068SOL    HW2 6957   0.987   2.007   5.168
 2069SOL     OW 6958   0.980   2.978   5.443
 2069SOL    HW1 6959   0.881   2.984   5.453
 2069SOL    HW2 6960   1.003   2.898   5.387
 2070SOL     OW 6961   0.705   2.912   4.092
 2070SOL    HW1 6962   0.691   2.919   4.191
 2070SOL    HW2 6963   0.789   2.861   4.074
 2071SOL     OW 6964   0.410   2.675   4.975
 2071SOL    HW1 6965   0.496   2.687   5.025
 2071SOL    HW2 6966   0.368   2.588   5.002
 2072SOL     OW 6967   1.274   2.248   4.986
 2072SOL    HW1 6968   1.295   2.322   5.050
 2072SOL    HW2 6969   1.185   2.265   4.943
 2073SOL     OW 6970   0.064   3.426   5.055
 2073SOL    HW1 6971   0.018   3.508   5.021
 2073SOL    HW2 6972   0.162   3.445   5.064
 2074SOL     OW 6973   0.367   2.962   4.225
 2074SOL    HW1 6974   0.360   3.045   4.169
 2074SOL    HW2 6975   0.371   2.882   4.165
 2075SOL     OW 6976   0.566   2.399   4.589
 2075SOL    HW1 6977   0.578   2.465   4.515
 2075SOL    HW2 6978   0.612   2.433   4.672
 2076SOL     OW 6979   1.252   3.210   4.112
 2076SOL    HW1 6980   1.302   3.287   4.152
 2076SOL    HW2 6981   1.157   3.212   4.144
 2077SOL     OW 6982   1.272   3.307   4.866
 2077SOL    HW1 6983   1.319   3.320   4.953
 2077SOL    HW2 6984   1.206   3.233   4.875
 2078SOL     OW 6985   1.582   2.501   4.196
 2078SOL    HW1 6986   1.551   2.562   4.269
 2078SOL    HW2 6987   1.632   2.553   4.127
 2079SOL     OW 6988   0.354   3.372   5.053
 2079SOL    HW1 6989   0.333   3.328   4.966
 2079SOL    HW2 6990   0.451   3.398   5.056
 2080SOL     OW 6991   0.402   2.613   5.322
 2080SOL    HW1 6992   0.470   2.668   5.275
 2080SOL    HW2 6993   0.442   2.525   5.349
 2081SOL     OW 6994   1.587   2.641   5.394
 2081SOL    HW1 6995   1.495   2.679   5.389
 2081SOL    HW2 6996   1.647   2.688   5.329
 2082SOL     OW 6997   1.013   1.967   5.494
 2082SOL    HW1 6998   1.019   2.052   5.442
 2082SOL    HW2 6999   1.045   1.891   5.437
 2083SOL     OW 7000   0.504   1.912   5.464
 2083SOL    HW1 7001   0.462   1.855   5.394
 2083SOL    HW2 7002   0.438   1.981   5.496
 2084SOL     OW 7003   0.573   2.732   4.753
 2084SOL    HW1 7004   0.617   2.821   4.744
 2084SOL    HW2 7005   0.510   2.732   4.830
 2085SOL     OW 7006   1.360   2.724   4.769
 2085SOL    HW1 7007   1.285   2.724   4.703
 2085SOL    HW2 7008   1.397   2.632   4.778
 2086SOL     OW 7009   1.209   2.387   3.999
 2086SOL    HW1 7010   1.222   2.303   4.053
 2086SOL    HW2 7011   1.180   2.461   4.059
 2087SOL     OW 7012   0.307   2.075   4.955
 2087SOL    HW1 7013   0.284   2.112   5.045
 2087SOL    HW2 7014   0.277   1.980   4.949
 2088SOL     OW 7015   0.037   3.172   5.006
 2088SOL    HW1 7016   0.090   3.123   5.074
 2088SOL    HW2 7017   0.059   3.270   5.011
 2089SOL     OW 7018   0.732   2.496   4.788
 2089SOL    HW1 7019   0.791   2.470   4.712
 2089SOL    HW2 7020   0.704   2.592   4.777
 2090SOL     OW 7021   1.728   2.797   5.578
 2090SOL    HW1 7022   1.682   2.790   5.489
 2090SOL    HW2 7023   1.666   2.841   5.644
 2091SOL     OW 7024   0.307   1.925   4.342
 2091SOL    HW1 7025   0.296   2.019   4.375
 2091SOL    HW2 7026   0.302   1.862   4.419
 2092SOL     OW 7027   1.622   2.229   4.098
 2092SOL    HW1 7028   1.624   2.153   4.162
 2092SOL    HW2 7029   1.574   2.306   4.138
 2093SOL     OW 7030   1.023   2.628   4.690
 2093SOL    HW1 7031   1.038   2.649   4.786
 2093SOL    HW2 7032   0.993   2.533   4.681
 2094SOL     OW 7033   0.980   3.435   5.424
 2094SOL    HW1 7034   0.960   3.479   5.336
 2094SOL    HW2 7035   1.019   3.344   5.408
 2095SOL     OW 7036   1.859   3.380   5.329
 2095SOL    HW1 7037   1.873   3.407   5.234
 2095SOL    HW2 7038   1.942   3.402   5.382
 2096SOL     OW 7039   0.350   2.760   5.528
 2096SOL    HW1 7040   0.426   2.804   5.576
 2096SOL    HW2 7041   0.385   2.713   5.446
 2097SOL     OW 7042   1.540   2.136   3.849
 2097SOL    HW1 7043   1.479   2.061   3.872
 2097SOL    HW2 7044   1.562   2.188   3.932
 2098SOL     OW 7045   1.303   2.700   3.766
 2098SOL    HW1 7046   1.337   2.607   3.781
 2098SOL    HW2 7047   1.321   2.727   3.671
 2099SOL     OW 7048   1.068   3.195   4.573
 2099SOL    HW1 7049   1.075   3.111   4.518
 2099SOL    HW2 7050   1.130   3.264   4.537
 2100SOL     OW 7051   0.319   2.672   4.673
 2100SOL    HW1 7052   0.412   2.708   4.678
 2100SOL    HW2 7053   0.313   2.587   4.725
 2101SOL     OW 7054   0.339   2.371   4.730
 2101SOL    HW1 7055   0.287   2.288   4.713
 2101SOL    HW2 7056   0.416   2.376   4.666
 2102SOL     OW 7057   1.138   2.242   5.402
 2102SOL    HW1 7058   1.093   2.305   5.466
 2102SOL    HW2 7059   1.231   2.273   5.385
 2103SOL     OW 7060   1.160   2.069   5.201
 2103SOL    HW1 7061   1.160   2.133   5.278
 2103SOL    HW2 7062   1.188   2.117   5.118
 2104SOL     OW 7063   0.008   3.188   3.924
 2104SOL    HW1 7064  -0.085   3.209   3.893
 2104SOL    HW2 7065   0.018   3.089   3.937
 2105SOL     OW 7066   0.088   3.663   4.651
 2105SOL    HW1 7067   0.046   3.577   4.624
 2105SOL    HW2 7068   0.182   3.666   4.617
 2106SOL     OW 7069   0.504   3.430   4.634
 2106SOL    HW1 7070   0.570   3.504   4.643
 2106SOL    HW2 7071   0.548   3.351   4.592
 2107SOL     OW 7072   1.002   2.658   4.962
 2107SOL    HW1 7073   1.043   2.626   5.048
 2107SOL    HW2 7074   0.906   2.631   4.959
 2108SOL     OW 7075   0.040   2.406   4.838
 2108SOL    HW1 7076   0.125   2.373   4.797
 2108SOL    HW2 7077   0.053   2.421   4.936
 2109SOL     OW 7078   0.189   2.382   5.446
 2109SOL    HW1 7079   0.248   2.342   5.376
 2109SOL    HW2 7080   0.131   2.453   5.405
 2110SOL     OW 7081   1.369   2.812   5.384
 2110SOL    HW1 7082   1.408   2.901   5.404
 2110SOL    HW2 7083   1.379   2.792   5.287
 2111SOL     OW 7084   0.815   2.434   4.049
 2111SOL    HW1 7085   0.822   2.345   4.003
 2111SOL    HW2 7086   0.721   2.468   4.041
 2112SOL     OW 7087   1.657   2.466   4.930
 2112SOL    HW1 7088   1.619   2.397   4.992
 2112SOL    HW2 7089   1.739   2.430   4.886
 2113SOL     OW 7090   0.252   3.426   5.468
 2113SOL    HW1 7091   0.222   3.483   5.544
 2113SOL    HW2 7092   0.245   3.329   5.494
 2114SOL     OW 7093   0.671   2.326   4.993
 2114SOL    HW1 7094   0.637   2.237   4.963
 2114SOL    HW2 7095   0.697   2.380   4.913
 2115SOL     OW 7096   0.930   3.540   5.189
 2115SOL    HW1 7097   0.906   3.522   5.094
 2115SOL    HW2 7098   0.960   3.634   5.199
 2116SOL     OW 7099   0.473   2.362   3.915
 2116SOL    HW1 7100   0.534   2.442   3.919
 2116SOL    HW2 7101   0.378   2.393   3.922
 2117SOL     OW 7102   0.159   2.999   5.190
 2117SOL    HW1 7103   0.181   2.938   5.266
 2117SOL    HW2 7104   0.169   2.950   5.104
 2118SOL     OW 7105   1.347   2.921   4.958
 2118SOL    HW1 7106   1.371   2.858   4.884
 2118SOL    HW2 7107   1.257   2.961   4.940
 2119SOL     OW 7108   1.302   2.717   4.033
 2119SOL    HW1 7109   1.216   2.686   4.075
 2119SOL    HW2 7110   1.298   2.703   3.934
 2120SOL     OW 7111   1.759   3.609   4.878
 2120SOL    HW1 7112   1.820   3.639   4.805
 2120SOL    HW2 7113   1.721   3.520   4.856
 2121SOL     OW 7114   1.252   3.593   4.852
 2121SOL    HW1 7115   1.336   3.598   4.798
 2121SOL    HW2 7116   1.229   3.497   4.870
 2122SOL     OW 7117   0.083   3.120   4.746
 2122SOL    HW1 7118   0.078   3.119   4.846
 2122SOL    HW2 7119   0.000   3.079   4.708
 2123SOL     OW 7120   0.688   3.524   5.440
 2123SOL    HW1 7121   0.632   3.605   5.449
 2123SOL    HW2 7122   0.740   3.528   5.354
 2124SOL     OW 7123   1.388   3.435   4.201
 2124SOL    HW1 7124   1.455   3.447   4.127
 2124SOL    HW2 7125   1.348   3.524   4.224
 2125SOL     OW 7126   0.130   3.656   5.575
 2125SOL    HW1 7127   0.089   3.582   5.628
 2125SOL    HW2 7128   0.194   3.707   5.633
 2126SOL     OW 7129   1.280   2.789   4.396
 2126SOL    HW1 7130   1.340   2.708   4.398
 2126SOL    HW2 7131   1.320   2.858   4.336
 2127SOL     OW 7132   0.830   3.135   5.146
 2127SOL    HW1 7133   0.825   3.168   5.241
 2127SOL    HW2 7134   0.744   3.154   5.100
 2128SOL     OW 7135   0.672   3.478   3.878
 2128SOL    HW1 7136   0.681   3.488   3.779
 2128SOL    HW2 7137   0.632   3.389   3.899
 2129SOL     OW 7138   1.650   3.582   5.118
 2129SOL    HW1 7139   1.703   3.592   5.034
 2129SOL    HW2 7140   1.623   3.672   5.152
 2130SOL     OW 7141   0.263   2.188   4.444
 2130SOL    HW1 7142   0.184   2.239   4.410
 2130SOL    HW2 7143   0.254   2.173   4.542
 2131SOL     OW 7144   1.194   3.474   3.755
 2131SOL    HW1 7145   1.200   3.381   3.792
 2131SOL    HW2 7146   1.135   3.474   3.675
 2132SOL     OW 7147   0.822   2.864   5.096
 2132SOL    HW1 7148   0.862   2.863   5.004
 2132SOL    HW2 7149   0.832   2.956   5.136
 2133SOL     OW 7150   0.916   2.772   4.015
 2133SOL    HW1 7151   0.979   2.810   3.947
 2133SOL    HW2 7152   0.956   2.689   4.054
 2134SOL     OW 7153   1.504   3.469   3.768
 2134SOL    HW1 7154   1.412   3.506   3.775
 2134SOL    HW2 7155   1.542   3.489   3.678
 2135SOL     OW 7156   0.372   3.150   5.214
 2135SOL    HW1 7157   0.359   3.243   5.180
 2135SOL    HW2 7158   0.288   3.098   5.201
 2136SOL     OW 7159   1.614   3.154   5.013
 2136SOL    HW1 7160   1.674   3.157   5.093
 2136SOL    HW2 7161   1.539   3.218   5.026
 2137SOL     OW 7162   1.039   2.960   4.420
 2137SOL    HW1 7163   0.969   2.913   4.474
 2137SOL    HW2 7164   1.098   2.892   4.377
 2138SOL     OW 7165   1.014   2.098   4.695
 2138SOL    HW1 7166   1.006   2.062   4.602
 2138SOL    HW2 7167   1.012   2.022   4.760
 2139SOL     OW 7168   0.590   3.349   4.215
 2139SOL    HW1 7169   0.632   3.291   4.145
 2139SOL    HW2 7170   0.546   3.428   4.171
 2140SOL     OW 7171   1.709   2.247   5.105
 2140SOL    HW1 7172   1.782   2.316   5.109
 2140SOL    HW2 7173   1.737   2.172   5.046
 2141SOL     OW 7174   0.255   3.210   4.014
 2141SOL    HW1 7175   0.159   3.211   3.987
 2141SOL    HW2 7176   0.267   3.263   4.098
 2142SOL     OW 7177   0.105   2.875   5.450
 2142SOL    HW1 7178   0.028   2.842   5.504
 2142SOL    HW2 7179   0.190   2.845   5.492
 2143SOL     OW 7180   0.672   2.065   5.213
 2143SOL    HW1 7181   0.762   2.049   5.173
 2143SOL    HW2 7182   0.680   2.070   5.312
 2144SOL     OW 7183   0.075   2.207   3.757
 2144SOL    HW1 7184  -0.017   2.179   3.728
 2144SOL    HW2 7185   0.106   2.284   3.701
 2145SOL     OW 7186   1.440   2.718   5.122
 2145SOL    HW1 7187   1.383   2.770   5.059
 2145SOL    HW2 7188   1.536   2.730   5.098
 2146SOL     OW 7189   0.072   2.028   4.042
 2146SOL    HW1 7190   0.055   2.111   3.988
 2146SOL    HW2 7191   0.162   1.991   4.020
 2147SOL     OW 7192   1.183   3.197   3.843
 2147SOL    HW1 7193   1.084   3.186   3.845
 2147SOL    HW2 7194   1.217   3.212   3.936
 2148SOL     OW 7195   0.613   2.704   5.155
 2148SOL    HW1 7196   0.669   2.785   5.138
 2148SOL    HW2 7197   0.672   2.624   5.158
 2149SOL     OW 7198   1.493   3.629   4.683
 2149SOL    HW1 7199   1.526   3.693   4.614
 2149SOL    HW2 7200   1.559   3.623   4.758
 2150SOL     OW 7201   0.716   2.427   5.432
 2150SOL    HW1 7202   0.735   2.492   5.506
 2150SOL    HW2 7203   0.776   2.347   5.441
 2151SOL     OW 7204   1.450   3.082   5.357
 2151SOL    HW1 7205   1.441   3.072   5.456
 2151SOL    HW2 7206   1.546   3.075   5.331
 2152SOL     OW 7207   0.390   3.603   5.284
 2152SOL    HW1 7208   0.299   3.644   5.282
 2152SOL    HW2 7209   0.383   3.509   5.316
 2153SOL     OW 7210   1.674   2.745   4.978
 2153SOL    HW1 7211   1.647   2.656   4.941
 2153SOL    HW2 7212   1.675   2.813   4.905
 2154SOL     OW 7213   1.225   2.187   4.173
 2154SOL    HW1 7214   1.290   2.113   4.162
 2154SOL    HW2 7215   1.245   2.237   4.257
 2155SOL     OW 7216   0.594   2.607   4.376
 2155SOL    HW1 7217   0.644   2.692   4.357
 2155SOL    HW2 7218   0.506   2.609   4.328
 2156SOL     OW 7219   1.777   2.204   5.366
 2156SOL    HW1 7220   1.760   2.235   5.272
 2156SOL    HW2 7221   1.693   2.167   5.404
 2157SOL     OW 7222   1.730   2.796   5.241
 2157SOL    HW1 7223   1.768   2.887   5.256
 2157SOL    HW2 7224   1.722   2.779   5.142
 2158SOL     OW 7225   0.859   3.236   3.740
 2158SOL    HW1 7226   0.813   3.251   3.828
 2158SOL    HW2 7227   0.903   3.321   3.710
 2159SOL     OW 7228   0.661   3.652   4.677
 2159SOL    HW1 7229   0.615   3.740   4.664
 2159SOL    HW2 7230   0.760   3.664   4.670
 2160SOL     OW 7231   0.859   2.818   4.585
 2160SOL    HW1 7232   0.913   2.749   4.633
 2160SOL    HW2 7233   0.827   2.887   4.651
 2161SOL     OW 7234   1.083   2.846   3.811
 2161SOL    HW1 7235   1.060   2.899   3.729
 2161SOL    HW2 7236   1.164   2.790   3.792
 2162SOL     OW 7237   1.861   3.431   4.575
 2162SOL    HW1 7238   1.790   3.419   4.505
 2162SOL    HW2 7239   1.862   3.352   4.635
 2163SOL     OW 7240   0.221   3.176   5.568
 2163SOL    HW1 7241   0.156   3.103   5.547
 2163SOL    HW2 7242   0.225   3.190   5.666
 2164SOL     OW 7243   0.079   3.102   4.377
 2164SOL    HW1 7244   0.078   3.055   4.465
 2164SOL    HW2 7245   0.161   3.074   4.326
 2165SOL     OW 7246   0.672   3.253   5.348
 2165SOL    HW1 7247   0.594   3.203   5.386
 2165SOL    HW2 7248   0.669   3.348   5.379
 2166SOL     OW 7249   0.428   2.286   4.244
 2166SOL    HW1 7250   0.458   2.214   4.182
 2166SOL    HW2 7251   0.389   2.246   4.327
 2167SOL     OW 7252   1.705   3.349   4.828
 2167SOL    HW1 7253   1.612   3.324   4.801
 2167SOL    HW2 7254   1.731   3.299   4.910
 2168SOL     OW 7255   0.317   2.409   5.004
 2168SOL    HW1 7256   0.355   2.350   5.076
 2168SOL    HW2 7257   0.357   2.383   4.916
 2169SOL     OW 7258   0.812   3.448   4.411
 2169SOL    HW1 7259   0.844   3.458   4.317
 2169SOL    HW2 7260   0.733   3.386   4.413
 2170SOL     OW 7261   1.424   2.076   4.836
 2170SOL    HW1 7262   1.476   2.011   4.891
 2170SOL    HW2 7263   1.375   2.139   4.897
 2171SOL     OW 7264   1.001   1.896   4.878
 2171SOL    HW1 7265   0.938   1.824   4.847
 2171SOL    HW2 7266   1.094   1.860   4.878
 2172SOL     OW 7267   0.770   3.192   4.025
 2172SOL    HW1 7268   0.724   3.105   4.042
 2172SOL    HW2 7269   0.861   3.189   4.066
 2173SOL     OW 7270   0.618   3.429   5.008
 2173SOL    HW1 7271   0.613   3.511   5.065
 2173SOL    HW2 7272   0.707   3.426   4.963
 2174SOL     OW 7273   1.352   1.914   3.892
 2174SOL    HW1 7274   1.387   1.873   3.808
 2174SOL    HW2 7275   1.262   1.876   3.912
 2175SOL     OW 7276   1.300   2.315   4.415
 2175SOL    HW1 7277   1.241   2.395   4.419
 2175SOL    HW2 7278   1.315   2.280   4.508
 2176SOL     OW 7279   1.593   2.083   4.606
 2176SOL    HW1 7280   1.509   2.082   4.660
 2176SOL    HW2 7281   1.595   2.166   4.550
 2177SOL     OW 7282   0.039   2.939   4.024
 2177SOL    HW1 7283   0.138   2.928   4.015
 2177SOL    HW2 7284  -0.001   2.853   4.056
 2178SOL     OW 7285   0.875   3.508   4.061
 2178SOL    HW1 7286   0.798   3.473   4.007
 2178SOL    HW2 7287   0.843   3.579   4.123
 2179SOL     OW 7288   0.230   2.490   5.699
 2179SOL    HW1 7289   0.137   2.488   5.736
 2179SOL    HW2 7290   0.231   2.451   5.607
 2180SOL     OW 7291   0.225   2.137   6.582
 2180SOL    HW1 7292   0.260   2.120   6.674
 2180SOL    HW2 7293   0.137   2.092   6.570
 2181SOL     OW 7294   0.019   2.230   6.233
 2181SOL    HW1 7295  -0.063   2.273   6.272
 2181SOL    HW2 7296  -0.009   2.157   6.170
 2182SOL     OW 7297   0.569   3.137   6.751
 2182SOL    HW1 7298   0.476   3.130   6.714
 2182SOL    HW2 7299   0.580   3.226   6.795
 2183SOL     OW 7300   1.555   3.373   6.289
 2183SOL    HW1 7301   1.498   3.357   6.370
 2183SOL    HW2 7302   1.496   3.383   6.209
 2184SOL     OW 7303   1.135   2.565   6.303
 2184SOL    HW1 7304   1.192   2.643   6.278
 2184SOL    HW2 7305   1.075   2.591   6.379
 2185SOL     OW 7306   1.755   2.469   5.817
 2185SOL    HW1 7307   1.743   2.456   5.718
 2185SOL    HW2 7308   1.725   2.388   5.866
 2186SOL     OW 7309   0.768   3.006   6.609
 2186SOL    HW1 7310   0.690   3.023   6.669
 2186SOL    HW2 7311   0.802   3.093   6.573
 2187SOL     OW 7312   0.850   2.660   7.409
 2187SOL    HW1 7313   0.846   2.736   7.474
 2187SOL    HW2 7314   0.872   2.696   7.318
 2188SOL     OW 7315   0.685   2.874   6.251
 2188SOL    HW1 7316   0.754   2.858   6.321
 2188SOL    HW2 7317   0.612   2.931   6.289
 2189SOL     OW 7318   0.686   3.023   7.389
 2189SOL    HW1 7319   0.746   3.102   7.403
 2189SOL    HW2 7320   0.600   3.054   7.348
 2190SOL     OW 7321   0.335   3.297   6.647
 2190SOL    HW1 7322   0.257   3.266   6.594
 2190SOL    HW2 7323   0.393   3.355   6.590
 2191SOL     OW 7324   1.460   3.367   6.925
 2191SOL    HW1 7325   1.484   3.461   6.951
 2191SOL    HW2 7326   1.444   3.313   7.007
 2192SOL     OW 7327   0.438   2.254   7.085
 2192SOL    HW1 7328   0.520   2.198   7.094
 2192SOL    HW2 7329   0.357   2.196   7.089
 2193SOL     OW 7330   0.231   3.575   6.069
 2193SOL    HW1 7331   0.265   3.652   6.123
 2193SOL    HW2 7332   0.275   3.575   5.979
 2194SOL     OW 7333   1.127   3.203   7.276
 2194SOL    HW1 7334   1.174   3.203   7.364
 2194SOL    HW2 7335   1.079   3.116   7.265
 2195SOL     OW 7336   0.230   3.296   6.124
 2195SOL    HW1 7337   0.204   3.392   6.124
 2195SOL    HW2 7338   0.159   3.242   6.169
 2196SOL     OW 7339   0.240   2.953   6.472
 2196SOL    HW1 7340   0.254   2.869   6.524
 2196SOL    HW2 7341   0.185   3.017   6.527
 2197SOL     OW 7342   0.620   3.648   7.025
 2197SOL    HW1 7343   0.528   3.631   7.060
 2197SOL    HW2 7344   0.648   3.740   7.051
 2198SOL     OW 7345   0.606   2.826   5.709
 2198SOL    HW1 7346   0.613   2.910   5.655
 2198SOL    HW2 7347   0.652   2.839   5.797
 2199SOL     OW 7348   1.594   1.976   7.066
 2199SOL    HW1 7349   1.576   2.043   6.994
 2199SOL    HW2 7350   1.591   2.022   7.155
 2200SOL     OW 7351   0.122   2.505   6.149
 2200SOL    HW1 7352   0.077   2.417   6.166
 2200SOL    HW2 7353   0.121   2.559   6.233
 2201SOL     OW 7354   1.842   3.629   5.945
 2201SOL    HW1 7355   1.896   3.600   6.025
 2201SOL    HW2 7356   1.872   3.719   5.916
 2202SOL     OW 7357   0.027   3.458   5.703
 2202SOL    HW1 7358   0.008   3.362   5.724
 2202SOL    HW2 7359  -0.006   3.516   5.778
 2203SOL     OW 7360   1.641   2.970   6.018
 2203SOL    HW1 7361   1.727   2.972   5.966
 2203SOL    HW2 7362   1.655   3.017   6.106
 2204SOL     OW 7363   0.113   2.599   7.183
 2204SOL    HW1 7364   0.201   2.586   7.228
 2204SOL    HW2 7365   0.100   2.696   7.161
 2205SOL     OW 7366   0.613   3.227   6.312
 2205SOL    HW1 7367   0.564   3.140   6.321
 2205SOL    HW2 7368   0.590   3.270   6.225
 2206SOL     OW 7369   1.293   3.090   7.009
 2206SOL    HW1 7370   1.330   3.017   6.951
 2206SOL    HW2 7371   1.345   3.095   7.094
 2207SOL     OW 7372   0.809   1.866   6.088
 2207SOL    HW1 7373   0.849   1.957   6.079
 2207SOL    HW2 7374   0.709   1.874   6.094
 2208SOL     OW 7375   0.197   2.838   6.850
 2208SOL    HW1 7376   0.286   2.793   6.836
 2208SOL    HW2 7377   0.124   2.773   6.831
 2209SOL     OW 7378   1.525   2.861   5.776
 2209SOL    HW1 7379   1.462   2.785   5.789
 2209SOL    HW2 7380   1.573   2.879   5.862
 2210SOL     OW 7381   1.187   3.654   7.202
 2210SOL    HW1 7382   1.211   3.714   7.126
 2210SOL    HW2 7383   1.194   3.559   7.172
 2211SOL     OW 7384   0.317   2.113   7.387
 2211SOL    HW1 7385   0.388   2.184   7.393
 2211SOL    HW2 7386   0.229   2.152   7.415
 2212SOL     OW 7387   1.466   3.279   6.539
 2212SOL    HW1 7388   1.407   3.285   6.619
 2212SOL    HW2 7389   1.451   3.191   6.493
 2213SOL     OW 7390   1.667   3.576   6.158
 2213SOL    HW1 7391   1.626   3.553   6.070
 2213SOL    HW2 7392   1.649   3.502   6.223
 2214SOL     OW 7393   0.598   2.591   5.856
 2214SOL    HW1 7394   0.622   2.660   5.788
 2214SOL    HW2 7395   0.520   2.624   5.910
 2215SOL     OW 7396   1.576   3.524   5.893
 2215SOL    HW1 7397   1.665   3.570   5.896
 2215SOL    HW2 7398   1.555   3.500   5.798
 2216SOL     OW 7399   0.807   2.467   7.051
 2216SOL    HW1 7400   0.760   2.464   7.140
 2216SOL    HW2 7401   0.756   2.412   6.985
 2217SOL     OW 7402   0.973   2.752   7.158
 2217SOL    HW1 7403   1.019   2.668   7.129
 2217SOL    HW2 7404   0.917   2.786   7.083
 2218SOL     OW 7405   0.991   2.272   6.828
 2218SOL    HW1 7406   0.914   2.306   6.882
 2218SOL    HW2 7407   0.957   2.221   6.749
 2219SOL     OW 7408   1.041   2.563   6.015
 2219SOL    HW1 7409   1.067   2.559   6.111
 2219SOL    HW2 7410   0.956   2.512   6.001
 2220SOL     OW 7411   0.076   2.673   6.375
 2220SOL    HW1 7412   0.175   2.661   6.384
 2220SOL    HW2 7413   0.052   2.768   6.396
 2221SOL     OW 7414   0.130   3.683   7.157
 2221SOL    HW1 7415   0.120   3.668   7.256
 2221SOL    HW2 7416   0.044   3.719   7.121
 2222SOL     OW 7417   0.865   2.210   5.781
 2222SOL    HW1 7418   0.924   2.273   5.732
 2222SOL    HW2 7419   0.884   2.116   5.752
 2223SOL     OW 7420   1.362   3.006   6.131
 2223SOL    HW1 7421   1.445   2.977   6.083
 2223SOL    HW2 7422   1.313   3.073   6.075
 2224SOL     OW 7423   0.550   2.058   6.471
 2224SOL    HW1 7424   0.545   2.053   6.571
 2224SOL    HW2 7425   0.552   2.154   6.442
 2225SOL     OW 7426   1.008   3.318   6.063
 2225SOL    HW1 7427   0.962   3.390   6.011
 2225SOL    HW2 7428   1.004   3.338   6.161
 2226SOL     OW 7429   0.351   3.663   6.439
 2226SOL    HW1 7430   0.401   3.577   6.445
 2226SOL    HW2 7431   0.416   3.740   6.436
 2227SOL     OW 7432   1.227   3.412   7.092
 2227SOL    HW1 7433   1.233   3.335   7.156
 2227SOL    HW2 7434   1.175   3.386   7.012
 2228SOL     OW 7435   0.321   2.805   5.828
 2228SOL    HW1 7436   0.403   2.844   5.786
 2228SOL    HW2 7437   0.294   2.723   5.779
 2229SOL     OW 7438   0.461   3.128   7.313
 2229SOL    HW1 7439   0.411   3.129   7.227
 2229SOL    HW2 7440   0.398   3.110   7.389
 2230SOL     OW 7441   1.111   3.638   5.823
 2230SOL    HW1 7442   1.051   3.576   5.873
 2230SOL    HW2 7443   1.142   3.594   5.738
 2231SOL     OW 7444   0.202   2.147   7.084
 2231SOL    HW1 7445   0.122   2.207   7.071
 2231SOL    HW2 7446   0.192   2.098   7.170
 2232SOL     OW 7447   1.632   3.239   5.667
 2232SOL    HW1 7448   1.600   3.333   5.657
 2232SOL    HW2 7449   1.556   3.176   5.655
 2233SOL     OW 7450   0.464   3.605   5.909
 2233SOL    HW1 7451   0.497   3.644   5.995
 2233SOL    HW2 7452   0.540   3.598   5.844
 2234SOL     OW 7453   0.249   3.647   6.827
 2234SOL    HW1 7454   0.306   3.582   6.877
 2234SOL    HW2 7455   0.233   3.614   6.734
 2235SOL     OW 7456   0.940   3.560   6.490
 2235SOL    HW1 7457   1.020   3.503   6.511
 2235SOL    HW2 7458   0.891   3.520   6.413
 2236SOL     OW 7459   0.382   2.562   6.066
 2236SOL    HW1 7460   0.427   2.472   6.063
 2236SOL    HW2 7461   0.288   2.551   6.099
 2237SOL     OW 7462   0.614   1.984   5.703
 2237SOL    HW1 7463   0.712   1.962   5.710
 2237SOL    HW2 7464   0.583   1.967   5.610
 2238SOL     OW 7465   0.781   2.126   7.335
 2238SOL    HW1 7466   0.848   2.065   7.378
 2238SOL    HW2 7467   0.708   2.145   7.400
 2239SOL     OW 7468   0.888   3.376   6.781
 2239SOL    HW1 7469   0.865   3.351   6.687
 2239SOL    HW2 7470   0.949   3.307   6.820
 2240SOL     OW 7471   1.351   2.452   7.019
 2240SOL    HW1 7472   1.379   2.409   7.104
 2240SOL    HW2 7473   1.376   2.548   7.020
 2241SOL     OW 7474   0.803   3.264   6.510
 2241SOL    HW1 7475   0.893   3.278   6.468
 2241SOL    HW2 7476   0.732   3.266   6.439
 2242SOL     OW 7477   0.922   2.365   6.485
 2242SOL    HW1 7478   0.897   2.356   6.389
 2242SOL    HW2 7479   0.970   2.283   6.516
 2243SOL     OW 7480   0.539   1.926   6.098
 2243SOL    HW1 7481   0.458   1.927   6.156
 2243SOL    HW2 7482   0.542   2.009   6.043
 2244SOL     OW 7483   1.434   3.050   5.627
 2244SOL    HW1 7484   1.466   2.974   5.684
 2244SOL    HW2 7485   1.342   3.077   5.657
 2245SOL     OW 7486   0.297   1.897   5.757
 2245SOL    HW1 7487   0.346   1.981   5.736
 2245SOL    HW2 7488   0.359   1.832   5.802
 2246SOL     OW 7489   0.935   2.098   6.066
 2246SOL    HW1 7490   0.887   2.139   5.988
 2246SOL    HW2 7491   1.034   2.096   6.047
 2247SOL     OW 7492   1.076   2.545   7.050
 2247SOL    HW1 7493   0.996   2.484   7.053
 2247SOL    HW2 7494   1.157   2.492   7.026
 2248SOL     OW 7495   1.227   3.432   6.379
 2248SOL    HW1 7496   1.248   3.506   6.314
 2248SOL    HW2 7497   1.295   3.432   6.452
 2249SOL     OW 7498   0.459   3.014   6.327
 2249SOL    HW1 7499   0.388   2.987   6.392
 2249SOL    HW2 7500   0.433   2.986   6.234
 2250SOL     OW 7501   1.271   3.659   6.177
 2250SOL    HW1 7502   1.315   3.723   6.113
 2250SOL    HW2 7503   1.221   3.711   6.247
 2251SOL     OW 7504   1.032   2.411   5.602
 2251SOL    HW1 7505   0.991   2.493   5.563
 2251SOL    HW2 7506   1.096   2.437   5.675
 2252SOL     OW 7507   0.078   2.418   6.972
 2252SOL    HW1 7508   0.170   2.417   6.931
 2252SOL    HW2 7509   0.072   2.492   7.039
 2253SOL     OW 7510   0.561   2.084   6.733
 2253SOL    HW1 7511   0.599   2.000   6.770
 2253SOL    HW2 7512   0.473   2.103   6.777
 2254SOL     OW 7513   0.866   2.316   6.228
 2254SOL    HW1 7514   0.834   2.388   6.166
 2254SOL    HW2 7515   0.890   2.235   6.175
 2255SOL     OW 7516   1.017   1.901   6.339
 2255SOL    HW1 7517   0.945   1.906   6.270
 2255SOL    HW2 7518   0.993   1.832   6.408
 2256SOL     OW 7519   1.429   3.035   6.453
 2256SOL    HW1 7520   1.374   2.951   6.446
 2256SOL    HW2 7521   1.455   3.064   6.361
 2257SOL     OW 7522   1.857   2.695   5.963
 2257SOL    HW1 7523   1.899   2.631   6.027
 2257SOL    HW2 7524   1.819   2.644   5.885
 2258SOL     OW 7525   0.488   3.247   5.760
 2258SOL    HW1 7526   0.401   3.232   5.807
 2258SOL    HW2 7527   0.471   3.273   5.665
 2259SOL     OW 7528   1.664   3.142   6.243
 2259SOL    HW1 7529   1.763   3.150   6.257
 2259SOL    HW2 7530   1.619   3.226   6.274
 2260SOL     OW 7531   1.390   2.437   5.664
 2260SOL    HW1 7532   1.336   2.416   5.745
 2260SOL    HW2 7533   1.481   2.396   5.673
 2261SOL     OW 7534   0.527   2.118   5.914
 2261SOL    HW1 7535   0.554   2.059   5.839
 2261SOL    HW2 7536   0.527   2.213   5.883
 2262SOL     OW 7537   1.754   3.085   7.174
 2262SOL    HW1 7538   1.845   3.046   7.161
 2262SOL    HW2 7539   1.762   3.181   7.198
 2263SOL     OW 7540   1.064   3.209   6.926
 2263SOL    HW1 7541   0.984   3.186   6.981
 2263SOL    HW2 7542   1.147   3.183   6.975
 2264SOL     OW 7543   1.592   3.491   7.211
 2264SOL    HW1 7544   1.619   3.525   7.121
 2264SOL    HW2 7545   1.671   3.453   7.257
 2265SOL     OW 7546   1.111   3.057   6.686
 2265SOL    HW1 7547   1.071   3.101   6.767
 2265SOL    HW2 7548   1.070   3.094   6.603
 2266SOL     OW 7549   1.638   2.961   6.665
 2266SOL    HW1 7550   1.643   3.042   6.724
 2266SOL    HW2 7551   1.552   2.963   6.614
 2267SOL     OW 7552   0.915   1.951   6.988
 2267SOL    HW1 7553   0.940   1.931   6.893
 2267SOL    HW2 7554   0.987   2.007   7.030
 2268SOL     OW 7555   0.980   2.978   7.305
 2268SOL    HW1 7556   0.881   2.984   7.315
 2268SOL    HW2 7557   1.003   2.898   7.249
 2269SOL     OW 7558   0.705   2.912   5.954
 2269SOL    HW1 7559   0.691   2.919   6.053
 2269SOL    HW2 7560   0.789   2.861   5.936
 2270SOL     OW 7561   0.410   2.675   6.837
 2270SOL    HW1 7562   0.496   2.687   6.887
 2270SOL    HW2 7563   0.368   2.588   6.864
 2271SOL     OW 7564   1.274   2.248   6.848
 2271SOL    HW1 7565   1.295   2.322   6.912
 2271SOL    HW2 7566   1.185   2.265   6.805
 2272SOL     OW 7567   0.064   3.426   6.917
 2272SOL    HW1 7568   0.018   3.508   6.883
 2272SOL    HW2 7569   0.162   3.445   6.926
 2273SOL     OW 7570   0.367   2.962   6.087
 2273SOL    HW1 7571   0.360   3.045   6.031
 2273SOL    HW2 7572   0.371   2.882   6.027
 2274SOL     OW 7573   0.566   2.399   6.451
 2274SOL    HW1 7574   0.578   2.465   6.377
 2274SOL    HW2 7575   0.612   2.433   6.534
 2275SOL     OW 7576   1.252   3.210   5.974
 2275SOL    HW1 7577   1.302   3.287   6.014
 2275SOL    HW2 7578   1.157   3.212   6.006
 2276SOL     OW 7579   1.272   3.307   6.728
 2276SOL    HW1 7580   1.319   3.320   6.815
 2276SOL    HW2 7581   1.206   3.233   6.737
 2277SOL     OW 7582   0.354   3.372   6.915
 2277SOL    HW1 7583   0.333   3.328   6.828
 2277SOL    HW2 7584   0.451   3.398   6.918
 2278SOL     OW 7585   0.402   2.613   7.184
 2278SOL    HW1 7586   0.470   2.668   7.137
 2278SOL    HW2 7587   0.442   2.525   7.211
 2279SOL     OW 7588   1.587   2.641   7.256
 2279SOL    HW1 7589   1.495   2.679   7.251
 2279SOL    HW2 7590   1.647   2.688   7.191
 2280SOL     OW 7591   1.013   1.967   7.356
 2280SOL    HW1 7592   1.019   2.052   7.304
 2280SOL    HW2 7593   1.045   1.891   7.299
 2281SOL     OW 7594   0.504   1.912   7.326
 2281SOL    HW1 7595   0.462   1.855   7.256
 2281SOL    HW2 7596   0.438   1.981   7.358
 2282SOL     OW 7597   0.573   2.732   6.615
 2282SOL    HW1 7598   0.617   2.821   6.606
 2282SOL    HW2 7599   0.510   2.732   6.692
 2283SOL     OW 7600   1.209   2.387   5.861
 2283SOL    HW1 7601   1.222   2.303   5.915
 2283SOL    HW2 7602   1.180   2.461   5.921
 2284SOL     OW 7603   0.307   2.075   6.817
 2284SOL    HW1 7604   0.284   2.112   6.907
 2284SOL    HW2 7605   0.277   1.980   6.811
 2285SOL     OW 7606   0.037   3.172   6.868
 2285SOL    HW1 7607   0.090   3.123   6.936
 2285SOL    HW2 7608   0.059   3.270   6.873
 2286SOL     OW 7609   0.732   2.496   6.650
 2286SOL    HW1 7610   0.791   2.470   6.574
 2286SOL    HW2 7611   0.704   2.592   6.639
 2287SOL     OW 7612   0.307   1.925   6.204
 2287SOL    HW1 7613   0.296   2.019   6.237
 2287SOL    HW2 7614   0.302   1.862   6.281
 2288SOL     OW 7615   1.622   2.229   5.960
 2288SOL    HW1 7616   1.624   2.153   6.024
 2288SOL    HW2 7617   1.574   2.306   6.000
 2289SOL     OW 7618   1.023   2.628   6.552
 2289SOL    HW1 7619   1.038   2.649   6.648
 2289SOL    HW2 7620   0.993   2.533   6.543
 2290SOL     OW 7621   0.980   3.435   7.286
 2290SOL    HW1 7622   0.960   3.479   7.198
 2290SOL    HW2 7623   1.019   3.344   7.270
 2291SOL     OW 7624   1.859   3.380   7.191
 2291SOL    HW1 7625   1.873   3.407   7.096
 2291SOL    HW2 7626   1.942   3.402   7.244
 2292SOL     OW 7627   0.350   2.760   7.390
 2292SOL    HW1 7628   0.426   2.804   7.438
 2292SOL    HW2 7629   0.385   2.713   7.308
 2293SOL     OW 7630   1.540   2.136   5.711
 2293SOL    HW1 7631   1.479   2.061   5.734
 2293SOL    HW2 7632   1.562   2.188   5.794
 2294SOL     OW 7633   1.303   2.700   5.628
 2294SOL    HW1 7634   1.337   2.607   5.643
 2294SOL    HW2 7635   1.321   2.727   5.533
 2295SOL     OW 7636   1.068   3.195   6.435
 2295SOL    HW1 7637   1.075   3.111   6.380
 2295SOL    HW2 7638   1.130   3.264   6.399
 2296SOL     OW 7639   0.319   2.672   6.535
 2296SOL    HW1 7640   0.412   2.708   6.540
 2296SOL    HW2 7641   0.313   2.587   6.587
 2297SOL     OW 7642   0.339   2.371   6.592
 2297SOL    HW1 7643   0.287   2.288   6.575
 2297SOL    HW2 7644   0.416   2.376   6.528
 2298SOL     OW 7645   1.138   2.242   7.264
 2298SOL    HW1 7646   1.093   2.305   7.328
 2298SOL    HW2 7647   1.231   2.273   7.247
 2299SOL     OW 7648   1.160   2.069   7.063
 2299SOL    HW1 7649   1.160   2.133   7.140
 2299SOL    HW2 7650   1.188   2.117   6.980
 2300SOL     OW 7651   0.008   3.188   5.786
 2300SOL    HW1 7652  -0.085   3.209   5.755
 2300SOL    HW2 7653   0.018   3.089   5.799
 2301SOL     OW 7654   0.088   3.663   6.513
 2301SOL    HW1 7655   0.046   3.577   6.486
 2301SOL    HW2 7656   0.182   3.666   6.479
 2302SOL     OW 7657   0.504   3.430   6.496
 2302SOL    HW1 7658   0.570   3.504   6.505
 2302SOL    HW2 7659   0.548   3.351   6.454
 2303SOL     OW 7660   1.002   2.658   6.824
 2303SOL    HW1 7661   1.043   2.626   6.910
 2303SOL    HW2 7662   0.906   2.631   6.821
 2304SOL     OW 7663   0.040   2.406   6.700
 2304SOL    HW1 7664   0.125   2.373   6.659
 2304SOL    HW2 7665   0.053   2.421   6.798
 2305SOL     OW 7666   0.189   2.382   7.308
 2305SOL    HW1 7667   0.248   2.342   7.238
 2305SOL    HW2 7668   0.131   2.453   7.267
 2306SOL     OW 7669   1.369   2.812   7.246
 2306SOL    HW1 7670   1.408   2.901   7.266
 2306SOL    HW2 7671   1.379   2.792   7.149
 2307SOL     OW 7672   0.815   2.434   5.911
 2307SOL    HW1 7673   0.822   2.345   5.865
 2307SOL    HW2 7674   0.721   2.468   5.903
 2308SOL     OW 7675   1.657   2.466   6.792
 2308SOL    HW1 7676   1.619   2.397   6.854
 2308SOL    HW2 7677   1.739   2.430   6.748
 2309SOL     OW 7678   0.252   3.426   7.330
 2309SOL    HW1 7679   0.222   3.483   7.406
 2309SOL    HW2 7680   0.245   3.329   7.356
 2310SOL     OW 7681   0.671   2.326   6.855
 2310SOL    HW1 7682   0.637   2.237   6.825
 2310SOL    HW2 7683   0.697   2.380   6.775
 2311SOL     OW 7684   0.930   3.540   7.051
 2311SOL    HW1 7685   0.906   3.522   6.956
 2311SOL    HW2 7686   0.960   3.634   7.061
 2312SOL     OW 7687   0.473   2.362   5.777
 2312SOL    HW1 7688   0.534   2.442   5.781
 2312SOL    HW2 7689   0.378   2.393   5.784
 2313SOL     OW 7690   0.159   2.999   7.052
 2313SOL    HW1 7691   0.181   2.938   7.128
 2313SOL    HW2 7692   0.169   2.950   6.966
 2314SOL     OW 7693   1.347   2.921   6.820
 2314SOL    HW1 7694   1.371   2.858   6.746
 2314SOL    HW2 7695   1.257   2.961   6.802
 2315SOL     OW 7696   1.302   2.717   5.895
 2315SOL    HW1 7697   1.216   2.686   5.937
 2315SOL    HW2 7698   1.298   2.703   5.796
 2316SOL     OW 7699   1.759   3.609   6.740
 2316SOL    HW1 7700   1.820   3.639   6.667
 2316SOL    HW2 7701   1.721   3.520   6.718
 2317SOL     OW 7702   1.252   3.593   6.714
 2317SOL    HW1 7703   1.336   3.598   6.660
 2317SOL    HW2 7704   1.229   3.497   6.732
 2318SOL     OW 7705   0.083   3.120   6.608
 2318SOL    HW1 7706   0.078   3.119   6.708
 2318SOL    HW2 7707   0.000   3.079   6.570
 2319SOL     OW 7708   0.688   3.524   7.302
 2319SOL    HW1 7709   0.632   3.605   7.311
 2319SOL    HW2 7710   0.740   3.528   7.216
 2320SOL     OW 7711   1.388   3.435   6.063
 2320SOL    HW1 7712   1.455   3.447   5.989
 2320SOL    HW2 7713   1.348   3.524   6.086
 2321SOL     OW 7714   0.130   3.656   7.437
 2321SOL    HW1 7715   0.089   3.582   7.490
 2321SOL    HW2 7716   0.194   3.707   7.495
 2322SOL     OW 7717   1.280   2.789   6.258
 2322SOL    HW1 7718   1.340   2.708   6.260
 2322SOL    HW2 7719   1.320   2.858   6.198
 2323SOL     OW 7720   0.830   3.135   7.008
 2323SOL    HW1 7721   0.825   3.168   7.103
 2323SOL    HW2 7722   0.744   3.154   6.962
 2324SOL     OW 7723   0.672   3.478   5.740
 2324SOL    HW1 7724   0.681   3.488   5.641
 2324SOL    HW2 7725   0.632   3.389   5.761
 2325SOL     OW 7726   1.650   3.582   6.980
 2325SOL    HW1 7727   1.703   3.592   6.896
 2325SOL    HW2 7728   1.623   3.672   7.014
 2326SOL     OW 7729   0.263   2.188   6.306
 2326SOL    HW1 7730   0.184   2.239   6.272
 2326SOL    HW2 7731   0.254   2.173   6.404
 2327SOL     OW 7732   1.194   3.474   5.617
 2327SOL    HW1 7733   1.200   3.381   5.654
 2327SOL    HW2 7734   1.135   3.474   5.537
 2328SOL     OW 7735   0.822   2.864   6.958
 2328SOL    HW1 7736   0.862   2.863   6.866
 2328SOL    HW2 7737   0.832   2.956   6.998
 2329SOL     OW 7738   0.916   2.772   5.877
 2329SOL    HW1 7739   0.979   2.810   5.809
 2329SOL    HW2 7740   0.956   2.689   5.916
 2330SOL     OW 7741   1.504   3.469   5.630
 2330SOL    HW1 7742   1.412   3.506   5.637
 2330SOL    HW2 7743   1.542   3.489   5.540
 2331SOL     OW 7744   0.372   3.150   7.076
 2331SOL    HW1 7745   0.359   3.243   7.042
 2331SOL    HW2 7746   0.288   3.098   7.063
 2332SOL     OW 7747   1.614   3.154   6.875
 2332SOL    HW1 7748   1.674   3.157   6.955
 2332SOL    HW2 7749   1.539   3.218   6.888
 2333SOL     OW 7750   1.039   2.960   6.282
 2333SOL    HW1 7751   0.969   2.913   6.336
 2333SOL    HW2 7752   1.098   2.892   6.239
 2334SOL     OW 7753   1.014   2.098   6.557
 2334SOL    HW1 7754   1.006   2.062   6.464
 2334SOL    HW2 7755   1.012   2.022   6.622
 2335SOL     OW 7756   0.590   3.349   6.077
 2335SOL    HW1 7757   0.632   3.291   6.007
 2335SOL    HW2 7758   0.546   3.428   6.033
 2336SOL     OW 7759   1.709   2.247   6.967
 2336SOL    HW1 7760   1.782   2.316   6.971
 2336SOL    HW2 7761   1.737   2.172   6.908
 2337SOL     OW 7762   0.255   3.210   5.876
 2337SOL    HW1 7763   0.159   3.211   5.849
 2337SOL    HW2 7764   0.267   3.263   5.960
 2338SOL     OW 7765   0.105   2.875   7.312
 2338SOL    HW1 7766   0.028   2.842   7.366
 2338SOL    HW2 7767   0.190   2.845   7.354
 2339SOL     OW 7768   0.672   2.065   7.075
 2339SOL    HW1 7769   0.762   2.049   7.035
 2339SOL    HW2 7770   0.680   2.070   7.174
 2340SOL     OW 7771   0.075   2.207   5.619
 2340SOL    HW1 7772  -0.017   2.179   5.590
 2340SOL    HW2 7773   0.106   2.284   5.563
 2341SOL     OW 7774   1.440   2.718   6.984
 2341SOL    HW1 7775   1.383   2.770   6.921
 2341SOL    HW2 7776   1.536   2.730   6.960
 2342SOL     OW 7777   0.072   2.028   5.904
 2342SOL    HW1 7778   0.055   2.111   5.850
 2342SOL    HW2 7779   0.162   1.991   5.882
 2343SOL     OW 7780   1.183   3.197   5.705
 2343SOL    HW1 7781   1.084   3.186   5.707
 2343SOL    HW2 7782   1.217   3.212   5.798
 2344SOL     OW 7783   0.613   2.704   7.017
 2344SOL    HW1 7784   0.669   2.785   7.000
 2344SOL    HW2 7785   0.672   2.624   7.020
 2345SOL     OW 7786   1.493   3.629   6.545
 2345SOL    HW1 7787   1.526   3.693   6.476
 2345SOL    HW2 7788   1.559   3.623   6.620
 2346SOL     OW 7789   0.716   2.427   7.294
 2346SOL    HW1 7790   0.735   2.492   7.368
 2346SOL    HW2 7791   0.776   2.347   7.303
 2347SOL     OW 7792   1.450   3.082   7.219
 2347SOL    HW1 7793   1.441   3.072   7.318
 2347SOL    HW2 7794   1.546   3.075   7.193
 2348SOL     OW 7795   0.390   3.603   7.146
 2348SOL    HW1 7796   0.299   3.644   7.144
 2348SOL    HW2 7797   0.383   3.509   7.178
 2349SOL     OW 7798   1.674   2.745   6.840
 2349SOL    HW1 7799   1.647   2.656   6.803
 2349SOL    HW2 7800   1.675   2.813   6.767
 2350SOL     OW 7801   0.594   2.607   6.238
 2350SOL    HW1 7802   0.644   2.692   6.219
 2350SOL    HW2 7803   0.506   2.609   6.190
 2351SOL     OW 7804   1.777   2.204   7.228
 2351SOL    HW1 7805   1.760   2.235   7.134
 2351SOL    HW2 7806   1.693   2.167   7.266
 2352SOL     OW 7807   1.730   2.796   7.103
 2352SOL    HW1 7808   1.768   2.887   7.118
 2352SOL    HW2 7809   1.722   2.779   7.004
 2353SOL     OW 7810   0.859   3.236   5.602
 2353SOL    HW1 7811   0.813   3.251   5.690
 2353SOL    HW2 7812   0.903   3.321   5.572
 2354SOL     OW 7813   0.661   3.652   6.539
 2354SOL    HW1 7814   0.615   3.740   6.526
 2354SOL    HW2 7815   0.760   3.664   6.532
 2355SOL     OW 7816   0.859   2.818   6.447
 2355SOL    HW1 7817   0.913   2.749   6.495
 2355SOL    HW2 7818   0.827   2.887   6.513
 2356SOL     OW 7819   1.083   2.846   5.673
 2356SOL    HW1 7820   1.060   2.899   5.591
 2356SOL    HW2 7821   1.164   2.790   5.654
 2357SOL     OW 7822   1.861   3.431   6.437
 2357SOL    HW1 7823   1.790   3.419   6.367
 2357SOL    HW2 7824   1.862   3.352   6.497
 2358SOL     OW 7825   0.221   3.176   7.430
 2358SOL    HW1 7826   0.156   3.103   7.409
 2358SOL    HW2 7827   0.225   3.190   7.528
 2359SOL     OW 7828   0.079   3.102   6.239
 2359SOL    HW1 7829   0.078   3.055   6.327
 2359SOL    HW2 7830   0.161   3.074   6.188
 2360SOL     OW 7831   0.672   3.253   7.210
 2360SOL    HW1 7832   0.594   3.203   7.248
 2360SOL    HW2 7833   0.669   3.348   7.241
 2361SOL     OW 7834   0.428   2.286   6.106
 2361SOL    HW1 7835   0.458   2.214   6.044
 2361SOL    HW2 7836   0.389   2.246   6.189
 2362SOL     OW 7837   1.705   3.349   6.690
 2362SOL    HW1 7838   1.612   3.324   6.663
 2362SOL    HW2 7839   1.731   3.299   6.772
 2363SOL     OW 7840   0.317   2.409   6.866
 2363SOL    HW1 7841   0.355   2.350   6.938
 2363SOL    HW2 7842   0.357   2.383   6.778
 2364SOL     OW 7843   0.812   3.448   6.273
 2364SOL    HW1 7844   0.844   3.458   6.179
 2364SOL    HW2 7845   0.733   3.386   6.275
 2365SOL     OW 7846   1.001   1.896   6.740
 2365SOL    HW1 7847   0.938   1.824   6.709
 2365SOL    HW2 7848   1.094   1.860   6.740
 2366SOL     OW 7849   0.770   3.192   5.887
 2366SOL    HW1 7850   0.724   3.105   5.904
 2366SOL    HW2 7851   0.861   3.189   5.928
 2367SOL     OW 7852   0.618   3.429   6.870
 2367SOL    HW1 7853   0.613   3.511   6.927
 2367SOL    HW2 7854   0.707   3.426   6.825
 2368SOL     OW 7855   1.352   1.914   5.754
 2368SOL    HW1 7856   1.387   1.873   5.670
 2368SOL    HW2 7857   1.262   1.876   5.774
 2369SOL     OW 7858   0.039   2.939   5.886
 2369SOL    HW1 7859   0.138   2.928   5.877
 2369SOL    HW2 7860  -0.001   2.853   5.918
 2370SOL     OW 7861   0.875   3.508   5.923
 2370SOL    HW1 7862   0.798   3.473   5.869
 2370SOL    HW2 7863   0.843   3.579   5.985
 2371SOL     OW 7864   0.230   2.490   7.561
 2371SOL    HW1 7865   0.137   2.488   7.598
 2371SOL    HW2 7866   0.231   2.451   7.469
 2372SOL     OW 7867   0.225   2.137   8.444
 2372SOL    HW1 7868   0.260   2.120   8.536
 2372SOL    HW2 7869   0.137   2.092   8.432
 2373SOL     OW 7870   0.019   2.230   8.095
 2373SOL    HW1 7871  -0.063   2.273   8.134
 2373SOL    HW2 7872  -0.009   2.157   8.032
 2374SOL     OW 7873   0.569   3.137   8.613
 2374SOL    HW1 7874   0.476   3.130   8.576
 2374SOL    HW2 7875   0.580   3.226   8.657
 2375SOL     OW 7876   1.555   3.373   8.151
 2375SOL    HW1 7877   1.498   3.357   8.232
 2375SOL    HW2 7878   1.496   3.383   8.071
 2376SOL     OW 7879   1.135   2.565   8.165
 2376SOL    HW1 7880   1.192   2.643   8.140
 2376SOL    HW2 7881   1.075   2.591   8.241
 2377SOL     OW 7882   0.768   3.006   8.471
 2377SOL    HW1 7883   0.690   3.023   8.531
 2377SOL    HW2 7884   0.802   3.093   8.435
 2378SOL     OW 7885   0.850   2.660   9.271
 2378SOL    HW1 7886   0.846   2.736   9.336
 2378SOL    HW2 7887   0.872   2.696   9.180
 2379SOL     OW 7888   0.685   2.874   8.113
 2379SOL    HW1 7889   0.754   2.858   8.183
 2379SOL    HW2 7890   0.612   2.931   8.151
 2380SOL     OW 7891   0.686   3.023   9.251
 2380SOL    HW1 7892   0.746   3.102   9.265
 2380SOL    HW2 7893   0.600   3.054   9.210
 2381SOL     OW 7894   0.335   3.297   8.509
 2381SOL    HW1 7895   0.257   3.266   8.456
 2381SOL    HW2 7896   0.393   3.355   8.452
 2382SOL     OW 7897   1.460   3.367   8.787
 2382SOL    HW1 7898   1.484   3.461   8.813
 2382SOL    HW2 7899   1.444   3.313   8.869
 2383SOL     OW 7900   0.438   2.254   8.947
 2383SOL    HW1 7901   0.520   2.198   8.956
 2383SOL    HW2 7902   0.357   2.196   8.951
 2384SOL     OW 7903   1.603   2.309   8.185
 2384SOL    HW1 7904   1.529   2.355   8.135
 2384SOL    HW2 7905   1.654   2.377   8.238
 2385SOL     OW 7906   0.231   3.575   7.931
 2385SOL    HW1 7907   0.265   3.652   7.985
 2385SOL    HW2 7908   0.275   3.575   7.841
 2386SOL     OW 7909   1.127   3.203   9.138
 2386SOL    HW1 7910   1.174   3.203   9.226
 2386SOL    HW2 7911   1.079   3.116   9.127
 2387SOL     OW 7912   0.230   3.296   7.986
 2387SOL    HW1 7913   0.204   3.392   7.986
 2387SOL    HW2 7914   0.159   3.242   8.031
 2388SOL     OW 7915   0.240   2.953   8.334
 2388SOL    HW1 7916   0.254   2.869   8.386
 2388SOL    HW2 7917   0.185   3.017   8.389
 2389SOL     OW 7918   0.620   3.648   8.887
 2389SOL    HW1 7919   0.528   3.631   8.922
 2389SOL    HW2 7920   0.648   3.740   8.913
 2390SOL     OW 7921   0.606   2.826   7.571
 2390SOL    HW1 7922   0.613   2.910   7.517
 2390SOL    HW2 7923   0.652   2.839   7.659
 2391SOL     OW 7924   1.594   1.976   8.928
 2391SOL    HW1 7925   1.576   2.043   8.856
 2391SOL    HW2 7926   1.591   2.022   9.017
 2392SOL     OW 7927   0.122   2.505   8.011
 2392SOL    HW1 7928   0.077   2.417   8.028
 2392SOL    HW2 7929   0.121   2.559   8.095
 2393SOL     OW 7930   1.842   3.629   7.807
 2393SOL    HW1 7931   1.896   3.600   7.887
 2393SOL    HW2 7932   1.872   3.719   7.778
 2394SOL     OW 7933   0.027   3.458   7.565
 2394SOL    HW1 7934   0.008   3.362   7.586
 2394SOL    HW2 7935  -0.006   3.516   7.640
 2395SOL     OW 7936   1.689   2.784   8.060
 2395SOL    HW1 7937   1.784   2.755   8.068
 2395SOL    HW2 7938   1.681   2.849   7.985
 2396SOL     OW 7939   1.641   2.970   7.880
 2396SOL    HW1 7940   1.727   2.972   7.828
 2396SOL    HW2 7941   1.655   3.017   7.968
 2397SOL     OW 7942   0.113   2.599   9.045
 2397SOL    HW1 7943   0.201   2.586   9.090
 2397SOL    HW2 7944   0.100   2.696   9.023
 2398SOL     OW 7945   0.613   3.227   8.174
 2398SOL    HW1 7946   0.564   3.140   8.183
 2398SOL    HW2 7947   0.590   3.270   8.087
 2399SOL     OW 7948   1.293   3.090   8.871
 2399SOL    HW1 7949   1.330   3.017   8.813
 2399SOL    HW2 7950   1.345   3.095   8.956
 2400SOL     OW 7951   0.809   1.866   7.950
 2400SOL    HW1 7952   0.849   1.957   7.941
 2400SOL    HW2 7953   0.709   1.874   7.956
 2401SOL     OW 7954   0.197   2.838   8.712
 2401SOL    HW1 7955   0.286   2.793   8.698
 2401SOL    HW2 7956   0.124   2.773   8.693
 2402SOL     OW 7957   1.525   2.861   7.638
 2402SOL    HW1 7958   1.462   2.785   7.651
 2402SOL    HW2 7959   1.573   2.879   7.724
 2403SOL     OW 7960   1.187   3.654   9.064
 2403SOL    HW1 7961   1.211   3.714   8.988
 2403SOL    HW2 7962   1.194   3.559   9.034
 2404SOL     OW 7963   0.317   2.113   9.249
 2404SOL    HW1 7964   0.388   2.184   9.255
 2404SOL    HW2 7965   0.229   2.152   9.277
 2405SOL     OW 7966   1.466   3.279   8.401
 2405SOL    HW1 7967   1.407   3.285   8.481
 2405SOL    HW2 7968   1.451   3.191   8.355
 2406SOL     OW 7969   1.667   3.576   8.020
 2406SOL    HW1 7970   1.626   3.553   7.932
 2406SOL    HW2 7971   1.649   3.502   8.085
 2407SOL     OW 7972   0.598   2.591   7.718
 2407SOL    HW1 7973   0.622   2.660   7.650
 2407SOL    HW2 7974   0.520   2.624   7.772
 2408SOL     OW 7975   1.281   2.207   8.392
 2408SOL    HW1 7976   1.195   2.157   8.379
 2408SOL    HW2 7977   1.343   2.153   8.448
 2409SOL     OW 7978   1.576   3.524   7.755
 2409SOL    HW1 7979   1.665   3.570   7.758
 2409SOL    HW2 7980   1.555   3.500   7.660
 2410SOL     OW 7981   0.807   2.467   8.913
 2410SOL    HW1 7982   0.760   2.464   9.002
 2410SOL    HW2 7983   0.756   2.412   8.847
 2411SOL     OW 7984   1.394   2.331   9.122
 2411SOL    HW1 7985   1.374   2.374   9.210
 2411SOL    HW2 7986   1.472   2.269   9.131
 2412SOL     OW 7987   0.973   2.752   9.020
 2412SOL    HW1 7988   1.019   2.668   8.991
 2412SOL    HW2 7989   0.917   2.786   8.945
 2413SOL     OW 7990   0.991   2.272   8.690
 2413SOL    HW1 7991   0.914   2.306   8.744
 2413SOL    HW2 7992   0.957   2.221   8.611
 2414SOL     OW 7993   1.041   2.563   7.877
 2414SOL    HW1 7994   1.067   2.559   7.973
 2414SOL    HW2 7995   0.956   2.512   7.863
 2415SOL     OW 7996   0.076   2.673   8.237
 2415SOL    HW1 7997   0.175   2.661   8.246
 2415SOL    HW2 7998   0.052   2.768   8.258
 2416SOL     OW 7999   0.130   3.683   9.019
 2416SOL    HW1 8000   0.120   3.668   9.118
 2416SOL    HW2 8001   0.044   3.719   8.983
 2417SOL     OW 8002   0.865   2.210   7.643
 2417SOL    HW1 8003   0.924   2.273   7.594
 2417SOL    HW2 8004   0.884   2.116   7.614
 2418SOL     OW 8005   1.719   2.447   9.279
 2418SOL    HW1 8006   1.693   2.536   9.243
 2418SOL    HW2 8007   1.717   2.379   9.206
 2419SOL     OW 8008   1.362   3.006   7.993
 2419SOL    HW1 8009   1.445   2.977   7.945
 2419SOL    HW2 8010   1.313   3.073   7.937
 2420SOL     OW 8011   0.550   2.058   8.333
 2420SOL    HW1 8012   0.545   2.053   8.433
 2420SOL    HW2 8013   0.552   2.154   8.304
 2421SOL     OW 8014   1.008   3.318   7.925
 2421SOL    HW1 8015   0.962   3.390   7.873
 2421SOL    HW2 8016   1.004   3.338   8.023
 2422SOL     OW 8017   0.351   3.663   8.301
 2422SOL    HW1 8018   0.401   3.577   8.307
 2422SOL    HW2 8019   0.416   3.740   8.298
 2423SOL     OW 8020   1.795   2.928   8.321
 2423SOL    HW1 8021   1.733   2.913   8.245
 2423SOL    HW2 8022   1.743   2.939   8.406
 2424SOL     OW 8023   1.227   3.412   8.954
 2424SOL    HW1 8024   1.233   3.335   9.018
 2424SOL    HW2 8025   1.175   3.386   8.874
 2425SOL     OW 8026   0.321   2.805   7.690
 2425SOL    HW1 8027   0.403   2.844   7.648
 2425SOL    HW2 8028   0.294   2.723   7.641
 2426SOL     OW 8029   1.458   2.597   8.176
 2426SOL    HW1 8030   1.453   2.532   8.251
 2426SOL    HW2 8031   1.538   2.656   8.189
 2427SOL     OW 8032   0.461   3.128   9.175
 2427SOL    HW1 8033   0.411   3.129   9.089
 2427SOL    HW2 8034   0.398   3.110   9.251
 2428SOL     OW 8035   1.111   3.638   7.685
 2428SOL    HW1 8036   1.051   3.576   7.735
 2428SOL    HW2 8037   1.142   3.594   7.600
 2429SOL     OW 8038   0.202   2.147   8.946
 2429SOL    HW1 8039   0.122   2.207   8.933
 2429SOL    HW2 8040   0.192   2.098   9.032
 2430SOL     OW 8041   1.632   3.239   7.529
 2430SOL    HW1 8042   1.600   3.333   7.519
 2430SOL    HW2 8043   1.556   3.176   7.517
 2431SOL     OW 8044   0.464   3.605   7.771
 2431SOL    HW1 8045   0.497   3.644   7.857
 2431SOL    HW2 8046   0.540   3.598   7.706
 2432SOL     OW 8047   0.249   3.647   8.689
 2432SOL    HW1 8048   0.306   3.582   8.739
 2432SOL    HW2 8049   0.233   3.614   8.596
 2433SOL     OW 8050   0.940   3.560   8.352
 2433SOL    HW1 8051   1.020   3.503   8.373
 2433SOL    HW2 8052   0.891   3.520   8.275
 2434SOL     OW 8053   0.382   2.562   7.928
 2434SOL    HW1 8054   0.427   2.472   7.925
 2434SOL    HW2 8055   0.288   2.551   7.961
 2435SOL     OW 8056   1.547   2.084   9.177
 2435SOL    HW1 8057   1.542   2.121   9.269
 2435SOL    HW2 8058   1.475   2.015   9.165
 2436SOL     OW 8059   0.614   1.984   7.565
 2436SOL    HW1 8060   0.712   1.962   7.572
 2436SOL    HW2 8061   0.583   1.967   7.472
 2437SOL     OW 8062   0.781   2.126   9.197
 2437SOL    HW1 8063   0.848   2.065   9.240
 2437SOL    HW2 8064   0.708   2.145   9.262
 2438SOL     OW 8065   0.888   3.376   8.643
 2438SOL    HW1 8066   0.865   3.351   8.549
 2438SOL    HW2 8067   0.949   3.307   8.682
 2439SOL     OW 8068   1.351   2.452   8.881
 2439SOL    HW1 8069   1.379   2.409   8.966
 2439SOL    HW2 8070   1.376   2.548   8.882
 2440SOL     OW 8071   0.803   3.264   8.372
 2440SOL    HW1 8072   0.893   3.278   8.330
 2440SOL    HW2 8073   0.732   3.266   8.301
 2441SOL     OW 8074   0.922   2.365   8.347
 2441SOL    HW1 8075   0.897   2.356   8.251
 2441SOL    HW2 8076   0.970   2.283   8.378
 2442SOL     OW 8077   0.539   1.926   7.960
 2442SOL    HW1 8078   0.458   1.927   8.018
 2442SOL    HW2 8079   0.542   2.009   7.905
 2443SOL     OW 8080   1.434   3.050   7.489
 2443SOL    HW1 8081   1.466   2.974   7.546
 2443SOL    HW2 8082   1.342   3.077   7.519
 2444SOL     OW 8083   0.297   1.897   7.619
 2444SOL    HW1 8084   0.346   1.981   7.598
 2444SOL    HW2 8085   0.359   1.832   7.664
 2445SOL     OW 8086   0.935   2.098   7.928
 2445SOL    HW1 8087   0.887   2.139   7.850
 2445SOL    HW2 8088   1.034   2.096   7.909
 2446SOL     OW 8089   1.076   2.545   8.912
 2446SOL    HW1 8090   0.996   2.484   8.915
 2446SOL    HW2 8091   1.157   2.492   8.888
 2447SOL     OW 8092   1.227   3.432   8.241
 2447SOL    HW1 8093   1.248   3.506   8.176
 2447SOL    HW2 8094   1.295   3.432   8.314
 2448SOL     OW 8095   0.459   3.014   8.189
 2448SOL    HW1 8096   0.388   2.987   8.254
 2448SOL    HW2 8097   0.433   2.986   8.096
 2449SOL     OW 8098   1.271   3.659   8.039
 2449SOL    HW1 8099   1.315   3.723   7.975
 2449SOL    HW2 8100   1.221   3.711   8.109
 2450SOL     OW 8101   1.032   2.411   7.464
 2450SOL    HW1 8102   0.991   2.493   7.425
 2450SOL    HW2 8103   1.096   2.437   7.537
 2451SOL     OW 8104   0.078   2.418   8.834
 2451SOL    HW1 8105   0.170   2.417   8.793
 2451SOL    HW2 8106   0.072   2.492   8.901
 2452SOL     OW 8107   0.561   2.084   8.595
 2452SOL    HW1 8108   0.599   2.000   8.632
 2452SOL    HW2 8109   0.473   2.103   8.639
 2453SOL     OW 8110   0.866   2.316   8.090
 2453SOL    HW1 8111   0.834   2.388   8.028
 2453SOL    HW2 8112   0.890   2.235   8.037
 2454SOL     OW 8113   1.017   1.901   8.201
 2454SOL    HW1 8114   0.945   1.906   8.132
 2454SOL    HW2 8115   0.993   1.832   8.270
 2455SOL     OW 8116   1.429   3.035   8.315
 2455SOL    HW1 8117   1.374   2.951   8.308
 2455SOL    HW2 8118   1.455   3.064   8.223
 2456SOL     OW 8119   1.466   2.452   8.440
 2456SOL    HW1 8120   1.436   2.357   8.447
 2456SOL    HW2 8121   1.539   2.468   8.506
 2457SOL     OW 8122   0.488   3.247   7.622
 2457SOL    HW1 8123   0.401   3.232   7.669
 2457SOL    HW2 8124   0.471   3.273   7.527
 2458SOL     OW 8125   1.664   3.142   8.105
 2458SOL    HW1 8126   1.763   3.150   8.119
 2458SOL    HW2 8127   1.619   3.226   8.136
 2459SOL     OW 8128   0.527   2.118   7.776
 2459SOL    HW1 8129   0.554   2.059   7.701
 2459SOL    HW2 8130   0.527   2.213   7.745
 2460SOL     OW 8131   1.754   3.085   9.036
 2460SOL    HW1 8132   1.845   3.046   9.023
 2460SOL    HW2 8133   1.762   3.181   9.060
 2461SOL     OW 8134   1.064   3.209   8.788
 2461SOL    HW1 8135   0.984   3.186   8.843
 2461SOL    HW2 8136   1.147   3.183   8.837
 2462SOL     OW 8137   1.592   3.491   9.073
 2462SOL    HW1 8138   1.619   3.525   8.983
 2462SOL    HW2 8139   1.671   3.453   9.119
 2463SOL     OW 8140   1.111   3.057   8.548
 2463SOL    HW1 8141   1.071   3.101   8.629
 2463SOL    HW2 8142   1.070   3.094   8.465
 2464SOL     OW 8143   1.638   2.961   8.527
 2464SOL    HW1 8144   1.643   3.042   8.586
 2464SOL    HW2 8145   1.552   2.963   8.476
 2465SOL     OW 8146   0.915   1.951   8.850
 2465SOL    HW1 8147   0.940   1.931   8.755
 2465SOL    HW2 8148   0.987   2.007   8.892
 2466SOL     OW 8149   0.980   2.978   9.167
 2466SOL    HW1 8150   0.881   2.984   9.177
 2466SOL    HW2 8151   1.003   2.898   9.111
 2467SOL     OW 8152   0.705   2.912   7.816
 2467SOL    HW1 8153   0.691   2.919   7.915
 2467SOL    HW2 8154   0.789   2.861   7.798
 2468SOL     OW 8155   0.410   2.675   8.699
 2468SOL    HW1 8156   0.496   2.687   8.749
 2468SOL    HW2 8157   0.368   2.588   8.726
 2469SOL     OW 8158   1.274   2.248   8.710
 2469SOL    HW1 8159   1.295   2.322   8.774
 2469SOL    HW2 8160   1.185   2.265   8.667
 2470SOL     OW 8161   0.064   3.426   8.779
 2470SOL    HW1 8162   0.018   3.508   8.745
 2470SOL    HW2 8163   0.162   3.445   8.788
 2471SOL     OW 8164   0.367   2.962   7.949
 2471SOL    HW1 8165   0.360   3.045   7.893
 2471SOL    HW2 8166   0.371   2.882   7.889
 2472SOL     OW 8167   0.566   2.399   8.313
 2472SOL    HW1 8168   0.578   2.465   8.239
 2472SOL    HW2 8169   0.612   2.433   8.396
 2473SOL     OW 8170   1.252   3.210   7.836
 2473SOL    HW1 8171   1.302   3.287   7.876
 2473SOL    HW2 8172   1.157   3.212   7.868
 2474SOL     OW 8173   1.272   3.307   8.590
 2474SOL    HW1 8174   1.319   3.320   8.677
 2474SOL    HW2 8175   1.206   3.233   8.599
 2475SOL     OW 8176   0.354   3.372   8.777
 2475SOL    HW1 8177   0.333   3.328   8.690
 2475SOL    HW2 8178   0.451   3.398   8.780
 2476SOL     OW 8179   0.402   2.613   9.046
 2476SOL    HW1 8180   0.470   2.668   8.999
 2476SOL    HW2 8181   0.442   2.525   9.073
 2477SOL     OW 8182   1.587   2.641   9.118
 2477SOL    HW1 8183   1.495   2.679   9.113
 2477SOL    HW2 8184   1.647   2.688   9.053
 2478SOL     OW 8185   1.013   1.967   9.218
 2478SOL    HW1 8186   1.019   2.052   9.166
 2478SOL    HW2 8187   1.045   1.891   9.161
 2479SOL     OW 8188   0.504   1.912   9.188
 2479SOL    HW1 8189   0.462   1.855   9.118
 2479SOL    HW2 8190   0.438   1.981   9.220
 2480SOL     OW 8191   0.573   2.732   8.477
 2480SOL    HW1 8192   0.617   2.821   8.468
 2480SOL    HW2 8193   0.510   2.732   8.554
 2481SOL     OW 8194   1.360   2.724   8.493
 2481SOL    HW1 8195   1.285   2.724   8.427
 2481SOL    HW2 8196   1.397   2.632   8.502
 2482SOL     OW 8197   0.307   2.075   8.679
 2482SOL    HW1 8198   0.284   2.112   8.769
 2482SOL    HW2 8199   0.277   1.980   8.673
 2483SOL     OW 8200   0.037   3.172   8.730
 2483SOL    HW1 8201   0.090   3.123   8.798
 2483SOL    HW2 8202   0.059   3.270   8.735
 2484SOL     OW 8203   0.732   2.496   8.512
 2484SOL    HW1 8204   0.791   2.470   8.436
 2484SOL    HW2 8205   0.704   2.592   8.501
 2485SOL     OW 8206   1.728   2.797   9.302
 2485SOL    HW1 8207   1.682   2.790   9.213
 2485SOL    HW2 8208   1.666   2.841   9.368
 2486SOL     OW 8209   0.307   1.925   8.066
 2486SOL    HW1 8210   0.296   2.019   8.099
 2486SOL    HW2 8211   0.302   1.862   8.143
 2487SOL     OW 8212   1.622   2.229   7.822
 2487SOL    HW1 8213   1.624   2.153   7.886
 2487SOL    HW2 8214   1.574   2.306   7.862
 2488SOL     OW 8215   1.023   2.628   8.414
 2488SOL    HW1 8216   1.038   2.649   8.510
 2488SOL    HW2 8217   0.993   2.533   8.405
 2489SOL     OW 8218   0.980   3.435   9.148
 2489SOL    HW1 8219   0.960   3.479   9.060
 2489SOL    HW2 8220   1.019   3.344   9.132
 2490SOL     OW 8221   1.859   3.380   9.053
 2490SOL    HW1 8222   1.873   3.407   8.958
 2490SOL    HW2 8223   1.942   3.402   9.106
 2491SOL     OW 8224   0.350   2.760   9.252
 2491SOL    HW1 8225   0.426   2.804   9.300
 2491SOL    HW2 8226   0.385   2.713   9.170
 2492SOL     OW 8227   1.303   2.700   7.490
 2492SOL    HW1 8228   1.337   2.607   7.505
 2492SOL    HW2 8229   1.321   2.727   7.395
 2493SOL     OW 8230   1.068   3.195   8.297
 2493SOL    HW1 8231   1.075   3.111   8.242
 2493SOL    HW2 8232   1.130   3.264   8.261
 2494SOL     OW 8233   0.319   2.672   8.397
 2494SOL    HW1 8234   0.412   2.708   8.402
 2494SOL    HW2 8235   0.313   2.587   8.449
 2495SOL     OW 8236   0.339   2.371   8.454
 2495SOL    HW1 8237   0.287   2.288   8.437
 2495SOL    HW2 8238   0.416   2.376   8.390
 2496SOL     OW 8239   1.138   2.242   9.126
 2496SOL    HW1 8240   1.093   2.305   9.190
 2496SOL    HW2 8241   1.231   2.273   9.109
 2497SOL     OW 8242   1.160   2.069   8.925
 2497SOL    HW1 8243   1.160   2.133   9.002
 2497SOL    HW2 8244   1.188   2.117   8.842
 2498SOL     OW 8245   0.008   3.188   7.648
 2498SOL    HW1 8246  -0.085   3.209   7.617
 2498SOL    HW2 8247   0.018   3.089   7.661
 2499SOL     OW 8248   0.088   3.663   8.375
 2499SOL    HW1 8249   0.046   3.577   8.348
 2499SOL    HW2 8250   0.182   3.666   8.341
 2500SOL     OW 8251   0.504   3.430   8.358
 2500SOL    HW1 8252   0.570   3.504   8.367
 2500SOL    HW2 8253   0.548   3.351   8.316
 2501SOL     OW 8254   1.002   2.658   8.686
 2501SOL    HW1 8255   1.043   2.626   8.772
 2501SOL    HW2 8256   0.906   2.631   8.683
 2502SOL     OW 8257   0.040   2.406   8.562
 2502SOL    HW1 8258   0.125   2.373   8.521
 2502SOL    HW2 8259   0.053   2.421   8.660
 2503SOL     OW 8260   0.189   2.382   9.170
 2503SOL    HW1 8261   0.248   2.342   9.100
 2503SOL    HW2 8262   0.131   2.453   9.129
 2504SOL     OW 8263   1.369   2.812   9.108
 2504SOL    HW1 8264   1.408   2.901   9.128
 2504SOL    HW2 8265   1.379   2.792   9.011
 2505SOL     OW 8266   0.815   2.434   7.773
 2505SOL    HW1 8267   0.822   2.345   7.727
 2505SOL    HW2 8268   0.721   2.468   7.765
 2506SOL     OW 8269   1.657   2.466   8.654
 2506SOL    HW1 8270   1.619   2.397   8.716
 2506SOL    HW2 8271   1.739   2.430   8.610
 2507SOL     OW 8272   0.252   3.426   9.192
 2507SOL    HW1 8273   0.222   3.483   9.268
 2507SOL    HW2 8274   0.245   3.329   9.218
 2508SOL     OW 8275   0.671   2.326   8.717
 2508SOL    HW1 8276   0.637   2.237   8.687
 2508SOL    HW2 8277   0.697   2.380   8.637
 2509SOL     OW 8278   0.930   3.540   8.913
 2509SOL    HW1 8279   0.906   3.522   8.818
 2509SOL    HW2 8280   0.960   3.634   8.923
 2510SOL     OW 8281   0.473   2.362   7.639
 2510SOL    HW1 8282   0.534   2.442   7.643
 2510SOL    HW2 8283   0.378   2.393   7.646
 2511SOL     OW 8284   0.159   2.999   8.914
 2511SOL    HW1 8285   0.181   2.938   8.990
 2511SOL    HW2 8286   0.169   2.950   8.828
 2512SOL     OW 8287   1.347   2.921   8.682
 2512SOL    HW1 8288   1.371   2.858   8.608
 2512SOL    HW2 8289   1.257   2.961   8.664
 2513SOL     OW 8290   1.302   2.717   7.757
 2513SOL    HW1 8291   1.216   2.686   7.799
 2513SOL    HW2 8292   1.298   2.703   7.658
 2514SOL     OW 8293   1.759   3.609   8.602
 2514SOL    HW1 8294   1.820   3.639   8.529
 2514SOL    HW2 8295   1.721   3.520   8.580
 2515SOL     OW 8296   1.252   3.593   8.576
 2515SOL    HW1 8297   1.336   3.598   8.522
 2515SOL    HW2 8298   1.229   3.497   8.594
 2516SOL     OW 8299   0.083   3.120   8.470
 2516SOL    HW1 8300   0.078   3.119   8.570
 2516SOL    HW2 8301   0.000   3.079   8.432
 2517SOL     OW 8302   0.688   3.524   9.164
 2517SOL    HW1 8303   0.632   3.605   9.173
 2517SOL    HW2 8304   0.740   3.528   9.078
 2518SOL     OW 8305   1.388   3.435   7.925
 2518SOL    HW1 8306   1.455   3.447   7.851
 2518SOL    HW2 8307   1.348   3.524   7.948
 2519SOL     OW 8308   0.130   3.656   9.299
 2519SOL    HW1 8309   0.089   3.582   9.352
 2519SOL    HW2 8310   0.194   3.707   9.357
 2520SOL     OW 8311   1.280   2.789   8.120
 2520SOL    HW1 8312   1.340   2.708   8.122
 2520SOL    HW2 8313   1.320   2.858   8.060
 2521SOL     OW 8314   0.830   3.135   8.870
 2521SOL    HW1 8315   0.825   3.168   8.965
 2521SOL    HW2 8316   0.744   3.154   8.824
 2522SOL     OW 8317   0.672   3.478   7.602
 2522SOL    HW1 8318   0.681   3.488   7.503
 2522SOL    HW2 8319   0.632   3.389   7.623
 2523SOL     OW 8320   1.650   3.582   8.842
 2523SOL    HW1 8321   1.703   3.592   8.758
 2523SOL    HW2 8322   1.623   3.672   8.876
 2524SOL     OW 8323   0.263   2.188   8.168
 2524SOL    HW1 8324   0.184   2.239   8.134
 2524SOL    HW2 8325   0.254   2.173   8.266
 2525SOL     OW 8326   1.194   3.474   7.479
 2525SOL    HW1 8327   1.200   3.381   7.516
 2525SOL    HW2 8328   1.135   3.474   7.399
 2526SOL     OW 8329   0.822   2.864   8.820
 2526SOL    HW1 8330   0.862   2.863   8.728
 2526SOL    HW2 8331   0.832   2.956   8.860
 2527SOL     OW 8332   0.916   2.772   7.739
 2527SOL    HW1 8333   0.979   2.810   7.671
 2527SOL    HW2 8334   0.956   2.689   7.778
 2528SOL     OW 8335   1.504   3.469   7.492
 2528SOL    HW1 8336   1.412   3.506   7.499
 2528SOL    HW2 8337   1.542   3.489   7.402
 2529SOL     OW 8338   0.372   3.150   8.938
 2529SOL    HW1 8339   0.359   3.243   8.904
 2529SOL    HW2 8340   0.288   3.098   8.925
 2530SOL     OW 8341   1.614   3.154   8.737
 2530SOL    HW1 8342   1.674   3.157   8.817
 2530SOL    HW2 8343   1.539   3.218   8.750
 2531SOL     OW 8344   1.039   2.960   8.144
 2531SOL    HW1 8345   0.969   2.913   8.198
 2531SOL    HW2 8346   1.098   2.892   8.101
 2532SOL     OW 8347   1.014   2.098   8.419
 2532SOL    HW1 8348   1.006   2.062   8.326
 2532SOL    HW2 8349   1.012   2.022   8.484
 2533SOL     OW 8350   0.590   3.349   7.939
 2533SOL    HW1 8351   0.632   3.291   7.869
 2533SOL    HW2 8352   0.546   3.428   7.895
 2534SOL     OW 8353   1.709   2.247   8.829
 2534SOL    HW1 8354   1.782   2.316   8.833
 2534SOL    HW2 8355   1.737   2.172   8.770
 2535SOL     OW 8356   0.255   3.210   7.738
 2535SOL    HW1 8357   0.159   3.211   7.711
 2535SOL    HW2 8358   0.267   3.263   7.822
 2536SOL     OW 8359   0.105   2.875   9.174
 2536SOL    HW1 8360   0.028   2.842   9.228
 2536SOL    HW2 8361   0.190   2.845   9.216
 2537SOL     OW 8362   0.672   2.065   8.937
 2537SOL    HW1 8363   0.762   2.049   8.897
 2537SOL    HW2 8364   0.680   2.070   9.036
 2538SOL     OW 8365   0.075   2.207   7.481
 2538SOL    HW1 8366  -0.017   2.179   7.452
 2538SOL    HW2 8367   0.106   2.284   7.425
 2539SOL     OW 8368   1.440   2.718   8.846
 2539SOL    HW1 8369   1.383   2.770   8.783
 2539SOL    HW2 8370   1.536   2.730   8.822
 2540SOL     OW 8371   0.072   2.028   7.766
 2540SOL    HW1 8372   0.055   2.111   7.712
 2540SOL    HW2 8373   0.162   1.991   7.744
 2541SOL     OW 8374   1.183   3.197   7.567
 2541SOL    HW1 8375   1.084   3.186   7.569
 2541SOL    HW2 8376   1.217   3.212   7.660
 2542SOL     OW 8377   0.613   2.704   8.879
 2542SOL    HW1 8378   0.669   2.785   8.862
 2542SOL    HW2 8379   0.672   2.624   8.882
 2543SOL     OW 8380   1.493   3.629   8.407
 2543SOL    HW1 8381   1.526   3.693   8.338
 2543SOL    HW2 8382   1.559   3.623   8.482
 2544SOL     OW 8383   0.716   2.427   9.156
 2544SOL    HW1 8384   0.735   2.492   9.230
 2544SOL    HW2 8385   0.776   2.347   9.165
 2545SOL     OW 8386   1.450   3.082   9.081
 2545SOL    HW1 8387   1.441   3.072   9.180
 2545SOL    HW2 8388   1.546   3.075   9.055
 2546SOL     OW 8389   0.390   3.603   9.008
 2546SOL    HW1 8390   0.299   3.644   9.006
 2546SOL    HW2 8391   0.383   3.509   9.040
 2547SOL     OW 8392   1.674   2.745   8.702
 2547SOL    HW1 8393   1.647   2.656   8.665
 2547SOL    HW2 8394   1.675   2.813   8.629
 2548SOL     OW 8395   0.594   2.607   8.100
 2548SOL    HW1 8396   0.644   2.692   8.081
 2548SOL    HW2 8397   0.506   2.609   8.052
 2549SOL     OW 8398   1.777   2.204   9.090
 2549SOL    HW1 8399   1.760   2.235   8.996
 2549SOL    HW2 8400   1.693   2.167   9.128
 2550SOL     OW 8401   1.730   2.796   8.965
 2550SOL    HW1 8402   1.768   2.887   8.980
 2550SOL    HW2 8403   1.722   2.779   8.866
 2551SOL     OW 8404   0.859   3.236   7.464
 2551SOL    HW1 8405   0.813   3.251   7.552
 2551SOL    HW2 8406   0.903   3.321   7.434
 2552SOL     OW 8407   0.661   3.652   8.401
 2552SOL    HW1 8408   0.615   3.740   8.388
 2552SOL    HW2 8409   0.760   3.664   8.394
 2553SOL     OW 8410   0.859   2.818   8.309
 2553SOL    HW1 8411   0.913   2.749   8.357
 2553SOL    HW2 8412   0.827   2.887   8.375
 2554SOL     OW 8413   1.083   2.846   7.535
 2554SOL    HW1 8414   1.060   2.899   7.453
 2554SOL    HW2 8415   1.164   2.790   7.516
 2555SOL     OW 8416   1.861   3.431   8.299
 2555SOL    HW1 8417   1.790   3.419   8.229
 2555SOL    HW2 8418   1.862   3.352   8.359
 2556SOL     OW 8419   0.221   3.176   9.292
 2556SOL    HW1 8420   0.156   3.103   9.271
 2556SOL    HW2 8421   0.225   3.190   9.390
 2557SOL     OW 8422   0.079   3.102   8.101
 2557SOL    HW1 8423   0.078   3.055   8.189
 2557SOL    HW2 8424   0.161   3.074   8.050
 2558SOL     OW 8425   0.672   3.253   9.072
 2558SOL    HW1 8426   0.594   3.203   9.110
 2558SOL    HW2 8427   0.669   3.348   9.103
 2559SOL     OW 8428   0.428   2.286   7.968
 2559SOL    HW1 8429   0.458   2.214   7.906
 2559SOL    HW2 8430   0.389   2.246   8.051
 2560SOL     OW 8431   1.705   3.349   8.552
 2560SOL    HW1 8432   1.612   3.324   8.525
 2560SOL    HW2 8433   1.731   3.299   8.634
 2561SOL     OW 8434   0.317   2.409   8.728
 2561SOL    HW1 8435   0.355   2.350   8.800
 2561SOL    HW2 8436   0.357   2.383   8.640
 2562SOL     OW 8437   0.812   3.448   8.135
 2562SOL    HW1 8438   0.844   3.458   8.041
 2562SOL    HW2 8439   0.733   3.386   8.137
 2563SOL     OW 8440   1.424   2.076   8.560
 2563SOL    HW1 8441   1.476   2.011   8.615
 2563SOL    HW2 8442   1.375   2.139   8.621
 2564SOL     OW 8443   1.001   1.896   8.602
 2564SOL    HW1 8444   0.938   1.824   8.571
 2564SOL    HW2 8445   1.094   1.860   8.602
 2565SOL     OW 8446   0.770   3.192   7.749
 2565SOL    HW1 8447   0.724   3.105   7.766
 2565SOL    HW2 8448   0.861   3.189   7.790
 2566SOL     OW 8449   0.618   3.429   8.732
 2566SOL    HW1 8450   0.613   3.511   8.789
 2566SOL    HW2 8451   0.707   3.426   8.687
 2567SOL     OW 8452   1.300   2.315   8.139
 2567SOL    HW1 8453   1.241   2.395   8.143
 2567SOL    HW2 8454   1.315   2.280   8.232
 2568SOL     OW 8455   1.593   2.083   8.330
 2568SOL    HW1 8456   1.509   2.082   8.384
 2568SOL    HW2 8457   1.595   2.166   8.274
 2569SOL     OW 8458   0.039   2.939   7.748
 2569SOL    HW1 8459   0.138   2.928   7.739
 2569SOL    HW2 8460  -0.001   2.853   7.780
 2570SOL     OW 8461   0.875   3.508   7.785
 2570SOL    HW1 8462   0.798   3.473   7.731
 2570SOL    HW2 8463   0.843   3.579   7.847
 2571SOL     OW 8464   0.230   2.490   9.423
 2571SOL    HW1 8465   0.137   2.488   9.460
 2571SOL    HW2 8466   0.231   2.451   9.331
 2572SOL     OW 8467   0.225   2.137  10.306
 2572SOL    HW1 8468   0.260   2.120  10.398
 2572SOL    HW2 8469   0.137   2.092  10.294
 2573SOL     OW 8470   0.019   2.230   9.957
 2573SOL    HW1 8471  -0.063   2.273   9.996
 2573SOL    HW2 8472  -0.009   2.157   9.894
 2574SOL     OW 8473   0.569   3.137  10.475
 2574SOL    HW1 8474   0.476   3.130  10.438
 2574SOL    HW2 8475   0.580   3.226  10.519
 2575SOL     OW 8476   1.555   3.373  10.013
 2575SOL    HW1 8477   1.498   3.357  10.094
 2575SOL    HW2 8478   1.496   3.383   9.933
 2576SOL     OW 8479   1.135   2.565  10.027
 2576SOL    HW1 8480   1.192   2.643  10.002
 2576SOL    HW2 8481   1.075   2.591  10.103
 2577SOL     OW 8482   1.755   2.469   9.541
 2577SOL    HW1 8483   1.743   2.456   9.442
 2577SOL    HW2 8484   1.725   2.388   9.590
 2578SOL     OW 8485   0.768   3.006  10.333
 2578SOL    HW1 8486   0.690   3.023  10.393
 2578SOL    HW2 8487   0.802   3.093  10.297
 2579SOL     OW 8488   0.850   2.660  11.133
 2579SOL    HW1 8489   0.846   2.736  11.198
 2579SOL    HW2 8490   0.872   2.696  11.042
 2580SOL     OW 8491   0.685   2.874   9.975
 2580SOL    HW1 8492   0.754   2.858  10.045
 2580SOL    HW2 8493   0.612   2.931  10.013
 2581SOL     OW 8494   0.686   3.023  11.113
 2581SOL    HW1 8495   0.746   3.102  11.127
 2581SOL    HW2 8496   0.600   3.054  11.072
 2582SOL     OW 8497   0.335   3.297  10.371
 2582SOL    HW1 8498   0.257   3.266  10.318
 2582SOL    HW2 8499   0.393   3.355  10.314
 2583SOL     OW 8500   1.460   3.367  10.649
 2583SOL    HW1 8501   1.484   3.461  10.675
 2583SOL    HW2 8502   1.444   3.313  10.731
 2584SOL     OW 8503   0.438   2.254  10.809
 2584SOL    HW1 8504   0.520   2.198  10.818
 2584SOL    HW2 8505   0.357   2.196  10.813
 2585SOL     OW 8506   1.603   2.309  10.047
 2585SOL    HW1 8507   1.529   2.355   9.997
 2585SOL    HW2 8508   1.654   2.377  10.100
 2586SOL     OW 8509   0.231   3.575   9.793
 2586SOL    HW1 8510   0.265   3.652   9.847
 2586SOL    HW2 8511   0.275   3.575   9.703
 2587SOL     OW 8512   1.127   3.203  11.000
 2587SOL    HW1 8513   1.174   3.203  11.088
 2587SOL    HW2 8514   1.079   3.116  10.989
 2588SOL     OW 8515   0.230   3.296   9.848
 2588SOL    HW1 8516   0.204   3.392   9.848
 2588SOL    HW2 8517   0.159   3.242   9.893
 2589SOL     OW 8518   0.240   2.953  10.196
 2589SOL    HW1 8519   0.254   2.869  10.248
 2589SOL    HW2 8520   0.185   3.017  10.251
 2590SOL     OW 8521   0.620   3.648  10.749
 2590SOL    HW1 8522   0.528   3.631  10.784
 2590SOL    HW2 8523   0.648   3.740  10.775
 2591SOL     OW 8524   0.606   2.826   9.433
 2591SOL    HW1 8525   0.613   2.910   9.379
 2591SOL    HW2 8526   0.652   2.839   9.521
 2592SOL     OW 8527   1.594   1.976  10.790
 2592SOL    HW1 8528   1.576   2.043  10.718
 2592SOL    HW2 8529   1.591   2.022  10.879
 2593SOL     OW 8530   0.122   2.505   9.873
 2593SOL    HW1 8531   0.077   2.417   9.890
 2593SOL    HW2 8532   0.121   2.559   9.957
 2594SOL     OW 8533   1.842   3.629   9.669
 2594SOL    HW1 8534   1.896   3.600   9.749
 2594SOL    HW2 8535   1.872   3.719   9.640
 2595SOL     OW 8536   0.027   3.458   9.427
 2595SOL    HW1 8537   0.008   3.362   9.448
 2595SOL    HW2 8538  -0.006   3.516   9.502
 2596SOL     OW 8539   1.689   2.784   9.922
 2596SOL    HW1 8540   1.784   2.755   9.930
 2596SOL    HW2 8541   1.681   2.849   9.847
 2597SOL     OW 8542   1.641   2.970   9.742
 2597SOL    HW1 8543   1.727   2.972   9.690
 2597SOL    HW2 8544   1.655   3.017   9.830
 2598SOL     OW 8545   0.113   2.599  10.907
 2598SOL    HW1 8546   0.201   2.586  10.952
 2598SOL    HW2 8547   0.100   2.696  10.885
 2599SOL     OW 8548   0.613   3.227  10.036
 2599SOL    HW1 8549   0.564   3.140  10.045
 2599SOL    HW2 8550   0.590   3.270   9.949
 2600SOL     OW 8551   1.293   3.090  10.733
 2600SOL    HW1 8552   1.330   3.017  10.675
 2600SOL    HW2 8553   1.345   3.095  10.818
 2601SOL     OW 8554   0.809   1.866   9.812
 2601SOL    HW1 8555   0.849   1.957   9.803
 2601SOL    HW2 8556   0.709   1.874   9.818
 2602SOL     OW 8557   0.197   2.838  10.574
 2602SOL    HW1 8558   0.286   2.793  10.560
 2602SOL    HW2 8559   0.124   2.773  10.555
 2603SOL     OW 8560   1.525   2.861   9.500
 2603SOL    HW1 8561   1.462   2.785   9.513
 2603SOL    HW2 8562   1.573   2.879   9.586
 2604SOL     OW 8563   1.187   3.654  10.926
 2604SOL    HW1 8564   1.211   3.714  10.850
 2604SOL    HW2 8565   1.194   3.559  10.896
 2605SOL     OW 8566   0.317   2.113  11.111
 2605SOL    HW1 8567   0.388   2.184  11.117
 2605SOL    HW2 8568   0.229   2.152  11.139
 2606SOL     OW 8569   1.466   3.279  10.263
 2606SOL    HW1 8570   1.407   3.285  10.343
 2606SOL    HW2 8571   1.451   3.191  10.217
 2607SOL     OW 8572   1.667   3.576   9.882
 2607SOL    HW1 8573   1.626   3.553   9.794
 2607SOL    HW2 8574   1.649   3.502   9.947
 2608SOL     OW 8575   0.598   2.591   9.580
 2608SOL    HW1 8576   0.622   2.660   9.512
 2608SOL    HW2 8577   0.520   2.624   9.634
 2609SOL     OW 8578   1.281   2.207  10.254
 2609SOL    HW1 8579   1.195   2.157  10.241
 2609SOL    HW2 8580   1.343   2.153  10.310
 2610SOL     OW 8581   1.576   3.524   9.617
 2610SOL    HW1 8582   1.665   3.570   9.620
 2610SOL    HW2 8583   1.555   3.500   9.522
 2611SOL     OW 8584   0.807   2.467  10.775
 2611SOL    HW1 8585   0.760   2.464  10.864
 2611SOL    HW2 8586   0.756   2.412  10.709
 2612SOL     OW 8587   1.394   2.331  10.984
 2612SOL    HW1 8588   1.374   2.374  11.072
 2612SOL    HW2 8589   1.472   2.269  10.993
 2613SOL     OW 8590   0.973   2.752  10.882
 2613SOL    HW1 8591   1.019   2.668  10.853
 2613SOL    HW2 8592   0.917   2.786  10.807
 2614SOL     OW 8593   0.991   2.272  10.552
 2614SOL    HW1 8594   0.914   2.306  10.606
 2614SOL    HW2 8595   0.957   2.221  10.473
 2615SOL     OW 8596   1.041   2.563   9.739
 2615SOL    HW1 8597   1.067   2.559   9.835
 2615SOL    HW2 8598   0.956   2.512   9.725
 2616SOL     OW 8599   0.076   2.673  10.099
 2616SOL    HW1 8600   0.175   2.661  10.108
 2616SOL    HW2 8601   0.052   2.768  10.120
 2617SOL     OW 8602   0.130   3.683  10.881
 2617SOL    HW1 8603   0.120   3.668  10.980
 2617SOL    HW2 8604   0.044   3.719  10.845
 2618SOL     OW 8605   0.865   2.210   9.505
 2618SOL    HW1 8606   0.924   2.273   9.456
 2618SOL    HW2 8607   0.884   2.116   9.476
 2619SOL     OW 8608   1.719   2.447  11.141
 2619SOL    HW1 8609   1.693   2.536  11.105
 2619SOL    HW2 8610   1.717   2.379  11.068
 2620SOL     OW 8611   1.362   3.006   9.855
 2620SOL    HW1 8612   1.445   2.977   9.807
 2620SOL    HW2 8613   1.313   3.073   9.799
 2621SOL     OW 8614   0.550   2.058  10.195
 2621SOL    HW1 8615   0.545   2.053  10.295
 2621SOL    HW2 8616   0.552   2.154  10.166
 2622SOL     OW 8617   1.008   3.318   9.787
 2622SOL    HW1 8618   0.962   3.390   9.735
 2622SOL    HW2 8619   1.004   3.338   9.885
 2623SOL     OW 8620   0.351   3.663  10.163
 2623SOL    HW1 8621   0.401   3.577  10.169
 2623SOL    HW2 8622   0.416   3.740  10.160
 2624SOL     OW 8623   1.795   2.928  10.183
 2624SOL    HW1 8624   1.733   2.913  10.107
 2624SOL    HW2 8625   1.743   2.939  10.268
 2625SOL     OW 8626   1.227   3.412  10.816
 2625SOL    HW1 8627   1.233   3.335  10.880
 2625SOL    HW2 8628   1.175   3.386  10.736
 2626SOL     OW 8629   0.321   2.805   9.552
 2626SOL    HW1 8630   0.403   2.844   9.510
 2626SOL    HW2 8631   0.294   2.723   9.503
 2627SOL     OW 8632   1.458   2.597  10.038
 2627SOL    HW1 8633   1.453   2.532  10.113
 2627SOL    HW2 8634   1.538   2.656  10.051
 2628SOL     OW 8635   0.461   3.128  11.037
 2628SOL    HW1 8636   0.411   3.129  10.951
 2628SOL    HW2 8637   0.398   3.110  11.113
 2629SOL     OW 8638   1.111   3.638   9.547
 2629SOL    HW1 8639   1.051   3.576   9.597
 2629SOL    HW2 8640   1.142   3.594   9.462
 2630SOL     OW 8641   0.202   2.147  10.808
 2630SOL    HW1 8642   0.122   2.207  10.795
 2630SOL    HW2 8643   0.192   2.098  10.894
 2631SOL     OW 8644   1.632   3.239   9.391
 2631SOL    HW1 8645   1.600   3.333   9.381
 2631SOL    HW2 8646   1.556   3.176   9.379
 2632SOL     OW 8647   0.464   3.605   9.633
 2632SOL    HW1 8648   0.497   3.644   9.719
 2632SOL    HW2 8649   0.540   3.598   9.568
 2633SOL     OW 8650   1.400   1.969   9.736
 2633SOL    HW1 8651   1.376   1.932   9.646
 2633SOL    HW2 8652   1.499   1.985   9.740
 2634SOL     OW 8653   0.249   3.647  10.551
 2634SOL    HW1 8654   0.306   3.582  10.601
 2634SOL    HW2 8655   0.233   3.614  10.458
 2635SOL     OW 8656   0.940   3.560  10.214
 2635SOL    HW1 8657   1.020   3.503  10.235
 2635SOL    HW2 8658   0.891   3.520  10.137
 2636SOL     OW 8659   0.382   2.562   9.790
 2636SOL    HW1 8660   0.427   2.472   9.787
 2636SOL    HW2 8661   0.288   2.551   9.823
 2637SOL     OW 8662   1.547   2.084  11.039
 2637SOL    HW1 8663   1.542   2.121  11.131
 2637SOL    HW2 8664   1.475   2.015  11.027
 2638SOL     OW 8665   0.614   1.984   9.427
 2638SOL    HW1 8666   0.712   1.962   9.434
 2638SOL    HW2 8667   0.583   1.967   9.334
 2639SOL     OW 8668   0.781   2.126  11.059
 2639SOL    HW1 8669   0.848   2.065  11.102
 2639SOL    HW2 8670   0.708   2.145  11.124
 2640SOL     OW 8671   0.888   3.376  10.505
 2640SOL    HW1 8672   0.865   3.351  10.411
 2640SOL    HW2 8673   0.949   3.307  10.544
 2641SOL     OW 8674   1.351   2.452  10.743
 2641SOL    HW1 8675   1.379   2.409  10.828
 2641SOL    HW2 8676   1.376   2.548  10.744
 2642SOL     OW 8677   0.803   3.264  10.234
 2642SOL    HW1 8678   0.893   3.278  10.192
 2642SOL    HW2 8679   0.732   3.266  10.163
 2643SOL     OW 8680   0.922   2.365  10.209
 2643SOL    HW1 8681   0.897   2.356  10.113
 2643SOL    HW2 8682   0.970   2.283  10.240
 2644SOL     OW 8683   0.539   1.926   9.822
 2644SOL    HW1 8684   0.458   1.927   9.880
 2644SOL    HW2 8685   0.542   2.009   9.767
 2645SOL     OW 8686   1.434   3.050   9.351
 2645SOL    HW1 8687   1.466   2.974   9.408
 2645SOL    HW2 8688   1.342   3.077   9.381
 2646SOL     OW 8689   0.297   1.897   9.481
 2646SOL    HW1 8690   0.346   1.981   9.460
 2646SOL    HW2 8691   0.359   1.832   9.526
 2647SOL     OW 8692   0.935   2.098   9.790
 2647SOL    HW1 8693   0.887   2.139   9.712
 2647SOL    HW2 8694   1.034   2.096   9.771
 2648SOL     OW 8695   1.076   2.545  10.774
 2648SOL    HW1 8696   0.996   2.484  10.777
 2648SOL    HW2 8697   1.157   2.492  10.750
 2649SOL     OW 8698   1.227   3.432  10.103
 2649SOL    HW1 8699   1.248   3.506  10.038
 2649SOL    HW2 8700   1.295   3.432  10.176
 2650SOL     OW 8701   0.459   3.014  10.051
 2650SOL    HW1 8702   0.388   2.987  10.116
 2650SOL    HW2 8703   0.433   2.986   9.958
 2651SOL     OW 8704   1.271   3.659   9.901
 2651SOL    HW1 8705   1.315   3.723   9.837
 2651SOL    HW2 8706   1.221   3.711   9.971
 2652SOL     OW 8707   1.032   2.411   9.326
 2652SOL    HW1 8708   0.991   2.493   9.287
 2652SOL    HW2 8709   1.096   2.437   9.399
 2653SOL     OW 8710   0.078   2.418  10.696
 2653SOL    HW1 8711   0.170   2.417  10.655
 2653SOL    HW2 8712   0.072   2.492  10.763
 2654SOL     OW 8713   0.561   2.084  10.457
 2654SOL    HW1 8714   0.599   2.000  10.494
 2654SOL    HW2 8715   0.473   2.103  10.501
 2655SOL     OW 8716   0.866   2.316   9.952
 2655SOL    HW1 8717   0.834   2.388   9.890
 2655SOL    HW2 8718   0.890   2.235   9.899
 2656SOL     OW 8719   1.017   1.901  10.063
 2656SOL    HW1 8720   0.945   1.906   9.994
 2656SOL    HW2 8721   0.993   1.832  10.132
 2657SOL     OW 8722   1.429   3.035  10.177
 2657SOL    HW1 8723   1.374   2.951  10.170
 2657SOL    HW2 8724   1.455   3.064  10.085
 2658SOL     OW 8725   1.466   2.452  10.302
 2658SOL    HW1 8726   1.436   2.357  10.309
 2658SOL    HW2 8727   1.539   2.468  10.368
 2659SOL     OW 8728   1.857   2.695   9.687
 2659SOL    HW1 8729   1.899   2.631   9.751
 2659SOL    HW2 8730   1.819   2.644   9.609
 2660SOL     OW 8731   0.488   3.247   9.484
 2660SOL    HW1 8732   0.401   3.232   9.531
 2660SOL    HW2 8733   0.471   3.273   9.389
 2661SOL     OW 8734   1.664   3.142   9.967
 2661SOL    HW1 8735   1.763   3.150   9.981
 2661SOL    HW2 8736   1.619   3.226   9.998
 2662SOL     OW 8737   1.390   2.437   9.388
 2662SOL    HW1 8738   1.336   2.416   9.469
 2662SOL    HW2 8739   1.481   2.396   9.397
 2663SOL     OW 8740   0.527   2.118   9.638
 2663SOL    HW1 8741   0.554   2.059   9.563
 2663SOL    HW2 8742   0.527   2.213   9.607
 2664SOL     OW 8743   1.754   3.085  10.898
 2664SOL    HW1 8744   1.845   3.046  10.885
 2664SOL    HW2 8745   1.762   3.181  10.922
 2665SOL     OW 8746   1.064   3.209  10.650
 2665SOL    HW1 8747   0.984   3.186  10.705
 2665SOL    HW2 8748   1.147   3.183  10.699
 2666SOL     OW 8749   1.592   3.491  10.935
 2666SOL    HW1 8750   1.619   3.525  10.845
 2666SOL    HW2 8751   1.671   3.453  10.981
 2667SOL     OW 8752   1.111   3.057  10.410
 2667SOL    HW1 8753   1.071   3.101  10.491
 2667SOL    HW2 8754   1.070   3.094  10.327
 2668SOL     OW 8755   1.638   2.961  10.389
 2668SOL    HW1 8756   1.643   3.042  10.448
 2668SOL    HW2 8757   1.552   2.963  10.338
 2669SOL     OW 8758   0.915   1.951  10.712
 2669SOL    HW1 8759   0.940   1.931  10.617
 2669SOL    HW2 8760   0.987   2.007  10.754
 2670SOL     OW 8761   0.980   2.978  11.029
 2670SOL    HW1 8762   0.881   2.984  11.039
 2670SOL    HW2 8763   1.003   2.898  10.973
 2671SOL     OW 8764   0.705   2.912   9.678
 2671SOL    HW1 8765   0.691   2.919   9.777
 2671SOL    HW2 8766   0.789   2.861   9.660
 2672SOL     OW 8767   0.410   2.675  10.561
 2672SOL    HW1 8768   0.496   2.687  10.611
 2672SOL    HW2 8769   0.368   2.588  10.588
 2673SOL     OW 8770   1.274   2.248  10.572
 2673SOL    HW1 8771   1.295   2.322  10.636
 2673SOL    HW2 8772   1.185   2.265  10.529
 2674SOL     OW 8773   0.064   3.426  10.641
 2674SOL    HW1 8774   0.018   3.508  10.607
 2674SOL    HW2 8775   0.162   3.445  10.650
 2675SOL     OW 8776   0.367   2.962   9.811
 2675SOL    HW1 8777   0.360   3.045   9.755
 2675SOL    HW2 8778   0.371   2.882   9.751
 2676SOL     OW 8779   0.566   2.399  10.175
 2676SOL    HW1 8780   0.578   2.465  10.101
 2676SOL    HW2 8781   0.612   2.433  10.258
 2677SOL     OW 8782   1.252   3.210   9.698
 2677SOL    HW1 8783   1.302   3.287   9.738
 2677SOL    HW2 8784   1.157   3.212   9.730
 2678SOL     OW 8785   1.272   3.307  10.452
 2678SOL    HW1 8786   1.319   3.320  10.539
 2678SOL    HW2 8787   1.206   3.233  10.461
 2679SOL     OW 8788   1.582   2.501   9.782
 2679SOL    HW1 8789   1.551   2.562   9.855
 2679SOL    HW2 8790   1.632   2.553   9.713
 2680SOL     OW 8791   0.354   3.372  10.639
 2680SOL    HW1 8792   0.333   3.328  10.552
 2680SOL    HW2 8793   0.451   3.398  10.642
 2681SOL     OW 8794   0.402   2.613  10.908
 2681SOL    HW1 8795   0.470   2.668  10.861
 2681SOL    HW2 8796   0.442   2.525  10.935
 2682SOL     OW 8797   1.587   2.641  10.980
 2682SOL    HW1 8798   1.495   2.679  10.975
 2682SOL    HW2 8799   1.647   2.688  10.915
 2683SOL     OW 8800   1.013   1.967  11.080
 2683SOL    HW1 8801   1.019   2.052  11.028
 2683SOL    HW2 8802   1.045   1.891  11.023
 2684SOL     OW 8803   0.504   1.912  11.050
 2684SOL    HW1 8804   0.462   1.855  10.980
 2684SOL    HW2 8805   0.438   1.981  11.082
 2685SOL     OW 8806   0.573   2.732  10.339
 2685SOL    HW1 8807   0.617   2.821  10.330
 2685SOL    HW2 8808   0.510   2.732  10.416
 2686SOL     OW 8809   1.360   2.724  10.355
 2686SOL    HW1 8810   1.285   2.724  10.289
 2686SOL    HW2 8811   1.397   2.632  10.364
 2687SOL     OW 8812   1.209   2.387   9.585
 2687SOL    HW1 8813   1.222   2.303   9.639
 2687SOL    HW2 8814   1.180   2.461   9.645
 2688SOL     OW 8815   0.307   2.075  10.541
 2688SOL    HW1 8816   0.284   2.112  10.631
 2688SOL    HW2 8817   0.277   1.980  10.535
 2689SOL     OW 8818   0.037   3.172  10.592
 2689SOL    HW1 8819   0.090   3.123  10.660
 2689SOL    HW2 8820   0.059   3.270  10.597
 2690SOL     OW 8821   0.732   2.496  10.374
 2690SOL    HW1 8822   0.791   2.470  10.298
 2690SOL    HW2 8823   0.704   2.592  10.363
 2691SOL     OW 8824   1.728   2.797  11.164
 2691SOL    HW1 8825   1.682   2.790  11.075
 2691SOL    HW2 8826   1.666   2.841  11.230
 2692SOL     OW 8827   0.307   1.925   9.928
 2692SOL    HW1 8828   0.296   2.019   9.961
 2692SOL    HW2 8829   0.302   1.862  10.005
 2693SOL     OW 8830   1.622   2.229   9.684
 2693SOL    HW1 8831   1.624   2.153   9.748
 2693SOL    HW2 8832   1.574   2.306   9.724
 2694SOL     OW 8833   1.023   2.628  10.276
 2694SOL    HW1 8834   1.038   2.649  10.372
 2694SOL    HW2 8835   0.993   2.533  10.267
 2695SOL     OW 8836   0.980   3.435  11.010
 2695SOL    HW1 8837   0.960   3.479  10.922
 2695SOL    HW2 8838   1.019   3.344  10.994
 2696SOL     OW 8839   1.859   3.380  10.915
 2696SOL    HW1 8840   1.873   3.407  10.820
 2696SOL    HW2 8841   1.942   3.402  10.968
 2697SOL     OW 8842   0.350   2.760  11.114
 2697SOL    HW1 8843   0.426   2.804  11.162
 2697SOL    HW2 8844   0.385   2.713  11.032
 2698SOL     OW 8845   1.540   2.136   9.435
 2698SOL    HW1 8846   1.479   2.061   9.458
 2698SOL    HW2 8847   1.562   2.188   9.518
 2699SOL     OW 8848   1.303   2.700   9.352
 2699SOL    HW1 8849   1.337   2.607   9.367
 2699SOL    HW2 8850   1.321   2.727   9.257
 2700SOL     OW 8851   1.068   3.195  10.159
 2700SOL    HW1 8852   1.075   3.111  10.104
 2700SOL    HW2 8853   1.130   3.264  10.123
 2701SOL     OW 8854   0.319   2.672  10.259
 2701SOL    HW1 8855   0.412   2.708  10.264
 2701SOL    HW2 8856   0.313   2.587  10.311
 2702SOL     OW 8857   0.339   2.371  10.316
 2702SOL    HW1 8858   0.287   2.288  10.299
 2702SOL    HW2 8859   0.416   2.376  10.252
 2703SOL     OW 8860   1.138   2.242  10.988
 2703SOL    HW1 8861   1.093   2.305  11.052
 2703SOL    HW2 8862   1.231   2.273  10.971
 2704SOL     OW 8863   1.160   2.069  10.787
 2704SOL    HW1 8864   1.160   2.133  10.864
 2704SOL    HW2 8865   1.188   2.117  10.704
 2705SOL     OW 8866   0.008   3.188   9.510
 2705SOL    HW1 8867  -0.085   3.209   9.479
 2705SOL    HW2 8868   0.018   3.089   9.523
 2706SOL     OW 8869   0.088   3.663  10.237
 2706SOL    HW1 8870   0.046   3.577  10.210
 2706SOL    HW2 8871   0.182   3.666  10.203
 2707SOL     OW 8872   0.504   3.430  10.220
 2707SOL    HW1 8873   0.570   3.504  10.229
 2707SOL    HW2 8874   0.548   3.351  10.178
 2708SOL     OW 8875   1.002   2.658  10.548
 2708SOL    HW1 8876   1.043   2.626  10.634
 2708SOL    HW2 8877   0.906   2.631  10.545
 2709SOL     OW 8878   0.040   2.406  10.424
 2709SOL    HW1 8879   0.125   2.373  10.383
 2709SOL    HW2 8880   0.053   2.421  10.522
 2710SOL     OW 8881   0.189   2.382  11.032
 2710SOL    HW1 8882   0.248   2.342  10.962
 2710SOL    HW2 8883   0.131   2.453  10.991
 2711SOL     OW 8884   1.369   2.812  10.970
 2711SOL    HW1 8885   1.408   2.901  10.990
 2711SOL    HW2 8886   1.379   2.792  10.873
 2712SOL     OW 8887   0.815   2.434   9.635
 2712SOL    HW1 8888   0.822   2.345   9.589
 2712SOL    HW2 8889   0.721   2.468   9.627
 2713SOL     OW 8890   1.657   2.466  10.516
 2713SOL    HW1 8891   1.619   2.397  10.578
 2713SOL    HW2 8892   1.739   2.430  10.472
 2714SOL     OW 8893   0.252   3.426  11.054
 2714SOL    HW1 8894   0.222   3.483  11.130
 2714SOL    HW2 8895   0.245   3.329  11.080
 2715SOL     OW 8896   0.671   2.326  10.579
 2715SOL    HW1 8897   0.637   2.237  10.549
 2715SOL    HW2 8898   0.697   2.380  10.499
 2716SOL     OW 8899   0.930   3.540  10.775
 2716SOL    HW1 8900   0.906   3.522  10.680
 2716SOL    HW2 8901   0.960   3.634  10.785
 2717SOL     OW 8902   0.473   2.362   9.501
 2717SOL    HW1 8903   0.534   2.442   9.505
 2717SOL    HW2 8904   0.378   2.393   9.508
 2718SOL     OW 8905   0.159   2.999  10.776
 2718SOL    HW1 8906   0.181   2.938  10.852
 2718SOL    HW2 8907   0.169   2.950  10.690
 2719SOL     OW 8908   1.347   2.921  10.544
 2719SOL    HW1 8909   1.371   2.858  10.470
 2719SOL    HW2 8910   1.257   2.961  10.526
 2720SOL     OW 8911   1.302   2.717   9.619
 2720SOL    HW1 8912   1.216   2.686   9.661
 2720SOL    HW2 8913   1.298   2.703   9.520
 2721SOL     OW 8914   1.759   3.609  10.464
 2721SOL    HW1 8915   1.820   3.639  10.391
 2721SOL    HW2 8916   1.721   3.520  10.442
 2722SOL     OW 8917   1.252   3.593  10.438
 2722SOL    HW1 8918   1.336   3.598  10.384
 2722SOL    HW2 8919   1.229   3.497  10.456
 2723SOL     OW 8920   0.083   3.120  10.332
 2723SOL    HW1 8921   0.078   3.119  10.432
 2723SOL    HW2 8922   0.000   3.079  10.294
 2724SOL     OW 8923   0.688   3.524  11.026
 2724SOL    HW1 8924   0.632   3.605  11.035
 2724SOL    HW2 8925   0.740   3.528  10.940
 2725SOL     OW 8926   1.388   3.435   9.787
 2725SOL    HW1 8927   1.455   3.447   9.713
 2725SOL    HW2 8928   1.348   3.524   9.810
 2726SOL     OW 8929   0.130   3.656  11.161
 2726SOL    HW1 8930   0.089   3.582  11.214
 2726SOL    HW2 8931   0.194   3.707  11.219
 2727SOL     OW 8932   1.280   2.789   9.982
 2727SOL    HW1 8933   1.340   2.708   9.984
 2727SOL    HW2 8934   1.320   2.858   9.922
 2728SOL     OW 8935   0.830   3.135  10.732
 2728SOL    HW1 8936   0.825   3.168  10.827
 2728SOL    HW2 8937   0.744   3.154  10.686
 2729SOL     OW 8938   0.672   3.478   9.464
 2729SOL    HW1 8939   0.681   3.488   9.365
 2729SOL    HW2 8940   0.632   3.389   9.485
 2730SOL     OW 8941   1.650   3.582  10.704
 2730SOL    HW1 8942   1.703   3.592  10.620
 2730SOL    HW2 8943   1.623   3.672  10.738
 2731SOL     OW 8944   0.263   2.188  10.030
 2731SOL    HW1 8945   0.184   2.239   9.996
 2731SOL    HW2 8946   0.254   2.173  10.128
 2732SOL     OW 8947   1.194   3.474   9.341
 2732SOL    HW1 8948   1.200   3.381   9.378
 2732SOL    HW2 8949   1.135   3.474   9.261
 2733SOL     OW 8950   0.822   2.864  10.682
 2733SOL    HW1 8951   0.862   2.863  10.590
 2733SOL    HW2 8952   0.832   2.956  10.722
 2734SOL     OW 8953   0.916   2.772   9.601
 2734SOL    HW1 8954   0.979   2.810   9.533
 2734SOL    HW2 8955   0.956   2.689   9.640
 2735SOL     OW 8956   1.504   3.469   9.354
 2735SOL    HW1 8957   1.412   3.506   9.361
 2735SOL    HW2 8958   1.542   3.489   9.264
 2736SOL     OW 8959   0.372   3.150  10.800
 2736SOL    HW1 8960   0.359   3.243  10.766
 2736SOL    HW2 8961   0.288   3.098  10.787
 2737SOL     OW 8962   1.614   3.154  10.599
 2737SOL    HW1 8963   1.674   3.157  10.679
 2737SOL    HW2 8964   1.539   3.218  10.612
 2738SOL     OW 8965   1.039   2.960  10.006
 2738SOL    HW1 8966   0.969   2.913  10.060
 2738SOL    HW2 8967   1.098   2.892   9.963
 2739SOL     OW 8968   1.014   2.098  10.281
 2739SOL    HW1 8969   1.006   2.062  10.188
 2739SOL    HW2 8970   1.012   2.022  10.346
 2740SOL     OW 8971   0.590   3.349   9.801
 2740SOL    HW1 8972   0.632   3.291   9.731
 2740SOL    HW2 8973   0.546   3.428   9.757
 2741SOL     OW 8974   1.709   2.247  10.691
 2741SOL    HW1 8975   1.782   2.316  10.695
 2741SOL    HW2 8976   1.737   2.172  10.632
 2742SOL     OW 8977   0.255   3.210   9.600
 2742SOL    HW1 8978   0.159   3.211   9.573
 2742SOL    HW2 8979   0.267   3.263   9.684
 2743SOL     OW 8980   0.105   2.875  11.036
 2743SOL    HW1 8981   0.028   2.842  11.090
 2743SOL    HW2 8982   0.190   2.845  11.078
 2744SOL     OW 8983   0.672   2.065  10.799
 2744SOL    HW1 8984   0.762   2.049  10.759
 2744SOL    HW2 8985   0.680   2.070  10.898
 2745SOL     OW 8986   0.075   2.207   9.343
 2745SOL    HW1 8987  -0.017   2.179   9.314
 2745SOL    HW2 8988   0.106   2.284   9.287
 2746SOL     OW 8989   1.440   2.718  10.708
 2746SOL    HW1 8990   1.383   2.770  10.645
 2746SOL    HW2 8991   1.536   2.730  10.684
 2747SOL     OW 8992   0.072   2.028   9.628
 2747SOL    HW1 8993   0.055   2.111   9.574
 2747SOL    HW2 8994   0.162   1.991   9.606
 2748SOL     OW 8995   1.183   3.197   9.429
 2748SOL    HW1 8996   1.084   3.186   9.431
 2748SOL    HW2 8997   1.217   3.212   9.522
 2749SOL     OW 8998   0.613   2.704  10.741
 2749SOL    HW1 8999   0.669   2.785  10.724
 2749SOL    HW2 9000   0.672   2.624  10.744
 2750SOL     OW 9001   1.493   3.629  10.269
 2750SOL    HW1 9002   1.526   3.693  10.200
 2750SOL    HW2 9003   1.559   3.623  10.344
 2751SOL     OW 9004   0.716   2.427  11.018
 2751SOL    HW1 9005   0.735   2.492  11.092
 2751SOL    HW2 9006   0.776   2.347  11.027
 2752SOL     OW 9007   1.450   3.082  10.943
 2752SOL    HW1 9008   1.441   3.072  11.042
 2752SOL    HW2 9009   1.546   3.075  10.917
 2753SOL     OW 9010   0.390   3.603  10.870
 2753SOL    HW1 9011   0.299   3.644  10.868
 2753SOL    HW2 9012   0.383   3.509  10.902
 2754SOL     OW 9013   1.674   2.745  10.564
 2754SOL    HW1 9014   1.647   2.656  10.527
 2754SOL    HW2 9015   1.675   2.813  10.491
 2755SOL     OW 9016   1.225   2.187   9.759
 2755SOL    HW1 9017   1.290   2.113   9.748
 2755SOL    HW2 9018   1.245   2.237   9.843
 2756SOL     OW 9019   0.594   2.607   9.962
 2756SOL    HW1 9020   0.644   2.692   9.943
 2756SOL    HW2 9021   0.506   2.609   9.914
 2757SOL     OW 9022   1.777   2.204  10.952
 2757SOL    HW1 9023   1.760   2.235  10.858
 2757SOL    HW2 9024   1.693   2.167  10.990
 2758SOL     OW 9025   1.730   2.796  10.827
 2758SOL    HW1 9026   1.768   2.887  10.842
 2758SOL    HW2 9027   1.722   2.779  10.728
 2759SOL     OW 9028   0.859   3.236   9.326
 2759SOL    HW1 9029   0.813   3.251   9.414
 2759SOL    HW2 9030   0.903   3.321   9.296
 2760SOL     OW 9031   0.661   3.652  10.263
 2760SOL    HW1 9032   0.615   3.740  10.250
 2760SOL    HW2 9033   0.760   3.664  10.256
 2761SOL     OW 9034   0.859   2.818  10.171
 2761SOL    HW1 9035   0.913   2.749  10.219
 2761SOL    HW2 9036   0.827   2.887  10.237
 2762SOL     OW 9037   1.083   2.846   9.397
 2762SOL    HW1 9038   1.060   2.899   9.315
 2762SOL    HW2 9039   1.164   2.790   9.378
 2763SOL     OW 9040   1.861   3.431  10.161
 2763SOL    HW1 9041   1.790   3.419  10.091
 2763SOL    HW2 9042   1.862   3.352  10.221
 2764SOL     OW 9043   0.221   3.176  11.154
 2764SOL    HW1 9044   0.156   3.103  11.133
 2764SOL    HW2 9045   0.225   3.190  11.252
 2765SOL     OW 9046   0.079   3.102   9.963
 2765SOL    HW1 9047   0.078   3.055  10.051
 2765SOL    HW2 9048   0.161   3.074   9.912
 2766SOL     OW 9049   0.672   3.253  10.934
 2766SOL    HW1 9050   0.594   3.203  10.972
 2766SOL    HW2 9051   0.669   3.348  10.965
 2767SOL     OW 9052   0.428   2.286   9.830
 2767SOL    HW1 9053   0.458   2.214   9.768
 2767SOL    HW2 9054   0.389   2.246   9.913
 2768SOL     OW 9055   1.705   3.349  10.414
 2768SOL    HW1 9056   1.612   3.324  10.387
 2768SOL    HW2 9057   1.731   3.299  10.496
 2769SOL     OW 9058   0.317   2.409  10.590
 2769SOL    HW1 9059   0.355   2.350  10.662
 2769SOL    HW2 9060   0.357   2.383  10.502
 2770SOL     OW 9061   0.812   3.448   9.997
 2770SOL    HW1 9062   0.844   3.458   9.903
 2770SOL    HW2 9063   0.733   3.386   9.999
 2771SOL     OW 9064   1.424   2.076  10.422
 2771SOL    HW1 9065   1.476   2.011  10.477
 2771SOL    HW2 9066   1.375   2.139  10.483
 2772SOL     OW 9067   1.001   1.896  10.464
 2772SOL    HW1 9068   0.938   1.824  10.433
 2772SOL    HW2 9069   1.094   1.860  10.464
 2773SOL     OW 9070   0.770   3.192   9.611
 2773SOL    HW1 9071   0.724   3.105   9.628
 2773SOL    HW2 9072   0.861   3.189   9.652
 2774SOL     OW 9073   0.618   3.429  10.594
 2774SOL    HW1 9074   0.613   3.511  10.651
 2774SOL    HW2 9075   0.707   3.426  10.549
 2775SOL     OW 9076   1.352   1.914   9.478
 2775SOL    HW1 9077   1.387   1.873   9.394
 2775SOL    HW2 9078   1.262   1.876   9.498
 2776SOL     OW 9079   1.300   2.315  10.001
 2776SOL    HW1 9080   1.241   2.395  10.005
 2776SOL    HW2 9081   1.315   2.280  10.094
 2777SOL     OW 9082   1.593   2.083  10.192
 2777SOL    HW1 9083   1.509   2.082  10.246
 2777SOL    HW2 9084   1.595   2.166  10.136
 2778SOL     OW 9085   0.039   2.939   9.610
 2778SOL    HW1 9086   0.138   2.928   9.601
 2778SOL    HW2 9087  -0.001   2.853   9.642
 2779SOL     OW 9088   0.875   3.508   9.647
 2779SOL    HW1 9089   0.798   3.473   9.593
 2779SOL    HW2 9090   0.843   3.579   9.709
 2780SOL     OW 9091   0.230   2.490  11.285
 2780SOL    HW1 9092   0.137   2.488  11.322
 2780SOL    HW2 9093   0.231   2.451  11.193
 2781SOL     OW 9094   0.225   2.137  12.168
 2781SOL    HW1 9095   0.260   2.120  12.260
 2781SOL    HW2 9096   0.137   2.092  12.156
 2782SOL     OW 9097   0.019   2.230  11.819
 2782SOL    HW1 9098  -0.063   2.273  11.858
 2782SOL    HW2 9099  -0.009   2.157  11.756
 2783SOL     OW 9100   0.569   3.137  12.337
 2783SOL    HW1 9101   0.476   3.130  12.300
 2783SOL    HW2 9102   0.580   3.226  12.381
 2784SOL     OW 9103   1.555   3.373  11.875
 2784SOL    HW1 9104   1.498   3.357  11.956
 2784SOL    HW2 9105   1.496   3.383  11.795
 2785SOL     OW 9106   1.135   2.565  11.889
 2785SOL    HW1 9107   1.192   2.643  11.864
 2785SOL    HW2 9108   1.075   2.591  11.965
 2786SOL     OW 9109   1.755   2.469  11.403
 2786SOL    HW1 9110   1.743   2.456  11.304
 2786SOL    HW2 9111   1.725   2.388  11.452
 2787SOL     OW 9112   0.768   3.006  12.195
 2787SOL    HW1 9113   0.690   3.023  12.255
 2787SOL    HW2 9114   0.802   3.093  12.159
 2788SOL     OW 9115   0.850   2.660  12.995
 2788SOL    HW1 9116   0.846   2.736  13.060
 2788SOL    HW2 9117   0.872   2.696  12.904
 2789SOL     OW 9118   0.685   2.874  11.837
 2789SOL    HW1 9119   0.754   2.858  11.907
 2789SOL    HW2 9120   0.612   2.931  11.875
 2790SOL     OW 9121   0.686   3.023  12.975
 2790SOL    HW1 9122   0.746   3.102  12.989
 2790SOL    HW2 9123   0.600   3.054  12.934
 2791SOL     OW 9124   0.335   3.297  12.233
 2791SOL    HW1 9125   0.257   3.266  12.180
 2791SOL    HW2 9126   0.393   3.355  12.176
 2792SOL     OW 9127   1.460   3.367  12.511
 2792SOL    HW1 9128   1.484   3.461  12.537
 2792SOL    HW2 9129   1.444   3.313  12.593
 2793SOL     OW 9130   0.438   2.254  12.671
 2793SOL    HW1 9131   0.520   2.198  12.680
 2793SOL    HW2 9132   0.357   2.196  12.675
 2794SOL     OW 9133   1.603   2.309  11.909
 2794SOL    HW1 9134   1.529   2.355  11.859
 2794SOL    HW2 9135   1.654   2.377  11.962
 2795SOL     OW 9136   0.231   3.575  11.655
 2795SOL    HW1 9137   0.265   3.652  11.709
 2795SOL    HW2 9138   0.275   3.575  11.565
 2796SOL     OW 9139   1.127   3.203  12.862
 2796SOL    HW1 9140   1.174   3.203  12.950
 2796SOL    HW2 9141   1.079   3.116  12.851
 2797SOL     OW 9142   0.230   3.296  11.710
 2797SOL    HW1 9143   0.204   3.392  11.710
 2797SOL    HW2 9144   0.159   3.242  11.755
 2798SOL     OW 9145   0.240   2.953  12.058
 2798SOL    HW1 9146   0.254   2.869  12.110
 2798SOL    HW2 9147   0.185   3.017  12.113
 2799SOL     OW 9148   0.620   3.648  12.611
 2799SOL    HW1 9149   0.528   3.631  12.646
 2799SOL    HW2 9150   0.648   3.740  12.637
 2800SOL     OW 9151   0.606   2.826  11.295
 2800SOL    HW1 9152   0.613   2.910  11.241
 2800SOL    HW2 9153   0.652   2.839  11.383
 2801SOL     OW 9154   1.594   1.976  12.652
 2801SOL    HW1 9155   1.576   2.043  12.580
 2801SOL    HW2 9156   1.591   2.022  12.741
 2802SOL     OW 9157   0.122   2.505  11.735
 2802SOL    HW1 9158   0.077   2.417  11.752
 2802SOL    HW2 9159   0.121   2.559  11.819
 2803SOL     OW 9160   1.842   3.629  11.531
 2803SOL    HW1 9161   1.896   3.600  11.611
 2803SOL    HW2 9162   1.872   3.719  11.502
 2804SOL     OW 9163   0.027   3.458  11.289
 2804SOL    HW1 9164   0.008   3.362  11.310
 2804SOL    HW2 9165  -0.006   3.516  11.364
 2805SOL     OW 9166   1.689   2.784  11.784
 2805SOL    HW1 9167   1.784   2.755  11.792
 2805SOL    HW2 9168   1.681   2.849  11.709
 2806SOL     OW 9169   1.641   2.970  11.604
 2806SOL    HW1 9170   1.727   2.972  11.552
 2806SOL    HW2 9171   1.655   3.017  11.692
 2807SOL     OW 9172   0.113   2.599  12.769
 2807SOL    HW1 9173   0.201   2.586  12.814
 2807SOL    HW2 9174   0.100   2.696  12.747
 2808SOL     OW 9175   0.613   3.227  11.898
 2808SOL    HW1 9176   0.564   3.140  11.907
 2808SOL    HW2 9177   0.590   3.270  11.811
 2809SOL     OW 9178   1.293   3.090  12.595
 2809SOL    HW1 9179   1.330   3.017  12.537
 2809SOL    HW2 9180   1.345   3.095  12.680
 2810SOL     OW 9181   0.809   1.866  11.674
 2810SOL    HW1 9182   0.849   1.957  11.665
 2810SOL    HW2 9183   0.709   1.874  11.680
 2811SOL     OW 9184   0.197   2.838  12.436
 2811SOL    HW1 9185   0.286   2.793  12.422
 2811SOL    HW2 9186   0.124   2.773  12.417
 2812SOL     OW 9187   1.525   2.861  11.362
 2812SOL    HW1 9188   1.462   2.785  11.375
 2812SOL    HW2 9189   1.573   2.879  11.448
 2813SOL     OW 9190   1.187   3.654  12.788
 2813SOL    HW1 9191   1.211   3.714  12.712
 2813SOL    HW2 9192   1.194   3.559  12.758
 2814SOL     OW 9193   0.317   2.113  12.973
 2814SOL    HW1 9194   0.388   2.184  12.979
 2814SOL    HW2 9195   0.229   2.152  13.001
 2815SOL     OW 9196   1.466   3.279  12.125
 2815SOL    HW1 9197   1.407   3.285  12.205
 2815SOL    HW2 9198   1.451   3.191  12.079
 2816SOL     OW 9199   1.667   3.576  11.744
 2816SOL    HW1 9200   1.626   3.553  11.656
 2816SOL    HW2 9201   1.649   3.502  11.809
 2817SOL     OW 9202   0.598   2.591  11.442
 2817SOL    HW1 9203   0.622   2.660  11.374
 2817SOL    HW2 9204   0.520   2.624  11.496
 2818SOL     OW 9205   1.281   2.207  12.116
 2818SOL    HW1 9206   1.195   2.157  12.103
 2818SOL    HW2 9207   1.343   2.153  12.172
 2819SOL     OW 9208   1.576   3.524  11.479
 2819SOL    HW1 9209   1.665   3.570  11.482
 2819SOL    HW2 9210   1.555   3.500  11.384
 2820SOL     OW 9211   0.807   2.467  12.637
 2820SOL    HW1 9212   0.760   2.464  12.726
 2820SOL    HW2 9213   0.756   2.412  12.571
 2821SOL     OW 9214   1.394   2.331  12.846
 2821SOL    HW1 9215   1.374   2.374  12.934
 2821SOL    HW2 9216   1.472   2.269  12.855
 2822SOL     OW 9217   0.973   2.752  12.744
 2822SOL    HW1 9218   1.019   2.668  12.715
 2822SOL    HW2 9219   0.917   2.786  12.669
 2823SOL     OW 9220   0.991   2.272  12.414
 2823SOL    HW1 9221   0.914   2.306  12.468
 2823SOL    HW2 9222   0.957   2.221  12.335
 2824SOL     OW 9223   1.041   2.563  11.601
 2824SOL    HW1 9224   1.067   2.559  11.697
 2824SOL    HW2 9225   0.956   2.512  11.587
 2825SOL     OW 9226   0.076   2.673  11.961
 2825SOL    HW1 9227   0.175   2.661  11.970
 2825SOL    HW2 9228   0.052   2.768  11.982
 2826SOL     OW 9229   0.130   3.683  12.743
 2826SOL    HW1 9230   0.120   3.668  12.842
 2826SOL    HW2 9231   0.044   3.719  12.707
 2827SOL     OW 9232   0.865   2.210  11.367
 2827SOL    HW1 9233   0.924   2.273  11.318
 2827SOL    HW2 9234   0.884   2.116  11.338
 2828SOL     OW 9235   1.719   2.447  13.003
 2828SOL    HW1 9236   1.693   2.536  12.967
 2828SOL    HW2 9237   1.717   2.379  12.930
 2829SOL     OW 9238   1.362   3.006  11.717
 2829SOL    HW1 9239   1.445   2.977  11.669
 2829SOL    HW2 9240   1.313   3.073  11.661
 2830SOL     OW 9241   0.550   2.058  12.057
 2830SOL    HW1 9242   0.545   2.053  12.157
 2830SOL    HW2 9243   0.552   2.154  12.028
 2831SOL     OW 9244   1.008   3.318  11.649
 2831SOL    HW1 9245   0.962   3.390  11.597
 2831SOL    HW2 9246   1.004   3.338  11.747
 2832SOL     OW 9247   0.351   3.663  12.025
 2832SOL    HW1 9248   0.401   3.577  12.031
 2832SOL    HW2 9249   0.416   3.740  12.022
 2833SOL     OW 9250   1.795   2.928  12.045
 2833SOL    HW1 9251   1.733   2.913  11.969
 2833SOL    HW2 9252   1.743   2.939  12.130
 2834SOL     OW 9253   1.227   3.412  12.678
 2834SOL    HW1 9254   1.233   3.335  12.742
 2834SOL    HW2 9255   1.175   3.386  12.598
 2835SOL     OW 9256   0.321   2.805  11.414
 2835SOL    HW1 9257   0.403   2.844  11.372
 2835SOL    HW2 9258   0.294   2.723  11.365
 2836SOL     OW 9259   1.458   2.597  11.900
 2836SOL    HW1 9260   1.453   2.532  11.975
 2836SOL    HW2 9261   1.538   2.656  11.913
 2837SOL     OW 9262   0.461   3.128  12.899
 2837SOL    HW1 9263   0.411   3.129  12.813
 2837SOL    HW2 9264   0.398   3.110  12.975
 2838SOL     OW 9265   1.111   3.638  11.409
 2838SOL    HW1 9266   1.051   3.576  11.459
 2838SOL    HW2 9267   1.142   3.594  11.324
 2839SOL     OW 9268   0.202   2.147  12.670
 2839SOL    HW1 9269   0.122   2.207  12.657
 2839SOL    HW2 9270   0.192   2.098  12.756
 2840SOL     OW 9271   1.632   3.239  11.253
 2840SOL    HW1 9272   1.600   3.333  11.243
 2840SOL    HW2 9273   1.556   3.176  11.241
 2841SOL     OW 9274   0.464   3.605  11.495
 2841SOL    HW1 9275   0.497   3.644  11.581
 2841SOL    HW2 9276   0.540   3.598  11.430
 2842SOL     OW 9277   1.400   1.969  11.598
 2842SOL    HW1 9278   1.376   1.932  11.508
 2842SOL    HW2 9279   1.499   1.985  11.602
 2843SOL     OW 9280   0.249   3.647  12.413
 2843SOL    HW1 9281   0.306   3.582  12.463
 2843SOL    HW2 9282   0.233   3.614  12.320
 2844SOL     OW 9283   0.940   3.560  12.076
 2844SOL    HW1 9284   1.020   3.503  12.097
 2844SOL    HW2 9285   0.891   3.520  11.999
 2845SOL     OW 9286   0.382   2.562  11.652
 2845SOL    HW1 9287   0.427   2.472  11.649
 2845SOL    HW2 9288   0.288   2.551  11.685
 2846SOL     OW 9289   1.547   2.084  12.901
 2846SOL    HW1 9290   1.542   2.121  12.993
 2846SOL    HW2 9291   1.475   2.015  12.889
 2847SOL     OW 9292   0.614   1.984  11.289
 2847SOL    HW1 9293   0.712   1.962  11.296
 2847SOL    HW2 9294   0.583   1.967  11.196
 2848SOL     OW 9295   0.781   2.126  12.921
 2848SOL    HW1 9296   0.848   2.065  12.964
 2848SOL    HW2 9297   0.708   2.145  12.986
 2849SOL     OW 9298   0.888   3.376  12.367
 2849SOL    HW1 9299   0.865   3.351  12.273
 2849SOL    HW2 9300   0.949   3.307  12.406
 2850SOL     OW 9301   1.351   2.452  12.605
 2850SOL    HW1 9302   1.379   2.409  12.690
 2850SOL    HW2 9303   1.376   2.548  12.606
 2851SOL     OW 9304   0.803   3.264  12.096
 2851SOL    HW1 9305   0.893   3.278  12.054
 2851SOL    HW2 9306   0.732   3.266  12.025
 2852SOL     OW 9307   0.922   2.365  12.071
 2852SOL    HW1 9308   0.897   2.356  11.975
 2852SOL    HW2 9309   0.970   2.283  12.102
 2853SOL     OW 9310   0.539   1.926  11.684
 2853SOL    HW1 9311   0.458   1.927  11.742
 2853SOL    HW2 9312   0.542   2.009  11.629
 2854SOL     OW 9313   1.434   3.050  11.213
 2854SOL    HW1 9314   1.466   2.974  11.270
 2854SOL    HW2 9315   1.342   3.077  11.243
 2855SOL     OW 9316   0.297   1.897  11.343
 2855SOL    HW1 9317   0.346   1.981  11.322
 2855SOL    HW2 9318   0.359   1.832  11.388
 2856SOL     OW 9319   0.935   2.098  11.652
 2856SOL    HW1 9320   0.887   2.139  11.574
 2856SOL    HW2 9321   1.034   2.096  11.633
 2857SOL     OW 9322   1.076   2.545  12.636
 2857SOL    HW1 9323   0.996   2.484  12.639
 2857SOL    HW2 9324   1.157   2.492  12.612
 2858SOL     OW 9325   1.227   3.432  11.965
 2858SOL    HW1 9326   1.248   3.506  11.900
 2858SOL    HW2 9327   1.295   3.432  12.038
 2859SOL     OW 9328   0.459   3.014  11.913
 2859SOL    HW1 9329   0.388   2.987  11.978
 2859SOL    HW2 9330   0.433   2.986  11.820
 2860SOL     OW 9331   1.271   3.659  11.763
 2860SOL    HW1 9332   1.315   3.723  11.699
 2860SOL    HW2 9333   1.221   3.711  11.833
 2861SOL     OW 9334   1.032   2.411  11.188
 2861SOL    HW1 9335   0.991   2.493  11.149
 2861SOL    HW2 9336   1.096   2.437  11.261
 2862SOL     OW 9337   0.078   2.418  12.558
 2862SOL    HW1 9338   0.170   2.417  12.517
 2862SOL    HW2 9339   0.072   2.492  12.625
 2863SOL     OW 9340   0.561   2.084  12.319
 2863SOL    HW1 9341   0.599   2.000  12.356
 2863SOL    HW2 9342   0.473   2.103  12.363
 2864SOL     OW 9343   0.866   2.316  11.814
 2864SOL    HW1 9344   0.834   2.388  11.752
 2864SOL    HW2 9345   0.890   2.235  11.761
 2865SOL     OW 9346   1.017   1.901  11.925
 2865SOL    HW1 9347   0.945   1.906  11.856
 2865SOL    HW2 9348   0.993   1.832  11.994
 2866SOL     OW 9349   1.429   3.035  12.039
 2866SOL    HW1 9350   1.374   2.951  12.032
 2866SOL    HW2 9351   1.455   3.064  11.947
 2867SOL     OW 9352   1.466   2.452  12.164
 2867SOL    HW1 9353   1.436   2.357  12.171
 2867SOL    HW2 9354   1.539   2.468  12.230
 2868SOL     OW 9355   1.857   2.695  11.549
 2868SOL    HW1 9356   1.899   2.631  11.613
 2868SOL    HW2 9357   1.819   2.644  11.471
 2869SOL     OW 9358   0.488   3.247  11.346
 2869SOL    HW1 9359   0.401   3.232  11.393
 2869SOL    HW2 9360   0.471   3.273  11.251
 2870SOL     OW 9361   1.664   3.142  11.829
 2870SOL    HW1 9362   1.763   3.150  11.843
 2870SOL    HW2 9363   1.619   3.226  11.860
 2871SOL     OW 9364   1.390   2.437  11.250
 2871SOL    HW1 9365   1.336   2.416  11.331
 2871SOL    HW2 9366   1.481   2.396  11.259
 2872SOL     OW 9367   0.527   2.118  11.500
 2872SOL    HW1 9368   0.554   2.059  11.425
 2872SOL    HW2 9369   0.527   2.213  11.469
 2873SOL     OW 9370   1.754   3.085  12.760
 2873SOL    HW1 9371   1.845   3.046  12.747
 2873SOL    HW2 9372   1.762   3.181  12.784
 2874SOL     OW 9373   1.064   3.209  12.512
 2874SOL    HW1 9374   0.984   3.186  12.567
 2874SOL    HW2 9375   1.147   3.183  12.561
 2875SOL     OW 9376   1.592   3.491  12.797
 2875SOL    HW1 9377   1.619   3.525  12.707
 2875SOL    HW2 9378   1.671   3.453  12.843
 2876SOL     OW 9379   1.111   3.057  12.272
 2876SOL    HW1 9380   1.071   3.101  12.353
 2876SOL    HW2 9381   1.070   3.094  12.189
 2877SOL     OW 9382   1.638   2.961  12.251
 2877SOL    HW1 9383   1.643   3.042  12.310
 2877SOL    HW2 9384   1.552   2.963  12.200
 2878SOL     OW 9385   0.915   1.951  12.574
 2878SOL    HW1 9386   0.940   1.931  12.479
 2878SOL    HW2 9387   0.987   2.007  12.616
 2879SOL     OW 9388   0.980   2.978  12.891
 2879SOL    HW1 9389   0.881   2.984  12.901
 2879SOL    HW2 9390   1.003   2.898  12.835
 2880SOL     OW 9391   0.705   2.912  11.540
 2880SOL    HW1 9392   0.691   2.919  11.639
 2880SOL    HW2 9393   0.789   2.861  11.522
 2881SOL     OW 9394   0.410   2.675  12.423
 2881SOL    HW1 9395   0.496   2.687  12.473
 2881SOL    HW2 9396   0.368   2.588  12.450
 2882SOL     OW 9397   1.274   2.248  12.434
 2882SOL    HW1 9398   1.295   2.322  12.498
 2882SOL    HW2 9399   1.185   2.265  12.391
 2883SOL     OW 9400   0.064   3.426  12.503
 2883SOL    HW1 9401   0.018   3.508  12.469
 2883SOL    HW2 9402   0.162   3.445  12.512
 2884SOL     OW 9403   0.367   2.962  11.673
 2884SOL    HW1 9404   0.360   3.045  11.617
 2884SOL    HW2 9405   0.371   2.882  11.613
 2885SOL     OW 9406   0.566   2.399  12.037
 2885SOL    HW1 9407   0.578   2.465  11.963
 2885SOL    HW2 9408   0.612   2.433  12.120
 2886SOL     OW 9409   1.252   3.210  11.560
 2886SOL    HW1 9410   1.302   3.287  11.600
 2886SOL    HW2 9411   1.157   3.212  11.592
 2887SOL     OW 9412   1.272   3.307  12.314
 2887SOL    HW1 9413   1.319   3.320  12.401
 2887SOL    HW2 9414   1.206   3.233  12.323
 2888SOL     OW 9415   1.582   2.501  11.644
 2888SOL    HW1 9416   1.551   2.562  11.717
 2888SOL    HW2 9417   1.632   2.553  11.575
 2889SOL     OW 9418   0.354   3.372  12.501
 2889SOL    HW1 9419   0.333   3.328  12.414
 2889SOL    HW2 9420   0.451   3.398  12.504
 2890SOL     OW 9421   0.402   2.613  12.770
 2890SOL    HW1 9422   0.470   2.668  12.723
 2890SOL    HW2 9423   0.442   2.525  12.797
 2891SOL     OW 9424   1.587   2.641  12.842
 2891SOL    HW1 9425   1.495   2.679  12.837
 2891SOL    HW2 9426   1.647   2.688  12.777
 2892SOL     OW 9427   1.013   1.967  12.942
 2892SOL    HW1 9428   1.019   2.052  12.890
 2892SOL    HW2 9429   1.045   1.891  12.885
 2893SOL     OW 9430   0.504   1.912  12.912
 2893SOL    HW1 9431   0.462   1.855  12.842
 2893SOL    HW2 9432   0.438   1.981  12.944
 2894SOL     OW 9433   0.573   2.732  12.201
 2894SOL    HW1 9434   0.617   2.821  12.192
 2894SOL    HW2 9435   0.510   2.732  12.278
 2895SOL     OW 9436   1.360   2.724  12.217
 2895SOL    HW1 9437   1.285   2.724  12.151
 2895SOL    HW2 9438   1.397   2.632  12.226
 2896SOL     OW 9439   1.209   2.387  11.447
 2896SOL    HW1 9440   1.222   2.303  11.501
 2896SOL    HW2 9441   1.180   2.461  11.507
 2897SOL     OW 9442   0.307   2.075  12.403
 2897SOL    HW1 9443   0.284   2.112  12.493
 2897SOL    HW2 9444   0.277   1.980  12.397
 2898SOL     OW 9445   0.037   3.172  12.454
 2898SOL    HW1 9446   0.090   3.123  12.522
 2898SOL    HW2 9447   0.059   3.270  12.459
 2899SOL     OW 9448   0.732   2.496  12.236
 2899SOL    HW1 9449   0.791   2.470  12.160
 2899SOL    HW2 9450   0.704   2.592  12.225
 2900SOL     OW 9451   1.728   2.797  13.026
 2900SOL    HW1 9452   1.682   2.790  12.937
 2900SOL    HW2 9453   1.666   2.841  13.092
 2901SOL     OW 9454   0.307   1.925  11.790
 2901SOL    HW1 9455   0.296   2.019  11.823
 2901SOL    HW2 9456   0.302   1.862  11.867
 2902SOL     OW 9457   1.622   2.229  11.546
 2902SOL    HW1 9458   1.624   2.153  11.610
 2902SOL    HW2 9459   1.574   2.306  11.586
 2903SOL     OW 9460   1.023   2.628  12.138
 2903SOL    HW1 9461   1.038   2.649  12.234
 2903SOL    HW2 9462   0.993   2.533  12.129
 2904SOL     OW 9463   0.980   3.435  12.872
 2904SOL    HW1 9464   0.960   3.479  12.784
 2904SOL    HW2 9465   1.019   3.344  12.856
 2905SOL     OW 9466   1.859   3.380  12.777
 2905SOL    HW1 9467   1.873   3.407  12.682
 2905SOL    HW2 9468   1.942   3.402  12.830
 2906SOL     OW 9469   0.350   2.760  12.976
 2906SOL    HW1 9470   0.426   2.804  13.024
 2906SOL    HW2 9471   0.385   2.713  12.894
 2907SOL     OW 9472   1.540   2.136  11.297
 2907SOL    HW1 9473   1.479   2.061  11.320
 2907SOL    HW2 9474   1.562   2.188  11.380
 2908SOL     OW 9475   1.303   2.700  11.214
 2908SOL    HW1 9476   1.337   2.607  11.229
 2908SOL    HW2 9477   1.321   2.727  11.119
 2909SOL     OW 9478   1.068   3.195  12.021
 2909SOL    HW1 9479   1.075   3.111  11.966
 2909SOL    HW2 9480   1.130   3.264  11.985
 2910SOL     OW 9481   0.319   2.672  12.121
 2910SOL    HW1 9482   0.412   2.708  12.126
 2910SOL    HW2 9483   0.313   2.587  12.173
 2911SOL     OW 9484   0.339   2.371  12.178
 2911SOL    HW1 9485   0.287   2.288  12.161
 2911SOL    HW2 9486   0.416   2.376  12.114
 2912SOL     OW 9487   1.138   2.242  12.850
 2912SOL    HW1 9488   1.093   2.305  12.914
 2912SOL    HW2 9489   1.231   2.273  12.833
 2913SOL     OW 9490   1.160   2.069  12.649
 2913SOL    HW1 9491   1.160   2.133  12.726
 2913SOL    HW2 9492   1.188   2.117  12.566
 2914SOL     OW 9493   0.008   3.188  11.372
 2914SOL    HW1 9494  -0.085   3.209  11.341
 2914SOL    HW2 9495   0.018   3.089  11.385
 2915SOL     OW 9496   0.088   3.663  12.099
 2915SOL    HW1 9497   0.046   3.577  12.072
 2915SOL    HW2 9498   0.182   3.666  12.065
 2916SOL     OW 9499   0.504   3.430  12.082
 2916SOL    HW1 9500   0.570   3.504  12.091
 2916SOL    HW2 9501   0.548   3.351  12.040
 2917SOL     OW 9502   1.002   2.658  12.410
 2917SOL    HW1 9503   1.043   2.626  12.496
 2917SOL    HW2 9504   0.906   2.631  12.407
 2918SOL     OW 9505   0.040   2.406  12.286
 2918SOL    HW1 9506   0.125   2.373  12.245
 2918SOL    HW2 9507   0.053   2.421  12.384
 2919SOL     OW 9508   0.189   2.382  12.894
 2919SOL    HW1 9509   0.248   2.342  12.824
 2919SOL    HW2 9510   0.131   2.453  12.853
 2920SOL     OW 9511   1.369   2.812  12.832
 2920SOL    HW1 9512   1.408   2.901  12.852
 2920SOL    HW2 9513   1.379   2.792  12.735
 2921SOL     OW 9514   0.815   2.434  11.497
 2921SOL    HW1 9515   0.822   2.345  11.451
 2921SOL    HW2 9516   0.721   2.468  11.489
 2922SOL     OW 9517   1.657   2.466  12.378
 2922SOL    HW1 9518   1.619   2.397  12.440
 2922SOL    HW2 9519   1.739   2.430  12.334
 2923SOL     OW 9520   0.252   3.426  12.916
 2923SOL    HW1 9521   0.222   3.483  12.992
 2923SOL    HW2 9522   0.245   3.329  12.942
 2924SOL     OW 9523   0.671   2.326  12.441
 2924SOL    HW1 9524   0.637   2.237  12.411
 2924SOL    HW2 9525   0.697   2.380  12.361
 2925SOL     OW 9526   0.930   3.540  12.637
 2925SOL    HW1 9527   0.906   3.522  12.542
 2925SOL    HW2 9528   0.960   3.634  12.647
 2926SOL     OW 9529   0.473   2.362  11.363
 2926SOL    HW1 9530   0.534   2.442  11.367
 2926SOL    HW2 9531   0.378   2.393  11.370
 2927SOL     OW 9532   0.159   2.999  12.638
 2927SOL    HW1 9533   0.181   2.938  12.714
 2927SOL    HW2 9534   0.169   2.950  12.552
 2928SOL     OW 9535   1.347   2.921  12.406
 2928SOL    HW1 9536   1.371   2.858  12.332
 2928SOL    HW2 9537   1.257   2.961  12.388
 2929SOL     OW 9538   1.302   2.717  11.481
 2929SOL    HW1 9539   1.216   2.686  11.523
 2929SOL    HW2 9540   1.298   2.703  11.382
 2930SOL     OW 9541   1.759   3.609  12.326
 2930SOL    HW1 9542   1.820   3.639  12.253
 2930SOL    HW2 9543   1.721   3.520  12.304
 2931SOL     OW 9544   1.252   3.593  12.300
 2931SOL    HW1 9545   1.336   3.598  12.246
 2931SOL    HW2 9546   1.229   3.497  12.318
 2932SOL     OW 9547   0.083   3.120  12.194
 2932SOL    HW1 9548   0.078   3.119  12.294
 2932SOL    HW2 9549   0.000   3.079  12.156
 2933SOL     OW 9550   0.688   3.524  12.888
 2933SOL    HW1 9551   0.632   3.605  12.897
 2933SOL    HW2 9552   0.740   3.528  12.802
 2934SOL     OW 9553   1.388   3.435  11.649
 2934SOL    HW1 9554   1.455   3.447  11.575
 2934SOL    HW2 9555   1.348   3.524  11.672
 2935SOL     OW 9556   0.130   3.656  13.023
 2935SOL    HW1 9557   0.089   3.582  13.076
 2935SOL    HW2 9558   0.194   3.707  13.081
 2936SOL     OW 9559   1.280   2.789  11.844
 2936SOL    HW1 9560   1.340   2.708  11.846
 2936SOL    HW2 9561   1.320   2.858  11.784
 2937SOL     OW 9562   0.830   3.135  12.594
 2937SOL    HW1 9563   0.825   3.168  12.689
 2937SOL    HW2 9564   0.744   3.154  12.548
 2938SOL     OW 9565   0.672   3.478  11.326
 2938SOL    HW1 9566   0.681   3.488  11.227
 2938SOL    HW2 9567   0.632   3.389  11.347
 2939SOL     OW 9568   1.650   3.582  12.566
 2939SOL    HW1 9569   1.703   3.592  12.482
 2939SOL    HW2 9570   1.623   3.672  12.600
 2940SOL     OW 9571   0.263   2.188  11.892
 2940SOL    HW1 9572   0.184   2.239  11.858
 2940SOL    HW2 9573   0.254   2.173  11.990
 2941SOL     OW 9574   1.194   3.474  11.203
 2941SOL    HW1 9575   1.200   3.381  11.240
 2941SOL    HW2 9576   1.135   3.474  11.123
 2942SOL     OW 9577   0.822   2.864  12.544
 2942SOL    HW1 9578   0.862   2.863  12.452
 2942SOL    HW2 9579   0.832   2.956  12.584
 2943SOL     OW 9580   0.916   2.772  11.463
 2943SOL    HW1 9581   0.979   2.810  11.395
 2943SOL    HW2 9582   0.956   2.689  11.502
 2944SOL     OW 9583   1.504   3.469  11.216
 2944SOL    HW1 9584   1.412   3.506  11.223
 2944SOL    HW2 9585   1.542   3.489  11.126
 2945SOL     OW 9586   0.372   3.150  12.662
 2945SOL    HW1 9587   0.359   3.243  12.628
 2945SOL    HW2 9588   0.288   3.098  12.649
 2946SOL     OW 9589   1.614   3.154  12.461
 2946SOL    HW1 9590   1.674   3.157  12.541
 2946SOL    HW2 9591   1.539   3.218  12.474
 2947SOL     OW 9592   1.039   2.960  11.868
 2947SOL    HW1 9593   0.969   2.913  11.922
 2947SOL    HW2 9594   1.098   2.892  11.825
 2948SOL     OW 9595   1.014   2.098  12.143
 2948SOL    HW1 9596   1.006   2.062  12.050
 2948SOL    HW2 9597   1.012   2.022  12.208
 2949SOL     OW 9598   0.590   3.349  11.663
 2949SOL    HW1 9599   0.632   3.291  11.593
 2949SOL    HW2 9600   0.546   3.428  11.619
 2950SOL     OW 9601   1.709   2.247  12.553
 2950SOL    HW1 9602   1.782   2.316  12.557
 2950SOL    HW2 9603   1.737   2.172  12.494
 2951SOL     OW 9604   0.255   3.210  11.462
 2951SOL    HW1 9605   0.159   3.211  11.435
 2951SOL    HW2 9606   0.267   3.263  11.546
 2952SOL     OW 9607   0.105   2.875  12.898
 2952SOL    HW1 9608   0.028   2.842  12.952
 2952SOL    HW2 9609   0.190   2.845  12.940
 2953SOL     OW 9610   0.672   2.065  12.661
 2953SOL    HW1 9611   0.762   2.049  12.621
 2953SOL    HW2 9612   0.680   2.070  12.760
 2954SOL     OW 9613   0.075   2.207  11.205
 2954SOL    HW1 9614  -0.017   2.179  11.176
 2954SOL    HW2 9615   0.106   2.284  11.149
 2955SOL     OW 9616   1.440   2.718  12.570
 2955SOL    HW1 9617   1.383   2.770  12.507
 2955SOL    HW2 9618   1.536   2.730  12.546
 2956SOL     OW 9619   0.072   2.028  11.490
 2956SOL    HW1 9620   0.055   2.111  11.436
 2956SOL    HW2 9621   0.162   1.991  11.468
 2957SOL     OW 9622   1.183   3.197  11.291
 2957SOL    HW1 9623   1.084   3.186  11.293
 2957SOL    HW2 9624   1.217   3.212  11.384
 2958SOL     OW 9625   0.613   2.704  12.603
 2958SOL    HW1 9626   0.669   2.785  12.586
 2958SOL    HW2 9627   0.672   2.624  12.606
 2959SOL     OW 9628   1.493   3.629  12.131
 2959SOL    HW1 9629   1.526   3.693  12.062
 2959SOL    HW2 9630   1.559   3.623  12.206
 2960SOL     OW 9631   0.716   2.427  12.880
 2960SOL    HW1 9632   0.735   2.492  12.954
 2960SOL    HW2 9633   0.776   2.347  12.889
 2961SOL     OW 9634   1.450   3.082  12.805
 2961SOL    HW1 9635   1.441   3.072  12.904
 2961SOL    HW2 9636   1.546   3.075  12.779
 2962SOL     OW 9637   0.390   3.603  12.732
 2962SOL    HW1 9638   0.299   3.644  12.730
 2962SOL    HW2 9639   0.383   3.509  12.764
 2963SOL     OW 9640   1.674   2.745  12.426
 2963SOL    HW1 9641   1.647   2.656  12.389
 2963SOL    HW2 9642   1.675   2.813  12.353
 2964SOL     OW 9643   1.225   2.187  11.621
 2964SOL    HW1 9644   1.290   2.113  11.610
 2964SOL    HW2 9645   1.245   2.237  11.705
 2965SOL     OW 9646   0.594   2.607  11.824
 2965SOL    HW1 9647   0.644   2.692  11.805
 2965SOL    HW2 9648   0.506   2.609  11.776
 2966SOL     OW 9649   1.777   2.204  12.814
 2966SOL    HW1 9650   1.760   2.235  12.720
 2966SOL    HW2 9651   1.693   2.167  12.852
 2967SOL     OW 9652   1.730   2.796  12.689
 2967SOL    HW1 9653   1.768   2.887  12.704
 2967SOL    HW2 9654   1.722   2.779  12.590
 2968SOL     OW 9655   0.859   3.236  11.188
 2968SOL    HW1 9656   0.813   3.251  11.276
 2968SOL    HW2 9657   0.903   3.321  11.158
 2969SOL     OW 9658   0.661   3.652  12.125
 2969SOL    HW1 9659   0.615   3.740  12.112
 2969SOL    HW2 9660   0.760   3.664  12.118
 2970SOL     OW 9661   0.859   2.818  12.033
 2970SOL    HW1 9662   0.913   2.749  12.081
 2970SOL    HW2 9663   0.827   2.887  12.099
 2971SOL     OW 9664   1.083   2.846  11.259
 2971SOL    HW1 9665   1.060   2.899  11.177
 2971SOL    HW2 9666   1.164   2.790  11.240
 2972SOL     OW 9667   1.861   3.431  12.023
 2972SOL    HW1 9668   1.790   3.419  11.953
 2972SOL    HW2 9669   1.862   3.352  12.083
 2973SOL     OW 9670   0.221   3.176  13.016
 2973SOL    HW1 9671   0.156   3.103  12.995
 2973SOL    HW2 9672   0.225   3.190  13.114
 2974SOL     OW 9673   0.079   3.102  11.825
 2974SOL    HW1 9674   0.078   3.055  11.913
 2974SOL    HW2 9675   0.161   3.074  11.774
 2975SOL     OW 9676   0.672   3.253  12.796
 2975SOL    HW1 9677   0.594   3.203  12.834
 2975SOL    HW2 9678   0.669   3.348  12.827
 2976SOL     OW 9679   0.428   2.286  11.692
 2976SOL    HW1 9680   0.458   2.214  11.630
 2976SOL    HW2 9681   0.389   2.246  11.775
 2977SOL     OW 9682   1.705   3.349  12.276
 2977SOL    HW1 9683   1.612   3.324  12.249
 2977SOL    HW2 9684   1.731   3.299  12.358
 2978SOL     OW 9685   0.317   2.409  12.452
 2978SOL    HW1 9686   0.355   2.350  12.524
 2978SOL    HW2 9687   0.357   2.383  12.364
 2979SOL     OW 9688   0.812   3.448  11.859
 2979SOL    HW1 9689   0.844   3.458  11.765
 2979SOL    HW2 9690   0.733   3.386  11.861
 2980SOL     OW 9691   1.424   2.076  12.284
 2980SOL    HW1 9692   1.476   2.011  12.339
 2980SOL    HW2 9693   1.375   2.139  12.345
 2981SOL     OW 9694   1.001   1.896  12.326
 2981SOL    HW1 9695   0.938   1.824  12.295
 2981SOL    HW2 9696   1.094   1.860  12.326
 2982SOL     OW 9697   0.770   3.192  11.473
 2982SOL    HW1 9698   0.724   3.105  11.490
 2982SOL    HW2 9699   0.861   3.189  11.514
 2983SOL     OW 9700   0.618   3.429  12.456
 2983SOL    HW1 9701   0.613   3.511  12.513
 2983SOL    HW2 9702   0.707   3.426  12.411
 2984SOL     OW 9703   1.352   1.914  11.340
 2984SOL    HW1 9704   1.387   1.873  11.256
 2984SOL    HW2 9705   1.262   1.876  11.360
 2985SOL     OW 9706   1.300   2.315  11.863
 2985SOL    HW1 9707   1.241   2.395  11.867
 2985SOL    HW2 9708   1.315   2.280  11.956
 2986SOL     OW 9709   1.593   2.083  12.054
 2986SOL    HW1 9710   1.509   2.082  12.108
 2986SOL    HW2 9711   1.595   2.166  11.998
 2987SOL     OW 9712   0.039   2.939  11.472
 2987SOL    HW1 9713   0.138   2.928  11.463
 2987SOL    HW2 9714  -0.001   2.853  11.504
 2988SOL     OW 9715   0.875   3.508  11.509
 2988SOL    HW1 9716   0.798   3.473  11.455
 2988SOL    HW2 9717   0.843   3.579  11.571
 2989SOL     OW 9718   0.230   2.490  13.147
 2989SOL    HW1 9719   0.137   2.488  13.184
 2989SOL    HW2 9720   0.231   2.451  13.055
 2990SOL     OW 9721   0.225   2.137  14.030
 2990SOL    HW1 9722   0.260   2.120  14.122
 2990SOL    HW2 9723   0.137   2.092  14.018
 2991SOL     OW 9724   0.019   2.230  13.681
 2991SOL    HW1 9725  -0.063   2.273  13.720
 2991SOL    HW2 9726  -0.009   2.157  13.618
 2992SOL     OW 9727   1.555   3.373  13.737
 2992SOL    HW1 9728   1.498   3.357  13.818
 2992SOL    HW2 9729   1.496   3.383  13.657
 2993SOL     OW 9730   1.135   2.565  13.751
 2993SOL    HW1 9731   1.192   2.643  13.726
 2993SOL    HW2 9732   1.075   2.591  13.827
 2994SOL     OW 9733   1.755   2.469  13.265
 2994SOL    HW1 9734   1.743   2.456  13.166
 2994SOL    HW2 9735   1.725   2.388  13.314
 2995SOL     OW 9736   0.685   2.874  13.699
 2995SOL    HW1 9737   0.754   2.858  13.769
 2995SOL    HW2 9738   0.612   2.931  13.737
 2996SOL     OW 9739   1.603   2.309  13.771
 2996SOL    HW1 9740   1.529   2.355  13.721
 2996SOL    HW2 9741   1.654   2.377  13.824
 2997SOL     OW 9742   0.231   3.575  13.517
 2997SOL    HW1 9743   0.265   3.652  13.571
 2997SOL    HW2 9744   0.275   3.575  13.427
 2998SOL     OW 9745   0.230   3.296  13.572
 2998SOL    HW1 9746   0.204   3.392  13.572
 2998SOL    HW2 9747   0.159   3.242  13.617
 2999SOL     OW 9748   0.240   2.953  13.920
 2999SOL    HW1 9749   0.254   2.869  13.972
 2999SOL    HW2 9750   0.185   3.017  13.975
 3000SOL     OW 9751   0.606   2.826  13.157
 3000SOL    HW1 9752   0.613   2.910  13.103
 3000SOL    HW2 9753   0.652   2.839  13.245
 3001SOL     OW 9754   0.122   2.505  13.597
 3001SOL    HW1 9755   0.077   2.417  13.614
 3001SOL    HW2 9756   0.121   2.559  13.681
 3002SOL     OW 9757   1.842   3.629  13.393
 3002SOL    HW1 9758   1.896   3.600  13.473
 3002SOL    HW2 9759   1.872   3.719  13.364
 3003SOL     OW 9760   0.027   3.458  13.151
 3003SOL    HW1 9761   0.008   3.362  13.172
 3003SOL    HW2 9762  -0.006   3.516  13.226
 3004SOL     OW 9763   1.689   2.784  13.646
 3004SOL    HW1 9764   1.784   2.755  13.654
 3004SOL    HW2 9765   1.681   2.849  13.571
 3005SOL     OW 9766   1.641   2.970  13.466
 3005SOL    HW1 9767   1.727   2.972  13.414
 3005SOL    HW2 9768   1.655   3.017  13.554
 3006SOL     OW 9769   0.613   3.227  13.760
 3006SOL    HW1 9770   0.564   3.140  13.769
 3006SOL    HW2 9771   0.590   3.270  13.673
 3007SOL     OW 9772   0.809   1.866  13.536
 3007SOL    HW1 9773   0.849   1.957  13.527
 3007SOL    HW2 9774   0.709   1.874  13.542
 3008SOL     OW 9775   1.525   2.861  13.224
 3008SOL    HW1 9776   1.462   2.785  13.237
 3008SOL    HW2 9777   1.573   2.879  13.310
 3009SOL     OW 9778   1.667   3.576  13.606
 3009SOL    HW1 9779   1.626   3.553  13.518
 3009SOL    HW2 9780   1.649   3.502  13.671
 3010SOL     OW 9781   0.598   2.591  13.304
 3010SOL    HW1 9782   0.622   2.660  13.236
 3010SOL    HW2 9783   0.520   2.624  13.358
 3011SOL     OW 9784   1.281   2.207  13.978
 3011SOL    HW1 9785   1.195   2.157  13.965
 3011SOL    HW2 9786   1.343   2.153  14.034
 3012SOL     OW 9787   1.576   3.524  13.341
 3012SOL    HW1 9788   1.665   3.570  13.344
 3012SOL    HW2 9789   1.555   3.500  13.246
 3013SOL     OW 9790   1.041   2.563  13.463
 3013SOL    HW1 9791   1.067   2.559  13.559
 3013SOL    HW2 9792   0.956   2.512  13.449
 3014SOL     OW 9793   0.076   2.673  13.823
 3014SOL    HW1 9794   0.175   2.661  13.832
 3014SOL    HW2 9795   0.052   2.768  13.844
 3015SOL     OW 9796   0.865   2.210  13.229
 3015SOL    HW1 9797   0.924   2.273  13.180
 3015SOL    HW2 9798   0.884   2.116  13.200
 3016SOL     OW 9799   1.362   3.006  13.579
 3016SOL    HW1 9800   1.445   2.977  13.531
 3016SOL    HW2 9801   1.313   3.073  13.523
 3017SOL     OW 9802   1.008   3.318  13.511
 3017SOL    HW1 9803   0.962   3.390  13.459
 3017SOL    HW2 9804   1.004   3.338  13.609
 3018SOL     OW 9805   0.351   3.663  13.887
 3018SOL    HW1 9806   0.401   3.577  13.893
 3018SOL    HW2 9807   0.416   3.740  13.884
 3019SOL     OW 9808   1.795   2.928  13.907
 3019SOL    HW1 9809   1.733   2.913  13.831
 3019SOL    HW2 9810   1.743   2.939  13.992
 3020SOL     OW 9811   0.321   2.805  13.276
 3020SOL    HW1 9812   0.403   2.844  13.234
 3020SOL    HW2 9813   0.294   2.723  13.227
 3021SOL     OW 9814   1.458   2.597  13.762
 3021SOL    HW1 9815   1.453   2.532  13.837
 3021SOL    HW2 9816   1.538   2.656  13.775
 3022SOL     OW 9817   1.111   3.638  13.271
 3022SOL    HW1 9818   1.051   3.576  13.321
 3022SOL    HW2 9819   1.142   3.594  13.186
 3023SOL     OW 9820   1.632   3.239  13.115
 3023SOL    HW1 9821   1.600   3.333  13.105
 3023SOL    HW2 9822   1.556   3.176  13.103
 3024SOL     OW 9823   0.464   3.605  13.357
 3024SOL    HW1 9824   0.497   3.644  13.443
 3024SOL    HW2 9825   0.540   3.598  13.292
 3025SOL     OW 9826   1.400   1.969  13.460
 3025SOL    HW1 9827   1.376   1.932  13.370
 3025SOL    HW2 9828   1.499   1.985  13.464
 3026SOL     OW 9829   0.940   3.560  13.938
 3026SOL    HW1 9830   1.020   3.503  13.959
 3026SOL    HW2 9831   0.891   3.520  13.861
 3027SOL     OW 9832   0.382   2.562  13.514
 3027SOL    HW1 9833   0.427   2.472  13.511
 3027SOL    HW2 9834   0.288   2.551  13.547
 3028SOL     OW 9835   0.614   1.984  13.151
 3028SOL    HW1 9836   0.712   1.962  13.158
 3028SOL    HW2 9837   0.583   1.967  13.058
 3029SOL     OW 9838   0.539   1.926  13.546
 3029SOL    HW1 9839   0.458   1.927  13.604
 3029SOL    HW2 9840   0.542   2.009  13.491
 3030SOL     OW 9841   1.434   3.050  13.075
 3030SOL    HW1 9842   1.466   2.974  13.132
 3030SOL    HW2 9843   1.342   3.077  13.105
 3031SOL     OW 9844   0.297   1.897  13.205
 3031SOL    HW1 9845   0.346   1.981  13.184
 3031SOL    HW2 9846   0.359   1.832  13.250
 3032SOL     OW 9847   0.935   2.098  13.514
 3032SOL    HW1 9848   0.887   2.139  13.436
 3032SOL    HW2 9849   1.034   2.096  13.495
 3033SOL     OW 9850   0.459   3.014  13.775
 3033SOL    HW1 9851   0.388   2.987  13.840
 3033SOL    HW2 9852   0.433   2.986  13.682
 3034SOL     OW 9853   1.271   3.659  13.625
 3034SOL    HW1 9854   1.315   3.723  13.561
 3034SOL    HW2 9855   1.221   3.711  13.695
 3035SOL     OW 9856   1.032   2.411  13.050
 3035SOL    HW1 9857   0.991   2.493  13.011
 3035SOL    HW2 9858   1.096   2.437  13.123
 3036SOL     OW 9859   0.866   2.316  13.676
 3036SOL    HW1 9860   0.834   2.388  13.614
 3036SOL    HW2 9861   0.890   2.235  13.623
 3037SOL     OW 9862   1.017   1.901  13.787
 3037SOL    HW1 9863   0.945   1.906  13.718
 3037SOL    HW2 9864   0.993   1.832  13.856
 3038SOL     OW 9865   1.857   2.695  13.411
 3038SOL    HW1 9866   1.899   2.631  13.475
 3038SOL    HW2 9867   1.819   2.644  13.333
 3039SOL     OW 9868   0.488   3.247  13.208
 3039SOL    HW1 9869   0.401   3.232  13.255
 3039SOL    HW2 9870   0.471   3.273  13.113
 3040SOL     OW 9871   1.664   3.142  13.691
 3040SOL    HW1 9872   1.763   3.150  13.705
 3040SOL    HW2 9873   1.619   3.226  13.722
 3041SOL     OW 9874   1.390   2.437  13.112
 3041SOL    HW1 9875   1.336   2.416  13.193
 3041SOL    HW2 9876   1.481   2.396  13.121
 3042SOL     OW 9877   0.527   2.118  13.362
 3042SOL    HW1 9878   0.554   2.059  13.287
 3042SOL    HW2 9879   0.527   2.213  13.331
 3043SOL     OW 9880   0.705   2.912  13.402
 3043SOL    HW1 9881   0.691   2.919  13.501
 3043SOL    HW2 9882   0.789   2.861  13.384
 3044SOL     OW 9883   0.367   2.962  13.535
 3044SOL    HW1 9884   0.360   3.045  13.479
 3044SOL    HW2 9885   0.371   2.882  13.475
 3045SOL     OW 9886   0.566   2.399  13.899
 3045SOL    HW1 9887   0.578   2.465  13.825
 3045SOL    HW2 9888   0.612   2.433  13.982
 3046SOL     OW 9889   1.252   3.210  13.422
 3046SOL    HW1 9890   1.302   3.287  13.462
 3046SOL    HW2 9891   1.157   3.212  13.454
 3047SOL     OW 9892   1.582   2.501  13.506
 3047SOL    HW1 9893   1.551   2.562  13.579
 3047SOL    HW2 9894   1.632   2.553  13.437
 3048SOL     OW 9895   1.209   2.387  13.309
 3048SOL    HW1 9896   1.222   2.303  13.363
 3048SOL    HW2 9897   1.180   2.461  13.369
 3049SOL     OW 9898   0.307   1.925  13.652
 3049SOL    HW1 9899   0.296   2.019  13.685
 3049SOL    HW2 9900   0.302   1.862  13.729
 3050SOL     OW 9901   1.622   2.229  13.408
 3050SOL    HW1 9902   1.624   2.153  13.472
 3050SOL    HW2 9903   1.574   2.306  13.448
 3051SOL     OW 9904   1.540   2.136  13.159
 3051SOL    HW1 9905   1.479   2.061  13.182
 3051SOL    HW2 9906   1.562   2.188  13.242
 3052SOL     OW 9907   1.303   2.700  13.076
 3052SOL    HW1 9908   1.337   2.607  13.091
 3052SOL    HW2 9909   1.321   2.727  12.981
 3053SOL     OW 9910   0.008   3.188  13.234
 3053SOL    HW1 9911  -0.085   3.209  13.203
 3053SOL    HW2 9912   0.018   3.089  13.247
 3054SOL     OW 9913   0.815   2.434  13.359
 3054SOL    HW1 9914   0.822   2.345  13.313
 3054SOL    HW2 9915   0.721   2.468  13.351
 3055SOL     OW 9916   0.473   2.362  13.225
 3055SOL    HW1 9917   0.534   2.442  13.229
 3055SOL    HW2 9918   0.378   2.393  13.232
 3056SOL     OW 9919   1.302   2.717  13.343
 3056SOL    HW1 9920   1.216   2.686  13.385
 3056SOL    HW2 9921   1.298   2.703  13.244
 3057SOL     OW 9922   1.388   3.435  13.511
 3057SOL    HW1 9923   1.455   3.447  13.437
 3057SOL    HW2 9924   1.348   3.524  13.534
 3058SOL     OW 9925   1.280   2.789  13.706
 3058SOL    HW1 9926   1.340   2.708  13.708
 3058SOL    HW2 9927   1.320   2.858  13.646
 3059SOL     OW 9928   0.672   3.478  13.188
 3059SOL    HW1 9929   0.681   3.488  13.089
 3059SOL    HW2 9930   0.632   3.389  13.209
 3060SOL     OW 9931   0.263   2.188  13.754
 3060SOL    HW1 9932   0.184   2.239  13.720
 3060SOL    HW2 9933   0.254   2.173  13.852
 3061SOL     OW 9934   1.194   3.474  13.065
 3061SOL    HW1 9935   1.200   3.381  13.102
 3061SOL    HW2 9936   1.135   3.474  12.985
 3062SOL     OW 9937   0.916   2.772  13.325
 3062SOL    HW1 9938   0.979   2.810  13.257
 3062SOL    HW2 9939   0.956   2.689  13.364
 3063SOL     OW 9940   1.504   3.469  13.078
 3063SOL    HW1 9941   1.412   3.506  13.085
 3063SOL    HW2 9942   1.542   3.489  12.988
 3064SOL     OW 9943   1.039   2.960  13.730
 3064SOL    HW1 9944   0.969   2.913  13.784
 3064SOL    HW2 9945   1.098   2.892  13.687
 3065SOL     OW 9946   0.590   3.349  13.525
 3065SOL    HW1 9947   0.632   3.291  13.455
 3065SOL    HW2 9948   0.546   3.428  13.481
 3066SOL     OW 9949   0.255   3.210  13.324
 3066SOL    HW1 9950   0.159   3.211  13.297
 3066SOL    HW2 9951   0.267   3.263  13.408
 3067SOL     OW 9952   0.075   2.207  13.067
 3067SOL    HW1 9953  -0.017   2.179  13.038
 3067SOL    HW2 9954   0.106   2.284  13.011
 3068SOL     OW 9955   0.072   2.028  13.352
 3068SOL    HW1 9956   0.055   2.111  13.298
 3068SOL    HW2 9957   0.162   1.991  13.330
 3069SOL     OW 9958   1.183   3.197  13.153
 3069SOL    HW1 9959   1.084   3.186  13.155
 3069SOL    HW2 9960   1.217   3.212  13.246
 3070SOL     OW 9961   1.225   2.187  13.483
 3070SOL    HW1 9962   1.290   2.113  13.472
 3070SOL    HW2 9963   1.245   2.237  13.567
 3071SOL     OW 9964   0.594   2.607  13.686
 3071SOL    HW1 9965   0.644   2.692  13.667
 3071SOL    HW2 9966   0.506   2.609  13.638
 3072SOL     OW 9967   0.859   3.236  13.050
 3072SOL    HW1 9968   0.813   3.251  13.138
 3072SOL    HW2 9969   0.903   3.321  13.020
 3073SOL     OW 9970   0.661   3.652  13.987
 3073SOL    HW1 9971   0.615   3.740  13.974
 3073SOL    HW2 9972   0.760   3.664  13.980
 3074SOL     OW 9973   0.859   2.818  13.895
 3074SOL    HW1 9974   0.913   2.749  13.943
 3074SOL    HW2 9975   0.827   2.887  13.961
 3075SOL     OW 9976   1.083   2.846  13.121
 3075SOL    HW1 9977   1.060   2.899  13.039
 3075SOL    HW2 9978   1.164   2.790  13.102
 3076SOL     OW 9979   0.079   3.102  13.687
 3076SOL    HW1 9980   0.078   3.055  13.775
 3076SOL    HW2 9981   0.161   3.074  13.636
 3077SOL     OW 9982   0.428   2.286  13.554
 3077SOL    HW1 9983   0.458   2.214  13.492
 3077SOL    HW2 9984   0.389   2.246  13.637
 3078SOL     OW 9985   1.705   3.349  14.138
 3078SOL    HW1 9986   1.612   3.324  14.111
 3078SOL    HW2 9987   1.731   3.299  14.220
 3079SOL     OW 9988   0.812   3.448  13.721
 3079SOL    HW1 9989   0.844   3.458  13.627
 3079SOL    HW2 9990   0.733   3.386  13.723
 3080SOL     OW 9991   0.770   3.192  13.335
 3080SOL    HW1 9992   0.724   3.105  13.352
 3080SOL    HW2 9993   0.861   3.189  13.376
 3081SOL     OW 9994   1.352   1.914  13.202
 3081SOL    HW1 9995   1.387   1.873  13.118
 3081SOL    HW2 9996   1.262   1.876  13.222
 3082SOL     OW 9997   1.300   2.315  13.725
 3082SOL    HW1 9998   1.241   2.395  13.729
 3082SOL    HW2 9999   1.315   2.280  13.818
 3083SOL     OW10000   0.039   2.939  13.334
 3083SOL    HW110001   0.138   2.928  13.325
 3083SOL    HW210002  -0.001   2.853  13.366
 3084SOL     OW10003   0.875   3.508  13.371
 3084SOL    HW110004   0.798   3.473  13.317
 3084SOL    HW210005   0.843   3.579  13.433
 3085SOL     OW10006   0.225   3.999   0.996
 3085SOL    HW110007   0.260   3.982   1.088
 3085SOL    HW210008   0.137   3.954   0.984
 3086SOL     OW10009   0.019   4.092   0.647
 3086SOL    HW110010  -0.063   4.135   0.686
 3086SOL    HW210011  -0.009   4.019   0.584
 3087SOL     OW10012   1.755   4.331   0.231
 3087SOL    HW110013   1.743   4.318   0.132
 3087SOL    HW210014   1.725   4.250   0.280
 3088SOL     OW10015   0.438   4.116   1.499
 3088SOL    HW110016   0.520   4.060   1.508
 3088SOL    HW210017   0.357   4.058   1.503
 3089SOL     OW10018   1.594   3.838   1.480
 3089SOL    HW110019   1.576   3.905   1.408
 3089SOL    HW210020   1.591   3.884   1.569
 3090SOL     OW10021   0.809   3.728   0.502
 3090SOL    HW110022   0.849   3.819   0.493
 3090SOL    HW210023   0.709   3.736   0.508
 3091SOL     OW10024   1.281   4.069   0.944
 3091SOL    HW110025   1.195   4.019   0.931
 3091SOL    HW210026   1.343   4.015   1.000
 3092SOL     OW10027   0.550   3.920   0.885
 3092SOL    HW110028   0.545   3.915   0.985
 3092SOL    HW210029   0.552   4.016   0.856
 3093SOL     OW10030   0.202   4.009   1.498
 3093SOL    HW110031   0.122   4.069   1.485
 3093SOL    HW210032   0.192   3.960   1.584
 3094SOL     OW10033   1.400   3.831   0.426
 3094SOL    HW110034   1.376   3.794   0.336
 3094SOL    HW210035   1.499   3.847   0.430
 3095SOL     OW10036   1.547   3.946   1.729
 3095SOL    HW110037   1.542   3.983   1.821
 3095SOL    HW210038   1.475   3.877   1.717
 3096SOL     OW10039   0.781   3.988   1.749
 3096SOL    HW110040   0.848   3.927   1.792
 3096SOL    HW210041   0.708   4.007   1.814
 3097SOL     OW10042   0.539   3.788   0.512
 3097SOL    HW110043   0.458   3.789   0.570
 3097SOL    HW210044   0.542   3.871   0.457
 3098SOL     OW10045   0.297   3.759   0.171
 3098SOL    HW110046   0.346   3.843   0.150
 3098SOL    HW210047   0.359   3.694   0.216
 3099SOL     OW10048   0.561   3.946   1.147
 3099SOL    HW110049   0.599   3.862   1.184
 3099SOL    HW210050   0.473   3.965   1.191
 3100SOL     OW10051   1.017   3.763   0.753
 3100SOL    HW110052   0.945   3.768   0.684
 3100SOL    HW210053   0.993   3.694   0.822
 3101SOL     OW10054   0.915   3.813   1.402
 3101SOL    HW110055   0.940   3.793   1.307
 3101SOL    HW210056   0.987   3.869   1.444
 3102SOL     OW10057   1.274   4.110   1.262
 3102SOL    HW110058   1.295   4.184   1.326
 3102SOL    HW210059   1.185   4.127   1.219
 3103SOL     OW10060   0.504   3.774   1.740
 3103SOL    HW110061   0.462   3.717   1.670
 3103SOL    HW210062   0.438   3.843   1.772
 3104SOL     OW10063   0.307   3.937   1.231
 3104SOL    HW110064   0.284   3.974   1.321
 3104SOL    HW210065   0.277   3.842   1.225
 3105SOL     OW10066   1.540   3.998   0.125
 3105SOL    HW110067   1.479   3.923   0.148
 3105SOL    HW210068   1.562   4.050   0.208
 3106SOL     OW10069   1.160   3.931   1.477
 3106SOL    HW110070   1.160   3.995   1.554
 3106SOL    HW210071   1.188   3.979   1.394
 3107SOL     OW10072   0.903   3.810   0.133
 3107SOL    HW110073   0.954   3.811   0.047
 3107SOL    HW210074   0.959   3.768   0.204
 3108SOL     OW10075   1.726   3.859   0.523
 3108SOL    HW110076   1.799   3.842   0.456
 3108SOL    HW210077   1.695   3.772   0.561
 3109SOL     OW10078   1.841   3.899   0.963
 3109SOL    HW110079   1.880   3.814   0.927
 3109SOL    HW210080   1.743   3.901   0.944
 3110SOL     OW10081   0.672   3.927   1.489
 3110SOL    HW110082   0.762   3.911   1.449
 3110SOL    HW210083   0.680   3.932   1.588
 3111SOL     OW10084   0.075   4.069   0.033
 3111SOL    HW110085  -0.017   4.041   0.004
 3111SOL    HW210086   0.106   4.146  -0.023
 3112SOL     OW10087   0.072   3.890   0.318
 3112SOL    HW110088   0.055   3.973   0.264
 3112SOL    HW210089   0.162   3.853   0.296
 3113SOL     OW10090   1.225   4.049   0.449
 3113SOL    HW110091   1.290   3.975   0.438
 3113SOL    HW210092   1.245   4.099   0.533
 3114SOL     OW10093   1.777   4.066   1.642
 3114SOL    HW110094   1.760   4.097   1.548
 3114SOL    HW210095   1.693   4.029   1.680
 3115SOL     OW10096   1.824   3.916   1.227
 3115SOL    HW110097   1.820   3.826   1.271
 3115SOL    HW210098   1.827   3.905   1.128
 3116SOL     OW10099   1.424   3.938   1.112
 3116SOL    HW110100   1.476   3.873   1.167
 3116SOL    HW210101   1.375   4.001   1.173
 3117SOL     OW10102   1.001   3.758   1.154
 3117SOL    HW110103   0.938   3.686   1.123
 3117SOL    HW210104   1.094   3.722   1.154
 3118SOL     OW10105   1.352   3.776   0.168
 3118SOL    HW110106   1.387   3.735   0.084
 3118SOL    HW210107   1.262   3.738   0.188
 3119SOL     OW10108   1.300   4.177   0.691
 3119SOL    HW110109   1.241   4.257   0.695
 3119SOL    HW210110   1.315   4.142   0.784
 3120SOL     OW10111   1.593   3.945   0.882
 3120SOL    HW110112   1.509   3.944   0.936
 3120SOL    HW210113   1.595   4.028   0.826
 3121SOL     OW10114   0.225   3.999   2.858
 3121SOL    HW110115   0.260   3.982   2.950
 3121SOL    HW210116   0.137   3.954   2.846
 3122SOL     OW10117   0.019   4.092   2.509
 3122SOL    HW110118  -0.063   4.135   2.548
 3122SOL    HW210119  -0.009   4.019   2.446
 3123SOL     OW10120   1.755   4.331   2.093
 3123SOL    HW110121   1.743   4.318   1.994
 3123SOL    HW210122   1.725   4.250   2.142
 3124SOL     OW10123   0.438   4.116   3.361
 3124SOL    HW110124   0.520   4.060   3.370
 3124SOL    HW210125   0.357   4.058   3.365
 3125SOL     OW10126   1.594   3.838   3.342
 3125SOL    HW110127   1.576   3.905   3.270
 3125SOL    HW210128   1.591   3.884   3.431
 3126SOL     OW10129   0.809   3.728   2.364
 3126SOL    HW110130   0.849   3.819   2.355
 3126SOL    HW210131   0.709   3.736   2.370
 3127SOL     OW10132   1.281   4.069   2.806
 3127SOL    HW110133   1.195   4.019   2.793
 3127SOL    HW210134   1.343   4.015   2.862
 3128SOL     OW10135   0.550   3.920   2.747
 3128SOL    HW110136   0.545   3.915   2.847
 3128SOL    HW210137   0.552   4.016   2.718
 3129SOL     OW10138   0.202   4.009   3.360
 3129SOL    HW110139   0.122   4.069   3.347
 3129SOL    HW210140   0.192   3.960   3.446
 3130SOL     OW10141   1.400   3.831   2.288
 3130SOL    HW110142   1.376   3.794   2.198
 3130SOL    HW210143   1.499   3.847   2.292
 3131SOL     OW10144   1.547   3.946   3.591
 3131SOL    HW110145   1.542   3.983   3.683
 3131SOL    HW210146   1.475   3.877   3.579
 3132SOL     OW10147   0.614   3.846   1.979
 3132SOL    HW110148   0.712   3.824   1.986
 3132SOL    HW210149   0.583   3.829   1.886
 3133SOL     OW10150   0.781   3.988   3.611
 3133SOL    HW110151   0.848   3.927   3.654
 3133SOL    HW210152   0.708   4.007   3.676
 3134SOL     OW10153   0.539   3.788   2.374
 3134SOL    HW110154   0.458   3.789   2.432
 3134SOL    HW210155   0.542   3.871   2.319
 3135SOL     OW10156   0.297   3.759   2.033
 3135SOL    HW110157   0.346   3.843   2.012
 3135SOL    HW210158   0.359   3.694   2.078
 3136SOL     OW10159   0.561   3.946   3.009
 3136SOL    HW110160   0.599   3.862   3.046
 3136SOL    HW210161   0.473   3.965   3.053
 3137SOL     OW10162   1.017   3.763   2.615
 3137SOL    HW110163   0.945   3.768   2.546
 3137SOL    HW210164   0.993   3.694   2.684
 3138SOL     OW10165   0.915   3.813   3.264
 3138SOL    HW110166   0.940   3.793   3.169
 3138SOL    HW210167   0.987   3.869   3.306
 3139SOL     OW10168   1.274   4.110   3.124
 3139SOL    HW110169   1.295   4.184   3.188
 3139SOL    HW210170   1.185   4.127   3.081
 3140SOL     OW10171   0.504   3.774   3.602
 3140SOL    HW110172   0.462   3.717   3.532
 3140SOL    HW210173   0.438   3.843   3.634
 3141SOL     OW10174   0.307   3.937   3.093
 3141SOL    HW110175   0.284   3.974   3.183
 3141SOL    HW210176   0.277   3.842   3.087
 3142SOL     OW10177   1.540   3.998   1.987
 3142SOL    HW110178   1.479   3.923   2.010
 3142SOL    HW210179   1.562   4.050   2.070
 3143SOL     OW10180   1.160   3.931   3.339
 3143SOL    HW110181   1.160   3.995   3.416
 3143SOL    HW210182   1.188   3.979   3.256
 3144SOL     OW10183   0.903   3.810   1.995
 3144SOL    HW110184   0.954   3.811   1.909
 3144SOL    HW210185   0.959   3.768   2.066
 3145SOL     OW10186   1.726   3.859   2.385
 3145SOL    HW110187   1.799   3.842   2.318
 3145SOL    HW210188   1.695   3.772   2.423
 3146SOL     OW10189   1.841   3.899   2.825
 3146SOL    HW110190   1.880   3.814   2.789
 3146SOL    HW210191   1.743   3.901   2.806
 3147SOL     OW10192   0.672   3.927   3.351
 3147SOL    HW110193   0.762   3.911   3.311
 3147SOL    HW210194   0.680   3.932   3.450
 3148SOL     OW10195   0.075   4.069   1.895
 3148SOL    HW110196  -0.017   4.041   1.866
 3148SOL    HW210197   0.106   4.146   1.839
 3149SOL     OW10198   0.072   3.890   2.180
 3149SOL    HW110199   0.055   3.973   2.126
 3149SOL    HW210200   0.162   3.853   2.158
 3150SOL     OW10201   1.225   4.049   2.311
 3150SOL    HW110202   1.290   3.975   2.300
 3150SOL    HW210203   1.245   4.099   2.395
 3151SOL     OW10204   1.777   4.066   3.504
 3151SOL    HW110205   1.760   4.097   3.410
 3151SOL    HW210206   1.693   4.029   3.542
 3152SOL     OW10207   1.824   3.916   3.089
 3152SOL    HW110208   1.820   3.826   3.133
 3152SOL    HW210209   1.827   3.905   2.990
 3153SOL     OW10210   1.424   3.938   2.974
 3153SOL    HW110211   1.476   3.873   3.029
 3153SOL    HW210212   1.375   4.001   3.035
 3154SOL     OW10213   1.001   3.758   3.016
 3154SOL    HW110214   0.938   3.686   2.985
 3154SOL    HW210215   1.094   3.722   3.016
 3155SOL     OW10216   1.352   3.776   2.030
 3155SOL    HW110217   1.387   3.735   1.946
 3155SOL    HW210218   1.262   3.738   2.050
 3156SOL     OW10219   1.300   4.177   2.553
 3156SOL    HW110220   1.241   4.257   2.557
 3156SOL    HW210221   1.315   4.142   2.646
 3157SOL     OW10222   1.593   3.945   2.744
 3157SOL    HW110223   1.509   3.944   2.798
 3157SOL    HW210224   1.595   4.028   2.688
 3158SOL     OW10225   0.225   3.999   4.720
 3158SOL    HW110226   0.260   3.982   4.812
 3158SOL    HW210227   0.137   3.954   4.708
 3159SOL     OW10228   0.019   4.092   4.371
 3159SOL    HW110229  -0.063   4.135   4.410
 3159SOL    HW210230  -0.009   4.019   4.308
 3160SOL     OW10231   1.755   4.331   3.955
 3160SOL    HW110232   1.743   4.318   3.856
 3160SOL    HW210233   1.725   4.250   4.004
 3161SOL     OW10234   0.438   4.116   5.223
 3161SOL    HW110235   0.520   4.060   5.232
 3161SOL    HW210236   0.357   4.058   5.227
 3162SOL     OW10237   1.594   3.838   5.204
 3162SOL    HW110238   1.576   3.905   5.132
 3162SOL    HW210239   1.591   3.884   5.293
 3163SOL     OW10240   0.809   3.728   4.226
 3163SOL    HW110241   0.849   3.819   4.217
 3163SOL    HW210242   0.709   3.736   4.232
 3164SOL     OW10243   1.281   4.069   4.668
 3164SOL    HW110244   1.195   4.019   4.655
 3164SOL    HW210245   1.343   4.015   4.724
 3165SOL     OW10246   0.550   3.920   4.609
 3165SOL    HW110247   0.545   3.915   4.709
 3165SOL    HW210248   0.552   4.016   4.580
 3166SOL     OW10249   0.202   4.009   5.222
 3166SOL    HW110250   0.122   4.069   5.209
 3166SOL    HW210251   0.192   3.960   5.308
 3167SOL     OW10252   1.400   3.831   4.150
 3167SOL    HW110253   1.376   3.794   4.060
 3167SOL    HW210254   1.499   3.847   4.154
 3168SOL     OW10255   1.547   3.946   5.453
 3168SOL    HW110256   1.542   3.983   5.545
 3168SOL    HW210257   1.475   3.877   5.441
 3169SOL     OW10258   0.614   3.846   3.841
 3169SOL    HW110259   0.712   3.824   3.848
 3169SOL    HW210260   0.583   3.829   3.748
 3170SOL     OW10261   0.781   3.988   5.473
 3170SOL    HW110262   0.848   3.927   5.516
 3170SOL    HW210263   0.708   4.007   5.538
 3171SOL     OW10264   0.539   3.788   4.236
 3171SOL    HW110265   0.458   3.789   4.294
 3171SOL    HW210266   0.542   3.871   4.181
 3172SOL     OW10267   0.297   3.759   3.895
 3172SOL    HW110268   0.346   3.843   3.874
 3172SOL    HW210269   0.359   3.694   3.940
 3173SOL     OW10270   0.561   3.946   4.871
 3173SOL    HW110271   0.599   3.862   4.908
 3173SOL    HW210272   0.473   3.965   4.915
 3174SOL     OW10273   1.017   3.763   4.477
 3174SOL    HW110274   0.945   3.768   4.408
 3174SOL    HW210275   0.993   3.694   4.546
 3175SOL     OW10276   0.915   3.813   5.126
 3175SOL    HW110277   0.940   3.793   5.031
 3175SOL    HW210278   0.987   3.869   5.168
 3176SOL     OW10279   1.274   4.110   4.986
 3176SOL    HW110280   1.295   4.184   5.050
 3176SOL    HW210281   1.185   4.127   4.943
 3177SOL     OW10282   0.504   3.774   5.464
 3177SOL    HW110283   0.462   3.717   5.394
 3177SOL    HW210284   0.438   3.843   5.496
 3178SOL     OW10285   0.307   3.937   4.955
 3178SOL    HW110286   0.284   3.974   5.045
 3178SOL    HW210287   0.277   3.842   4.949
 3179SOL     OW10288   1.540   3.998   3.849
 3179SOL    HW110289   1.479   3.923   3.872
 3179SOL    HW210290   1.562   4.050   3.932
 3180SOL     OW10291   1.160   3.931   5.201
 3180SOL    HW110292   1.160   3.995   5.278
 3180SOL    HW210293   1.188   3.979   5.118
 3181SOL     OW10294   0.903   3.810   3.857
 3181SOL    HW110295   0.954   3.811   3.771
 3181SOL    HW210296   0.959   3.768   3.928
 3182SOL     OW10297   1.726   3.859   4.247
 3182SOL    HW110298   1.799   3.842   4.180
 3182SOL    HW210299   1.695   3.772   4.285
 3183SOL     OW10300   1.841   3.899   4.687
 3183SOL    HW110301   1.880   3.814   4.651
 3183SOL    HW210302   1.743   3.901   4.668
 3184SOL     OW10303   0.672   3.927   5.213
 3184SOL    HW110304   0.762   3.911   5.173
 3184SOL    HW210305   0.680   3.932   5.312
 3185SOL     OW10306   0.075   4.069   3.757
 3185SOL    HW110307  -0.017   4.041   3.728
 3185SOL    HW210308   0.106   4.146   3.701
 3186SOL     OW10309   0.072   3.890   4.042
 3186SOL    HW110310   0.055   3.973   3.988
 3186SOL    HW210311   0.162   3.853   4.020
 3187SOL     OW10312   1.225   4.049   4.173
 3187SOL    HW110313   1.290   3.975   4.162
 3187SOL    HW210314   1.245   4.099   4.257
 3188SOL     OW10315   1.777   4.066   5.366
 3188SOL    HW110316   1.760   4.097   5.272
 3188SOL    HW210317   1.693   4.029   5.404
 3189SOL     OW10318   1.824   3.916   4.951
 3189SOL    HW110319   1.820   3.826   4.995
 3189SOL    HW210320   1.827   3.905   4.852
 3190SOL     OW10321   1.424   3.938   4.836
 3190SOL    HW110322   1.476   3.873   4.891
 3190SOL    HW210323   1.375   4.001   4.897
 3191SOL     OW10324   1.001   3.758   4.878
 3191SOL    HW110325   0.938   3.686   4.847
 3191SOL    HW210326   1.094   3.722   4.878
 3192SOL     OW10327   1.352   3.776   3.892
 3192SOL    HW110328   1.387   3.735   3.808
 3192SOL    HW210329   1.262   3.738   3.912
 3193SOL     OW10330   1.300   4.177   4.415
 3193SOL    HW110331   1.241   4.257   4.419
 3193SOL    HW210332   1.315   4.142   4.508
 3194SOL     OW10333   1.593   3.945   4.606
 3194SOL    HW110334   1.509   3.944   4.660
 3194SOL    HW210335   1.595   4.028   4.550
 3195SOL     OW10336   0.225   3.999   6.582
 3195SOL    HW110337   0.260   3.982   6.674
 3195SOL    HW210338   0.137   3.954   6.570
 3196SOL     OW10339   0.019   4.092   6.233
 3196SOL    HW110340  -0.063   4.135   6.272
 3196SOL    HW210341  -0.009   4.019   6.170
 3197SOL     OW10342   1.755   4.331   5.817
 3197SOL    HW110343   1.743   4.318   5.718
 3197SOL    HW210344   1.725   4.250   5.866
 3198SOL     OW10345   0.438   4.116   7.085
 3198SOL    HW110346   0.520   4.060   7.094
 3198SOL    HW210347   0.357   4.058   7.089
 3199SOL     OW10348   1.594   3.838   7.066
 3199SOL    HW110349   1.576   3.905   6.994
 3199SOL    HW210350   1.591   3.884   7.155
 3200SOL     OW10351   0.809   3.728   6.088
 3200SOL    HW110352   0.849   3.819   6.079
 3200SOL    HW210353   0.709   3.736   6.094
 3201SOL     OW10354   1.281   4.069   6.530
 3201SOL    HW110355   1.195   4.019   6.517
 3201SOL    HW210356   1.343   4.015   6.586
 3202SOL     OW10357   0.550   3.920   6.471
 3202SOL    HW110358   0.545   3.915   6.571
 3202SOL    HW210359   0.552   4.016   6.442
 3203SOL     OW10360   0.202   4.009   7.084
 3203SOL    HW110361   0.122   4.069   7.071
 3203SOL    HW210362   0.192   3.960   7.170
 3204SOL     OW10363   1.400   3.831   6.012
 3204SOL    HW110364   1.376   3.794   5.922
 3204SOL    HW210365   1.499   3.847   6.016
 3205SOL     OW10366   1.547   3.946   7.315
 3205SOL    HW110367   1.542   3.983   7.407
 3205SOL    HW210368   1.475   3.877   7.303
 3206SOL     OW10369   0.614   3.846   5.703
 3206SOL    HW110370   0.712   3.824   5.710
 3206SOL    HW210371   0.583   3.829   5.610
 3207SOL     OW10372   0.781   3.988   7.335
 3207SOL    HW110373   0.848   3.927   7.378
 3207SOL    HW210374   0.708   4.007   7.400
 3208SOL     OW10375   0.539   3.788   6.098
 3208SOL    HW110376   0.458   3.789   6.156
 3208SOL    HW210377   0.542   3.871   6.043
 3209SOL     OW10378   0.297   3.759   5.757
 3209SOL    HW110379   0.346   3.843   5.736
 3209SOL    HW210380   0.359   3.694   5.802
 3210SOL     OW10381   0.561   3.946   6.733
 3210SOL    HW110382   0.599   3.862   6.770
 3210SOL    HW210383   0.473   3.965   6.777
 3211SOL     OW10384   1.017   3.763   6.339
 3211SOL    HW110385   0.945   3.768   6.270
 3211SOL    HW210386   0.993   3.694   6.408
 3212SOL     OW10387   0.915   3.813   6.988
 3212SOL    HW110388   0.940   3.793   6.893
 3212SOL    HW210389   0.987   3.869   7.030
 3213SOL     OW10390   1.274   4.110   6.848
 3213SOL    HW110391   1.295   4.184   6.912
 3213SOL    HW210392   1.185   4.127   6.805
 3214SOL     OW10393   0.504   3.774   7.326
 3214SOL    HW110394   0.462   3.717   7.256
 3214SOL    HW210395   0.438   3.843   7.358
 3215SOL     OW10396   0.307   3.937   6.817
 3215SOL    HW110397   0.284   3.974   6.907
 3215SOL    HW210398   0.277   3.842   6.811
 3216SOL     OW10399   1.540   3.998   5.711
 3216SOL    HW110400   1.479   3.923   5.734
 3216SOL    HW210401   1.562   4.050   5.794
 3217SOL     OW10402   1.160   3.931   7.063
 3217SOL    HW110403   1.160   3.995   7.140
 3217SOL    HW210404   1.188   3.979   6.980
 3218SOL     OW10405   0.903   3.810   5.719
 3218SOL    HW110406   0.954   3.811   5.633
 3218SOL    HW210407   0.959   3.768   5.790
 3219SOL     OW10408   1.726   3.859   6.109
 3219SOL    HW110409   1.799   3.842   6.042
 3219SOL    HW210410   1.695   3.772   6.147
 3220SOL     OW10411   1.841   3.899   6.549
 3220SOL    HW110412   1.880   3.814   6.513
 3220SOL    HW210413   1.743   3.901   6.530
 3221SOL     OW10414   0.672   3.927   7.075
 3221SOL    HW110415   0.762   3.911   7.035
 3221SOL    HW210416   0.680   3.932   7.174
 3222SOL     OW10417   0.075   4.069   5.619
 3222SOL    HW110418  -0.017   4.041   5.590
 3222SOL    HW210419   0.106   4.146   5.563
 3223SOL     OW10420   0.072   3.890   5.904
 3223SOL    HW110421   0.055   3.973   5.850
 3223SOL    HW210422   0.162   3.853   5.882
 3224SOL     OW10423   1.225   4.049   6.035
 3224SOL    HW110424   1.290   3.975   6.024
 3224SOL    HW210425   1.245   4.099   6.119
 3225SOL     OW10426   1.777   4.066   7.228
 3225SOL    HW110427   1.760   4.097   7.134
 3225SOL    HW210428   1.693   4.029   7.266
 3226SOL     OW10429   1.824   3.916   6.813
 3226SOL    HW110430   1.820   3.826   6.857
 3226SOL    HW210431   1.827   3.905   6.714
 3227SOL     OW10432   1.424   3.938   6.698
 3227SOL    HW110433   1.476   3.873   6.753
 3227SOL    HW210434   1.375   4.001   6.759
 3228SOL     OW10435   1.001   3.758   6.740
 3228SOL    HW110436   0.938   3.686   6.709
 3228SOL    HW210437   1.094   3.722   6.740
 3229SOL     OW10438   1.352   3.776   5.754
 3229SOL    HW110439   1.387   3.735   5.670
 3229SOL    HW210440   1.262   3.738   5.774
 3230SOL     OW10441   1.300   4.177   6.277
 3230SOL    HW110442   1.241   4.257   6.281
 3230SOL    HW210443   1.315   4.142   6.370
 3231SOL     OW10444   1.593   3.945   6.468
 3231SOL    HW110445   1.509   3.944   6.522
 3231SOL    HW210446   1.595   4.028   6.412
 3232SOL     OW10447   0.225   3.999   8.444
 3232SOL    HW110448   0.260   3.982   8.536
 3232SOL    HW210449   0.137   3.954   8.432
 3233SOL     OW10450   0.019   4.092   8.095
 3233SOL    HW110451  -0.063   4.135   8.134
 3233SOL    HW210452  -0.009   4.019   8.032
 3234SOL     OW10453   1.755   4.331   7.679
 3234SOL    HW110454   1.743   4.318   7.580
 3234SOL    HW210455   1.725   4.250   7.728
 3235SOL     OW10456   0.438   4.116   8.947
 3235SOL    HW110457   0.520   4.060   8.956
 3235SOL    HW210458   0.357   4.058   8.951
 3236SOL     OW10459   1.594   3.838   8.928
 3236SOL    HW110460   1.576   3.905   8.856
 3236SOL    HW210461   1.591   3.884   9.017
 3237SOL     OW10462   0.809   3.728   7.950
 3237SOL    HW110463   0.849   3.819   7.941
 3237SOL    HW210464   0.709   3.736   7.956
 3238SOL     OW10465   1.281   4.069   8.392
 3238SOL    HW110466   1.195   4.019   8.379
 3238SOL    HW210467   1.343   4.015   8.448
 3239SOL     OW10468   0.550   3.920   8.333
 3239SOL    HW110469   0.545   3.915   8.433
 3239SOL    HW210470   0.552   4.016   8.304
 3240SOL     OW10471   0.202   4.009   8.946
 3240SOL    HW110472   0.122   4.069   8.933
 3240SOL    HW210473   0.192   3.960   9.032
 3241SOL     OW10474   1.400   3.831   7.874
 3241SOL    HW110475   1.376   3.794   7.784
 3241SOL    HW210476   1.499   3.847   7.878
 3242SOL     OW10477   1.547   3.946   9.177
 3242SOL    HW110478   1.542   3.983   9.269
 3242SOL    HW210479   1.475   3.877   9.165
 3243SOL     OW10480   0.614   3.846   7.565
 3243SOL    HW110481   0.712   3.824   7.572
 3243SOL    HW210482   0.583   3.829   7.472
 3244SOL     OW10483   0.781   3.988   9.197
 3244SOL    HW110484   0.848   3.927   9.240
 3244SOL    HW210485   0.708   4.007   9.262
 3245SOL     OW10486   0.539   3.788   7.960
 3245SOL    HW110487   0.458   3.789   8.018
 3245SOL    HW210488   0.542   3.871   7.905
 3246SOL     OW10489   0.297   3.759   7.619
 3246SOL    HW110490   0.346   3.843   7.598
 3246SOL    HW210491   0.359   3.694   7.664
 3247SOL     OW10492   0.561   3.946   8.595
 3247SOL    HW110493   0.599   3.862   8.632
 3247SOL    HW210494   0.473   3.965   8.639
 3248SOL     OW10495   1.017   3.763   8.201
 3248SOL    HW110496   0.945   3.768   8.132
 3248SOL    HW210497   0.993   3.694   8.270
 3249SOL     OW10498   0.915   3.813   8.850
 3249SOL    HW110499   0.940   3.793   8.755
 3249SOL    HW210500   0.987   3.869   8.892
 3250SOL     OW10501   1.274   4.110   8.710
 3250SOL    HW110502   1.295   4.184   8.774
 3250SOL    HW210503   1.185   4.127   8.667
 3251SOL     OW10504   0.504   3.774   9.188
 3251SOL    HW110505   0.462   3.717   9.118
 3251SOL    HW210506   0.438   3.843   9.220
 3252SOL     OW10507   0.307   3.937   8.679
 3252SOL    HW110508   0.284   3.974   8.769
 3252SOL    HW210509   0.277   3.842   8.673
 3253SOL     OW10510   1.540   3.998   7.573
 3253SOL    HW110511   1.479   3.923   7.596
 3253SOL    HW210512   1.562   4.050   7.656
 3254SOL     OW10513   1.160   3.931   8.925
 3254SOL    HW110514   1.160   3.995   9.002
 3254SOL    HW210515   1.188   3.979   8.842
 3255SOL     OW10516   0.903   3.810   7.581
 3255SOL    HW110517   0.954   3.811   7.495
 3255SOL    HW210518   0.959   3.768   7.652
 3256SOL     OW10519   1.726   3.859   7.971
 3256SOL    HW110520   1.799   3.842   7.904
 3256SOL    HW210521   1.695   3.772   8.009
 3257SOL     OW10522   1.841   3.899   8.411
 3257SOL    HW110523   1.880   3.814   8.375
 3257SOL    HW210524   1.743   3.901   8.392
 3258SOL     OW10525   0.672   3.927   8.937
 3258SOL    HW110526   0.762   3.911   8.897
 3258SOL    HW210527   0.680   3.932   9.036
 3259SOL     OW10528   0.075   4.069   7.481
 3259SOL    HW110529  -0.017   4.041   7.452
 3259SOL    HW210530   0.106   4.146   7.425
 3260SOL     OW10531   0.072   3.890   7.766
 3260SOL    HW110532   0.055   3.973   7.712
 3260SOL    HW210533   0.162   3.853   7.744
 3261SOL     OW10534   1.225   4.049   7.897
 3261SOL    HW110535   1.290   3.975   7.886
 3261SOL    HW210536   1.245   4.099   7.981
 3262SOL     OW10537   1.777   4.066   9.090
 3262SOL    HW110538   1.760   4.097   8.996
 3262SOL    HW210539   1.693   4.029   9.128
 3263SOL     OW10540   1.824   3.916   8.675
 3263SOL    HW110541   1.820   3.826   8.719
 3263SOL    HW210542   1.827   3.905   8.576
 3264SOL     OW10543   1.424   3.938   8.560
 3264SOL    HW110544   1.476   3.873   8.615
 3264SOL    HW210545   1.375   4.001   8.621
 3265SOL     OW10546   1.001   3.758   8.602
 3265SOL    HW110547   0.938   3.686   8.571
 3265SOL    HW210548   1.094   3.722   8.602
 3266SOL     OW10549   1.352   3.776   7.616
 3266SOL    HW110550   1.387   3.735   7.532
 3266SOL    HW210551   1.262   3.738   7.636
 3267SOL     OW10552   1.300   4.177   8.139
 3267SOL    HW110553   1.241   4.257   8.143
 3267SOL    HW210554   1.315   4.142   8.232
 3268SOL     OW10555   1.593   3.945   8.330
 3268SOL    HW110556   1.509   3.944   8.384
 3268SOL    HW210557   1.595   4.028   8.274
 3269SOL     OW10558   0.225   3.999  10.306
 3269SOL    HW110559   0.260   3.982  10.398
 3269SOL    HW210560   0.137   3.954  10.294
 3270SOL     OW10561   0.019   4.092   9.957
 3270SOL    HW110562  -0.063   4.135   9.996
 3270SOL    HW210563  -0.009   4.019   9.894
 3271SOL     OW10564   1.755   4.331   9.541
 3271SOL    HW110565   1.743   4.318   9.442
 3271SOL    HW210566   1.725   4.250   9.590
 3272SOL     OW10567   0.438   4.116  10.809
 3272SOL    HW110568   0.520   4.060  10.818
 3272SOL    HW210569   0.357   4.058  10.813
 3273SOL     OW10570   1.594   3.838  10.790
 3273SOL    HW110571   1.576   3.905  10.718
 3273SOL    HW210572   1.591   3.884  10.879
 3274SOL     OW10573   0.809   3.728   9.812
 3274SOL    HW110574   0.849   3.819   9.803
 3274SOL    HW210575   0.709   3.736   9.818
 3275SOL     OW10576   1.281   4.069  10.254
 3275SOL    HW110577   1.195   4.019  10.241
 3275SOL    HW210578   1.343   4.015  10.310
 3276SOL     OW10579   0.550   3.920  10.195
 3276SOL    HW110580   0.545   3.915  10.295
 3276SOL    HW210581   0.552   4.016  10.166
 3277SOL     OW10582   0.202   4.009  10.808
 3277SOL    HW110583   0.122   4.069  10.795
 3277SOL    HW210584   0.192   3.960  10.894
 3278SOL     OW10585   1.400   3.831   9.736
 3278SOL    HW110586   1.376   3.794   9.646
 3278SOL    HW210587   1.499   3.847   9.740
 3279SOL     OW10588   1.547   3.946  11.039
 3279SOL    HW110589   1.542   3.983  11.131
 3279SOL    HW210590   1.475   3.877  11.027
 3280SOL     OW10591   0.614   3.846   9.427
 3280SOL    HW110592   0.712   3.824   9.434
 3280SOL    HW210593   0.583   3.829   9.334
 3281SOL     OW10594   0.781   3.988  11.059
 3281SOL    HW110595   0.848   3.927  11.102
 3281SOL    HW210596   0.708   4.007  11.124
 3282SOL     OW10597   0.539   3.788   9.822
 3282SOL    HW110598   0.458   3.789   9.880
 3282SOL    HW210599   0.542   3.871   9.767
 3283SOL     OW10600   0.297   3.759   9.481
 3283SOL    HW110601   0.346   3.843   9.460
 3283SOL    HW210602   0.359   3.694   9.526
 3284SOL     OW10603   0.561   3.946  10.457
 3284SOL    HW110604   0.599   3.862  10.494
 3284SOL    HW210605   0.473   3.965  10.501
 3285SOL     OW10606   1.017   3.763  10.063
 3285SOL    HW110607   0.945   3.768   9.994
 3285SOL    HW210608   0.993   3.694  10.132
 3286SOL     OW10609   0.915   3.813  10.712
 3286SOL    HW110610   0.940   3.793  10.617
 3286SOL    HW210611   0.987   3.869  10.754
 3287SOL     OW10612   1.274   4.110  10.572
 3287SOL    HW110613   1.295   4.184  10.636
 3287SOL    HW210614   1.185   4.127  10.529
 3288SOL     OW10615   0.504   3.774  11.050
 3288SOL    HW110616   0.462   3.717  10.980
 3288SOL    HW210617   0.438   3.843  11.082
 3289SOL     OW10618   0.307   3.937  10.541
 3289SOL    HW110619   0.284   3.974  10.631
 3289SOL    HW210620   0.277   3.842  10.535
 3290SOL     OW10621   1.540   3.998   9.435
 3290SOL    HW110622   1.479   3.923   9.458
 3290SOL    HW210623   1.562   4.050   9.518
 3291SOL     OW10624   1.160   3.931  10.787
 3291SOL    HW110625   1.160   3.995  10.864
 3291SOL    HW210626   1.188   3.979  10.704
 3292SOL     OW10627   0.903   3.810   9.443
 3292SOL    HW110628   0.954   3.811   9.357
 3292SOL    HW210629   0.959   3.768   9.514
 3293SOL     OW10630   1.726   3.859   9.833
 3293SOL    HW110631   1.799   3.842   9.766
 3293SOL    HW210632   1.695   3.772   9.871
 3294SOL     OW10633   1.841   3.899  10.273
 3294SOL    HW110634   1.880   3.814  10.237
 3294SOL    HW210635   1.743   3.901  10.254
 3295SOL     OW10636   0.672   3.927  10.799
 3295SOL    HW110637   0.762   3.911  10.759
 3295SOL    HW210638   0.680   3.932  10.898
 3296SOL     OW10639   0.075   4.069   9.343
 3296SOL    HW110640  -0.017   4.041   9.314
 3296SOL    HW210641   0.106   4.146   9.287
 3297SOL     OW10642   0.072   3.890   9.628
 3297SOL    HW110643   0.055   3.973   9.574
 3297SOL    HW210644   0.162   3.853   9.606
 3298SOL     OW10645   1.225   4.049   9.759
 3298SOL    HW110646   1.290   3.975   9.748
 3298SOL    HW210647   1.245   4.099   9.843
 3299SOL     OW10648   1.777   4.066  10.952
 3299SOL    HW110649   1.760   4.097  10.858
 3299SOL    HW210650   1.693   4.029  10.990
 3300SOL     OW10651   1.824   3.916  10.537
 3300SOL    HW110652   1.820   3.826  10.581
 3300SOL    HW210653   1.827   3.905  10.438
 3301SOL     OW10654   1.424   3.938  10.422
 3301SOL    HW110655   1.476   3.873  10.477
 3301SOL    HW210656   1.375   4.001  10.483
 3302SOL     OW10657   1.001   3.758  10.464
 3302SOL    HW110658   0.938   3.686  10.433
 3302SOL    HW210659   1.094   3.722  10.464
 3303SOL     OW10660   1.352   3.776   9.478
 3303SOL    HW110661   1.387   3.735   9.394
 3303SOL    HW210662   1.262   3.738   9.498
 3304SOL     OW10663   1.300   4.177  10.001
 3304SOL    HW110664   1.241   4.257  10.005
 3304SOL    HW210665   1.315   4.142  10.094
 3305SOL     OW10666   1.593   3.945  10.192
 3305SOL    HW110667   1.509   3.944  10.246
 3305SOL    HW210668   1.595   4.028  10.136
 3306SOL     OW10669   0.225   3.999  12.168
 3306SOL    HW110670   0.260   3.982  12.260
 3306SOL    HW210671   0.137   3.954  12.156
 3307SOL     OW10672   0.019   4.092  11.819
 3307SOL    HW110673  -0.063   4.135  11.858
 3307SOL    HW210674  -0.009   4.019  11.756
 3308SOL     OW10675   1.755   4.331  11.403
 3308SOL    HW110676   1.743   4.318  11.304
 3308SOL    HW210677   1.725   4.250  11.452
 3309SOL     OW10678   0.438   4.116  12.671
 3309SOL    HW110679   0.520   4.060  12.680
 3309SOL    HW210680   0.357   4.058  12.675
 3310SOL     OW10681   1.594   3.838  12.652
 3310SOL    HW110682   1.576   3.905  12.580
 3310SOL    HW210683   1.591   3.884  12.741
 3311SOL     OW10684   0.809   3.728  11.674
 3311SOL    HW110685   0.849   3.819  11.665
 3311SOL    HW210686   0.709   3.736  11.680
 3312SOL     OW10687   1.281   4.069  12.116
 3312SOL    HW110688   1.195   4.019  12.103
 3312SOL    HW210689   1.343   4.015  12.172
 3313SOL     OW10690   0.550   3.920  12.057
 3313SOL    HW110691   0.545   3.915  12.157
 3313SOL    HW210692   0.552   4.016  12.028
 3314SOL     OW10693   0.202   4.009  12.670
 3314SOL    HW110694   0.122   4.069  12.657
 3314SOL    HW210695   0.192   3.960  12.756
 3315SOL     OW10696   1.400   3.831  11.598
 3315SOL    HW110697   1.376   3.794  11.508
 3315SOL    HW210698   1.499   3.847  11.602
 3316SOL     OW10699   1.547   3.946  12.901
 3316SOL    HW110700   1.542   3.983  12.993
 3316SOL    HW210701   1.475   3.877  12.889
 3317SOL     OW10702   0.614   3.846  11.289
 3317SOL    HW110703   0.712   3.824  11.296
 3317SOL    HW210704   0.583   3.829  11.196
 3318SOL     OW10705   0.781   3.988  12.921
 3318SOL    HW110706   0.848   3.927  12.964
 3318SOL    HW210707   0.708   4.007  12.986
 3319SOL     OW10708   0.539   3.788  11.684
 3319SOL    HW110709   0.458   3.789  11.742
 3319SOL    HW210710   0.542   3.871  11.629
 3320SOL     OW10711   0.297   3.759  11.343
 3320SOL    HW110712   0.346   3.843  11.322
 3320SOL    HW210713   0.359   3.694  11.388
 3321SOL     OW10714   0.561   3.946  12.319
 3321SOL    HW110715   0.599   3.862  12.356
 3321SOL    HW210716   0.473   3.965  12.363
 3322SOL     OW10717   1.017   3.763  11.925
 3322SOL    HW110718   0.945   3.768  11.856
 3322SOL    HW210719   0.993   3.694  11.994
 3323SOL     OW10720   0.915   3.813  12.574
 3323SOL    HW110721   0.940   3.793  12.479
 3323SOL    HW210722   0.987   3.869  12.616
 3324SOL     OW10723   1.274   4.110  12.434
 3324SOL    HW110724   1.295   4.184  12.498
 3324SOL    HW210725   1.185   4.127  12.391
 3325SOL     OW10726   0.504   3.774  12.912
 3325SOL    HW110727   0.462   3.717  12.842
 3325SOL    HW210728   0.438   3.843  12.944
 3326SOL     OW10729   0.307   3.937  12.403
 3326SOL    HW110730   0.284   3.974  12.493
 3326SOL    HW210731   0.277   3.842  12.397
 3327SOL     OW10732   1.540   3.998  11.297
 3327SOL    HW110733   1.479   3.923  11.320
 3327SOL    HW210734   1.562   4.050  11.380
 3328SOL     OW10735   1.160   3.931  12.649
 3328SOL    HW110736   1.160   3.995  12.726
 3328SOL    HW210737   1.188   3.979  12.566
 3329SOL     OW10738   0.903   3.810  11.305
 3329SOL    HW110739   0.954   3.811  11.219
 3329SOL    HW210740   0.959   3.768  11.376
 3330SOL     OW10741   1.726   3.859  11.695
 3330SOL    HW110742   1.799   3.842  11.628
 3330SOL    HW210743   1.695   3.772  11.733
 3331SOL     OW10744   1.841   3.899  12.135
 3331SOL    HW110745   1.880   3.814  12.099
 3331SOL    HW210746   1.743   3.901  12.116
 3332SOL     OW10747   0.672   3.927  12.661
 3332SOL    HW110748   0.762   3.911  12.621
 3332SOL    HW210749   0.680   3.932  12.760
 3333SOL     OW10750   0.075   4.069  11.205
 3333SOL    HW110751  -0.017   4.041  11.176
 3333SOL    HW210752   0.106   4.146  11.149
 3334SOL     OW10753   0.072   3.890  11.490
 3334SOL    HW110754   0.055   3.973  11.436
 3334SOL    HW210755   0.162   3.853  11.468
 3335SOL     OW10756   1.225   4.049  11.621
 3335SOL    HW110757   1.290   3.975  11.610
 3335SOL    HW210758   1.245   4.099  11.705
 3336SOL     OW10759   1.777   4.066  12.814
 3336SOL    HW110760   1.760   4.097  12.720
 3336SOL    HW210761   1.693   4.029  12.852
 3337SOL     OW10762   1.824   3.916  12.399
 3337SOL    HW110763   1.820   3.826  12.443
 3337SOL    HW210764   1.827   3.905  12.300
 3338SOL     OW10765   1.424   3.938  12.284
 3338SOL    HW110766   1.476   3.873  12.339
 3338SOL    HW210767   1.375   4.001  12.345
 3339SOL     OW10768   1.001   3.758  12.326
 3339SOL    HW110769   0.938   3.686  12.295
 3339SOL    HW210770   1.094   3.722  12.326
 3340SOL     OW10771   1.352   3.776  11.340
 3340SOL    HW110772   1.387   3.735  11.256
 3340SOL    HW210773   1.262   3.738  11.360
 3341SOL     OW10774   1.300   4.177  11.863
 3341SOL    HW110775   1.241   4.257  11.867
 3341SOL    HW210776   1.315   4.142  11.956
 3342SOL     OW10777   1.593   3.945  12.054
 3342SOL    HW110778   1.509   3.944  12.108
 3342SOL    HW210779   1.595   4.028  11.998
 3343SOL     OW10780   0.019   4.092  13.681
 3343SOL    HW110781  -0.063   4.135  13.720
 3343SOL    HW210782  -0.009   4.019  13.618
 3344SOL     OW10783   1.755   4.331  13.265
 3344SOL    HW110784   1.743   4.318  13.166
 3344SOL    HW210785   1.725   4.250  13.314
 3345SOL     OW10786   1.603   4.171  13.771
 3345SOL    HW110787   1.529   4.217  13.721
 3345SOL    HW210788   1.654   4.239  13.824
 3346SOL     OW10789   0.809   3.728  13.536
 3346SOL    HW110790   0.849   3.819  13.527
 3346SOL    HW210791   0.709   3.736  13.542
 3347SOL     OW10792   1.400   3.831  13.460
 3347SOL    HW110793   1.376   3.794  13.370
 3347SOL    HW210794   1.499   3.847  13.464
 3348SOL     OW10795   0.614   3.846  13.151
 3348SOL    HW110796   0.712   3.824  13.158
 3348SOL    HW210797   0.583   3.829  13.058
 3349SOL     OW10798   0.539   3.788  13.546
 3349SOL    HW110799   0.458   3.789  13.604
 3349SOL    HW210800   0.542   3.871  13.491
 3350SOL     OW10801   0.297   3.759  13.205
 3350SOL    HW110802   0.346   3.843  13.184
 3350SOL    HW210803   0.359   3.694  13.250
 3351SOL     OW10804   1.017   3.763  13.787
 3351SOL    HW110805   0.945   3.768  13.718
 3351SOL    HW210806   0.993   3.694  13.856
 3352SOL     OW10807   1.540   3.998  13.159
 3352SOL    HW110808   1.479   3.923  13.182
 3352SOL    HW210809   1.562   4.050  13.242
 3353SOL     OW10810   0.903   3.810  13.167
 3353SOL    HW110811   0.954   3.811  13.081
 3353SOL    HW210812   0.959   3.768  13.238
 3354SOL     OW10813   1.726   3.859  13.557
 3354SOL    HW110814   1.799   3.842  13.490
 3354SOL    HW210815   1.695   3.772  13.595
 3355SOL     OW10816   1.841   3.899  13.997
 3355SOL    HW110817   1.880   3.814  13.961
 3355SOL    HW210818   1.743   3.901  13.978
 3356SOL     OW10819   0.075   4.069  13.067
 3356SOL    HW110820  -0.017   4.041  13.038
 3356SOL    HW210821   0.106   4.146  13.011
 3357SOL     OW10822   0.072   3.890  13.352
 3357SOL    HW110823   0.055   3.973  13.298
 3357SOL    HW210824   0.162   3.853  13.330
 3358SOL     OW10825   1.225   4.049  13.483
 3358SOL    HW110826   1.290   3.975  13.472
 3358SOL    HW210827   1.245   4.099  13.567
 3359SOL     OW10828   1.352   3.776  13.202
 3359SOL    HW110829   1.387   3.735  13.118
 3359SOL    HW210830   1.262   3.738  13.222
 3360SOL     OW10831   1.300   4.177  13.725
 3360SOL    HW110832   1.241   4.257  13.729
 3360SOL    HW210833   1.315   4.142  13.818
 3361SOL     OW10834   2.092   0.628   0.113
 3361SOL    HW110835   1.999   0.626   0.150
 3361SOL    HW210836   2.093   0.589   0.021
 3362SOL     OW10837   2.087   0.275   0.996
 3362SOL    HW110838   2.122   0.258   1.088
 3362SOL    HW210839   1.999   0.230   0.984
 3363SOL     OW10840   1.881   0.368   0.647
 3363SOL    HW110841   1.799   0.411   0.686
 3363SOL    HW210842   1.853   0.295   0.584
 3364SOL     OW10843   2.431   1.275   1.165
 3364SOL    HW110844   2.338   1.268   1.128
 3364SOL    HW210845   2.442   1.364   1.209
 3365SOL     OW10846   3.417   1.511   0.703
 3365SOL    HW110847   3.360   1.495   0.784
 3365SOL    HW210848   3.358   1.521   0.623
 3366SOL     OW10849   2.997   0.703   0.717
 3366SOL    HW110850   3.054   0.781   0.692
 3366SOL    HW210851   2.937   0.729   0.793
 3367SOL     OW10852   3.617   0.607   0.231
 3367SOL    HW110853   3.605   0.594   0.132
 3367SOL    HW210854   3.587   0.526   0.280
 3368SOL     OW10855   2.630   1.144   1.023
 3368SOL    HW110856   2.552   1.161   1.083
 3368SOL    HW210857   2.664   1.231   0.987
 3369SOL     OW10858   2.712   0.798   1.823
 3369SOL    HW110859   2.708   0.874   1.888
 3369SOL    HW210860   2.734   0.834   1.732
 3370SOL     OW10861   2.547   1.012   0.665
 3370SOL    HW110862   2.616   0.996   0.735
 3370SOL    HW210863   2.474   1.069   0.703
 3371SOL     OW10864   2.548   1.161   1.803
 3371SOL    HW110865   2.608   1.240   1.817
 3371SOL    HW210866   2.462   1.192   1.762
 3372SOL     OW10867   2.197   1.435   1.061
 3372SOL    HW110868   2.119   1.404   1.008
 3372SOL    HW210869   2.255   1.493   1.004
 3373SOL     OW10870   3.322   1.505   1.339
 3373SOL    HW110871   3.346   1.599   1.365
 3373SOL    HW210872   3.306   1.451   1.421
 3374SOL     OW10873   2.300   0.392   1.499
 3374SOL    HW110874   2.382   0.336   1.508
 3374SOL    HW210875   2.219   0.334   1.503
 3375SOL     OW10876   3.465   0.447   0.737
 3375SOL    HW110877   3.391   0.493   0.687
 3375SOL    HW210878   3.516   0.515   0.790
 3376SOL     OW10879   2.093   1.713   0.483
 3376SOL    HW110880   2.127   1.790   0.537
 3376SOL    HW210881   2.137   1.713   0.393
 3377SOL     OW10882   2.989   1.341   1.690
 3377SOL    HW110883   3.036   1.341   1.778
 3377SOL    HW210884   2.941   1.254   1.679
 3378SOL     OW10885   2.092   1.434   0.538
 3378SOL    HW110886   2.066   1.530   0.538
 3378SOL    HW210887   2.021   1.380   0.583
 3379SOL     OW10888   2.102   1.091   0.886
 3379SOL    HW110889   2.116   1.007   0.938
 3379SOL    HW210890   2.047   1.155   0.941
 3380SOL     OW10891   2.482   1.786   1.439
 3380SOL    HW110892   2.390   1.769   1.474
 3380SOL    HW210893   2.510   1.878   1.465
 3381SOL     OW10894   2.468   0.964   0.123
 3381SOL    HW110895   2.475   1.048   0.069
 3381SOL    HW210896   2.514   0.977   0.211
 3382SOL     OW10897   3.456   0.114   1.480
 3382SOL    HW110898   3.438   0.181   1.408
 3382SOL    HW210899   3.453   0.160   1.569
 3383SOL     OW10900   1.984   0.643   0.563
 3383SOL    HW110901   1.939   0.555   0.580
 3383SOL    HW210902   1.983   0.697   0.647
 3384SOL     OW10903   3.704   1.767   0.359
 3384SOL    HW110904   3.758   1.738   0.439
 3384SOL    HW210905   3.734   1.857   0.330
 3385SOL     OW10906   1.889   1.596   0.117
 3385SOL    HW110907   1.870   1.500   0.138
 3385SOL    HW210908   1.856   1.654   0.192
 3386SOL     OW10909   3.551   0.922   0.612
 3386SOL    HW110910   3.646   0.893   0.620
 3386SOL    HW210911   3.543   0.987   0.537
 3387SOL     OW10912   3.503   1.108   0.432
 3387SOL    HW110913   3.589   1.110   0.380
 3387SOL    HW210914   3.517   1.155   0.520
 3388SOL     OW10915   1.975   0.737   1.597
 3388SOL    HW110916   2.063   0.724   1.642
 3388SOL    HW210917   1.962   0.834   1.575
 3389SOL     OW10918   2.475   1.365   0.726
 3389SOL    HW110919   2.426   1.278   0.735
 3389SOL    HW210920   2.452   1.408   0.639
 3390SOL     OW10921   3.155   1.228   1.423
 3390SOL    HW110922   3.192   1.155   1.365
 3390SOL    HW210923   3.207   1.233   1.508
 3391SOL     OW10924   2.671   0.004   0.502
 3391SOL    HW110925   2.711   0.095   0.493
 3391SOL    HW210926   2.571   0.012   0.508
 3392SOL     OW10927   2.059   0.976   1.264
 3392SOL    HW110928   2.148   0.931   1.250
 3392SOL    HW210929   1.986   0.911   1.245
 3393SOL     OW10930   3.387   0.999   0.190
 3393SOL    HW110931   3.324   0.923   0.203
 3393SOL    HW210932   3.435   1.017   0.276
 3394SOL     OW10933   3.049   1.792   1.616
 3394SOL    HW110934   3.073   1.852   1.540
 3394SOL    HW210935   3.056   1.697   1.586
 3395SOL     OW10936   2.179   0.251   1.801
 3395SOL    HW110937   2.250   0.322   1.807
 3395SOL    HW210938   2.091   0.290   1.829
 3396SOL     OW10939   3.328   1.417   0.953
 3396SOL    HW110940   3.269   1.423   1.033
 3396SOL    HW210941   3.313   1.329   0.907
 3397SOL     OW10942   3.529   1.714   0.572
 3397SOL    HW110943   3.488   1.691   0.484
 3397SOL    HW210944   3.511   1.640   0.637
 3398SOL     OW10945   2.460   0.729   0.270
 3398SOL    HW110946   2.484   0.798   0.202
 3398SOL    HW210947   2.382   0.762   0.324
 3399SOL     OW10948   3.143   0.345   0.944
 3399SOL    HW110949   3.057   0.295   0.931
 3399SOL    HW210950   3.205   0.291   1.000
 3400SOL     OW10951   3.438   1.662   0.307
 3400SOL    HW110952   3.527   1.708   0.310
 3400SOL    HW210953   3.417   1.638   0.212
 3401SOL     OW10954   2.669   0.605   1.465
 3401SOL    HW110955   2.622   0.602   1.554
 3401SOL    HW210956   2.618   0.550   1.399
 3402SOL     OW10957   3.256   0.469   1.674
 3402SOL    HW110958   3.236   0.512   1.762
 3402SOL    HW210959   3.334   0.407   1.683
 3403SOL     OW10960   2.835   0.890   1.572
 3403SOL    HW110961   2.881   0.806   1.543
 3403SOL    HW210962   2.779   0.924   1.497
 3404SOL     OW10963   2.853   0.410   1.242
 3404SOL    HW110964   2.776   0.444   1.296
 3404SOL    HW210965   2.819   0.359   1.163
 3405SOL     OW10966   2.903   0.701   0.429
 3405SOL    HW110967   2.929   0.697   0.525
 3405SOL    HW210968   2.818   0.650   0.415
 3406SOL     OW10969   1.938   0.811   0.789
 3406SOL    HW110970   2.037   0.799   0.798
 3406SOL    HW210971   1.914   0.906   0.810
 3407SOL     OW10972   2.727   0.348   0.195
 3407SOL    HW110973   2.786   0.411   0.146
 3407SOL    HW210974   2.746   0.254   0.166
 3408SOL     OW10975   3.581   0.585   1.831
 3408SOL    HW110976   3.555   0.674   1.795
 3408SOL    HW210977   3.579   0.517   1.758
 3409SOL     OW10978   3.224   1.144   0.545
 3409SOL    HW110979   3.307   1.115   0.497
 3409SOL    HW210980   3.175   1.211   0.489
 3410SOL     OW10981   2.412   0.196   0.885
 3410SOL    HW110982   2.407   0.191   0.985
 3410SOL    HW210983   2.414   0.292   0.856
 3411SOL     OW10984   2.870   1.456   0.477
 3411SOL    HW110985   2.824   1.528   0.425
 3411SOL    HW210986   2.866   1.476   0.575
 3412SOL     OW10987   2.213   1.801   0.853
 3412SOL    HW110988   2.263   1.715   0.859
 3412SOL    HW210989   2.278   1.878   0.850
 3413SOL     OW10990   3.657   1.066   0.873
 3413SOL    HW110991   3.595   1.051   0.797
 3413SOL    HW210992   3.605   1.077   0.958
 3414SOL     OW10993   3.089   1.550   1.506
 3414SOL    HW110994   3.095   1.473   1.570
 3414SOL    HW210995   3.037   1.524   1.426
 3415SOL     OW10996   2.183   0.943   0.242
 3415SOL    HW110997   2.265   0.982   0.200
 3415SOL    HW210998   2.156   0.861   0.193
 3416SOL     OW10999   3.320   0.735   0.728
 3416SOL    HW111000   3.315   0.670   0.803
 3416SOL    HW211001   3.400   0.794   0.741
 3417SOL     OW11002   2.323   1.266   1.727
 3417SOL    HW111003   2.273   1.267   1.641
 3417SOL    HW211004   2.260   1.248   1.803
 3418SOL     OW11005   2.973   1.776   0.237
 3418SOL    HW111006   2.913   1.714   0.287
 3418SOL    HW211007   3.004   1.732   0.152
 3419SOL     OW11008   2.064   0.285   1.498
 3419SOL    HW111009   1.984   0.345   1.485
 3419SOL    HW211010   2.054   0.236   1.584
 3420SOL     OW11011   3.494   1.377   0.081
 3420SOL    HW111012   3.462   1.471   0.071
 3420SOL    HW211013   3.418   1.314   0.069
 3421SOL     OW11014   2.326   1.743   0.323
 3421SOL    HW111015   2.359   1.782   0.409
 3421SOL    HW211016   2.402   1.736   0.258
 3422SOL     OW11017   3.262   0.107   0.426
 3422SOL    HW111018   3.238   0.070   0.336
 3422SOL    HW211019   3.361   0.123   0.430
 3423SOL     OW11020   2.111   1.785   1.241
 3423SOL    HW111021   2.168   1.720   1.291
 3423SOL    HW211022   2.095   1.752   1.148
 3424SOL     OW11023   2.802   1.698   0.904
 3424SOL    HW111024   2.882   1.641   0.925
 3424SOL    HW211025   2.753   1.658   0.827
 3425SOL     OW11026   2.244   0.700   0.480
 3425SOL    HW111027   2.289   0.610   0.477
 3425SOL    HW211028   2.150   0.689   0.513
 3426SOL     OW11029   3.409   0.222   1.729
 3426SOL    HW111030   3.404   0.259   1.821
 3426SOL    HW211031   3.337   0.153   1.717
 3427SOL     OW11032   2.476   0.122   0.117
 3427SOL    HW111033   2.574   0.100   0.124
 3427SOL    HW211034   2.445   0.105   0.024
 3428SOL     OW11035   2.643   0.264   1.749
 3428SOL    HW111036   2.710   0.203   1.792
 3428SOL    HW211037   2.570   0.283   1.814
 3429SOL     OW11038   2.750   1.514   1.195
 3429SOL    HW111039   2.727   1.489   1.101
 3429SOL    HW211040   2.811   1.445   1.234
 3430SOL     OW11041   3.213   0.590   1.433
 3430SOL    HW111042   3.241   0.547   1.518
 3430SOL    HW211043   3.238   0.686   1.434
 3431SOL     OW11044   2.665   1.402   0.924
 3431SOL    HW111045   2.755   1.416   0.882
 3431SOL    HW211046   2.594   1.404   0.853
 3432SOL     OW11047   2.784   0.503   0.899
 3432SOL    HW111048   2.759   0.494   0.803
 3432SOL    HW211049   2.832   0.421   0.930
 3433SOL     OW11050   2.401   0.064   0.512
 3433SOL    HW111051   2.320   0.065   0.570
 3433SOL    HW211052   2.404   0.147   0.457
 3434SOL     OW11053   3.296   1.188   0.041
 3434SOL    HW111054   3.328   1.112   0.098
 3434SOL    HW211055   3.204   1.215   0.071
 3435SOL     OW11056   2.159   0.035   0.171
 3435SOL    HW111057   2.208   0.119   0.150
 3435SOL    HW211058   2.221  -0.030   0.216
 3436SOL     OW11059   2.797   0.236   0.480
 3436SOL    HW111060   2.749   0.277   0.402
 3436SOL    HW211061   2.896   0.234   0.461
 3437SOL     OW11062   2.938   0.683   1.464
 3437SOL    HW111063   2.858   0.622   1.467
 3437SOL    HW211064   3.019   0.630   1.440
 3438SOL     OW11065   3.089   1.570   0.793
 3438SOL    HW111066   3.110   1.644   0.728
 3438SOL    HW211067   3.157   1.570   0.866
 3439SOL     OW11068   2.321   1.152   0.741
 3439SOL    HW111069   2.250   1.125   0.806
 3439SOL    HW211070   2.295   1.124   0.648
 3440SOL     OW11071   3.133   1.797   0.591
 3440SOL    HW111072   3.177   1.861   0.527
 3440SOL    HW211073   3.083   1.849   0.661
 3441SOL     OW11074   2.894   0.549   0.016
 3441SOL    HW111075   2.853   0.631  -0.023
 3441SOL    HW211076   2.958   0.575   0.089
 3442SOL     OW11077   1.940   0.556   1.386
 3442SOL    HW111078   2.032   0.555   1.345
 3442SOL    HW211079   1.934   0.630   1.453
 3443SOL     OW11080   2.423   0.222   1.147
 3443SOL    HW111081   2.461   0.138   1.184
 3443SOL    HW211082   2.335   0.241   1.191
 3444SOL     OW11083   2.728   0.454   0.642
 3444SOL    HW111084   2.696   0.526   0.580
 3444SOL    HW211085   2.752   0.373   0.589
 3445SOL     OW11086   2.879   0.039   0.753
 3445SOL    HW111087   2.807   0.044   0.684
 3445SOL    HW211088   2.855  -0.030   0.822
 3446SOL     OW11089   3.291   1.173   0.867
 3446SOL    HW111090   3.236   1.089   0.860
 3446SOL    HW211091   3.317   1.202   0.775
 3447SOL     OW11092   3.328   0.590   0.992
 3447SOL    HW111093   3.298   0.495   0.999
 3447SOL    HW211094   3.401   0.606   1.058
 3448SOL     OW11095   3.719   0.833   0.377
 3448SOL    HW111096   3.761   0.769   0.441
 3448SOL    HW211097   3.681   0.782   0.299
 3449SOL     OW11098   2.350   1.385   0.174
 3449SOL    HW111099   2.263   1.370   0.221
 3449SOL    HW211100   2.333   1.411   0.079
 3450SOL     OW11101   3.526   1.280   0.657
 3450SOL    HW111102   3.625   1.288   0.671
 3450SOL    HW211103   3.481   1.364   0.688
 3451SOL     OW11104   3.252   0.575   0.078
 3451SOL    HW111105   3.198   0.554   0.159
 3451SOL    HW211106   3.343   0.534   0.087
 3452SOL     OW11107   2.389   0.256   0.328
 3452SOL    HW111108   2.416   0.197   0.253
 3452SOL    HW211109   2.389   0.351   0.297
 3453SOL     OW11110   3.616   1.223   1.588
 3453SOL    HW111111   3.707   1.184   1.575
 3453SOL    HW211112   3.624   1.319   1.612
 3454SOL     OW11113   2.926   1.347   1.340
 3454SOL    HW111114   2.846   1.324   1.395
 3454SOL    HW211115   3.009   1.321   1.389
 3455SOL     OW11116   3.454   1.629   1.625
 3455SOL    HW111117   3.481   1.663   1.535
 3455SOL    HW211118   3.533   1.591   1.671
 3456SOL     OW11119   2.973   1.195   1.100
 3456SOL    HW111120   2.933   1.239   1.181
 3456SOL    HW211121   2.932   1.232   1.017
 3457SOL     OW11122   3.500   1.099   1.079
 3457SOL    HW111123   3.505   1.180   1.138
 3457SOL    HW211124   3.414   1.101   1.028
 3458SOL     OW11125   2.777   0.089   1.402
 3458SOL    HW111126   2.802   0.069   1.307
 3458SOL    HW211127   2.849   0.145   1.444
 3459SOL     OW11128   2.842   1.116   1.719
 3459SOL    HW111129   2.743   1.122   1.729
 3459SOL    HW211130   2.865   1.036   1.663
 3460SOL     OW11131   2.567   1.050   0.368
 3460SOL    HW111132   2.553   1.057   0.467
 3460SOL    HW211133   2.651   0.999   0.350
 3461SOL     OW11134   2.272   0.813   1.251
 3461SOL    HW111135   2.358   0.825   1.301
 3461SOL    HW211136   2.230   0.726   1.278
 3462SOL     OW11137   3.136   0.386   1.262
 3462SOL    HW111138   3.157   0.460   1.326
 3462SOL    HW211139   3.047   0.403   1.219
 3463SOL     OW11140   2.229   1.100   0.501
 3463SOL    HW111141   2.222   1.183   0.445
 3463SOL    HW211142   2.233   1.020   0.441
 3464SOL     OW11143   2.428   0.537   0.865
 3464SOL    HW111144   2.440   0.603   0.791
 3464SOL    HW211145   2.474   0.571   0.948
 3465SOL     OW11146   3.114   1.348   0.388
 3465SOL    HW111147   3.164   1.425   0.428
 3465SOL    HW211148   3.019   1.350   0.420
 3466SOL     OW11149   3.134   1.445   1.142
 3466SOL    HW111150   3.181   1.458   1.229
 3466SOL    HW211151   3.068   1.371   1.151
 3467SOL     OW11152   3.444   0.639   0.472
 3467SOL    HW111153   3.413   0.700   0.545
 3467SOL    HW211154   3.494   0.691   0.403
 3468SOL     OW11155   2.216   1.510   1.329
 3468SOL    HW111156   2.195   1.466   1.242
 3468SOL    HW211157   2.313   1.536   1.332
 3469SOL     OW11158   2.264   0.751   1.598
 3469SOL    HW111159   2.332   0.806   1.551
 3469SOL    HW211160   2.304   0.663   1.625
 3470SOL     OW11161   3.449   0.779   1.670
 3470SOL    HW111162   3.357   0.817   1.665
 3470SOL    HW211163   3.509   0.826   1.605
 3471SOL     OW11164   2.875   0.105   1.770
 3471SOL    HW111165   2.881   0.190   1.718
 3471SOL    HW211166   2.907   0.029   1.713
 3472SOL     OW11167   2.366   0.050   1.740
 3472SOL    HW111168   2.324  -0.007   1.670
 3472SOL    HW211169   2.300   0.119   1.772
 3473SOL     OW11170   2.435   0.870   1.029
 3473SOL    HW111171   2.479   0.959   1.020
 3473SOL    HW211172   2.372   0.870   1.106
 3474SOL     OW11173   3.222   0.862   1.045
 3474SOL    HW111174   3.147   0.862   0.979
 3474SOL    HW211175   3.259   0.770   1.054
 3475SOL     OW11176   3.071   0.525   0.275
 3475SOL    HW111177   3.084   0.441   0.329
 3475SOL    HW211178   3.042   0.599   0.335
 3476SOL     OW11179   2.169   0.213   1.231
 3476SOL    HW111180   2.146   0.250   1.321
 3476SOL    HW211181   2.139   0.118   1.225
 3477SOL     OW11182   1.899   1.310   1.282
 3477SOL    HW111183   1.952   1.261   1.350
 3477SOL    HW211184   1.921   1.408   1.287
 3478SOL     OW11185   2.594   0.634   1.064
 3478SOL    HW111186   2.653   0.608   0.988
 3478SOL    HW211187   2.566   0.730   1.053
 3479SOL     OW11188   3.590   0.935   1.854
 3479SOL    HW111189   3.544   0.928   1.765
 3479SOL    HW211190   3.528   0.979   1.920
 3480SOL     OW11191   2.169   0.063   0.618
 3480SOL    HW111192   2.158   0.157   0.651
 3480SOL    HW211193   2.164   0.000   0.695
 3481SOL     OW11194   3.484   0.367   0.374
 3481SOL    HW111195   3.486   0.291   0.438
 3481SOL    HW211196   3.436   0.444   0.414
 3482SOL     OW11197   2.885   0.766   0.966
 3482SOL    HW111198   2.900   0.787   1.062
 3482SOL    HW211199   2.855   0.671   0.957
 3483SOL     OW11200   2.842   1.573   1.700
 3483SOL    HW111201   2.822   1.617   1.612
 3483SOL    HW211202   2.881   1.482   1.684
 3484SOL     OW11203   3.721   1.518   1.605
 3484SOL    HW111204   3.735   1.545   1.510
 3484SOL    HW211205   3.804   1.540   1.658
 3485SOL     OW11206   2.212   0.898   1.804
 3485SOL    HW111207   2.288   0.942   1.852
 3485SOL    HW211208   2.247   0.851   1.722
 3486SOL     OW11209   3.402   0.274   0.125
 3486SOL    HW111210   3.341   0.199   0.148
 3486SOL    HW211211   3.424   0.326   0.208
 3487SOL     OW11212   3.165   0.838   0.042
 3487SOL    HW111213   3.199   0.745   0.057
 3487SOL    HW211214   3.183   0.865  -0.053
 3488SOL     OW11215   2.930   1.333   0.849
 3488SOL    HW111216   2.937   1.249   0.794
 3488SOL    HW211217   2.992   1.402   0.813
 3489SOL     OW11218   2.181   0.810   0.949
 3489SOL    HW111219   2.274   0.846   0.954
 3489SOL    HW211220   2.175   0.725   1.001
 3490SOL     OW11221   2.201   0.509   1.006
 3490SOL    HW111222   2.149   0.426   0.989
 3490SOL    HW211223   2.278   0.514   0.942
 3491SOL     OW11224   3.000   0.380   1.678
 3491SOL    HW111225   2.955   0.443   1.742
 3491SOL    HW211226   3.093   0.411   1.661
 3492SOL     OW11227   3.022   0.207   1.477
 3492SOL    HW111228   3.022   0.271   1.554
 3492SOL    HW211229   3.050   0.255   1.394
 3493SOL     OW11230   1.870   1.326   0.200
 3493SOL    HW111231   1.777   1.347   0.169
 3493SOL    HW211232   1.880   1.227   0.213
 3494SOL     OW11233   2.366   1.568   0.910
 3494SOL    HW111234   2.432   1.642   0.919
 3494SOL    HW211235   2.410   1.489   0.868
 3495SOL     OW11236   2.864   0.796   1.238
 3495SOL    HW111237   2.905   0.764   1.324
 3495SOL    HW211238   2.768   0.769   1.235
 3496SOL     OW11239   1.902   0.544   1.114
 3496SOL    HW111240   1.987   0.511   1.073
 3496SOL    HW211241   1.915   0.559   1.212
 3497SOL     OW11242   2.051   0.520   1.722
 3497SOL    HW111243   2.110   0.480   1.652
 3497SOL    HW211244   1.993   0.591   1.681
 3498SOL     OW11245   3.231   0.950   1.660
 3498SOL    HW111246   3.270   1.039   1.680
 3498SOL    HW211247   3.241   0.930   1.563
 3499SOL     OW11248   2.677   0.572   0.325
 3499SOL    HW111249   2.684   0.483   0.279
 3499SOL    HW211250   2.583   0.606   0.317
 3500SOL     OW11251   3.519   0.604   1.206
 3500SOL    HW111252   3.481   0.535   1.268
 3500SOL    HW211253   3.601   0.568   1.162
 3501SOL     OW11254   2.114   1.564   1.744
 3501SOL    HW111255   2.084   1.621   1.820
 3501SOL    HW211256   2.107   1.467   1.770
 3502SOL     OW11257   2.533   0.464   1.269
 3502SOL    HW111258   2.499   0.375   1.239
 3502SOL    HW211259   2.559   0.518   1.189
 3503SOL     OW11260   2.792   1.678   1.465
 3503SOL    HW111261   2.768   1.660   1.370
 3503SOL    HW211262   2.822   1.772   1.475
 3504SOL     OW11263   2.335   0.500   0.191
 3504SOL    HW111264   2.396   0.580   0.195
 3504SOL    HW211265   2.240   0.531   0.198
 3505SOL     OW11266   2.021   1.137   1.466
 3505SOL    HW111267   2.043   1.076   1.542
 3505SOL    HW211268   2.031   1.088   1.380
 3506SOL     OW11269   3.209   1.059   1.234
 3506SOL    HW111270   3.233   0.996   1.160
 3506SOL    HW211271   3.119   1.099   1.216
 3507SOL     OW11272   3.164   0.855   0.309
 3507SOL    HW111273   3.078   0.824   0.351
 3507SOL    HW211274   3.160   0.841   0.210
 3508SOL     OW11275   3.621   1.747   1.154
 3508SOL    HW111276   3.682   1.777   1.081
 3508SOL    HW211277   3.583   1.658   1.132
 3509SOL     OW11278   3.114   1.731   1.128
 3509SOL    HW111279   3.198   1.736   1.074
 3509SOL    HW211280   3.091   1.635   1.146
 3510SOL     OW11281   1.945   1.258   1.022
 3510SOL    HW111282   1.940   1.257   1.122
 3510SOL    HW211283   1.862   1.217   0.984
 3511SOL     OW11284   2.550   1.662   1.716
 3511SOL    HW111285   2.494   1.743   1.725
 3511SOL    HW211286   2.602   1.666   1.630
 3512SOL     OW11287   2.765   0.086   0.133
 3512SOL    HW111288   2.816   0.087   0.047
 3512SOL    HW211289   2.821   0.044   0.204
 3513SOL     OW11290   3.588   0.135   0.523
 3513SOL    HW111291   3.661   0.118   0.456
 3513SOL    HW211292   3.557   0.048   0.561
 3514SOL     OW11293   3.250   1.573   0.477
 3514SOL    HW111294   3.317   1.585   0.403
 3514SOL    HW211295   3.210   1.662   0.500
 3515SOL     OW11296   3.142   0.927   0.672
 3515SOL    HW111297   3.202   0.846   0.674
 3515SOL    HW211298   3.182   0.996   0.612
 3516SOL     OW11299   2.692   1.273   1.422
 3516SOL    HW111300   2.687   1.306   1.517
 3516SOL    HW211301   2.606   1.292   1.376
 3517SOL     OW11302   2.534   1.616   0.154
 3517SOL    HW111303   2.543   1.626   0.055
 3517SOL    HW211304   2.494   1.527   0.175
 3518SOL     OW11305   3.512   1.720   1.394
 3518SOL    HW111306   3.565   1.730   1.310
 3518SOL    HW211307   3.485   1.810   1.428
 3519SOL     OW11308   3.703   0.175   0.963
 3519SOL    HW111309   3.742   0.090   0.927
 3519SOL    HW211310   3.605   0.177   0.944
 3520SOL     OW11311   2.125   0.326   0.720
 3520SOL    HW111312   2.046   0.377   0.686
 3520SOL    HW211313   2.116   0.311   0.818
 3521SOL     OW11314   3.056   1.612   0.031
 3521SOL    HW111315   3.062   1.519   0.068
 3521SOL    HW211316   2.997   1.612  -0.049
 3522SOL     OW11317   2.684   1.002   1.372
 3522SOL    HW111318   2.724   1.001   1.280
 3522SOL    HW211319   2.694   1.094   1.412
 3523SOL     OW11320   2.778   0.910   0.291
 3523SOL    HW111321   2.841   0.948   0.223
 3523SOL    HW211322   2.818   0.827   0.330
 3524SOL     OW11323   3.366   1.607   0.044
 3524SOL    HW111324   3.274   1.644   0.051
 3524SOL    HW211325   3.404   1.627  -0.046
 3525SOL     OW11326   2.234   1.288   1.490
 3525SOL    HW111327   2.221   1.381   1.456
 3525SOL    HW211328   2.150   1.236   1.477
 3526SOL     OW11329   3.476   1.292   1.289
 3526SOL    HW111330   3.536   1.295   1.369
 3526SOL    HW211331   3.401   1.356   1.302
 3527SOL     OW11332   2.901   1.098   0.696
 3527SOL    HW111333   2.831   1.051   0.750
 3527SOL    HW211334   2.960   1.030   0.653
 3528SOL     OW11335   2.876   0.236   0.971
 3528SOL    HW111336   2.868   0.200   0.878
 3528SOL    HW211337   2.874   0.160   1.036
 3529SOL     OW11338   2.452   1.487   0.491
 3529SOL    HW111339   2.494   1.429   0.421
 3529SOL    HW211340   2.408   1.566   0.447
 3530SOL     OW11341   3.571   0.385   1.381
 3530SOL    HW111342   3.644   0.454   1.385
 3530SOL    HW211343   3.599   0.310   1.322
 3531SOL     OW11344   2.117   1.348   0.290
 3531SOL    HW111345   2.021   1.349   0.263
 3531SOL    HW211346   2.129   1.401   0.374
 3532SOL     OW11347   1.967   1.013   1.726
 3532SOL    HW111348   1.890   0.980   1.780
 3532SOL    HW211349   2.052   0.983   1.768
 3533SOL     OW11350   2.534   0.203   1.489
 3533SOL    HW111351   2.624   0.187   1.449
 3533SOL    HW211352   2.542   0.208   1.588
 3534SOL     OW11353   1.937   0.345   0.033
 3534SOL    HW111354   1.845   0.317   0.004
 3534SOL    HW211355   1.968   0.422  -0.023
 3535SOL     OW11356   3.302   0.856   1.398
 3535SOL    HW111357   3.245   0.908   1.335
 3535SOL    HW211358   3.398   0.868   1.374
 3536SOL     OW11359   1.934   0.166   0.318
 3536SOL    HW111360   1.917   0.249   0.264
 3536SOL    HW211361   2.024   0.129   0.296
 3537SOL     OW11362   3.045   1.335   0.119
 3537SOL    HW111363   2.946   1.324   0.121
 3537SOL    HW211364   3.079   1.350   0.212
 3538SOL     OW11365   2.475   0.842   1.431
 3538SOL    HW111366   2.531   0.923   1.414
 3538SOL    HW211367   2.534   0.762   1.434
 3539SOL     OW11368   3.355   1.767   0.959
 3539SOL    HW111369   3.388   1.831   0.890
 3539SOL    HW211370   3.421   1.761   1.034
 3540SOL     OW11371   2.578   0.565   1.708
 3540SOL    HW111372   2.597   0.630   1.782
 3540SOL    HW211373   2.638   0.485   1.717
 3541SOL     OW11374   3.312   1.220   1.633
 3541SOL    HW111375   3.303   1.210   1.732
 3541SOL    HW211376   3.408   1.213   1.607
 3542SOL     OW11377   2.252   1.741   1.560
 3542SOL    HW111378   2.161   1.782   1.558
 3542SOL    HW211379   2.245   1.647   1.592
 3543SOL     OW11380   3.536   0.883   1.254
 3543SOL    HW111381   3.509   0.794   1.217
 3543SOL    HW211382   3.537   0.951   1.181
 3544SOL     OW11383   3.087   0.325   0.449
 3544SOL    HW111384   3.152   0.251   0.438
 3544SOL    HW211385   3.107   0.375   0.533
 3545SOL     OW11386   2.456   0.745   0.652
 3545SOL    HW111387   2.506   0.830   0.633
 3545SOL    HW211388   2.368   0.747   0.604
 3546SOL     OW11389   3.639   0.342   1.642
 3546SOL    HW111390   3.622   0.373   1.548
 3546SOL    HW211391   3.555   0.305   1.680
 3547SOL     OW11392   3.592   0.934   1.517
 3547SOL    HW111393   3.630   1.025   1.532
 3547SOL    HW211394   3.584   0.917   1.418
 3548SOL     OW11395   2.721   1.374   0.016
 3548SOL    HW111396   2.675   1.389   0.104
 3548SOL    HW211397   2.765   1.459  -0.014
 3549SOL     OW11398   2.523   1.790   0.953
 3549SOL    HW111399   2.477   1.878   0.940
 3549SOL    HW211400   2.622   1.802   0.946
 3550SOL     OW11401   2.721   0.956   0.861
 3550SOL    HW111402   2.775   0.887   0.909
 3550SOL    HW211403   2.689   1.025   0.927
 3551SOL     OW11404   2.945   0.984   0.087
 3551SOL    HW111405   2.922   1.037   0.005
 3551SOL    HW211406   3.026   0.928   0.068
 3552SOL     OW11407   3.723   1.569   0.851
 3552SOL    HW111408   3.652   1.557   0.781
 3552SOL    HW211409   3.724   1.490   0.911
 3553SOL     OW11410   2.083   1.314   1.844
 3553SOL    HW111411   2.018   1.241   1.823
 3553SOL    HW211412   2.087   1.328   1.942
 3554SOL     OW11413   1.941   1.240   0.653
 3554SOL    HW111414   1.940   1.193   0.741
 3554SOL    HW211415   2.023   1.212   0.602
 3555SOL     OW11416   2.534   1.391   1.624
 3555SOL    HW111417   2.456   1.341   1.662
 3555SOL    HW211418   2.531   1.486   1.655
 3556SOL     OW11419   3.686   0.192   1.227
 3556SOL    HW111420   3.682   0.102   1.271
 3556SOL    HW211421   3.689   0.181   1.128
 3557SOL     OW11422   2.290   0.424   0.520
 3557SOL    HW111423   2.320   0.352   0.458
 3557SOL    HW211424   2.251   0.384   0.603
 3558SOL     OW11425   3.567   1.487   1.104
 3558SOL    HW111426   3.474   1.462   1.077
 3558SOL    HW211427   3.593   1.437   1.186
 3559SOL     OW11428   2.179   0.547   1.280
 3559SOL    HW111429   2.217   0.488   1.352
 3559SOL    HW211430   2.219   0.521   1.192
 3560SOL     OW11431   2.674   1.586   0.687
 3560SOL    HW111432   2.706   1.596   0.593
 3560SOL    HW211433   2.595   1.524   0.689
 3561SOL     OW11434   3.286   0.214   1.112
 3561SOL    HW111435   3.338   0.149   1.167
 3561SOL    HW211436   3.237   0.277   1.173
 3562SOL     OW11437   2.863   0.034   1.154
 3562SOL    HW111438   2.800  -0.038   1.123
 3562SOL    HW211439   2.956  -0.002   1.154
 3563SOL     OW11440   2.632   1.330   0.301
 3563SOL    HW111441   2.586   1.243   0.318
 3563SOL    HW211442   2.723   1.327   0.342
 3564SOL     OW11443   2.480   1.567   1.284
 3564SOL    HW111444   2.475   1.649   1.341
 3564SOL    HW211445   2.569   1.564   1.239
 3565SOL     OW11446   3.214   0.052   0.168
 3565SOL    HW111447   3.249   0.011   0.084
 3565SOL    HW211448   3.124   0.014   0.188
 3566SOL     OW11449   3.162   0.453   0.691
 3566SOL    HW111450   3.103   0.533   0.695
 3566SOL    HW211451   3.177   0.418   0.784
 3567SOL     OW11452   3.455   0.221   0.882
 3567SOL    HW111453   3.371   0.220   0.936
 3567SOL    HW211454   3.457   0.304   0.826
 3568SOL     OW11455   1.901   1.077   0.300
 3568SOL    HW111456   2.000   1.066   0.291
 3568SOL    HW211457   1.861   0.991   0.332
 3569SOL     OW11458   2.737   1.646   0.337
 3569SOL    HW111459   2.660   1.611   0.283
 3569SOL    HW211460   2.705   1.717   0.399
 3570SOL     OW11461   2.092   0.628   1.975
 3570SOL    HW111462   1.999   0.626   2.012
 3570SOL    HW211463   2.093   0.589   1.883
 3571SOL     OW11464   2.087   0.275   2.858
 3571SOL    HW111465   2.122   0.258   2.950
 3571SOL    HW211466   1.999   0.230   2.846
 3572SOL     OW11467   1.881   0.368   2.509
 3572SOL    HW111468   1.799   0.411   2.548
 3572SOL    HW211469   1.853   0.295   2.446
 3573SOL     OW11470   2.431   1.275   3.027
 3573SOL    HW111471   2.338   1.268   2.990
 3573SOL    HW211472   2.442   1.364   3.071
 3574SOL     OW11473   3.417   1.511   2.565
 3574SOL    HW111474   3.360   1.495   2.646
 3574SOL    HW211475   3.358   1.521   2.485
 3575SOL     OW11476   2.997   0.703   2.579
 3575SOL    HW111477   3.054   0.781   2.554
 3575SOL    HW211478   2.937   0.729   2.655
 3576SOL     OW11479   3.617   0.607   2.093
 3576SOL    HW111480   3.605   0.594   1.994
 3576SOL    HW211481   3.587   0.526   2.142
 3577SOL     OW11482   2.630   1.144   2.885
 3577SOL    HW111483   2.552   1.161   2.945
 3577SOL    HW211484   2.664   1.231   2.849
 3578SOL     OW11485   2.712   0.798   3.685
 3578SOL    HW111486   2.708   0.874   3.750
 3578SOL    HW211487   2.734   0.834   3.594
 3579SOL     OW11488   2.547   1.012   2.527
 3579SOL    HW111489   2.616   0.996   2.597
 3579SOL    HW211490   2.474   1.069   2.565
 3580SOL     OW11491   2.548   1.161   3.665
 3580SOL    HW111492   2.608   1.240   3.679
 3580SOL    HW211493   2.462   1.192   3.624
 3581SOL     OW11494   2.197   1.435   2.923
 3581SOL    HW111495   2.119   1.404   2.870
 3581SOL    HW211496   2.255   1.493   2.866
 3582SOL     OW11497   3.322   1.505   3.201
 3582SOL    HW111498   3.346   1.599   3.227
 3582SOL    HW211499   3.306   1.451   3.283
 3583SOL     OW11500   2.300   0.392   3.361
 3583SOL    HW111501   2.382   0.336   3.370
 3583SOL    HW211502   2.219   0.334   3.365
 3584SOL     OW11503   3.465   0.447   2.599
 3584SOL    HW111504   3.391   0.493   2.549
 3584SOL    HW211505   3.516   0.515   2.652
 3585SOL     OW11506   2.093   1.713   2.345
 3585SOL    HW111507   2.127   1.790   2.399
 3585SOL    HW211508   2.137   1.713   2.255
 3586SOL     OW11509   2.989   1.341   3.552
 3586SOL    HW111510   3.036   1.341   3.640
 3586SOL    HW211511   2.941   1.254   3.541
 3587SOL     OW11512   2.092   1.434   2.400
 3587SOL    HW111513   2.066   1.530   2.400
 3587SOL    HW211514   2.021   1.380   2.445
 3588SOL     OW11515   2.102   1.091   2.748
 3588SOL    HW111516   2.116   1.007   2.800
 3588SOL    HW211517   2.047   1.155   2.803
 3589SOL     OW11518   2.482   1.786   3.301
 3589SOL    HW111519   2.390   1.769   3.336
 3589SOL    HW211520   2.510   1.878   3.327
 3590SOL     OW11521   2.468   0.964   1.985
 3590SOL    HW111522   2.475   1.048   1.931
 3590SOL    HW211523   2.514   0.977   2.073
 3591SOL     OW11524   3.456   0.114   3.342
 3591SOL    HW111525   3.438   0.181   3.270
 3591SOL    HW211526   3.453   0.160   3.431
 3592SOL     OW11527   1.984   0.643   2.425
 3592SOL    HW111528   1.939   0.555   2.442
 3592SOL    HW211529   1.983   0.697   2.509
 3593SOL     OW11530   3.704   1.767   2.221
 3593SOL    HW111531   3.758   1.738   2.301
 3593SOL    HW211532   3.734   1.857   2.192
 3594SOL     OW11533   1.889   1.596   1.979
 3594SOL    HW111534   1.870   1.500   2.000
 3594SOL    HW211535   1.856   1.654   2.054
 3595SOL     OW11536   3.551   0.922   2.474
 3595SOL    HW111537   3.646   0.893   2.482
 3595SOL    HW211538   3.543   0.987   2.399
 3596SOL     OW11539   3.503   1.108   2.294
 3596SOL    HW111540   3.589   1.110   2.242
 3596SOL    HW211541   3.517   1.155   2.382
 3597SOL     OW11542   1.975   0.737   3.459
 3597SOL    HW111543   2.063   0.724   3.504
 3597SOL    HW211544   1.962   0.834   3.437
 3598SOL     OW11545   2.475   1.365   2.588
 3598SOL    HW111546   2.426   1.278   2.597
 3598SOL    HW211547   2.452   1.408   2.501
 3599SOL     OW11548   3.155   1.228   3.285
 3599SOL    HW111549   3.192   1.155   3.227
 3599SOL    HW211550   3.207   1.233   3.370
 3600SOL     OW11551   2.671   0.004   2.364
 3600SOL    HW111552   2.711   0.095   2.355
 3600SOL    HW211553   2.571   0.012   2.370
 3601SOL     OW11554   2.059   0.976   3.126
 3601SOL    HW111555   2.148   0.931   3.112
 3601SOL    HW211556   1.986   0.911   3.107
 3602SOL     OW11557   3.387   0.999   2.052
 3602SOL    HW111558   3.324   0.923   2.065
 3602SOL    HW211559   3.435   1.017   2.138
 3603SOL     OW11560   3.049   1.792   3.478
 3603SOL    HW111561   3.073   1.852   3.402
 3603SOL    HW211562   3.056   1.697   3.448
 3604SOL     OW11563   2.179   0.251   3.663
 3604SOL    HW111564   2.250   0.322   3.669
 3604SOL    HW211565   2.091   0.290   3.691
 3605SOL     OW11566   3.328   1.417   2.815
 3605SOL    HW111567   3.269   1.423   2.895
 3605SOL    HW211568   3.313   1.329   2.769
 3606SOL     OW11569   3.529   1.714   2.434
 3606SOL    HW111570   3.488   1.691   2.346
 3606SOL    HW211571   3.511   1.640   2.499
 3607SOL     OW11572   2.460   0.729   2.132
 3607SOL    HW111573   2.484   0.798   2.064
 3607SOL    HW211574   2.382   0.762   2.186
 3608SOL     OW11575   3.143   0.345   2.806
 3608SOL    HW111576   3.057   0.295   2.793
 3608SOL    HW211577   3.205   0.291   2.862
 3609SOL     OW11578   3.438   1.662   2.169
 3609SOL    HW111579   3.527   1.708   2.172
 3609SOL    HW211580   3.417   1.638   2.074
 3610SOL     OW11581   2.669   0.605   3.327
 3610SOL    HW111582   2.622   0.602   3.416
 3610SOL    HW211583   2.618   0.550   3.261
 3611SOL     OW11584   3.256   0.469   3.536
 3611SOL    HW111585   3.236   0.512   3.624
 3611SOL    HW211586   3.334   0.407   3.545
 3612SOL     OW11587   2.835   0.890   3.434
 3612SOL    HW111588   2.881   0.806   3.405
 3612SOL    HW211589   2.779   0.924   3.359
 3613SOL     OW11590   2.853   0.410   3.104
 3613SOL    HW111591   2.776   0.444   3.158
 3613SOL    HW211592   2.819   0.359   3.025
 3614SOL     OW11593   2.903   0.701   2.291
 3614SOL    HW111594   2.929   0.697   2.387
 3614SOL    HW211595   2.818   0.650   2.277
 3615SOL     OW11596   1.938   0.811   2.651
 3615SOL    HW111597   2.037   0.799   2.660
 3615SOL    HW211598   1.914   0.906   2.672
 3616SOL     OW11599   2.727   0.348   2.057
 3616SOL    HW111600   2.786   0.411   2.008
 3616SOL    HW211601   2.746   0.254   2.028
 3617SOL     OW11602   3.581   0.585   3.693
 3617SOL    HW111603   3.555   0.674   3.657
 3617SOL    HW211604   3.579   0.517   3.620
 3618SOL     OW11605   3.224   1.144   2.407
 3618SOL    HW111606   3.307   1.115   2.359
 3618SOL    HW211607   3.175   1.211   2.351
 3619SOL     OW11608   2.412   0.196   2.747
 3619SOL    HW111609   2.407   0.191   2.847
 3619SOL    HW211610   2.414   0.292   2.718
 3620SOL     OW11611   2.870   1.456   2.339
 3620SOL    HW111612   2.824   1.528   2.287
 3620SOL    HW211613   2.866   1.476   2.437
 3621SOL     OW11614   2.213   1.801   2.715
 3621SOL    HW111615   2.263   1.715   2.721
 3621SOL    HW211616   2.278   1.878   2.712
 3622SOL     OW11617   3.657   1.066   2.735
 3622SOL    HW111618   3.595   1.051   2.659
 3622SOL    HW211619   3.605   1.077   2.820
 3623SOL     OW11620   3.089   1.550   3.368
 3623SOL    HW111621   3.095   1.473   3.432
 3623SOL    HW211622   3.037   1.524   3.288
 3624SOL     OW11623   2.183   0.943   2.104
 3624SOL    HW111624   2.265   0.982   2.062
 3624SOL    HW211625   2.156   0.861   2.055
 3625SOL     OW11626   3.320   0.735   2.590
 3625SOL    HW111627   3.315   0.670   2.665
 3625SOL    HW211628   3.400   0.794   2.603
 3626SOL     OW11629   2.323   1.266   3.589
 3626SOL    HW111630   2.273   1.267   3.503
 3626SOL    HW211631   2.260   1.248   3.665
 3627SOL     OW11632   2.973   1.776   2.099
 3627SOL    HW111633   2.913   1.714   2.149
 3627SOL    HW211634   3.004   1.732   2.014
 3628SOL     OW11635   2.064   0.285   3.360
 3628SOL    HW111636   1.984   0.345   3.347
 3628SOL    HW211637   2.054   0.236   3.446
 3629SOL     OW11638   3.494   1.377   1.943
 3629SOL    HW111639   3.462   1.471   1.933
 3629SOL    HW211640   3.418   1.314   1.931
 3630SOL     OW11641   2.326   1.743   2.185
 3630SOL    HW111642   2.359   1.782   2.271
 3630SOL    HW211643   2.402   1.736   2.120
 3631SOL     OW11644   3.262   0.107   2.288
 3631SOL    HW111645   3.238   0.070   2.198
 3631SOL    HW211646   3.361   0.123   2.292
 3632SOL     OW11647   2.111   1.785   3.103
 3632SOL    HW111648   2.168   1.720   3.153
 3632SOL    HW211649   2.095   1.752   3.010
 3633SOL     OW11650   2.802   1.698   2.766
 3633SOL    HW111651   2.882   1.641   2.787
 3633SOL    HW211652   2.753   1.658   2.689
 3634SOL     OW11653   2.244   0.700   2.342
 3634SOL    HW111654   2.289   0.610   2.339
 3634SOL    HW211655   2.150   0.689   2.375
 3635SOL     OW11656   3.409   0.222   3.591
 3635SOL    HW111657   3.404   0.259   3.683
 3635SOL    HW211658   3.337   0.153   3.579
 3636SOL     OW11659   2.476   0.122   1.979
 3636SOL    HW111660   2.574   0.100   1.986
 3636SOL    HW211661   2.445   0.105   1.886
 3637SOL     OW11662   2.643   0.264   3.611
 3637SOL    HW111663   2.710   0.203   3.654
 3637SOL    HW211664   2.570   0.283   3.676
 3638SOL     OW11665   2.750   1.514   3.057
 3638SOL    HW111666   2.727   1.489   2.963
 3638SOL    HW211667   2.811   1.445   3.096
 3639SOL     OW11668   3.213   0.590   3.295
 3639SOL    HW111669   3.241   0.547   3.380
 3639SOL    HW211670   3.238   0.686   3.296
 3640SOL     OW11671   2.665   1.402   2.786
 3640SOL    HW111672   2.755   1.416   2.744
 3640SOL    HW211673   2.594   1.404   2.715
 3641SOL     OW11674   2.784   0.503   2.761
 3641SOL    HW111675   2.759   0.494   2.665
 3641SOL    HW211676   2.832   0.421   2.792
 3642SOL     OW11677   2.401   0.064   2.374
 3642SOL    HW111678   2.320   0.065   2.432
 3642SOL    HW211679   2.404   0.147   2.319
 3643SOL     OW11680   3.296   1.188   1.903
 3643SOL    HW111681   3.328   1.112   1.960
 3643SOL    HW211682   3.204   1.215   1.933
 3644SOL     OW11683   2.159   0.035   2.033
 3644SOL    HW111684   2.208   0.119   2.012
 3644SOL    HW211685   2.221  -0.030   2.078
 3645SOL     OW11686   2.797   0.236   2.342
 3645SOL    HW111687   2.749   0.277   2.264
 3645SOL    HW211688   2.896   0.234   2.323
 3646SOL     OW11689   2.938   0.683   3.326
 3646SOL    HW111690   2.858   0.622   3.329
 3646SOL    HW211691   3.019   0.630   3.302
 3647SOL     OW11692   3.089   1.570   2.655
 3647SOL    HW111693   3.110   1.644   2.590
 3647SOL    HW211694   3.157   1.570   2.728
 3648SOL     OW11695   2.321   1.152   2.603
 3648SOL    HW111696   2.250   1.125   2.668
 3648SOL    HW211697   2.295   1.124   2.510
 3649SOL     OW11698   3.133   1.797   2.453
 3649SOL    HW111699   3.177   1.861   2.389
 3649SOL    HW211700   3.083   1.849   2.523
 3650SOL     OW11701   2.894   0.549   1.878
 3650SOL    HW111702   2.853   0.631   1.839
 3650SOL    HW211703   2.958   0.575   1.951
 3651SOL     OW11704   1.940   0.556   3.248
 3651SOL    HW111705   2.032   0.555   3.207
 3651SOL    HW211706   1.934   0.630   3.315
 3652SOL     OW11707   2.423   0.222   3.009
 3652SOL    HW111708   2.461   0.138   3.046
 3652SOL    HW211709   2.335   0.241   3.053
 3653SOL     OW11710   2.728   0.454   2.504
 3653SOL    HW111711   2.696   0.526   2.442
 3653SOL    HW211712   2.752   0.373   2.451
 3654SOL     OW11713   2.879   0.039   2.615
 3654SOL    HW111714   2.807   0.044   2.546
 3654SOL    HW211715   2.855  -0.030   2.684
 3655SOL     OW11716   3.291   1.173   2.729
 3655SOL    HW111717   3.236   1.089   2.722
 3655SOL    HW211718   3.317   1.202   2.637
 3656SOL     OW11719   3.328   0.590   2.854
 3656SOL    HW111720   3.298   0.495   2.861
 3656SOL    HW211721   3.401   0.606   2.920
 3657SOL     OW11722   3.719   0.833   2.239
 3657SOL    HW111723   3.761   0.769   2.303
 3657SOL    HW211724   3.681   0.782   2.161
 3658SOL     OW11725   2.350   1.385   2.036
 3658SOL    HW111726   2.263   1.370   2.083
 3658SOL    HW211727   2.333   1.411   1.941
 3659SOL     OW11728   3.526   1.280   2.519
 3659SOL    HW111729   3.625   1.288   2.533
 3659SOL    HW211730   3.481   1.364   2.550
 3660SOL     OW11731   3.252   0.575   1.940
 3660SOL    HW111732   3.198   0.554   2.021
 3660SOL    HW211733   3.343   0.534   1.949
 3661SOL     OW11734   2.389   0.256   2.190
 3661SOL    HW111735   2.416   0.197   2.115
 3661SOL    HW211736   2.389   0.351   2.159
 3662SOL     OW11737   3.616   1.223   3.450
 3662SOL    HW111738   3.707   1.184   3.437
 3662SOL    HW211739   3.624   1.319   3.474
 3663SOL     OW11740   2.926   1.347   3.202
 3663SOL    HW111741   2.846   1.324   3.257
 3663SOL    HW211742   3.009   1.321   3.251
 3664SOL     OW11743   3.454   1.629   3.487
 3664SOL    HW111744   3.481   1.663   3.397
 3664SOL    HW211745   3.533   1.591   3.533
 3665SOL     OW11746   2.973   1.195   2.962
 3665SOL    HW111747   2.933   1.239   3.043
 3665SOL    HW211748   2.932   1.232   2.879
 3666SOL     OW11749   3.500   1.099   2.941
 3666SOL    HW111750   3.505   1.180   3.000
 3666SOL    HW211751   3.414   1.101   2.890
 3667SOL     OW11752   2.777   0.089   3.264
 3667SOL    HW111753   2.802   0.069   3.169
 3667SOL    HW211754   2.849   0.145   3.306
 3668SOL     OW11755   2.842   1.116   3.581
 3668SOL    HW111756   2.743   1.122   3.591
 3668SOL    HW211757   2.865   1.036   3.525
 3669SOL     OW11758   2.567   1.050   2.230
 3669SOL    HW111759   2.553   1.057   2.329
 3669SOL    HW211760   2.651   0.999   2.212
 3670SOL     OW11761   2.272   0.813   3.113
 3670SOL    HW111762   2.358   0.825   3.163
 3670SOL    HW211763   2.230   0.726   3.140
 3671SOL     OW11764   3.136   0.386   3.124
 3671SOL    HW111765   3.157   0.460   3.188
 3671SOL    HW211766   3.047   0.403   3.081
 3672SOL     OW11767   2.229   1.100   2.363
 3672SOL    HW111768   2.222   1.183   2.307
 3672SOL    HW211769   2.233   1.020   2.303
 3673SOL     OW11770   2.428   0.537   2.727
 3673SOL    HW111771   2.440   0.603   2.653
 3673SOL    HW211772   2.474   0.571   2.810
 3674SOL     OW11773   3.114   1.348   2.250
 3674SOL    HW111774   3.164   1.425   2.290
 3674SOL    HW211775   3.019   1.350   2.282
 3675SOL     OW11776   3.134   1.445   3.004
 3675SOL    HW111777   3.181   1.458   3.091
 3675SOL    HW211778   3.068   1.371   3.013
 3676SOL     OW11779   3.444   0.639   2.334
 3676SOL    HW111780   3.413   0.700   2.407
 3676SOL    HW211781   3.494   0.691   2.265
 3677SOL     OW11782   2.216   1.510   3.191
 3677SOL    HW111783   2.195   1.466   3.104
 3677SOL    HW211784   2.313   1.536   3.194
 3678SOL     OW11785   2.264   0.751   3.460
 3678SOL    HW111786   2.332   0.806   3.413
 3678SOL    HW211787   2.304   0.663   3.487
 3679SOL     OW11788   3.449   0.779   3.532
 3679SOL    HW111789   3.357   0.817   3.527
 3679SOL    HW211790   3.509   0.826   3.467
 3680SOL     OW11791   2.875   0.105   3.632
 3680SOL    HW111792   2.881   0.190   3.580
 3680SOL    HW211793   2.907   0.029   3.575
 3681SOL     OW11794   2.366   0.050   3.602
 3681SOL    HW111795   2.324  -0.007   3.532
 3681SOL    HW211796   2.300   0.119   3.634
 3682SOL     OW11797   2.435   0.870   2.891
 3682SOL    HW111798   2.479   0.959   2.882
 3682SOL    HW211799   2.372   0.870   2.968
 3683SOL     OW11800   3.222   0.862   2.907
 3683SOL    HW111801   3.147   0.862   2.841
 3683SOL    HW211802   3.259   0.770   2.916
 3684SOL     OW11803   3.071   0.525   2.137
 3684SOL    HW111804   3.084   0.441   2.191
 3684SOL    HW211805   3.042   0.599   2.197
 3685SOL     OW11806   2.169   0.213   3.093
 3685SOL    HW111807   2.146   0.250   3.183
 3685SOL    HW211808   2.139   0.118   3.087
 3686SOL     OW11809   1.899   1.310   3.144
 3686SOL    HW111810   1.952   1.261   3.212
 3686SOL    HW211811   1.921   1.408   3.149
 3687SOL     OW11812   2.594   0.634   2.926
 3687SOL    HW111813   2.653   0.608   2.850
 3687SOL    HW211814   2.566   0.730   2.915
 3688SOL     OW11815   3.590   0.935   3.716
 3688SOL    HW111816   3.544   0.928   3.627
 3688SOL    HW211817   3.528   0.979   3.782
 3689SOL     OW11818   2.169   0.063   2.480
 3689SOL    HW111819   2.158   0.157   2.513
 3689SOL    HW211820   2.164   0.000   2.557
 3690SOL     OW11821   3.484   0.367   2.236
 3690SOL    HW111822   3.486   0.291   2.300
 3690SOL    HW211823   3.436   0.444   2.276
 3691SOL     OW11824   2.885   0.766   2.828
 3691SOL    HW111825   2.900   0.787   2.924
 3691SOL    HW211826   2.855   0.671   2.819
 3692SOL     OW11827   2.842   1.573   3.562
 3692SOL    HW111828   2.822   1.617   3.474
 3692SOL    HW211829   2.881   1.482   3.546
 3693SOL     OW11830   3.721   1.518   3.467
 3693SOL    HW111831   3.735   1.545   3.372
 3693SOL    HW211832   3.804   1.540   3.520
 3694SOL     OW11833   2.212   0.898   3.666
 3694SOL    HW111834   2.288   0.942   3.714
 3694SOL    HW211835   2.247   0.851   3.584
 3695SOL     OW11836   3.402   0.274   1.987
 3695SOL    HW111837   3.341   0.199   2.010
 3695SOL    HW211838   3.424   0.326   2.070
 3696SOL     OW11839   3.165   0.838   1.904
 3696SOL    HW111840   3.199   0.745   1.919
 3696SOL    HW211841   3.183   0.865   1.809
 3697SOL     OW11842   2.930   1.333   2.711
 3697SOL    HW111843   2.937   1.249   2.656
 3697SOL    HW211844   2.992   1.402   2.675
 3698SOL     OW11845   2.181   0.810   2.811
 3698SOL    HW111846   2.274   0.846   2.816
 3698SOL    HW211847   2.175   0.725   2.863
 3699SOL     OW11848   2.201   0.509   2.868
 3699SOL    HW111849   2.149   0.426   2.851
 3699SOL    HW211850   2.278   0.514   2.804
 3700SOL     OW11851   3.000   0.380   3.540
 3700SOL    HW111852   2.955   0.443   3.604
 3700SOL    HW211853   3.093   0.411   3.523
 3701SOL     OW11854   3.022   0.207   3.339
 3701SOL    HW111855   3.022   0.271   3.416
 3701SOL    HW211856   3.050   0.255   3.256
 3702SOL     OW11857   1.870   1.326   2.062
 3702SOL    HW111858   1.777   1.347   2.031
 3702SOL    HW211859   1.880   1.227   2.075
 3703SOL     OW11860   2.366   1.568   2.772
 3703SOL    HW111861   2.432   1.642   2.781
 3703SOL    HW211862   2.410   1.489   2.730
 3704SOL     OW11863   2.864   0.796   3.100
 3704SOL    HW111864   2.905   0.764   3.186
 3704SOL    HW211865   2.768   0.769   3.097
 3705SOL     OW11866   1.902   0.544   2.976
 3705SOL    HW111867   1.987   0.511   2.935
 3705SOL    HW211868   1.915   0.559   3.074
 3706SOL     OW11869   2.051   0.520   3.584
 3706SOL    HW111870   2.110   0.480   3.514
 3706SOL    HW211871   1.993   0.591   3.543
 3707SOL     OW11872   3.231   0.950   3.522
 3707SOL    HW111873   3.270   1.039   3.542
 3707SOL    HW211874   3.241   0.930   3.425
 3708SOL     OW11875   2.677   0.572   2.187
 3708SOL    HW111876   2.684   0.483   2.141
 3708SOL    HW211877   2.583   0.606   2.179
 3709SOL     OW11878   3.519   0.604   3.068
 3709SOL    HW111879   3.481   0.535   3.130
 3709SOL    HW211880   3.601   0.568   3.024
 3710SOL     OW11881   2.114   1.564   3.606
 3710SOL    HW111882   2.084   1.621   3.682
 3710SOL    HW211883   2.107   1.467   3.632
 3711SOL     OW11884   2.533   0.464   3.131
 3711SOL    HW111885   2.499   0.375   3.101
 3711SOL    HW211886   2.559   0.518   3.051
 3712SOL     OW11887   2.792   1.678   3.327
 3712SOL    HW111888   2.768   1.660   3.232
 3712SOL    HW211889   2.822   1.772   3.337
 3713SOL     OW11890   2.335   0.500   2.053
 3713SOL    HW111891   2.396   0.580   2.057
 3713SOL    HW211892   2.240   0.531   2.060
 3714SOL     OW11893   2.021   1.137   3.328
 3714SOL    HW111894   2.043   1.076   3.404
 3714SOL    HW211895   2.031   1.088   3.242
 3715SOL     OW11896   3.209   1.059   3.096
 3715SOL    HW111897   3.233   0.996   3.022
 3715SOL    HW211898   3.119   1.099   3.078
 3716SOL     OW11899   3.164   0.855   2.171
 3716SOL    HW111900   3.078   0.824   2.213
 3716SOL    HW211901   3.160   0.841   2.072
 3717SOL     OW11902   3.621   1.747   3.016
 3717SOL    HW111903   3.682   1.777   2.943
 3717SOL    HW211904   3.583   1.658   2.994
 3718SOL     OW11905   3.114   1.731   2.990
 3718SOL    HW111906   3.198   1.736   2.936
 3718SOL    HW211907   3.091   1.635   3.008
 3719SOL     OW11908   1.945   1.258   2.884
 3719SOL    HW111909   1.940   1.257   2.984
 3719SOL    HW211910   1.862   1.217   2.846
 3720SOL     OW11911   2.550   1.662   3.578
 3720SOL    HW111912   2.494   1.743   3.587
 3720SOL    HW211913   2.602   1.666   3.492
 3721SOL     OW11914   3.588   0.135   2.385
 3721SOL    HW111915   3.661   0.118   2.318
 3721SOL    HW211916   3.557   0.048   2.423
 3722SOL     OW11917   3.250   1.573   2.339
 3722SOL    HW111918   3.317   1.585   2.265
 3722SOL    HW211919   3.210   1.662   2.362
 3723SOL     OW11920   3.142   0.927   2.534
 3723SOL    HW111921   3.202   0.846   2.536
 3723SOL    HW211922   3.182   0.996   2.474
 3724SOL     OW11923   2.692   1.273   3.284
 3724SOL    HW111924   2.687   1.306   3.379
 3724SOL    HW211925   2.606   1.292   3.238
 3725SOL     OW11926   2.534   1.616   2.016
 3725SOL    HW111927   2.543   1.626   1.917
 3725SOL    HW211928   2.494   1.527   2.037
 3726SOL     OW11929   3.512   1.720   3.256
 3726SOL    HW111930   3.565   1.730   3.172
 3726SOL    HW211931   3.485   1.810   3.290
 3727SOL     OW11932   3.703   0.175   2.825
 3727SOL    HW111933   3.742   0.090   2.789
 3727SOL    HW211934   3.605   0.177   2.806
 3728SOL     OW11935   2.125   0.326   2.582
 3728SOL    HW111936   2.046   0.377   2.548
 3728SOL    HW211937   2.116   0.311   2.680
 3729SOL     OW11938   3.056   1.612   1.893
 3729SOL    HW111939   3.062   1.519   1.930
 3729SOL    HW211940   2.997   1.612   1.813
 3730SOL     OW11941   2.684   1.002   3.234
 3730SOL    HW111942   2.724   1.001   3.142
 3730SOL    HW211943   2.694   1.094   3.274
 3731SOL     OW11944   2.778   0.910   2.153
 3731SOL    HW111945   2.841   0.948   2.085
 3731SOL    HW211946   2.818   0.827   2.192
 3732SOL     OW11947   3.366   1.607   1.906
 3732SOL    HW111948   3.274   1.644   1.913
 3732SOL    HW211949   3.404   1.627   1.816
 3733SOL     OW11950   2.234   1.288   3.352
 3733SOL    HW111951   2.221   1.381   3.318
 3733SOL    HW211952   2.150   1.236   3.339
 3734SOL     OW11953   3.476   1.292   3.151
 3734SOL    HW111954   3.536   1.295   3.231
 3734SOL    HW211955   3.401   1.356   3.164
 3735SOL     OW11956   2.901   1.098   2.558
 3735SOL    HW111957   2.831   1.051   2.612
 3735SOL    HW211958   2.960   1.030   2.515
 3736SOL     OW11959   2.876   0.236   2.833
 3736SOL    HW111960   2.868   0.200   2.740
 3736SOL    HW211961   2.874   0.160   2.898
 3737SOL     OW11962   2.452   1.487   2.353
 3737SOL    HW111963   2.494   1.429   2.283
 3737SOL    HW211964   2.408   1.566   2.309
 3738SOL     OW11965   3.571   0.385   3.243
 3738SOL    HW111966   3.644   0.454   3.247
 3738SOL    HW211967   3.599   0.310   3.184
 3739SOL     OW11968   2.117   1.348   2.152
 3739SOL    HW111969   2.021   1.349   2.125
 3739SOL    HW211970   2.129   1.401   2.236
 3740SOL     OW11971   1.967   1.013   3.588
 3740SOL    HW111972   1.890   0.980   3.642
 3740SOL    HW211973   2.052   0.983   3.630
 3741SOL     OW11974   2.534   0.203   3.351
 3741SOL    HW111975   2.624   0.187   3.311
 3741SOL    HW211976   2.542   0.208   3.450
 3742SOL     OW11977   1.937   0.345   1.895
 3742SOL    HW111978   1.845   0.317   1.866
 3742SOL    HW211979   1.968   0.422   1.839
 3743SOL     OW11980   3.302   0.856   3.260
 3743SOL    HW111981   3.245   0.908   3.197
 3743SOL    HW211982   3.398   0.868   3.236
 3744SOL     OW11983   1.934   0.166   2.180
 3744SOL    HW111984   1.917   0.249   2.126
 3744SOL    HW211985   2.024   0.129   2.158
 3745SOL     OW11986   3.045   1.335   1.981
 3745SOL    HW111987   2.946   1.324   1.983
 3745SOL    HW211988   3.079   1.350   2.074
 3746SOL     OW11989   2.475   0.842   3.293
 3746SOL    HW111990   2.531   0.923   3.276
 3746SOL    HW211991   2.534   0.762   3.296
 3747SOL     OW11992   3.355   1.767   2.821
 3747SOL    HW111993   3.388   1.831   2.752
 3747SOL    HW211994   3.421   1.761   2.896
 3748SOL     OW11995   2.578   0.565   3.570
 3748SOL    HW111996   2.597   0.630   3.644
 3748SOL    HW211997   2.638   0.485   3.579
 3749SOL     OW11998   3.312   1.220   3.495
 3749SOL    HW111999   3.303   1.210   3.594
 3749SOL    HW212000   3.408   1.213   3.469
 3750SOL     OW12001   2.252   1.741   3.422
 3750SOL    HW112002   2.161   1.782   3.420
 3750SOL    HW212003   2.245   1.647   3.454
 3751SOL     OW12004   3.536   0.883   3.116
 3751SOL    HW112005   3.509   0.794   3.079
 3751SOL    HW212006   3.537   0.951   3.043
 3752SOL     OW12007   3.087   0.325   2.311
 3752SOL    HW112008   3.152   0.251   2.300
 3752SOL    HW212009   3.107   0.375   2.395
 3753SOL     OW12010   2.456   0.745   2.514
 3753SOL    HW112011   2.506   0.830   2.495
 3753SOL    HW212012   2.368   0.747   2.466
 3754SOL     OW12013   3.639   0.342   3.504
 3754SOL    HW112014   3.622   0.373   3.410
 3754SOL    HW212015   3.555   0.305   3.542
 3755SOL     OW12016   3.592   0.934   3.379
 3755SOL    HW112017   3.630   1.025   3.394
 3755SOL    HW212018   3.584   0.917   3.280
 3756SOL     OW12019   2.721   1.374   1.878
 3756SOL    HW112020   2.675   1.389   1.966
 3756SOL    HW212021   2.765   1.459   1.848
 3757SOL     OW12022   2.523   1.790   2.815
 3757SOL    HW112023   2.477   1.878   2.802
 3757SOL    HW212024   2.622   1.802   2.808
 3758SOL     OW12025   2.721   0.956   2.723
 3758SOL    HW112026   2.775   0.887   2.771
 3758SOL    HW212027   2.689   1.025   2.789
 3759SOL     OW12028   2.945   0.984   1.949
 3759SOL    HW112029   2.922   1.037   1.867
 3759SOL    HW212030   3.026   0.928   1.930
 3760SOL     OW12031   3.723   1.569   2.713
 3760SOL    HW112032   3.652   1.557   2.643
 3760SOL    HW212033   3.724   1.490   2.773
 3761SOL     OW12034   2.083   1.314   3.706
 3761SOL    HW112035   2.018   1.241   3.685
 3761SOL    HW212036   2.087   1.328   3.804
 3762SOL     OW12037   1.941   1.240   2.515
 3762SOL    HW112038   1.940   1.193   2.603
 3762SOL    HW212039   2.023   1.212   2.464
 3763SOL     OW12040   2.534   1.391   3.486
 3763SOL    HW112041   2.456   1.341   3.524
 3763SOL    HW212042   2.531   1.486   3.517
 3764SOL     OW12043   3.686   0.192   3.089
 3764SOL    HW112044   3.682   0.102   3.133
 3764SOL    HW212045   3.689   0.181   2.990
 3765SOL     OW12046   2.290   0.424   2.382
 3765SOL    HW112047   2.320   0.352   2.320
 3765SOL    HW212048   2.251   0.384   2.465
 3766SOL     OW12049   3.567   1.487   2.966
 3766SOL    HW112050   3.474   1.462   2.939
 3766SOL    HW212051   3.593   1.437   3.048
 3767SOL     OW12052   2.179   0.547   3.142
 3767SOL    HW112053   2.217   0.488   3.214
 3767SOL    HW212054   2.219   0.521   3.054
 3768SOL     OW12055   2.674   1.586   2.549
 3768SOL    HW112056   2.706   1.596   2.455
 3768SOL    HW212057   2.595   1.524   2.551
 3769SOL     OW12058   3.286   0.214   2.974
 3769SOL    HW112059   3.338   0.149   3.029
 3769SOL    HW212060   3.237   0.277   3.035
 3770SOL     OW12061   2.863   0.034   3.016
 3770SOL    HW112062   2.800  -0.038   2.985
 3770SOL    HW212063   2.956  -0.002   3.016
 3771SOL     OW12064   2.632   1.330   2.163
 3771SOL    HW112065   2.586   1.243   2.180
 3771SOL    HW212066   2.723   1.327   2.204
 3772SOL     OW12067   2.480   1.567   3.146
 3772SOL    HW112068   2.475   1.649   3.203
 3772SOL    HW212069   2.569   1.564   3.101
 3773SOL     OW12070   3.214   0.052   2.030
 3773SOL    HW112071   3.249   0.011   1.946
 3773SOL    HW212072   3.124   0.014   2.050
 3774SOL     OW12073   3.162   0.453   2.553
 3774SOL    HW112074   3.103   0.533   2.557
 3774SOL    HW212075   3.177   0.418   2.646
 3775SOL     OW12076   3.455   0.221   2.744
 3775SOL    HW112077   3.371   0.220   2.798
 3775SOL    HW212078   3.457   0.304   2.688
 3776SOL     OW12079   1.901   1.077   2.162
 3776SOL    HW112080   2.000   1.066   2.153
 3776SOL    HW212081   1.861   0.991   2.194
 3777SOL     OW12082   2.737   1.646   2.199
 3777SOL    HW112083   2.660   1.611   2.145
 3777SOL    HW212084   2.705   1.717   2.261
 3778SOL     OW12085   2.092   0.628   3.837
 3778SOL    HW112086   1.999   0.626   3.874
 3778SOL    HW212087   2.093   0.589   3.745
 3779SOL     OW12088   2.087   0.275   4.720
 3779SOL    HW112089   2.122   0.258   4.812
 3779SOL    HW212090   1.999   0.230   4.708
 3780SOL     OW12091   1.881   0.368   4.371
 3780SOL    HW112092   1.799   0.411   4.410
 3780SOL    HW212093   1.853   0.295   4.308
 3781SOL     OW12094   2.431   1.275   4.889
 3781SOL    HW112095   2.338   1.268   4.852
 3781SOL    HW212096   2.442   1.364   4.933
 3782SOL     OW12097   3.417   1.511   4.427
 3782SOL    HW112098   3.360   1.495   4.508
 3782SOL    HW212099   3.358   1.521   4.347
 3783SOL     OW12100   2.997   0.703   4.441
 3783SOL    HW112101   3.054   0.781   4.416
 3783SOL    HW212102   2.937   0.729   4.517
 3784SOL     OW12103   3.617   0.607   3.955
 3784SOL    HW112104   3.605   0.594   3.856
 3784SOL    HW212105   3.587   0.526   4.004
 3785SOL     OW12106   2.630   1.144   4.747
 3785SOL    HW112107   2.552   1.161   4.807
 3785SOL    HW212108   2.664   1.231   4.711
 3786SOL     OW12109   2.712   0.798   5.547
 3786SOL    HW112110   2.708   0.874   5.612
 3786SOL    HW212111   2.734   0.834   5.456
 3787SOL     OW12112   2.547   1.012   4.389
 3787SOL    HW112113   2.616   0.996   4.459
 3787SOL    HW212114   2.474   1.069   4.427
 3788SOL     OW12115   2.548   1.161   5.527
 3788SOL    HW112116   2.608   1.240   5.541
 3788SOL    HW212117   2.462   1.192   5.486
 3789SOL     OW12118   2.197   1.435   4.785
 3789SOL    HW112119   2.119   1.404   4.732
 3789SOL    HW212120   2.255   1.493   4.728
 3790SOL     OW12121   3.322   1.505   5.063
 3790SOL    HW112122   3.346   1.599   5.089
 3790SOL    HW212123   3.306   1.451   5.145
 3791SOL     OW12124   2.300   0.392   5.223
 3791SOL    HW112125   2.382   0.336   5.232
 3791SOL    HW212126   2.219   0.334   5.227
 3792SOL     OW12127   3.465   0.447   4.461
 3792SOL    HW112128   3.391   0.493   4.411
 3792SOL    HW212129   3.516   0.515   4.514
 3793SOL     OW12130   2.093   1.713   4.207
 3793SOL    HW112131   2.127   1.790   4.261
 3793SOL    HW212132   2.137   1.713   4.117
 3794SOL     OW12133   2.989   1.341   5.414
 3794SOL    HW112134   3.036   1.341   5.502
 3794SOL    HW212135   2.941   1.254   5.403
 3795SOL     OW12136   2.092   1.434   4.262
 3795SOL    HW112137   2.066   1.530   4.262
 3795SOL    HW212138   2.021   1.380   4.307
 3796SOL     OW12139   2.102   1.091   4.610
 3796SOL    HW112140   2.116   1.007   4.662
 3796SOL    HW212141   2.047   1.155   4.665
 3797SOL     OW12142   2.482   1.786   5.163
 3797SOL    HW112143   2.390   1.769   5.198
 3797SOL    HW212144   2.510   1.878   5.189
 3798SOL     OW12145   2.468   0.964   3.847
 3798SOL    HW112146   2.475   1.048   3.793
 3798SOL    HW212147   2.514   0.977   3.935
 3799SOL     OW12148   3.456   0.114   5.204
 3799SOL    HW112149   3.438   0.181   5.132
 3799SOL    HW212150   3.453   0.160   5.293
 3800SOL     OW12151   1.984   0.643   4.287
 3800SOL    HW112152   1.939   0.555   4.304
 3800SOL    HW212153   1.983   0.697   4.371
 3801SOL     OW12154   3.704   1.767   4.083
 3801SOL    HW112155   3.758   1.738   4.163
 3801SOL    HW212156   3.734   1.857   4.054
 3802SOL     OW12157   1.889   1.596   3.841
 3802SOL    HW112158   1.870   1.500   3.862
 3802SOL    HW212159   1.856   1.654   3.916
 3803SOL     OW12160   3.551   0.922   4.336
 3803SOL    HW112161   3.646   0.893   4.344
 3803SOL    HW212162   3.543   0.987   4.261
 3804SOL     OW12163   3.503   1.108   4.156
 3804SOL    HW112164   3.589   1.110   4.104
 3804SOL    HW212165   3.517   1.155   4.244
 3805SOL     OW12166   1.975   0.737   5.321
 3805SOL    HW112167   2.063   0.724   5.366
 3805SOL    HW212168   1.962   0.834   5.299
 3806SOL     OW12169   2.475   1.365   4.450
 3806SOL    HW112170   2.426   1.278   4.459
 3806SOL    HW212171   2.452   1.408   4.363
 3807SOL     OW12172   3.155   1.228   5.147
 3807SOL    HW112173   3.192   1.155   5.089
 3807SOL    HW212174   3.207   1.233   5.232
 3808SOL     OW12175   2.671   0.004   4.226
 3808SOL    HW112176   2.711   0.095   4.217
 3808SOL    HW212177   2.571   0.012   4.232
 3809SOL     OW12178   2.059   0.976   4.988
 3809SOL    HW112179   2.148   0.931   4.974
 3809SOL    HW212180   1.986   0.911   4.969
 3810SOL     OW12181   3.387   0.999   3.914
 3810SOL    HW112182   3.324   0.923   3.927
 3810SOL    HW212183   3.435   1.017   4.000
 3811SOL     OW12184   3.049   1.792   5.340
 3811SOL    HW112185   3.073   1.852   5.264
 3811SOL    HW212186   3.056   1.697   5.310
 3812SOL     OW12187   2.179   0.251   5.525
 3812SOL    HW112188   2.250   0.322   5.531
 3812SOL    HW212189   2.091   0.290   5.553
 3813SOL     OW12190   3.328   1.417   4.677
 3813SOL    HW112191   3.269   1.423   4.757
 3813SOL    HW212192   3.313   1.329   4.631
 3814SOL     OW12193   3.529   1.714   4.296
 3814SOL    HW112194   3.488   1.691   4.208
 3814SOL    HW212195   3.511   1.640   4.361
 3815SOL     OW12196   2.460   0.729   3.994
 3815SOL    HW112197   2.484   0.798   3.926
 3815SOL    HW212198   2.382   0.762   4.048
 3816SOL     OW12199   3.143   0.345   4.668
 3816SOL    HW112200   3.057   0.295   4.655
 3816SOL    HW212201   3.205   0.291   4.724
 3817SOL     OW12202   3.438   1.662   4.031
 3817SOL    HW112203   3.527   1.708   4.034
 3817SOL    HW212204   3.417   1.638   3.936
 3818SOL     OW12205   2.669   0.605   5.189
 3818SOL    HW112206   2.622   0.602   5.278
 3818SOL    HW212207   2.618   0.550   5.123
 3819SOL     OW12208   3.256   0.469   5.398
 3819SOL    HW112209   3.236   0.512   5.486
 3819SOL    HW212210   3.334   0.407   5.407
 3820SOL     OW12211   2.835   0.890   5.296
 3820SOL    HW112212   2.881   0.806   5.267
 3820SOL    HW212213   2.779   0.924   5.221
 3821SOL     OW12214   2.853   0.410   4.966
 3821SOL    HW112215   2.776   0.444   5.020
 3821SOL    HW212216   2.819   0.359   4.887
 3822SOL     OW12217   2.903   0.701   4.153
 3822SOL    HW112218   2.929   0.697   4.249
 3822SOL    HW212219   2.818   0.650   4.139
 3823SOL     OW12220   1.938   0.811   4.513
 3823SOL    HW112221   2.037   0.799   4.522
 3823SOL    HW212222   1.914   0.906   4.534
 3824SOL     OW12223   2.727   0.348   3.919
 3824SOL    HW112224   2.786   0.411   3.870
 3824SOL    HW212225   2.746   0.254   3.890
 3825SOL     OW12226   3.581   0.585   5.555
 3825SOL    HW112227   3.555   0.674   5.519
 3825SOL    HW212228   3.579   0.517   5.482
 3826SOL     OW12229   3.224   1.144   4.269
 3826SOL    HW112230   3.307   1.115   4.221
 3826SOL    HW212231   3.175   1.211   4.213
 3827SOL     OW12232   2.412   0.196   4.609
 3827SOL    HW112233   2.407   0.191   4.709
 3827SOL    HW212234   2.414   0.292   4.580
 3828SOL     OW12235   2.870   1.456   4.201
 3828SOL    HW112236   2.824   1.528   4.149
 3828SOL    HW212237   2.866   1.476   4.299
 3829SOL     OW12238   2.213   1.801   4.577
 3829SOL    HW112239   2.263   1.715   4.583
 3829SOL    HW212240   2.278   1.878   4.574
 3830SOL     OW12241   3.657   1.066   4.597
 3830SOL    HW112242   3.595   1.051   4.521
 3830SOL    HW212243   3.605   1.077   4.682
 3831SOL     OW12244   3.089   1.550   5.230
 3831SOL    HW112245   3.095   1.473   5.294
 3831SOL    HW212246   3.037   1.524   5.150
 3832SOL     OW12247   2.183   0.943   3.966
 3832SOL    HW112248   2.265   0.982   3.924
 3832SOL    HW212249   2.156   0.861   3.917
 3833SOL     OW12250   3.320   0.735   4.452
 3833SOL    HW112251   3.315   0.670   4.527
 3833SOL    HW212252   3.400   0.794   4.465
 3834SOL     OW12253   2.323   1.266   5.451
 3834SOL    HW112254   2.273   1.267   5.365
 3834SOL    HW212255   2.260   1.248   5.527
 3835SOL     OW12256   2.973   1.776   3.961
 3835SOL    HW112257   2.913   1.714   4.011
 3835SOL    HW212258   3.004   1.732   3.876
 3836SOL     OW12259   2.064   0.285   5.222
 3836SOL    HW112260   1.984   0.345   5.209
 3836SOL    HW212261   2.054   0.236   5.308
 3837SOL     OW12262   3.494   1.377   3.805
 3837SOL    HW112263   3.462   1.471   3.795
 3837SOL    HW212264   3.418   1.314   3.793
 3838SOL     OW12265   2.326   1.743   4.047
 3838SOL    HW112266   2.359   1.782   4.133
 3838SOL    HW212267   2.402   1.736   3.982
 3839SOL     OW12268   3.262   0.107   4.150
 3839SOL    HW112269   3.238   0.070   4.060
 3839SOL    HW212270   3.361   0.123   4.154
 3840SOL     OW12271   2.111   1.785   4.965
 3840SOL    HW112272   2.168   1.720   5.015
 3840SOL    HW212273   2.095   1.752   4.872
 3841SOL     OW12274   2.802   1.698   4.628
 3841SOL    HW112275   2.882   1.641   4.649
 3841SOL    HW212276   2.753   1.658   4.551
 3842SOL     OW12277   2.244   0.700   4.204
 3842SOL    HW112278   2.289   0.610   4.201
 3842SOL    HW212279   2.150   0.689   4.237
 3843SOL     OW12280   3.409   0.222   5.453
 3843SOL    HW112281   3.404   0.259   5.545
 3843SOL    HW212282   3.337   0.153   5.441
 3844SOL     OW12283   2.476   0.122   3.841
 3844SOL    HW112284   2.574   0.100   3.848
 3844SOL    HW212285   2.445   0.105   3.748
 3845SOL     OW12286   2.643   0.264   5.473
 3845SOL    HW112287   2.710   0.203   5.516
 3845SOL    HW212288   2.570   0.283   5.538
 3846SOL     OW12289   2.750   1.514   4.919
 3846SOL    HW112290   2.727   1.489   4.825
 3846SOL    HW212291   2.811   1.445   4.958
 3847SOL     OW12292   3.213   0.590   5.157
 3847SOL    HW112293   3.241   0.547   5.242
 3847SOL    HW212294   3.238   0.686   5.158
 3848SOL     OW12295   2.665   1.402   4.648
 3848SOL    HW112296   2.755   1.416   4.606
 3848SOL    HW212297   2.594   1.404   4.577
 3849SOL     OW12298   2.784   0.503   4.623
 3849SOL    HW112299   2.759   0.494   4.527
 3849SOL    HW212300   2.832   0.421   4.654
 3850SOL     OW12301   2.401   0.064   4.236
 3850SOL    HW112302   2.320   0.065   4.294
 3850SOL    HW212303   2.404   0.147   4.181
 3851SOL     OW12304   3.296   1.188   3.765
 3851SOL    HW112305   3.328   1.112   3.822
 3851SOL    HW212306   3.204   1.215   3.795
 3852SOL     OW12307   2.159   0.035   3.895
 3852SOL    HW112308   2.208   0.119   3.874
 3852SOL    HW212309   2.221  -0.030   3.940
 3853SOL     OW12310   2.797   0.236   4.204
 3853SOL    HW112311   2.749   0.277   4.126
 3853SOL    HW212312   2.896   0.234   4.185
 3854SOL     OW12313   2.938   0.683   5.188
 3854SOL    HW112314   2.858   0.622   5.191
 3854SOL    HW212315   3.019   0.630   5.164
 3855SOL     OW12316   3.089   1.570   4.517
 3855SOL    HW112317   3.110   1.644   4.452
 3855SOL    HW212318   3.157   1.570   4.590
 3856SOL     OW12319   2.321   1.152   4.465
 3856SOL    HW112320   2.250   1.125   4.530
 3856SOL    HW212321   2.295   1.124   4.372
 3857SOL     OW12322   3.133   1.797   4.315
 3857SOL    HW112323   3.177   1.861   4.251
 3857SOL    HW212324   3.083   1.849   4.385
 3858SOL     OW12325   2.894   0.549   3.740
 3858SOL    HW112326   2.853   0.631   3.701
 3858SOL    HW212327   2.958   0.575   3.813
 3859SOL     OW12328   1.940   0.556   5.110
 3859SOL    HW112329   2.032   0.555   5.069
 3859SOL    HW212330   1.934   0.630   5.177
 3860SOL     OW12331   2.423   0.222   4.871
 3860SOL    HW112332   2.461   0.138   4.908
 3860SOL    HW212333   2.335   0.241   4.915
 3861SOL     OW12334   2.728   0.454   4.366
 3861SOL    HW112335   2.696   0.526   4.304
 3861SOL    HW212336   2.752   0.373   4.313
 3862SOL     OW12337   2.879   0.039   4.477
 3862SOL    HW112338   2.807   0.044   4.408
 3862SOL    HW212339   2.855  -0.030   4.546
 3863SOL     OW12340   3.291   1.173   4.591
 3863SOL    HW112341   3.236   1.089   4.584
 3863SOL    HW212342   3.317   1.202   4.499
 3864SOL     OW12343   3.328   0.590   4.716
 3864SOL    HW112344   3.298   0.495   4.723
 3864SOL    HW212345   3.401   0.606   4.782
 3865SOL     OW12346   3.719   0.833   4.101
 3865SOL    HW112347   3.761   0.769   4.165
 3865SOL    HW212348   3.681   0.782   4.023
 3866SOL     OW12349   2.350   1.385   3.898
 3866SOL    HW112350   2.263   1.370   3.945
 3866SOL    HW212351   2.333   1.411   3.803
 3867SOL     OW12352   3.526   1.280   4.381
 3867SOL    HW112353   3.625   1.288   4.395
 3867SOL    HW212354   3.481   1.364   4.412
 3868SOL     OW12355   3.252   0.575   3.802
 3868SOL    HW112356   3.198   0.554   3.883
 3868SOL    HW212357   3.343   0.534   3.811
 3869SOL     OW12358   2.389   0.256   4.052
 3869SOL    HW112359   2.416   0.197   3.977
 3869SOL    HW212360   2.389   0.351   4.021
 3870SOL     OW12361   3.616   1.223   5.312
 3870SOL    HW112362   3.707   1.184   5.299
 3870SOL    HW212363   3.624   1.319   5.336
 3871SOL     OW12364   2.926   1.347   5.064
 3871SOL    HW112365   2.846   1.324   5.119
 3871SOL    HW212366   3.009   1.321   5.113
 3872SOL     OW12367   3.454   1.629   5.349
 3872SOL    HW112368   3.481   1.663   5.259
 3872SOL    HW212369   3.533   1.591   5.395
 3873SOL     OW12370   2.973   1.195   4.824
 3873SOL    HW112371   2.933   1.239   4.905
 3873SOL    HW212372   2.932   1.232   4.741
 3874SOL     OW12373   3.500   1.099   4.803
 3874SOL    HW112374   3.505   1.180   4.862
 3874SOL    HW212375   3.414   1.101   4.752
 3875SOL     OW12376   2.777   0.089   5.126
 3875SOL    HW112377   2.802   0.069   5.031
 3875SOL    HW212378   2.849   0.145   5.168
 3876SOL     OW12379   2.842   1.116   5.443
 3876SOL    HW112380   2.743   1.122   5.453
 3876SOL    HW212381   2.865   1.036   5.387
 3877SOL     OW12382   2.567   1.050   4.092
 3877SOL    HW112383   2.553   1.057   4.191
 3877SOL    HW212384   2.651   0.999   4.074
 3878SOL     OW12385   2.272   0.813   4.975
 3878SOL    HW112386   2.358   0.825   5.025
 3878SOL    HW212387   2.230   0.726   5.002
 3879SOL     OW12388   3.136   0.386   4.986
 3879SOL    HW112389   3.157   0.460   5.050
 3879SOL    HW212390   3.047   0.403   4.943
 3880SOL     OW12391   2.229   1.100   4.225
 3880SOL    HW112392   2.222   1.183   4.169
 3880SOL    HW212393   2.233   1.020   4.165
 3881SOL     OW12394   2.428   0.537   4.589
 3881SOL    HW112395   2.440   0.603   4.515
 3881SOL    HW212396   2.474   0.571   4.672
 3882SOL     OW12397   3.114   1.348   4.112
 3882SOL    HW112398   3.164   1.425   4.152
 3882SOL    HW212399   3.019   1.350   4.144
 3883SOL     OW12400   3.134   1.445   4.866
 3883SOL    HW112401   3.181   1.458   4.953
 3883SOL    HW212402   3.068   1.371   4.875
 3884SOL     OW12403   3.444   0.639   4.196
 3884SOL    HW112404   3.413   0.700   4.269
 3884SOL    HW212405   3.494   0.691   4.127
 3885SOL     OW12406   2.216   1.510   5.053
 3885SOL    HW112407   2.195   1.466   4.966
 3885SOL    HW212408   2.313   1.536   5.056
 3886SOL     OW12409   2.264   0.751   5.322
 3886SOL    HW112410   2.332   0.806   5.275
 3886SOL    HW212411   2.304   0.663   5.349
 3887SOL     OW12412   3.449   0.779   5.394
 3887SOL    HW112413   3.357   0.817   5.389
 3887SOL    HW212414   3.509   0.826   5.329
 3888SOL     OW12415   2.875   0.105   5.494
 3888SOL    HW112416   2.881   0.190   5.442
 3888SOL    HW212417   2.907   0.029   5.437
 3889SOL     OW12418   2.366   0.050   5.464
 3889SOL    HW112419   2.324  -0.007   5.394
 3889SOL    HW212420   2.300   0.119   5.496
 3890SOL     OW12421   2.435   0.870   4.753
 3890SOL    HW112422   2.479   0.959   4.744
 3890SOL    HW212423   2.372   0.870   4.830
 3891SOL     OW12424   3.222   0.862   4.769
 3891SOL    HW112425   3.147   0.862   4.703
 3891SOL    HW212426   3.259   0.770   4.778
 3892SOL     OW12427   3.071   0.525   3.999
 3892SOL    HW112428   3.084   0.441   4.053
 3892SOL    HW212429   3.042   0.599   4.059
 3893SOL     OW12430   2.169   0.213   4.955
 3893SOL    HW112431   2.146   0.250   5.045
 3893SOL    HW212432   2.139   0.118   4.949
 3894SOL     OW12433   1.899   1.310   5.006
 3894SOL    HW112434   1.952   1.261   5.074
 3894SOL    HW212435   1.921   1.408   5.011
 3895SOL     OW12436   2.594   0.634   4.788
 3895SOL    HW112437   2.653   0.608   4.712
 3895SOL    HW212438   2.566   0.730   4.777
 3896SOL     OW12439   3.590   0.935   5.578
 3896SOL    HW112440   3.544   0.928   5.489
 3896SOL    HW212441   3.528   0.979   5.644
 3897SOL     OW12442   2.169   0.063   4.342
 3897SOL    HW112443   2.158   0.157   4.375
 3897SOL    HW212444   2.164   0.000   4.419
 3898SOL     OW12445   3.484   0.367   4.098
 3898SOL    HW112446   3.486   0.291   4.162
 3898SOL    HW212447   3.436   0.444   4.138
 3899SOL     OW12448   2.885   0.766   4.690
 3899SOL    HW112449   2.900   0.787   4.786
 3899SOL    HW212450   2.855   0.671   4.681
 3900SOL     OW12451   2.842   1.573   5.424
 3900SOL    HW112452   2.822   1.617   5.336
 3900SOL    HW212453   2.881   1.482   5.408
 3901SOL     OW12454   3.721   1.518   5.329
 3901SOL    HW112455   3.735   1.545   5.234
 3901SOL    HW212456   3.804   1.540   5.382
 3902SOL     OW12457   2.212   0.898   5.528
 3902SOL    HW112458   2.288   0.942   5.576
 3902SOL    HW212459   2.247   0.851   5.446
 3903SOL     OW12460   3.402   0.274   3.849
 3903SOL    HW112461   3.341   0.199   3.872
 3903SOL    HW212462   3.424   0.326   3.932
 3904SOL     OW12463   3.165   0.838   3.766
 3904SOL    HW112464   3.199   0.745   3.781
 3904SOL    HW212465   3.183   0.865   3.671
 3905SOL     OW12466   2.930   1.333   4.573
 3905SOL    HW112467   2.937   1.249   4.518
 3905SOL    HW212468   2.992   1.402   4.537
 3906SOL     OW12469   2.181   0.810   4.673
 3906SOL    HW112470   2.274   0.846   4.678
 3906SOL    HW212471   2.175   0.725   4.725
 3907SOL     OW12472   2.201   0.509   4.730
 3907SOL    HW112473   2.149   0.426   4.713
 3907SOL    HW212474   2.278   0.514   4.666
 3908SOL     OW12475   3.000   0.380   5.402
 3908SOL    HW112476   2.955   0.443   5.466
 3908SOL    HW212477   3.093   0.411   5.385
 3909SOL     OW12478   3.022   0.207   5.201
 3909SOL    HW112479   3.022   0.271   5.278
 3909SOL    HW212480   3.050   0.255   5.118
 3910SOL     OW12481   1.870   1.326   3.924
 3910SOL    HW112482   1.777   1.347   3.893
 3910SOL    HW212483   1.880   1.227   3.937
 3911SOL     OW12484   2.366   1.568   4.634
 3911SOL    HW112485   2.432   1.642   4.643
 3911SOL    HW212486   2.410   1.489   4.592
 3912SOL     OW12487   2.864   0.796   4.962
 3912SOL    HW112488   2.905   0.764   5.048
 3912SOL    HW212489   2.768   0.769   4.959
 3913SOL     OW12490   1.902   0.544   4.838
 3913SOL    HW112491   1.987   0.511   4.797
 3913SOL    HW212492   1.915   0.559   4.936
 3914SOL     OW12493   2.051   0.520   5.446
 3914SOL    HW112494   2.110   0.480   5.376
 3914SOL    HW212495   1.993   0.591   5.405
 3915SOL     OW12496   3.231   0.950   5.384
 3915SOL    HW112497   3.270   1.039   5.404
 3915SOL    HW212498   3.241   0.930   5.287
 3916SOL     OW12499   2.677   0.572   4.049
 3916SOL    HW112500   2.684   0.483   4.003
 3916SOL    HW212501   2.583   0.606   4.041
 3917SOL     OW12502   3.519   0.604   4.930
 3917SOL    HW112503   3.481   0.535   4.992
 3917SOL    HW212504   3.601   0.568   4.886
 3918SOL     OW12505   2.114   1.564   5.468
 3918SOL    HW112506   2.084   1.621   5.544
 3918SOL    HW212507   2.107   1.467   5.494
 3919SOL     OW12508   2.533   0.464   4.993
 3919SOL    HW112509   2.499   0.375   4.963
 3919SOL    HW212510   2.559   0.518   4.913
 3920SOL     OW12511   2.792   1.678   5.189
 3920SOL    HW112512   2.768   1.660   5.094
 3920SOL    HW212513   2.822   1.772   5.199
 3921SOL     OW12514   2.335   0.500   3.915
 3921SOL    HW112515   2.396   0.580   3.919
 3921SOL    HW212516   2.240   0.531   3.922
 3922SOL     OW12517   2.021   1.137   5.190
 3922SOL    HW112518   2.043   1.076   5.266
 3922SOL    HW212519   2.031   1.088   5.104
 3923SOL     OW12520   3.209   1.059   4.958
 3923SOL    HW112521   3.233   0.996   4.884
 3923SOL    HW212522   3.119   1.099   4.940
 3924SOL     OW12523   3.164   0.855   4.033
 3924SOL    HW112524   3.078   0.824   4.075
 3924SOL    HW212525   3.160   0.841   3.934
 3925SOL     OW12526   3.621   1.747   4.878
 3925SOL    HW112527   3.682   1.777   4.805
 3925SOL    HW212528   3.583   1.658   4.856
 3926SOL     OW12529   3.114   1.731   4.852
 3926SOL    HW112530   3.198   1.736   4.798
 3926SOL    HW212531   3.091   1.635   4.870
 3927SOL     OW12532   1.945   1.258   4.746
 3927SOL    HW112533   1.940   1.257   4.846
 3927SOL    HW212534   1.862   1.217   4.708
 3928SOL     OW12535   2.550   1.662   5.440
 3928SOL    HW112536   2.494   1.743   5.449
 3928SOL    HW212537   2.602   1.666   5.354
 3929SOL     OW12538   3.588   0.135   4.247
 3929SOL    HW112539   3.661   0.118   4.180
 3929SOL    HW212540   3.557   0.048   4.285
 3930SOL     OW12541   3.250   1.573   4.201
 3930SOL    HW112542   3.317   1.585   4.127
 3930SOL    HW212543   3.210   1.662   4.224
 3931SOL     OW12544   3.142   0.927   4.396
 3931SOL    HW112545   3.202   0.846   4.398
 3931SOL    HW212546   3.182   0.996   4.336
 3932SOL     OW12547   2.692   1.273   5.146
 3932SOL    HW112548   2.687   1.306   5.241
 3932SOL    HW212549   2.606   1.292   5.100
 3933SOL     OW12550   2.534   1.616   3.878
 3933SOL    HW112551   2.543   1.626   3.779
 3933SOL    HW212552   2.494   1.527   3.899
 3934SOL     OW12553   3.512   1.720   5.118
 3934SOL    HW112554   3.565   1.730   5.034
 3934SOL    HW212555   3.485   1.810   5.152
 3935SOL     OW12556   3.703   0.175   4.687
 3935SOL    HW112557   3.742   0.090   4.651
 3935SOL    HW212558   3.605   0.177   4.668
 3936SOL     OW12559   2.125   0.326   4.444
 3936SOL    HW112560   2.046   0.377   4.410
 3936SOL    HW212561   2.116   0.311   4.542
 3937SOL     OW12562   3.056   1.612   3.755
 3937SOL    HW112563   3.062   1.519   3.792
 3937SOL    HW212564   2.997   1.612   3.675
 3938SOL     OW12565   2.684   1.002   5.096
 3938SOL    HW112566   2.724   1.001   5.004
 3938SOL    HW212567   2.694   1.094   5.136
 3939SOL     OW12568   2.778   0.910   4.015
 3939SOL    HW112569   2.841   0.948   3.947
 3939SOL    HW212570   2.818   0.827   4.054
 3940SOL     OW12571   3.366   1.607   3.768
 3940SOL    HW112572   3.274   1.644   3.775
 3940SOL    HW212573   3.404   1.627   3.678
 3941SOL     OW12574   2.234   1.288   5.214
 3941SOL    HW112575   2.221   1.381   5.180
 3941SOL    HW212576   2.150   1.236   5.201
 3942SOL     OW12577   3.476   1.292   5.013
 3942SOL    HW112578   3.536   1.295   5.093
 3942SOL    HW212579   3.401   1.356   5.026
 3943SOL     OW12580   2.901   1.098   4.420
 3943SOL    HW112581   2.831   1.051   4.474
 3943SOL    HW212582   2.960   1.030   4.377
 3944SOL     OW12583   2.876   0.236   4.695
 3944SOL    HW112584   2.868   0.200   4.602
 3944SOL    HW212585   2.874   0.160   4.760
 3945SOL     OW12586   2.452   1.487   4.215
 3945SOL    HW112587   2.494   1.429   4.145
 3945SOL    HW212588   2.408   1.566   4.171
 3946SOL     OW12589   3.571   0.385   5.105
 3946SOL    HW112590   3.644   0.454   5.109
 3946SOL    HW212591   3.599   0.310   5.046
 3947SOL     OW12592   2.117   1.348   4.014
 3947SOL    HW112593   2.021   1.349   3.987
 3947SOL    HW212594   2.129   1.401   4.098
 3948SOL     OW12595   1.967   1.013   5.450
 3948SOL    HW112596   1.890   0.980   5.504
 3948SOL    HW212597   2.052   0.983   5.492
 3949SOL     OW12598   2.534   0.203   5.213
 3949SOL    HW112599   2.624   0.187   5.173
 3949SOL    HW212600   2.542   0.208   5.312
 3950SOL     OW12601   1.937   0.345   3.757
 3950SOL    HW112602   1.845   0.317   3.728
 3950SOL    HW212603   1.968   0.422   3.701
 3951SOL     OW12604   3.302   0.856   5.122
 3951SOL    HW112605   3.245   0.908   5.059
 3951SOL    HW212606   3.398   0.868   5.098
 3952SOL     OW12607   1.934   0.166   4.042
 3952SOL    HW112608   1.917   0.249   3.988
 3952SOL    HW212609   2.024   0.129   4.020
 3953SOL     OW12610   3.045   1.335   3.843
 3953SOL    HW112611   2.946   1.324   3.845
 3953SOL    HW212612   3.079   1.350   3.936
 3954SOL     OW12613   2.475   0.842   5.155
 3954SOL    HW112614   2.531   0.923   5.138
 3954SOL    HW212615   2.534   0.762   5.158
 3955SOL     OW12616   3.355   1.767   4.683
 3955SOL    HW112617   3.388   1.831   4.614
 3955SOL    HW212618   3.421   1.761   4.758
 3956SOL     OW12619   2.578   0.565   5.432
 3956SOL    HW112620   2.597   0.630   5.506
 3956SOL    HW212621   2.638   0.485   5.441
 3957SOL     OW12622   3.312   1.220   5.357
 3957SOL    HW112623   3.303   1.210   5.456
 3957SOL    HW212624   3.408   1.213   5.331
 3958SOL     OW12625   2.252   1.741   5.284
 3958SOL    HW112626   2.161   1.782   5.282
 3958SOL    HW212627   2.245   1.647   5.316
 3959SOL     OW12628   3.536   0.883   4.978
 3959SOL    HW112629   3.509   0.794   4.941
 3959SOL    HW212630   3.537   0.951   4.905
 3960SOL     OW12631   3.087   0.325   4.173
 3960SOL    HW112632   3.152   0.251   4.162
 3960SOL    HW212633   3.107   0.375   4.257
 3961SOL     OW12634   2.456   0.745   4.376
 3961SOL    HW112635   2.506   0.830   4.357
 3961SOL    HW212636   2.368   0.747   4.328
 3962SOL     OW12637   3.639   0.342   5.366
 3962SOL    HW112638   3.622   0.373   5.272
 3962SOL    HW212639   3.555   0.305   5.404
 3963SOL     OW12640   3.592   0.934   5.241
 3963SOL    HW112641   3.630   1.025   5.256
 3963SOL    HW212642   3.584   0.917   5.142
 3964SOL     OW12643   2.721   1.374   3.740
 3964SOL    HW112644   2.675   1.389   3.828
 3964SOL    HW212645   2.765   1.459   3.710
 3965SOL     OW12646   2.523   1.790   4.677
 3965SOL    HW112647   2.477   1.878   4.664
 3965SOL    HW212648   2.622   1.802   4.670
 3966SOL     OW12649   2.721   0.956   4.585
 3966SOL    HW112650   2.775   0.887   4.633
 3966SOL    HW212651   2.689   1.025   4.651
 3967SOL     OW12652   2.945   0.984   3.811
 3967SOL    HW112653   2.922   1.037   3.729
 3967SOL    HW212654   3.026   0.928   3.792
 3968SOL     OW12655   3.723   1.569   4.575
 3968SOL    HW112656   3.652   1.557   4.505
 3968SOL    HW212657   3.724   1.490   4.635
 3969SOL     OW12658   2.083   1.314   5.568
 3969SOL    HW112659   2.018   1.241   5.547
 3969SOL    HW212660   2.087   1.328   5.666
 3970SOL     OW12661   1.941   1.240   4.377
 3970SOL    HW112662   1.940   1.193   4.465
 3970SOL    HW212663   2.023   1.212   4.326
 3971SOL     OW12664   2.534   1.391   5.348
 3971SOL    HW112665   2.456   1.341   5.386
 3971SOL    HW212666   2.531   1.486   5.379
 3972SOL     OW12667   3.686   0.192   4.951
 3972SOL    HW112668   3.682   0.102   4.995
 3972SOL    HW212669   3.689   0.181   4.852
 3973SOL     OW12670   2.290   0.424   4.244
 3973SOL    HW112671   2.320   0.352   4.182
 3973SOL    HW212672   2.251   0.384   4.327
 3974SOL     OW12673   3.567   1.487   4.828
 3974SOL    HW112674   3.474   1.462   4.801
 3974SOL    HW212675   3.593   1.437   4.910
 3975SOL     OW12676   2.179   0.547   5.004
 3975SOL    HW112677   2.217   0.488   5.076
 3975SOL    HW212678   2.219   0.521   4.916
 3976SOL     OW12679   2.674   1.586   4.411
 3976SOL    HW112680   2.706   1.596   4.317
 3976SOL    HW212681   2.595   1.524   4.413
 3977SOL     OW12682   3.286   0.214   4.836
 3977SOL    HW112683   3.338   0.149   4.891
 3977SOL    HW212684   3.237   0.277   4.897
 3978SOL     OW12685   2.863   0.034   4.878
 3978SOL    HW112686   2.800  -0.038   4.847
 3978SOL    HW212687   2.956  -0.002   4.878
 3979SOL     OW12688   2.632   1.330   4.025
 3979SOL    HW112689   2.586   1.243   4.042
 3979SOL    HW212690   2.723   1.327   4.066
 3980SOL     OW12691   2.480   1.567   5.008
 3980SOL    HW112692   2.475   1.649   5.065
 3980SOL    HW212693   2.569   1.564   4.963
 3981SOL     OW12694   3.214   0.052   3.892
 3981SOL    HW112695   3.249   0.011   3.808
 3981SOL    HW212696   3.124   0.014   3.912
 3982SOL     OW12697   3.162   0.453   4.415
 3982SOL    HW112698   3.103   0.533   4.419
 3982SOL    HW212699   3.177   0.418   4.508
 3983SOL     OW12700   3.455   0.221   4.606
 3983SOL    HW112701   3.371   0.220   4.660
 3983SOL    HW212702   3.457   0.304   4.550
 3984SOL     OW12703   1.901   1.077   4.024
 3984SOL    HW112704   2.000   1.066   4.015
 3984SOL    HW212705   1.861   0.991   4.056
 3985SOL     OW12706   2.737   1.646   4.061
 3985SOL    HW112707   2.660   1.611   4.007
 3985SOL    HW212708   2.705   1.717   4.123
 3986SOL     OW12709   2.092   0.628   5.699
 3986SOL    HW112710   1.999   0.626   5.736
 3986SOL    HW212711   2.093   0.589   5.607
 3987SOL     OW12712   2.087   0.275   6.582
 3987SOL    HW112713   2.122   0.258   6.674
 3987SOL    HW212714   1.999   0.230   6.570
 3988SOL     OW12715   1.881   0.368   6.233
 3988SOL    HW112716   1.799   0.411   6.272
 3988SOL    HW212717   1.853   0.295   6.170
 3989SOL     OW12718   2.431   1.275   6.751
 3989SOL    HW112719   2.338   1.268   6.714
 3989SOL    HW212720   2.442   1.364   6.795
 3990SOL     OW12721   3.417   1.511   6.289
 3990SOL    HW112722   3.360   1.495   6.370
 3990SOL    HW212723   3.358   1.521   6.209
 3991SOL     OW12724   2.997   0.703   6.303
 3991SOL    HW112725   3.054   0.781   6.278
 3991SOL    HW212726   2.937   0.729   6.379
 3992SOL     OW12727   3.617   0.607   5.817
 3992SOL    HW112728   3.605   0.594   5.718
 3992SOL    HW212729   3.587   0.526   5.866
 3993SOL     OW12730   2.630   1.144   6.609
 3993SOL    HW112731   2.552   1.161   6.669
 3993SOL    HW212732   2.664   1.231   6.573
 3994SOL     OW12733   2.712   0.798   7.409
 3994SOL    HW112734   2.708   0.874   7.474
 3994SOL    HW212735   2.734   0.834   7.318
 3995SOL     OW12736   2.547   1.012   6.251
 3995SOL    HW112737   2.616   0.996   6.321
 3995SOL    HW212738   2.474   1.069   6.289
 3996SOL     OW12739   2.548   1.161   7.389
 3996SOL    HW112740   2.608   1.240   7.403
 3996SOL    HW212741   2.462   1.192   7.348
 3997SOL     OW12742   3.322   1.505   6.925
 3997SOL    HW112743   3.346   1.599   6.951
 3997SOL    HW212744   3.306   1.451   7.007
 3998SOL     OW12745   2.300   0.392   7.085
 3998SOL    HW112746   2.382   0.336   7.094
 3998SOL    HW212747   2.219   0.334   7.089
 3999SOL     OW12748   3.465   0.447   6.323
 3999SOL    HW112749   3.391   0.493   6.273
 3999SOL    HW212750   3.516   0.515   6.376
 4000SOL     OW12751   2.093   1.713   6.069
 4000SOL    HW112752   2.127   1.790   6.123
 4000SOL    HW212753   2.137   1.713   5.979
 4001SOL     OW12754   2.989   1.341   7.276
 4001SOL    HW112755   3.036   1.341   7.364
 4001SOL    HW212756   2.941   1.254   7.265
 4002SOL     OW12757   2.102   1.091   6.472
 4002SOL    HW112758   2.116   1.007   6.524
 4002SOL    HW212759   2.047   1.155   6.527
 4003SOL     OW12760   2.482   1.786   7.025
 4003SOL    HW112761   2.390   1.769   7.060
 4003SOL    HW212762   2.510   1.878   7.051
 4004SOL     OW12763   2.468   0.964   5.709
 4004SOL    HW112764   2.475   1.048   5.655
 4004SOL    HW212765   2.514   0.977   5.797
 4005SOL     OW12766   3.456   0.114   7.066
 4005SOL    HW112767   3.438   0.181   6.994
 4005SOL    HW212768   3.453   0.160   7.155
 4006SOL     OW12769   1.984   0.643   6.149
 4006SOL    HW112770   1.939   0.555   6.166
 4006SOL    HW212771   1.983   0.697   6.233
 4007SOL     OW12772   3.704   1.767   5.945
 4007SOL    HW112773   3.758   1.738   6.025
 4007SOL    HW212774   3.734   1.857   5.916
 4008SOL     OW12775   1.889   1.596   5.703
 4008SOL    HW112776   1.870   1.500   5.724
 4008SOL    HW212777   1.856   1.654   5.778
 4009SOL     OW12778   3.551   0.922   6.198
 4009SOL    HW112779   3.646   0.893   6.206
 4009SOL    HW212780   3.543   0.987   6.123
 4010SOL     OW12781   3.503   1.108   6.018
 4010SOL    HW112782   3.589   1.110   5.966
 4010SOL    HW212783   3.517   1.155   6.106
 4011SOL     OW12784   1.975   0.737   7.183
 4011SOL    HW112785   2.063   0.724   7.228
 4011SOL    HW212786   1.962   0.834   7.161
 4012SOL     OW12787   3.155   1.228   7.009
 4012SOL    HW112788   3.192   1.155   6.951
 4012SOL    HW212789   3.207   1.233   7.094
 4013SOL     OW12790   2.671   0.004   6.088
 4013SOL    HW112791   2.711   0.095   6.079
 4013SOL    HW212792   2.571   0.012   6.094
 4014SOL     OW12793   2.059   0.976   6.850
 4014SOL    HW112794   2.148   0.931   6.836
 4014SOL    HW212795   1.986   0.911   6.831
 4015SOL     OW12796   3.387   0.999   5.776
 4015SOL    HW112797   3.324   0.923   5.789
 4015SOL    HW212798   3.435   1.017   5.862
 4016SOL     OW12799   3.049   1.792   7.202
 4016SOL    HW112800   3.073   1.852   7.126
 4016SOL    HW212801   3.056   1.697   7.172
 4017SOL     OW12802   2.179   0.251   7.387
 4017SOL    HW112803   2.250   0.322   7.393
 4017SOL    HW212804   2.091   0.290   7.415
 4018SOL     OW12805   3.328   1.417   6.539
 4018SOL    HW112806   3.269   1.423   6.619
 4018SOL    HW212807   3.313   1.329   6.493
 4019SOL     OW12808   3.529   1.714   6.158
 4019SOL    HW112809   3.488   1.691   6.070
 4019SOL    HW212810   3.511   1.640   6.223
 4020SOL     OW12811   2.460   0.729   5.856
 4020SOL    HW112812   2.484   0.798   5.788
 4020SOL    HW212813   2.382   0.762   5.910
 4021SOL     OW12814   3.143   0.345   6.530
 4021SOL    HW112815   3.057   0.295   6.517
 4021SOL    HW212816   3.205   0.291   6.586
 4022SOL     OW12817   3.438   1.662   5.893
 4022SOL    HW112818   3.527   1.708   5.896
 4022SOL    HW212819   3.417   1.638   5.798
 4023SOL     OW12820   2.669   0.605   7.051
 4023SOL    HW112821   2.622   0.602   7.140
 4023SOL    HW212822   2.618   0.550   6.985
 4024SOL     OW12823   3.256   0.469   7.260
 4024SOL    HW112824   3.236   0.512   7.348
 4024SOL    HW212825   3.334   0.407   7.269
 4025SOL     OW12826   2.835   0.890   7.158
 4025SOL    HW112827   2.881   0.806   7.129
 4025SOL    HW212828   2.779   0.924   7.083
 4026SOL     OW12829   2.853   0.410   6.828
 4026SOL    HW112830   2.776   0.444   6.882
 4026SOL    HW212831   2.819   0.359   6.749
 4027SOL     OW12832   2.903   0.701   6.015
 4027SOL    HW112833   2.929   0.697   6.111
 4027SOL    HW212834   2.818   0.650   6.001
 4028SOL     OW12835   1.938   0.811   6.375
 4028SOL    HW112836   2.037   0.799   6.384
 4028SOL    HW212837   1.914   0.906   6.396
 4029SOL     OW12838   2.727   0.348   5.781
 4029SOL    HW112839   2.786   0.411   5.732
 4029SOL    HW212840   2.746   0.254   5.752
 4030SOL     OW12841   3.581   0.585   7.417
 4030SOL    HW112842   3.555   0.674   7.381
 4030SOL    HW212843   3.579   0.517   7.344
 4031SOL     OW12844   3.224   1.144   6.131
 4031SOL    HW112845   3.307   1.115   6.083
 4031SOL    HW212846   3.175   1.211   6.075
 4032SOL     OW12847   2.412   0.196   6.471
 4032SOL    HW112848   2.407   0.191   6.571
 4032SOL    HW212849   2.414   0.292   6.442
 4033SOL     OW12850   2.870   1.456   6.063
 4033SOL    HW112851   2.824   1.528   6.011
 4033SOL    HW212852   2.866   1.476   6.161
 4034SOL     OW12853   2.213   1.801   6.439
 4034SOL    HW112854   2.263   1.715   6.445
 4034SOL    HW212855   2.278   1.878   6.436
 4035SOL     OW12856   3.657   1.066   6.459
 4035SOL    HW112857   3.595   1.051   6.383
 4035SOL    HW212858   3.605   1.077   6.544
 4036SOL     OW12859   3.089   1.550   7.092
 4036SOL    HW112860   3.095   1.473   7.156
 4036SOL    HW212861   3.037   1.524   7.012
 4037SOL     OW12862   2.183   0.943   5.828
 4037SOL    HW112863   2.265   0.982   5.786
 4037SOL    HW212864   2.156   0.861   5.779
 4038SOL     OW12865   3.320   0.735   6.314
 4038SOL    HW112866   3.315   0.670   6.389
 4038SOL    HW212867   3.400   0.794   6.327
 4039SOL     OW12868   2.973   1.776   5.823
 4039SOL    HW112869   2.913   1.714   5.873
 4039SOL    HW212870   3.004   1.732   5.738
 4040SOL     OW12871   2.064   0.285   7.084
 4040SOL    HW112872   1.984   0.345   7.071
 4040SOL    HW212873   2.054   0.236   7.170
 4041SOL     OW12874   3.494   1.377   5.667
 4041SOL    HW112875   3.462   1.471   5.657
 4041SOL    HW212876   3.418   1.314   5.655
 4042SOL     OW12877   2.326   1.743   5.909
 4042SOL    HW112878   2.359   1.782   5.995
 4042SOL    HW212879   2.402   1.736   5.844
 4043SOL     OW12880   3.262   0.107   6.012
 4043SOL    HW112881   3.238   0.070   5.922
 4043SOL    HW212882   3.361   0.123   6.016
 4044SOL     OW12883   2.111   1.785   6.827
 4044SOL    HW112884   2.168   1.720   6.877
 4044SOL    HW212885   2.095   1.752   6.734
 4045SOL     OW12886   2.244   0.700   6.066
 4045SOL    HW112887   2.289   0.610   6.063
 4045SOL    HW212888   2.150   0.689   6.099
 4046SOL     OW12889   3.409   0.222   7.315
 4046SOL    HW112890   3.404   0.259   7.407
 4046SOL    HW212891   3.337   0.153   7.303
 4047SOL     OW12892   2.476   0.122   5.703
 4047SOL    HW112893   2.574   0.100   5.710
 4047SOL    HW212894   2.445   0.105   5.610
 4048SOL     OW12895   2.643   0.264   7.335
 4048SOL    HW112896   2.710   0.203   7.378
 4048SOL    HW212897   2.570   0.283   7.400
 4049SOL     OW12898   3.213   0.590   7.019
 4049SOL    HW112899   3.241   0.547   7.104
 4049SOL    HW212900   3.238   0.686   7.020
 4050SOL     OW12901   2.784   0.503   6.485
 4050SOL    HW112902   2.759   0.494   6.389
 4050SOL    HW212903   2.832   0.421   6.516
 4051SOL     OW12904   2.401   0.064   6.098
 4051SOL    HW112905   2.320   0.065   6.156
 4051SOL    HW212906   2.404   0.147   6.043
 4052SOL     OW12907   3.296   1.188   5.627
 4052SOL    HW112908   3.328   1.112   5.684
 4052SOL    HW212909   3.204   1.215   5.657
 4053SOL     OW12910   2.159   0.035   5.757
 4053SOL    HW112911   2.208   0.119   5.736
 4053SOL    HW212912   2.221  -0.030   5.802
 4054SOL     OW12913   2.797   0.236   6.066
 4054SOL    HW112914   2.749   0.277   5.988
 4054SOL    HW212915   2.896   0.234   6.047
 4055SOL     OW12916   2.938   0.683   7.050
 4055SOL    HW112917   2.858   0.622   7.053
 4055SOL    HW212918   3.019   0.630   7.026
 4056SOL     OW12919   3.089   1.570   6.379
 4056SOL    HW112920   3.110   1.644   6.314
 4056SOL    HW212921   3.157   1.570   6.452
 4057SOL     OW12922   3.133   1.797   6.177
 4057SOL    HW112923   3.177   1.861   6.113
 4057SOL    HW212924   3.083   1.849   6.247
 4058SOL     OW12925   2.894   0.549   5.602
 4058SOL    HW112926   2.853   0.631   5.563
 4058SOL    HW212927   2.958   0.575   5.675
 4059SOL     OW12928   1.940   0.556   6.972
 4059SOL    HW112929   2.032   0.555   6.931
 4059SOL    HW212930   1.934   0.630   7.039
 4060SOL     OW12931   2.423   0.222   6.733
 4060SOL    HW112932   2.461   0.138   6.770
 4060SOL    HW212933   2.335   0.241   6.777
 4061SOL     OW12934   2.728   0.454   6.228
 4061SOL    HW112935   2.696   0.526   6.166
 4061SOL    HW212936   2.752   0.373   6.175
 4062SOL     OW12937   2.879   0.039   6.339
 4062SOL    HW112938   2.807   0.044   6.270
 4062SOL    HW212939   2.855  -0.030   6.408
 4063SOL     OW12940   3.291   1.173   6.453
 4063SOL    HW112941   3.236   1.089   6.446
 4063SOL    HW212942   3.317   1.202   6.361
 4064SOL     OW12943   3.328   0.590   6.578
 4064SOL    HW112944   3.298   0.495   6.585
 4064SOL    HW212945   3.401   0.606   6.644
 4065SOL     OW12946   3.719   0.833   5.963
 4065SOL    HW112947   3.761   0.769   6.027
 4065SOL    HW212948   3.681   0.782   5.885
 4066SOL     OW12949   2.350   1.385   5.760
 4066SOL    HW112950   2.263   1.370   5.807
 4066SOL    HW212951   2.333   1.411   5.665
 4067SOL     OW12952   3.526   1.280   6.243
 4067SOL    HW112953   3.625   1.288   6.257
 4067SOL    HW212954   3.481   1.364   6.274
 4068SOL     OW12955   3.252   0.575   5.664
 4068SOL    HW112956   3.198   0.554   5.745
 4068SOL    HW212957   3.343   0.534   5.673
 4069SOL     OW12958   2.389   0.256   5.914
 4069SOL    HW112959   2.416   0.197   5.839
 4069SOL    HW212960   2.389   0.351   5.883
 4070SOL     OW12961   3.616   1.223   7.174
 4070SOL    HW112962   3.707   1.184   7.161
 4070SOL    HW212963   3.624   1.319   7.198
 4071SOL     OW12964   2.926   1.347   6.926
 4071SOL    HW112965   2.846   1.324   6.981
 4071SOL    HW212966   3.009   1.321   6.975
 4072SOL     OW12967   3.454   1.629   7.211
 4072SOL    HW112968   3.481   1.663   7.121
 4072SOL    HW212969   3.533   1.591   7.257
 4073SOL     OW12970   2.973   1.195   6.686
 4073SOL    HW112971   2.933   1.239   6.767
 4073SOL    HW212972   2.932   1.232   6.603
 4074SOL     OW12973   3.500   1.099   6.665
 4074SOL    HW112974   3.505   1.180   6.724
 4074SOL    HW212975   3.414   1.101   6.614
 4075SOL     OW12976   2.777   0.089   6.988
 4075SOL    HW112977   2.802   0.069   6.893
 4075SOL    HW212978   2.849   0.145   7.030
 4076SOL     OW12979   2.842   1.116   7.305
 4076SOL    HW112980   2.743   1.122   7.315
 4076SOL    HW212981   2.865   1.036   7.249
 4077SOL     OW12982   2.567   1.050   5.954
 4077SOL    HW112983   2.553   1.057   6.053
 4077SOL    HW212984   2.651   0.999   5.936
 4078SOL     OW12985   2.272   0.813   6.837
 4078SOL    HW112986   2.358   0.825   6.887
 4078SOL    HW212987   2.230   0.726   6.864
 4079SOL     OW12988   3.136   0.386   6.848
 4079SOL    HW112989   3.157   0.460   6.912
 4079SOL    HW212990   3.047   0.403   6.805
 4080SOL     OW12991   2.229   1.100   6.087
 4080SOL    HW112992   2.222   1.183   6.031
 4080SOL    HW212993   2.233   1.020   6.027
 4081SOL     OW12994   2.428   0.537   6.451
 4081SOL    HW112995   2.440   0.603   6.377
 4081SOL    HW212996   2.474   0.571   6.534
 4082SOL     OW12997   3.114   1.348   5.974
 4082SOL    HW112998   3.164   1.425   6.014
 4082SOL    HW212999   3.019   1.350   6.006
 4083SOL     OW13000   3.134   1.445   6.728
 4083SOL    HW113001   3.181   1.458   6.815
 4083SOL    HW213002   3.068   1.371   6.737
 4084SOL     OW13003   3.444   0.639   6.058
 4084SOL    HW113004   3.413   0.700   6.131
 4084SOL    HW213005   3.494   0.691   5.989
 4085SOL     OW13006   2.216   1.510   6.915
 4085SOL    HW113007   2.195   1.466   6.828
 4085SOL    HW213008   2.313   1.536   6.918
 4086SOL     OW13009   2.264   0.751   7.184
 4086SOL    HW113010   2.332   0.806   7.137
 4086SOL    HW213011   2.304   0.663   7.211
 4087SOL     OW13012   3.449   0.779   7.256
 4087SOL    HW113013   3.357   0.817   7.251
 4087SOL    HW213014   3.509   0.826   7.191
 4088SOL     OW13015   2.875   0.105   7.356
 4088SOL    HW113016   2.881   0.190   7.304
 4088SOL    HW213017   2.907   0.029   7.299
 4089SOL     OW13018   2.366   0.050   7.326
 4089SOL    HW113019   2.324  -0.007   7.256
 4089SOL    HW213020   2.300   0.119   7.358
 4090SOL     OW13021   2.435   0.870   6.615
 4090SOL    HW113022   2.479   0.959   6.606
 4090SOL    HW213023   2.372   0.870   6.692
 4091SOL     OW13024   3.222   0.862   6.631
 4091SOL    HW113025   3.147   0.862   6.565
 4091SOL    HW213026   3.259   0.770   6.640
 4092SOL     OW13027   3.071   0.525   5.861
 4092SOL    HW113028   3.084   0.441   5.915
 4092SOL    HW213029   3.042   0.599   5.921
 4093SOL     OW13030   2.169   0.213   6.817
 4093SOL    HW113031   2.146   0.250   6.907
 4093SOL    HW213032   2.139   0.118   6.811
 4094SOL     OW13033   1.899   1.310   6.868
 4094SOL    HW113034   1.952   1.261   6.936
 4094SOL    HW213035   1.921   1.408   6.873
 4095SOL     OW13036   2.594   0.634   6.650
 4095SOL    HW113037   2.653   0.608   6.574
 4095SOL    HW213038   2.566   0.730   6.639
 4096SOL     OW13039   3.590   0.935   7.440
 4096SOL    HW113040   3.544   0.928   7.351
 4096SOL    HW213041   3.528   0.979   7.506
 4097SOL     OW13042   2.169   0.063   6.204
 4097SOL    HW113043   2.158   0.157   6.237
 4097SOL    HW213044   2.164   0.000   6.281
 4098SOL     OW13045   3.484   0.367   5.960
 4098SOL    HW113046   3.486   0.291   6.024
 4098SOL    HW213047   3.436   0.444   6.000
 4099SOL     OW13048   2.885   0.766   6.552
 4099SOL    HW113049   2.900   0.787   6.648
 4099SOL    HW213050   2.855   0.671   6.543
 4100SOL     OW13051   2.842   1.573   7.286
 4100SOL    HW113052   2.822   1.617   7.198
 4100SOL    HW213053   2.881   1.482   7.270
 4101SOL     OW13054   3.721   1.518   7.191
 4101SOL    HW113055   3.735   1.545   7.096
 4101SOL    HW213056   3.804   1.540   7.244
 4102SOL     OW13057   2.212   0.898   7.390
 4102SOL    HW113058   2.288   0.942   7.438
 4102SOL    HW213059   2.247   0.851   7.308
 4103SOL     OW13060   3.402   0.274   5.711
 4103SOL    HW113061   3.341   0.199   5.734
 4103SOL    HW213062   3.424   0.326   5.794
 4104SOL     OW13063   3.165   0.838   5.628
 4104SOL    HW113064   3.199   0.745   5.643
 4104SOL    HW213065   3.183   0.865   5.533
 4105SOL     OW13066   2.930   1.333   6.435
 4105SOL    HW113067   2.937   1.249   6.380
 4105SOL    HW213068   2.992   1.402   6.399
 4106SOL     OW13069   2.181   0.810   6.535
 4106SOL    HW113070   2.274   0.846   6.540
 4106SOL    HW213071   2.175   0.725   6.587
 4107SOL     OW13072   2.201   0.509   6.592
 4107SOL    HW113073   2.149   0.426   6.575
 4107SOL    HW213074   2.278   0.514   6.528
 4108SOL     OW13075   3.000   0.380   7.264
 4108SOL    HW113076   2.955   0.443   7.328
 4108SOL    HW213077   3.093   0.411   7.247
 4109SOL     OW13078   3.022   0.207   7.063
 4109SOL    HW113079   3.022   0.271   7.140
 4109SOL    HW213080   3.050   0.255   6.980
 4110SOL     OW13081   1.870   1.326   5.786
 4110SOL    HW113082   1.777   1.347   5.755
 4110SOL    HW213083   1.880   1.227   5.799
 4111SOL     OW13084   2.864   0.796   6.824
 4111SOL    HW113085   2.905   0.764   6.910
 4111SOL    HW213086   2.768   0.769   6.821
 4112SOL     OW13087   1.902   0.544   6.700
 4112SOL    HW113088   1.987   0.511   6.659
 4112SOL    HW213089   1.915   0.559   6.798
 4113SOL     OW13090   2.051   0.520   7.308
 4113SOL    HW113091   2.110   0.480   7.238
 4113SOL    HW213092   1.993   0.591   7.267
 4114SOL     OW13093   3.231   0.950   7.246
 4114SOL    HW113094   3.270   1.039   7.266
 4114SOL    HW213095   3.241   0.930   7.149
 4115SOL     OW13096   2.677   0.572   5.911
 4115SOL    HW113097   2.684   0.483   5.865
 4115SOL    HW213098   2.583   0.606   5.903
 4116SOL     OW13099   3.519   0.604   6.792
 4116SOL    HW113100   3.481   0.535   6.854
 4116SOL    HW213101   3.601   0.568   6.748
 4117SOL     OW13102   2.533   0.464   6.855
 4117SOL    HW113103   2.499   0.375   6.825
 4117SOL    HW213104   2.559   0.518   6.775
 4118SOL     OW13105   2.792   1.678   7.051
 4118SOL    HW113106   2.768   1.660   6.956
 4118SOL    HW213107   2.822   1.772   7.061
 4119SOL     OW13108   2.335   0.500   5.777
 4119SOL    HW113109   2.396   0.580   5.781
 4119SOL    HW213110   2.240   0.531   5.784
 4120SOL     OW13111   2.021   1.137   7.052
 4120SOL    HW113112   2.043   1.076   7.128
 4120SOL    HW213113   2.031   1.088   6.966
 4121SOL     OW13114   3.209   1.059   6.820
 4121SOL    HW113115   3.233   0.996   6.746
 4121SOL    HW213116   3.119   1.099   6.802
 4122SOL     OW13117   3.164   0.855   5.895
 4122SOL    HW113118   3.078   0.824   5.937
 4122SOL    HW213119   3.160   0.841   5.796
 4123SOL     OW13120   3.621   1.747   6.740
 4123SOL    HW113121   3.682   1.777   6.667
 4123SOL    HW213122   3.583   1.658   6.718
 4124SOL     OW13123   3.114   1.731   6.714
 4124SOL    HW113124   3.198   1.736   6.660
 4124SOL    HW213125   3.091   1.635   6.732
 4125SOL     OW13126   3.588   0.135   6.109
 4125SOL    HW113127   3.661   0.118   6.042
 4125SOL    HW213128   3.557   0.048   6.147
 4126SOL     OW13129   3.250   1.573   6.063
 4126SOL    HW113130   3.317   1.585   5.989
 4126SOL    HW213131   3.210   1.662   6.086
 4127SOL     OW13132   3.142   0.927   6.258
 4127SOL    HW113133   3.202   0.846   6.260
 4127SOL    HW213134   3.182   0.996   6.198
 4128SOL     OW13135   2.692   1.273   7.008
 4128SOL    HW113136   2.687   1.306   7.103
 4128SOL    HW213137   2.606   1.292   6.962
 4129SOL     OW13138   2.534   1.616   5.740
 4129SOL    HW113139   2.543   1.626   5.641
 4129SOL    HW213140   2.494   1.527   5.761
 4130SOL     OW13141   3.512   1.720   6.980
 4130SOL    HW113142   3.565   1.730   6.896
 4130SOL    HW213143   3.485   1.810   7.014
 4131SOL     OW13144   3.703   0.175   6.549
 4131SOL    HW113145   3.742   0.090   6.513
 4131SOL    HW213146   3.605   0.177   6.530
 4132SOL     OW13147   2.125   0.326   6.306
 4132SOL    HW113148   2.046   0.377   6.272
 4132SOL    HW213149   2.116   0.311   6.404
 4133SOL     OW13150   3.056   1.612   5.617
 4133SOL    HW113151   3.062   1.519   5.654
 4133SOL    HW213152   2.997   1.612   5.537
 4134SOL     OW13153   2.684   1.002   6.958
 4134SOL    HW113154   2.724   1.001   6.866
 4134SOL    HW213155   2.694   1.094   6.998
 4135SOL     OW13156   2.778   0.910   5.877
 4135SOL    HW113157   2.841   0.948   5.809
 4135SOL    HW213158   2.818   0.827   5.916
 4136SOL     OW13159   3.366   1.607   5.630
 4136SOL    HW113160   3.274   1.644   5.637
 4136SOL    HW213161   3.404   1.627   5.540
 4137SOL     OW13162   2.234   1.288   7.076
 4137SOL    HW113163   2.221   1.381   7.042
 4137SOL    HW213164   2.150   1.236   7.063
 4138SOL     OW13165   3.476   1.292   6.875
 4138SOL    HW113166   3.536   1.295   6.955
 4138SOL    HW213167   3.401   1.356   6.888
 4139SOL     OW13168   2.901   1.098   6.282
 4139SOL    HW113169   2.831   1.051   6.336
 4139SOL    HW213170   2.960   1.030   6.239
 4140SOL     OW13171   2.876   0.236   6.557
 4140SOL    HW113172   2.868   0.200   6.464
 4140SOL    HW213173   2.874   0.160   6.622
 4141SOL     OW13174   3.571   0.385   6.967
 4141SOL    HW113175   3.644   0.454   6.971
 4141SOL    HW213176   3.599   0.310   6.908
 4142SOL     OW13177   2.117   1.348   5.876
 4142SOL    HW113178   2.021   1.349   5.849
 4142SOL    HW213179   2.129   1.401   5.960
 4143SOL     OW13180   1.967   1.013   7.312
 4143SOL    HW113181   1.890   0.980   7.366
 4143SOL    HW213182   2.052   0.983   7.354
 4144SOL     OW13183   2.534   0.203   7.075
 4144SOL    HW113184   2.624   0.187   7.035
 4144SOL    HW213185   2.542   0.208   7.174
 4145SOL     OW13186   1.937   0.345   5.619
 4145SOL    HW113187   1.845   0.317   5.590
 4145SOL    HW213188   1.968   0.422   5.563
 4146SOL     OW13189   3.302   0.856   6.984
 4146SOL    HW113190   3.245   0.908   6.921
 4146SOL    HW213191   3.398   0.868   6.960
 4147SOL     OW13192   1.934   0.166   5.904
 4147SOL    HW113193   1.917   0.249   5.850
 4147SOL    HW213194   2.024   0.129   5.882
 4148SOL     OW13195   3.045   1.335   5.705
 4148SOL    HW113196   2.946   1.324   5.707
 4148SOL    HW213197   3.079   1.350   5.798
 4149SOL     OW13198   2.475   0.842   7.017
 4149SOL    HW113199   2.531   0.923   7.000
 4149SOL    HW213200   2.534   0.762   7.020
 4150SOL     OW13201   3.355   1.767   6.545
 4150SOL    HW113202   3.388   1.831   6.476
 4150SOL    HW213203   3.421   1.761   6.620
 4151SOL     OW13204   2.578   0.565   7.294
 4151SOL    HW113205   2.597   0.630   7.368
 4151SOL    HW213206   2.638   0.485   7.303
 4152SOL     OW13207   3.312   1.220   7.219
 4152SOL    HW113208   3.303   1.210   7.318
 4152SOL    HW213209   3.408   1.213   7.193
 4153SOL     OW13210   3.536   0.883   6.840
 4153SOL    HW113211   3.509   0.794   6.803
 4153SOL    HW213212   3.537   0.951   6.767
 4154SOL     OW13213   3.087   0.325   6.035
 4154SOL    HW113214   3.152   0.251   6.024
 4154SOL    HW213215   3.107   0.375   6.119
 4155SOL     OW13216   2.456   0.745   6.238
 4155SOL    HW113217   2.506   0.830   6.219
 4155SOL    HW213218   2.368   0.747   6.190
 4156SOL     OW13219   3.639   0.342   7.228
 4156SOL    HW113220   3.622   0.373   7.134
 4156SOL    HW213221   3.555   0.305   7.266
 4157SOL     OW13222   3.592   0.934   7.103
 4157SOL    HW113223   3.630   1.025   7.118
 4157SOL    HW213224   3.584   0.917   7.004
 4158SOL     OW13225   2.721   1.374   5.602
 4158SOL    HW113226   2.675   1.389   5.690
 4158SOL    HW213227   2.765   1.459   5.572
 4159SOL     OW13228   2.721   0.956   6.447
 4159SOL    HW113229   2.775   0.887   6.495
 4159SOL    HW213230   2.689   1.025   6.513
 4160SOL     OW13231   2.945   0.984   5.673
 4160SOL    HW113232   2.922   1.037   5.591
 4160SOL    HW213233   3.026   0.928   5.654
 4161SOL     OW13234   3.723   1.569   6.437
 4161SOL    HW113235   3.652   1.557   6.367
 4161SOL    HW213236   3.724   1.490   6.497
 4162SOL     OW13237   3.686   0.192   6.813
 4162SOL    HW113238   3.682   0.102   6.857
 4162SOL    HW213239   3.689   0.181   6.714
 4163SOL     OW13240   2.290   0.424   6.106
 4163SOL    HW113241   2.320   0.352   6.044
 4163SOL    HW213242   2.251   0.384   6.189
 4164SOL     OW13243   3.567   1.487   6.690
 4164SOL    HW113244   3.474   1.462   6.663
 4164SOL    HW213245   3.593   1.437   6.772
 4165SOL     OW13246   2.179   0.547   6.866
 4165SOL    HW113247   2.217   0.488   6.938
 4165SOL    HW213248   2.219   0.521   6.778
 4166SOL     OW13249   3.286   0.214   6.698
 4166SOL    HW113250   3.338   0.149   6.753
 4166SOL    HW213251   3.237   0.277   6.759
 4167SOL     OW13252   2.863   0.034   6.740
 4167SOL    HW113253   2.800  -0.038   6.709
 4167SOL    HW213254   2.956  -0.002   6.740
 4168SOL     OW13255   2.632   1.330   5.887
 4168SOL    HW113256   2.586   1.243   5.904
 4168SOL    HW213257   2.723   1.327   5.928
 4169SOL     OW13258   3.214   0.052   5.754
 4169SOL    HW113259   3.249   0.011   5.670
 4169SOL    HW213260   3.124   0.014   5.774
 4170SOL     OW13261   3.162   0.453   6.277
 4170SOL    HW113262   3.103   0.533   6.281
 4170SOL    HW213263   3.177   0.418   6.370
 4171SOL     OW13264   3.455   0.221   6.468
 4171SOL    HW113265   3.371   0.220   6.522
 4171SOL    HW213266   3.457   0.304   6.412
 4172SOL     OW13267   1.901   1.077   5.886
 4172SOL    HW113268   2.000   1.066   5.877
 4172SOL    HW213269   1.861   0.991   5.918
 4173SOL     OW13270   2.092   0.628   7.561
 4173SOL    HW113271   1.999   0.626   7.598
 4173SOL    HW213272   2.093   0.589   7.469
 4174SOL     OW13273   2.087   0.275   8.444
 4174SOL    HW113274   2.122   0.258   8.536
 4174SOL    HW213275   1.999   0.230   8.432
 4175SOL     OW13276   1.881   0.368   8.095
 4175SOL    HW113277   1.799   0.411   8.134
 4175SOL    HW213278   1.853   0.295   8.032
 4176SOL     OW13279   2.431   1.275   8.613
 4176SOL    HW113280   2.338   1.268   8.576
 4176SOL    HW213281   2.442   1.364   8.657
 4177SOL     OW13282   3.417   1.511   8.151
 4177SOL    HW113283   3.360   1.495   8.232
 4177SOL    HW213284   3.358   1.521   8.071
 4178SOL     OW13285   2.997   0.703   8.165
 4178SOL    HW113286   3.054   0.781   8.140
 4178SOL    HW213287   2.937   0.729   8.241
 4179SOL     OW13288   3.617   0.607   7.679
 4179SOL    HW113289   3.605   0.594   7.580
 4179SOL    HW213290   3.587   0.526   7.728
 4180SOL     OW13291   2.630   1.144   8.471
 4180SOL    HW113292   2.552   1.161   8.531
 4180SOL    HW213293   2.664   1.231   8.435
 4181SOL     OW13294   2.712   0.798   9.271
 4181SOL    HW113295   2.708   0.874   9.336
 4181SOL    HW213296   2.734   0.834   9.180
 4182SOL     OW13297   2.547   1.012   8.113
 4182SOL    HW113298   2.616   0.996   8.183
 4182SOL    HW213299   2.474   1.069   8.151
 4183SOL     OW13300   2.548   1.161   9.251
 4183SOL    HW113301   2.608   1.240   9.265
 4183SOL    HW213302   2.462   1.192   9.210
 4184SOL     OW13303   2.197   1.435   8.509
 4184SOL    HW113304   2.119   1.404   8.456
 4184SOL    HW213305   2.255   1.493   8.452
 4185SOL     OW13306   3.322   1.505   8.787
 4185SOL    HW113307   3.346   1.599   8.813
 4185SOL    HW213308   3.306   1.451   8.869
 4186SOL     OW13309   2.300   0.392   8.947
 4186SOL    HW113310   2.382   0.336   8.956
 4186SOL    HW213311   2.219   0.334   8.951
 4187SOL     OW13312   3.465   0.447   8.185
 4187SOL    HW113313   3.391   0.493   8.135
 4187SOL    HW213314   3.516   0.515   8.238
 4188SOL     OW13315   2.093   1.713   7.931
 4188SOL    HW113316   2.127   1.790   7.985
 4188SOL    HW213317   2.137   1.713   7.841
 4189SOL     OW13318   2.989   1.341   9.138
 4189SOL    HW113319   3.036   1.341   9.226
 4189SOL    HW213320   2.941   1.254   9.127
 4190SOL     OW13321   2.092   1.434   7.986
 4190SOL    HW113322   2.066   1.530   7.986
 4190SOL    HW213323   2.021   1.380   8.031
 4191SOL     OW13324   2.102   1.091   8.334
 4191SOL    HW113325   2.116   1.007   8.386
 4191SOL    HW213326   2.047   1.155   8.389
 4192SOL     OW13327   2.482   1.786   8.887
 4192SOL    HW113328   2.390   1.769   8.922
 4192SOL    HW213329   2.510   1.878   8.913
 4193SOL     OW13330   2.468   0.964   7.571
 4193SOL    HW113331   2.475   1.048   7.517
 4193SOL    HW213332   2.514   0.977   7.659
 4194SOL     OW13333   3.456   0.114   8.928
 4194SOL    HW113334   3.438   0.181   8.856
 4194SOL    HW213335   3.453   0.160   9.017
 4195SOL     OW13336   1.984   0.643   8.011
 4195SOL    HW113337   1.939   0.555   8.028
 4195SOL    HW213338   1.983   0.697   8.095
 4196SOL     OW13339   3.704   1.767   7.807
 4196SOL    HW113340   3.758   1.738   7.887
 4196SOL    HW213341   3.734   1.857   7.778
 4197SOL     OW13342   3.551   0.922   8.060
 4197SOL    HW113343   3.646   0.893   8.068
 4197SOL    HW213344   3.543   0.987   7.985
 4198SOL     OW13345   3.503   1.108   7.880
 4198SOL    HW113346   3.589   1.110   7.828
 4198SOL    HW213347   3.517   1.155   7.968
 4199SOL     OW13348   1.975   0.737   9.045
 4199SOL    HW113349   2.063   0.724   9.090
 4199SOL    HW213350   1.962   0.834   9.023
 4200SOL     OW13351   2.475   1.365   8.174
 4200SOL    HW113352   2.426   1.278   8.183
 4200SOL    HW213353   2.452   1.408   8.087
 4201SOL     OW13354   3.155   1.228   8.871
 4201SOL    HW113355   3.192   1.155   8.813
 4201SOL    HW213356   3.207   1.233   8.956
 4202SOL     OW13357   2.671   0.004   7.950
 4202SOL    HW113358   2.711   0.095   7.941
 4202SOL    HW213359   2.571   0.012   7.956
 4203SOL     OW13360   2.059   0.976   8.712
 4203SOL    HW113361   2.148   0.931   8.698
 4203SOL    HW213362   1.986   0.911   8.693
 4204SOL     OW13363   3.387   0.999   7.638
 4204SOL    HW113364   3.324   0.923   7.651
 4204SOL    HW213365   3.435   1.017   7.724
 4205SOL     OW13366   3.049   1.792   9.064
 4205SOL    HW113367   3.073   1.852   8.988
 4205SOL    HW213368   3.056   1.697   9.034
 4206SOL     OW13369   2.179   0.251   9.249
 4206SOL    HW113370   2.250   0.322   9.255
 4206SOL    HW213371   2.091   0.290   9.277
 4207SOL     OW13372   3.328   1.417   8.401
 4207SOL    HW113373   3.269   1.423   8.481
 4207SOL    HW213374   3.313   1.329   8.355
 4208SOL     OW13375   3.529   1.714   8.020
 4208SOL    HW113376   3.488   1.691   7.932
 4208SOL    HW213377   3.511   1.640   8.085
 4209SOL     OW13378   2.460   0.729   7.718
 4209SOL    HW113379   2.484   0.798   7.650
 4209SOL    HW213380   2.382   0.762   7.772
 4210SOL     OW13381   3.143   0.345   8.392
 4210SOL    HW113382   3.057   0.295   8.379
 4210SOL    HW213383   3.205   0.291   8.448
 4211SOL     OW13384   3.438   1.662   7.755
 4211SOL    HW113385   3.527   1.708   7.758
 4211SOL    HW213386   3.417   1.638   7.660
 4212SOL     OW13387   2.669   0.605   8.913
 4212SOL    HW113388   2.622   0.602   9.002
 4212SOL    HW213389   2.618   0.550   8.847
 4213SOL     OW13390   3.256   0.469   9.122
 4213SOL    HW113391   3.236   0.512   9.210
 4213SOL    HW213392   3.334   0.407   9.131
 4214SOL     OW13393   2.835   0.890   9.020
 4214SOL    HW113394   2.881   0.806   8.991
 4214SOL    HW213395   2.779   0.924   8.945
 4215SOL     OW13396   2.853   0.410   8.690
 4215SOL    HW113397   2.776   0.444   8.744
 4215SOL    HW213398   2.819   0.359   8.611
 4216SOL     OW13399   2.903   0.701   7.877
 4216SOL    HW113400   2.929   0.697   7.973
 4216SOL    HW213401   2.818   0.650   7.863
 4217SOL     OW13402   1.938   0.811   8.237
 4217SOL    HW113403   2.037   0.799   8.246
 4217SOL    HW213404   1.914   0.906   8.258
 4218SOL     OW13405   2.727   0.348   7.643
 4218SOL    HW113406   2.786   0.411   7.594
 4218SOL    HW213407   2.746   0.254   7.614
 4219SOL     OW13408   3.581   0.585   9.279
 4219SOL    HW113409   3.555   0.674   9.243
 4219SOL    HW213410   3.579   0.517   9.206
 4220SOL     OW13411   3.224   1.144   7.993
 4220SOL    HW113412   3.307   1.115   7.945
 4220SOL    HW213413   3.175   1.211   7.937
 4221SOL     OW13414   2.412   0.196   8.333
 4221SOL    HW113415   2.407   0.191   8.433
 4221SOL    HW213416   2.414   0.292   8.304
 4222SOL     OW13417   2.870   1.456   7.925
 4222SOL    HW113418   2.824   1.528   7.873
 4222SOL    HW213419   2.866   1.476   8.023
 4223SOL     OW13420   2.213   1.801   8.301
 4223SOL    HW113421   2.263   1.715   8.307
 4223SOL    HW213422   2.278   1.878   8.298
 4224SOL     OW13423   3.657   1.066   8.321
 4224SOL    HW113424   3.595   1.051   8.245
 4224SOL    HW213425   3.605   1.077   8.406
 4225SOL     OW13426   3.089   1.550   8.954
 4225SOL    HW113427   3.095   1.473   9.018
 4225SOL    HW213428   3.037   1.524   8.874
 4226SOL     OW13429   2.183   0.943   7.690
 4226SOL    HW113430   2.265   0.982   7.648
 4226SOL    HW213431   2.156   0.861   7.641
 4227SOL     OW13432   3.320   0.735   8.176
 4227SOL    HW113433   3.315   0.670   8.251
 4227SOL    HW213434   3.400   0.794   8.189
 4228SOL     OW13435   2.323   1.266   9.175
 4228SOL    HW113436   2.273   1.267   9.089
 4228SOL    HW213437   2.260   1.248   9.251
 4229SOL     OW13438   2.973   1.776   7.685
 4229SOL    HW113439   2.913   1.714   7.735
 4229SOL    HW213440   3.004   1.732   7.600
 4230SOL     OW13441   2.064   0.285   8.946
 4230SOL    HW113442   1.984   0.345   8.933
 4230SOL    HW213443   2.054   0.236   9.032
 4231SOL     OW13444   3.494   1.377   7.529
 4231SOL    HW113445   3.462   1.471   7.519
 4231SOL    HW213446   3.418   1.314   7.517
 4232SOL     OW13447   2.326   1.743   7.771
 4232SOL    HW113448   2.359   1.782   7.857
 4232SOL    HW213449   2.402   1.736   7.706
 4233SOL     OW13450   3.262   0.107   7.874
 4233SOL    HW113451   3.238   0.070   7.784
 4233SOL    HW213452   3.361   0.123   7.878
 4234SOL     OW13453   2.111   1.785   8.689
 4234SOL    HW113454   2.168   1.720   8.739
 4234SOL    HW213455   2.095   1.752   8.596
 4235SOL     OW13456   2.802   1.698   8.352
 4235SOL    HW113457   2.882   1.641   8.373
 4235SOL    HW213458   2.753   1.658   8.275
 4236SOL     OW13459   2.244   0.700   7.928
 4236SOL    HW113460   2.289   0.610   7.925
 4236SOL    HW213461   2.150   0.689   7.961
 4237SOL     OW13462   3.409   0.222   9.177
 4237SOL    HW113463   3.404   0.259   9.269
 4237SOL    HW213464   3.337   0.153   9.165
 4238SOL     OW13465   2.476   0.122   7.565
 4238SOL    HW113466   2.574   0.100   7.572
 4238SOL    HW213467   2.445   0.105   7.472
 4239SOL     OW13468   2.643   0.264   9.197
 4239SOL    HW113469   2.710   0.203   9.240
 4239SOL    HW213470   2.570   0.283   9.262
 4240SOL     OW13471   2.750   1.514   8.643
 4240SOL    HW113472   2.727   1.489   8.549
 4240SOL    HW213473   2.811   1.445   8.682
 4241SOL     OW13474   3.213   0.590   8.881
 4241SOL    HW113475   3.241   0.547   8.966
 4241SOL    HW213476   3.238   0.686   8.882
 4242SOL     OW13477   2.665   1.402   8.372
 4242SOL    HW113478   2.755   1.416   8.330
 4242SOL    HW213479   2.594   1.404   8.301
 4243SOL     OW13480   2.784   0.503   8.347
 4243SOL    HW113481   2.759   0.494   8.251
 4243SOL    HW213482   2.832   0.421   8.378
 4244SOL     OW13483   2.401   0.064   7.960
 4244SOL    HW113484   2.320   0.065   8.018
 4244SOL    HW213485   2.404   0.147   7.905
 4245SOL     OW13486   3.296   1.188   7.489
 4245SOL    HW113487   3.328   1.112   7.546
 4245SOL    HW213488   3.204   1.215   7.519
 4246SOL     OW13489   2.159   0.035   7.619
 4246SOL    HW113490   2.208   0.119   7.598
 4246SOL    HW213491   2.221  -0.030   7.664
 4247SOL     OW13492   2.797   0.236   7.928
 4247SOL    HW113493   2.749   0.277   7.850
 4247SOL    HW213494   2.896   0.234   7.909
 4248SOL     OW13495   2.938   0.683   8.912
 4248SOL    HW113496   2.858   0.622   8.915
 4248SOL    HW213497   3.019   0.630   8.888
 4249SOL     OW13498   3.089   1.570   8.241
 4249SOL    HW113499   3.110   1.644   8.176
 4249SOL    HW213500   3.157   1.570   8.314
 4250SOL     OW13501   2.321   1.152   8.189
 4250SOL    HW113502   2.250   1.125   8.254
 4250SOL    HW213503   2.295   1.124   8.096
 4251SOL     OW13504   3.133   1.797   8.039
 4251SOL    HW113505   3.177   1.861   7.975
 4251SOL    HW213506   3.083   1.849   8.109
 4252SOL     OW13507   2.894   0.549   7.464
 4252SOL    HW113508   2.853   0.631   7.425
 4252SOL    HW213509   2.958   0.575   7.537
 4253SOL     OW13510   1.940   0.556   8.834
 4253SOL    HW113511   2.032   0.555   8.793
 4253SOL    HW213512   1.934   0.630   8.901
 4254SOL     OW13513   2.423   0.222   8.595
 4254SOL    HW113514   2.461   0.138   8.632
 4254SOL    HW213515   2.335   0.241   8.639
 4255SOL     OW13516   2.728   0.454   8.090
 4255SOL    HW113517   2.696   0.526   8.028
 4255SOL    HW213518   2.752   0.373   8.037
 4256SOL     OW13519   2.879   0.039   8.201
 4256SOL    HW113520   2.807   0.044   8.132
 4256SOL    HW213521   2.855  -0.030   8.270
 4257SOL     OW13522   3.291   1.173   8.315
 4257SOL    HW113523   3.236   1.089   8.308
 4257SOL    HW213524   3.317   1.202   8.223
 4258SOL     OW13525   3.328   0.590   8.440
 4258SOL    HW113526   3.298   0.495   8.447
 4258SOL    HW213527   3.401   0.606   8.506
 4259SOL     OW13528   3.719   0.833   7.825
 4259SOL    HW113529   3.761   0.769   7.889
 4259SOL    HW213530   3.681   0.782   7.747
 4260SOL     OW13531   3.526   1.280   8.105
 4260SOL    HW113532   3.625   1.288   8.119
 4260SOL    HW213533   3.481   1.364   8.136
 4261SOL     OW13534   3.252   0.575   7.526
 4261SOL    HW113535   3.198   0.554   7.607
 4261SOL    HW213536   3.343   0.534   7.535
 4262SOL     OW13537   2.389   0.256   7.776
 4262SOL    HW113538   2.416   0.197   7.701
 4262SOL    HW213539   2.389   0.351   7.745
 4263SOL     OW13540   3.616   1.223   9.036
 4263SOL    HW113541   3.707   1.184   9.023
 4263SOL    HW213542   3.624   1.319   9.060
 4264SOL     OW13543   2.926   1.347   8.788
 4264SOL    HW113544   2.846   1.324   8.843
 4264SOL    HW213545   3.009   1.321   8.837
 4265SOL     OW13546   3.454   1.629   9.073
 4265SOL    HW113547   3.481   1.663   8.983
 4265SOL    HW213548   3.533   1.591   9.119
 4266SOL     OW13549   2.973   1.195   8.548
 4266SOL    HW113550   2.933   1.239   8.629
 4266SOL    HW213551   2.932   1.232   8.465
 4267SOL     OW13552   3.500   1.099   8.527
 4267SOL    HW113553   3.505   1.180   8.586
 4267SOL    HW213554   3.414   1.101   8.476
 4268SOL     OW13555   2.777   0.089   8.850
 4268SOL    HW113556   2.802   0.069   8.755
 4268SOL    HW213557   2.849   0.145   8.892
 4269SOL     OW13558   2.842   1.116   9.167
 4269SOL    HW113559   2.743   1.122   9.177
 4269SOL    HW213560   2.865   1.036   9.111
 4270SOL     OW13561   2.567   1.050   7.816
 4270SOL    HW113562   2.553   1.057   7.915
 4270SOL    HW213563   2.651   0.999   7.798
 4271SOL     OW13564   2.272   0.813   8.699
 4271SOL    HW113565   2.358   0.825   8.749
 4271SOL    HW213566   2.230   0.726   8.726
 4272SOL     OW13567   3.136   0.386   8.710
 4272SOL    HW113568   3.157   0.460   8.774
 4272SOL    HW213569   3.047   0.403   8.667
 4273SOL     OW13570   1.926   1.564   8.779
 4273SOL    HW113571   1.880   1.646   8.745
 4273SOL    HW213572   2.024   1.583   8.788
 4274SOL     OW13573   2.229   1.100   7.949
 4274SOL    HW113574   2.222   1.183   7.893
 4274SOL    HW213575   2.233   1.020   7.889
 4275SOL     OW13576   2.428   0.537   8.313
 4275SOL    HW113577   2.440   0.603   8.239
 4275SOL    HW213578   2.474   0.571   8.396
 4276SOL     OW13579   3.114   1.348   7.836
 4276SOL    HW113580   3.164   1.425   7.876
 4276SOL    HW213581   3.019   1.350   7.868
 4277SOL     OW13582   3.134   1.445   8.590
 4277SOL    HW113583   3.181   1.458   8.677
 4277SOL    HW213584   3.068   1.371   8.599
 4278SOL     OW13585   3.444   0.639   7.920
 4278SOL    HW113586   3.413   0.700   7.993
 4278SOL    HW213587   3.494   0.691   7.851
 4279SOL     OW13588   2.216   1.510   8.777
 4279SOL    HW113589   2.195   1.466   8.690
 4279SOL    HW213590   2.313   1.536   8.780
 4280SOL     OW13591   2.264   0.751   9.046
 4280SOL    HW113592   2.332   0.806   8.999
 4280SOL    HW213593   2.304   0.663   9.073
 4281SOL     OW13594   3.449   0.779   9.118
 4281SOL    HW113595   3.357   0.817   9.113
 4281SOL    HW213596   3.509   0.826   9.053
 4282SOL     OW13597   2.875   0.105   9.218
 4282SOL    HW113598   2.881   0.190   9.166
 4282SOL    HW213599   2.907   0.029   9.161
 4283SOL     OW13600   2.366   0.050   9.188
 4283SOL    HW113601   2.324  -0.007   9.118
 4283SOL    HW213602   2.300   0.119   9.220
 4284SOL     OW13603   2.435   0.870   8.477
 4284SOL    HW113604   2.479   0.959   8.468
 4284SOL    HW213605   2.372   0.870   8.554
 4285SOL     OW13606   3.222   0.862   8.493
 4285SOL    HW113607   3.147   0.862   8.427
 4285SOL    HW213608   3.259   0.770   8.502
 4286SOL     OW13609   3.071   0.525   7.723
 4286SOL    HW113610   3.084   0.441   7.777
 4286SOL    HW213611   3.042   0.599   7.783
 4287SOL     OW13612   2.169   0.213   8.679
 4287SOL    HW113613   2.146   0.250   8.769
 4287SOL    HW213614   2.139   0.118   8.673
 4288SOL     OW13615   1.899   1.310   8.730
 4288SOL    HW113616   1.952   1.261   8.798
 4288SOL    HW213617   1.921   1.408   8.735
 4289SOL     OW13618   2.594   0.634   8.512
 4289SOL    HW113619   2.653   0.608   8.436
 4289SOL    HW213620   2.566   0.730   8.501
 4290SOL     OW13621   3.590   0.935   9.302
 4290SOL    HW113622   3.544   0.928   9.213
 4290SOL    HW213623   3.528   0.979   9.368
 4291SOL     OW13624   2.169   0.063   8.066
 4291SOL    HW113625   2.158   0.157   8.099
 4291SOL    HW213626   2.164   0.000   8.143
 4292SOL     OW13627   3.484   0.367   7.822
 4292SOL    HW113628   3.486   0.291   7.886
 4292SOL    HW213629   3.436   0.444   7.862
 4293SOL     OW13630   2.885   0.766   8.414
 4293SOL    HW113631   2.900   0.787   8.510
 4293SOL    HW213632   2.855   0.671   8.405
 4294SOL     OW13633   2.842   1.573   9.148
 4294SOL    HW113634   2.822   1.617   9.060
 4294SOL    HW213635   2.881   1.482   9.132
 4295SOL     OW13636   3.721   1.518   9.053
 4295SOL    HW113637   3.735   1.545   8.958
 4295SOL    HW213638   3.804   1.540   9.106
 4296SOL     OW13639   2.212   0.898   9.252
 4296SOL    HW113640   2.288   0.942   9.300
 4296SOL    HW213641   2.247   0.851   9.170
 4297SOL     OW13642   3.402   0.274   7.573
 4297SOL    HW113643   3.341   0.199   7.596
 4297SOL    HW213644   3.424   0.326   7.656
 4298SOL     OW13645   3.165   0.838   7.490
 4298SOL    HW113646   3.199   0.745   7.505
 4298SOL    HW213647   3.183   0.865   7.395
 4299SOL     OW13648   2.930   1.333   8.297
 4299SOL    HW113649   2.937   1.249   8.242
 4299SOL    HW213650   2.992   1.402   8.261
 4300SOL     OW13651   2.181   0.810   8.397
 4300SOL    HW113652   2.274   0.846   8.402
 4300SOL    HW213653   2.175   0.725   8.449
 4301SOL     OW13654   2.201   0.509   8.454
 4301SOL    HW113655   2.149   0.426   8.437
 4301SOL    HW213656   2.278   0.514   8.390
 4302SOL     OW13657   3.000   0.380   9.126
 4302SOL    HW113658   2.955   0.443   9.190
 4302SOL    HW213659   3.093   0.411   9.109
 4303SOL     OW13660   3.022   0.207   8.925
 4303SOL    HW113661   3.022   0.271   9.002
 4303SOL    HW213662   3.050   0.255   8.842
 4304SOL     OW13663   2.366   1.568   8.358
 4304SOL    HW113664   2.432   1.642   8.367
 4304SOL    HW213665   2.410   1.489   8.316
 4305SOL     OW13666   2.864   0.796   8.686
 4305SOL    HW113667   2.905   0.764   8.772
 4305SOL    HW213668   2.768   0.769   8.683
 4306SOL     OW13669   1.902   0.544   8.562
 4306SOL    HW113670   1.987   0.511   8.521
 4306SOL    HW213671   1.915   0.559   8.660
 4307SOL     OW13672   2.051   0.520   9.170
 4307SOL    HW113673   2.110   0.480   9.100
 4307SOL    HW213674   1.993   0.591   9.129
 4308SOL     OW13675   3.231   0.950   9.108
 4308SOL    HW113676   3.270   1.039   9.128
 4308SOL    HW213677   3.241   0.930   9.011
 4309SOL     OW13678   2.677   0.572   7.773
 4309SOL    HW113679   2.684   0.483   7.727
 4309SOL    HW213680   2.583   0.606   7.765
 4310SOL     OW13681   3.519   0.604   8.654
 4310SOL    HW113682   3.481   0.535   8.716
 4310SOL    HW213683   3.601   0.568   8.610
 4311SOL     OW13684   2.114   1.564   9.192
 4311SOL    HW113685   2.084   1.621   9.268
 4311SOL    HW213686   2.107   1.467   9.218
 4312SOL     OW13687   2.533   0.464   8.717
 4312SOL    HW113688   2.499   0.375   8.687
 4312SOL    HW213689   2.559   0.518   8.637
 4313SOL     OW13690   2.792   1.678   8.913
 4313SOL    HW113691   2.768   1.660   8.818
 4313SOL    HW213692   2.822   1.772   8.923
 4314SOL     OW13693   2.335   0.500   7.639
 4314SOL    HW113694   2.396   0.580   7.643
 4314SOL    HW213695   2.240   0.531   7.646
 4315SOL     OW13696   2.021   1.137   8.914
 4315SOL    HW113697   2.043   1.076   8.990
 4315SOL    HW213698   2.031   1.088   8.828
 4316SOL     OW13699   3.209   1.059   8.682
 4316SOL    HW113700   3.233   0.996   8.608
 4316SOL    HW213701   3.119   1.099   8.664
 4317SOL     OW13702   3.164   0.855   7.757
 4317SOL    HW113703   3.078   0.824   7.799
 4317SOL    HW213704   3.160   0.841   7.658
 4318SOL     OW13705   3.621   1.747   8.602
 4318SOL    HW113706   3.682   1.777   8.529
 4318SOL    HW213707   3.583   1.658   8.580
 4319SOL     OW13708   3.114   1.731   8.576
 4319SOL    HW113709   3.198   1.736   8.522
 4319SOL    HW213710   3.091   1.635   8.594
 4320SOL     OW13711   1.945   1.258   8.470
 4320SOL    HW113712   1.940   1.257   8.570
 4320SOL    HW213713   1.862   1.217   8.432
 4321SOL     OW13714   2.550   1.662   9.164
 4321SOL    HW113715   2.494   1.743   9.173
 4321SOL    HW213716   2.602   1.666   9.078
 4322SOL     OW13717   3.588   0.135   7.971
 4322SOL    HW113718   3.661   0.118   7.904
 4322SOL    HW213719   3.557   0.048   8.009
 4323SOL     OW13720   3.250   1.573   7.925
 4323SOL    HW113721   3.317   1.585   7.851
 4323SOL    HW213722   3.210   1.662   7.948
 4324SOL     OW13723   3.142   0.927   8.120
 4324SOL    HW113724   3.202   0.846   8.122
 4324SOL    HW213725   3.182   0.996   8.060
 4325SOL     OW13726   2.692   1.273   8.870
 4325SOL    HW113727   2.687   1.306   8.965
 4325SOL    HW213728   2.606   1.292   8.824
 4326SOL     OW13729   3.512   1.720   8.842
 4326SOL    HW113730   3.565   1.730   8.758
 4326SOL    HW213731   3.485   1.810   8.876
 4327SOL     OW13732   3.703   0.175   8.411
 4327SOL    HW113733   3.742   0.090   8.375
 4327SOL    HW213734   3.605   0.177   8.392
 4328SOL     OW13735   2.125   0.326   8.168
 4328SOL    HW113736   2.046   0.377   8.134
 4328SOL    HW213737   2.116   0.311   8.266
 4329SOL     OW13738   3.056   1.612   7.479
 4329SOL    HW113739   3.062   1.519   7.516
 4329SOL    HW213740   2.997   1.612   7.399
 4330SOL     OW13741   2.684   1.002   8.820
 4330SOL    HW113742   2.724   1.001   8.728
 4330SOL    HW213743   2.694   1.094   8.860
 4331SOL     OW13744   2.778   0.910   7.739
 4331SOL    HW113745   2.841   0.948   7.671
 4331SOL    HW213746   2.818   0.827   7.778
 4332SOL     OW13747   3.366   1.607   7.492
 4332SOL    HW113748   3.274   1.644   7.499
 4332SOL    HW213749   3.404   1.627   7.402
 4333SOL     OW13750   2.234   1.288   8.938
 4333SOL    HW113751   2.221   1.381   8.904
 4333SOL    HW213752   2.150   1.236   8.925
 4334SOL     OW13753   3.476   1.292   8.737
 4334SOL    HW113754   3.536   1.295   8.817
 4334SOL    HW213755   3.401   1.356   8.750
 4335SOL     OW13756   2.901   1.098   8.144
 4335SOL    HW113757   2.831   1.051   8.198
 4335SOL    HW213758   2.960   1.030   8.101
 4336SOL     OW13759   2.876   0.236   8.419
 4336SOL    HW113760   2.868   0.200   8.326
 4336SOL    HW213761   2.874   0.160   8.484
 4337SOL     OW13762   3.571   0.385   8.829
 4337SOL    HW113763   3.644   0.454   8.833
 4337SOL    HW213764   3.599   0.310   8.770
 4338SOL     OW13765   1.967   1.013   9.174
 4338SOL    HW113766   1.890   0.980   9.228
 4338SOL    HW213767   2.052   0.983   9.216
 4339SOL     OW13768   2.534   0.203   8.937
 4339SOL    HW113769   2.624   0.187   8.897
 4339SOL    HW213770   2.542   0.208   9.036
 4340SOL     OW13771   1.937   0.345   7.481
 4340SOL    HW113772   1.845   0.317   7.452
 4340SOL    HW213773   1.968   0.422   7.425
 4341SOL     OW13774   3.302   0.856   8.846
 4341SOL    HW113775   3.245   0.908   8.783
 4341SOL    HW213776   3.398   0.868   8.822
 4342SOL     OW13777   1.934   0.166   7.766
 4342SOL    HW113778   1.917   0.249   7.712
 4342SOL    HW213779   2.024   0.129   7.744
 4343SOL     OW13780   3.045   1.335   7.567
 4343SOL    HW113781   2.946   1.324   7.569
 4343SOL    HW213782   3.079   1.350   7.660
 4344SOL     OW13783   2.475   0.842   8.879
 4344SOL    HW113784   2.531   0.923   8.862
 4344SOL    HW213785   2.534   0.762   8.882
 4345SOL     OW13786   3.355   1.767   8.407
 4345SOL    HW113787   3.388   1.831   8.338
 4345SOL    HW213788   3.421   1.761   8.482
 4346SOL     OW13789   2.578   0.565   9.156
 4346SOL    HW113790   2.597   0.630   9.230
 4346SOL    HW213791   2.638   0.485   9.165
 4347SOL     OW13792   3.312   1.220   9.081
 4347SOL    HW113793   3.303   1.210   9.180
 4347SOL    HW213794   3.408   1.213   9.055
 4348SOL     OW13795   2.252   1.741   9.008
 4348SOL    HW113796   2.161   1.782   9.006
 4348SOL    HW213797   2.245   1.647   9.040
 4349SOL     OW13798   3.536   0.883   8.702
 4349SOL    HW113799   3.509   0.794   8.665
 4349SOL    HW213800   3.537   0.951   8.629
 4350SOL     OW13801   3.087   0.325   7.897
 4350SOL    HW113802   3.152   0.251   7.886
 4350SOL    HW213803   3.107   0.375   7.981
 4351SOL     OW13804   2.456   0.745   8.100
 4351SOL    HW113805   2.506   0.830   8.081
 4351SOL    HW213806   2.368   0.747   8.052
 4352SOL     OW13807   3.639   0.342   9.090
 4352SOL    HW113808   3.622   0.373   8.996
 4352SOL    HW213809   3.555   0.305   9.128
 4353SOL     OW13810   3.592   0.934   8.965
 4353SOL    HW113811   3.630   1.025   8.980
 4353SOL    HW213812   3.584   0.917   8.866
 4354SOL     OW13813   2.721   1.374   7.464
 4354SOL    HW113814   2.675   1.389   7.552
 4354SOL    HW213815   2.765   1.459   7.434
 4355SOL     OW13816   2.523   1.790   8.401
 4355SOL    HW113817   2.477   1.878   8.388
 4355SOL    HW213818   2.622   1.802   8.394
 4356SOL     OW13819   2.721   0.956   8.309
 4356SOL    HW113820   2.775   0.887   8.357
 4356SOL    HW213821   2.689   1.025   8.375
 4357SOL     OW13822   2.945   0.984   7.535
 4357SOL    HW113823   2.922   1.037   7.453
 4357SOL    HW213824   3.026   0.928   7.516
 4358SOL     OW13825   3.723   1.569   8.299
 4358SOL    HW113826   3.652   1.557   8.229
 4358SOL    HW213827   3.724   1.490   8.359
 4359SOL     OW13828   2.083   1.314   9.292
 4359SOL    HW113829   2.018   1.241   9.271
 4359SOL    HW213830   2.087   1.328   9.390
 4360SOL     OW13831   1.941   1.240   8.101
 4360SOL    HW113832   1.940   1.193   8.189
 4360SOL    HW213833   2.023   1.212   8.050
 4361SOL     OW13834   2.534   1.391   9.072
 4361SOL    HW113835   2.456   1.341   9.110
 4361SOL    HW213836   2.531   1.486   9.103
 4362SOL     OW13837   3.686   0.192   8.675
 4362SOL    HW113838   3.682   0.102   8.719
 4362SOL    HW213839   3.689   0.181   8.576
 4363SOL     OW13840   2.290   0.424   7.968
 4363SOL    HW113841   2.320   0.352   7.906
 4363SOL    HW213842   2.251   0.384   8.051
 4364SOL     OW13843   3.567   1.487   8.552
 4364SOL    HW113844   3.474   1.462   8.525
 4364SOL    HW213845   3.593   1.437   8.634
 4365SOL     OW13846   2.179   0.547   8.728
 4365SOL    HW113847   2.217   0.488   8.800
 4365SOL    HW213848   2.219   0.521   8.640
 4366SOL     OW13849   2.674   1.586   8.135
 4366SOL    HW113850   2.706   1.596   8.041
 4366SOL    HW213851   2.595   1.524   8.137
 4367SOL     OW13852   3.286   0.214   8.560
 4367SOL    HW113853   3.338   0.149   8.615
 4367SOL    HW213854   3.237   0.277   8.621
 4368SOL     OW13855   2.863   0.034   8.602
 4368SOL    HW113856   2.800  -0.038   8.571
 4368SOL    HW213857   2.956  -0.002   8.602
 4369SOL     OW13858   2.632   1.330   7.749
 4369SOL    HW113859   2.586   1.243   7.766
 4369SOL    HW213860   2.723   1.327   7.790
 4370SOL     OW13861   2.480   1.567   8.732
 4370SOL    HW113862   2.475   1.649   8.789
 4370SOL    HW213863   2.569   1.564   8.687
 4371SOL     OW13864   3.214   0.052   7.616
 4371SOL    HW113865   3.249   0.011   7.532
 4371SOL    HW213866   3.124   0.014   7.636
 4372SOL     OW13867   3.162   0.453   8.139
 4372SOL    HW113868   3.103   0.533   8.143
 4372SOL    HW213869   3.177   0.418   8.232
 4373SOL     OW13870   3.455   0.221   8.330
 4373SOL    HW113871   3.371   0.220   8.384
 4373SOL    HW213872   3.457   0.304   8.274
 4374SOL     OW13873   1.901   1.077   7.748
 4374SOL    HW113874   2.000   1.066   7.739
 4374SOL    HW213875   1.861   0.991   7.780
 4375SOL     OW13876   2.092   0.628   9.423
 4375SOL    HW113877   1.999   0.626   9.460
 4375SOL    HW213878   2.093   0.589   9.331
 4376SOL     OW13879   2.087   0.275  10.306
 4376SOL    HW113880   2.122   0.258  10.398
 4376SOL    HW213881   1.999   0.230  10.294
 4377SOL     OW13882   1.881   0.368   9.957
 4377SOL    HW113883   1.799   0.411   9.996
 4377SOL    HW213884   1.853   0.295   9.894
 4378SOL     OW13885   2.431   1.275  10.475
 4378SOL    HW113886   2.338   1.268  10.438
 4378SOL    HW213887   2.442   1.364  10.519
 4379SOL     OW13888   3.417   1.511  10.013
 4379SOL    HW113889   3.360   1.495  10.094
 4379SOL    HW213890   3.358   1.521   9.933
 4380SOL     OW13891   2.997   0.703  10.027
 4380SOL    HW113892   3.054   0.781  10.002
 4380SOL    HW213893   2.937   0.729  10.103
 4381SOL     OW13894   3.617   0.607   9.541
 4381SOL    HW113895   3.605   0.594   9.442
 4381SOL    HW213896   3.587   0.526   9.590
 4382SOL     OW13897   2.630   1.144  10.333
 4382SOL    HW113898   2.552   1.161  10.393
 4382SOL    HW213899   2.664   1.231  10.297
 4383SOL     OW13900   2.712   0.798  11.133
 4383SOL    HW113901   2.708   0.874  11.198
 4383SOL    HW213902   2.734   0.834  11.042
 4384SOL     OW13903   2.547   1.012   9.975
 4384SOL    HW113904   2.616   0.996  10.045
 4384SOL    HW213905   2.474   1.069  10.013
 4385SOL     OW13906   2.548   1.161  11.113
 4385SOL    HW113907   2.608   1.240  11.127
 4385SOL    HW213908   2.462   1.192  11.072
 4386SOL     OW13909   2.197   1.435  10.371
 4386SOL    HW113910   2.119   1.404  10.318
 4386SOL    HW213911   2.255   1.493  10.314
 4387SOL     OW13912   3.322   1.505  10.649
 4387SOL    HW113913   3.346   1.599  10.675
 4387SOL    HW213914   3.306   1.451  10.731
 4388SOL     OW13915   2.300   0.392  10.809
 4388SOL    HW113916   2.382   0.336  10.818
 4388SOL    HW213917   2.219   0.334  10.813
 4389SOL     OW13918   3.465   0.447  10.047
 4389SOL    HW113919   3.391   0.493   9.997
 4389SOL    HW213920   3.516   0.515  10.100
 4390SOL     OW13921   2.093   1.713   9.793
 4390SOL    HW113922   2.127   1.790   9.847
 4390SOL    HW213923   2.137   1.713   9.703
 4391SOL     OW13924   2.989   1.341  11.000
 4391SOL    HW113925   3.036   1.341  11.088
 4391SOL    HW213926   2.941   1.254  10.989
 4392SOL     OW13927   2.092   1.434   9.848
 4392SOL    HW113928   2.066   1.530   9.848
 4392SOL    HW213929   2.021   1.380   9.893
 4393SOL     OW13930   2.102   1.091  10.196
 4393SOL    HW113931   2.116   1.007  10.248
 4393SOL    HW213932   2.047   1.155  10.251
 4394SOL     OW13933   2.482   1.786  10.749
 4394SOL    HW113934   2.390   1.769  10.784
 4394SOL    HW213935   2.510   1.878  10.775
 4395SOL     OW13936   2.468   0.964   9.433
 4395SOL    HW113937   2.475   1.048   9.379
 4395SOL    HW213938   2.514   0.977   9.521
 4396SOL     OW13939   3.456   0.114  10.790
 4396SOL    HW113940   3.438   0.181  10.718
 4396SOL    HW213941   3.453   0.160  10.879
 4397SOL     OW13942   1.984   0.643   9.873
 4397SOL    HW113943   1.939   0.555   9.890
 4397SOL    HW213944   1.983   0.697   9.957
 4398SOL     OW13945   3.704   1.767   9.669
 4398SOL    HW113946   3.758   1.738   9.749
 4398SOL    HW213947   3.734   1.857   9.640
 4399SOL     OW13948   1.889   1.596   9.427
 4399SOL    HW113949   1.870   1.500   9.448
 4399SOL    HW213950   1.856   1.654   9.502
 4400SOL     OW13951   3.551   0.922   9.922
 4400SOL    HW113952   3.646   0.893   9.930
 4400SOL    HW213953   3.543   0.987   9.847
 4401SOL     OW13954   3.503   1.108   9.742
 4401SOL    HW113955   3.589   1.110   9.690
 4401SOL    HW213956   3.517   1.155   9.830
 4402SOL     OW13957   1.975   0.737  10.907
 4402SOL    HW113958   2.063   0.724  10.952
 4402SOL    HW213959   1.962   0.834  10.885
 4403SOL     OW13960   2.475   1.365  10.036
 4403SOL    HW113961   2.426   1.278  10.045
 4403SOL    HW213962   2.452   1.408   9.949
 4404SOL     OW13963   3.155   1.228  10.733
 4404SOL    HW113964   3.192   1.155  10.675
 4404SOL    HW213965   3.207   1.233  10.818
 4405SOL     OW13966   2.671   0.004   9.812
 4405SOL    HW113967   2.711   0.095   9.803
 4405SOL    HW213968   2.571   0.012   9.818
 4406SOL     OW13969   2.059   0.976  10.574
 4406SOL    HW113970   2.148   0.931  10.560
 4406SOL    HW213971   1.986   0.911  10.555
 4407SOL     OW13972   3.387   0.999   9.500
 4407SOL    HW113973   3.324   0.923   9.513
 4407SOL    HW213974   3.435   1.017   9.586
 4408SOL     OW13975   3.049   1.792  10.926
 4408SOL    HW113976   3.073   1.852  10.850
 4408SOL    HW213977   3.056   1.697  10.896
 4409SOL     OW13978   2.179   0.251  11.111
 4409SOL    HW113979   2.250   0.322  11.117
 4409SOL    HW213980   2.091   0.290  11.139
 4410SOL     OW13981   3.328   1.417  10.263
 4410SOL    HW113982   3.269   1.423  10.343
 4410SOL    HW213983   3.313   1.329  10.217
 4411SOL     OW13984   3.529   1.714   9.882
 4411SOL    HW113985   3.488   1.691   9.794
 4411SOL    HW213986   3.511   1.640   9.947
 4412SOL     OW13987   2.460   0.729   9.580
 4412SOL    HW113988   2.484   0.798   9.512
 4412SOL    HW213989   2.382   0.762   9.634
 4413SOL     OW13990   3.143   0.345  10.254
 4413SOL    HW113991   3.057   0.295  10.241
 4413SOL    HW213992   3.205   0.291  10.310
 4414SOL     OW13993   3.438   1.662   9.617
 4414SOL    HW113994   3.527   1.708   9.620
 4414SOL    HW213995   3.417   1.638   9.522
 4415SOL     OW13996   2.669   0.605  10.775
 4415SOL    HW113997   2.622   0.602  10.864
 4415SOL    HW213998   2.618   0.550  10.709
 4416SOL     OW13999   3.256   0.469  10.984
 4416SOL    HW114000   3.236   0.512  11.072
 4416SOL    HW214001   3.334   0.407  10.993
 4417SOL     OW14002   2.835   0.890  10.882
 4417SOL    HW114003   2.881   0.806  10.853
 4417SOL    HW214004   2.779   0.924  10.807
 4418SOL     OW14005   2.853   0.410  10.552
 4418SOL    HW114006   2.776   0.444  10.606
 4418SOL    HW214007   2.819   0.359  10.473
 4419SOL     OW14008   2.903   0.701   9.739
 4419SOL    HW114009   2.929   0.697   9.835
 4419SOL    HW214010   2.818   0.650   9.725
 4420SOL     OW14011   1.938   0.811  10.099
 4420SOL    HW114012   2.037   0.799  10.108
 4420SOL    HW214013   1.914   0.906  10.120
 4421SOL     OW14014   2.727   0.348   9.505
 4421SOL    HW114015   2.786   0.411   9.456
 4421SOL    HW214016   2.746   0.254   9.476
 4422SOL     OW14017   3.581   0.585  11.141
 4422SOL    HW114018   3.555   0.674  11.105
 4422SOL    HW214019   3.579   0.517  11.068
 4423SOL     OW14020   3.224   1.144   9.855
 4423SOL    HW114021   3.307   1.115   9.807
 4423SOL    HW214022   3.175   1.211   9.799
 4424SOL     OW14023   2.412   0.196  10.195
 4424SOL    HW114024   2.407   0.191  10.295
 4424SOL    HW214025   2.414   0.292  10.166
 4425SOL     OW14026   2.870   1.456   9.787
 4425SOL    HW114027   2.824   1.528   9.735
 4425SOL    HW214028   2.866   1.476   9.885
 4426SOL     OW14029   2.213   1.801  10.163
 4426SOL    HW114030   2.263   1.715  10.169
 4426SOL    HW214031   2.278   1.878  10.160
 4427SOL     OW14032   3.657   1.066  10.183
 4427SOL    HW114033   3.595   1.051  10.107
 4427SOL    HW214034   3.605   1.077  10.268
 4428SOL     OW14035   3.089   1.550  10.816
 4428SOL    HW114036   3.095   1.473  10.880
 4428SOL    HW214037   3.037   1.524  10.736
 4429SOL     OW14038   2.183   0.943   9.552
 4429SOL    HW114039   2.265   0.982   9.510
 4429SOL    HW214040   2.156   0.861   9.503
 4430SOL     OW14041   3.320   0.735  10.038
 4430SOL    HW114042   3.315   0.670  10.113
 4430SOL    HW214043   3.400   0.794  10.051
 4431SOL     OW14044   2.323   1.266  11.037
 4431SOL    HW114045   2.273   1.267  10.951
 4431SOL    HW214046   2.260   1.248  11.113
 4432SOL     OW14047   2.973   1.776   9.547
 4432SOL    HW114048   2.913   1.714   9.597
 4432SOL    HW214049   3.004   1.732   9.462
 4433SOL     OW14050   2.064   0.285  10.808
 4433SOL    HW114051   1.984   0.345  10.795
 4433SOL    HW214052   2.054   0.236  10.894
 4434SOL     OW14053   3.494   1.377   9.391
 4434SOL    HW114054   3.462   1.471   9.381
 4434SOL    HW214055   3.418   1.314   9.379
 4435SOL     OW14056   2.326   1.743   9.633
 4435SOL    HW114057   2.359   1.782   9.719
 4435SOL    HW214058   2.402   1.736   9.568
 4436SOL     OW14059   3.262   0.107   9.736
 4436SOL    HW114060   3.238   0.070   9.646
 4436SOL    HW214061   3.361   0.123   9.740
 4437SOL     OW14062   2.111   1.785  10.551
 4437SOL    HW114063   2.168   1.720  10.601
 4437SOL    HW214064   2.095   1.752  10.458
 4438SOL     OW14065   2.802   1.698  10.214
 4438SOL    HW114066   2.882   1.641  10.235
 4438SOL    HW214067   2.753   1.658  10.137
 4439SOL     OW14068   2.244   0.700   9.790
 4439SOL    HW114069   2.289   0.610   9.787
 4439SOL    HW214070   2.150   0.689   9.823
 4440SOL     OW14071   3.409   0.222  11.039
 4440SOL    HW114072   3.404   0.259  11.131
 4440SOL    HW214073   3.337   0.153  11.027
 4441SOL     OW14074   2.476   0.122   9.427
 4441SOL    HW114075   2.574   0.100   9.434
 4441SOL    HW214076   2.445   0.105   9.334
 4442SOL     OW14077   2.643   0.264  11.059
 4442SOL    HW114078   2.710   0.203  11.102
 4442SOL    HW214079   2.570   0.283  11.124
 4443SOL     OW14080   2.750   1.514  10.505
 4443SOL    HW114081   2.727   1.489  10.411
 4443SOL    HW214082   2.811   1.445  10.544
 4444SOL     OW14083   3.213   0.590  10.743
 4444SOL    HW114084   3.241   0.547  10.828
 4444SOL    HW214085   3.238   0.686  10.744
 4445SOL     OW14086   2.665   1.402  10.234
 4445SOL    HW114087   2.755   1.416  10.192
 4445SOL    HW214088   2.594   1.404  10.163
 4446SOL     OW14089   2.784   0.503  10.209
 4446SOL    HW114090   2.759   0.494  10.113
 4446SOL    HW214091   2.832   0.421  10.240
 4447SOL     OW14092   2.401   0.064   9.822
 4447SOL    HW114093   2.320   0.065   9.880
 4447SOL    HW214094   2.404   0.147   9.767
 4448SOL     OW14095   3.296   1.188   9.351
 4448SOL    HW114096   3.328   1.112   9.408
 4448SOL    HW214097   3.204   1.215   9.381
 4449SOL     OW14098   2.159   0.035   9.481
 4449SOL    HW114099   2.208   0.119   9.460
 4449SOL    HW214100   2.221  -0.030   9.526
 4450SOL     OW14101   2.797   0.236   9.790
 4450SOL    HW114102   2.749   0.277   9.712
 4450SOL    HW214103   2.896   0.234   9.771
 4451SOL     OW14104   2.938   0.683  10.774
 4451SOL    HW114105   2.858   0.622  10.777
 4451SOL    HW214106   3.019   0.630  10.750
 4452SOL     OW14107   3.089   1.570  10.103
 4452SOL    HW114108   3.110   1.644  10.038
 4452SOL    HW214109   3.157   1.570  10.176
 4453SOL     OW14110   2.321   1.152  10.051
 4453SOL    HW114111   2.250   1.125  10.116
 4453SOL    HW214112   2.295   1.124   9.958
 4454SOL     OW14113   3.133   1.797   9.901
 4454SOL    HW114114   3.177   1.861   9.837
 4454SOL    HW214115   3.083   1.849   9.971
 4455SOL     OW14116   2.894   0.549   9.326
 4455SOL    HW114117   2.853   0.631   9.287
 4455SOL    HW214118   2.958   0.575   9.399
 4456SOL     OW14119   1.940   0.556  10.696
 4456SOL    HW114120   2.032   0.555  10.655
 4456SOL    HW214121   1.934   0.630  10.763
 4457SOL     OW14122   2.423   0.222  10.457
 4457SOL    HW114123   2.461   0.138  10.494
 4457SOL    HW214124   2.335   0.241  10.501
 4458SOL     OW14125   2.728   0.454   9.952
 4458SOL    HW114126   2.696   0.526   9.890
 4458SOL    HW214127   2.752   0.373   9.899
 4459SOL     OW14128   2.879   0.039  10.063
 4459SOL    HW114129   2.807   0.044   9.994
 4459SOL    HW214130   2.855  -0.030  10.132
 4460SOL     OW14131   3.291   1.173  10.177
 4460SOL    HW114132   3.236   1.089  10.170
 4460SOL    HW214133   3.317   1.202  10.085
 4461SOL     OW14134   3.328   0.590  10.302
 4461SOL    HW114135   3.298   0.495  10.309
 4461SOL    HW214136   3.401   0.606  10.368
 4462SOL     OW14137   3.719   0.833   9.687
 4462SOL    HW114138   3.761   0.769   9.751
 4462SOL    HW214139   3.681   0.782   9.609
 4463SOL     OW14140   2.350   1.385   9.484
 4463SOL    HW114141   2.263   1.370   9.531
 4463SOL    HW214142   2.333   1.411   9.389
 4464SOL     OW14143   3.526   1.280   9.967
 4464SOL    HW114144   3.625   1.288   9.981
 4464SOL    HW214145   3.481   1.364   9.998
 4465SOL     OW14146   3.252   0.575   9.388
 4465SOL    HW114147   3.198   0.554   9.469
 4465SOL    HW214148   3.343   0.534   9.397
 4466SOL     OW14149   2.389   0.256   9.638
 4466SOL    HW114150   2.416   0.197   9.563
 4466SOL    HW214151   2.389   0.351   9.607
 4467SOL     OW14152   3.616   1.223  10.898
 4467SOL    HW114153   3.707   1.184  10.885
 4467SOL    HW214154   3.624   1.319  10.922
 4468SOL     OW14155   2.926   1.347  10.650
 4468SOL    HW114156   2.846   1.324  10.705
 4468SOL    HW214157   3.009   1.321  10.699
 4469SOL     OW14158   3.454   1.629  10.935
 4469SOL    HW114159   3.481   1.663  10.845
 4469SOL    HW214160   3.533   1.591  10.981
 4470SOL     OW14161   2.973   1.195  10.410
 4470SOL    HW114162   2.933   1.239  10.491
 4470SOL    HW214163   2.932   1.232  10.327
 4471SOL     OW14164   3.500   1.099  10.389
 4471SOL    HW114165   3.505   1.180  10.448
 4471SOL    HW214166   3.414   1.101  10.338
 4472SOL     OW14167   2.777   0.089  10.712
 4472SOL    HW114168   2.802   0.069  10.617
 4472SOL    HW214169   2.849   0.145  10.754
 4473SOL     OW14170   2.842   1.116  11.029
 4473SOL    HW114171   2.743   1.122  11.039
 4473SOL    HW214172   2.865   1.036  10.973
 4474SOL     OW14173   2.567   1.050   9.678
 4474SOL    HW114174   2.553   1.057   9.777
 4474SOL    HW214175   2.651   0.999   9.660
 4475SOL     OW14176   2.272   0.813  10.561
 4475SOL    HW114177   2.358   0.825  10.611
 4475SOL    HW214178   2.230   0.726  10.588
 4476SOL     OW14179   3.136   0.386  10.572
 4476SOL    HW114180   3.157   0.460  10.636
 4476SOL    HW214181   3.047   0.403  10.529
 4477SOL     OW14182   1.926   1.564  10.641
 4477SOL    HW114183   1.880   1.646  10.607
 4477SOL    HW214184   2.024   1.583  10.650
 4478SOL     OW14185   2.229   1.100   9.811
 4478SOL    HW114186   2.222   1.183   9.755
 4478SOL    HW214187   2.233   1.020   9.751
 4479SOL     OW14188   2.428   0.537  10.175
 4479SOL    HW114189   2.440   0.603  10.101
 4479SOL    HW214190   2.474   0.571  10.258
 4480SOL     OW14191   3.114   1.348   9.698
 4480SOL    HW114192   3.164   1.425   9.738
 4480SOL    HW214193   3.019   1.350   9.730
 4481SOL     OW14194   3.134   1.445  10.452
 4481SOL    HW114195   3.181   1.458  10.539
 4481SOL    HW214196   3.068   1.371  10.461
 4482SOL     OW14197   3.444   0.639   9.782
 4482SOL    HW114198   3.413   0.700   9.855
 4482SOL    HW214199   3.494   0.691   9.713
 4483SOL     OW14200   2.216   1.510  10.639
 4483SOL    HW114201   2.195   1.466  10.552
 4483SOL    HW214202   2.313   1.536  10.642
 4484SOL     OW14203   2.264   0.751  10.908
 4484SOL    HW114204   2.332   0.806  10.861
 4484SOL    HW214205   2.304   0.663  10.935
 4485SOL     OW14206   3.449   0.779  10.980
 4485SOL    HW114207   3.357   0.817  10.975
 4485SOL    HW214208   3.509   0.826  10.915
 4486SOL     OW14209   2.875   0.105  11.080
 4486SOL    HW114210   2.881   0.190  11.028
 4486SOL    HW214211   2.907   0.029  11.023
 4487SOL     OW14212   2.366   0.050  11.050
 4487SOL    HW114213   2.324  -0.007  10.980
 4487SOL    HW214214   2.300   0.119  11.082
 4488SOL     OW14215   2.435   0.870  10.339
 4488SOL    HW114216   2.479   0.959  10.330
 4488SOL    HW214217   2.372   0.870  10.416
 4489SOL     OW14218   3.222   0.862  10.355
 4489SOL    HW114219   3.147   0.862  10.289
 4489SOL    HW214220   3.259   0.770  10.364
 4490SOL     OW14221   3.071   0.525   9.585
 4490SOL    HW114222   3.084   0.441   9.639
 4490SOL    HW214223   3.042   0.599   9.645
 4491SOL     OW14224   2.169   0.213  10.541
 4491SOL    HW114225   2.146   0.250  10.631
 4491SOL    HW214226   2.139   0.118  10.535
 4492SOL     OW14227   1.899   1.310  10.592
 4492SOL    HW114228   1.952   1.261  10.660
 4492SOL    HW214229   1.921   1.408  10.597
 4493SOL     OW14230   2.594   0.634  10.374
 4493SOL    HW114231   2.653   0.608  10.298
 4493SOL    HW214232   2.566   0.730  10.363
 4494SOL     OW14233   3.590   0.935  11.164
 4494SOL    HW114234   3.544   0.928  11.075
 4494SOL    HW214235   3.528   0.979  11.230
 4495SOL     OW14236   2.169   0.063   9.928
 4495SOL    HW114237   2.158   0.157   9.961
 4495SOL    HW214238   2.164   0.000  10.005
 4496SOL     OW14239   3.484   0.367   9.684
 4496SOL    HW114240   3.486   0.291   9.748
 4496SOL    HW214241   3.436   0.444   9.724
 4497SOL     OW14242   2.885   0.766  10.276
 4497SOL    HW114243   2.900   0.787  10.372
 4497SOL    HW214244   2.855   0.671  10.267
 4498SOL     OW14245   2.842   1.573  11.010
 4498SOL    HW114246   2.822   1.617  10.922
 4498SOL    HW214247   2.881   1.482  10.994
 4499SOL     OW14248   3.721   1.518  10.915
 4499SOL    HW114249   3.735   1.545  10.820
 4499SOL    HW214250   3.804   1.540  10.968
 4500SOL     OW14251   2.212   0.898  11.114
 4500SOL    HW114252   2.288   0.942  11.162
 4500SOL    HW214253   2.247   0.851  11.032
 4501SOL     OW14254   3.402   0.274   9.435
 4501SOL    HW114255   3.341   0.199   9.458
 4501SOL    HW214256   3.424   0.326   9.518
 4502SOL     OW14257   3.165   0.838   9.352
 4502SOL    HW114258   3.199   0.745   9.367
 4502SOL    HW214259   3.183   0.865   9.257
 4503SOL     OW14260   2.930   1.333  10.159
 4503SOL    HW114261   2.937   1.249  10.104
 4503SOL    HW214262   2.992   1.402  10.123
 4504SOL     OW14263   2.181   0.810  10.259
 4504SOL    HW114264   2.274   0.846  10.264
 4504SOL    HW214265   2.175   0.725  10.311
 4505SOL     OW14266   2.201   0.509  10.316
 4505SOL    HW114267   2.149   0.426  10.299
 4505SOL    HW214268   2.278   0.514  10.252
 4506SOL     OW14269   3.000   0.380  10.988
 4506SOL    HW114270   2.955   0.443  11.052
 4506SOL    HW214271   3.093   0.411  10.971
 4507SOL     OW14272   3.022   0.207  10.787
 4507SOL    HW114273   3.022   0.271  10.864
 4507SOL    HW214274   3.050   0.255  10.704
 4508SOL     OW14275   1.870   1.326   9.510
 4508SOL    HW114276   1.777   1.347   9.479
 4508SOL    HW214277   1.880   1.227   9.523
 4509SOL     OW14278   2.366   1.568  10.220
 4509SOL    HW114279   2.432   1.642  10.229
 4509SOL    HW214280   2.410   1.489  10.178
 4510SOL     OW14281   2.864   0.796  10.548
 4510SOL    HW114282   2.905   0.764  10.634
 4510SOL    HW214283   2.768   0.769  10.545
 4511SOL     OW14284   1.902   0.544  10.424
 4511SOL    HW114285   1.987   0.511  10.383
 4511SOL    HW214286   1.915   0.559  10.522
 4512SOL     OW14287   2.051   0.520  11.032
 4512SOL    HW114288   2.110   0.480  10.962
 4512SOL    HW214289   1.993   0.591  10.991
 4513SOL     OW14290   3.231   0.950  10.970
 4513SOL    HW114291   3.270   1.039  10.990
 4513SOL    HW214292   3.241   0.930  10.873
 4514SOL     OW14293   2.677   0.572   9.635
 4514SOL    HW114294   2.684   0.483   9.589
 4514SOL    HW214295   2.583   0.606   9.627
 4515SOL     OW14296   3.519   0.604  10.516
 4515SOL    HW114297   3.481   0.535  10.578
 4515SOL    HW214298   3.601   0.568  10.472
 4516SOL     OW14299   2.114   1.564  11.054
 4516SOL    HW114300   2.084   1.621  11.130
 4516SOL    HW214301   2.107   1.467  11.080
 4517SOL     OW14302   2.533   0.464  10.579
 4517SOL    HW114303   2.499   0.375  10.549
 4517SOL    HW214304   2.559   0.518  10.499
 4518SOL     OW14305   2.792   1.678  10.775
 4518SOL    HW114306   2.768   1.660  10.680
 4518SOL    HW214307   2.822   1.772  10.785
 4519SOL     OW14308   2.335   0.500   9.501
 4519SOL    HW114309   2.396   0.580   9.505
 4519SOL    HW214310   2.240   0.531   9.508
 4520SOL     OW14311   2.021   1.137  10.776
 4520SOL    HW114312   2.043   1.076  10.852
 4520SOL    HW214313   2.031   1.088  10.690
 4521SOL     OW14314   3.209   1.059  10.544
 4521SOL    HW114315   3.233   0.996  10.470
 4521SOL    HW214316   3.119   1.099  10.526
 4522SOL     OW14317   3.164   0.855   9.619
 4522SOL    HW114318   3.078   0.824   9.661
 4522SOL    HW214319   3.160   0.841   9.520
 4523SOL     OW14320   3.621   1.747  10.464
 4523SOL    HW114321   3.682   1.777  10.391
 4523SOL    HW214322   3.583   1.658  10.442
 4524SOL     OW14323   3.114   1.731  10.438
 4524SOL    HW114324   3.198   1.736  10.384
 4524SOL    HW214325   3.091   1.635  10.456
 4525SOL     OW14326   1.945   1.258  10.332
 4525SOL    HW114327   1.940   1.257  10.432
 4525SOL    HW214328   1.862   1.217  10.294
 4526SOL     OW14329   2.550   1.662  11.026
 4526SOL    HW114330   2.494   1.743  11.035
 4526SOL    HW214331   2.602   1.666  10.940
 4527SOL     OW14332   3.588   0.135   9.833
 4527SOL    HW114333   3.661   0.118   9.766
 4527SOL    HW214334   3.557   0.048   9.871
 4528SOL     OW14335   3.250   1.573   9.787
 4528SOL    HW114336   3.317   1.585   9.713
 4528SOL    HW214337   3.210   1.662   9.810
 4529SOL     OW14338   3.142   0.927   9.982
 4529SOL    HW114339   3.202   0.846   9.984
 4529SOL    HW214340   3.182   0.996   9.922
 4530SOL     OW14341   2.692   1.273  10.732
 4530SOL    HW114342   2.687   1.306  10.827
 4530SOL    HW214343   2.606   1.292  10.686
 4531SOL     OW14344   2.534   1.616   9.464
 4531SOL    HW114345   2.543   1.626   9.365
 4531SOL    HW214346   2.494   1.527   9.485
 4532SOL     OW14347   3.512   1.720  10.704
 4532SOL    HW114348   3.565   1.730  10.620
 4532SOL    HW214349   3.485   1.810  10.738
 4533SOL     OW14350   3.703   0.175  10.273
 4533SOL    HW114351   3.742   0.090  10.237
 4533SOL    HW214352   3.605   0.177  10.254
 4534SOL     OW14353   2.125   0.326  10.030
 4534SOL    HW114354   2.046   0.377   9.996
 4534SOL    HW214355   2.116   0.311  10.128
 4535SOL     OW14356   3.056   1.612   9.341
 4535SOL    HW114357   3.062   1.519   9.378
 4535SOL    HW214358   2.997   1.612   9.261
 4536SOL     OW14359   2.684   1.002  10.682
 4536SOL    HW114360   2.724   1.001  10.590
 4536SOL    HW214361   2.694   1.094  10.722
 4537SOL     OW14362   2.778   0.910   9.601
 4537SOL    HW114363   2.841   0.948   9.533
 4537SOL    HW214364   2.818   0.827   9.640
 4538SOL     OW14365   3.366   1.607   9.354
 4538SOL    HW114366   3.274   1.644   9.361
 4538SOL    HW214367   3.404   1.627   9.264
 4539SOL     OW14368   2.234   1.288  10.800
 4539SOL    HW114369   2.221   1.381  10.766
 4539SOL    HW214370   2.150   1.236  10.787
 4540SOL     OW14371   3.476   1.292  10.599
 4540SOL    HW114372   3.536   1.295  10.679
 4540SOL    HW214373   3.401   1.356  10.612
 4541SOL     OW14374   2.901   1.098  10.006
 4541SOL    HW114375   2.831   1.051  10.060
 4541SOL    HW214376   2.960   1.030   9.963
 4542SOL     OW14377   2.876   0.236  10.281
 4542SOL    HW114378   2.868   0.200  10.188
 4542SOL    HW214379   2.874   0.160  10.346
 4543SOL     OW14380   2.452   1.487   9.801
 4543SOL    HW114381   2.494   1.429   9.731
 4543SOL    HW214382   2.408   1.566   9.757
 4544SOL     OW14383   3.571   0.385  10.691
 4544SOL    HW114384   3.644   0.454  10.695
 4544SOL    HW214385   3.599   0.310  10.632
 4545SOL     OW14386   2.117   1.348   9.600
 4545SOL    HW114387   2.021   1.349   9.573
 4545SOL    HW214388   2.129   1.401   9.684
 4546SOL     OW14389   1.967   1.013  11.036
 4546SOL    HW114390   1.890   0.980  11.090
 4546SOL    HW214391   2.052   0.983  11.078
 4547SOL     OW14392   2.534   0.203  10.799
 4547SOL    HW114393   2.624   0.187  10.759
 4547SOL    HW214394   2.542   0.208  10.898
 4548SOL     OW14395   1.937   0.345   9.343
 4548SOL    HW114396   1.845   0.317   9.314
 4548SOL    HW214397   1.968   0.422   9.287
 4549SOL     OW14398   3.302   0.856  10.708
 4549SOL    HW114399   3.245   0.908  10.645
 4549SOL    HW214400   3.398   0.868  10.684
 4550SOL     OW14401   1.934   0.166   9.628
 4550SOL    HW114402   1.917   0.249   9.574
 4550SOL    HW214403   2.024   0.129   9.606
 4551SOL     OW14404   3.045   1.335   9.429
 4551SOL    HW114405   2.946   1.324   9.431
 4551SOL    HW214406   3.079   1.350   9.522
 4552SOL     OW14407   2.475   0.842  10.741
 4552SOL    HW114408   2.531   0.923  10.724
 4552SOL    HW214409   2.534   0.762  10.744
 4553SOL     OW14410   3.355   1.767  10.269
 4553SOL    HW114411   3.388   1.831  10.200
 4553SOL    HW214412   3.421   1.761  10.344
 4554SOL     OW14413   2.578   0.565  11.018
 4554SOL    HW114414   2.597   0.630  11.092
 4554SOL    HW214415   2.638   0.485  11.027
 4555SOL     OW14416   3.312   1.220  10.943
 4555SOL    HW114417   3.303   1.210  11.042
 4555SOL    HW214418   3.408   1.213  10.917
 4556SOL     OW14419   2.252   1.741  10.870
 4556SOL    HW114420   2.161   1.782  10.868
 4556SOL    HW214421   2.245   1.647  10.902
 4557SOL     OW14422   3.536   0.883  10.564
 4557SOL    HW114423   3.509   0.794  10.527
 4557SOL    HW214424   3.537   0.951  10.491
 4558SOL     OW14425   3.087   0.325   9.759
 4558SOL    HW114426   3.152   0.251   9.748
 4558SOL    HW214427   3.107   0.375   9.843
 4559SOL     OW14428   2.456   0.745   9.962
 4559SOL    HW114429   2.506   0.830   9.943
 4559SOL    HW214430   2.368   0.747   9.914
 4560SOL     OW14431   3.639   0.342  10.952
 4560SOL    HW114432   3.622   0.373  10.858
 4560SOL    HW214433   3.555   0.305  10.990
 4561SOL     OW14434   3.592   0.934  10.827
 4561SOL    HW114435   3.630   1.025  10.842
 4561SOL    HW214436   3.584   0.917  10.728
 4562SOL     OW14437   2.721   1.374   9.326
 4562SOL    HW114438   2.675   1.389   9.414
 4562SOL    HW214439   2.765   1.459   9.296
 4563SOL     OW14440   2.523   1.790  10.263
 4563SOL    HW114441   2.477   1.878  10.250
 4563SOL    HW214442   2.622   1.802  10.256
 4564SOL     OW14443   2.721   0.956  10.171
 4564SOL    HW114444   2.775   0.887  10.219
 4564SOL    HW214445   2.689   1.025  10.237
 4565SOL     OW14446   2.945   0.984   9.397
 4565SOL    HW114447   2.922   1.037   9.315
 4565SOL    HW214448   3.026   0.928   9.378
 4566SOL     OW14449   3.723   1.569  10.161
 4566SOL    HW114450   3.652   1.557  10.091
 4566SOL    HW214451   3.724   1.490  10.221
 4567SOL     OW14452   2.083   1.314  11.154
 4567SOL    HW114453   2.018   1.241  11.133
 4567SOL    HW214454   2.087   1.328  11.252
 4568SOL     OW14455   1.941   1.240   9.963
 4568SOL    HW114456   1.940   1.193  10.051
 4568SOL    HW214457   2.023   1.212   9.912
 4569SOL     OW14458   2.534   1.391  10.934
 4569SOL    HW114459   2.456   1.341  10.972
 4569SOL    HW214460   2.531   1.486  10.965
 4570SOL     OW14461   3.686   0.192  10.537
 4570SOL    HW114462   3.682   0.102  10.581
 4570SOL    HW214463   3.689   0.181  10.438
 4571SOL     OW14464   2.290   0.424   9.830
 4571SOL    HW114465   2.320   0.352   9.768
 4571SOL    HW214466   2.251   0.384   9.913
 4572SOL     OW14467   3.567   1.487  10.414
 4572SOL    HW114468   3.474   1.462  10.387
 4572SOL    HW214469   3.593   1.437  10.496
 4573SOL     OW14470   2.179   0.547  10.590
 4573SOL    HW114471   2.217   0.488  10.662
 4573SOL    HW214472   2.219   0.521  10.502
 4574SOL     OW14473   2.674   1.586   9.997
 4574SOL    HW114474   2.706   1.596   9.903
 4574SOL    HW214475   2.595   1.524   9.999
 4575SOL     OW14476   3.286   0.214  10.422
 4575SOL    HW114477   3.338   0.149  10.477
 4575SOL    HW214478   3.237   0.277  10.483
 4576SOL     OW14479   2.863   0.034  10.464
 4576SOL    HW114480   2.800  -0.038  10.433
 4576SOL    HW214481   2.956  -0.002  10.464
 4577SOL     OW14482   2.632   1.330   9.611
 4577SOL    HW114483   2.586   1.243   9.628
 4577SOL    HW214484   2.723   1.327   9.652
 4578SOL     OW14485   2.480   1.567  10.594
 4578SOL    HW114486   2.475   1.649  10.651
 4578SOL    HW214487   2.569   1.564  10.549
 4579SOL     OW14488   3.214   0.052   9.478
 4579SOL    HW114489   3.249   0.011   9.394
 4579SOL    HW214490   3.124   0.014   9.498
 4580SOL     OW14491   3.162   0.453  10.001
 4580SOL    HW114492   3.103   0.533  10.005
 4580SOL    HW214493   3.177   0.418  10.094
 4581SOL     OW14494   3.455   0.221  10.192
 4581SOL    HW114495   3.371   0.220  10.246
 4581SOL    HW214496   3.457   0.304  10.136
 4582SOL     OW14497   1.901   1.077   9.610
 4582SOL    HW114498   2.000   1.066   9.601
 4582SOL    HW214499   1.861   0.991   9.642
 4583SOL     OW14500   2.737   1.646   9.647
 4583SOL    HW114501   2.660   1.611   9.593
 4583SOL    HW214502   2.705   1.717   9.709
 4584SOL     OW14503   2.092   0.628  11.285
 4584SOL    HW114504   1.999   0.626  11.322
 4584SOL    HW214505   2.093   0.589  11.193
 4585SOL     OW14506   2.087   0.275  12.168
 4585SOL    HW114507   2.122   0.258  12.260
 4585SOL    HW214508   1.999   0.230  12.156
 4586SOL     OW14509   1.881   0.368  11.819
 4586SOL    HW114510   1.799   0.411  11.858
 4586SOL    HW214511   1.853   0.295  11.756
 4587SOL     OW14512   2.431   1.275  12.337
 4587SOL    HW114513   2.338   1.268  12.300
 4587SOL    HW214514   2.442   1.364  12.381
 4588SOL     OW14515   3.417   1.511  11.875
 4588SOL    HW114516   3.360   1.495  11.956
 4588SOL    HW214517   3.358   1.521  11.795
 4589SOL     OW14518   2.997   0.703  11.889
 4589SOL    HW114519   3.054   0.781  11.864
 4589SOL    HW214520   2.937   0.729  11.965
 4590SOL     OW14521   3.617   0.607  11.403
 4590SOL    HW114522   3.605   0.594  11.304
 4590SOL    HW214523   3.587   0.526  11.452
 4591SOL     OW14524   2.630   1.144  12.195
 4591SOL    HW114525   2.552   1.161  12.255
 4591SOL    HW214526   2.664   1.231  12.159
 4592SOL     OW14527   2.712   0.798  12.995
 4592SOL    HW114528   2.708   0.874  13.060
 4592SOL    HW214529   2.734   0.834  12.904
 4593SOL     OW14530   2.547   1.012  11.837
 4593SOL    HW114531   2.616   0.996  11.907
 4593SOL    HW214532   2.474   1.069  11.875
 4594SOL     OW14533   2.548   1.161  12.975
 4594SOL    HW114534   2.608   1.240  12.989
 4594SOL    HW214535   2.462   1.192  12.934
 4595SOL     OW14536   2.197   1.435  12.233
 4595SOL    HW114537   2.119   1.404  12.180
 4595SOL    HW214538   2.255   1.493  12.176
 4596SOL     OW14539   3.322   1.505  12.511
 4596SOL    HW114540   3.346   1.599  12.537
 4596SOL    HW214541   3.306   1.451  12.593
 4597SOL     OW14542   2.300   0.392  12.671
 4597SOL    HW114543   2.382   0.336  12.680
 4597SOL    HW214544   2.219   0.334  12.675
 4598SOL     OW14545   3.465   0.447  11.909
 4598SOL    HW114546   3.391   0.493  11.859
 4598SOL    HW214547   3.516   0.515  11.962
 4599SOL     OW14548   2.093   1.713  11.655
 4599SOL    HW114549   2.127   1.790  11.709
 4599SOL    HW214550   2.137   1.713  11.565
 4600SOL     OW14551   2.989   1.341  12.862
 4600SOL    HW114552   3.036   1.341  12.950
 4600SOL    HW214553   2.941   1.254  12.851
 4601SOL     OW14554   2.092   1.434  11.710
 4601SOL    HW114555   2.066   1.530  11.710
 4601SOL    HW214556   2.021   1.380  11.755
 4602SOL     OW14557   2.102   1.091  12.058
 4602SOL    HW114558   2.116   1.007  12.110
 4602SOL    HW214559   2.047   1.155  12.113
 4603SOL     OW14560   2.482   1.786  12.611
 4603SOL    HW114561   2.390   1.769  12.646
 4603SOL    HW214562   2.510   1.878  12.637
 4604SOL     OW14563   2.468   0.964  11.295
 4604SOL    HW114564   2.475   1.048  11.241
 4604SOL    HW214565   2.514   0.977  11.383
 4605SOL     OW14566   3.456   0.114  12.652
 4605SOL    HW114567   3.438   0.181  12.580
 4605SOL    HW214568   3.453   0.160  12.741
 4606SOL     OW14569   1.984   0.643  11.735
 4606SOL    HW114570   1.939   0.555  11.752
 4606SOL    HW214571   1.983   0.697  11.819
 4607SOL     OW14572   3.704   1.767  11.531
 4607SOL    HW114573   3.758   1.738  11.611
 4607SOL    HW214574   3.734   1.857  11.502
 4608SOL     OW14575   3.551   0.922  11.784
 4608SOL    HW114576   3.646   0.893  11.792
 4608SOL    HW214577   3.543   0.987  11.709
 4609SOL     OW14578   3.503   1.108  11.604
 4609SOL    HW114579   3.589   1.110  11.552
 4609SOL    HW214580   3.517   1.155  11.692
 4610SOL     OW14581   1.975   0.737  12.769
 4610SOL    HW114582   2.063   0.724  12.814
 4610SOL    HW214583   1.962   0.834  12.747
 4611SOL     OW14584   2.475   1.365  11.898
 4611SOL    HW114585   2.426   1.278  11.907
 4611SOL    HW214586   2.452   1.408  11.811
 4612SOL     OW14587   3.155   1.228  12.595
 4612SOL    HW114588   3.192   1.155  12.537
 4612SOL    HW214589   3.207   1.233  12.680
 4613SOL     OW14590   2.671   0.004  11.674
 4613SOL    HW114591   2.711   0.095  11.665
 4613SOL    HW214592   2.571   0.012  11.680
 4614SOL     OW14593   2.059   0.976  12.436
 4614SOL    HW114594   2.148   0.931  12.422
 4614SOL    HW214595   1.986   0.911  12.417
 4615SOL     OW14596   3.387   0.999  11.362
 4615SOL    HW114597   3.324   0.923  11.375
 4615SOL    HW214598   3.435   1.017  11.448
 4616SOL     OW14599   3.049   1.792  12.788
 4616SOL    HW114600   3.073   1.852  12.712
 4616SOL    HW214601   3.056   1.697  12.758
 4617SOL     OW14602   2.179   0.251  12.973
 4617SOL    HW114603   2.250   0.322  12.979
 4617SOL    HW214604   2.091   0.290  13.001
 4618SOL     OW14605   3.328   1.417  12.125
 4618SOL    HW114606   3.269   1.423  12.205
 4618SOL    HW214607   3.313   1.329  12.079
 4619SOL     OW14608   3.529   1.714  11.744
 4619SOL    HW114609   3.488   1.691  11.656
 4619SOL    HW214610   3.511   1.640  11.809
 4620SOL     OW14611   2.460   0.729  11.442
 4620SOL    HW114612   2.484   0.798  11.374
 4620SOL    HW214613   2.382   0.762  11.496
 4621SOL     OW14614   3.143   0.345  12.116
 4621SOL    HW114615   3.057   0.295  12.103
 4621SOL    HW214616   3.205   0.291  12.172
 4622SOL     OW14617   3.438   1.662  11.479
 4622SOL    HW114618   3.527   1.708  11.482
 4622SOL    HW214619   3.417   1.638  11.384
 4623SOL     OW14620   2.669   0.605  12.637
 4623SOL    HW114621   2.622   0.602  12.726
 4623SOL    HW214622   2.618   0.550  12.571
 4624SOL     OW14623   3.256   0.469  12.846
 4624SOL    HW114624   3.236   0.512  12.934
 4624SOL    HW214625   3.334   0.407  12.855
 4625SOL     OW14626   2.835   0.890  12.744
 4625SOL    HW114627   2.881   0.806  12.715
 4625SOL    HW214628   2.779   0.924  12.669
 4626SOL     OW14629   2.853   0.410  12.414
 4626SOL    HW114630   2.776   0.444  12.468
 4626SOL    HW214631   2.819   0.359  12.335
 4627SOL     OW14632   2.903   0.701  11.601
 4627SOL    HW114633   2.929   0.697  11.697
 4627SOL    HW214634   2.818   0.650  11.587
 4628SOL     OW14635   1.938   0.811  11.961
 4628SOL    HW114636   2.037   0.799  11.970
 4628SOL    HW214637   1.914   0.906  11.982
 4629SOL     OW14638   2.727   0.348  11.367
 4629SOL    HW114639   2.786   0.411  11.318
 4629SOL    HW214640   2.746   0.254  11.338
 4630SOL     OW14641   3.581   0.585  13.003
 4630SOL    HW114642   3.555   0.674  12.967
 4630SOL    HW214643   3.579   0.517  12.930
 4631SOL     OW14644   3.224   1.144  11.717
 4631SOL    HW114645   3.307   1.115  11.669
 4631SOL    HW214646   3.175   1.211  11.661
 4632SOL     OW14647   2.412   0.196  12.057
 4632SOL    HW114648   2.407   0.191  12.157
 4632SOL    HW214649   2.414   0.292  12.028
 4633SOL     OW14650   2.870   1.456  11.649
 4633SOL    HW114651   2.824   1.528  11.597
 4633SOL    HW214652   2.866   1.476  11.747
 4634SOL     OW14653   2.213   1.801  12.025
 4634SOL    HW114654   2.263   1.715  12.031
 4634SOL    HW214655   2.278   1.878  12.022
 4635SOL     OW14656   3.657   1.066  12.045
 4635SOL    HW114657   3.595   1.051  11.969
 4635SOL    HW214658   3.605   1.077  12.130
 4636SOL     OW14659   3.089   1.550  12.678
 4636SOL    HW114660   3.095   1.473  12.742
 4636SOL    HW214661   3.037   1.524  12.598
 4637SOL     OW14662   2.183   0.943  11.414
 4637SOL    HW114663   2.265   0.982  11.372
 4637SOL    HW214664   2.156   0.861  11.365
 4638SOL     OW14665   3.320   0.735  11.900
 4638SOL    HW114666   3.315   0.670  11.975
 4638SOL    HW214667   3.400   0.794  11.913
 4639SOL     OW14668   2.323   1.266  12.899
 4639SOL    HW114669   2.273   1.267  12.813
 4639SOL    HW214670   2.260   1.248  12.975
 4640SOL     OW14671   2.973   1.776  11.409
 4640SOL    HW114672   2.913   1.714  11.459
 4640SOL    HW214673   3.004   1.732  11.324
 4641SOL     OW14674   2.064   0.285  12.670
 4641SOL    HW114675   1.984   0.345  12.657
 4641SOL    HW214676   2.054   0.236  12.756
 4642SOL     OW14677   3.494   1.377  11.253
 4642SOL    HW114678   3.462   1.471  11.243
 4642SOL    HW214679   3.418   1.314  11.241
 4643SOL     OW14680   2.326   1.743  11.495
 4643SOL    HW114681   2.359   1.782  11.581
 4643SOL    HW214682   2.402   1.736  11.430
 4644SOL     OW14683   3.262   0.107  11.598
 4644SOL    HW114684   3.238   0.070  11.508
 4644SOL    HW214685   3.361   0.123  11.602
 4645SOL     OW14686   2.111   1.785  12.413
 4645SOL    HW114687   2.168   1.720  12.463
 4645SOL    HW214688   2.095   1.752  12.320
 4646SOL     OW14689   2.802   1.698  12.076
 4646SOL    HW114690   2.882   1.641  12.097
 4646SOL    HW214691   2.753   1.658  11.999
 4647SOL     OW14692   2.244   0.700  11.652
 4647SOL    HW114693   2.289   0.610  11.649
 4647SOL    HW214694   2.150   0.689  11.685
 4648SOL     OW14695   3.409   0.222  12.901
 4648SOL    HW114696   3.404   0.259  12.993
 4648SOL    HW214697   3.337   0.153  12.889
 4649SOL     OW14698   2.476   0.122  11.289
 4649SOL    HW114699   2.574   0.100  11.296
 4649SOL    HW214700   2.445   0.105  11.196
 4650SOL     OW14701   2.643   0.264  12.921
 4650SOL    HW114702   2.710   0.203  12.964
 4650SOL    HW214703   2.570   0.283  12.986
 4651SOL     OW14704   2.750   1.514  12.367
 4651SOL    HW114705   2.727   1.489  12.273
 4651SOL    HW214706   2.811   1.445  12.406
 4652SOL     OW14707   3.213   0.590  12.605
 4652SOL    HW114708   3.241   0.547  12.690
 4652SOL    HW214709   3.238   0.686  12.606
 4653SOL     OW14710   2.665   1.402  12.096
 4653SOL    HW114711   2.755   1.416  12.054
 4653SOL    HW214712   2.594   1.404  12.025
 4654SOL     OW14713   2.784   0.503  12.071
 4654SOL    HW114714   2.759   0.494  11.975
 4654SOL    HW214715   2.832   0.421  12.102
 4655SOL     OW14716   2.401   0.064  11.684
 4655SOL    HW114717   2.320   0.065  11.742
 4655SOL    HW214718   2.404   0.147  11.629
 4656SOL     OW14719   3.296   1.188  11.213
 4656SOL    HW114720   3.328   1.112  11.270
 4656SOL    HW214721   3.204   1.215  11.243
 4657SOL     OW14722   2.159   0.035  11.343
 4657SOL    HW114723   2.208   0.119  11.322
 4657SOL    HW214724   2.221  -0.030  11.388
 4658SOL     OW14725   2.797   0.236  11.652
 4658SOL    HW114726   2.749   0.277  11.574
 4658SOL    HW214727   2.896   0.234  11.633
 4659SOL     OW14728   2.938   0.683  12.636
 4659SOL    HW114729   2.858   0.622  12.639
 4659SOL    HW214730   3.019   0.630  12.612
 4660SOL     OW14731   3.089   1.570  11.965
 4660SOL    HW114732   3.110   1.644  11.900
 4660SOL    HW214733   3.157   1.570  12.038
 4661SOL     OW14734   2.321   1.152  11.913
 4661SOL    HW114735   2.250   1.125  11.978
 4661SOL    HW214736   2.295   1.124  11.820
 4662SOL     OW14737   3.133   1.797  11.763
 4662SOL    HW114738   3.177   1.861  11.699
 4662SOL    HW214739   3.083   1.849  11.833
 4663SOL     OW14740   2.894   0.549  11.188
 4663SOL    HW114741   2.853   0.631  11.149
 4663SOL    HW214742   2.958   0.575  11.261
 4664SOL     OW14743   1.940   0.556  12.558
 4664SOL    HW114744   2.032   0.555  12.517
 4664SOL    HW214745   1.934   0.630  12.625
 4665SOL     OW14746   2.423   0.222  12.319
 4665SOL    HW114747   2.461   0.138  12.356
 4665SOL    HW214748   2.335   0.241  12.363
 4666SOL     OW14749   2.728   0.454  11.814
 4666SOL    HW114750   2.696   0.526  11.752
 4666SOL    HW214751   2.752   0.373  11.761
 4667SOL     OW14752   2.879   0.039  11.925
 4667SOL    HW114753   2.807   0.044  11.856
 4667SOL    HW214754   2.855  -0.030  11.994
 4668SOL     OW14755   3.291   1.173  12.039
 4668SOL    HW114756   3.236   1.089  12.032
 4668SOL    HW214757   3.317   1.202  11.947
 4669SOL     OW14758   3.328   0.590  12.164
 4669SOL    HW114759   3.298   0.495  12.171
 4669SOL    HW214760   3.401   0.606  12.230
 4670SOL     OW14761   3.719   0.833  11.549
 4670SOL    HW114762   3.761   0.769  11.613
 4670SOL    HW214763   3.681   0.782  11.471
 4671SOL     OW14764   2.350   1.385  11.346
 4671SOL    HW114765   2.263   1.370  11.393
 4671SOL    HW214766   2.333   1.411  11.251
 4672SOL     OW14767   3.526   1.280  11.829
 4672SOL    HW114768   3.625   1.288  11.843
 4672SOL    HW214769   3.481   1.364  11.860
 4673SOL     OW14770   3.252   0.575  11.250
 4673SOL    HW114771   3.198   0.554  11.331
 4673SOL    HW214772   3.343   0.534  11.259
 4674SOL     OW14773   2.389   0.256  11.500
 4674SOL    HW114774   2.416   0.197  11.425
 4674SOL    HW214775   2.389   0.351  11.469
 4675SOL     OW14776   3.616   1.223  12.760
 4675SOL    HW114777   3.707   1.184  12.747
 4675SOL    HW214778   3.624   1.319  12.784
 4676SOL     OW14779   2.926   1.347  12.512
 4676SOL    HW114780   2.846   1.324  12.567
 4676SOL    HW214781   3.009   1.321  12.561
 4677SOL     OW14782   3.454   1.629  12.797
 4677SOL    HW114783   3.481   1.663  12.707
 4677SOL    HW214784   3.533   1.591  12.843
 4678SOL     OW14785   2.973   1.195  12.272
 4678SOL    HW114786   2.933   1.239  12.353
 4678SOL    HW214787   2.932   1.232  12.189
 4679SOL     OW14788   3.500   1.099  12.251
 4679SOL    HW114789   3.505   1.180  12.310
 4679SOL    HW214790   3.414   1.101  12.200
 4680SOL     OW14791   2.777   0.089  12.574
 4680SOL    HW114792   2.802   0.069  12.479
 4680SOL    HW214793   2.849   0.145  12.616
 4681SOL     OW14794   2.842   1.116  12.891
 4681SOL    HW114795   2.743   1.122  12.901
 4681SOL    HW214796   2.865   1.036  12.835
 4682SOL     OW14797   2.567   1.050  11.540
 4682SOL    HW114798   2.553   1.057  11.639
 4682SOL    HW214799   2.651   0.999  11.522
 4683SOL     OW14800   2.272   0.813  12.423
 4683SOL    HW114801   2.358   0.825  12.473
 4683SOL    HW214802   2.230   0.726  12.450
 4684SOL     OW14803   3.136   0.386  12.434
 4684SOL    HW114804   3.157   0.460  12.498
 4684SOL    HW214805   3.047   0.403  12.391
 4685SOL     OW14806   1.926   1.564  12.503
 4685SOL    HW114807   1.880   1.646  12.469
 4685SOL    HW214808   2.024   1.583  12.512
 4686SOL     OW14809   2.229   1.100  11.673
 4686SOL    HW114810   2.222   1.183  11.617
 4686SOL    HW214811   2.233   1.020  11.613
 4687SOL     OW14812   2.428   0.537  12.037
 4687SOL    HW114813   2.440   0.603  11.963
 4687SOL    HW214814   2.474   0.571  12.120
 4688SOL     OW14815   3.114   1.348  11.560
 4688SOL    HW114816   3.164   1.425  11.600
 4688SOL    HW214817   3.019   1.350  11.592
 4689SOL     OW14818   3.134   1.445  12.314
 4689SOL    HW114819   3.181   1.458  12.401
 4689SOL    HW214820   3.068   1.371  12.323
 4690SOL     OW14821   3.444   0.639  11.644
 4690SOL    HW114822   3.413   0.700  11.717
 4690SOL    HW214823   3.494   0.691  11.575
 4691SOL     OW14824   2.216   1.510  12.501
 4691SOL    HW114825   2.195   1.466  12.414
 4691SOL    HW214826   2.313   1.536  12.504
 4692SOL     OW14827   2.264   0.751  12.770
 4692SOL    HW114828   2.332   0.806  12.723
 4692SOL    HW214829   2.304   0.663  12.797
 4693SOL     OW14830   3.449   0.779  12.842
 4693SOL    HW114831   3.357   0.817  12.837
 4693SOL    HW214832   3.509   0.826  12.777
 4694SOL     OW14833   2.875   0.105  12.942
 4694SOL    HW114834   2.881   0.190  12.890
 4694SOL    HW214835   2.907   0.029  12.885
 4695SOL     OW14836   2.366   0.050  12.912
 4695SOL    HW114837   2.324  -0.007  12.842
 4695SOL    HW214838   2.300   0.119  12.944
 4696SOL     OW14839   2.435   0.870  12.201
 4696SOL    HW114840   2.479   0.959  12.192
 4696SOL    HW214841   2.372   0.870  12.278
 4697SOL     OW14842   3.222   0.862  12.217
 4697SOL    HW114843   3.147   0.862  12.151
 4697SOL    HW214844   3.259   0.770  12.226
 4698SOL     OW14845   3.071   0.525  11.447
 4698SOL    HW114846   3.084   0.441  11.501
 4698SOL    HW214847   3.042   0.599  11.507
 4699SOL     OW14848   2.169   0.213  12.403
 4699SOL    HW114849   2.146   0.250  12.493
 4699SOL    HW214850   2.139   0.118  12.397
 4700SOL     OW14851   1.899   1.310  12.454
 4700SOL    HW114852   1.952   1.261  12.522
 4700SOL    HW214853   1.921   1.408  12.459
 4701SOL     OW14854   2.594   0.634  12.236
 4701SOL    HW114855   2.653   0.608  12.160
 4701SOL    HW214856   2.566   0.730  12.225
 4702SOL     OW14857   3.590   0.935  13.026
 4702SOL    HW114858   3.544   0.928  12.937
 4702SOL    HW214859   3.528   0.979  13.092
 4703SOL     OW14860   2.169   0.063  11.790
 4703SOL    HW114861   2.158   0.157  11.823
 4703SOL    HW214862   2.164   0.000  11.867
 4704SOL     OW14863   3.484   0.367  11.546
 4704SOL    HW114864   3.486   0.291  11.610
 4704SOL    HW214865   3.436   0.444  11.586
 4705SOL     OW14866   2.885   0.766  12.138
 4705SOL    HW114867   2.900   0.787  12.234
 4705SOL    HW214868   2.855   0.671  12.129
 4706SOL     OW14869   2.842   1.573  12.872
 4706SOL    HW114870   2.822   1.617  12.784
 4706SOL    HW214871   2.881   1.482  12.856
 4707SOL     OW14872   3.721   1.518  12.777
 4707SOL    HW114873   3.735   1.545  12.682
 4707SOL    HW214874   3.804   1.540  12.830
 4708SOL     OW14875   2.212   0.898  12.976
 4708SOL    HW114876   2.288   0.942  13.024
 4708SOL    HW214877   2.247   0.851  12.894
 4709SOL     OW14878   3.402   0.274  11.297
 4709SOL    HW114879   3.341   0.199  11.320
 4709SOL    HW214880   3.424   0.326  11.380
 4710SOL     OW14881   3.165   0.838  11.214
 4710SOL    HW114882   3.199   0.745  11.229
 4710SOL    HW214883   3.183   0.865  11.119
 4711SOL     OW14884   2.930   1.333  12.021
 4711SOL    HW114885   2.937   1.249  11.966
 4711SOL    HW214886   2.992   1.402  11.985
 4712SOL     OW14887   2.181   0.810  12.121
 4712SOL    HW114888   2.274   0.846  12.126
 4712SOL    HW214889   2.175   0.725  12.173
 4713SOL     OW14890   2.201   0.509  12.178
 4713SOL    HW114891   2.149   0.426  12.161
 4713SOL    HW214892   2.278   0.514  12.114
 4714SOL     OW14893   3.000   0.380  12.850
 4714SOL    HW114894   2.955   0.443  12.914
 4714SOL    HW214895   3.093   0.411  12.833
 4715SOL     OW14896   3.022   0.207  12.649
 4715SOL    HW114897   3.022   0.271  12.726
 4715SOL    HW214898   3.050   0.255  12.566
 4716SOL     OW14899   1.870   1.326  11.372
 4716SOL    HW114900   1.777   1.347  11.341
 4716SOL    HW214901   1.880   1.227  11.385
 4717SOL     OW14902   2.366   1.568  12.082
 4717SOL    HW114903   2.432   1.642  12.091
 4717SOL    HW214904   2.410   1.489  12.040
 4718SOL     OW14905   2.864   0.796  12.410
 4718SOL    HW114906   2.905   0.764  12.496
 4718SOL    HW214907   2.768   0.769  12.407
 4719SOL     OW14908   1.902   0.544  12.286
 4719SOL    HW114909   1.987   0.511  12.245
 4719SOL    HW214910   1.915   0.559  12.384
 4720SOL     OW14911   2.051   0.520  12.894
 4720SOL    HW114912   2.110   0.480  12.824
 4720SOL    HW214913   1.993   0.591  12.853
 4721SOL     OW14914   3.231   0.950  12.832
 4721SOL    HW114915   3.270   1.039  12.852
 4721SOL    HW214916   3.241   0.930  12.735
 4722SOL     OW14917   2.677   0.572  11.497
 4722SOL    HW114918   2.684   0.483  11.451
 4722SOL    HW214919   2.583   0.606  11.489
 4723SOL     OW14920   3.519   0.604  12.378
 4723SOL    HW114921   3.481   0.535  12.440
 4723SOL    HW214922   3.601   0.568  12.334
 4724SOL     OW14923   2.114   1.564  12.916
 4724SOL    HW114924   2.084   1.621  12.992
 4724SOL    HW214925   2.107   1.467  12.942
 4725SOL     OW14926   2.533   0.464  12.441
 4725SOL    HW114927   2.499   0.375  12.411
 4725SOL    HW214928   2.559   0.518  12.361
 4726SOL     OW14929   2.792   1.678  12.637
 4726SOL    HW114930   2.768   1.660  12.542
 4726SOL    HW214931   2.822   1.772  12.647
 4727SOL     OW14932   2.335   0.500  11.363
 4727SOL    HW114933   2.396   0.580  11.367
 4727SOL    HW214934   2.240   0.531  11.370
 4728SOL     OW14935   2.021   1.137  12.638
 4728SOL    HW114936   2.043   1.076  12.714
 4728SOL    HW214937   2.031   1.088  12.552
 4729SOL     OW14938   3.209   1.059  12.406
 4729SOL    HW114939   3.233   0.996  12.332
 4729SOL    HW214940   3.119   1.099  12.388
 4730SOL     OW14941   3.164   0.855  11.481
 4730SOL    HW114942   3.078   0.824  11.523
 4730SOL    HW214943   3.160   0.841  11.382
 4731SOL     OW14944   3.621   1.747  12.326
 4731SOL    HW114945   3.682   1.777  12.253
 4731SOL    HW214946   3.583   1.658  12.304
 4732SOL     OW14947   3.114   1.731  12.300
 4732SOL    HW114948   3.198   1.736  12.246
 4732SOL    HW214949   3.091   1.635  12.318
 4733SOL     OW14950   1.945   1.258  12.194
 4733SOL    HW114951   1.940   1.257  12.294
 4733SOL    HW214952   1.862   1.217  12.156
 4734SOL     OW14953   2.550   1.662  12.888
 4734SOL    HW114954   2.494   1.743  12.897
 4734SOL    HW214955   2.602   1.666  12.802
 4735SOL     OW14956   3.588   0.135  11.695
 4735SOL    HW114957   3.661   0.118  11.628
 4735SOL    HW214958   3.557   0.048  11.733
 4736SOL     OW14959   3.250   1.573  11.649
 4736SOL    HW114960   3.317   1.585  11.575
 4736SOL    HW214961   3.210   1.662  11.672
 4737SOL     OW14962   3.142   0.927  11.844
 4737SOL    HW114963   3.202   0.846  11.846
 4737SOL    HW214964   3.182   0.996  11.784
 4738SOL     OW14965   2.692   1.273  12.594
 4738SOL    HW114966   2.687   1.306  12.689
 4738SOL    HW214967   2.606   1.292  12.548
 4739SOL     OW14968   2.534   1.616  11.326
 4739SOL    HW114969   2.543   1.626  11.227
 4739SOL    HW214970   2.494   1.527  11.347
 4740SOL     OW14971   3.512   1.720  12.566
 4740SOL    HW114972   3.565   1.730  12.482
 4740SOL    HW214973   3.485   1.810  12.600
 4741SOL     OW14974   3.703   0.175  12.135
 4741SOL    HW114975   3.742   0.090  12.099
 4741SOL    HW214976   3.605   0.177  12.116
 4742SOL     OW14977   2.125   0.326  11.892
 4742SOL    HW114978   2.046   0.377  11.858
 4742SOL    HW214979   2.116   0.311  11.990
 4743SOL     OW14980   3.056   1.612  11.203
 4743SOL    HW114981   3.062   1.519  11.240
 4743SOL    HW214982   2.997   1.612  11.123
 4744SOL     OW14983   2.684   1.002  12.544
 4744SOL    HW114984   2.724   1.001  12.452
 4744SOL    HW214985   2.694   1.094  12.584
 4745SOL     OW14986   2.778   0.910  11.463
 4745SOL    HW114987   2.841   0.948  11.395
 4745SOL    HW214988   2.818   0.827  11.502
 4746SOL     OW14989   3.366   1.607  11.216
 4746SOL    HW114990   3.274   1.644  11.223
 4746SOL    HW214991   3.404   1.627  11.126
 4747SOL     OW14992   2.234   1.288  12.662
 4747SOL    HW114993   2.221   1.381  12.628
 4747SOL    HW214994   2.150   1.236  12.649
 4748SOL     OW14995   3.476   1.292  12.461
 4748SOL    HW114996   3.536   1.295  12.541
 4748SOL    HW214997   3.401   1.356  12.474
 4749SOL     OW14998   2.901   1.098  11.868
 4749SOL    HW114999   2.831   1.051  11.922
 4749SOL    HW215000   2.960   1.030  11.825
 4750SOL     OW15001   2.876   0.236  12.143
 4750SOL    HW115002   2.868   0.200  12.050
 4750SOL    HW215003   2.874   0.160  12.208
 4751SOL     OW15004   2.452   1.487  11.663
 4751SOL    HW115005   2.494   1.429  11.593
 4751SOL    HW215006   2.408   1.566  11.619
 4752SOL     OW15007   3.571   0.385  12.553
 4752SOL    HW115008   3.644   0.454  12.557
 4752SOL    HW215009   3.599   0.310  12.494
 4753SOL     OW15010   2.117   1.348  11.462
 4753SOL    HW115011   2.021   1.349  11.435
 4753SOL    HW215012   2.129   1.401  11.546
 4754SOL     OW15013   1.967   1.013  12.898
 4754SOL    HW115014   1.890   0.980  12.952
 4754SOL    HW215015   2.052   0.983  12.940
 4755SOL     OW15016   2.534   0.203  12.661
 4755SOL    HW115017   2.624   0.187  12.621
 4755SOL    HW215018   2.542   0.208  12.760
 4756SOL     OW15019   1.937   0.345  11.205
 4756SOL    HW115020   1.845   0.317  11.176
 4756SOL    HW215021   1.968   0.422  11.149
 4757SOL     OW15022   3.302   0.856  12.570
 4757SOL    HW115023   3.245   0.908  12.507
 4757SOL    HW215024   3.398   0.868  12.546
 4758SOL     OW15025   1.934   0.166  11.490
 4758SOL    HW115026   1.917   0.249  11.436
 4758SOL    HW215027   2.024   0.129  11.468
 4759SOL     OW15028   3.045   1.335  11.291
 4759SOL    HW115029   2.946   1.324  11.293
 4759SOL    HW215030   3.079   1.350  11.384
 4760SOL     OW15031   2.475   0.842  12.603
 4760SOL    HW115032   2.531   0.923  12.586
 4760SOL    HW215033   2.534   0.762  12.606
 4761SOL     OW15034   3.355   1.767  12.131
 4761SOL    HW115035   3.388   1.831  12.062
 4761SOL    HW215036   3.421   1.761  12.206
 4762SOL     OW15037   2.578   0.565  12.880
 4762SOL    HW115038   2.597   0.630  12.954
 4762SOL    HW215039   2.638   0.485  12.889
 4763SOL     OW15040   3.312   1.220  12.805
 4763SOL    HW115041   3.303   1.210  12.904
 4763SOL    HW215042   3.408   1.213  12.779
 4764SOL     OW15043   2.252   1.741  12.732
 4764SOL    HW115044   2.161   1.782  12.730
 4764SOL    HW215045   2.245   1.647  12.764
 4765SOL     OW15046   3.536   0.883  12.426
 4765SOL    HW115047   3.509   0.794  12.389
 4765SOL    HW215048   3.537   0.951  12.353
 4766SOL     OW15049   3.087   0.325  11.621
 4766SOL    HW115050   3.152   0.251  11.610
 4766SOL    HW215051   3.107   0.375  11.705
 4767SOL     OW15052   2.456   0.745  11.824
 4767SOL    HW115053   2.506   0.830  11.805
 4767SOL    HW215054   2.368   0.747  11.776
 4768SOL     OW15055   3.639   0.342  12.814
 4768SOL    HW115056   3.622   0.373  12.720
 4768SOL    HW215057   3.555   0.305  12.852
 4769SOL     OW15058   3.592   0.934  12.689
 4769SOL    HW115059   3.630   1.025  12.704
 4769SOL    HW215060   3.584   0.917  12.590
 4770SOL     OW15061   2.721   1.374  11.188
 4770SOL    HW115062   2.675   1.389  11.276
 4770SOL    HW215063   2.765   1.459  11.158
 4771SOL     OW15064   2.523   1.790  12.125
 4771SOL    HW115065   2.477   1.878  12.112
 4771SOL    HW215066   2.622   1.802  12.118
 4772SOL     OW15067   2.721   0.956  12.033
 4772SOL    HW115068   2.775   0.887  12.081
 4772SOL    HW215069   2.689   1.025  12.099
 4773SOL     OW15070   2.945   0.984  11.259
 4773SOL    HW115071   2.922   1.037  11.177
 4773SOL    HW215072   3.026   0.928  11.240
 4774SOL     OW15073   3.723   1.569  12.023
 4774SOL    HW115074   3.652   1.557  11.953
 4774SOL    HW215075   3.724   1.490  12.083
 4775SOL     OW15076   2.083   1.314  13.016
 4775SOL    HW115077   2.018   1.241  12.995
 4775SOL    HW215078   2.087   1.328  13.114
 4776SOL     OW15079   1.941   1.240  11.825
 4776SOL    HW115080   1.940   1.193  11.913
 4776SOL    HW215081   2.023   1.212  11.774
 4777SOL     OW15082   2.534   1.391  12.796
 4777SOL    HW115083   2.456   1.341  12.834
 4777SOL    HW215084   2.531   1.486  12.827
 4778SOL     OW15085   3.686   0.192  12.399
 4778SOL    HW115086   3.682   0.102  12.443
 4778SOL    HW215087   3.689   0.181  12.300
 4779SOL     OW15088   2.290   0.424  11.692
 4779SOL    HW115089   2.320   0.352  11.630
 4779SOL    HW215090   2.251   0.384  11.775
 4780SOL     OW15091   3.567   1.487  12.276
 4780SOL    HW115092   3.474   1.462  12.249
 4780SOL    HW215093   3.593   1.437  12.358
 4781SOL     OW15094   2.179   0.547  12.452
 4781SOL    HW115095   2.217   0.488  12.524
 4781SOL    HW215096   2.219   0.521  12.364
 4782SOL     OW15097   2.674   1.586  11.859
 4782SOL    HW115098   2.706   1.596  11.765
 4782SOL    HW215099   2.595   1.524  11.861
 4783SOL     OW15100   3.286   0.214  12.284
 4783SOL    HW115101   3.338   0.149  12.339
 4783SOL    HW215102   3.237   0.277  12.345
 4784SOL     OW15103   2.863   0.034  12.326
 4784SOL    HW115104   2.800  -0.038  12.295
 4784SOL    HW215105   2.956  -0.002  12.326
 4785SOL     OW15106   2.632   1.330  11.473
 4785SOL    HW115107   2.586   1.243  11.490
 4785SOL    HW215108   2.723   1.327  11.514
 4786SOL     OW15109   2.480   1.567  12.456
 4786SOL    HW115110   2.475   1.649  12.513
 4786SOL    HW215111   2.569   1.564  12.411
 4787SOL     OW15112   3.214   0.052  11.340
 4787SOL    HW115113   3.249   0.011  11.256
 4787SOL    HW215114   3.124   0.014  11.360
 4788SOL     OW15115   3.162   0.453  11.863
 4788SOL    HW115116   3.103   0.533  11.867
 4788SOL    HW215117   3.177   0.418  11.956
 4789SOL     OW15118   3.455   0.221  12.054
 4789SOL    HW115119   3.371   0.220  12.108
 4789SOL    HW215120   3.457   0.304  11.998
 4790SOL     OW15121   1.901   1.077  11.472
 4790SOL    HW115122   2.000   1.066  11.463
 4790SOL    HW215123   1.861   0.991  11.504
 4791SOL     OW15124   2.737   1.646  11.509
 4791SOL    HW115125   2.660   1.611  11.455
 4791SOL    HW215126   2.705   1.717  11.571
 4792SOL     OW15127   2.092   0.628  13.147
 4792SOL    HW115128   1.999   0.626  13.184
 4792SOL    HW215129   2.093   0.589  13.055
 4793SOL     OW15130   2.087   0.275  14.030
 4793SOL    HW115131   2.122   0.258  14.122
 4793SOL    HW215132   1.999   0.230  14.018
 4794SOL     OW15133   1.881   0.368  13.681
 4794SOL    HW115134   1.799   0.411  13.720
 4794SOL    HW215135   1.853   0.295  13.618
 4795SOL     OW15136   3.417   1.511  13.737
 4795SOL    HW115137   3.360   1.495  13.818
 4795SOL    HW215138   3.358   1.521  13.657
 4796SOL     OW15139   2.997   0.703  13.751
 4796SOL    HW115140   3.054   0.781  13.726
 4796SOL    HW215141   2.937   0.729  13.827
 4797SOL     OW15142   3.617   0.607  13.265
 4797SOL    HW115143   3.605   0.594  13.166
 4797SOL    HW215144   3.587   0.526  13.314
 4798SOL     OW15145   2.547   1.012  13.699
 4798SOL    HW115146   2.616   0.996  13.769
 4798SOL    HW215147   2.474   1.069  13.737
 4799SOL     OW15148   3.465   0.447  13.771
 4799SOL    HW115149   3.391   0.493  13.721
 4799SOL    HW215150   3.516   0.515  13.824
 4800SOL     OW15151   2.093   1.713  13.517
 4800SOL    HW115152   2.127   1.790  13.571
 4800SOL    HW215153   2.137   1.713  13.427
 4801SOL     OW15154   2.092   1.434  13.572
 4801SOL    HW115155   2.066   1.530  13.572
 4801SOL    HW215156   2.021   1.380  13.617
 4802SOL     OW15157   2.102   1.091  13.920
 4802SOL    HW115158   2.116   1.007  13.972
 4802SOL    HW215159   2.047   1.155  13.975
 4803SOL     OW15160   2.468   0.964  13.157
 4803SOL    HW115161   2.475   1.048  13.103
 4803SOL    HW215162   2.514   0.977  13.245
 4804SOL     OW15163   1.984   0.643  13.597
 4804SOL    HW115164   1.939   0.555  13.614
 4804SOL    HW215165   1.983   0.697  13.681
 4805SOL     OW15166   3.704   1.767  13.393
 4805SOL    HW115167   3.758   1.738  13.473
 4805SOL    HW215168   3.734   1.857  13.364
 4806SOL     OW15169   3.551   0.922  13.646
 4806SOL    HW115170   3.646   0.893  13.654
 4806SOL    HW215171   3.543   0.987  13.571
 4807SOL     OW15172   3.503   1.108  13.466
 4807SOL    HW115173   3.589   1.110  13.414
 4807SOL    HW215174   3.517   1.155  13.554
 4808SOL     OW15175   2.475   1.365  13.760
 4808SOL    HW115176   2.426   1.278  13.769
 4808SOL    HW215177   2.452   1.408  13.673
 4809SOL     OW15178   2.671   0.004  13.536
 4809SOL    HW115179   2.711   0.095  13.527
 4809SOL    HW215180   2.571   0.012  13.542
 4810SOL     OW15181   3.387   0.999  13.224
 4810SOL    HW115182   3.324   0.923  13.237
 4810SOL    HW215183   3.435   1.017  13.310
 4811SOL     OW15184   3.529   1.714  13.606
 4811SOL    HW115185   3.488   1.691  13.518
 4811SOL    HW215186   3.511   1.640  13.671
 4812SOL     OW15187   2.460   0.729  13.304
 4812SOL    HW115188   2.484   0.798  13.236
 4812SOL    HW215189   2.382   0.762  13.358
 4813SOL     OW15190   3.143   0.345  13.978
 4813SOL    HW115191   3.057   0.295  13.965
 4813SOL    HW215192   3.205   0.291  14.034
 4814SOL     OW15193   3.438   1.662  13.341
 4814SOL    HW115194   3.527   1.708  13.344
 4814SOL    HW215195   3.417   1.638  13.246
 4815SOL     OW15196   2.903   0.701  13.463
 4815SOL    HW115197   2.929   0.697  13.559
 4815SOL    HW215198   2.818   0.650  13.449
 4816SOL     OW15199   1.938   0.811  13.823
 4816SOL    HW115200   2.037   0.799  13.832
 4816SOL    HW215201   1.914   0.906  13.844
 4817SOL     OW15202   2.727   0.348  13.229
 4817SOL    HW115203   2.786   0.411  13.180
 4817SOL    HW215204   2.746   0.254  13.200
 4818SOL     OW15205   3.224   1.144  13.579
 4818SOL    HW115206   3.307   1.115  13.531
 4818SOL    HW215207   3.175   1.211  13.523
 4819SOL     OW15208   2.870   1.456  13.511
 4819SOL    HW115209   2.824   1.528  13.459
 4819SOL    HW215210   2.866   1.476  13.609
 4820SOL     OW15211   2.213   1.801  13.887
 4820SOL    HW115212   2.263   1.715  13.893
 4820SOL    HW215213   2.278   1.878  13.884
 4821SOL     OW15214   3.657   1.066  13.907
 4821SOL    HW115215   3.595   1.051  13.831
 4821SOL    HW215216   3.605   1.077  13.992
 4822SOL     OW15217   2.183   0.943  13.276
 4822SOL    HW115218   2.265   0.982  13.234
 4822SOL    HW215219   2.156   0.861  13.227
 4823SOL     OW15220   3.320   0.735  13.762
 4823SOL    HW115221   3.315   0.670  13.837
 4823SOL    HW215222   3.400   0.794  13.775
 4824SOL     OW15223   2.973   1.776  13.271
 4824SOL    HW115224   2.913   1.714  13.321
 4824SOL    HW215225   3.004   1.732  13.186
 4825SOL     OW15226   3.494   1.377  13.115
 4825SOL    HW115227   3.462   1.471  13.105
 4825SOL    HW215228   3.418   1.314  13.103
 4826SOL     OW15229   2.326   1.743  13.357
 4826SOL    HW115230   2.359   1.782  13.443
 4826SOL    HW215231   2.402   1.736  13.292
 4827SOL     OW15232   3.262   0.107  13.460
 4827SOL    HW115233   3.238   0.070  13.370
 4827SOL    HW215234   3.361   0.123  13.464
 4828SOL     OW15235   2.802   1.698  13.938
 4828SOL    HW115236   2.882   1.641  13.959
 4828SOL    HW215237   2.753   1.658  13.861
 4829SOL     OW15238   2.244   0.700  13.514
 4829SOL    HW115239   2.289   0.610  13.511
 4829SOL    HW215240   2.150   0.689  13.547
 4830SOL     OW15241   2.476   0.122  13.151
 4830SOL    HW115242   2.574   0.100  13.158
 4830SOL    HW215243   2.445   0.105  13.058
 4831SOL     OW15244   2.401   0.064  13.546
 4831SOL    HW115245   2.320   0.065  13.604
 4831SOL    HW215246   2.404   0.147  13.491
 4832SOL     OW15247   3.296   1.188  13.075
 4832SOL    HW115248   3.328   1.112  13.132
 4832SOL    HW215249   3.204   1.215  13.105
 4833SOL     OW15250   2.159   0.035  13.205
 4833SOL    HW115251   2.208   0.119  13.184
 4833SOL    HW215252   2.221  -0.030  13.250
 4834SOL     OW15253   2.797   0.236  13.514
 4834SOL    HW115254   2.749   0.277  13.436
 4834SOL    HW215255   2.896   0.234  13.495
 4835SOL     OW15256   2.321   1.152  13.775
 4835SOL    HW115257   2.250   1.125  13.840
 4835SOL    HW215258   2.295   1.124  13.682
 4836SOL     OW15259   3.133   1.797  13.625
 4836SOL    HW115260   3.177   1.861  13.561
 4836SOL    HW215261   3.083   1.849  13.695
 4837SOL     OW15262   2.894   0.549  13.050
 4837SOL    HW115263   2.853   0.631  13.011
 4837SOL    HW215264   2.958   0.575  13.123
 4838SOL     OW15265   2.728   0.454  13.676
 4838SOL    HW115266   2.696   0.526  13.614
 4838SOL    HW215267   2.752   0.373  13.623
 4839SOL     OW15268   2.879   0.039  13.787
 4839SOL    HW115269   2.807   0.044  13.718
 4839SOL    HW215270   2.855  -0.030  13.856
 4840SOL     OW15271   3.719   0.833  13.411
 4840SOL    HW115272   3.761   0.769  13.475
 4840SOL    HW215273   3.681   0.782  13.333
 4841SOL     OW15274   2.350   1.385  13.208
 4841SOL    HW115275   2.263   1.370  13.255
 4841SOL    HW215276   2.333   1.411  13.113
 4842SOL     OW15277   3.526   1.280  13.691
 4842SOL    HW115278   3.625   1.288  13.705
 4842SOL    HW215279   3.481   1.364  13.722
 4843SOL     OW15280   3.252   0.575  13.112
 4843SOL    HW115281   3.198   0.554  13.193
 4843SOL    HW215282   3.343   0.534  13.121
 4844SOL     OW15283   2.389   0.256  13.362
 4844SOL    HW115284   2.416   0.197  13.287
 4844SOL    HW215285   2.389   0.351  13.331
 4845SOL     OW15286   2.567   1.050  13.402
 4845SOL    HW115287   2.553   1.057  13.501
 4845SOL    HW215288   2.651   0.999  13.384
 4846SOL     OW15289   2.229   1.100  13.535
 4846SOL    HW115290   2.222   1.183  13.479
 4846SOL    HW215291   2.233   1.020  13.475
 4847SOL     OW15292   2.428   0.537  13.899
 4847SOL    HW115293   2.440   0.603  13.825
 4847SOL    HW215294   2.474   0.571  13.982
 4848SOL     OW15295   3.114   1.348  13.422
 4848SOL    HW115296   3.164   1.425  13.462
 4848SOL    HW215297   3.019   1.350  13.454
 4849SOL     OW15298   3.444   0.639  13.506
 4849SOL    HW115299   3.413   0.700  13.579
 4849SOL    HW215300   3.494   0.691  13.437
 4850SOL     OW15301   3.071   0.525  13.309
 4850SOL    HW115302   3.084   0.441  13.363
 4850SOL    HW215303   3.042   0.599  13.369
 4851SOL     OW15304   2.169   0.063  13.652
 4851SOL    HW115305   2.158   0.157  13.685
 4851SOL    HW215306   2.164   0.000  13.729
 4852SOL     OW15307   3.484   0.367  13.408
 4852SOL    HW115308   3.486   0.291  13.472
 4852SOL    HW215309   3.436   0.444  13.448
 4853SOL     OW15310   3.402   0.274  13.159
 4853SOL    HW115311   3.341   0.199  13.182
 4853SOL    HW215312   3.424   0.326  13.242
 4854SOL     OW15313   3.165   0.838  13.076
 4854SOL    HW115314   3.199   0.745  13.091
 4854SOL    HW215315   3.183   0.865  12.981
 4855SOL     OW15316   1.870   1.326  13.234
 4855SOL    HW115317   1.777   1.347  13.203
 4855SOL    HW215318   1.880   1.227  13.247
 4856SOL     OW15319   2.677   0.572  13.359
 4856SOL    HW115320   2.684   0.483  13.313
 4856SOL    HW215321   2.583   0.606  13.351
 4857SOL     OW15322   2.335   0.500  13.225
 4857SOL    HW115323   2.396   0.580  13.229
 4857SOL    HW215324   2.240   0.531  13.232
 4858SOL     OW15325   3.164   0.855  13.343
 4858SOL    HW115326   3.078   0.824  13.385
 4858SOL    HW215327   3.160   0.841  13.244
 4859SOL     OW15328   3.588   0.135  13.557
 4859SOL    HW115329   3.661   0.118  13.490
 4859SOL    HW215330   3.557   0.048  13.595
 4860SOL     OW15331   3.250   1.573  13.511
 4860SOL    HW115332   3.317   1.585  13.437
 4860SOL    HW215333   3.210   1.662  13.534
 4861SOL     OW15334   3.142   0.927  13.706
 4861SOL    HW115335   3.202   0.846  13.708
 4861SOL    HW215336   3.182   0.996  13.646
 4862SOL     OW15337   2.534   1.616  13.188
 4862SOL    HW115338   2.543   1.626  13.089
 4862SOL    HW215339   2.494   1.527  13.209
 4863SOL     OW15340   3.703   0.175  13.997
 4863SOL    HW115341   3.742   0.090  13.961
 4863SOL    HW215342   3.605   0.177  13.978
 4864SOL     OW15343   2.125   0.326  13.754
 4864SOL    HW115344   2.046   0.377  13.720
 4864SOL    HW215345   2.116   0.311  13.852
 4865SOL     OW15346   3.056   1.612  13.065
 4865SOL    HW115347   3.062   1.519  13.102
 4865SOL    HW215348   2.997   1.612  12.985
 4866SOL     OW15349   2.778   0.910  13.325
 4866SOL    HW115350   2.841   0.948  13.257
 4866SOL    HW215351   2.818   0.827  13.364
 4867SOL     OW15352   3.366   1.607  13.078
 4867SOL    HW115353   3.274   1.644  13.085
 4867SOL    HW215354   3.404   1.627  12.988
 4868SOL     OW15355   2.901   1.098  13.730
 4868SOL    HW115356   2.831   1.051  13.784
 4868SOL    HW215357   2.960   1.030  13.687
 4869SOL     OW15358   2.452   1.487  13.525
 4869SOL    HW115359   2.494   1.429  13.455
 4869SOL    HW215360   2.408   1.566  13.481
 4870SOL     OW15361   2.117   1.348  13.324
 4870SOL    HW115362   2.021   1.349  13.297
 4870SOL    HW215363   2.129   1.401  13.408
 4871SOL     OW15364   1.937   0.345  13.067
 4871SOL    HW115365   1.845   0.317  13.038
 4871SOL    HW215366   1.968   0.422  13.011
 4872SOL     OW15367   1.934   0.166  13.352
 4872SOL    HW115368   1.917   0.249  13.298
 4872SOL    HW215369   2.024   0.129  13.330
 4873SOL     OW15370   3.045   1.335  13.153
 4873SOL    HW115371   2.946   1.324  13.155
 4873SOL    HW215372   3.079   1.350  13.246
 4874SOL     OW15373   3.087   0.325  13.483
 4874SOL    HW115374   3.152   0.251  13.472
 4874SOL    HW215375   3.107   0.375  13.567
 4875SOL     OW15376   2.456   0.745  13.686
 4875SOL    HW115377   2.506   0.830  13.667
 4875SOL    HW215378   2.368   0.747  13.638
 4876SOL     OW15379   2.721   1.374  13.050
 4876SOL    HW115380   2.675   1.389  13.138
 4876SOL    HW215381   2.765   1.459  13.020
 4877SOL     OW15382   2.523   1.790  13.987
 4877SOL    HW115383   2.477   1.878  13.974
 4877SOL    HW215384   2.622   1.802  13.980
 4878SOL     OW15385   2.721   0.956  13.895
 4878SOL    HW115386   2.775   0.887  13.943
 4878SOL    HW215387   2.689   1.025  13.961
 4879SOL     OW15388   2.945   0.984  13.121
 4879SOL    HW115389   2.922   1.037  13.039
 4879SOL    HW215390   3.026   0.928  13.102
 4880SOL     OW15391   1.941   1.240  13.687
 4880SOL    HW115392   1.940   1.193  13.775
 4880SOL    HW215393   2.023   1.212  13.636
 4881SOL     OW15394   2.290   0.424  13.554
 4881SOL    HW115395   2.320   0.352  13.492
 4881SOL    HW215396   2.251   0.384  13.637
 4882SOL     OW15397   3.567   1.487  14.138
 4882SOL    HW115398   3.474   1.462  14.111
 4882SOL    HW215399   3.593   1.437  14.220
 4883SOL     OW15400   2.674   1.586  13.721
 4883SOL    HW115401   2.706   1.596  13.627
 4883SOL    HW215402   2.595   1.524  13.723
 4884SOL     OW15403   2.632   1.330  13.335
 4884SOL    HW115404   2.586   1.243  13.352
 4884SOL    HW215405   2.723   1.327  13.376
 4885SOL     OW15406   3.214   0.052  13.202
 4885SOL    HW115407   3.249   0.011  13.118
 4885SOL    HW215408   3.124   0.014  13.222
 4886SOL     OW15409   3.162   0.453  13.725
 4886SOL    HW115410   3.103   0.533  13.729
 4886SOL    HW215411   3.177   0.418  13.818
 4887SOL     OW15412   1.901   1.077  13.334
 4887SOL    HW115413   2.000   1.066  13.325
 4887SOL    HW215414   1.861   0.991  13.366
 4888SOL     OW15415   2.737   1.646  13.371
 4888SOL    HW115416   2.660   1.611  13.317
 4888SOL    HW215417   2.705   1.717  13.433
 4889SOL     OW15418   2.092   2.490   0.113
 4889SOL    HW115419   1.999   2.488   0.150
 4889SOL    HW215420   2.093   2.451   0.021
 4890SOL     OW15421   1.881   2.230   0.647
 4890SOL    HW115422   1.799   2.273   0.686
 4890SOL    HW215423   1.853   2.157   0.584
 4891SOL     OW15424   2.431   3.137   1.165
 4891SOL    HW115425   2.338   3.130   1.128
 4891SOL    HW215426   2.442   3.226   1.209
 4892SOL     OW15427   3.417   3.373   0.703
 4892SOL    HW115428   3.360   3.357   0.784
 4892SOL    HW215429   3.358   3.383   0.623
 4893SOL     OW15430   2.997   2.565   0.717
 4893SOL    HW115431   3.054   2.643   0.692
 4893SOL    HW215432   2.937   2.591   0.793
 4894SOL     OW15433   3.617   2.469   0.231
 4894SOL    HW115434   3.605   2.456   0.132
 4894SOL    HW215435   3.587   2.388   0.280
 4895SOL     OW15436   2.630   3.006   1.023
 4895SOL    HW115437   2.552   3.023   1.083
 4895SOL    HW215438   2.664   3.093   0.987
 4896SOL     OW15439   2.712   2.660   1.823
 4896SOL    HW115440   2.708   2.736   1.888
 4896SOL    HW215441   2.734   2.696   1.732
 4897SOL     OW15442   2.547   2.874   0.665
 4897SOL    HW115443   2.616   2.858   0.735
 4897SOL    HW215444   2.474   2.931   0.703
 4898SOL     OW15445   2.548   3.023   1.803
 4898SOL    HW115446   2.608   3.102   1.817
 4898SOL    HW215447   2.462   3.054   1.762
 4899SOL     OW15448   2.197   3.297   1.061
 4899SOL    HW115449   2.119   3.266   1.008
 4899SOL    HW215450   2.255   3.355   1.004
 4900SOL     OW15451   3.322   3.367   1.339
 4900SOL    HW115452   3.346   3.461   1.365
 4900SOL    HW215453   3.306   3.313   1.421
 4901SOL     OW15454   3.465   2.309   0.737
 4901SOL    HW115455   3.391   2.355   0.687
 4901SOL    HW215456   3.516   2.377   0.790
 4902SOL     OW15457   2.093   3.575   0.483
 4902SOL    HW115458   2.127   3.652   0.537
 4902SOL    HW215459   2.137   3.575   0.393
 4903SOL     OW15460   2.989   3.203   1.690
 4903SOL    HW115461   3.036   3.203   1.778
 4903SOL    HW215462   2.941   3.116   1.679
 4904SOL     OW15463   2.092   3.296   0.538
 4904SOL    HW115464   2.066   3.392   0.538
 4904SOL    HW215465   2.021   3.242   0.583
 4905SOL     OW15466   2.102   2.953   0.886
 4905SOL    HW115467   2.116   2.869   0.938
 4905SOL    HW215468   2.047   3.017   0.941
 4906SOL     OW15469   2.482   3.648   1.439
 4906SOL    HW115470   2.390   3.631   1.474
 4906SOL    HW215471   2.510   3.740   1.465
 4907SOL     OW15472   2.468   2.826   0.123
 4907SOL    HW115473   2.475   2.910   0.069
 4907SOL    HW215474   2.514   2.839   0.211
 4908SOL     OW15475   3.456   1.976   1.480
 4908SOL    HW115476   3.438   2.043   1.408
 4908SOL    HW215477   3.453   2.022   1.569
 4909SOL     OW15478   1.984   2.505   0.563
 4909SOL    HW115479   1.939   2.417   0.580
 4909SOL    HW215480   1.983   2.559   0.647
 4910SOL     OW15481   3.704   3.629   0.359
 4910SOL    HW115482   3.758   3.600   0.439
 4910SOL    HW215483   3.734   3.719   0.330
 4911SOL     OW15484   1.889   3.458   0.117
 4911SOL    HW115485   1.870   3.362   0.138
 4911SOL    HW215486   1.856   3.516   0.192
 4912SOL     OW15487   3.551   2.784   0.612
 4912SOL    HW115488   3.646   2.755   0.620
 4912SOL    HW215489   3.543   2.849   0.537
 4913SOL     OW15490   3.503   2.970   0.432
 4913SOL    HW115491   3.589   2.972   0.380
 4913SOL    HW215492   3.517   3.017   0.520
 4914SOL     OW15493   1.975   2.599   1.597
 4914SOL    HW115494   2.063   2.586   1.642
 4914SOL    HW215495   1.962   2.696   1.575
 4915SOL     OW15496   2.475   3.227   0.726
 4915SOL    HW115497   2.426   3.140   0.735
 4915SOL    HW215498   2.452   3.270   0.639
 4916SOL     OW15499   3.155   3.090   1.423
 4916SOL    HW115500   3.192   3.017   1.365
 4916SOL    HW215501   3.207   3.095   1.508
 4917SOL     OW15502   2.671   1.866   0.502
 4917SOL    HW115503   2.711   1.957   0.493
 4917SOL    HW215504   2.571   1.874   0.508
 4918SOL     OW15505   2.059   2.838   1.264
 4918SOL    HW115506   2.148   2.793   1.250
 4918SOL    HW215507   1.986   2.773   1.245
 4919SOL     OW15508   3.387   2.861   0.190
 4919SOL    HW115509   3.324   2.785   0.203
 4919SOL    HW215510   3.435   2.879   0.276
 4920SOL     OW15511   3.049   3.654   1.616
 4920SOL    HW115512   3.073   3.714   1.540
 4920SOL    HW215513   3.056   3.559   1.586
 4921SOL     OW15514   3.328   3.279   0.953
 4921SOL    HW115515   3.269   3.285   1.033
 4921SOL    HW215516   3.313   3.191   0.907
 4922SOL     OW15517   3.529   3.576   0.572
 4922SOL    HW115518   3.488   3.553   0.484
 4922SOL    HW215519   3.511   3.502   0.637
 4923SOL     OW15520   2.460   2.591   0.270
 4923SOL    HW115521   2.484   2.660   0.202
 4923SOL    HW215522   2.382   2.624   0.324
 4924SOL     OW15523   3.143   2.207   0.944
 4924SOL    HW115524   3.057   2.157   0.931
 4924SOL    HW215525   3.205   2.153   1.000
 4925SOL     OW15526   3.438   3.524   0.307
 4925SOL    HW115527   3.527   3.570   0.310
 4925SOL    HW215528   3.417   3.500   0.212
 4926SOL     OW15529   2.669   2.467   1.465
 4926SOL    HW115530   2.622   2.464   1.554
 4926SOL    HW215531   2.618   2.412   1.399
 4927SOL     OW15532   3.256   2.331   1.674
 4927SOL    HW115533   3.236   2.374   1.762
 4927SOL    HW215534   3.334   2.269   1.683
 4928SOL     OW15535   2.835   2.752   1.572
 4928SOL    HW115536   2.881   2.668   1.543
 4928SOL    HW215537   2.779   2.786   1.497
 4929SOL     OW15538   2.853   2.272   1.242
 4929SOL    HW115539   2.776   2.306   1.296
 4929SOL    HW215540   2.819   2.221   1.163
 4930SOL     OW15541   2.903   2.563   0.429
 4930SOL    HW115542   2.929   2.559   0.525
 4930SOL    HW215543   2.818   2.512   0.415
 4931SOL     OW15544   1.938   2.673   0.789
 4931SOL    HW115545   2.037   2.661   0.798
 4931SOL    HW215546   1.914   2.768   0.810
 4932SOL     OW15547   1.992   3.683   1.571
 4932SOL    HW115548   1.982   3.668   1.670
 4932SOL    HW215549   1.906   3.719   1.535
 4933SOL     OW15550   2.727   2.210   0.195
 4933SOL    HW115551   2.786   2.273   0.146
 4933SOL    HW215552   2.746   2.116   0.166
 4934SOL     OW15553   3.581   2.447   1.831
 4934SOL    HW115554   3.555   2.536   1.795
 4934SOL    HW215555   3.579   2.379   1.758
 4935SOL     OW15556   3.224   3.006   0.545
 4935SOL    HW115557   3.307   2.977   0.497
 4935SOL    HW215558   3.175   3.073   0.489
 4936SOL     OW15559   2.412   2.058   0.885
 4936SOL    HW115560   2.407   2.053   0.985
 4936SOL    HW215561   2.414   2.154   0.856
 4937SOL     OW15562   2.870   3.318   0.477
 4937SOL    HW115563   2.824   3.390   0.425
 4937SOL    HW215564   2.866   3.338   0.575
 4938SOL     OW15565   2.213   3.663   0.853
 4938SOL    HW115566   2.263   3.577   0.859
 4938SOL    HW215567   2.278   3.740   0.850
 4939SOL     OW15568   3.657   2.928   0.873
 4939SOL    HW115569   3.595   2.913   0.797
 4939SOL    HW215570   3.605   2.939   0.958
 4940SOL     OW15571   3.089   3.412   1.506
 4940SOL    HW115572   3.095   3.335   1.570
 4940SOL    HW215573   3.037   3.386   1.426
 4941SOL     OW15574   2.183   2.805   0.242
 4941SOL    HW115575   2.265   2.844   0.200
 4941SOL    HW215576   2.156   2.723   0.193
 4942SOL     OW15577   3.320   2.597   0.728
 4942SOL    HW115578   3.315   2.532   0.803
 4942SOL    HW215579   3.400   2.656   0.741
 4943SOL     OW15580   2.323   3.128   1.727
 4943SOL    HW115581   2.273   3.129   1.641
 4943SOL    HW215582   2.260   3.110   1.803
 4944SOL     OW15583   2.973   3.638   0.237
 4944SOL    HW115584   2.913   3.576   0.287
 4944SOL    HW215585   3.004   3.594   0.152
 4945SOL     OW15586   3.494   3.239   0.081
 4945SOL    HW115587   3.462   3.333   0.071
 4945SOL    HW215588   3.418   3.176   0.069
 4946SOL     OW15589   2.326   3.605   0.323
 4946SOL    HW115590   2.359   3.644   0.409
 4946SOL    HW215591   2.402   3.598   0.258
 4947SOL     OW15592   3.262   1.969   0.426
 4947SOL    HW115593   3.238   1.932   0.336
 4947SOL    HW215594   3.361   1.985   0.430
 4948SOL     OW15595   2.111   3.647   1.241
 4948SOL    HW115596   2.168   3.582   1.291
 4948SOL    HW215597   2.095   3.614   1.148
 4949SOL     OW15598   2.802   3.560   0.904
 4949SOL    HW115599   2.882   3.503   0.925
 4949SOL    HW215600   2.753   3.520   0.827
 4950SOL     OW15601   2.244   2.562   0.480
 4950SOL    HW115602   2.289   2.472   0.477
 4950SOL    HW215603   2.150   2.551   0.513
 4951SOL     OW15604   3.409   2.084   1.729
 4951SOL    HW115605   3.404   2.121   1.821
 4951SOL    HW215606   3.337   2.015   1.717
 4952SOL     OW15607   2.643   2.126   1.749
 4952SOL    HW115608   2.710   2.065   1.792
 4952SOL    HW215609   2.570   2.145   1.814
 4953SOL     OW15610   2.750   3.376   1.195
 4953SOL    HW115611   2.727   3.351   1.101
 4953SOL    HW215612   2.811   3.307   1.234
 4954SOL     OW15613   3.213   2.452   1.433
 4954SOL    HW115614   3.241   2.409   1.518
 4954SOL    HW215615   3.238   2.548   1.434
 4955SOL     OW15616   2.665   3.264   0.924
 4955SOL    HW115617   2.755   3.278   0.882
 4955SOL    HW215618   2.594   3.266   0.853
 4956SOL     OW15619   2.784   2.365   0.899
 4956SOL    HW115620   2.759   2.356   0.803
 4956SOL    HW215621   2.832   2.283   0.930
 4957SOL     OW15622   2.401   1.926   0.512
 4957SOL    HW115623   2.320   1.927   0.570
 4957SOL    HW215624   2.404   2.009   0.457
 4958SOL     OW15625   3.296   3.050   0.041
 4958SOL    HW115626   3.328   2.974   0.098
 4958SOL    HW215627   3.204   3.077   0.071
 4959SOL     OW15628   2.797   2.098   0.480
 4959SOL    HW115629   2.749   2.139   0.402
 4959SOL    HW215630   2.896   2.096   0.461
 4960SOL     OW15631   2.938   2.545   1.464
 4960SOL    HW115632   2.858   2.484   1.467
 4960SOL    HW215633   3.019   2.492   1.440
 4961SOL     OW15634   3.089   3.432   0.793
 4961SOL    HW115635   3.110   3.506   0.728
 4961SOL    HW215636   3.157   3.432   0.866
 4962SOL     OW15637   2.321   3.014   0.741
 4962SOL    HW115638   2.250   2.987   0.806
 4962SOL    HW215639   2.295   2.986   0.648
 4963SOL     OW15640   3.133   3.659   0.591
 4963SOL    HW115641   3.177   3.723   0.527
 4963SOL    HW215642   3.083   3.711   0.661
 4964SOL     OW15643   2.894   2.411   0.016
 4964SOL    HW115644   2.853   2.493  -0.023
 4964SOL    HW215645   2.958   2.437   0.089
 4965SOL     OW15646   1.940   2.418   1.386
 4965SOL    HW115647   2.032   2.417   1.345
 4965SOL    HW215648   1.934   2.492   1.453
 4966SOL     OW15649   2.728   2.316   0.642
 4966SOL    HW115650   2.696   2.388   0.580
 4966SOL    HW215651   2.752   2.235   0.589
 4967SOL     OW15652   2.879   1.901   0.753
 4967SOL    HW115653   2.807   1.906   0.684
 4967SOL    HW215654   2.855   1.832   0.822
 4968SOL     OW15655   3.291   3.035   0.867
 4968SOL    HW115656   3.236   2.951   0.860
 4968SOL    HW215657   3.317   3.064   0.775
 4969SOL     OW15658   3.328   2.452   0.992
 4969SOL    HW115659   3.298   2.357   0.999
 4969SOL    HW215660   3.401   2.468   1.058
 4970SOL     OW15661   3.719   2.695   0.377
 4970SOL    HW115662   3.761   2.631   0.441
 4970SOL    HW215663   3.681   2.644   0.299
 4971SOL     OW15664   2.350   3.247   0.174
 4971SOL    HW115665   2.263   3.232   0.221
 4971SOL    HW215666   2.333   3.273   0.079
 4972SOL     OW15667   3.526   3.142   0.657
 4972SOL    HW115668   3.625   3.150   0.671
 4972SOL    HW215669   3.481   3.226   0.688
 4973SOL     OW15670   3.252   2.437   0.078
 4973SOL    HW115671   3.198   2.416   0.159
 4973SOL    HW215672   3.343   2.396   0.087
 4974SOL     OW15673   3.616   3.085   1.588
 4974SOL    HW115674   3.707   3.046   1.575
 4974SOL    HW215675   3.624   3.181   1.612
 4975SOL     OW15676   2.926   3.209   1.340
 4975SOL    HW115677   2.846   3.186   1.395
 4975SOL    HW215678   3.009   3.183   1.389
 4976SOL     OW15679   3.454   3.491   1.625
 4976SOL    HW115680   3.481   3.525   1.535
 4976SOL    HW215681   3.533   3.453   1.671
 4977SOL     OW15682   2.973   3.057   1.100
 4977SOL    HW115683   2.933   3.101   1.181
 4977SOL    HW215684   2.932   3.094   1.017
 4978SOL     OW15685   3.500   2.961   1.079
 4978SOL    HW115686   3.505   3.042   1.138
 4978SOL    HW215687   3.414   2.963   1.028
 4979SOL     OW15688   2.777   1.951   1.402
 4979SOL    HW115689   2.802   1.931   1.307
 4979SOL    HW215690   2.849   2.007   1.444
 4980SOL     OW15691   2.842   2.978   1.719
 4980SOL    HW115692   2.743   2.984   1.729
 4980SOL    HW215693   2.865   2.898   1.663
 4981SOL     OW15694   2.567   2.912   0.368
 4981SOL    HW115695   2.553   2.919   0.467
 4981SOL    HW215696   2.651   2.861   0.350
 4982SOL     OW15697   2.272   2.675   1.251
 4982SOL    HW115698   2.358   2.687   1.301
 4982SOL    HW215699   2.230   2.588   1.278
 4983SOL     OW15700   3.136   2.248   1.262
 4983SOL    HW115701   3.157   2.322   1.326
 4983SOL    HW215702   3.047   2.265   1.219
 4984SOL     OW15703   1.926   3.426   1.331
 4984SOL    HW115704   1.880   3.508   1.297
 4984SOL    HW215705   2.024   3.445   1.340
 4985SOL     OW15706   2.229   2.962   0.501
 4985SOL    HW115707   2.222   3.045   0.445
 4985SOL    HW215708   2.233   2.882   0.441
 4986SOL     OW15709   2.428   2.399   0.865
 4986SOL    HW115710   2.440   2.465   0.791
 4986SOL    HW215711   2.474   2.433   0.948
 4987SOL     OW15712   3.114   3.210   0.388
 4987SOL    HW115713   3.164   3.287   0.428
 4987SOL    HW215714   3.019   3.212   0.420
 4988SOL     OW15715   3.134   3.307   1.142
 4988SOL    HW115716   3.181   3.320   1.229
 4988SOL    HW215717   3.068   3.233   1.151
 4989SOL     OW15718   3.444   2.501   0.472
 4989SOL    HW115719   3.413   2.562   0.545
 4989SOL    HW215720   3.494   2.553   0.403
 4990SOL     OW15721   2.216   3.372   1.329
 4990SOL    HW115722   2.195   3.328   1.242
 4990SOL    HW215723   2.313   3.398   1.332
 4991SOL     OW15724   2.264   2.613   1.598
 4991SOL    HW115725   2.332   2.668   1.551
 4991SOL    HW215726   2.304   2.525   1.625
 4992SOL     OW15727   3.449   2.641   1.670
 4992SOL    HW115728   3.357   2.679   1.665
 4992SOL    HW215729   3.509   2.688   1.605
 4993SOL     OW15730   2.875   1.967   1.770
 4993SOL    HW115731   2.881   2.052   1.718
 4993SOL    HW215732   2.907   1.891   1.713
 4994SOL     OW15733   2.366   1.912   1.740
 4994SOL    HW115734   2.324   1.855   1.670
 4994SOL    HW215735   2.300   1.981   1.772
 4995SOL     OW15736   2.435   2.732   1.029
 4995SOL    HW115737   2.479   2.821   1.020
 4995SOL    HW215738   2.372   2.732   1.106
 4996SOL     OW15739   3.222   2.724   1.045
 4996SOL    HW115740   3.147   2.724   0.979
 4996SOL    HW215741   3.259   2.632   1.054
 4997SOL     OW15742   3.071   2.387   0.275
 4997SOL    HW115743   3.084   2.303   0.329
 4997SOL    HW215744   3.042   2.461   0.335
 4998SOL     OW15745   1.899   3.172   1.282
 4998SOL    HW115746   1.952   3.123   1.350
 4998SOL    HW215747   1.921   3.270   1.287
 4999SOL     OW15748   2.594   2.496   1.064
 4999SOL    HW115749   2.653   2.470   0.988
 4999SOL    HW215750   2.566   2.592   1.053
 5000SOL     OW15751   3.590   2.797   1.854
 5000SOL    HW115752   3.544   2.790   1.765
 5000SOL    HW215753   3.528   2.841   1.920
 5001SOL     OW15754   3.484   2.229   0.374
 5001SOL    HW115755   3.486   2.153   0.438
 5001SOL    HW215756   3.436   2.306   0.414
 5002SOL     OW15757   2.885   2.628   0.966
 5002SOL    HW115758   2.900   2.649   1.062
 5002SOL    HW215759   2.855   2.533   0.957
 5003SOL     OW15760   2.842   3.435   1.700
 5003SOL    HW115761   2.822   3.479   1.612
 5003SOL    HW215762   2.881   3.344   1.684
 5004SOL     OW15763   3.721   3.380   1.605
 5004SOL    HW115764   3.735   3.407   1.510
 5004SOL    HW215765   3.804   3.402   1.658
 5005SOL     OW15766   2.212   2.760   1.804
 5005SOL    HW115767   2.288   2.804   1.852
 5005SOL    HW215768   2.247   2.713   1.722
 5006SOL     OW15769   3.402   2.136   0.125
 5006SOL    HW115770   3.341   2.061   0.148
 5006SOL    HW215771   3.424   2.188   0.208
 5007SOL     OW15772   3.165   2.700   0.042
 5007SOL    HW115773   3.199   2.607   0.057
 5007SOL    HW215774   3.183   2.727  -0.053
 5008SOL     OW15775   2.930   3.195   0.849
 5008SOL    HW115776   2.937   3.111   0.794
 5008SOL    HW215777   2.992   3.264   0.813
 5009SOL     OW15778   2.181   2.672   0.949
 5009SOL    HW115779   2.274   2.708   0.954
 5009SOL    HW215780   2.175   2.587   1.001
 5010SOL     OW15781   2.201   2.371   1.006
 5010SOL    HW115782   2.149   2.288   0.989
 5010SOL    HW215783   2.278   2.376   0.942
 5011SOL     OW15784   3.000   2.242   1.678
 5011SOL    HW115785   2.955   2.305   1.742
 5011SOL    HW215786   3.093   2.273   1.661
 5012SOL     OW15787   3.022   2.069   1.477
 5012SOL    HW115788   3.022   2.133   1.554
 5012SOL    HW215789   3.050   2.117   1.394
 5013SOL     OW15790   1.870   3.188   0.200
 5013SOL    HW115791   1.777   3.209   0.169
 5013SOL    HW215792   1.880   3.089   0.213
 5014SOL     OW15793   1.950   3.663   0.927
 5014SOL    HW115794   1.908   3.577   0.900
 5014SOL    HW215795   2.044   3.666   0.893
 5015SOL     OW15796   2.366   3.430   0.910
 5015SOL    HW115797   2.432   3.504   0.919
 5015SOL    HW215798   2.410   3.351   0.868
 5016SOL     OW15799   2.864   2.658   1.238
 5016SOL    HW115800   2.905   2.626   1.324
 5016SOL    HW215801   2.768   2.631   1.235
 5017SOL     OW15802   1.902   2.406   1.114
 5017SOL    HW115803   1.987   2.373   1.073
 5017SOL    HW215804   1.915   2.421   1.212
 5018SOL     OW15805   2.051   2.382   1.722
 5018SOL    HW115806   2.110   2.342   1.652
 5018SOL    HW215807   1.993   2.453   1.681
 5019SOL     OW15808   3.231   2.812   1.660
 5019SOL    HW115809   3.270   2.901   1.680
 5019SOL    HW215810   3.241   2.792   1.563
 5020SOL     OW15811   2.677   2.434   0.325
 5020SOL    HW115812   2.684   2.345   0.279
 5020SOL    HW215813   2.583   2.468   0.317
 5021SOL     OW15814   3.519   2.466   1.206
 5021SOL    HW115815   3.481   2.397   1.268
 5021SOL    HW215816   3.601   2.430   1.162
 5022SOL     OW15817   2.114   3.426   1.744
 5022SOL    HW115818   2.084   3.483   1.820
 5022SOL    HW215819   2.107   3.329   1.770
 5023SOL     OW15820   2.533   2.326   1.269
 5023SOL    HW115821   2.499   2.237   1.239
 5023SOL    HW215822   2.559   2.380   1.189
 5024SOL     OW15823   2.792   3.540   1.465
 5024SOL    HW115824   2.768   3.522   1.370
 5024SOL    HW215825   2.822   3.634   1.475
 5025SOL     OW15826   2.335   2.362   0.191
 5025SOL    HW115827   2.396   2.442   0.195
 5025SOL    HW215828   2.240   2.393   0.198
 5026SOL     OW15829   2.021   2.999   1.466
 5026SOL    HW115830   2.043   2.938   1.542
 5026SOL    HW215831   2.031   2.950   1.380
 5027SOL     OW15832   3.209   2.921   1.234
 5027SOL    HW115833   3.233   2.858   1.160
 5027SOL    HW215834   3.119   2.961   1.216
 5028SOL     OW15835   3.164   2.717   0.309
 5028SOL    HW115836   3.078   2.686   0.351
 5028SOL    HW215837   3.160   2.703   0.210
 5029SOL     OW15838   3.621   3.609   1.154
 5029SOL    HW115839   3.682   3.639   1.081
 5029SOL    HW215840   3.583   3.520   1.132
 5030SOL     OW15841   3.114   3.593   1.128
 5030SOL    HW115842   3.198   3.598   1.074
 5030SOL    HW215843   3.091   3.497   1.146
 5031SOL     OW15844   1.945   3.120   1.022
 5031SOL    HW115845   1.940   3.119   1.122
 5031SOL    HW215846   1.862   3.079   0.984
 5032SOL     OW15847   2.550   3.524   1.716
 5032SOL    HW115848   2.494   3.605   1.725
 5032SOL    HW215849   2.602   3.528   1.630
 5033SOL     OW15850   2.765   1.948   0.133
 5033SOL    HW115851   2.816   1.949   0.047
 5033SOL    HW215852   2.821   1.906   0.204
 5034SOL     OW15853   3.588   1.997   0.523
 5034SOL    HW115854   3.661   1.980   0.456
 5034SOL    HW215855   3.557   1.910   0.561
 5035SOL     OW15856   3.250   3.435   0.477
 5035SOL    HW115857   3.317   3.447   0.403
 5035SOL    HW215858   3.210   3.524   0.500
 5036SOL     OW15859   1.992   3.656   1.851
 5036SOL    HW115860   1.951   3.582   1.904
 5036SOL    HW215861   2.056   3.707   1.909
 5037SOL     OW15862   3.142   2.789   0.672
 5037SOL    HW115863   3.202   2.708   0.674
 5037SOL    HW215864   3.182   2.858   0.612
 5038SOL     OW15865   2.692   3.135   1.422
 5038SOL    HW115866   2.687   3.168   1.517
 5038SOL    HW215867   2.606   3.154   1.376
 5039SOL     OW15868   2.534   3.478   0.154
 5039SOL    HW115869   2.543   3.488   0.055
 5039SOL    HW215870   2.494   3.389   0.175
 5040SOL     OW15871   3.512   3.582   1.394
 5040SOL    HW115872   3.565   3.592   1.310
 5040SOL    HW215873   3.485   3.672   1.428
 5041SOL     OW15874   3.703   2.037   0.963
 5041SOL    HW115875   3.742   1.952   0.927
 5041SOL    HW215876   3.605   2.039   0.944
 5042SOL     OW15877   3.056   3.474   0.031
 5042SOL    HW115878   3.062   3.381   0.068
 5042SOL    HW215879   2.997   3.474  -0.049
 5043SOL     OW15880   2.684   2.864   1.372
 5043SOL    HW115881   2.724   2.863   1.280
 5043SOL    HW215882   2.694   2.956   1.412
 5044SOL     OW15883   2.778   2.772   0.291
 5044SOL    HW115884   2.841   2.810   0.223
 5044SOL    HW215885   2.818   2.689   0.330
 5045SOL     OW15886   3.366   3.469   0.044
 5045SOL    HW115887   3.274   3.506   0.051
 5045SOL    HW215888   3.404   3.489  -0.046
 5046SOL     OW15889   2.234   3.150   1.490
 5046SOL    HW115890   2.221   3.243   1.456
 5046SOL    HW215891   2.150   3.098   1.477
 5047SOL     OW15892   3.476   3.154   1.289
 5047SOL    HW115893   3.536   3.157   1.369
 5047SOL    HW215894   3.401   3.218   1.302
 5048SOL     OW15895   2.901   2.960   0.696
 5048SOL    HW115896   2.831   2.913   0.750
 5048SOL    HW215897   2.960   2.892   0.653
 5049SOL     OW15898   2.876   2.098   0.971
 5049SOL    HW115899   2.868   2.062   0.878
 5049SOL    HW215900   2.874   2.022   1.036
 5050SOL     OW15901   2.452   3.349   0.491
 5050SOL    HW115902   2.494   3.291   0.421
 5050SOL    HW215903   2.408   3.428   0.447
 5051SOL     OW15904   3.571   2.247   1.381
 5051SOL    HW115905   3.644   2.316   1.385
 5051SOL    HW215906   3.599   2.172   1.322
 5052SOL     OW15907   2.117   3.210   0.290
 5052SOL    HW115908   2.021   3.211   0.263
 5052SOL    HW215909   2.129   3.263   0.374
 5053SOL     OW15910   1.967   2.875   1.726
 5053SOL    HW115911   1.890   2.842   1.780
 5053SOL    HW215912   2.052   2.845   1.768
 5054SOL     OW15913   2.534   2.065   1.489
 5054SOL    HW115914   2.624   2.049   1.449
 5054SOL    HW215915   2.542   2.070   1.588
 5055SOL     OW15916   1.937   2.207   0.033
 5055SOL    HW115917   1.845   2.179   0.004
 5055SOL    HW215918   1.968   2.284  -0.023
 5056SOL     OW15919   3.302   2.718   1.398
 5056SOL    HW115920   3.245   2.770   1.335
 5056SOL    HW215921   3.398   2.730   1.374
 5057SOL     OW15922   3.045   3.197   0.119
 5057SOL    HW115923   2.946   3.186   0.121
 5057SOL    HW215924   3.079   3.212   0.212
 5058SOL     OW15925   2.475   2.704   1.431
 5058SOL    HW115926   2.531   2.785   1.414
 5058SOL    HW215927   2.534   2.624   1.434
 5059SOL     OW15928   3.355   3.629   0.959
 5059SOL    HW115929   3.388   3.693   0.890
 5059SOL    HW215930   3.421   3.623   1.034
 5060SOL     OW15931   2.578   2.427   1.708
 5060SOL    HW115932   2.597   2.492   1.782
 5060SOL    HW215933   2.638   2.347   1.717
 5061SOL     OW15934   3.312   3.082   1.633
 5061SOL    HW115935   3.303   3.072   1.732
 5061SOL    HW215936   3.408   3.075   1.607
 5062SOL     OW15937   2.252   3.603   1.560
 5062SOL    HW115938   2.161   3.644   1.558
 5062SOL    HW215939   2.245   3.509   1.592
 5063SOL     OW15940   3.536   2.745   1.254
 5063SOL    HW115941   3.509   2.656   1.217
 5063SOL    HW215942   3.537   2.813   1.181
 5064SOL     OW15943   3.087   2.187   0.449
 5064SOL    HW115944   3.152   2.113   0.438
 5064SOL    HW215945   3.107   2.237   0.533
 5065SOL     OW15946   2.456   2.607   0.652
 5065SOL    HW115947   2.506   2.692   0.633
 5065SOL    HW215948   2.368   2.609   0.604
 5066SOL     OW15949   3.639   2.204   1.642
 5066SOL    HW115950   3.622   2.235   1.548
 5066SOL    HW215951   3.555   2.167   1.680
 5067SOL     OW15952   3.592   2.796   1.517
 5067SOL    HW115953   3.630   2.887   1.532
 5067SOL    HW215954   3.584   2.779   1.418
 5068SOL     OW15955   2.721   3.236   0.016
 5068SOL    HW115956   2.675   3.251   0.104
 5068SOL    HW215957   2.765   3.321  -0.014
 5069SOL     OW15958   2.523   3.652   0.953
 5069SOL    HW115959   2.477   3.740   0.940
 5069SOL    HW215960   2.622   3.664   0.946
 5070SOL     OW15961   2.721   2.818   0.861
 5070SOL    HW115962   2.775   2.749   0.909
 5070SOL    HW215963   2.689   2.887   0.927
 5071SOL     OW15964   2.945   2.846   0.087
 5071SOL    HW115965   2.922   2.899   0.005
 5071SOL    HW215966   3.026   2.790   0.068
 5072SOL     OW15967   3.723   3.431   0.851
 5072SOL    HW115968   3.652   3.419   0.781
 5072SOL    HW215969   3.724   3.352   0.911
 5073SOL     OW15970   2.083   3.176   1.844
 5073SOL    HW115971   2.018   3.103   1.823
 5073SOL    HW215972   2.087   3.190   1.942
 5074SOL     OW15973   1.941   3.102   0.653
 5074SOL    HW115974   1.940   3.055   0.741
 5074SOL    HW215975   2.023   3.074   0.602
 5075SOL     OW15976   2.534   3.253   1.624
 5075SOL    HW115977   2.456   3.203   1.662
 5075SOL    HW215978   2.531   3.348   1.655
 5076SOL     OW15979   3.686   2.054   1.227
 5076SOL    HW115980   3.682   1.964   1.271
 5076SOL    HW215981   3.689   2.043   1.128
 5077SOL     OW15982   3.567   3.349   1.104
 5077SOL    HW115983   3.474   3.324   1.077
 5077SOL    HW215984   3.593   3.299   1.186
 5078SOL     OW15985   2.179   2.409   1.280
 5078SOL    HW115986   2.217   2.350   1.352
 5078SOL    HW215987   2.219   2.383   1.192
 5079SOL     OW15988   2.674   3.448   0.687
 5079SOL    HW115989   2.706   3.458   0.593
 5079SOL    HW215990   2.595   3.386   0.689
 5080SOL     OW15991   3.286   2.076   1.112
 5080SOL    HW115992   3.338   2.011   1.167
 5080SOL    HW215993   3.237   2.139   1.173
 5081SOL     OW15994   2.863   1.896   1.154
 5081SOL    HW115995   2.800   1.824   1.123
 5081SOL    HW215996   2.956   1.860   1.154
 5082SOL     OW15997   2.632   3.192   0.301
 5082SOL    HW115998   2.586   3.105   0.318
 5082SOL    HW215999   2.723   3.189   0.342
 5083SOL     OW16000   2.480   3.429   1.284
 5083SOL    HW116001   2.475   3.511   1.341
 5083SOL    HW216002   2.569   3.426   1.239
 5084SOL     OW16003   3.214   1.914   0.168
 5084SOL    HW116004   3.249   1.873   0.084
 5084SOL    HW216005   3.124   1.876   0.188
 5085SOL     OW16006   3.162   2.315   0.691
 5085SOL    HW116007   3.103   2.395   0.695
 5085SOL    HW216008   3.177   2.280   0.784
 5086SOL     OW16009   3.455   2.083   0.882
 5086SOL    HW116010   3.371   2.082   0.936
 5086SOL    HW216011   3.457   2.166   0.826
 5087SOL     OW16012   1.901   2.939   0.300
 5087SOL    HW116013   2.000   2.928   0.291
 5087SOL    HW216014   1.861   2.853   0.332
 5088SOL     OW16015   2.737   3.508   0.337
 5088SOL    HW116016   2.660   3.473   0.283
 5088SOL    HW216017   2.705   3.579   0.399
 5089SOL     OW16018   2.092   2.490   1.975
 5089SOL    HW116019   1.999   2.488   2.012
 5089SOL    HW216020   2.093   2.451   1.883
 5090SOL     OW16021   1.881   2.230   2.509
 5090SOL    HW116022   1.799   2.273   2.548
 5090SOL    HW216023   1.853   2.157   2.446
 5091SOL     OW16024   2.431   3.137   3.027
 5091SOL    HW116025   2.338   3.130   2.990
 5091SOL    HW216026   2.442   3.226   3.071
 5092SOL     OW16027   3.417   3.373   2.565
 5092SOL    HW116028   3.360   3.357   2.646
 5092SOL    HW216029   3.358   3.383   2.485
 5093SOL     OW16030   2.997   2.565   2.579
 5093SOL    HW116031   3.054   2.643   2.554
 5093SOL    HW216032   2.937   2.591   2.655
 5094SOL     OW16033   3.617   2.469   2.093
 5094SOL    HW116034   3.605   2.456   1.994
 5094SOL    HW216035   3.587   2.388   2.142
 5095SOL     OW16036   2.630   3.006   2.885
 5095SOL    HW116037   2.552   3.023   2.945
 5095SOL    HW216038   2.664   3.093   2.849
 5096SOL     OW16039   2.712   2.660   3.685
 5096SOL    HW116040   2.708   2.736   3.750
 5096SOL    HW216041   2.734   2.696   3.594
 5097SOL     OW16042   2.547   2.874   2.527
 5097SOL    HW116043   2.616   2.858   2.597
 5097SOL    HW216044   2.474   2.931   2.565
 5098SOL     OW16045   2.548   3.023   3.665
 5098SOL    HW116046   2.608   3.102   3.679
 5098SOL    HW216047   2.462   3.054   3.624
 5099SOL     OW16048   2.197   3.297   2.923
 5099SOL    HW116049   2.119   3.266   2.870
 5099SOL    HW216050   2.255   3.355   2.866
 5100SOL     OW16051   3.322   3.367   3.201
 5100SOL    HW116052   3.346   3.461   3.227
 5100SOL    HW216053   3.306   3.313   3.283
 5101SOL     OW16054   3.465   2.309   2.599
 5101SOL    HW116055   3.391   2.355   2.549
 5101SOL    HW216056   3.516   2.377   2.652
 5102SOL     OW16057   2.093   3.575   2.345
 5102SOL    HW116058   2.127   3.652   2.399
 5102SOL    HW216059   2.137   3.575   2.255
 5103SOL     OW16060   2.989   3.203   3.552
 5103SOL    HW116061   3.036   3.203   3.640
 5103SOL    HW216062   2.941   3.116   3.541
 5104SOL     OW16063   2.092   3.296   2.400
 5104SOL    HW116064   2.066   3.392   2.400
 5104SOL    HW216065   2.021   3.242   2.445
 5105SOL     OW16066   2.102   2.953   2.748
 5105SOL    HW116067   2.116   2.869   2.800
 5105SOL    HW216068   2.047   3.017   2.803
 5106SOL     OW16069   2.482   3.648   3.301
 5106SOL    HW116070   2.390   3.631   3.336
 5106SOL    HW216071   2.510   3.740   3.327
 5107SOL     OW16072   2.468   2.826   1.985
 5107SOL    HW116073   2.475   2.910   1.931
 5107SOL    HW216074   2.514   2.839   2.073
 5108SOL     OW16075   3.456   1.976   3.342
 5108SOL    HW116076   3.438   2.043   3.270
 5108SOL    HW216077   3.453   2.022   3.431
 5109SOL     OW16078   1.984   2.505   2.425
 5109SOL    HW116079   1.939   2.417   2.442
 5109SOL    HW216080   1.983   2.559   2.509
 5110SOL     OW16081   3.704   3.629   2.221
 5110SOL    HW116082   3.758   3.600   2.301
 5110SOL    HW216083   3.734   3.719   2.192
 5111SOL     OW16084   1.889   3.458   1.979
 5111SOL    HW116085   1.870   3.362   2.000
 5111SOL    HW216086   1.856   3.516   2.054
 5112SOL     OW16087   3.551   2.784   2.474
 5112SOL    HW116088   3.646   2.755   2.482
 5112SOL    HW216089   3.543   2.849   2.399
 5113SOL     OW16090   3.503   2.970   2.294
 5113SOL    HW116091   3.589   2.972   2.242
 5113SOL    HW216092   3.517   3.017   2.382
 5114SOL     OW16093   1.975   2.599   3.459
 5114SOL    HW116094   2.063   2.586   3.504
 5114SOL    HW216095   1.962   2.696   3.437
 5115SOL     OW16096   2.475   3.227   2.588
 5115SOL    HW116097   2.426   3.140   2.597
 5115SOL    HW216098   2.452   3.270   2.501
 5116SOL     OW16099   3.155   3.090   3.285
 5116SOL    HW116100   3.192   3.017   3.227
 5116SOL    HW216101   3.207   3.095   3.370
 5117SOL     OW16102   2.671   1.866   2.364
 5117SOL    HW116103   2.711   1.957   2.355
 5117SOL    HW216104   2.571   1.874   2.370
 5118SOL     OW16105   2.059   2.838   3.126
 5118SOL    HW116106   2.148   2.793   3.112
 5118SOL    HW216107   1.986   2.773   3.107
 5119SOL     OW16108   3.387   2.861   2.052
 5119SOL    HW116109   3.324   2.785   2.065
 5119SOL    HW216110   3.435   2.879   2.138
 5120SOL     OW16111   3.049   3.654   3.478
 5120SOL    HW116112   3.073   3.714   3.402
 5120SOL    HW216113   3.056   3.559   3.448
 5121SOL     OW16114   3.328   3.279   2.815
 5121SOL    HW116115   3.269   3.285   2.895
 5121SOL    HW216116   3.313   3.191   2.769
 5122SOL     OW16117   3.529   3.576   2.434
 5122SOL    HW116118   3.488   3.553   2.346
 5122SOL    HW216119   3.511   3.502   2.499
 5123SOL     OW16120   2.460   2.591   2.132
 5123SOL    HW116121   2.484   2.660   2.064
 5123SOL    HW216122   2.382   2.624   2.186
 5124SOL     OW16123   3.143   2.207   2.806
 5124SOL    HW116124   3.057   2.157   2.793
 5124SOL    HW216125   3.205   2.153   2.862
 5125SOL     OW16126   3.438   3.524   2.169
 5125SOL    HW116127   3.527   3.570   2.172
 5125SOL    HW216128   3.417   3.500   2.074
 5126SOL     OW16129   2.669   2.467   3.327
 5126SOL    HW116130   2.622   2.464   3.416
 5126SOL    HW216131   2.618   2.412   3.261
 5127SOL     OW16132   3.256   2.331   3.536
 5127SOL    HW116133   3.236   2.374   3.624
 5127SOL    HW216134   3.334   2.269   3.545
 5128SOL     OW16135   2.835   2.752   3.434
 5128SOL    HW116136   2.881   2.668   3.405
 5128SOL    HW216137   2.779   2.786   3.359
 5129SOL     OW16138   2.853   2.272   3.104
 5129SOL    HW116139   2.776   2.306   3.158
 5129SOL    HW216140   2.819   2.221   3.025
 5130SOL     OW16141   2.903   2.563   2.291
 5130SOL    HW116142   2.929   2.559   2.387
 5130SOL    HW216143   2.818   2.512   2.277
 5131SOL     OW16144   1.938   2.673   2.651
 5131SOL    HW116145   2.037   2.661   2.660
 5131SOL    HW216146   1.914   2.768   2.672
 5132SOL     OW16147   1.992   3.683   3.433
 5132SOL    HW116148   1.982   3.668   3.532
 5132SOL    HW216149   1.906   3.719   3.397
 5133SOL     OW16150   2.727   2.210   2.057
 5133SOL    HW116151   2.786   2.273   2.008
 5133SOL    HW216152   2.746   2.116   2.028
 5134SOL     OW16153   3.581   2.447   3.693
 5134SOL    HW116154   3.555   2.536   3.657
 5134SOL    HW216155   3.579   2.379   3.620
 5135SOL     OW16156   3.224   3.006   2.407
 5135SOL    HW116157   3.307   2.977   2.359
 5135SOL    HW216158   3.175   3.073   2.351
 5136SOL     OW16159   2.412   2.058   2.747
 5136SOL    HW116160   2.407   2.053   2.847
 5136SOL    HW216161   2.414   2.154   2.718
 5137SOL     OW16162   2.870   3.318   2.339
 5137SOL    HW116163   2.824   3.390   2.287
 5137SOL    HW216164   2.866   3.338   2.437
 5138SOL     OW16165   2.213   3.663   2.715
 5138SOL    HW116166   2.263   3.577   2.721
 5138SOL    HW216167   2.278   3.740   2.712
 5139SOL     OW16168   3.657   2.928   2.735
 5139SOL    HW116169   3.595   2.913   2.659
 5139SOL    HW216170   3.605   2.939   2.820
 5140SOL     OW16171   3.089   3.412   3.368
 5140SOL    HW116172   3.095   3.335   3.432
 5140SOL    HW216173   3.037   3.386   3.288
 5141SOL     OW16174   2.183   2.805   2.104
 5141SOL    HW116175   2.265   2.844   2.062
 5141SOL    HW216176   2.156   2.723   2.055
 5142SOL     OW16177   3.320   2.597   2.590
 5142SOL    HW116178   3.315   2.532   2.665
 5142SOL    HW216179   3.400   2.656   2.603
 5143SOL     OW16180   2.323   3.128   3.589
 5143SOL    HW116181   2.273   3.129   3.503
 5143SOL    HW216182   2.260   3.110   3.665
 5144SOL     OW16183   2.973   3.638   2.099
 5144SOL    HW116184   2.913   3.576   2.149
 5144SOL    HW216185   3.004   3.594   2.014
 5145SOL     OW16186   3.494   3.239   1.943
 5145SOL    HW116187   3.462   3.333   1.933
 5145SOL    HW216188   3.418   3.176   1.931
 5146SOL     OW16189   2.326   3.605   2.185
 5146SOL    HW116190   2.359   3.644   2.271
 5146SOL    HW216191   2.402   3.598   2.120
 5147SOL     OW16192   3.262   1.969   2.288
 5147SOL    HW116193   3.238   1.932   2.198
 5147SOL    HW216194   3.361   1.985   2.292
 5148SOL     OW16195   2.111   3.647   3.103
 5148SOL    HW116196   2.168   3.582   3.153
 5148SOL    HW216197   2.095   3.614   3.010
 5149SOL     OW16198   2.802   3.560   2.766
 5149SOL    HW116199   2.882   3.503   2.787
 5149SOL    HW216200   2.753   3.520   2.689
 5150SOL     OW16201   2.244   2.562   2.342
 5150SOL    HW116202   2.289   2.472   2.339
 5150SOL    HW216203   2.150   2.551   2.375
 5151SOL     OW16204   3.409   2.084   3.591
 5151SOL    HW116205   3.404   2.121   3.683
 5151SOL    HW216206   3.337   2.015   3.579
 5152SOL     OW16207   2.476   1.984   1.979
 5152SOL    HW116208   2.574   1.962   1.986
 5152SOL    HW216209   2.445   1.967   1.886
 5153SOL     OW16210   2.643   2.126   3.611
 5153SOL    HW116211   2.710   2.065   3.654
 5153SOL    HW216212   2.570   2.145   3.676
 5154SOL     OW16213   2.750   3.376   3.057
 5154SOL    HW116214   2.727   3.351   2.963
 5154SOL    HW216215   2.811   3.307   3.096
 5155SOL     OW16216   3.213   2.452   3.295
 5155SOL    HW116217   3.241   2.409   3.380
 5155SOL    HW216218   3.238   2.548   3.296
 5156SOL     OW16219   2.665   3.264   2.786
 5156SOL    HW116220   2.755   3.278   2.744
 5156SOL    HW216221   2.594   3.266   2.715
 5157SOL     OW16222   2.784   2.365   2.761
 5157SOL    HW116223   2.759   2.356   2.665
 5157SOL    HW216224   2.832   2.283   2.792
 5158SOL     OW16225   2.401   1.926   2.374
 5158SOL    HW116226   2.320   1.927   2.432
 5158SOL    HW216227   2.404   2.009   2.319
 5159SOL     OW16228   3.296   3.050   1.903
 5159SOL    HW116229   3.328   2.974   1.960
 5159SOL    HW216230   3.204   3.077   1.933
 5160SOL     OW16231   2.797   2.098   2.342
 5160SOL    HW116232   2.749   2.139   2.264
 5160SOL    HW216233   2.896   2.096   2.323
 5161SOL     OW16234   2.938   2.545   3.326
 5161SOL    HW116235   2.858   2.484   3.329
 5161SOL    HW216236   3.019   2.492   3.302
 5162SOL     OW16237   3.089   3.432   2.655
 5162SOL    HW116238   3.110   3.506   2.590
 5162SOL    HW216239   3.157   3.432   2.728
 5163SOL     OW16240   2.321   3.014   2.603
 5163SOL    HW116241   2.250   2.987   2.668
 5163SOL    HW216242   2.295   2.986   2.510
 5164SOL     OW16243   3.133   3.659   2.453
 5164SOL    HW116244   3.177   3.723   2.389
 5164SOL    HW216245   3.083   3.711   2.523
 5165SOL     OW16246   2.894   2.411   1.878
 5165SOL    HW116247   2.853   2.493   1.839
 5165SOL    HW216248   2.958   2.437   1.951
 5166SOL     OW16249   1.940   2.418   3.248
 5166SOL    HW116250   2.032   2.417   3.207
 5166SOL    HW216251   1.934   2.492   3.315
 5167SOL     OW16252   2.728   2.316   2.504
 5167SOL    HW116253   2.696   2.388   2.442
 5167SOL    HW216254   2.752   2.235   2.451
 5168SOL     OW16255   2.879   1.901   2.615
 5168SOL    HW116256   2.807   1.906   2.546
 5168SOL    HW216257   2.855   1.832   2.684
 5169SOL     OW16258   3.291   3.035   2.729
 5169SOL    HW116259   3.236   2.951   2.722
 5169SOL    HW216260   3.317   3.064   2.637
 5170SOL     OW16261   3.328   2.452   2.854
 5170SOL    HW116262   3.298   2.357   2.861
 5170SOL    HW216263   3.401   2.468   2.920
 5171SOL     OW16264   3.719   2.695   2.239
 5171SOL    HW116265   3.761   2.631   2.303
 5171SOL    HW216266   3.681   2.644   2.161
 5172SOL     OW16267   2.350   3.247   2.036
 5172SOL    HW116268   2.263   3.232   2.083
 5172SOL    HW216269   2.333   3.273   1.941
 5173SOL     OW16270   3.526   3.142   2.519
 5173SOL    HW116271   3.625   3.150   2.533
 5173SOL    HW216272   3.481   3.226   2.550
 5174SOL     OW16273   3.252   2.437   1.940
 5174SOL    HW116274   3.198   2.416   2.021
 5174SOL    HW216275   3.343   2.396   1.949
 5175SOL     OW16276   3.616   3.085   3.450
 5175SOL    HW116277   3.707   3.046   3.437
 5175SOL    HW216278   3.624   3.181   3.474
 5176SOL     OW16279   2.926   3.209   3.202
 5176SOL    HW116280   2.846   3.186   3.257
 5176SOL    HW216281   3.009   3.183   3.251
 5177SOL     OW16282   3.454   3.491   3.487
 5177SOL    HW116283   3.481   3.525   3.397
 5177SOL    HW216284   3.533   3.453   3.533
 5178SOL     OW16285   2.973   3.057   2.962
 5178SOL    HW116286   2.933   3.101   3.043
 5178SOL    HW216287   2.932   3.094   2.879
 5179SOL     OW16288   3.500   2.961   2.941
 5179SOL    HW116289   3.505   3.042   3.000
 5179SOL    HW216290   3.414   2.963   2.890
 5180SOL     OW16291   2.777   1.951   3.264
 5180SOL    HW116292   2.802   1.931   3.169
 5180SOL    HW216293   2.849   2.007   3.306
 5181SOL     OW16294   2.842   2.978   3.581
 5181SOL    HW116295   2.743   2.984   3.591
 5181SOL    HW216296   2.865   2.898   3.525
 5182SOL     OW16297   2.567   2.912   2.230
 5182SOL    HW116298   2.553   2.919   2.329
 5182SOL    HW216299   2.651   2.861   2.212
 5183SOL     OW16300   2.272   2.675   3.113
 5183SOL    HW116301   2.358   2.687   3.163
 5183SOL    HW216302   2.230   2.588   3.140
 5184SOL     OW16303   3.136   2.248   3.124
 5184SOL    HW116304   3.157   2.322   3.188
 5184SOL    HW216305   3.047   2.265   3.081
 5185SOL     OW16306   1.926   3.426   3.193
 5185SOL    HW116307   1.880   3.508   3.159
 5185SOL    HW216308   2.024   3.445   3.202
 5186SOL     OW16309   2.229   2.962   2.363
 5186SOL    HW116310   2.222   3.045   2.307
 5186SOL    HW216311   2.233   2.882   2.303
 5187SOL     OW16312   2.428   2.399   2.727
 5187SOL    HW116313   2.440   2.465   2.653
 5187SOL    HW216314   2.474   2.433   2.810
 5188SOL     OW16315   3.114   3.210   2.250
 5188SOL    HW116316   3.164   3.287   2.290
 5188SOL    HW216317   3.019   3.212   2.282
 5189SOL     OW16318   3.134   3.307   3.004
 5189SOL    HW116319   3.181   3.320   3.091
 5189SOL    HW216320   3.068   3.233   3.013
 5190SOL     OW16321   3.444   2.501   2.334
 5190SOL    HW116322   3.413   2.562   2.407
 5190SOL    HW216323   3.494   2.553   2.265
 5191SOL     OW16324   2.216   3.372   3.191
 5191SOL    HW116325   2.195   3.328   3.104
 5191SOL    HW216326   2.313   3.398   3.194
 5192SOL     OW16327   2.264   2.613   3.460
 5192SOL    HW116328   2.332   2.668   3.413
 5192SOL    HW216329   2.304   2.525   3.487
 5193SOL     OW16330   3.449   2.641   3.532
 5193SOL    HW116331   3.357   2.679   3.527
 5193SOL    HW216332   3.509   2.688   3.467
 5194SOL     OW16333   2.875   1.967   3.632
 5194SOL    HW116334   2.881   2.052   3.580
 5194SOL    HW216335   2.907   1.891   3.575
 5195SOL     OW16336   2.366   1.912   3.602
 5195SOL    HW116337   2.324   1.855   3.532
 5195SOL    HW216338   2.300   1.981   3.634
 5196SOL     OW16339   2.435   2.732   2.891
 5196SOL    HW116340   2.479   2.821   2.882
 5196SOL    HW216341   2.372   2.732   2.968
 5197SOL     OW16342   3.222   2.724   2.907
 5197SOL    HW116343   3.147   2.724   2.841
 5197SOL    HW216344   3.259   2.632   2.916
 5198SOL     OW16345   3.071   2.387   2.137
 5198SOL    HW116346   3.084   2.303   2.191
 5198SOL    HW216347   3.042   2.461   2.197
 5199SOL     OW16348   1.899   3.172   3.144
 5199SOL    HW116349   1.952   3.123   3.212
 5199SOL    HW216350   1.921   3.270   3.149
 5200SOL     OW16351   2.594   2.496   2.926
 5200SOL    HW116352   2.653   2.470   2.850
 5200SOL    HW216353   2.566   2.592   2.915
 5201SOL     OW16354   3.590   2.797   3.716
 5201SOL    HW116355   3.544   2.790   3.627
 5201SOL    HW216356   3.528   2.841   3.782
 5202SOL     OW16357   3.484   2.229   2.236
 5202SOL    HW116358   3.486   2.153   2.300
 5202SOL    HW216359   3.436   2.306   2.276
 5203SOL     OW16360   2.885   2.628   2.828
 5203SOL    HW116361   2.900   2.649   2.924
 5203SOL    HW216362   2.855   2.533   2.819
 5204SOL     OW16363   2.842   3.435   3.562
 5204SOL    HW116364   2.822   3.479   3.474
 5204SOL    HW216365   2.881   3.344   3.546
 5205SOL     OW16366   3.721   3.380   3.467
 5205SOL    HW116367   3.735   3.407   3.372
 5205SOL    HW216368   3.804   3.402   3.520
 5206SOL     OW16369   2.212   2.760   3.666
 5206SOL    HW116370   2.288   2.804   3.714
 5206SOL    HW216371   2.247   2.713   3.584
 5207SOL     OW16372   3.402   2.136   1.987
 5207SOL    HW116373   3.341   2.061   2.010
 5207SOL    HW216374   3.424   2.188   2.070
 5208SOL     OW16375   3.165   2.700   1.904
 5208SOL    HW116376   3.199   2.607   1.919
 5208SOL    HW216377   3.183   2.727   1.809
 5209SOL     OW16378   2.930   3.195   2.711
 5209SOL    HW116379   2.937   3.111   2.656
 5209SOL    HW216380   2.992   3.264   2.675
 5210SOL     OW16381   2.181   2.672   2.811
 5210SOL    HW116382   2.274   2.708   2.816
 5210SOL    HW216383   2.175   2.587   2.863
 5211SOL     OW16384   2.201   2.371   2.868
 5211SOL    HW116385   2.149   2.288   2.851
 5211SOL    HW216386   2.278   2.376   2.804
 5212SOL     OW16387   3.000   2.242   3.540
 5212SOL    HW116388   2.955   2.305   3.604
 5212SOL    HW216389   3.093   2.273   3.523
 5213SOL     OW16390   3.022   2.069   3.339
 5213SOL    HW116391   3.022   2.133   3.416
 5213SOL    HW216392   3.050   2.117   3.256
 5214SOL     OW16393   1.870   3.188   2.062
 5214SOL    HW116394   1.777   3.209   2.031
 5214SOL    HW216395   1.880   3.089   2.075
 5215SOL     OW16396   1.950   3.663   2.789
 5215SOL    HW116397   1.908   3.577   2.762
 5215SOL    HW216398   2.044   3.666   2.755
 5216SOL     OW16399   2.366   3.430   2.772
 5216SOL    HW116400   2.432   3.504   2.781
 5216SOL    HW216401   2.410   3.351   2.730
 5217SOL     OW16402   2.864   2.658   3.100
 5217SOL    HW116403   2.905   2.626   3.186
 5217SOL    HW216404   2.768   2.631   3.097
 5218SOL     OW16405   1.902   2.406   2.976
 5218SOL    HW116406   1.987   2.373   2.935
 5218SOL    HW216407   1.915   2.421   3.074
 5219SOL     OW16408   2.051   2.382   3.584
 5219SOL    HW116409   2.110   2.342   3.514
 5219SOL    HW216410   1.993   2.453   3.543
 5220SOL     OW16411   3.231   2.812   3.522
 5220SOL    HW116412   3.270   2.901   3.542
 5220SOL    HW216413   3.241   2.792   3.425
 5221SOL     OW16414   2.677   2.434   2.187
 5221SOL    HW116415   2.684   2.345   2.141
 5221SOL    HW216416   2.583   2.468   2.179
 5222SOL     OW16417   3.519   2.466   3.068
 5222SOL    HW116418   3.481   2.397   3.130
 5222SOL    HW216419   3.601   2.430   3.024
 5223SOL     OW16420   2.114   3.426   3.606
 5223SOL    HW116421   2.084   3.483   3.682
 5223SOL    HW216422   2.107   3.329   3.632
 5224SOL     OW16423   2.533   2.326   3.131
 5224SOL    HW116424   2.499   2.237   3.101
 5224SOL    HW216425   2.559   2.380   3.051
 5225SOL     OW16426   2.792   3.540   3.327
 5225SOL    HW116427   2.768   3.522   3.232
 5225SOL    HW216428   2.822   3.634   3.337
 5226SOL     OW16429   2.335   2.362   2.053
 5226SOL    HW116430   2.396   2.442   2.057
 5226SOL    HW216431   2.240   2.393   2.060
 5227SOL     OW16432   2.021   2.999   3.328
 5227SOL    HW116433   2.043   2.938   3.404
 5227SOL    HW216434   2.031   2.950   3.242
 5228SOL     OW16435   3.209   2.921   3.096
 5228SOL    HW116436   3.233   2.858   3.022
 5228SOL    HW216437   3.119   2.961   3.078
 5229SOL     OW16438   3.164   2.717   2.171
 5229SOL    HW116439   3.078   2.686   2.213
 5229SOL    HW216440   3.160   2.703   2.072
 5230SOL     OW16441   3.621   3.609   3.016
 5230SOL    HW116442   3.682   3.639   2.943
 5230SOL    HW216443   3.583   3.520   2.994
 5231SOL     OW16444   3.114   3.593   2.990
 5231SOL    HW116445   3.198   3.598   2.936
 5231SOL    HW216446   3.091   3.497   3.008
 5232SOL     OW16447   1.945   3.120   2.884
 5232SOL    HW116448   1.940   3.119   2.984
 5232SOL    HW216449   1.862   3.079   2.846
 5233SOL     OW16450   2.550   3.524   3.578
 5233SOL    HW116451   2.494   3.605   3.587
 5233SOL    HW216452   2.602   3.528   3.492
 5234SOL     OW16453   3.588   1.997   2.385
 5234SOL    HW116454   3.661   1.980   2.318
 5234SOL    HW216455   3.557   1.910   2.423
 5235SOL     OW16456   3.250   3.435   2.339
 5235SOL    HW116457   3.317   3.447   2.265
 5235SOL    HW216458   3.210   3.524   2.362
 5236SOL     OW16459   1.992   3.656   3.713
 5236SOL    HW116460   1.951   3.582   3.766
 5236SOL    HW216461   2.056   3.707   3.771
 5237SOL     OW16462   3.142   2.789   2.534
 5237SOL    HW116463   3.202   2.708   2.536
 5237SOL    HW216464   3.182   2.858   2.474
 5238SOL     OW16465   2.692   3.135   3.284
 5238SOL    HW116466   2.687   3.168   3.379
 5238SOL    HW216467   2.606   3.154   3.238
 5239SOL     OW16468   2.534   3.478   2.016
 5239SOL    HW116469   2.543   3.488   1.917
 5239SOL    HW216470   2.494   3.389   2.037
 5240SOL     OW16471   3.512   3.582   3.256
 5240SOL    HW116472   3.565   3.592   3.172
 5240SOL    HW216473   3.485   3.672   3.290
 5241SOL     OW16474   3.703   2.037   2.825
 5241SOL    HW116475   3.742   1.952   2.789
 5241SOL    HW216476   3.605   2.039   2.806
 5242SOL     OW16477   3.056   3.474   1.893
 5242SOL    HW116478   3.062   3.381   1.930
 5242SOL    HW216479   2.997   3.474   1.813
 5243SOL     OW16480   2.684   2.864   3.234
 5243SOL    HW116481   2.724   2.863   3.142
 5243SOL    HW216482   2.694   2.956   3.274
 5244SOL     OW16483   2.778   2.772   2.153
 5244SOL    HW116484   2.841   2.810   2.085
 5244SOL    HW216485   2.818   2.689   2.192
 5245SOL     OW16486   3.366   3.469   1.906
 5245SOL    HW116487   3.274   3.506   1.913
 5245SOL    HW216488   3.404   3.489   1.816
 5246SOL     OW16489   2.234   3.150   3.352
 5246SOL    HW116490   2.221   3.243   3.318
 5246SOL    HW216491   2.150   3.098   3.339
 5247SOL     OW16492   3.476   3.154   3.151
 5247SOL    HW116493   3.536   3.157   3.231
 5247SOL    HW216494   3.401   3.218   3.164
 5248SOL     OW16495   2.901   2.960   2.558
 5248SOL    HW116496   2.831   2.913   2.612
 5248SOL    HW216497   2.960   2.892   2.515
 5249SOL     OW16498   2.876   2.098   2.833
 5249SOL    HW116499   2.868   2.062   2.740
 5249SOL    HW216500   2.874   2.022   2.898
 5250SOL     OW16501   2.452   3.349   2.353
 5250SOL    HW116502   2.494   3.291   2.283
 5250SOL    HW216503   2.408   3.428   2.309
 5251SOL     OW16504   3.571   2.247   3.243
 5251SOL    HW116505   3.644   2.316   3.247
 5251SOL    HW216506   3.599   2.172   3.184
 5252SOL     OW16507   2.117   3.210   2.152
 5252SOL    HW116508   2.021   3.211   2.125
 5252SOL    HW216509   2.129   3.263   2.236
 5253SOL     OW16510   1.967   2.875   3.588
 5253SOL    HW116511   1.890   2.842   3.642
 5253SOL    HW216512   2.052   2.845   3.630
 5254SOL     OW16513   2.534   2.065   3.351
 5254SOL    HW116514   2.624   2.049   3.311
 5254SOL    HW216515   2.542   2.070   3.450
 5255SOL     OW16516   1.937   2.207   1.895
 5255SOL    HW116517   1.845   2.179   1.866
 5255SOL    HW216518   1.968   2.284   1.839
 5256SOL     OW16519   3.302   2.718   3.260
 5256SOL    HW116520   3.245   2.770   3.197
 5256SOL    HW216521   3.398   2.730   3.236
 5257SOL     OW16522   3.045   3.197   1.981
 5257SOL    HW116523   2.946   3.186   1.983
 5257SOL    HW216524   3.079   3.212   2.074
 5258SOL     OW16525   2.475   2.704   3.293
 5258SOL    HW116526   2.531   2.785   3.276
 5258SOL    HW216527   2.534   2.624   3.296
 5259SOL     OW16528   3.355   3.629   2.821
 5259SOL    HW116529   3.388   3.693   2.752
 5259SOL    HW216530   3.421   3.623   2.896
 5260SOL     OW16531   2.578   2.427   3.570
 5260SOL    HW116532   2.597   2.492   3.644
 5260SOL    HW216533   2.638   2.347   3.579
 5261SOL     OW16534   3.312   3.082   3.495
 5261SOL    HW116535   3.303   3.072   3.594
 5261SOL    HW216536   3.408   3.075   3.469
 5262SOL     OW16537   2.252   3.603   3.422
 5262SOL    HW116538   2.161   3.644   3.420
 5262SOL    HW216539   2.245   3.509   3.454
 5263SOL     OW16540   3.536   2.745   3.116
 5263SOL    HW116541   3.509   2.656   3.079
 5263SOL    HW216542   3.537   2.813   3.043
 5264SOL     OW16543   3.087   2.187   2.311
 5264SOL    HW116544   3.152   2.113   2.300
 5264SOL    HW216545   3.107   2.237   2.395
 5265SOL     OW16546   2.456   2.607   2.514
 5265SOL    HW116547   2.506   2.692   2.495
 5265SOL    HW216548   2.368   2.609   2.466
 5266SOL     OW16549   3.639   2.204   3.504
 5266SOL    HW116550   3.622   2.235   3.410
 5266SOL    HW216551   3.555   2.167   3.542
 5267SOL     OW16552   3.592   2.796   3.379
 5267SOL    HW116553   3.630   2.887   3.394
 5267SOL    HW216554   3.584   2.779   3.280
 5268SOL     OW16555   2.721   3.236   1.878
 5268SOL    HW116556   2.675   3.251   1.966
 5268SOL    HW216557   2.765   3.321   1.848
 5269SOL     OW16558   2.523   3.652   2.815
 5269SOL    HW116559   2.477   3.740   2.802
 5269SOL    HW216560   2.622   3.664   2.808
 5270SOL     OW16561   2.721   2.818   2.723
 5270SOL    HW116562   2.775   2.749   2.771
 5270SOL    HW216563   2.689   2.887   2.789
 5271SOL     OW16564   2.945   2.846   1.949
 5271SOL    HW116565   2.922   2.899   1.867
 5271SOL    HW216566   3.026   2.790   1.930
 5272SOL     OW16567   3.723   3.431   2.713
 5272SOL    HW116568   3.652   3.419   2.643
 5272SOL    HW216569   3.724   3.352   2.773
 5273SOL     OW16570   2.083   3.176   3.706
 5273SOL    HW116571   2.018   3.103   3.685
 5273SOL    HW216572   2.087   3.190   3.804
 5274SOL     OW16573   1.941   3.102   2.515
 5274SOL    HW116574   1.940   3.055   2.603
 5274SOL    HW216575   2.023   3.074   2.464
 5275SOL     OW16576   2.534   3.253   3.486
 5275SOL    HW116577   2.456   3.203   3.524
 5275SOL    HW216578   2.531   3.348   3.517
 5276SOL     OW16579   3.686   2.054   3.089
 5276SOL    HW116580   3.682   1.964   3.133
 5276SOL    HW216581   3.689   2.043   2.990
 5277SOL     OW16582   2.290   2.286   2.382
 5277SOL    HW116583   2.320   2.214   2.320
 5277SOL    HW216584   2.251   2.246   2.465
 5278SOL     OW16585   3.567   3.349   2.966
 5278SOL    HW116586   3.474   3.324   2.939
 5278SOL    HW216587   3.593   3.299   3.048
 5279SOL     OW16588   2.179   2.409   3.142
 5279SOL    HW116589   2.217   2.350   3.214
 5279SOL    HW216590   2.219   2.383   3.054
 5280SOL     OW16591   2.674   3.448   2.549
 5280SOL    HW116592   2.706   3.458   2.455
 5280SOL    HW216593   2.595   3.386   2.551
 5281SOL     OW16594   3.286   2.076   2.974
 5281SOL    HW116595   3.338   2.011   3.029
 5281SOL    HW216596   3.237   2.139   3.035
 5282SOL     OW16597   2.863   1.896   3.016
 5282SOL    HW116598   2.800   1.824   2.985
 5282SOL    HW216599   2.956   1.860   3.016
 5283SOL     OW16600   2.632   3.192   2.163
 5283SOL    HW116601   2.586   3.105   2.180
 5283SOL    HW216602   2.723   3.189   2.204
 5284SOL     OW16603   2.480   3.429   3.146
 5284SOL    HW116604   2.475   3.511   3.203
 5284SOL    HW216605   2.569   3.426   3.101
 5285SOL     OW16606   3.214   1.914   2.030
 5285SOL    HW116607   3.249   1.873   1.946
 5285SOL    HW216608   3.124   1.876   2.050
 5286SOL     OW16609   3.162   2.315   2.553
 5286SOL    HW116610   3.103   2.395   2.557
 5286SOL    HW216611   3.177   2.280   2.646
 5287SOL     OW16612   3.455   2.083   2.744
 5287SOL    HW116613   3.371   2.082   2.798
 5287SOL    HW216614   3.457   2.166   2.688
 5288SOL     OW16615   1.901   2.939   2.162
 5288SOL    HW116616   2.000   2.928   2.153
 5288SOL    HW216617   1.861   2.853   2.194
 5289SOL     OW16618   2.737   3.508   2.199
 5289SOL    HW116619   2.660   3.473   2.145
 5289SOL    HW216620   2.705   3.579   2.261
 5290SOL     OW16621   2.092   2.490   3.837
 5290SOL    HW116622   1.999   2.488   3.874
 5290SOL    HW216623   2.093   2.451   3.745
 5291SOL     OW16624   1.881   2.230   4.371
 5291SOL    HW116625   1.799   2.273   4.410
 5291SOL    HW216626   1.853   2.157   4.308
 5292SOL     OW16627   2.431   3.137   4.889
 5292SOL    HW116628   2.338   3.130   4.852
 5292SOL    HW216629   2.442   3.226   4.933
 5293SOL     OW16630   3.417   3.373   4.427
 5293SOL    HW116631   3.360   3.357   4.508
 5293SOL    HW216632   3.358   3.383   4.347
 5294SOL     OW16633   2.997   2.565   4.441
 5294SOL    HW116634   3.054   2.643   4.416
 5294SOL    HW216635   2.937   2.591   4.517
 5295SOL     OW16636   3.617   2.469   3.955
 5295SOL    HW116637   3.605   2.456   3.856
 5295SOL    HW216638   3.587   2.388   4.004
 5296SOL     OW16639   2.630   3.006   4.747
 5296SOL    HW116640   2.552   3.023   4.807
 5296SOL    HW216641   2.664   3.093   4.711
 5297SOL     OW16642   2.712   2.660   5.547
 5297SOL    HW116643   2.708   2.736   5.612
 5297SOL    HW216644   2.734   2.696   5.456
 5298SOL     OW16645   2.547   2.874   4.389
 5298SOL    HW116646   2.616   2.858   4.459
 5298SOL    HW216647   2.474   2.931   4.427
 5299SOL     OW16648   2.548   3.023   5.527
 5299SOL    HW116649   2.608   3.102   5.541
 5299SOL    HW216650   2.462   3.054   5.486
 5300SOL     OW16651   2.197   3.297   4.785
 5300SOL    HW116652   2.119   3.266   4.732
 5300SOL    HW216653   2.255   3.355   4.728
 5301SOL     OW16654   3.322   3.367   5.063
 5301SOL    HW116655   3.346   3.461   5.089
 5301SOL    HW216656   3.306   3.313   5.145
 5302SOL     OW16657   3.465   2.309   4.461
 5302SOL    HW116658   3.391   2.355   4.411
 5302SOL    HW216659   3.516   2.377   4.514
 5303SOL     OW16660   2.093   3.575   4.207
 5303SOL    HW116661   2.127   3.652   4.261
 5303SOL    HW216662   2.137   3.575   4.117
 5304SOL     OW16663   2.989   3.203   5.414
 5304SOL    HW116664   3.036   3.203   5.502
 5304SOL    HW216665   2.941   3.116   5.403
 5305SOL     OW16666   2.092   3.296   4.262
 5305SOL    HW116667   2.066   3.392   4.262
 5305SOL    HW216668   2.021   3.242   4.307
 5306SOL     OW16669   2.102   2.953   4.610
 5306SOL    HW116670   2.116   2.869   4.662
 5306SOL    HW216671   2.047   3.017   4.665
 5307SOL     OW16672   2.482   3.648   5.163
 5307SOL    HW116673   2.390   3.631   5.198
 5307SOL    HW216674   2.510   3.740   5.189
 5308SOL     OW16675   2.468   2.826   3.847
 5308SOL    HW116676   2.475   2.910   3.793
 5308SOL    HW216677   2.514   2.839   3.935
 5309SOL     OW16678   3.456   1.976   5.204
 5309SOL    HW116679   3.438   2.043   5.132
 5309SOL    HW216680   3.453   2.022   5.293
 5310SOL     OW16681   1.984   2.505   4.287
 5310SOL    HW116682   1.939   2.417   4.304
 5310SOL    HW216683   1.983   2.559   4.371
 5311SOL     OW16684   3.704   3.629   4.083
 5311SOL    HW116685   3.758   3.600   4.163
 5311SOL    HW216686   3.734   3.719   4.054
 5312SOL     OW16687   1.889   3.458   3.841
 5312SOL    HW116688   1.870   3.362   3.862
 5312SOL    HW216689   1.856   3.516   3.916
 5313SOL     OW16690   3.551   2.784   4.336
 5313SOL    HW116691   3.646   2.755   4.344
 5313SOL    HW216692   3.543   2.849   4.261
 5314SOL     OW16693   3.503   2.970   4.156
 5314SOL    HW116694   3.589   2.972   4.104
 5314SOL    HW216695   3.517   3.017   4.244
 5315SOL     OW16696   1.975   2.599   5.321
 5315SOL    HW116697   2.063   2.586   5.366
 5315SOL    HW216698   1.962   2.696   5.299
 5316SOL     OW16699   2.475   3.227   4.450
 5316SOL    HW116700   2.426   3.140   4.459
 5316SOL    HW216701   2.452   3.270   4.363
 5317SOL     OW16702   3.155   3.090   5.147
 5317SOL    HW116703   3.192   3.017   5.089
 5317SOL    HW216704   3.207   3.095   5.232
 5318SOL     OW16705   2.671   1.866   4.226
 5318SOL    HW116706   2.711   1.957   4.217
 5318SOL    HW216707   2.571   1.874   4.232
 5319SOL     OW16708   2.059   2.838   4.988
 5319SOL    HW116709   2.148   2.793   4.974
 5319SOL    HW216710   1.986   2.773   4.969
 5320SOL     OW16711   3.387   2.861   3.914
 5320SOL    HW116712   3.324   2.785   3.927
 5320SOL    HW216713   3.435   2.879   4.000
 5321SOL     OW16714   3.049   3.654   5.340
 5321SOL    HW116715   3.073   3.714   5.264
 5321SOL    HW216716   3.056   3.559   5.310
 5322SOL     OW16717   3.328   3.279   4.677
 5322SOL    HW116718   3.269   3.285   4.757
 5322SOL    HW216719   3.313   3.191   4.631
 5323SOL     OW16720   3.529   3.576   4.296
 5323SOL    HW116721   3.488   3.553   4.208
 5323SOL    HW216722   3.511   3.502   4.361
 5324SOL     OW16723   2.460   2.591   3.994
 5324SOL    HW116724   2.484   2.660   3.926
 5324SOL    HW216725   2.382   2.624   4.048
 5325SOL     OW16726   3.143   2.207   4.668
 5325SOL    HW116727   3.057   2.157   4.655
 5325SOL    HW216728   3.205   2.153   4.724
 5326SOL     OW16729   3.438   3.524   4.031
 5326SOL    HW116730   3.527   3.570   4.034
 5326SOL    HW216731   3.417   3.500   3.936
 5327SOL     OW16732   2.669   2.467   5.189
 5327SOL    HW116733   2.622   2.464   5.278
 5327SOL    HW216734   2.618   2.412   5.123
 5328SOL     OW16735   3.256   2.331   5.398
 5328SOL    HW116736   3.236   2.374   5.486
 5328SOL    HW216737   3.334   2.269   5.407
 5329SOL     OW16738   2.835   2.752   5.296
 5329SOL    HW116739   2.881   2.668   5.267
 5329SOL    HW216740   2.779   2.786   5.221
 5330SOL     OW16741   2.853   2.272   4.966
 5330SOL    HW116742   2.776   2.306   5.020
 5330SOL    HW216743   2.819   2.221   4.887
 5331SOL     OW16744   2.903   2.563   4.153
 5331SOL    HW116745   2.929   2.559   4.249
 5331SOL    HW216746   2.818   2.512   4.139
 5332SOL     OW16747   1.938   2.673   4.513
 5332SOL    HW116748   2.037   2.661   4.522
 5332SOL    HW216749   1.914   2.768   4.534
 5333SOL     OW16750   1.992   3.683   5.295
 5333SOL    HW116751   1.982   3.668   5.394
 5333SOL    HW216752   1.906   3.719   5.259
 5334SOL     OW16753   2.727   2.210   3.919
 5334SOL    HW116754   2.786   2.273   3.870
 5334SOL    HW216755   2.746   2.116   3.890
 5335SOL     OW16756   3.581   2.447   5.555
 5335SOL    HW116757   3.555   2.536   5.519
 5335SOL    HW216758   3.579   2.379   5.482
 5336SOL     OW16759   3.224   3.006   4.269
 5336SOL    HW116760   3.307   2.977   4.221
 5336SOL    HW216761   3.175   3.073   4.213
 5337SOL     OW16762   2.412   2.058   4.609
 5337SOL    HW116763   2.407   2.053   4.709
 5337SOL    HW216764   2.414   2.154   4.580
 5338SOL     OW16765   2.870   3.318   4.201
 5338SOL    HW116766   2.824   3.390   4.149
 5338SOL    HW216767   2.866   3.338   4.299
 5339SOL     OW16768   2.213   3.663   4.577
 5339SOL    HW116769   2.263   3.577   4.583
 5339SOL    HW216770   2.278   3.740   4.574
 5340SOL     OW16771   3.657   2.928   4.597
 5340SOL    HW116772   3.595   2.913   4.521
 5340SOL    HW216773   3.605   2.939   4.682
 5341SOL     OW16774   3.089   3.412   5.230
 5341SOL    HW116775   3.095   3.335   5.294
 5341SOL    HW216776   3.037   3.386   5.150
 5342SOL     OW16777   2.183   2.805   3.966
 5342SOL    HW116778   2.265   2.844   3.924
 5342SOL    HW216779   2.156   2.723   3.917
 5343SOL     OW16780   3.320   2.597   4.452
 5343SOL    HW116781   3.315   2.532   4.527
 5343SOL    HW216782   3.400   2.656   4.465
 5344SOL     OW16783   2.323   3.128   5.451
 5344SOL    HW116784   2.273   3.129   5.365
 5344SOL    HW216785   2.260   3.110   5.527
 5345SOL     OW16786   2.973   3.638   3.961
 5345SOL    HW116787   2.913   3.576   4.011
 5345SOL    HW216788   3.004   3.594   3.876
 5346SOL     OW16789   3.494   3.239   3.805
 5346SOL    HW116790   3.462   3.333   3.795
 5346SOL    HW216791   3.418   3.176   3.793
 5347SOL     OW16792   2.326   3.605   4.047
 5347SOL    HW116793   2.359   3.644   4.133
 5347SOL    HW216794   2.402   3.598   3.982
 5348SOL     OW16795   3.262   1.969   4.150
 5348SOL    HW116796   3.238   1.932   4.060
 5348SOL    HW216797   3.361   1.985   4.154
 5349SOL     OW16798   2.111   3.647   4.965
 5349SOL    HW116799   2.168   3.582   5.015
 5349SOL    HW216800   2.095   3.614   4.872
 5350SOL     OW16801   2.802   3.560   4.628
 5350SOL    HW116802   2.882   3.503   4.649
 5350SOL    HW216803   2.753   3.520   4.551
 5351SOL     OW16804   2.244   2.562   4.204
 5351SOL    HW116805   2.289   2.472   4.201
 5351SOL    HW216806   2.150   2.551   4.237
 5352SOL     OW16807   3.409   2.084   5.453
 5352SOL    HW116808   3.404   2.121   5.545
 5352SOL    HW216809   3.337   2.015   5.441
 5353SOL     OW16810   2.476   1.984   3.841
 5353SOL    HW116811   2.574   1.962   3.848
 5353SOL    HW216812   2.445   1.967   3.748
 5354SOL     OW16813   2.643   2.126   5.473
 5354SOL    HW116814   2.710   2.065   5.516
 5354SOL    HW216815   2.570   2.145   5.538
 5355SOL     OW16816   2.750   3.376   4.919
 5355SOL    HW116817   2.727   3.351   4.825
 5355SOL    HW216818   2.811   3.307   4.958
 5356SOL     OW16819   3.213   2.452   5.157
 5356SOL    HW116820   3.241   2.409   5.242
 5356SOL    HW216821   3.238   2.548   5.158
 5357SOL     OW16822   2.665   3.264   4.648
 5357SOL    HW116823   2.755   3.278   4.606
 5357SOL    HW216824   2.594   3.266   4.577
 5358SOL     OW16825   2.784   2.365   4.623
 5358SOL    HW116826   2.759   2.356   4.527
 5358SOL    HW216827   2.832   2.283   4.654
 5359SOL     OW16828   2.401   1.926   4.236
 5359SOL    HW116829   2.320   1.927   4.294
 5359SOL    HW216830   2.404   2.009   4.181
 5360SOL     OW16831   3.296   3.050   3.765
 5360SOL    HW116832   3.328   2.974   3.822
 5360SOL    HW216833   3.204   3.077   3.795
 5361SOL     OW16834   2.797   2.098   4.204
 5361SOL    HW116835   2.749   2.139   4.126
 5361SOL    HW216836   2.896   2.096   4.185
 5362SOL     OW16837   2.938   2.545   5.188
 5362SOL    HW116838   2.858   2.484   5.191
 5362SOL    HW216839   3.019   2.492   5.164
 5363SOL     OW16840   3.089   3.432   4.517
 5363SOL    HW116841   3.110   3.506   4.452
 5363SOL    HW216842   3.157   3.432   4.590
 5364SOL     OW16843   2.321   3.014   4.465
 5364SOL    HW116844   2.250   2.987   4.530
 5364SOL    HW216845   2.295   2.986   4.372
 5365SOL     OW16846   3.133   3.659   4.315
 5365SOL    HW116847   3.177   3.723   4.251
 5365SOL    HW216848   3.083   3.711   4.385
 5366SOL     OW16849   2.894   2.411   3.740
 5366SOL    HW116850   2.853   2.493   3.701
 5366SOL    HW216851   2.958   2.437   3.813
 5367SOL     OW16852   1.940   2.418   5.110
 5367SOL    HW116853   2.032   2.417   5.069
 5367SOL    HW216854   1.934   2.492   5.177
 5368SOL     OW16855   2.728   2.316   4.366
 5368SOL    HW116856   2.696   2.388   4.304
 5368SOL    HW216857   2.752   2.235   4.313
 5369SOL     OW16858   2.879   1.901   4.477
 5369SOL    HW116859   2.807   1.906   4.408
 5369SOL    HW216860   2.855   1.832   4.546
 5370SOL     OW16861   3.291   3.035   4.591
 5370SOL    HW116862   3.236   2.951   4.584
 5370SOL    HW216863   3.317   3.064   4.499
 5371SOL     OW16864   3.328   2.452   4.716
 5371SOL    HW116865   3.298   2.357   4.723
 5371SOL    HW216866   3.401   2.468   4.782
 5372SOL     OW16867   3.719   2.695   4.101
 5372SOL    HW116868   3.761   2.631   4.165
 5372SOL    HW216869   3.681   2.644   4.023
 5373SOL     OW16870   2.350   3.247   3.898
 5373SOL    HW116871   2.263   3.232   3.945
 5373SOL    HW216872   2.333   3.273   3.803
 5374SOL     OW16873   3.526   3.142   4.381
 5374SOL    HW116874   3.625   3.150   4.395
 5374SOL    HW216875   3.481   3.226   4.412
 5375SOL     OW16876   3.252   2.437   3.802
 5375SOL    HW116877   3.198   2.416   3.883
 5375SOL    HW216878   3.343   2.396   3.811
 5376SOL     OW16879   3.616   3.085   5.312
 5376SOL    HW116880   3.707   3.046   5.299
 5376SOL    HW216881   3.624   3.181   5.336
 5377SOL     OW16882   2.926   3.209   5.064
 5377SOL    HW116883   2.846   3.186   5.119
 5377SOL    HW216884   3.009   3.183   5.113
 5378SOL     OW16885   3.454   3.491   5.349
 5378SOL    HW116886   3.481   3.525   5.259
 5378SOL    HW216887   3.533   3.453   5.395
 5379SOL     OW16888   2.973   3.057   4.824
 5379SOL    HW116889   2.933   3.101   4.905
 5379SOL    HW216890   2.932   3.094   4.741
 5380SOL     OW16891   3.500   2.961   4.803
 5380SOL    HW116892   3.505   3.042   4.862
 5380SOL    HW216893   3.414   2.963   4.752
 5381SOL     OW16894   2.777   1.951   5.126
 5381SOL    HW116895   2.802   1.931   5.031
 5381SOL    HW216896   2.849   2.007   5.168
 5382SOL     OW16897   2.842   2.978   5.443
 5382SOL    HW116898   2.743   2.984   5.453
 5382SOL    HW216899   2.865   2.898   5.387
 5383SOL     OW16900   2.567   2.912   4.092
 5383SOL    HW116901   2.553   2.919   4.191
 5383SOL    HW216902   2.651   2.861   4.074
 5384SOL     OW16903   2.272   2.675   4.975
 5384SOL    HW116904   2.358   2.687   5.025
 5384SOL    HW216905   2.230   2.588   5.002
 5385SOL     OW16906   3.136   2.248   4.986
 5385SOL    HW116907   3.157   2.322   5.050
 5385SOL    HW216908   3.047   2.265   4.943
 5386SOL     OW16909   1.926   3.426   5.055
 5386SOL    HW116910   1.880   3.508   5.021
 5386SOL    HW216911   2.024   3.445   5.064
 5387SOL     OW16912   2.229   2.962   4.225
 5387SOL    HW116913   2.222   3.045   4.169
 5387SOL    HW216914   2.233   2.882   4.165
 5388SOL     OW16915   2.428   2.399   4.589
 5388SOL    HW116916   2.440   2.465   4.515
 5388SOL    HW216917   2.474   2.433   4.672
 5389SOL     OW16918   3.114   3.210   4.112
 5389SOL    HW116919   3.164   3.287   4.152
 5389SOL    HW216920   3.019   3.212   4.144
 5390SOL     OW16921   3.134   3.307   4.866
 5390SOL    HW116922   3.181   3.320   4.953
 5390SOL    HW216923   3.068   3.233   4.875
 5391SOL     OW16924   3.444   2.501   4.196
 5391SOL    HW116925   3.413   2.562   4.269
 5391SOL    HW216926   3.494   2.553   4.127
 5392SOL     OW16927   2.216   3.372   5.053
 5392SOL    HW116928   2.195   3.328   4.966
 5392SOL    HW216929   2.313   3.398   5.056
 5393SOL     OW16930   2.264   2.613   5.322
 5393SOL    HW116931   2.332   2.668   5.275
 5393SOL    HW216932   2.304   2.525   5.349
 5394SOL     OW16933   3.449   2.641   5.394
 5394SOL    HW116934   3.357   2.679   5.389
 5394SOL    HW216935   3.509   2.688   5.329
 5395SOL     OW16936   2.875   1.967   5.494
 5395SOL    HW116937   2.881   2.052   5.442
 5395SOL    HW216938   2.907   1.891   5.437
 5396SOL     OW16939   2.366   1.912   5.464
 5396SOL    HW116940   2.324   1.855   5.394
 5396SOL    HW216941   2.300   1.981   5.496
 5397SOL     OW16942   2.435   2.732   4.753
 5397SOL    HW116943   2.479   2.821   4.744
 5397SOL    HW216944   2.372   2.732   4.830
 5398SOL     OW16945   3.222   2.724   4.769
 5398SOL    HW116946   3.147   2.724   4.703
 5398SOL    HW216947   3.259   2.632   4.778
 5399SOL     OW16948   3.071   2.387   3.999
 5399SOL    HW116949   3.084   2.303   4.053
 5399SOL    HW216950   3.042   2.461   4.059
 5400SOL     OW16951   1.899   3.172   5.006
 5400SOL    HW116952   1.952   3.123   5.074
 5400SOL    HW216953   1.921   3.270   5.011
 5401SOL     OW16954   2.594   2.496   4.788
 5401SOL    HW116955   2.653   2.470   4.712
 5401SOL    HW216956   2.566   2.592   4.777
 5402SOL     OW16957   3.590   2.797   5.578
 5402SOL    HW116958   3.544   2.790   5.489
 5402SOL    HW216959   3.528   2.841   5.644
 5403SOL     OW16960   3.484   2.229   4.098
 5403SOL    HW116961   3.486   2.153   4.162
 5403SOL    HW216962   3.436   2.306   4.138
 5404SOL     OW16963   2.885   2.628   4.690
 5404SOL    HW116964   2.900   2.649   4.786
 5404SOL    HW216965   2.855   2.533   4.681
 5405SOL     OW16966   2.842   3.435   5.424
 5405SOL    HW116967   2.822   3.479   5.336
 5405SOL    HW216968   2.881   3.344   5.408
 5406SOL     OW16969   3.721   3.380   5.329
 5406SOL    HW116970   3.735   3.407   5.234
 5406SOL    HW216971   3.804   3.402   5.382
 5407SOL     OW16972   2.212   2.760   5.528
 5407SOL    HW116973   2.288   2.804   5.576
 5407SOL    HW216974   2.247   2.713   5.446
 5408SOL     OW16975   3.402   2.136   3.849
 5408SOL    HW116976   3.341   2.061   3.872
 5408SOL    HW216977   3.424   2.188   3.932
 5409SOL     OW16978   3.165   2.700   3.766
 5409SOL    HW116979   3.199   2.607   3.781
 5409SOL    HW216980   3.183   2.727   3.671
 5410SOL     OW16981   2.930   3.195   4.573
 5410SOL    HW116982   2.937   3.111   4.518
 5410SOL    HW216983   2.992   3.264   4.537
 5411SOL     OW16984   2.181   2.672   4.673
 5411SOL    HW116985   2.274   2.708   4.678
 5411SOL    HW216986   2.175   2.587   4.725
 5412SOL     OW16987   2.201   2.371   4.730
 5412SOL    HW116988   2.149   2.288   4.713
 5412SOL    HW216989   2.278   2.376   4.666
 5413SOL     OW16990   3.000   2.242   5.402
 5413SOL    HW116991   2.955   2.305   5.466
 5413SOL    HW216992   3.093   2.273   5.385
 5414SOL     OW16993   3.022   2.069   5.201
 5414SOL    HW116994   3.022   2.133   5.278
 5414SOL    HW216995   3.050   2.117   5.118
 5415SOL     OW16996   1.870   3.188   3.924
 5415SOL    HW116997   1.777   3.209   3.893
 5415SOL    HW216998   1.880   3.089   3.937
 5416SOL     OW16999   1.950   3.663   4.651
 5416SOL    HW117000   1.908   3.577   4.624
 5416SOL    HW217001   2.044   3.666   4.617
 5417SOL     OW17002   2.366   3.430   4.634
 5417SOL    HW117003   2.432   3.504   4.643
 5417SOL    HW217004   2.410   3.351   4.592
 5418SOL     OW17005   2.864   2.658   4.962
 5418SOL    HW117006   2.905   2.626   5.048
 5418SOL    HW217007   2.768   2.631   4.959
 5419SOL     OW17008   1.902   2.406   4.838
 5419SOL    HW117009   1.987   2.373   4.797
 5419SOL    HW217010   1.915   2.421   4.936
 5420SOL     OW17011   2.051   2.382   5.446
 5420SOL    HW117012   2.110   2.342   5.376
 5420SOL    HW217013   1.993   2.453   5.405
 5421SOL     OW17014   3.231   2.812   5.384
 5421SOL    HW117015   3.270   2.901   5.404
 5421SOL    HW217016   3.241   2.792   5.287
 5422SOL     OW17017   2.677   2.434   4.049
 5422SOL    HW117018   2.684   2.345   4.003
 5422SOL    HW217019   2.583   2.468   4.041
 5423SOL     OW17020   3.519   2.466   4.930
 5423SOL    HW117021   3.481   2.397   4.992
 5423SOL    HW217022   3.601   2.430   4.886
 5424SOL     OW17023   2.114   3.426   5.468
 5424SOL    HW117024   2.084   3.483   5.544
 5424SOL    HW217025   2.107   3.329   5.494
 5425SOL     OW17026   2.533   2.326   4.993
 5425SOL    HW117027   2.499   2.237   4.963
 5425SOL    HW217028   2.559   2.380   4.913
 5426SOL     OW17029   2.792   3.540   5.189
 5426SOL    HW117030   2.768   3.522   5.094
 5426SOL    HW217031   2.822   3.634   5.199
 5427SOL     OW17032   2.335   2.362   3.915
 5427SOL    HW117033   2.396   2.442   3.919
 5427SOL    HW217034   2.240   2.393   3.922
 5428SOL     OW17035   2.021   2.999   5.190
 5428SOL    HW117036   2.043   2.938   5.266
 5428SOL    HW217037   2.031   2.950   5.104
 5429SOL     OW17038   3.209   2.921   4.958
 5429SOL    HW117039   3.233   2.858   4.884
 5429SOL    HW217040   3.119   2.961   4.940
 5430SOL     OW17041   3.164   2.717   4.033
 5430SOL    HW117042   3.078   2.686   4.075
 5430SOL    HW217043   3.160   2.703   3.934
 5431SOL     OW17044   3.621   3.609   4.878
 5431SOL    HW117045   3.682   3.639   4.805
 5431SOL    HW217046   3.583   3.520   4.856
 5432SOL     OW17047   3.114   3.593   4.852
 5432SOL    HW117048   3.198   3.598   4.798
 5432SOL    HW217049   3.091   3.497   4.870
 5433SOL     OW17050   1.945   3.120   4.746
 5433SOL    HW117051   1.940   3.119   4.846
 5433SOL    HW217052   1.862   3.079   4.708
 5434SOL     OW17053   2.550   3.524   5.440
 5434SOL    HW117054   2.494   3.605   5.449
 5434SOL    HW217055   2.602   3.528   5.354
 5435SOL     OW17056   3.588   1.997   4.247
 5435SOL    HW117057   3.661   1.980   4.180
 5435SOL    HW217058   3.557   1.910   4.285
 5436SOL     OW17059   3.250   3.435   4.201
 5436SOL    HW117060   3.317   3.447   4.127
 5436SOL    HW217061   3.210   3.524   4.224
 5437SOL     OW17062   1.992   3.656   5.575
 5437SOL    HW117063   1.951   3.582   5.628
 5437SOL    HW217064   2.056   3.707   5.633
 5438SOL     OW17065   3.142   2.789   4.396
 5438SOL    HW117066   3.202   2.708   4.398
 5438SOL    HW217067   3.182   2.858   4.336
 5439SOL     OW17068   2.692   3.135   5.146
 5439SOL    HW117069   2.687   3.168   5.241
 5439SOL    HW217070   2.606   3.154   5.100
 5440SOL     OW17071   2.534   3.478   3.878
 5440SOL    HW117072   2.543   3.488   3.779
 5440SOL    HW217073   2.494   3.389   3.899
 5441SOL     OW17074   3.512   3.582   5.118
 5441SOL    HW117075   3.565   3.592   5.034
 5441SOL    HW217076   3.485   3.672   5.152
 5442SOL     OW17077   3.703   2.037   4.687
 5442SOL    HW117078   3.742   1.952   4.651
 5442SOL    HW217079   3.605   2.039   4.668
 5443SOL     OW17080   3.056   3.474   3.755
 5443SOL    HW117081   3.062   3.381   3.792
 5443SOL    HW217082   2.997   3.474   3.675
 5444SOL     OW17083   2.684   2.864   5.096
 5444SOL    HW117084   2.724   2.863   5.004
 5444SOL    HW217085   2.694   2.956   5.136
 5445SOL     OW17086   2.778   2.772   4.015
 5445SOL    HW117087   2.841   2.810   3.947
 5445SOL    HW217088   2.818   2.689   4.054
 5446SOL     OW17089   3.366   3.469   3.768
 5446SOL    HW117090   3.274   3.506   3.775
 5446SOL    HW217091   3.404   3.489   3.678
 5447SOL     OW17092   2.234   3.150   5.214
 5447SOL    HW117093   2.221   3.243   5.180
 5447SOL    HW217094   2.150   3.098   5.201
 5448SOL     OW17095   3.476   3.154   5.013
 5448SOL    HW117096   3.536   3.157   5.093
 5448SOL    HW217097   3.401   3.218   5.026
 5449SOL     OW17098   2.901   2.960   4.420
 5449SOL    HW117099   2.831   2.913   4.474
 5449SOL    HW217100   2.960   2.892   4.377
 5450SOL     OW17101   2.876   2.098   4.695
 5450SOL    HW117102   2.868   2.062   4.602
 5450SOL    HW217103   2.874   2.022   4.760
 5451SOL     OW17104   2.452   3.349   4.215
 5451SOL    HW117105   2.494   3.291   4.145
 5451SOL    HW217106   2.408   3.428   4.171
 5452SOL     OW17107   3.571   2.247   5.105
 5452SOL    HW117108   3.644   2.316   5.109
 5452SOL    HW217109   3.599   2.172   5.046
 5453SOL     OW17110   2.117   3.210   4.014
 5453SOL    HW117111   2.021   3.211   3.987
 5453SOL    HW217112   2.129   3.263   4.098
 5454SOL     OW17113   1.967   2.875   5.450
 5454SOL    HW117114   1.890   2.842   5.504
 5454SOL    HW217115   2.052   2.845   5.492
 5455SOL     OW17116   2.534   2.065   5.213
 5455SOL    HW117117   2.624   2.049   5.173
 5455SOL    HW217118   2.542   2.070   5.312
 5456SOL     OW17119   1.937   2.207   3.757
 5456SOL    HW117120   1.845   2.179   3.728
 5456SOL    HW217121   1.968   2.284   3.701
 5457SOL     OW17122   3.302   2.718   5.122
 5457SOL    HW117123   3.245   2.770   5.059
 5457SOL    HW217124   3.398   2.730   5.098
 5458SOL     OW17125   3.045   3.197   3.843
 5458SOL    HW117126   2.946   3.186   3.845
 5458SOL    HW217127   3.079   3.212   3.936
 5459SOL     OW17128   2.475   2.704   5.155
 5459SOL    HW117129   2.531   2.785   5.138
 5459SOL    HW217130   2.534   2.624   5.158
 5460SOL     OW17131   3.355   3.629   4.683
 5460SOL    HW117132   3.388   3.693   4.614
 5460SOL    HW217133   3.421   3.623   4.758
 5461SOL     OW17134   2.578   2.427   5.432
 5461SOL    HW117135   2.597   2.492   5.506
 5461SOL    HW217136   2.638   2.347   5.441
 5462SOL     OW17137   3.312   3.082   5.357
 5462SOL    HW117138   3.303   3.072   5.456
 5462SOL    HW217139   3.408   3.075   5.331
 5463SOL     OW17140   2.252   3.603   5.284
 5463SOL    HW117141   2.161   3.644   5.282
 5463SOL    HW217142   2.245   3.509   5.316
 5464SOL     OW17143   3.536   2.745   4.978
 5464SOL    HW117144   3.509   2.656   4.941
 5464SOL    HW217145   3.537   2.813   4.905
 5465SOL     OW17146   3.087   2.187   4.173
 5465SOL    HW117147   3.152   2.113   4.162
 5465SOL    HW217148   3.107   2.237   4.257
 5466SOL     OW17149   2.456   2.607   4.376
 5466SOL    HW117150   2.506   2.692   4.357
 5466SOL    HW217151   2.368   2.609   4.328
 5467SOL     OW17152   3.639   2.204   5.366
 5467SOL    HW117153   3.622   2.235   5.272
 5467SOL    HW217154   3.555   2.167   5.404
 5468SOL     OW17155   3.592   2.796   5.241
 5468SOL    HW117156   3.630   2.887   5.256
 5468SOL    HW217157   3.584   2.779   5.142
 5469SOL     OW17158   2.721   3.236   3.740
 5469SOL    HW117159   2.675   3.251   3.828
 5469SOL    HW217160   2.765   3.321   3.710
 5470SOL     OW17161   2.523   3.652   4.677
 5470SOL    HW117162   2.477   3.740   4.664
 5470SOL    HW217163   2.622   3.664   4.670
 5471SOL     OW17164   2.721   2.818   4.585
 5471SOL    HW117165   2.775   2.749   4.633
 5471SOL    HW217166   2.689   2.887   4.651
 5472SOL     OW17167   2.945   2.846   3.811
 5472SOL    HW117168   2.922   2.899   3.729
 5472SOL    HW217169   3.026   2.790   3.792
 5473SOL     OW17170   3.723   3.431   4.575
 5473SOL    HW117171   3.652   3.419   4.505
 5473SOL    HW217172   3.724   3.352   4.635
 5474SOL     OW17173   2.083   3.176   5.568
 5474SOL    HW117174   2.018   3.103   5.547
 5474SOL    HW217175   2.087   3.190   5.666
 5475SOL     OW17176   1.941   3.102   4.377
 5475SOL    HW117177   1.940   3.055   4.465
 5475SOL    HW217178   2.023   3.074   4.326
 5476SOL     OW17179   2.534   3.253   5.348
 5476SOL    HW117180   2.456   3.203   5.386
 5476SOL    HW217181   2.531   3.348   5.379
 5477SOL     OW17182   3.686   2.054   4.951
 5477SOL    HW117183   3.682   1.964   4.995
 5477SOL    HW217184   3.689   2.043   4.852
 5478SOL     OW17185   3.567   3.349   4.828
 5478SOL    HW117186   3.474   3.324   4.801
 5478SOL    HW217187   3.593   3.299   4.910
 5479SOL     OW17188   2.179   2.409   5.004
 5479SOL    HW117189   2.217   2.350   5.076
 5479SOL    HW217190   2.219   2.383   4.916
 5480SOL     OW17191   2.674   3.448   4.411
 5480SOL    HW117192   2.706   3.458   4.317
 5480SOL    HW217193   2.595   3.386   4.413
 5481SOL     OW17194   3.286   2.076   4.836
 5481SOL    HW117195   3.338   2.011   4.891
 5481SOL    HW217196   3.237   2.139   4.897
 5482SOL     OW17197   2.863   1.896   4.878
 5482SOL    HW117198   2.800   1.824   4.847
 5482SOL    HW217199   2.956   1.860   4.878
 5483SOL     OW17200   2.632   3.192   4.025
 5483SOL    HW117201   2.586   3.105   4.042
 5483SOL    HW217202   2.723   3.189   4.066
 5484SOL     OW17203   2.480   3.429   5.008
 5484SOL    HW117204   2.475   3.511   5.065
 5484SOL    HW217205   2.569   3.426   4.963
 5485SOL     OW17206   3.214   1.914   3.892
 5485SOL    HW117207   3.249   1.873   3.808
 5485SOL    HW217208   3.124   1.876   3.912
 5486SOL     OW17209   3.162   2.315   4.415
 5486SOL    HW117210   3.103   2.395   4.419
 5486SOL    HW217211   3.177   2.280   4.508
 5487SOL     OW17212   3.455   2.083   4.606
 5487SOL    HW117213   3.371   2.082   4.660
 5487SOL    HW217214   3.457   2.166   4.550
 5488SOL     OW17215   1.901   2.939   4.024
 5488SOL    HW117216   2.000   2.928   4.015
 5488SOL    HW217217   1.861   2.853   4.056
 5489SOL     OW17218   2.737   3.508   4.061
 5489SOL    HW117219   2.660   3.473   4.007
 5489SOL    HW217220   2.705   3.579   4.123
 5490SOL     OW17221   2.092   2.490   5.699
 5490SOL    HW117222   1.999   2.488   5.736
 5490SOL    HW217223   2.093   2.451   5.607
 5491SOL     OW17224   1.881   2.230   6.233
 5491SOL    HW117225   1.799   2.273   6.272
 5491SOL    HW217226   1.853   2.157   6.170
 5492SOL     OW17227   2.431   3.137   6.751
 5492SOL    HW117228   2.338   3.130   6.714
 5492SOL    HW217229   2.442   3.226   6.795
 5493SOL     OW17230   3.417   3.373   6.289
 5493SOL    HW117231   3.360   3.357   6.370
 5493SOL    HW217232   3.358   3.383   6.209
 5494SOL     OW17233   2.997   2.565   6.303
 5494SOL    HW117234   3.054   2.643   6.278
 5494SOL    HW217235   2.937   2.591   6.379
 5495SOL     OW17236   3.617   2.469   5.817
 5495SOL    HW117237   3.605   2.456   5.718
 5495SOL    HW217238   3.587   2.388   5.866
 5496SOL     OW17239   2.630   3.006   6.609
 5496SOL    HW117240   2.552   3.023   6.669
 5496SOL    HW217241   2.664   3.093   6.573
 5497SOL     OW17242   2.712   2.660   7.409
 5497SOL    HW117243   2.708   2.736   7.474
 5497SOL    HW217244   2.734   2.696   7.318
 5498SOL     OW17245   2.547   2.874   6.251
 5498SOL    HW117246   2.616   2.858   6.321
 5498SOL    HW217247   2.474   2.931   6.289
 5499SOL     OW17248   2.548   3.023   7.389
 5499SOL    HW117249   2.608   3.102   7.403
 5499SOL    HW217250   2.462   3.054   7.348
 5500SOL     OW17251   2.197   3.297   6.647
 5500SOL    HW117252   2.119   3.266   6.594
 5500SOL    HW217253   2.255   3.355   6.590
 5501SOL     OW17254   3.322   3.367   6.925
 5501SOL    HW117255   3.346   3.461   6.951
 5501SOL    HW217256   3.306   3.313   7.007
 5502SOL     OW17257   3.465   2.309   6.323
 5502SOL    HW117258   3.391   2.355   6.273
 5502SOL    HW217259   3.516   2.377   6.376
 5503SOL     OW17260   2.093   3.575   6.069
 5503SOL    HW117261   2.127   3.652   6.123
 5503SOL    HW217262   2.137   3.575   5.979
 5504SOL     OW17263   2.989   3.203   7.276
 5504SOL    HW117264   3.036   3.203   7.364
 5504SOL    HW217265   2.941   3.116   7.265
 5505SOL     OW17266   2.092   3.296   6.124
 5505SOL    HW117267   2.066   3.392   6.124
 5505SOL    HW217268   2.021   3.242   6.169
 5506SOL     OW17269   2.102   2.953   6.472
 5506SOL    HW117270   2.116   2.869   6.524
 5506SOL    HW217271   2.047   3.017   6.527
 5507SOL     OW17272   2.482   3.648   7.025
 5507SOL    HW117273   2.390   3.631   7.060
 5507SOL    HW217274   2.510   3.740   7.051
 5508SOL     OW17275   2.468   2.826   5.709
 5508SOL    HW117276   2.475   2.910   5.655
 5508SOL    HW217277   2.514   2.839   5.797
 5509SOL     OW17278   3.456   1.976   7.066
 5509SOL    HW117279   3.438   2.043   6.994
 5509SOL    HW217280   3.453   2.022   7.155
 5510SOL     OW17281   3.704   3.629   5.945
 5510SOL    HW117282   3.758   3.600   6.025
 5510SOL    HW217283   3.734   3.719   5.916
 5511SOL     OW17284   1.889   3.458   5.703
 5511SOL    HW117285   1.870   3.362   5.724
 5511SOL    HW217286   1.856   3.516   5.778
 5512SOL     OW17287   3.551   2.784   6.198
 5512SOL    HW117288   3.646   2.755   6.206
 5512SOL    HW217289   3.543   2.849   6.123
 5513SOL     OW17290   3.503   2.970   6.018
 5513SOL    HW117291   3.589   2.972   5.966
 5513SOL    HW217292   3.517   3.017   6.106
 5514SOL     OW17293   2.475   3.227   6.312
 5514SOL    HW117294   2.426   3.140   6.321
 5514SOL    HW217295   2.452   3.270   6.225
 5515SOL     OW17296   3.155   3.090   7.009
 5515SOL    HW117297   3.192   3.017   6.951
 5515SOL    HW217298   3.207   3.095   7.094
 5516SOL     OW17299   2.059   2.838   6.850
 5516SOL    HW117300   2.148   2.793   6.836
 5516SOL    HW217301   1.986   2.773   6.831
 5517SOL     OW17302   3.387   2.861   5.776
 5517SOL    HW117303   3.324   2.785   5.789
 5517SOL    HW217304   3.435   2.879   5.862
 5518SOL     OW17305   3.049   3.654   7.202
 5518SOL    HW117306   3.073   3.714   7.126
 5518SOL    HW217307   3.056   3.559   7.172
 5519SOL     OW17308   3.328   3.279   6.539
 5519SOL    HW117309   3.269   3.285   6.619
 5519SOL    HW217310   3.313   3.191   6.493
 5520SOL     OW17311   3.529   3.576   6.158
 5520SOL    HW117312   3.488   3.553   6.070
 5520SOL    HW217313   3.511   3.502   6.223
 5521SOL     OW17314   2.460   2.591   5.856
 5521SOL    HW117315   2.484   2.660   5.788
 5521SOL    HW217316   2.382   2.624   5.910
 5522SOL     OW17317   3.143   2.207   6.530
 5522SOL    HW117318   3.057   2.157   6.517
 5522SOL    HW217319   3.205   2.153   6.586
 5523SOL     OW17320   3.438   3.524   5.893
 5523SOL    HW117321   3.527   3.570   5.896
 5523SOL    HW217322   3.417   3.500   5.798
 5524SOL     OW17323   3.256   2.331   7.260
 5524SOL    HW117324   3.236   2.374   7.348
 5524SOL    HW217325   3.334   2.269   7.269
 5525SOL     OW17326   2.835   2.752   7.158
 5525SOL    HW117327   2.881   2.668   7.129
 5525SOL    HW217328   2.779   2.786   7.083
 5526SOL     OW17329   2.853   2.272   6.828
 5526SOL    HW117330   2.776   2.306   6.882
 5526SOL    HW217331   2.819   2.221   6.749
 5527SOL     OW17332   2.903   2.563   6.015
 5527SOL    HW117333   2.929   2.559   6.111
 5527SOL    HW217334   2.818   2.512   6.001
 5528SOL     OW17335   1.992   3.683   7.157
 5528SOL    HW117336   1.982   3.668   7.256
 5528SOL    HW217337   1.906   3.719   7.121
 5529SOL     OW17338   2.727   2.210   5.781
 5529SOL    HW117339   2.786   2.273   5.732
 5529SOL    HW217340   2.746   2.116   5.752
 5530SOL     OW17341   3.581   2.447   7.417
 5530SOL    HW117342   3.555   2.536   7.381
 5530SOL    HW217343   3.579   2.379   7.344
 5531SOL     OW17344   3.224   3.006   6.131
 5531SOL    HW117345   3.307   2.977   6.083
 5531SOL    HW217346   3.175   3.073   6.075
 5532SOL     OW17347   2.870   3.318   6.063
 5532SOL    HW117348   2.824   3.390   6.011
 5532SOL    HW217349   2.866   3.338   6.161
 5533SOL     OW17350   2.213   3.663   6.439
 5533SOL    HW117351   2.263   3.577   6.445
 5533SOL    HW217352   2.278   3.740   6.436
 5534SOL     OW17353   3.657   2.928   6.459
 5534SOL    HW117354   3.595   2.913   6.383
 5534SOL    HW217355   3.605   2.939   6.544
 5535SOL     OW17356   3.089   3.412   7.092
 5535SOL    HW117357   3.095   3.335   7.156
 5535SOL    HW217358   3.037   3.386   7.012
 5536SOL     OW17359   2.183   2.805   5.828
 5536SOL    HW117360   2.265   2.844   5.786
 5536SOL    HW217361   2.156   2.723   5.779
 5537SOL     OW17362   3.320   2.597   6.314
 5537SOL    HW117363   3.315   2.532   6.389
 5537SOL    HW217364   3.400   2.656   6.327
 5538SOL     OW17365   2.323   3.128   7.313
 5538SOL    HW117366   2.273   3.129   7.227
 5538SOL    HW217367   2.260   3.110   7.389
 5539SOL     OW17368   2.973   3.638   5.823
 5539SOL    HW117369   2.913   3.576   5.873
 5539SOL    HW217370   3.004   3.594   5.738
 5540SOL     OW17371   3.494   3.239   5.667
 5540SOL    HW117372   3.462   3.333   5.657
 5540SOL    HW217373   3.418   3.176   5.655
 5541SOL     OW17374   2.326   3.605   5.909
 5541SOL    HW117375   2.359   3.644   5.995
 5541SOL    HW217376   2.402   3.598   5.844
 5542SOL     OW17377   3.262   1.969   6.012
 5542SOL    HW117378   3.238   1.932   5.922
 5542SOL    HW217379   3.361   1.985   6.016
 5543SOL     OW17380   2.111   3.647   6.827
 5543SOL    HW117381   2.168   3.582   6.877
 5543SOL    HW217382   2.095   3.614   6.734
 5544SOL     OW17383   2.802   3.560   6.490
 5544SOL    HW117384   2.882   3.503   6.511
 5544SOL    HW217385   2.753   3.520   6.413
 5545SOL     OW17386   3.409   2.084   7.315
 5545SOL    HW117387   3.404   2.121   7.407
 5545SOL    HW217388   3.337   2.015   7.303
 5546SOL     OW17389   2.476   1.984   5.703
 5546SOL    HW117390   2.574   1.962   5.710
 5546SOL    HW217391   2.445   1.967   5.610
 5547SOL     OW17392   2.750   3.376   6.781
 5547SOL    HW117393   2.727   3.351   6.687
 5547SOL    HW217394   2.811   3.307   6.820
 5548SOL     OW17395   3.213   2.452   7.019
 5548SOL    HW117396   3.241   2.409   7.104
 5548SOL    HW217397   3.238   2.548   7.020
 5549SOL     OW17398   2.665   3.264   6.510
 5549SOL    HW117399   2.755   3.278   6.468
 5549SOL    HW217400   2.594   3.266   6.439
 5550SOL     OW17401   2.401   1.926   6.098
 5550SOL    HW117402   2.320   1.927   6.156
 5550SOL    HW217403   2.404   2.009   6.043
 5551SOL     OW17404   3.296   3.050   5.627
 5551SOL    HW117405   3.328   2.974   5.684
 5551SOL    HW217406   3.204   3.077   5.657
 5552SOL     OW17407   2.938   2.545   7.050
 5552SOL    HW117408   2.858   2.484   7.053
 5552SOL    HW217409   3.019   2.492   7.026
 5553SOL     OW17410   3.089   3.432   6.379
 5553SOL    HW117411   3.110   3.506   6.314
 5553SOL    HW217412   3.157   3.432   6.452
 5554SOL     OW17413   2.321   3.014   6.327
 5554SOL    HW117414   2.250   2.987   6.392
 5554SOL    HW217415   2.295   2.986   6.234
 5555SOL     OW17416   3.133   3.659   6.177
 5555SOL    HW117417   3.177   3.723   6.113
 5555SOL    HW217418   3.083   3.711   6.247
 5556SOL     OW17419   2.894   2.411   5.602
 5556SOL    HW117420   2.853   2.493   5.563
 5556SOL    HW217421   2.958   2.437   5.675
 5557SOL     OW17422   1.940   2.418   6.972
 5557SOL    HW117423   2.032   2.417   6.931
 5557SOL    HW217424   1.934   2.492   7.039
 5558SOL     OW17425   3.291   3.035   6.453
 5558SOL    HW117426   3.236   2.951   6.446
 5558SOL    HW217427   3.317   3.064   6.361
 5559SOL     OW17428   3.328   2.452   6.578
 5559SOL    HW117429   3.298   2.357   6.585
 5559SOL    HW217430   3.401   2.468   6.644
 5560SOL     OW17431   3.719   2.695   5.963
 5560SOL    HW117432   3.761   2.631   6.027
 5560SOL    HW217433   3.681   2.644   5.885
 5561SOL     OW17434   2.350   3.247   5.760
 5561SOL    HW117435   2.263   3.232   5.807
 5561SOL    HW217436   2.333   3.273   5.665
 5562SOL     OW17437   3.526   3.142   6.243
 5562SOL    HW117438   3.625   3.150   6.257
 5562SOL    HW217439   3.481   3.226   6.274
 5563SOL     OW17440   3.252   2.437   5.664
 5563SOL    HW117441   3.198   2.416   5.745
 5563SOL    HW217442   3.343   2.396   5.673
 5564SOL     OW17443   3.616   3.085   7.174
 5564SOL    HW117444   3.707   3.046   7.161
 5564SOL    HW217445   3.624   3.181   7.198
 5565SOL     OW17446   2.926   3.209   6.926
 5565SOL    HW117447   2.846   3.186   6.981
 5565SOL    HW217448   3.009   3.183   6.975
 5566SOL     OW17449   3.454   3.491   7.211
 5566SOL    HW117450   3.481   3.525   7.121
 5566SOL    HW217451   3.533   3.453   7.257
 5567SOL     OW17452   2.973   3.057   6.686
 5567SOL    HW117453   2.933   3.101   6.767
 5567SOL    HW217454   2.932   3.094   6.603
 5568SOL     OW17455   3.500   2.961   6.665
 5568SOL    HW117456   3.505   3.042   6.724
 5568SOL    HW217457   3.414   2.963   6.614
 5569SOL     OW17458   2.777   1.951   6.988
 5569SOL    HW117459   2.802   1.931   6.893
 5569SOL    HW217460   2.849   2.007   7.030
 5570SOL     OW17461   2.842   2.978   7.305
 5570SOL    HW117462   2.743   2.984   7.315
 5570SOL    HW217463   2.865   2.898   7.249
 5571SOL     OW17464   2.567   2.912   5.954
 5571SOL    HW117465   2.553   2.919   6.053
 5571SOL    HW217466   2.651   2.861   5.936
 5572SOL     OW17467   2.272   2.675   6.837
 5572SOL    HW117468   2.358   2.687   6.887
 5572SOL    HW217469   2.230   2.588   6.864
 5573SOL     OW17470   3.136   2.248   6.848
 5573SOL    HW117471   3.157   2.322   6.912
 5573SOL    HW217472   3.047   2.265   6.805
 5574SOL     OW17473   1.926   3.426   6.917
 5574SOL    HW117474   1.880   3.508   6.883
 5574SOL    HW217475   2.024   3.445   6.926
 5575SOL     OW17476   2.229   2.962   6.087
 5575SOL    HW117477   2.222   3.045   6.031
 5575SOL    HW217478   2.233   2.882   6.027
 5576SOL     OW17479   3.114   3.210   5.974
 5576SOL    HW117480   3.164   3.287   6.014
 5576SOL    HW217481   3.019   3.212   6.006
 5577SOL     OW17482   3.134   3.307   6.728
 5577SOL    HW117483   3.181   3.320   6.815
 5577SOL    HW217484   3.068   3.233   6.737
 5578SOL     OW17485   3.444   2.501   6.058
 5578SOL    HW117486   3.413   2.562   6.131
 5578SOL    HW217487   3.494   2.553   5.989
 5579SOL     OW17488   2.216   3.372   6.915
 5579SOL    HW117489   2.195   3.328   6.828
 5579SOL    HW217490   2.313   3.398   6.918
 5580SOL     OW17491   2.264   2.613   7.184
 5580SOL    HW117492   2.332   2.668   7.137
 5580SOL    HW217493   2.304   2.525   7.211
 5581SOL     OW17494   3.449   2.641   7.256
 5581SOL    HW117495   3.357   2.679   7.251
 5581SOL    HW217496   3.509   2.688   7.191
 5582SOL     OW17497   2.366   1.912   7.326
 5582SOL    HW117498   2.324   1.855   7.256
 5582SOL    HW217499   2.300   1.981   7.358
 5583SOL     OW17500   2.435   2.732   6.615
 5583SOL    HW117501   2.479   2.821   6.606
 5583SOL    HW217502   2.372   2.732   6.692
 5584SOL     OW17503   3.222   2.724   6.631
 5584SOL    HW117504   3.147   2.724   6.565
 5584SOL    HW217505   3.259   2.632   6.640
 5585SOL     OW17506   3.071   2.387   5.861
 5585SOL    HW117507   3.084   2.303   5.915
 5585SOL    HW217508   3.042   2.461   5.921
 5586SOL     OW17509   1.899   3.172   6.868
 5586SOL    HW117510   1.952   3.123   6.936
 5586SOL    HW217511   1.921   3.270   6.873
 5587SOL     OW17512   3.590   2.797   7.440
 5587SOL    HW117513   3.544   2.790   7.351
 5587SOL    HW217514   3.528   2.841   7.506
 5588SOL     OW17515   3.484   2.229   5.960
 5588SOL    HW117516   3.486   2.153   6.024
 5588SOL    HW217517   3.436   2.306   6.000
 5589SOL     OW17518   2.885   2.628   6.552
 5589SOL    HW117519   2.900   2.649   6.648
 5589SOL    HW217520   2.855   2.533   6.543
 5590SOL     OW17521   2.842   3.435   7.286
 5590SOL    HW117522   2.822   3.479   7.198
 5590SOL    HW217523   2.881   3.344   7.270
 5591SOL     OW17524   3.721   3.380   7.191
 5591SOL    HW117525   3.735   3.407   7.096
 5591SOL    HW217526   3.804   3.402   7.244
 5592SOL     OW17527   3.402   2.136   5.711
 5592SOL    HW117528   3.341   2.061   5.734
 5592SOL    HW217529   3.424   2.188   5.794
 5593SOL     OW17530   3.165   2.700   5.628
 5593SOL    HW117531   3.199   2.607   5.643
 5593SOL    HW217532   3.183   2.727   5.533
 5594SOL     OW17533   2.930   3.195   6.435
 5594SOL    HW117534   2.937   3.111   6.380
 5594SOL    HW217535   2.992   3.264   6.399
 5595SOL     OW17536   3.000   2.242   7.264
 5595SOL    HW117537   2.955   2.305   7.328
 5595SOL    HW217538   3.093   2.273   7.247
 5596SOL     OW17539   3.022   2.069   7.063
 5596SOL    HW117540   3.022   2.133   7.140
 5596SOL    HW217541   3.050   2.117   6.980
 5597SOL     OW17542   1.870   3.188   5.786
 5597SOL    HW117543   1.777   3.209   5.755
 5597SOL    HW217544   1.880   3.089   5.799
 5598SOL     OW17545   1.950   3.663   6.513
 5598SOL    HW117546   1.908   3.577   6.486
 5598SOL    HW217547   2.044   3.666   6.479
 5599SOL     OW17548   2.366   3.430   6.496
 5599SOL    HW117549   2.432   3.504   6.505
 5599SOL    HW217550   2.410   3.351   6.454
 5600SOL     OW17551   2.864   2.658   6.824
 5600SOL    HW117552   2.905   2.626   6.910
 5600SOL    HW217553   2.768   2.631   6.821
 5601SOL     OW17554   3.231   2.812   7.246
 5601SOL    HW117555   3.270   2.901   7.266
 5601SOL    HW217556   3.241   2.792   7.149
 5602SOL     OW17557   2.677   2.434   5.911
 5602SOL    HW117558   2.684   2.345   5.865
 5602SOL    HW217559   2.583   2.468   5.903
 5603SOL     OW17560   3.519   2.466   6.792
 5603SOL    HW117561   3.481   2.397   6.854
 5603SOL    HW217562   3.601   2.430   6.748
 5604SOL     OW17563   2.114   3.426   7.330
 5604SOL    HW117564   2.084   3.483   7.406
 5604SOL    HW217565   2.107   3.329   7.356
 5605SOL     OW17566   2.533   2.326   6.855
 5605SOL    HW117567   2.499   2.237   6.825
 5605SOL    HW217568   2.559   2.380   6.775
 5606SOL     OW17569   2.792   3.540   7.051
 5606SOL    HW117570   2.768   3.522   6.956
 5606SOL    HW217571   2.822   3.634   7.061
 5607SOL     OW17572   2.335   2.362   5.777
 5607SOL    HW117573   2.396   2.442   5.781
 5607SOL    HW217574   2.240   2.393   5.784
 5608SOL     OW17575   2.021   2.999   7.052
 5608SOL    HW117576   2.043   2.938   7.128
 5608SOL    HW217577   2.031   2.950   6.966
 5609SOL     OW17578   3.209   2.921   6.820
 5609SOL    HW117579   3.233   2.858   6.746
 5609SOL    HW217580   3.119   2.961   6.802
 5610SOL     OW17581   3.164   2.717   5.895
 5610SOL    HW117582   3.078   2.686   5.937
 5610SOL    HW217583   3.160   2.703   5.796
 5611SOL     OW17584   3.621   3.609   6.740
 5611SOL    HW117585   3.682   3.639   6.667
 5611SOL    HW217586   3.583   3.520   6.718
 5612SOL     OW17587   3.114   3.593   6.714
 5612SOL    HW117588   3.198   3.598   6.660
 5612SOL    HW217589   3.091   3.497   6.732
 5613SOL     OW17590   1.945   3.120   6.608
 5613SOL    HW117591   1.940   3.119   6.708
 5613SOL    HW217592   1.862   3.079   6.570
 5614SOL     OW17593   2.550   3.524   7.302
 5614SOL    HW117594   2.494   3.605   7.311
 5614SOL    HW217595   2.602   3.528   7.216
 5615SOL     OW17596   3.588   1.997   6.109
 5615SOL    HW117597   3.661   1.980   6.042
 5615SOL    HW217598   3.557   1.910   6.147
 5616SOL     OW17599   3.250   3.435   6.063
 5616SOL    HW117600   3.317   3.447   5.989
 5616SOL    HW217601   3.210   3.524   6.086
 5617SOL     OW17602   1.992   3.656   7.437
 5617SOL    HW117603   1.951   3.582   7.490
 5617SOL    HW217604   2.056   3.707   7.495
 5618SOL     OW17605   3.142   2.789   6.258
 5618SOL    HW117606   3.202   2.708   6.260
 5618SOL    HW217607   3.182   2.858   6.198
 5619SOL     OW17608   2.692   3.135   7.008
 5619SOL    HW117609   2.687   3.168   7.103
 5619SOL    HW217610   2.606   3.154   6.962
 5620SOL     OW17611   2.534   3.478   5.740
 5620SOL    HW117612   2.543   3.488   5.641
 5620SOL    HW217613   2.494   3.389   5.761
 5621SOL     OW17614   3.512   3.582   6.980
 5621SOL    HW117615   3.565   3.592   6.896
 5621SOL    HW217616   3.485   3.672   7.014
 5622SOL     OW17617   3.703   2.037   6.549
 5622SOL    HW117618   3.742   1.952   6.513
 5622SOL    HW217619   3.605   2.039   6.530
 5623SOL     OW17620   3.056   3.474   5.617
 5623SOL    HW117621   3.062   3.381   5.654
 5623SOL    HW217622   2.997   3.474   5.537
 5624SOL     OW17623   2.684   2.864   6.958
 5624SOL    HW117624   2.724   2.863   6.866
 5624SOL    HW217625   2.694   2.956   6.998
 5625SOL     OW17626   2.778   2.772   5.877
 5625SOL    HW117627   2.841   2.810   5.809
 5625SOL    HW217628   2.818   2.689   5.916
 5626SOL     OW17629   3.366   3.469   5.630
 5626SOL    HW117630   3.274   3.506   5.637
 5626SOL    HW217631   3.404   3.489   5.540
 5627SOL     OW17632   2.234   3.150   7.076
 5627SOL    HW117633   2.221   3.243   7.042
 5627SOL    HW217634   2.150   3.098   7.063
 5628SOL     OW17635   3.476   3.154   6.875
 5628SOL    HW117636   3.536   3.157   6.955
 5628SOL    HW217637   3.401   3.218   6.888
 5629SOL     OW17638   2.901   2.960   6.282
 5629SOL    HW117639   2.831   2.913   6.336
 5629SOL    HW217640   2.960   2.892   6.239
 5630SOL     OW17641   2.452   3.349   6.077
 5630SOL    HW117642   2.494   3.291   6.007
 5630SOL    HW217643   2.408   3.428   6.033
 5631SOL     OW17644   3.571   2.247   6.967
 5631SOL    HW117645   3.644   2.316   6.971
 5631SOL    HW217646   3.599   2.172   6.908
 5632SOL     OW17647   2.117   3.210   5.876
 5632SOL    HW117648   2.021   3.211   5.849
 5632SOL    HW217649   2.129   3.263   5.960
 5633SOL     OW17650   1.967   2.875   7.312
 5633SOL    HW117651   1.890   2.842   7.366
 5633SOL    HW217652   2.052   2.845   7.354
 5634SOL     OW17653   2.534   2.065   7.075
 5634SOL    HW117654   2.624   2.049   7.035
 5634SOL    HW217655   2.542   2.070   7.174
 5635SOL     OW17656   1.937   2.207   5.619
 5635SOL    HW117657   1.845   2.179   5.590
 5635SOL    HW217658   1.968   2.284   5.563
 5636SOL     OW17659   3.302   2.718   6.984
 5636SOL    HW117660   3.245   2.770   6.921
 5636SOL    HW217661   3.398   2.730   6.960
 5637SOL     OW17662   3.045   3.197   5.705
 5637SOL    HW117663   2.946   3.186   5.707
 5637SOL    HW217664   3.079   3.212   5.798
 5638SOL     OW17665   2.475   2.704   7.017
 5638SOL    HW117666   2.531   2.785   7.000
 5638SOL    HW217667   2.534   2.624   7.020
 5639SOL     OW17668   3.355   3.629   6.545
 5639SOL    HW117669   3.388   3.693   6.476
 5639SOL    HW217670   3.421   3.623   6.620
 5640SOL     OW17671   3.312   3.082   7.219
 5640SOL    HW117672   3.303   3.072   7.318
 5640SOL    HW217673   3.408   3.075   7.193
 5641SOL     OW17674   2.252   3.603   7.146
 5641SOL    HW117675   2.161   3.644   7.144
 5641SOL    HW217676   2.245   3.509   7.178
 5642SOL     OW17677   3.536   2.745   6.840
 5642SOL    HW117678   3.509   2.656   6.803
 5642SOL    HW217679   3.537   2.813   6.767
 5643SOL     OW17680   3.087   2.187   6.035
 5643SOL    HW117681   3.152   2.113   6.024
 5643SOL    HW217682   3.107   2.237   6.119
 5644SOL     OW17683   3.639   2.204   7.228
 5644SOL    HW117684   3.622   2.235   7.134
 5644SOL    HW217685   3.555   2.167   7.266
 5645SOL     OW17686   3.592   2.796   7.103
 5645SOL    HW117687   3.630   2.887   7.118
 5645SOL    HW217688   3.584   2.779   7.004
 5646SOL     OW17689   2.721   3.236   5.602
 5646SOL    HW117690   2.675   3.251   5.690
 5646SOL    HW217691   2.765   3.321   5.572
 5647SOL     OW17692   2.523   3.652   6.539
 5647SOL    HW117693   2.477   3.740   6.526
 5647SOL    HW217694   2.622   3.664   6.532
 5648SOL     OW17695   2.721   2.818   6.447
 5648SOL    HW117696   2.775   2.749   6.495
 5648SOL    HW217697   2.689   2.887   6.513
 5649SOL     OW17698   2.945   2.846   5.673
 5649SOL    HW117699   2.922   2.899   5.591
 5649SOL    HW217700   3.026   2.790   5.654
 5650SOL     OW17701   3.723   3.431   6.437
 5650SOL    HW117702   3.652   3.419   6.367
 5650SOL    HW217703   3.724   3.352   6.497
 5651SOL     OW17704   2.083   3.176   7.430
 5651SOL    HW117705   2.018   3.103   7.409
 5651SOL    HW217706   2.087   3.190   7.528
 5652SOL     OW17707   1.941   3.102   6.239
 5652SOL    HW117708   1.940   3.055   6.327
 5652SOL    HW217709   2.023   3.074   6.188
 5653SOL     OW17710   2.534   3.253   7.210
 5653SOL    HW117711   2.456   3.203   7.248
 5653SOL    HW217712   2.531   3.348   7.241
 5654SOL     OW17713   3.686   2.054   6.813
 5654SOL    HW117714   3.682   1.964   6.857
 5654SOL    HW217715   3.689   2.043   6.714
 5655SOL     OW17716   3.567   3.349   6.690
 5655SOL    HW117717   3.474   3.324   6.663
 5655SOL    HW217718   3.593   3.299   6.772
 5656SOL     OW17719   2.179   2.409   6.866
 5656SOL    HW117720   2.217   2.350   6.938
 5656SOL    HW217721   2.219   2.383   6.778
 5657SOL     OW17722   2.674   3.448   6.273
 5657SOL    HW117723   2.706   3.458   6.179
 5657SOL    HW217724   2.595   3.386   6.275
 5658SOL     OW17725   3.286   2.076   6.698
 5658SOL    HW117726   3.338   2.011   6.753
 5658SOL    HW217727   3.237   2.139   6.759
 5659SOL     OW17728   2.863   1.896   6.740
 5659SOL    HW117729   2.800   1.824   6.709
 5659SOL    HW217730   2.956   1.860   6.740
 5660SOL     OW17731   2.632   3.192   5.887
 5660SOL    HW117732   2.586   3.105   5.904
 5660SOL    HW217733   2.723   3.189   5.928
 5661SOL     OW17734   2.480   3.429   6.870
 5661SOL    HW117735   2.475   3.511   6.927
 5661SOL    HW217736   2.569   3.426   6.825
 5662SOL     OW17737   3.214   1.914   5.754
 5662SOL    HW117738   3.249   1.873   5.670
 5662SOL    HW217739   3.124   1.876   5.774
 5663SOL     OW17740   3.162   2.315   6.277
 5663SOL    HW117741   3.103   2.395   6.281
 5663SOL    HW217742   3.177   2.280   6.370
 5664SOL     OW17743   3.455   2.083   6.468
 5664SOL    HW117744   3.371   2.082   6.522
 5664SOL    HW217745   3.457   2.166   6.412
 5665SOL     OW17746   1.901   2.939   5.886
 5665SOL    HW117747   2.000   2.928   5.877
 5665SOL    HW217748   1.861   2.853   5.918
 5666SOL     OW17749   2.737   3.508   5.923
 5666SOL    HW117750   2.660   3.473   5.869
 5666SOL    HW217751   2.705   3.579   5.985
 5667SOL     OW17752   1.881   2.230   8.095
 5667SOL    HW117753   1.799   2.273   8.134
 5667SOL    HW217754   1.853   2.157   8.032
 5668SOL     OW17755   2.431   3.137   8.613
 5668SOL    HW117756   2.338   3.130   8.576
 5668SOL    HW217757   2.442   3.226   8.657
 5669SOL     OW17758   3.417   3.373   8.151
 5669SOL    HW117759   3.360   3.357   8.232
 5669SOL    HW217760   3.358   3.383   8.071
 5670SOL     OW17761   2.997   2.565   8.165
 5670SOL    HW117762   3.054   2.643   8.140
 5670SOL    HW217763   2.937   2.591   8.241
 5671SOL     OW17764   3.617   2.469   7.679
 5671SOL    HW117765   3.605   2.456   7.580
 5671SOL    HW217766   3.587   2.388   7.728
 5672SOL     OW17767   2.630   3.006   8.471
 5672SOL    HW117768   2.552   3.023   8.531
 5672SOL    HW217769   2.664   3.093   8.435
 5673SOL     OW17770   2.712   2.660   9.271
 5673SOL    HW117771   2.708   2.736   9.336
 5673SOL    HW217772   2.734   2.696   9.180
 5674SOL     OW17773   2.547   2.874   8.113
 5674SOL    HW117774   2.616   2.858   8.183
 5674SOL    HW217775   2.474   2.931   8.151
 5675SOL     OW17776   2.548   3.023   9.251
 5675SOL    HW117777   2.608   3.102   9.265
 5675SOL    HW217778   2.462   3.054   9.210
 5676SOL     OW17779   2.197   3.297   8.509
 5676SOL    HW117780   2.119   3.266   8.456
 5676SOL    HW217781   2.255   3.355   8.452
 5677SOL     OW17782   3.322   3.367   8.787
 5677SOL    HW117783   3.346   3.461   8.813
 5677SOL    HW217784   3.306   3.313   8.869
 5678SOL     OW17785   3.465   2.309   8.185
 5678SOL    HW117786   3.391   2.355   8.135
 5678SOL    HW217787   3.516   2.377   8.238
 5679SOL     OW17788   2.093   3.575   7.931
 5679SOL    HW117789   2.127   3.652   7.985
 5679SOL    HW217790   2.137   3.575   7.841
 5680SOL     OW17791   2.989   3.203   9.138
 5680SOL    HW117792   3.036   3.203   9.226
 5680SOL    HW217793   2.941   3.116   9.127
 5681SOL     OW17794   2.092   3.296   7.986
 5681SOL    HW117795   2.066   3.392   7.986
 5681SOL    HW217796   2.021   3.242   8.031
 5682SOL     OW17797   2.102   2.953   8.334
 5682SOL    HW117798   2.116   2.869   8.386
 5682SOL    HW217799   2.047   3.017   8.389
 5683SOL     OW17800   2.482   3.648   8.887
 5683SOL    HW117801   2.390   3.631   8.922
 5683SOL    HW217802   2.510   3.740   8.913
 5684SOL     OW17803   2.468   2.826   7.571
 5684SOL    HW117804   2.475   2.910   7.517
 5684SOL    HW217805   2.514   2.839   7.659
 5685SOL     OW17806   3.456   1.976   8.928
 5685SOL    HW117807   3.438   2.043   8.856
 5685SOL    HW217808   3.453   2.022   9.017
 5686SOL     OW17809   1.984   2.505   8.011
 5686SOL    HW117810   1.939   2.417   8.028
 5686SOL    HW217811   1.983   2.559   8.095
 5687SOL     OW17812   3.704   3.629   7.807
 5687SOL    HW117813   3.758   3.600   7.887
 5687SOL    HW217814   3.734   3.719   7.778
 5688SOL     OW17815   1.889   3.458   7.565
 5688SOL    HW117816   1.870   3.362   7.586
 5688SOL    HW217817   1.856   3.516   7.640
 5689SOL     OW17818   3.551   2.784   8.060
 5689SOL    HW117819   3.646   2.755   8.068
 5689SOL    HW217820   3.543   2.849   7.985
 5690SOL     OW17821   3.503   2.970   7.880
 5690SOL    HW117822   3.589   2.972   7.828
 5690SOL    HW217823   3.517   3.017   7.968
 5691SOL     OW17824   1.975   2.599   9.045
 5691SOL    HW117825   2.063   2.586   9.090
 5691SOL    HW217826   1.962   2.696   9.023
 5692SOL     OW17827   2.475   3.227   8.174
 5692SOL    HW117828   2.426   3.140   8.183
 5692SOL    HW217829   2.452   3.270   8.087
 5693SOL     OW17830   3.155   3.090   8.871
 5693SOL    HW117831   3.192   3.017   8.813
 5693SOL    HW217832   3.207   3.095   8.956
 5694SOL     OW17833   2.059   2.838   8.712
 5694SOL    HW117834   2.148   2.793   8.698
 5694SOL    HW217835   1.986   2.773   8.693
 5695SOL     OW17836   3.387   2.861   7.638
 5695SOL    HW117837   3.324   2.785   7.651
 5695SOL    HW217838   3.435   2.879   7.724
 5696SOL     OW17839   3.049   3.654   9.064
 5696SOL    HW117840   3.073   3.714   8.988
 5696SOL    HW217841   3.056   3.559   9.034
 5697SOL     OW17842   3.328   3.279   8.401
 5697SOL    HW117843   3.269   3.285   8.481
 5697SOL    HW217844   3.313   3.191   8.355
 5698SOL     OW17845   3.529   3.576   8.020
 5698SOL    HW117846   3.488   3.553   7.932
 5698SOL    HW217847   3.511   3.502   8.085
 5699SOL     OW17848   3.143   2.207   8.392
 5699SOL    HW117849   3.057   2.157   8.379
 5699SOL    HW217850   3.205   2.153   8.448
 5700SOL     OW17851   3.438   3.524   7.755
 5700SOL    HW117852   3.527   3.570   7.758
 5700SOL    HW217853   3.417   3.500   7.660
 5701SOL     OW17854   2.669   2.467   8.913
 5701SOL    HW117855   2.622   2.464   9.002
 5701SOL    HW217856   2.618   2.412   8.847
 5702SOL     OW17857   3.256   2.331   9.122
 5702SOL    HW117858   3.236   2.374   9.210
 5702SOL    HW217859   3.334   2.269   9.131
 5703SOL     OW17860   2.835   2.752   9.020
 5703SOL    HW117861   2.881   2.668   8.991
 5703SOL    HW217862   2.779   2.786   8.945
 5704SOL     OW17863   2.853   2.272   8.690
 5704SOL    HW117864   2.776   2.306   8.744
 5704SOL    HW217865   2.819   2.221   8.611
 5705SOL     OW17866   2.903   2.563   7.877
 5705SOL    HW117867   2.929   2.559   7.973
 5705SOL    HW217868   2.818   2.512   7.863
 5706SOL     OW17869   1.938   2.673   8.237
 5706SOL    HW117870   2.037   2.661   8.246
 5706SOL    HW217871   1.914   2.768   8.258
 5707SOL     OW17872   1.992   3.683   9.019
 5707SOL    HW117873   1.982   3.668   9.118
 5707SOL    HW217874   1.906   3.719   8.983
 5708SOL     OW17875   3.581   2.447   9.279
 5708SOL    HW117876   3.555   2.536   9.243
 5708SOL    HW217877   3.579   2.379   9.206
 5709SOL     OW17878   3.224   3.006   7.993
 5709SOL    HW117879   3.307   2.977   7.945
 5709SOL    HW217880   3.175   3.073   7.937
 5710SOL     OW17881   2.412   2.058   8.333
 5710SOL    HW117882   2.407   2.053   8.433
 5710SOL    HW217883   2.414   2.154   8.304
 5711SOL     OW17884   2.870   3.318   7.925
 5711SOL    HW117885   2.824   3.390   7.873
 5711SOL    HW217886   2.866   3.338   8.023
 5712SOL     OW17887   2.213   3.663   8.301
 5712SOL    HW117888   2.263   3.577   8.307
 5712SOL    HW217889   2.278   3.740   8.298
 5713SOL     OW17890   3.657   2.928   8.321
 5713SOL    HW117891   3.595   2.913   8.245
 5713SOL    HW217892   3.605   2.939   8.406
 5714SOL     OW17893   3.089   3.412   8.954
 5714SOL    HW117894   3.095   3.335   9.018
 5714SOL    HW217895   3.037   3.386   8.874
 5715SOL     OW17896   3.320   2.597   8.176
 5715SOL    HW117897   3.315   2.532   8.251
 5715SOL    HW217898   3.400   2.656   8.189
 5716SOL     OW17899   2.323   3.128   9.175
 5716SOL    HW117900   2.273   3.129   9.089
 5716SOL    HW217901   2.260   3.110   9.251
 5717SOL     OW17902   2.973   3.638   7.685
 5717SOL    HW117903   2.913   3.576   7.735
 5717SOL    HW217904   3.004   3.594   7.600
 5718SOL     OW17905   3.494   3.239   7.529
 5718SOL    HW117906   3.462   3.333   7.519
 5718SOL    HW217907   3.418   3.176   7.517
 5719SOL     OW17908   2.326   3.605   7.771
 5719SOL    HW117909   2.359   3.644   7.857
 5719SOL    HW217910   2.402   3.598   7.706
 5720SOL     OW17911   3.262   1.969   7.874
 5720SOL    HW117912   3.238   1.932   7.784
 5720SOL    HW217913   3.361   1.985   7.878
 5721SOL     OW17914   2.111   3.647   8.689
 5721SOL    HW117915   2.168   3.582   8.739
 5721SOL    HW217916   2.095   3.614   8.596
 5722SOL     OW17917   2.802   3.560   8.352
 5722SOL    HW117918   2.882   3.503   8.373
 5722SOL    HW217919   2.753   3.520   8.275
 5723SOL     OW17920   2.244   2.562   7.928
 5723SOL    HW117921   2.289   2.472   7.925
 5723SOL    HW217922   2.150   2.551   7.961
 5724SOL     OW17923   3.409   2.084   9.177
 5724SOL    HW117924   3.404   2.121   9.269
 5724SOL    HW217925   3.337   2.015   9.165
 5725SOL     OW17926   2.643   2.126   9.197
 5725SOL    HW117927   2.710   2.065   9.240
 5725SOL    HW217928   2.570   2.145   9.262
 5726SOL     OW17929   2.750   3.376   8.643
 5726SOL    HW117930   2.727   3.351   8.549
 5726SOL    HW217931   2.811   3.307   8.682
 5727SOL     OW17932   3.213   2.452   8.881
 5727SOL    HW117933   3.241   2.409   8.966
 5727SOL    HW217934   3.238   2.548   8.882
 5728SOL     OW17935   2.665   3.264   8.372
 5728SOL    HW117936   2.755   3.278   8.330
 5728SOL    HW217937   2.594   3.266   8.301
 5729SOL     OW17938   2.784   2.365   8.347
 5729SOL    HW117939   2.759   2.356   8.251
 5729SOL    HW217940   2.832   2.283   8.378
 5730SOL     OW17941   2.401   1.926   7.960
 5730SOL    HW117942   2.320   1.927   8.018
 5730SOL    HW217943   2.404   2.009   7.905
 5731SOL     OW17944   3.296   3.050   7.489
 5731SOL    HW117945   3.328   2.974   7.546
 5731SOL    HW217946   3.204   3.077   7.519
 5732SOL     OW17947   2.938   2.545   8.912
 5732SOL    HW117948   2.858   2.484   8.915
 5732SOL    HW217949   3.019   2.492   8.888
 5733SOL     OW17950   3.089   3.432   8.241
 5733SOL    HW117951   3.110   3.506   8.176
 5733SOL    HW217952   3.157   3.432   8.314
 5734SOL     OW17953   2.321   3.014   8.189
 5734SOL    HW117954   2.250   2.987   8.254
 5734SOL    HW217955   2.295   2.986   8.096
 5735SOL     OW17956   3.133   3.659   8.039
 5735SOL    HW117957   3.177   3.723   7.975
 5735SOL    HW217958   3.083   3.711   8.109
 5736SOL     OW17959   2.894   2.411   7.464
 5736SOL    HW117960   2.853   2.493   7.425
 5736SOL    HW217961   2.958   2.437   7.537
 5737SOL     OW17962   1.940   2.418   8.834
 5737SOL    HW117963   2.032   2.417   8.793
 5737SOL    HW217964   1.934   2.492   8.901
 5738SOL     OW17965   2.728   2.316   8.090
 5738SOL    HW117966   2.696   2.388   8.028
 5738SOL    HW217967   2.752   2.235   8.037
 5739SOL     OW17968   2.879   1.901   8.201
 5739SOL    HW117969   2.807   1.906   8.132
 5739SOL    HW217970   2.855   1.832   8.270
 5740SOL     OW17971   3.291   3.035   8.315
 5740SOL    HW117972   3.236   2.951   8.308
 5740SOL    HW217973   3.317   3.064   8.223
 5741SOL     OW17974   3.328   2.452   8.440
 5741SOL    HW117975   3.298   2.357   8.447
 5741SOL    HW217976   3.401   2.468   8.506
 5742SOL     OW17977   3.719   2.695   7.825
 5742SOL    HW117978   3.761   2.631   7.889
 5742SOL    HW217979   3.681   2.644   7.747
 5743SOL     OW17980   2.350   3.247   7.622
 5743SOL    HW117981   2.263   3.232   7.669
 5743SOL    HW217982   2.333   3.273   7.527
 5744SOL     OW17983   3.526   3.142   8.105
 5744SOL    HW117984   3.625   3.150   8.119
 5744SOL    HW217985   3.481   3.226   8.136
 5745SOL     OW17986   3.252   2.437   7.526
 5745SOL    HW117987   3.198   2.416   7.607
 5745SOL    HW217988   3.343   2.396   7.535
 5746SOL     OW17989   3.616   3.085   9.036
 5746SOL    HW117990   3.707   3.046   9.023
 5746SOL    HW217991   3.624   3.181   9.060
 5747SOL     OW17992   2.926   3.209   8.788
 5747SOL    HW117993   2.846   3.186   8.843
 5747SOL    HW217994   3.009   3.183   8.837
 5748SOL     OW17995   3.454   3.491   9.073
 5748SOL    HW117996   3.481   3.525   8.983
 5748SOL    HW217997   3.533   3.453   9.119
 5749SOL     OW17998   2.973   3.057   8.548
 5749SOL    HW117999   2.933   3.101   8.629
 5749SOL    HW218000   2.932   3.094   8.465
 5750SOL     OW18001   3.500   2.961   8.527
 5750SOL    HW118002   3.505   3.042   8.586
 5750SOL    HW218003   3.414   2.963   8.476
 5751SOL     OW18004   2.777   1.951   8.850
 5751SOL    HW118005   2.802   1.931   8.755
 5751SOL    HW218006   2.849   2.007   8.892
 5752SOL     OW18007   2.842   2.978   9.167
 5752SOL    HW118008   2.743   2.984   9.177
 5752SOL    HW218009   2.865   2.898   9.111
 5753SOL     OW18010   2.567   2.912   7.816
 5753SOL    HW118011   2.553   2.919   7.915
 5753SOL    HW218012   2.651   2.861   7.798
 5754SOL     OW18013   2.272   2.675   8.699
 5754SOL    HW118014   2.358   2.687   8.749
 5754SOL    HW218015   2.230   2.588   8.726
 5755SOL     OW18016   3.136   2.248   8.710
 5755SOL    HW118017   3.157   2.322   8.774
 5755SOL    HW218018   3.047   2.265   8.667
 5756SOL     OW18019   1.926   3.426   8.779
 5756SOL    HW118020   1.880   3.508   8.745
 5756SOL    HW218021   2.024   3.445   8.788
 5757SOL     OW18022   2.229   2.962   7.949
 5757SOL    HW118023   2.222   3.045   7.893
 5757SOL    HW218024   2.233   2.882   7.889
 5758SOL     OW18025   2.428   2.399   8.313
 5758SOL    HW118026   2.440   2.465   8.239
 5758SOL    HW218027   2.474   2.433   8.396
 5759SOL     OW18028   3.114   3.210   7.836
 5759SOL    HW118029   3.164   3.287   7.876
 5759SOL    HW218030   3.019   3.212   7.868
 5760SOL     OW18031   3.134   3.307   8.590
 5760SOL    HW118032   3.181   3.320   8.677
 5760SOL    HW218033   3.068   3.233   8.599
 5761SOL     OW18034   3.444   2.501   7.920
 5761SOL    HW118035   3.413   2.562   7.993
 5761SOL    HW218036   3.494   2.553   7.851
 5762SOL     OW18037   2.216   3.372   8.777
 5762SOL    HW118038   2.195   3.328   8.690
 5762SOL    HW218039   2.313   3.398   8.780
 5763SOL     OW18040   2.264   2.613   9.046
 5763SOL    HW118041   2.332   2.668   8.999
 5763SOL    HW218042   2.304   2.525   9.073
 5764SOL     OW18043   3.449   2.641   9.118
 5764SOL    HW118044   3.357   2.679   9.113
 5764SOL    HW218045   3.509   2.688   9.053
 5765SOL     OW18046   2.875   1.967   9.218
 5765SOL    HW118047   2.881   2.052   9.166
 5765SOL    HW218048   2.907   1.891   9.161
 5766SOL     OW18049   2.366   1.912   9.188
 5766SOL    HW118050   2.324   1.855   9.118
 5766SOL    HW218051   2.300   1.981   9.220
 5767SOL     OW18052   2.435   2.732   8.477
 5767SOL    HW118053   2.479   2.821   8.468
 5767SOL    HW218054   2.372   2.732   8.554
 5768SOL     OW18055   3.222   2.724   8.493
 5768SOL    HW118056   3.147   2.724   8.427
 5768SOL    HW218057   3.259   2.632   8.502
 5769SOL     OW18058   3.071   2.387   7.723
 5769SOL    HW118059   3.084   2.303   7.777
 5769SOL    HW218060   3.042   2.461   7.783
 5770SOL     OW18061   1.899   3.172   8.730
 5770SOL    HW118062   1.952   3.123   8.798
 5770SOL    HW218063   1.921   3.270   8.735
 5771SOL     OW18064   2.594   2.496   8.512
 5771SOL    HW118065   2.653   2.470   8.436
 5771SOL    HW218066   2.566   2.592   8.501
 5772SOL     OW18067   3.590   2.797   9.302
 5772SOL    HW118068   3.544   2.790   9.213
 5772SOL    HW218069   3.528   2.841   9.368
 5773SOL     OW18070   3.484   2.229   7.822
 5773SOL    HW118071   3.486   2.153   7.886
 5773SOL    HW218072   3.436   2.306   7.862
 5774SOL     OW18073   2.885   2.628   8.414
 5774SOL    HW118074   2.900   2.649   8.510
 5774SOL    HW218075   2.855   2.533   8.405
 5775SOL     OW18076   2.842   3.435   9.148
 5775SOL    HW118077   2.822   3.479   9.060
 5775SOL    HW218078   2.881   3.344   9.132
 5776SOL     OW18079   3.721   3.380   9.053
 5776SOL    HW118080   3.735   3.407   8.958
 5776SOL    HW218081   3.804   3.402   9.106
 5777SOL     OW18082   2.212   2.760   9.252
 5777SOL    HW118083   2.288   2.804   9.300
 5777SOL    HW218084   2.247   2.713   9.170
 5778SOL     OW18085   3.402   2.136   7.573
 5778SOL    HW118086   3.341   2.061   7.596
 5778SOL    HW218087   3.424   2.188   7.656
 5779SOL     OW18088   3.165   2.700   7.490
 5779SOL    HW118089   3.199   2.607   7.505
 5779SOL    HW218090   3.183   2.727   7.395
 5780SOL     OW18091   2.930   3.195   8.297
 5780SOL    HW118092   2.937   3.111   8.242
 5780SOL    HW218093   2.992   3.264   8.261
 5781SOL     OW18094   2.181   2.672   8.397
 5781SOL    HW118095   2.274   2.708   8.402
 5781SOL    HW218096   2.175   2.587   8.449
 5782SOL     OW18097   3.000   2.242   9.126
 5782SOL    HW118098   2.955   2.305   9.190
 5782SOL    HW218099   3.093   2.273   9.109
 5783SOL     OW18100   3.022   2.069   8.925
 5783SOL    HW118101   3.022   2.133   9.002
 5783SOL    HW218102   3.050   2.117   8.842
 5784SOL     OW18103   1.870   3.188   7.648
 5784SOL    HW118104   1.777   3.209   7.617
 5784SOL    HW218105   1.880   3.089   7.661
 5785SOL     OW18106   1.950   3.663   8.375
 5785SOL    HW118107   1.908   3.577   8.348
 5785SOL    HW218108   2.044   3.666   8.341
 5786SOL     OW18109   2.366   3.430   8.358
 5786SOL    HW118110   2.432   3.504   8.367
 5786SOL    HW218111   2.410   3.351   8.316
 5787SOL     OW18112   2.864   2.658   8.686
 5787SOL    HW118113   2.905   2.626   8.772
 5787SOL    HW218114   2.768   2.631   8.683
 5788SOL     OW18115   1.902   2.406   8.562
 5788SOL    HW118116   1.987   2.373   8.521
 5788SOL    HW218117   1.915   2.421   8.660
 5789SOL     OW18118   3.231   2.812   9.108
 5789SOL    HW118119   3.270   2.901   9.128
 5789SOL    HW218120   3.241   2.792   9.011
 5790SOL     OW18121   3.519   2.466   8.654
 5790SOL    HW118122   3.481   2.397   8.716
 5790SOL    HW218123   3.601   2.430   8.610
 5791SOL     OW18124   2.114   3.426   9.192
 5791SOL    HW118125   2.084   3.483   9.268
 5791SOL    HW218126   2.107   3.329   9.218
 5792SOL     OW18127   2.533   2.326   8.717
 5792SOL    HW118128   2.499   2.237   8.687
 5792SOL    HW218129   2.559   2.380   8.637
 5793SOL     OW18130   2.792   3.540   8.913
 5793SOL    HW118131   2.768   3.522   8.818
 5793SOL    HW218132   2.822   3.634   8.923
 5794SOL     OW18133   2.021   2.999   8.914
 5794SOL    HW118134   2.043   2.938   8.990
 5794SOL    HW218135   2.031   2.950   8.828
 5795SOL     OW18136   3.209   2.921   8.682
 5795SOL    HW118137   3.233   2.858   8.608
 5795SOL    HW218138   3.119   2.961   8.664
 5796SOL     OW18139   3.164   2.717   7.757
 5796SOL    HW118140   3.078   2.686   7.799
 5796SOL    HW218141   3.160   2.703   7.658
 5797SOL     OW18142   3.621   3.609   8.602
 5797SOL    HW118143   3.682   3.639   8.529
 5797SOL    HW218144   3.583   3.520   8.580
 5798SOL     OW18145   3.114   3.593   8.576
 5798SOL    HW118146   3.198   3.598   8.522
 5798SOL    HW218147   3.091   3.497   8.594
 5799SOL     OW18148   1.945   3.120   8.470
 5799SOL    HW118149   1.940   3.119   8.570
 5799SOL    HW218150   1.862   3.079   8.432
 5800SOL     OW18151   2.550   3.524   9.164
 5800SOL    HW118152   2.494   3.605   9.173
 5800SOL    HW218153   2.602   3.528   9.078
 5801SOL     OW18154   3.588   1.997   7.971
 5801SOL    HW118155   3.661   1.980   7.904
 5801SOL    HW218156   3.557   1.910   8.009
 5802SOL     OW18157   3.250   3.435   7.925
 5802SOL    HW118158   3.317   3.447   7.851
 5802SOL    HW218159   3.210   3.524   7.948
 5803SOL     OW18160   1.992   3.656   9.299
 5803SOL    HW118161   1.951   3.582   9.352
 5803SOL    HW218162   2.056   3.707   9.357
 5804SOL     OW18163   3.142   2.789   8.120
 5804SOL    HW118164   3.202   2.708   8.122
 5804SOL    HW218165   3.182   2.858   8.060
 5805SOL     OW18166   2.692   3.135   8.870
 5805SOL    HW118167   2.687   3.168   8.965
 5805SOL    HW218168   2.606   3.154   8.824
 5806SOL     OW18169   2.534   3.478   7.602
 5806SOL    HW118170   2.543   3.488   7.503
 5806SOL    HW218171   2.494   3.389   7.623
 5807SOL     OW18172   3.512   3.582   8.842
 5807SOL    HW118173   3.565   3.592   8.758
 5807SOL    HW218174   3.485   3.672   8.876
 5808SOL     OW18175   3.703   2.037   8.411
 5808SOL    HW118176   3.742   1.952   8.375
 5808SOL    HW218177   3.605   2.039   8.392
 5809SOL     OW18178   3.056   3.474   7.479
 5809SOL    HW118179   3.062   3.381   7.516
 5809SOL    HW218180   2.997   3.474   7.399
 5810SOL     OW18181   2.684   2.864   8.820
 5810SOL    HW118182   2.724   2.863   8.728
 5810SOL    HW218183   2.694   2.956   8.860
 5811SOL     OW18184   2.778   2.772   7.739
 5811SOL    HW118185   2.841   2.810   7.671
 5811SOL    HW218186   2.818   2.689   7.778
 5812SOL     OW18187   3.366   3.469   7.492
 5812SOL    HW118188   3.274   3.506   7.499
 5812SOL    HW218189   3.404   3.489   7.402
 5813SOL     OW18190   2.234   3.150   8.938
 5813SOL    HW118191   2.221   3.243   8.904
 5813SOL    HW218192   2.150   3.098   8.925
 5814SOL     OW18193   3.476   3.154   8.737
 5814SOL    HW118194   3.536   3.157   8.817
 5814SOL    HW218195   3.401   3.218   8.750
 5815SOL     OW18196   2.901   2.960   8.144
 5815SOL    HW118197   2.831   2.913   8.198
 5815SOL    HW218198   2.960   2.892   8.101
 5816SOL     OW18199   2.876   2.098   8.419
 5816SOL    HW118200   2.868   2.062   8.326
 5816SOL    HW218201   2.874   2.022   8.484
 5817SOL     OW18202   2.452   3.349   7.939
 5817SOL    HW118203   2.494   3.291   7.869
 5817SOL    HW218204   2.408   3.428   7.895
 5818SOL     OW18205   3.571   2.247   8.829
 5818SOL    HW118206   3.644   2.316   8.833
 5818SOL    HW218207   3.599   2.172   8.770
 5819SOL     OW18208   2.117   3.210   7.738
 5819SOL    HW118209   2.021   3.211   7.711
 5819SOL    HW218210   2.129   3.263   7.822
 5820SOL     OW18211   1.967   2.875   9.174
 5820SOL    HW118212   1.890   2.842   9.228
 5820SOL    HW218213   2.052   2.845   9.216
 5821SOL     OW18214   2.534   2.065   8.937
 5821SOL    HW118215   2.624   2.049   8.897
 5821SOL    HW218216   2.542   2.070   9.036
 5822SOL     OW18217   1.937   2.207   7.481
 5822SOL    HW118218   1.845   2.179   7.452
 5822SOL    HW218219   1.968   2.284   7.425
 5823SOL     OW18220   3.302   2.718   8.846
 5823SOL    HW118221   3.245   2.770   8.783
 5823SOL    HW218222   3.398   2.730   8.822
 5824SOL     OW18223   3.045   3.197   7.567
 5824SOL    HW118224   2.946   3.186   7.569
 5824SOL    HW218225   3.079   3.212   7.660
 5825SOL     OW18226   2.475   2.704   8.879
 5825SOL    HW118227   2.531   2.785   8.862
 5825SOL    HW218228   2.534   2.624   8.882
 5826SOL     OW18229   3.355   3.629   8.407
 5826SOL    HW118230   3.388   3.693   8.338
 5826SOL    HW218231   3.421   3.623   8.482
 5827SOL     OW18232   2.578   2.427   9.156
 5827SOL    HW118233   2.597   2.492   9.230
 5827SOL    HW218234   2.638   2.347   9.165
 5828SOL     OW18235   3.312   3.082   9.081
 5828SOL    HW118236   3.303   3.072   9.180
 5828SOL    HW218237   3.408   3.075   9.055
 5829SOL     OW18238   2.252   3.603   9.008
 5829SOL    HW118239   2.161   3.644   9.006
 5829SOL    HW218240   2.245   3.509   9.040
 5830SOL     OW18241   3.536   2.745   8.702
 5830SOL    HW118242   3.509   2.656   8.665
 5830SOL    HW218243   3.537   2.813   8.629
 5831SOL     OW18244   3.087   2.187   7.897
 5831SOL    HW118245   3.152   2.113   7.886
 5831SOL    HW218246   3.107   2.237   7.981
 5832SOL     OW18247   2.456   2.607   8.100
 5832SOL    HW118248   2.506   2.692   8.081
 5832SOL    HW218249   2.368   2.609   8.052
 5833SOL     OW18250   3.639   2.204   9.090
 5833SOL    HW118251   3.622   2.235   8.996
 5833SOL    HW218252   3.555   2.167   9.128
 5834SOL     OW18253   3.592   2.796   8.965
 5834SOL    HW118254   3.630   2.887   8.980
 5834SOL    HW218255   3.584   2.779   8.866
 5835SOL     OW18256   2.721   3.236   7.464
 5835SOL    HW118257   2.675   3.251   7.552
 5835SOL    HW218258   2.765   3.321   7.434
 5836SOL     OW18259   2.523   3.652   8.401
 5836SOL    HW118260   2.477   3.740   8.388
 5836SOL    HW218261   2.622   3.664   8.394
 5837SOL     OW18262   2.721   2.818   8.309
 5837SOL    HW118263   2.775   2.749   8.357
 5837SOL    HW218264   2.689   2.887   8.375
 5838SOL     OW18265   2.945   2.846   7.535
 5838SOL    HW118266   2.922   2.899   7.453
 5838SOL    HW218267   3.026   2.790   7.516
 5839SOL     OW18268   3.723   3.431   8.299
 5839SOL    HW118269   3.652   3.419   8.229
 5839SOL    HW218270   3.724   3.352   8.359
 5840SOL     OW18271   2.083   3.176   9.292
 5840SOL    HW118272   2.018   3.103   9.271
 5840SOL    HW218273   2.087   3.190   9.390
 5841SOL     OW18274   1.941   3.102   8.101
 5841SOL    HW118275   1.940   3.055   8.189
 5841SOL    HW218276   2.023   3.074   8.050
 5842SOL     OW18277   2.534   3.253   9.072
 5842SOL    HW118278   2.456   3.203   9.110
 5842SOL    HW218279   2.531   3.348   9.103
 5843SOL     OW18280   3.686   2.054   8.675
 5843SOL    HW118281   3.682   1.964   8.719
 5843SOL    HW218282   3.689   2.043   8.576
 5844SOL     OW18283   3.567   3.349   8.552
 5844SOL    HW118284   3.474   3.324   8.525
 5844SOL    HW218285   3.593   3.299   8.634
 5845SOL     OW18286   2.179   2.409   8.728
 5845SOL    HW118287   2.217   2.350   8.800
 5845SOL    HW218288   2.219   2.383   8.640
 5846SOL     OW18289   2.674   3.448   8.135
 5846SOL    HW118290   2.706   3.458   8.041
 5846SOL    HW218291   2.595   3.386   8.137
 5847SOL     OW18292   3.286   2.076   8.560
 5847SOL    HW118293   3.338   2.011   8.615
 5847SOL    HW218294   3.237   2.139   8.621
 5848SOL     OW18295   2.863   1.896   8.602
 5848SOL    HW118296   2.800   1.824   8.571
 5848SOL    HW218297   2.956   1.860   8.602
 5849SOL     OW18298   2.632   3.192   7.749
 5849SOL    HW118299   2.586   3.105   7.766
 5849SOL    HW218300   2.723   3.189   7.790
 5850SOL     OW18301   2.480   3.429   8.732
 5850SOL    HW118302   2.475   3.511   8.789
 5850SOL    HW218303   2.569   3.426   8.687
 5851SOL     OW18304   3.214   1.914   7.616
 5851SOL    HW118305   3.249   1.873   7.532
 5851SOL    HW218306   3.124   1.876   7.636
 5852SOL     OW18307   3.162   2.315   8.139
 5852SOL    HW118308   3.103   2.395   8.143
 5852SOL    HW218309   3.177   2.280   8.232
 5853SOL     OW18310   3.455   2.083   8.330
 5853SOL    HW118311   3.371   2.082   8.384
 5853SOL    HW218312   3.457   2.166   8.274
 5854SOL     OW18313   1.901   2.939   7.748
 5854SOL    HW118314   2.000   2.928   7.739
 5854SOL    HW218315   1.861   2.853   7.780
 5855SOL     OW18316   2.737   3.508   7.785
 5855SOL    HW118317   2.660   3.473   7.731
 5855SOL    HW218318   2.705   3.579   7.847
 5856SOL     OW18319   2.092   2.490   9.423
 5856SOL    HW118320   1.999   2.488   9.460
 5856SOL    HW218321   2.093   2.451   9.331
 5857SOL     OW18322   1.881   2.230   9.957
 5857SOL    HW118323   1.799   2.273   9.996
 5857SOL    HW218324   1.853   2.157   9.894
 5858SOL     OW18325   2.431   3.137  10.475
 5858SOL    HW118326   2.338   3.130  10.438
 5858SOL    HW218327   2.442   3.226  10.519
 5859SOL     OW18328   3.417   3.373  10.013
 5859SOL    HW118329   3.360   3.357  10.094
 5859SOL    HW218330   3.358   3.383   9.933
 5860SOL     OW18331   2.997   2.565  10.027
 5860SOL    HW118332   3.054   2.643  10.002
 5860SOL    HW218333   2.937   2.591  10.103
 5861SOL     OW18334   3.617   2.469   9.541
 5861SOL    HW118335   3.605   2.456   9.442
 5861SOL    HW218336   3.587   2.388   9.590
 5862SOL     OW18337   2.630   3.006  10.333
 5862SOL    HW118338   2.552   3.023  10.393
 5862SOL    HW218339   2.664   3.093  10.297
 5863SOL     OW18340   2.712   2.660  11.133
 5863SOL    HW118341   2.708   2.736  11.198
 5863SOL    HW218342   2.734   2.696  11.042
 5864SOL     OW18343   2.547   2.874   9.975
 5864SOL    HW118344   2.616   2.858  10.045
 5864SOL    HW218345   2.474   2.931  10.013
 5865SOL     OW18346   2.548   3.023  11.113
 5865SOL    HW118347   2.608   3.102  11.127
 5865SOL    HW218348   2.462   3.054  11.072
 5866SOL     OW18349   2.197   3.297  10.371
 5866SOL    HW118350   2.119   3.266  10.318
 5866SOL    HW218351   2.255   3.355  10.314
 5867SOL     OW18352   3.322   3.367  10.649
 5867SOL    HW118353   3.346   3.461  10.675
 5867SOL    HW218354   3.306   3.313  10.731
 5868SOL     OW18355   3.465   2.309  10.047
 5868SOL    HW118356   3.391   2.355   9.997
 5868SOL    HW218357   3.516   2.377  10.100
 5869SOL     OW18358   2.093   3.575   9.793
 5869SOL    HW118359   2.127   3.652   9.847
 5869SOL    HW218360   2.137   3.575   9.703
 5870SOL     OW18361   2.989   3.203  11.000
 5870SOL    HW118362   3.036   3.203  11.088
 5870SOL    HW218363   2.941   3.116  10.989
 5871SOL     OW18364   2.092   3.296   9.848
 5871SOL    HW118365   2.066   3.392   9.848
 5871SOL    HW218366   2.021   3.242   9.893
 5872SOL     OW18367   2.102   2.953  10.196
 5872SOL    HW118368   2.116   2.869  10.248
 5872SOL    HW218369   2.047   3.017  10.251
 5873SOL     OW18370   2.482   3.648  10.749
 5873SOL    HW118371   2.390   3.631  10.784
 5873SOL    HW218372   2.510   3.740  10.775
 5874SOL     OW18373   2.468   2.826   9.433
 5874SOL    HW118374   2.475   2.910   9.379
 5874SOL    HW218375   2.514   2.839   9.521
 5875SOL     OW18376   3.456   1.976  10.790
 5875SOL    HW118377   3.438   2.043  10.718
 5875SOL    HW218378   3.453   2.022  10.879
 5876SOL     OW18379   1.984   2.505   9.873
 5876SOL    HW118380   1.939   2.417   9.890
 5876SOL    HW218381   1.983   2.559   9.957
 5877SOL     OW18382   3.704   3.629   9.669
 5877SOL    HW118383   3.758   3.600   9.749
 5877SOL    HW218384   3.734   3.719   9.640
 5878SOL     OW18385   1.889   3.458   9.427
 5878SOL    HW118386   1.870   3.362   9.448
 5878SOL    HW218387   1.856   3.516   9.502
 5879SOL     OW18388   3.551   2.784   9.922
 5879SOL    HW118389   3.646   2.755   9.930
 5879SOL    HW218390   3.543   2.849   9.847
 5880SOL     OW18391   3.503   2.970   9.742
 5880SOL    HW118392   3.589   2.972   9.690
 5880SOL    HW218393   3.517   3.017   9.830
 5881SOL     OW18394   1.975   2.599  10.907
 5881SOL    HW118395   2.063   2.586  10.952
 5881SOL    HW218396   1.962   2.696  10.885
 5882SOL     OW18397   2.475   3.227  10.036
 5882SOL    HW118398   2.426   3.140  10.045
 5882SOL    HW218399   2.452   3.270   9.949
 5883SOL     OW18400   3.155   3.090  10.733
 5883SOL    HW118401   3.192   3.017  10.675
 5883SOL    HW218402   3.207   3.095  10.818
 5884SOL     OW18403   2.671   1.866   9.812
 5884SOL    HW118404   2.711   1.957   9.803
 5884SOL    HW218405   2.571   1.874   9.818
 5885SOL     OW18406   2.059   2.838  10.574
 5885SOL    HW118407   2.148   2.793  10.560
 5885SOL    HW218408   1.986   2.773  10.555
 5886SOL     OW18409   3.387   2.861   9.500
 5886SOL    HW118410   3.324   2.785   9.513
 5886SOL    HW218411   3.435   2.879   9.586
 5887SOL     OW18412   3.049   3.654  10.926
 5887SOL    HW118413   3.073   3.714  10.850
 5887SOL    HW218414   3.056   3.559  10.896
 5888SOL     OW18415   3.328   3.279  10.263
 5888SOL    HW118416   3.269   3.285  10.343
 5888SOL    HW218417   3.313   3.191  10.217
 5889SOL     OW18418   3.529   3.576   9.882
 5889SOL    HW118419   3.488   3.553   9.794
 5889SOL    HW218420   3.511   3.502   9.947
 5890SOL     OW18421   2.460   2.591   9.580
 5890SOL    HW118422   2.484   2.660   9.512
 5890SOL    HW218423   2.382   2.624   9.634
 5891SOL     OW18424   3.143   2.207  10.254
 5891SOL    HW118425   3.057   2.157  10.241
 5891SOL    HW218426   3.205   2.153  10.310
 5892SOL     OW18427   3.438   3.524   9.617
 5892SOL    HW118428   3.527   3.570   9.620
 5892SOL    HW218429   3.417   3.500   9.522
 5893SOL     OW18430   2.669   2.467  10.775
 5893SOL    HW118431   2.622   2.464  10.864
 5893SOL    HW218432   2.618   2.412  10.709
 5894SOL     OW18433   3.256   2.331  10.984
 5894SOL    HW118434   3.236   2.374  11.072
 5894SOL    HW218435   3.334   2.269  10.993
 5895SOL     OW18436   2.835   2.752  10.882
 5895SOL    HW118437   2.881   2.668  10.853
 5895SOL    HW218438   2.779   2.786  10.807
 5896SOL     OW18439   2.853   2.272  10.552
 5896SOL    HW118440   2.776   2.306  10.606
 5896SOL    HW218441   2.819   2.221  10.473
 5897SOL     OW18442   2.903   2.563   9.739
 5897SOL    HW118443   2.929   2.559   9.835
 5897SOL    HW218444   2.818   2.512   9.725
 5898SOL     OW18445   1.938   2.673  10.099
 5898SOL    HW118446   2.037   2.661  10.108
 5898SOL    HW218447   1.914   2.768  10.120
 5899SOL     OW18448   1.992   3.683  10.881
 5899SOL    HW118449   1.982   3.668  10.980
 5899SOL    HW218450   1.906   3.719  10.845
 5900SOL     OW18451   2.727   2.210   9.505
 5900SOL    HW118452   2.786   2.273   9.456
 5900SOL    HW218453   2.746   2.116   9.476
 5901SOL     OW18454   3.581   2.447  11.141
 5901SOL    HW118455   3.555   2.536  11.105
 5901SOL    HW218456   3.579   2.379  11.068
 5902SOL     OW18457   3.224   3.006   9.855
 5902SOL    HW118458   3.307   2.977   9.807
 5902SOL    HW218459   3.175   3.073   9.799
 5903SOL     OW18460   2.412   2.058  10.195
 5903SOL    HW118461   2.407   2.053  10.295
 5903SOL    HW218462   2.414   2.154  10.166
 5904SOL     OW18463   2.870   3.318   9.787
 5904SOL    HW118464   2.824   3.390   9.735
 5904SOL    HW218465   2.866   3.338   9.885
 5905SOL     OW18466   2.213   3.663  10.163
 5905SOL    HW118467   2.263   3.577  10.169
 5905SOL    HW218468   2.278   3.740  10.160
 5906SOL     OW18469   3.657   2.928  10.183
 5906SOL    HW118470   3.595   2.913  10.107
 5906SOL    HW218471   3.605   2.939  10.268
 5907SOL     OW18472   3.089   3.412  10.816
 5907SOL    HW118473   3.095   3.335  10.880
 5907SOL    HW218474   3.037   3.386  10.736
 5908SOL     OW18475   2.183   2.805   9.552
 5908SOL    HW118476   2.265   2.844   9.510
 5908SOL    HW218477   2.156   2.723   9.503
 5909SOL     OW18478   3.320   2.597  10.038
 5909SOL    HW118479   3.315   2.532  10.113
 5909SOL    HW218480   3.400   2.656  10.051
 5910SOL     OW18481   2.323   3.128  11.037
 5910SOL    HW118482   2.273   3.129  10.951
 5910SOL    HW218483   2.260   3.110  11.113
 5911SOL     OW18484   2.973   3.638   9.547
 5911SOL    HW118485   2.913   3.576   9.597
 5911SOL    HW218486   3.004   3.594   9.462
 5912SOL     OW18487   3.494   3.239   9.391
 5912SOL    HW118488   3.462   3.333   9.381
 5912SOL    HW218489   3.418   3.176   9.379
 5913SOL     OW18490   2.326   3.605   9.633
 5913SOL    HW118491   2.359   3.644   9.719
 5913SOL    HW218492   2.402   3.598   9.568
 5914SOL     OW18493   3.262   1.969   9.736
 5914SOL    HW118494   3.238   1.932   9.646
 5914SOL    HW218495   3.361   1.985   9.740
 5915SOL     OW18496   2.111   3.647  10.551
 5915SOL    HW118497   2.168   3.582  10.601
 5915SOL    HW218498   2.095   3.614  10.458
 5916SOL     OW18499   2.802   3.560  10.214
 5916SOL    HW118500   2.882   3.503  10.235
 5916SOL    HW218501   2.753   3.520  10.137
 5917SOL     OW18502   2.244   2.562   9.790
 5917SOL    HW118503   2.289   2.472   9.787
 5917SOL    HW218504   2.150   2.551   9.823
 5918SOL     OW18505   3.409   2.084  11.039
 5918SOL    HW118506   3.404   2.121  11.131
 5918SOL    HW218507   3.337   2.015  11.027
 5919SOL     OW18508   2.476   1.984   9.427
 5919SOL    HW118509   2.574   1.962   9.434
 5919SOL    HW218510   2.445   1.967   9.334
 5920SOL     OW18511   2.643   2.126  11.059
 5920SOL    HW118512   2.710   2.065  11.102
 5920SOL    HW218513   2.570   2.145  11.124
 5921SOL     OW18514   2.750   3.376  10.505
 5921SOL    HW118515   2.727   3.351  10.411
 5921SOL    HW218516   2.811   3.307  10.544
 5922SOL     OW18517   3.213   2.452  10.743
 5922SOL    HW118518   3.241   2.409  10.828
 5922SOL    HW218519   3.238   2.548  10.744
 5923SOL     OW18520   2.665   3.264  10.234
 5923SOL    HW118521   2.755   3.278  10.192
 5923SOL    HW218522   2.594   3.266  10.163
 5924SOL     OW18523   2.784   2.365  10.209
 5924SOL    HW118524   2.759   2.356  10.113
 5924SOL    HW218525   2.832   2.283  10.240
 5925SOL     OW18526   2.401   1.926   9.822
 5925SOL    HW118527   2.320   1.927   9.880
 5925SOL    HW218528   2.404   2.009   9.767
 5926SOL     OW18529   3.296   3.050   9.351
 5926SOL    HW118530   3.328   2.974   9.408
 5926SOL    HW218531   3.204   3.077   9.381
 5927SOL     OW18532   2.797   2.098   9.790
 5927SOL    HW118533   2.749   2.139   9.712
 5927SOL    HW218534   2.896   2.096   9.771
 5928SOL     OW18535   2.938   2.545  10.774
 5928SOL    HW118536   2.858   2.484  10.777
 5928SOL    HW218537   3.019   2.492  10.750
 5929SOL     OW18538   3.089   3.432  10.103
 5929SOL    HW118539   3.110   3.506  10.038
 5929SOL    HW218540   3.157   3.432  10.176
 5930SOL     OW18541   2.321   3.014  10.051
 5930SOL    HW118542   2.250   2.987  10.116
 5930SOL    HW218543   2.295   2.986   9.958
 5931SOL     OW18544   3.133   3.659   9.901
 5931SOL    HW118545   3.177   3.723   9.837
 5931SOL    HW218546   3.083   3.711   9.971
 5932SOL     OW18547   2.894   2.411   9.326
 5932SOL    HW118548   2.853   2.493   9.287
 5932SOL    HW218549   2.958   2.437   9.399
 5933SOL     OW18550   1.940   2.418  10.696
 5933SOL    HW118551   2.032   2.417  10.655
 5933SOL    HW218552   1.934   2.492  10.763
 5934SOL     OW18553   2.728   2.316   9.952
 5934SOL    HW118554   2.696   2.388   9.890
 5934SOL    HW218555   2.752   2.235   9.899
 5935SOL     OW18556   2.879   1.901  10.063
 5935SOL    HW118557   2.807   1.906   9.994
 5935SOL    HW218558   2.855   1.832  10.132
 5936SOL     OW18559   3.291   3.035  10.177
 5936SOL    HW118560   3.236   2.951  10.170
 5936SOL    HW218561   3.317   3.064  10.085
 5937SOL     OW18562   3.328   2.452  10.302
 5937SOL    HW118563   3.298   2.357  10.309
 5937SOL    HW218564   3.401   2.468  10.368
 5938SOL     OW18565   3.719   2.695   9.687
 5938SOL    HW118566   3.761   2.631   9.751
 5938SOL    HW218567   3.681   2.644   9.609
 5939SOL     OW18568   2.350   3.247   9.484
 5939SOL    HW118569   2.263   3.232   9.531
 5939SOL    HW218570   2.333   3.273   9.389
 5940SOL     OW18571   3.526   3.142   9.967
 5940SOL    HW118572   3.625   3.150   9.981
 5940SOL    HW218573   3.481   3.226   9.998
 5941SOL     OW18574   3.252   2.437   9.388
 5941SOL    HW118575   3.198   2.416   9.469
 5941SOL    HW218576   3.343   2.396   9.397
 5942SOL     OW18577   3.616   3.085  10.898
 5942SOL    HW118578   3.707   3.046  10.885
 5942SOL    HW218579   3.624   3.181  10.922
 5943SOL     OW18580   2.926   3.209  10.650
 5943SOL    HW118581   2.846   3.186  10.705
 5943SOL    HW218582   3.009   3.183  10.699
 5944SOL     OW18583   3.454   3.491  10.935
 5944SOL    HW118584   3.481   3.525  10.845
 5944SOL    HW218585   3.533   3.453  10.981
 5945SOL     OW18586   2.973   3.057  10.410
 5945SOL    HW118587   2.933   3.101  10.491
 5945SOL    HW218588   2.932   3.094  10.327
 5946SOL     OW18589   3.500   2.961  10.389
 5946SOL    HW118590   3.505   3.042  10.448
 5946SOL    HW218591   3.414   2.963  10.338
 5947SOL     OW18592   2.777   1.951  10.712
 5947SOL    HW118593   2.802   1.931  10.617
 5947SOL    HW218594   2.849   2.007  10.754
 5948SOL     OW18595   2.842   2.978  11.029
 5948SOL    HW118596   2.743   2.984  11.039
 5948SOL    HW218597   2.865   2.898  10.973
 5949SOL     OW18598   2.567   2.912   9.678
 5949SOL    HW118599   2.553   2.919   9.777
 5949SOL    HW218600   2.651   2.861   9.660
 5950SOL     OW18601   2.272   2.675  10.561
 5950SOL    HW118602   2.358   2.687  10.611
 5950SOL    HW218603   2.230   2.588  10.588
 5951SOL     OW18604   3.136   2.248  10.572
 5951SOL    HW118605   3.157   2.322  10.636
 5951SOL    HW218606   3.047   2.265  10.529
 5952SOL     OW18607   1.926   3.426  10.641
 5952SOL    HW118608   1.880   3.508  10.607
 5952SOL    HW218609   2.024   3.445  10.650
 5953SOL     OW18610   2.229   2.962   9.811
 5953SOL    HW118611   2.222   3.045   9.755
 5953SOL    HW218612   2.233   2.882   9.751
 5954SOL     OW18613   2.428   2.399  10.175
 5954SOL    HW118614   2.440   2.465  10.101
 5954SOL    HW218615   2.474   2.433  10.258
 5955SOL     OW18616   3.114   3.210   9.698
 5955SOL    HW118617   3.164   3.287   9.738
 5955SOL    HW218618   3.019   3.212   9.730
 5956SOL     OW18619   3.134   3.307  10.452
 5956SOL    HW118620   3.181   3.320  10.539
 5956SOL    HW218621   3.068   3.233  10.461
 5957SOL     OW18622   3.444   2.501   9.782
 5957SOL    HW118623   3.413   2.562   9.855
 5957SOL    HW218624   3.494   2.553   9.713
 5958SOL     OW18625   2.216   3.372  10.639
 5958SOL    HW118626   2.195   3.328  10.552
 5958SOL    HW218627   2.313   3.398  10.642
 5959SOL     OW18628   2.264   2.613  10.908
 5959SOL    HW118629   2.332   2.668  10.861
 5959SOL    HW218630   2.304   2.525  10.935
 5960SOL     OW18631   3.449   2.641  10.980
 5960SOL    HW118632   3.357   2.679  10.975
 5960SOL    HW218633   3.509   2.688  10.915
 5961SOL     OW18634   2.875   1.967  11.080
 5961SOL    HW118635   2.881   2.052  11.028
 5961SOL    HW218636   2.907   1.891  11.023
 5962SOL     OW18637   2.366   1.912  11.050
 5962SOL    HW118638   2.324   1.855  10.980
 5962SOL    HW218639   2.300   1.981  11.082
 5963SOL     OW18640   2.435   2.732  10.339
 5963SOL    HW118641   2.479   2.821  10.330
 5963SOL    HW218642   2.372   2.732  10.416
 5964SOL     OW18643   3.222   2.724  10.355
 5964SOL    HW118644   3.147   2.724  10.289
 5964SOL    HW218645   3.259   2.632  10.364
 5965SOL     OW18646   3.071   2.387   9.585
 5965SOL    HW118647   3.084   2.303   9.639
 5965SOL    HW218648   3.042   2.461   9.645
 5966SOL     OW18649   1.899   3.172  10.592
 5966SOL    HW118650   1.952   3.123  10.660
 5966SOL    HW218651   1.921   3.270  10.597
 5967SOL     OW18652   2.594   2.496  10.374
 5967SOL    HW118653   2.653   2.470  10.298
 5967SOL    HW218654   2.566   2.592  10.363
 5968SOL     OW18655   3.590   2.797  11.164
 5968SOL    HW118656   3.544   2.790  11.075
 5968SOL    HW218657   3.528   2.841  11.230
 5969SOL     OW18658   3.484   2.229   9.684
 5969SOL    HW118659   3.486   2.153   9.748
 5969SOL    HW218660   3.436   2.306   9.724
 5970SOL     OW18661   2.885   2.628  10.276
 5970SOL    HW118662   2.900   2.649  10.372
 5970SOL    HW218663   2.855   2.533  10.267
 5971SOL     OW18664   2.842   3.435  11.010
 5971SOL    HW118665   2.822   3.479  10.922
 5971SOL    HW218666   2.881   3.344  10.994
 5972SOL     OW18667   3.721   3.380  10.915
 5972SOL    HW118668   3.735   3.407  10.820
 5972SOL    HW218669   3.804   3.402  10.968
 5973SOL     OW18670   2.212   2.760  11.114
 5973SOL    HW118671   2.288   2.804  11.162
 5973SOL    HW218672   2.247   2.713  11.032
 5974SOL     OW18673   3.402   2.136   9.435
 5974SOL    HW118674   3.341   2.061   9.458
 5974SOL    HW218675   3.424   2.188   9.518
 5975SOL     OW18676   3.165   2.700   9.352
 5975SOL    HW118677   3.199   2.607   9.367
 5975SOL    HW218678   3.183   2.727   9.257
 5976SOL     OW18679   2.930   3.195  10.159
 5976SOL    HW118680   2.937   3.111  10.104
 5976SOL    HW218681   2.992   3.264  10.123
 5977SOL     OW18682   2.181   2.672  10.259
 5977SOL    HW118683   2.274   2.708  10.264
 5977SOL    HW218684   2.175   2.587  10.311
 5978SOL     OW18685   3.000   2.242  10.988
 5978SOL    HW118686   2.955   2.305  11.052
 5978SOL    HW218687   3.093   2.273  10.971
 5979SOL     OW18688   3.022   2.069  10.787
 5979SOL    HW118689   3.022   2.133  10.864
 5979SOL    HW218690   3.050   2.117  10.704
 5980SOL     OW18691   1.870   3.188   9.510
 5980SOL    HW118692   1.777   3.209   9.479
 5980SOL    HW218693   1.880   3.089   9.523
 5981SOL     OW18694   1.950   3.663  10.237
 5981SOL    HW118695   1.908   3.577  10.210
 5981SOL    HW218696   2.044   3.666  10.203
 5982SOL     OW18697   2.366   3.430  10.220
 5982SOL    HW118698   2.432   3.504  10.229
 5982SOL    HW218699   2.410   3.351  10.178
 5983SOL     OW18700   2.864   2.658  10.548
 5983SOL    HW118701   2.905   2.626  10.634
 5983SOL    HW218702   2.768   2.631  10.545
 5984SOL     OW18703   1.902   2.406  10.424
 5984SOL    HW118704   1.987   2.373  10.383
 5984SOL    HW218705   1.915   2.421  10.522
 5985SOL     OW18706   3.231   2.812  10.970
 5985SOL    HW118707   3.270   2.901  10.990
 5985SOL    HW218708   3.241   2.792  10.873
 5986SOL     OW18709   2.677   2.434   9.635
 5986SOL    HW118710   2.684   2.345   9.589
 5986SOL    HW218711   2.583   2.468   9.627
 5987SOL     OW18712   3.519   2.466  10.516
 5987SOL    HW118713   3.481   2.397  10.578
 5987SOL    HW218714   3.601   2.430  10.472
 5988SOL     OW18715   2.114   3.426  11.054
 5988SOL    HW118716   2.084   3.483  11.130
 5988SOL    HW218717   2.107   3.329  11.080
 5989SOL     OW18718   2.533   2.326  10.579
 5989SOL    HW118719   2.499   2.237  10.549
 5989SOL    HW218720   2.559   2.380  10.499
 5990SOL     OW18721   2.792   3.540  10.775
 5990SOL    HW118722   2.768   3.522  10.680
 5990SOL    HW218723   2.822   3.634  10.785
 5991SOL     OW18724   2.335   2.362   9.501
 5991SOL    HW118725   2.396   2.442   9.505
 5991SOL    HW218726   2.240   2.393   9.508
 5992SOL     OW18727   2.021   2.999  10.776
 5992SOL    HW118728   2.043   2.938  10.852
 5992SOL    HW218729   2.031   2.950  10.690
 5993SOL     OW18730   3.209   2.921  10.544
 5993SOL    HW118731   3.233   2.858  10.470
 5993SOL    HW218732   3.119   2.961  10.526
 5994SOL     OW18733   3.164   2.717   9.619
 5994SOL    HW118734   3.078   2.686   9.661
 5994SOL    HW218735   3.160   2.703   9.520
 5995SOL     OW18736   3.621   3.609  10.464
 5995SOL    HW118737   3.682   3.639  10.391
 5995SOL    HW218738   3.583   3.520  10.442
 5996SOL     OW18739   3.114   3.593  10.438
 5996SOL    HW118740   3.198   3.598  10.384
 5996SOL    HW218741   3.091   3.497  10.456
 5997SOL     OW18742   1.945   3.120  10.332
 5997SOL    HW118743   1.940   3.119  10.432
 5997SOL    HW218744   1.862   3.079  10.294
 5998SOL     OW18745   2.550   3.524  11.026
 5998SOL    HW118746   2.494   3.605  11.035
 5998SOL    HW218747   2.602   3.528  10.940
 5999SOL     OW18748   3.588   1.997   9.833
 5999SOL    HW118749   3.661   1.980   9.766
 5999SOL    HW218750   3.557   1.910   9.871
 6000SOL     OW18751   3.250   3.435   9.787
 6000SOL    HW118752   3.317   3.447   9.713
 6000SOL    HW218753   3.210   3.524   9.810
 6001SOL     OW18754   1.992   3.656  11.161
 6001SOL    HW118755   1.951   3.582  11.214
 6001SOL    HW218756   2.056   3.707  11.219
 6002SOL     OW18757   3.142   2.789   9.982
 6002SOL    HW118758   3.202   2.708   9.984
 6002SOL    HW218759   3.182   2.858   9.922
 6003SOL     OW18760   2.692   3.135  10.732
 6003SOL    HW118761   2.687   3.168  10.827
 6003SOL    HW218762   2.606   3.154  10.686
 6004SOL     OW18763   2.534   3.478   9.464
 6004SOL    HW118764   2.543   3.488   9.365
 6004SOL    HW218765   2.494   3.389   9.485
 6005SOL     OW18766   3.512   3.582  10.704
 6005SOL    HW118767   3.565   3.592  10.620
 6005SOL    HW218768   3.485   3.672  10.738
 6006SOL     OW18769   3.703   2.037  10.273
 6006SOL    HW118770   3.742   1.952  10.237
 6006SOL    HW218771   3.605   2.039  10.254
 6007SOL     OW18772   3.056   3.474   9.341
 6007SOL    HW118773   3.062   3.381   9.378
 6007SOL    HW218774   2.997   3.474   9.261
 6008SOL     OW18775   2.684   2.864  10.682
 6008SOL    HW118776   2.724   2.863  10.590
 6008SOL    HW218777   2.694   2.956  10.722
 6009SOL     OW18778   2.778   2.772   9.601
 6009SOL    HW118779   2.841   2.810   9.533
 6009SOL    HW218780   2.818   2.689   9.640
 6010SOL     OW18781   3.366   3.469   9.354
 6010SOL    HW118782   3.274   3.506   9.361
 6010SOL    HW218783   3.404   3.489   9.264
 6011SOL     OW18784   2.234   3.150  10.800
 6011SOL    HW118785   2.221   3.243  10.766
 6011SOL    HW218786   2.150   3.098  10.787
 6012SOL     OW18787   3.476   3.154  10.599
 6012SOL    HW118788   3.536   3.157  10.679
 6012SOL    HW218789   3.401   3.218  10.612
 6013SOL     OW18790   2.901   2.960  10.006
 6013SOL    HW118791   2.831   2.913  10.060
 6013SOL    HW218792   2.960   2.892   9.963
 6014SOL     OW18793   2.876   2.098  10.281
 6014SOL    HW118794   2.868   2.062  10.188
 6014SOL    HW218795   2.874   2.022  10.346
 6015SOL     OW18796   2.452   3.349   9.801
 6015SOL    HW118797   2.494   3.291   9.731
 6015SOL    HW218798   2.408   3.428   9.757
 6016SOL     OW18799   3.571   2.247  10.691
 6016SOL    HW118800   3.644   2.316  10.695
 6016SOL    HW218801   3.599   2.172  10.632
 6017SOL     OW18802   2.117   3.210   9.600
 6017SOL    HW118803   2.021   3.211   9.573
 6017SOL    HW218804   2.129   3.263   9.684
 6018SOL     OW18805   1.967   2.875  11.036
 6018SOL    HW118806   1.890   2.842  11.090
 6018SOL    HW218807   2.052   2.845  11.078
 6019SOL     OW18808   2.534   2.065  10.799
 6019SOL    HW118809   2.624   2.049  10.759
 6019SOL    HW218810   2.542   2.070  10.898
 6020SOL     OW18811   1.937   2.207   9.343
 6020SOL    HW118812   1.845   2.179   9.314
 6020SOL    HW218813   1.968   2.284   9.287
 6021SOL     OW18814   3.302   2.718  10.708
 6021SOL    HW118815   3.245   2.770  10.645
 6021SOL    HW218816   3.398   2.730  10.684
 6022SOL     OW18817   3.045   3.197   9.429
 6022SOL    HW118818   2.946   3.186   9.431
 6022SOL    HW218819   3.079   3.212   9.522
 6023SOL     OW18820   2.475   2.704  10.741
 6023SOL    HW118821   2.531   2.785  10.724
 6023SOL    HW218822   2.534   2.624  10.744
 6024SOL     OW18823   3.355   3.629  10.269
 6024SOL    HW118824   3.388   3.693  10.200
 6024SOL    HW218825   3.421   3.623  10.344
 6025SOL     OW18826   2.578   2.427  11.018
 6025SOL    HW118827   2.597   2.492  11.092
 6025SOL    HW218828   2.638   2.347  11.027
 6026SOL     OW18829   3.312   3.082  10.943
 6026SOL    HW118830   3.303   3.072  11.042
 6026SOL    HW218831   3.408   3.075  10.917
 6027SOL     OW18832   2.252   3.603  10.870
 6027SOL    HW118833   2.161   3.644  10.868
 6027SOL    HW218834   2.245   3.509  10.902
 6028SOL     OW18835   3.536   2.745  10.564
 6028SOL    HW118836   3.509   2.656  10.527
 6028SOL    HW218837   3.537   2.813  10.491
 6029SOL     OW18838   3.087   2.187   9.759
 6029SOL    HW118839   3.152   2.113   9.748
 6029SOL    HW218840   3.107   2.237   9.843
 6030SOL     OW18841   2.456   2.607   9.962
 6030SOL    HW118842   2.506   2.692   9.943
 6030SOL    HW218843   2.368   2.609   9.914
 6031SOL     OW18844   3.639   2.204  10.952
 6031SOL    HW118845   3.622   2.235  10.858
 6031SOL    HW218846   3.555   2.167  10.990
 6032SOL     OW18847   3.592   2.796  10.827
 6032SOL    HW118848   3.630   2.887  10.842
 6032SOL    HW218849   3.584   2.779  10.728
 6033SOL     OW18850   2.721   3.236   9.326
 6033SOL    HW118851   2.675   3.251   9.414
 6033SOL    HW218852   2.765   3.321   9.296
 6034SOL     OW18853   2.523   3.652  10.263
 6034SOL    HW118854   2.477   3.740  10.250
 6034SOL    HW218855   2.622   3.664  10.256
 6035SOL     OW18856   2.721   2.818  10.171
 6035SOL    HW118857   2.775   2.749  10.219
 6035SOL    HW218858   2.689   2.887  10.237
 6036SOL     OW18859   2.945   2.846   9.397
 6036SOL    HW118860   2.922   2.899   9.315
 6036SOL    HW218861   3.026   2.790   9.378
 6037SOL     OW18862   3.723   3.431  10.161
 6037SOL    HW118863   3.652   3.419  10.091
 6037SOL    HW218864   3.724   3.352  10.221
 6038SOL     OW18865   2.083   3.176  11.154
 6038SOL    HW118866   2.018   3.103  11.133
 6038SOL    HW218867   2.087   3.190  11.252
 6039SOL     OW18868   1.941   3.102   9.963
 6039SOL    HW118869   1.940   3.055  10.051
 6039SOL    HW218870   2.023   3.074   9.912
 6040SOL     OW18871   2.534   3.253  10.934
 6040SOL    HW118872   2.456   3.203  10.972
 6040SOL    HW218873   2.531   3.348  10.965
 6041SOL     OW18874   3.686   2.054  10.537
 6041SOL    HW118875   3.682   1.964  10.581
 6041SOL    HW218876   3.689   2.043  10.438
 6042SOL     OW18877   3.567   3.349  10.414
 6042SOL    HW118878   3.474   3.324  10.387
 6042SOL    HW218879   3.593   3.299  10.496
 6043SOL     OW18880   2.179   2.409  10.590
 6043SOL    HW118881   2.217   2.350  10.662
 6043SOL    HW218882   2.219   2.383  10.502
 6044SOL     OW18883   2.674   3.448   9.997
 6044SOL    HW118884   2.706   3.458   9.903
 6044SOL    HW218885   2.595   3.386   9.999
 6045SOL     OW18886   3.286   2.076  10.422
 6045SOL    HW118887   3.338   2.011  10.477
 6045SOL    HW218888   3.237   2.139  10.483
 6046SOL     OW18889   2.863   1.896  10.464
 6046SOL    HW118890   2.800   1.824  10.433
 6046SOL    HW218891   2.956   1.860  10.464
 6047SOL     OW18892   2.632   3.192   9.611
 6047SOL    HW118893   2.586   3.105   9.628
 6047SOL    HW218894   2.723   3.189   9.652
 6048SOL     OW18895   2.480   3.429  10.594
 6048SOL    HW118896   2.475   3.511  10.651
 6048SOL    HW218897   2.569   3.426  10.549
 6049SOL     OW18898   3.214   1.914   9.478
 6049SOL    HW118899   3.249   1.873   9.394
 6049SOL    HW218900   3.124   1.876   9.498
 6050SOL     OW18901   3.162   2.315  10.001
 6050SOL    HW118902   3.103   2.395  10.005
 6050SOL    HW218903   3.177   2.280  10.094
 6051SOL     OW18904   3.455   2.083  10.192
 6051SOL    HW118905   3.371   2.082  10.246
 6051SOL    HW218906   3.457   2.166  10.136
 6052SOL     OW18907   1.901   2.939   9.610
 6052SOL    HW118908   2.000   2.928   9.601
 6052SOL    HW218909   1.861   2.853   9.642
 6053SOL     OW18910   2.737   3.508   9.647
 6053SOL    HW118911   2.660   3.473   9.593
 6053SOL    HW218912   2.705   3.579   9.709
 6054SOL     OW18913   2.092   2.490  11.285
 6054SOL    HW118914   1.999   2.488  11.322
 6054SOL    HW218915   2.093   2.451  11.193
 6055SOL     OW18916   1.881   2.230  11.819
 6055SOL    HW118917   1.799   2.273  11.858
 6055SOL    HW218918   1.853   2.157  11.756
 6056SOL     OW18919   2.431   3.137  12.337
 6056SOL    HW118920   2.338   3.130  12.300
 6056SOL    HW218921   2.442   3.226  12.381
 6057SOL     OW18922   3.417   3.373  11.875
 6057SOL    HW118923   3.360   3.357  11.956
 6057SOL    HW218924   3.358   3.383  11.795
 6058SOL     OW18925   2.997   2.565  11.889
 6058SOL    HW118926   3.054   2.643  11.864
 6058SOL    HW218927   2.937   2.591  11.965
 6059SOL     OW18928   3.617   2.469  11.403
 6059SOL    HW118929   3.605   2.456  11.304
 6059SOL    HW218930   3.587   2.388  11.452
 6060SOL     OW18931   2.630   3.006  12.195
 6060SOL    HW118932   2.552   3.023  12.255
 6060SOL    HW218933   2.664   3.093  12.159
 6061SOL     OW18934   2.712   2.660  12.995
 6061SOL    HW118935   2.708   2.736  13.060
 6061SOL    HW218936   2.734   2.696  12.904
 6062SOL     OW18937   2.547   2.874  11.837
 6062SOL    HW118938   2.616   2.858  11.907
 6062SOL    HW218939   2.474   2.931  11.875
 6063SOL     OW18940   2.548   3.023  12.975
 6063SOL    HW118941   2.608   3.102  12.989
 6063SOL    HW218942   2.462   3.054  12.934
 6064SOL     OW18943   2.197   3.297  12.233
 6064SOL    HW118944   2.119   3.266  12.180
 6064SOL    HW218945   2.255   3.355  12.176
 6065SOL     OW18946   3.322   3.367  12.511
 6065SOL    HW118947   3.346   3.461  12.537
 6065SOL    HW218948   3.306   3.313  12.593
 6066SOL     OW18949   3.465   2.309  11.909
 6066SOL    HW118950   3.391   2.355  11.859
 6066SOL    HW218951   3.516   2.377  11.962
 6067SOL     OW18952   2.093   3.575  11.655
 6067SOL    HW118953   2.127   3.652  11.709
 6067SOL    HW218954   2.137   3.575  11.565
 6068SOL     OW18955   2.989   3.203  12.862
 6068SOL    HW118956   3.036   3.203  12.950
 6068SOL    HW218957   2.941   3.116  12.851
 6069SOL     OW18958   2.092   3.296  11.710
 6069SOL    HW118959   2.066   3.392  11.710
 6069SOL    HW218960   2.021   3.242  11.755
 6070SOL     OW18961   2.102   2.953  12.058
 6070SOL    HW118962   2.116   2.869  12.110
 6070SOL    HW218963   2.047   3.017  12.113
 6071SOL     OW18964   2.482   3.648  12.611
 6071SOL    HW118965   2.390   3.631  12.646
 6071SOL    HW218966   2.510   3.740  12.637
 6072SOL     OW18967   2.468   2.826  11.295
 6072SOL    HW118968   2.475   2.910  11.241
 6072SOL    HW218969   2.514   2.839  11.383
 6073SOL     OW18970   3.456   1.976  12.652
 6073SOL    HW118971   3.438   2.043  12.580
 6073SOL    HW218972   3.453   2.022  12.741
 6074SOL     OW18973   1.984   2.505  11.735
 6074SOL    HW118974   1.939   2.417  11.752
 6074SOL    HW218975   1.983   2.559  11.819
 6075SOL     OW18976   3.704   3.629  11.531
 6075SOL    HW118977   3.758   3.600  11.611
 6075SOL    HW218978   3.734   3.719  11.502
 6076SOL     OW18979   1.889   3.458  11.289
 6076SOL    HW118980   1.870   3.362  11.310
 6076SOL    HW218981   1.856   3.516  11.364
 6077SOL     OW18982   3.551   2.784  11.784
 6077SOL    HW118983   3.646   2.755  11.792
 6077SOL    HW218984   3.543   2.849  11.709
 6078SOL     OW18985   3.503   2.970  11.604
 6078SOL    HW118986   3.589   2.972  11.552
 6078SOL    HW218987   3.517   3.017  11.692
 6079SOL     OW18988   1.975   2.599  12.769
 6079SOL    HW118989   2.063   2.586  12.814
 6079SOL    HW218990   1.962   2.696  12.747
 6080SOL     OW18991   2.475   3.227  11.898
 6080SOL    HW118992   2.426   3.140  11.907
 6080SOL    HW218993   2.452   3.270  11.811
 6081SOL     OW18994   3.155   3.090  12.595
 6081SOL    HW118995   3.192   3.017  12.537
 6081SOL    HW218996   3.207   3.095  12.680
 6082SOL     OW18997   2.671   1.866  11.674
 6082SOL    HW118998   2.711   1.957  11.665
 6082SOL    HW218999   2.571   1.874  11.680
 6083SOL     OW19000   2.059   2.838  12.436
 6083SOL    HW119001   2.148   2.793  12.422
 6083SOL    HW219002   1.986   2.773  12.417
 6084SOL     OW19003   3.387   2.861  11.362
 6084SOL    HW119004   3.324   2.785  11.375
 6084SOL    HW219005   3.435   2.879  11.448
 6085SOL     OW19006   3.049   3.654  12.788
 6085SOL    HW119007   3.073   3.714  12.712
 6085SOL    HW219008   3.056   3.559  12.758
 6086SOL     OW19009   3.328   3.279  12.125
 6086SOL    HW119010   3.269   3.285  12.205
 6086SOL    HW219011   3.313   3.191  12.079
 6087SOL     OW19012   3.529   3.576  11.744
 6087SOL    HW119013   3.488   3.553  11.656
 6087SOL    HW219014   3.511   3.502  11.809
 6088SOL     OW19015   2.460   2.591  11.442
 6088SOL    HW119016   2.484   2.660  11.374
 6088SOL    HW219017   2.382   2.624  11.496
 6089SOL     OW19018   3.143   2.207  12.116
 6089SOL    HW119019   3.057   2.157  12.103
 6089SOL    HW219020   3.205   2.153  12.172
 6090SOL     OW19021   3.438   3.524  11.479
 6090SOL    HW119022   3.527   3.570  11.482
 6090SOL    HW219023   3.417   3.500  11.384
 6091SOL     OW19024   2.669   2.467  12.637
 6091SOL    HW119025   2.622   2.464  12.726
 6091SOL    HW219026   2.618   2.412  12.571
 6092SOL     OW19027   3.256   2.331  12.846
 6092SOL    HW119028   3.236   2.374  12.934
 6092SOL    HW219029   3.334   2.269  12.855
 6093SOL     OW19030   2.835   2.752  12.744
 6093SOL    HW119031   2.881   2.668  12.715
 6093SOL    HW219032   2.779   2.786  12.669
 6094SOL     OW19033   2.853   2.272  12.414
 6094SOL    HW119034   2.776   2.306  12.468
 6094SOL    HW219035   2.819   2.221  12.335
 6095SOL     OW19036   2.903   2.563  11.601
 6095SOL    HW119037   2.929   2.559  11.697
 6095SOL    HW219038   2.818   2.512  11.587
 6096SOL     OW19039   1.938   2.673  11.961
 6096SOL    HW119040   2.037   2.661  11.970
 6096SOL    HW219041   1.914   2.768  11.982
 6097SOL     OW19042   1.992   3.683  12.743
 6097SOL    HW119043   1.982   3.668  12.842
 6097SOL    HW219044   1.906   3.719  12.707
 6098SOL     OW19045   2.727   2.210  11.367
 6098SOL    HW119046   2.786   2.273  11.318
 6098SOL    HW219047   2.746   2.116  11.338
 6099SOL     OW19048   3.581   2.447  13.003
 6099SOL    HW119049   3.555   2.536  12.967
 6099SOL    HW219050   3.579   2.379  12.930
 6100SOL     OW19051   3.224   3.006  11.717
 6100SOL    HW119052   3.307   2.977  11.669
 6100SOL    HW219053   3.175   3.073  11.661
 6101SOL     OW19054   2.412   2.058  12.057
 6101SOL    HW119055   2.407   2.053  12.157
 6101SOL    HW219056   2.414   2.154  12.028
 6102SOL     OW19057   2.870   3.318  11.649
 6102SOL    HW119058   2.824   3.390  11.597
 6102SOL    HW219059   2.866   3.338  11.747
 6103SOL     OW19060   2.213   3.663  12.025
 6103SOL    HW119061   2.263   3.577  12.031
 6103SOL    HW219062   2.278   3.740  12.022
 6104SOL     OW19063   3.657   2.928  12.045
 6104SOL    HW119064   3.595   2.913  11.969
 6104SOL    HW219065   3.605   2.939  12.130
 6105SOL     OW19066   3.089   3.412  12.678
 6105SOL    HW119067   3.095   3.335  12.742
 6105SOL    HW219068   3.037   3.386  12.598
 6106SOL     OW19069   2.183   2.805  11.414
 6106SOL    HW119070   2.265   2.844  11.372
 6106SOL    HW219071   2.156   2.723  11.365
 6107SOL     OW19072   3.320   2.597  11.900
 6107SOL    HW119073   3.315   2.532  11.975
 6107SOL    HW219074   3.400   2.656  11.913
 6108SOL     OW19075   2.323   3.128  12.899
 6108SOL    HW119076   2.273   3.129  12.813
 6108SOL    HW219077   2.260   3.110  12.975
 6109SOL     OW19078   2.973   3.638  11.409
 6109SOL    HW119079   2.913   3.576  11.459
 6109SOL    HW219080   3.004   3.594  11.324
 6110SOL     OW19081   3.494   3.239  11.253
 6110SOL    HW119082   3.462   3.333  11.243
 6110SOL    HW219083   3.418   3.176  11.241
 6111SOL     OW19084   2.326   3.605  11.495
 6111SOL    HW119085   2.359   3.644  11.581
 6111SOL    HW219086   2.402   3.598  11.430
 6112SOL     OW19087   3.262   1.969  11.598
 6112SOL    HW119088   3.238   1.932  11.508
 6112SOL    HW219089   3.361   1.985  11.602
 6113SOL     OW19090   2.111   3.647  12.413
 6113SOL    HW119091   2.168   3.582  12.463
 6113SOL    HW219092   2.095   3.614  12.320
 6114SOL     OW19093   2.802   3.560  12.076
 6114SOL    HW119094   2.882   3.503  12.097
 6114SOL    HW219095   2.753   3.520  11.999
 6115SOL     OW19096   2.244   2.562  11.652
 6115SOL    HW119097   2.289   2.472  11.649
 6115SOL    HW219098   2.150   2.551  11.685
 6116SOL     OW19099   3.409   2.084  12.901
 6116SOL    HW119100   3.404   2.121  12.993
 6116SOL    HW219101   3.337   2.015  12.889
 6117SOL     OW19102   2.476   1.984  11.289
 6117SOL    HW119103   2.574   1.962  11.296
 6117SOL    HW219104   2.445   1.967  11.196
 6118SOL     OW19105   2.643   2.126  12.921
 6118SOL    HW119106   2.710   2.065  12.964
 6118SOL    HW219107   2.570   2.145  12.986
 6119SOL     OW19108   2.750   3.376  12.367
 6119SOL    HW119109   2.727   3.351  12.273
 6119SOL    HW219110   2.811   3.307  12.406
 6120SOL     OW19111   3.213   2.452  12.605
 6120SOL    HW119112   3.241   2.409  12.690
 6120SOL    HW219113   3.238   2.548  12.606
 6121SOL     OW19114   2.665   3.264  12.096
 6121SOL    HW119115   2.755   3.278  12.054
 6121SOL    HW219116   2.594   3.266  12.025
 6122SOL     OW19117   2.784   2.365  12.071
 6122SOL    HW119118   2.759   2.356  11.975
 6122SOL    HW219119   2.832   2.283  12.102
 6123SOL     OW19120   2.401   1.926  11.684
 6123SOL    HW119121   2.320   1.927  11.742
 6123SOL    HW219122   2.404   2.009  11.629
 6124SOL     OW19123   3.296   3.050  11.213
 6124SOL    HW119124   3.328   2.974  11.270
 6124SOL    HW219125   3.204   3.077  11.243
 6125SOL     OW19126   2.797   2.098  11.652
 6125SOL    HW119127   2.749   2.139  11.574
 6125SOL    HW219128   2.896   2.096  11.633
 6126SOL     OW19129   2.938   2.545  12.636
 6126SOL    HW119130   2.858   2.484  12.639
 6126SOL    HW219131   3.019   2.492  12.612
 6127SOL     OW19132   3.089   3.432  11.965
 6127SOL    HW119133   3.110   3.506  11.900
 6127SOL    HW219134   3.157   3.432  12.038
 6128SOL     OW19135   2.321   3.014  11.913
 6128SOL    HW119136   2.250   2.987  11.978
 6128SOL    HW219137   2.295   2.986  11.820
 6129SOL     OW19138   3.133   3.659  11.763
 6129SOL    HW119139   3.177   3.723  11.699
 6129SOL    HW219140   3.083   3.711  11.833
 6130SOL     OW19141   2.894   2.411  11.188
 6130SOL    HW119142   2.853   2.493  11.149
 6130SOL    HW219143   2.958   2.437  11.261
 6131SOL     OW19144   1.940   2.418  12.558
 6131SOL    HW119145   2.032   2.417  12.517
 6131SOL    HW219146   1.934   2.492  12.625
 6132SOL     OW19147   2.728   2.316  11.814
 6132SOL    HW119148   2.696   2.388  11.752
 6132SOL    HW219149   2.752   2.235  11.761
 6133SOL     OW19150   2.879   1.901  11.925
 6133SOL    HW119151   2.807   1.906  11.856
 6133SOL    HW219152   2.855   1.832  11.994
 6134SOL     OW19153   3.291   3.035  12.039
 6134SOL    HW119154   3.236   2.951  12.032
 6134SOL    HW219155   3.317   3.064  11.947
 6135SOL     OW19156   3.328   2.452  12.164
 6135SOL    HW119157   3.298   2.357  12.171
 6135SOL    HW219158   3.401   2.468  12.230
 6136SOL     OW19159   3.719   2.695  11.549
 6136SOL    HW119160   3.761   2.631  11.613
 6136SOL    HW219161   3.681   2.644  11.471
 6137SOL     OW19162   2.350   3.247  11.346
 6137SOL    HW119163   2.263   3.232  11.393
 6137SOL    HW219164   2.333   3.273  11.251
 6138SOL     OW19165   3.526   3.142  11.829
 6138SOL    HW119166   3.625   3.150  11.843
 6138SOL    HW219167   3.481   3.226  11.860
 6139SOL     OW19168   3.252   2.437  11.250
 6139SOL    HW119169   3.198   2.416  11.331
 6139SOL    HW219170   3.343   2.396  11.259
 6140SOL     OW19171   3.616   3.085  12.760
 6140SOL    HW119172   3.707   3.046  12.747
 6140SOL    HW219173   3.624   3.181  12.784
 6141SOL     OW19174   2.926   3.209  12.512
 6141SOL    HW119175   2.846   3.186  12.567
 6141SOL    HW219176   3.009   3.183  12.561
 6142SOL     OW19177   3.454   3.491  12.797
 6142SOL    HW119178   3.481   3.525  12.707
 6142SOL    HW219179   3.533   3.453  12.843
 6143SOL     OW19180   2.973   3.057  12.272
 6143SOL    HW119181   2.933   3.101  12.353
 6143SOL    HW219182   2.932   3.094  12.189
 6144SOL     OW19183   3.500   2.961  12.251
 6144SOL    HW119184   3.505   3.042  12.310
 6144SOL    HW219185   3.414   2.963  12.200
 6145SOL     OW19186   2.777   1.951  12.574
 6145SOL    HW119187   2.802   1.931  12.479
 6145SOL    HW219188   2.849   2.007  12.616
 6146SOL     OW19189   2.842   2.978  12.891
 6146SOL    HW119190   2.743   2.984  12.901
 6146SOL    HW219191   2.865   2.898  12.835
 6147SOL     OW19192   2.567   2.912  11.540
 6147SOL    HW119193   2.553   2.919  11.639
 6147SOL    HW219194   2.651   2.861  11.522
 6148SOL     OW19195   2.272   2.675  12.423
 6148SOL    HW119196   2.358   2.687  12.473
 6148SOL    HW219197   2.230   2.588  12.450
 6149SOL     OW19198   3.136   2.248  12.434
 6149SOL    HW119199   3.157   2.322  12.498
 6149SOL    HW219200   3.047   2.265  12.391
 6150SOL     OW19201   1.926   3.426  12.503
 6150SOL    HW119202   1.880   3.508  12.469
 6150SOL    HW219203   2.024   3.445  12.512
 6151SOL     OW19204   2.229   2.962  11.673
 6151SOL    HW119205   2.222   3.045  11.617
 6151SOL    HW219206   2.233   2.882  11.613
 6152SOL     OW19207   2.428   2.399  12.037
 6152SOL    HW119208   2.440   2.465  11.963
 6152SOL    HW219209   2.474   2.433  12.120
 6153SOL     OW19210   3.114   3.210  11.560
 6153SOL    HW119211   3.164   3.287  11.600
 6153SOL    HW219212   3.019   3.212  11.592
 6154SOL     OW19213   3.134   3.307  12.314
 6154SOL    HW119214   3.181   3.320  12.401
 6154SOL    HW219215   3.068   3.233  12.323
 6155SOL     OW19216   3.444   2.501  11.644
 6155SOL    HW119217   3.413   2.562  11.717
 6155SOL    HW219218   3.494   2.553  11.575
 6156SOL     OW19219   2.216   3.372  12.501
 6156SOL    HW119220   2.195   3.328  12.414
 6156SOL    HW219221   2.313   3.398  12.504
 6157SOL     OW19222   2.264   2.613  12.770
 6157SOL    HW119223   2.332   2.668  12.723
 6157SOL    HW219224   2.304   2.525  12.797
 6158SOL     OW19225   3.449   2.641  12.842
 6158SOL    HW119226   3.357   2.679  12.837
 6158SOL    HW219227   3.509   2.688  12.777
 6159SOL     OW19228   2.875   1.967  12.942
 6159SOL    HW119229   2.881   2.052  12.890
 6159SOL    HW219230   2.907   1.891  12.885
 6160SOL     OW19231   2.366   1.912  12.912
 6160SOL    HW119232   2.324   1.855  12.842
 6160SOL    HW219233   2.300   1.981  12.944
 6161SOL     OW19234   2.435   2.732  12.201
 6161SOL    HW119235   2.479   2.821  12.192
 6161SOL    HW219236   2.372   2.732  12.278
 6162SOL     OW19237   3.222   2.724  12.217
 6162SOL    HW119238   3.147   2.724  12.151
 6162SOL    HW219239   3.259   2.632  12.226
 6163SOL     OW19240   3.071   2.387  11.447
 6163SOL    HW119241   3.084   2.303  11.501
 6163SOL    HW219242   3.042   2.461  11.507
 6164SOL     OW19243   1.899   3.172  12.454
 6164SOL    HW119244   1.952   3.123  12.522
 6164SOL    HW219245   1.921   3.270  12.459
 6165SOL     OW19246   2.594   2.496  12.236
 6165SOL    HW119247   2.653   2.470  12.160
 6165SOL    HW219248   2.566   2.592  12.225
 6166SOL     OW19249   3.590   2.797  13.026
 6166SOL    HW119250   3.544   2.790  12.937
 6166SOL    HW219251   3.528   2.841  13.092
 6167SOL     OW19252   3.484   2.229  11.546
 6167SOL    HW119253   3.486   2.153  11.610
 6167SOL    HW219254   3.436   2.306  11.586
 6168SOL     OW19255   2.885   2.628  12.138
 6168SOL    HW119256   2.900   2.649  12.234
 6168SOL    HW219257   2.855   2.533  12.129
 6169SOL     OW19258   2.842   3.435  12.872
 6169SOL    HW119259   2.822   3.479  12.784
 6169SOL    HW219260   2.881   3.344  12.856
 6170SOL     OW19261   3.721   3.380  12.777
 6170SOL    HW119262   3.735   3.407  12.682
 6170SOL    HW219263   3.804   3.402  12.830
 6171SOL     OW19264   2.212   2.760  12.976
 6171SOL    HW119265   2.288   2.804  13.024
 6171SOL    HW219266   2.247   2.713  12.894
 6172SOL     OW19267   3.402   2.136  11.297
 6172SOL    HW119268   3.341   2.061  11.320
 6172SOL    HW219269   3.424   2.188  11.380
 6173SOL     OW19270   3.165   2.700  11.214
 6173SOL    HW119271   3.199   2.607  11.229
 6173SOL    HW219272   3.183   2.727  11.119
 6174SOL     OW19273   2.930   3.195  12.021
 6174SOL    HW119274   2.937   3.111  11.966
 6174SOL    HW219275   2.992   3.264  11.985
 6175SOL     OW19276   2.181   2.672  12.121
 6175SOL    HW119277   2.274   2.708  12.126
 6175SOL    HW219278   2.175   2.587  12.173
 6176SOL     OW19279   3.000   2.242  12.850
 6176SOL    HW119280   2.955   2.305  12.914
 6176SOL    HW219281   3.093   2.273  12.833
 6177SOL     OW19282   3.022   2.069  12.649
 6177SOL    HW119283   3.022   2.133  12.726
 6177SOL    HW219284   3.050   2.117  12.566
 6178SOL     OW19285   1.870   3.188  11.372
 6178SOL    HW119286   1.777   3.209  11.341
 6178SOL    HW219287   1.880   3.089  11.385
 6179SOL     OW19288   1.950   3.663  12.099
 6179SOL    HW119289   1.908   3.577  12.072
 6179SOL    HW219290   2.044   3.666  12.065
 6180SOL     OW19291   2.366   3.430  12.082
 6180SOL    HW119292   2.432   3.504  12.091
 6180SOL    HW219293   2.410   3.351  12.040
 6181SOL     OW19294   2.864   2.658  12.410
 6181SOL    HW119295   2.905   2.626  12.496
 6181SOL    HW219296   2.768   2.631  12.407
 6182SOL     OW19297   1.902   2.406  12.286
 6182SOL    HW119298   1.987   2.373  12.245
 6182SOL    HW219299   1.915   2.421  12.384
 6183SOL     OW19300   3.231   2.812  12.832
 6183SOL    HW119301   3.270   2.901  12.852
 6183SOL    HW219302   3.241   2.792  12.735
 6184SOL     OW19303   2.677   2.434  11.497
 6184SOL    HW119304   2.684   2.345  11.451
 6184SOL    HW219305   2.583   2.468  11.489
 6185SOL     OW19306   3.519   2.466  12.378
 6185SOL    HW119307   3.481   2.397  12.440
 6185SOL    HW219308   3.601   2.430  12.334
 6186SOL     OW19309   2.114   3.426  12.916
 6186SOL    HW119310   2.084   3.483  12.992
 6186SOL    HW219311   2.107   3.329  12.942
 6187SOL     OW19312   2.533   2.326  12.441
 6187SOL    HW119313   2.499   2.237  12.411
 6187SOL    HW219314   2.559   2.380  12.361
 6188SOL     OW19315   2.792   3.540  12.637
 6188SOL    HW119316   2.768   3.522  12.542
 6188SOL    HW219317   2.822   3.634  12.647
 6189SOL     OW19318   2.335   2.362  11.363
 6189SOL    HW119319   2.396   2.442  11.367
 6189SOL    HW219320   2.240   2.393  11.370
 6190SOL     OW19321   2.021   2.999  12.638
 6190SOL    HW119322   2.043   2.938  12.714
 6190SOL    HW219323   2.031   2.950  12.552
 6191SOL     OW19324   3.209   2.921  12.406
 6191SOL    HW119325   3.233   2.858  12.332
 6191SOL    HW219326   3.119   2.961  12.388
 6192SOL     OW19327   3.164   2.717  11.481
 6192SOL    HW119328   3.078   2.686  11.523
 6192SOL    HW219329   3.160   2.703  11.382
 6193SOL     OW19330   3.621   3.609  12.326
 6193SOL    HW119331   3.682   3.639  12.253
 6193SOL    HW219332   3.583   3.520  12.304
 6194SOL     OW19333   3.114   3.593  12.300
 6194SOL    HW119334   3.198   3.598  12.246
 6194SOL    HW219335   3.091   3.497  12.318
 6195SOL     OW19336   1.945   3.120  12.194
 6195SOL    HW119337   1.940   3.119  12.294
 6195SOL    HW219338   1.862   3.079  12.156
 6196SOL     OW19339   2.550   3.524  12.888
 6196SOL    HW119340   2.494   3.605  12.897
 6196SOL    HW219341   2.602   3.528  12.802
 6197SOL     OW19342   3.588   1.997  11.695
 6197SOL    HW119343   3.661   1.980  11.628
 6197SOL    HW219344   3.557   1.910  11.733
 6198SOL     OW19345   3.250   3.435  11.649
 6198SOL    HW119346   3.317   3.447  11.575
 6198SOL    HW219347   3.210   3.524  11.672
 6199SOL     OW19348   1.992   3.656  13.023
 6199SOL    HW119349   1.951   3.582  13.076
 6199SOL    HW219350   2.056   3.707  13.081
 6200SOL     OW19351   3.142   2.789  11.844
 6200SOL    HW119352   3.202   2.708  11.846
 6200SOL    HW219353   3.182   2.858  11.784
 6201SOL     OW19354   2.692   3.135  12.594
 6201SOL    HW119355   2.687   3.168  12.689
 6201SOL    HW219356   2.606   3.154  12.548
 6202SOL     OW19357   2.534   3.478  11.326
 6202SOL    HW119358   2.543   3.488  11.227
 6202SOL    HW219359   2.494   3.389  11.347
 6203SOL     OW19360   3.512   3.582  12.566
 6203SOL    HW119361   3.565   3.592  12.482
 6203SOL    HW219362   3.485   3.672  12.600
 6204SOL     OW19363   3.703   2.037  12.135
 6204SOL    HW119364   3.742   1.952  12.099
 6204SOL    HW219365   3.605   2.039  12.116
 6205SOL     OW19366   3.056   3.474  11.203
 6205SOL    HW119367   3.062   3.381  11.240
 6205SOL    HW219368   2.997   3.474  11.123
 6206SOL     OW19369   2.684   2.864  12.544
 6206SOL    HW119370   2.724   2.863  12.452
 6206SOL    HW219371   2.694   2.956  12.584
 6207SOL     OW19372   2.778   2.772  11.463
 6207SOL    HW119373   2.841   2.810  11.395
 6207SOL    HW219374   2.818   2.689  11.502
 6208SOL     OW19375   3.366   3.469  11.216
 6208SOL    HW119376   3.274   3.506  11.223
 6208SOL    HW219377   3.404   3.489  11.126
 6209SOL     OW19378   2.234   3.150  12.662
 6209SOL    HW119379   2.221   3.243  12.628
 6209SOL    HW219380   2.150   3.098  12.649
 6210SOL     OW19381   3.476   3.154  12.461
 6210SOL    HW119382   3.536   3.157  12.541
 6210SOL    HW219383   3.401   3.218  12.474
 6211SOL     OW19384   2.901   2.960  11.868
 6211SOL    HW119385   2.831   2.913  11.922
 6211SOL    HW219386   2.960   2.892  11.825
 6212SOL     OW19387   2.876   2.098  12.143
 6212SOL    HW119388   2.868   2.062  12.050
 6212SOL    HW219389   2.874   2.022  12.208
 6213SOL     OW19390   2.452   3.349  11.663
 6213SOL    HW119391   2.494   3.291  11.593
 6213SOL    HW219392   2.408   3.428  11.619
 6214SOL     OW19393   3.571   2.247  12.553
 6214SOL    HW119394   3.644   2.316  12.557
 6214SOL    HW219395   3.599   2.172  12.494
 6215SOL     OW19396   2.117   3.210  11.462
 6215SOL    HW119397   2.021   3.211  11.435
 6215SOL    HW219398   2.129   3.263  11.546
 6216SOL     OW19399   1.967   2.875  12.898
 6216SOL    HW119400   1.890   2.842  12.952
 6216SOL    HW219401   2.052   2.845  12.940
 6217SOL     OW19402   2.534   2.065  12.661
 6217SOL    HW119403   2.624   2.049  12.621
 6217SOL    HW219404   2.542   2.070  12.760
 6218SOL     OW19405   3.302   2.718  12.570
 6218SOL    HW119406   3.245   2.770  12.507
 6218SOL    HW219407   3.398   2.730  12.546
 6219SOL     OW19408   3.045   3.197  11.291
 6219SOL    HW119409   2.946   3.186  11.293
 6219SOL    HW219410   3.079   3.212  11.384
 6220SOL     OW19411   2.475   2.704  12.603
 6220SOL    HW119412   2.531   2.785  12.586
 6220SOL    HW219413   2.534   2.624  12.606
 6221SOL     OW19414   3.355   3.629  12.131
 6221SOL    HW119415   3.388   3.693  12.062
 6221SOL    HW219416   3.421   3.623  12.206
 6222SOL     OW19417   2.578   2.427  12.880
 6222SOL    HW119418   2.597   2.492  12.954
 6222SOL    HW219419   2.638   2.347  12.889
 6223SOL     OW19420   3.312   3.082  12.805
 6223SOL    HW119421   3.303   3.072  12.904
 6223SOL    HW219422   3.408   3.075  12.779
 6224SOL     OW19423   2.252   3.603  12.732
 6224SOL    HW119424   2.161   3.644  12.730
 6224SOL    HW219425   2.245   3.509  12.764
 6225SOL     OW19426   3.536   2.745  12.426
 6225SOL    HW119427   3.509   2.656  12.389
 6225SOL    HW219428   3.537   2.813  12.353
 6226SOL     OW19429   3.087   2.187  11.621
 6226SOL    HW119430   3.152   2.113  11.610
 6226SOL    HW219431   3.107   2.237  11.705
 6227SOL     OW19432   2.456   2.607  11.824
 6227SOL    HW119433   2.506   2.692  11.805
 6227SOL    HW219434   2.368   2.609  11.776
 6228SOL     OW19435   3.639   2.204  12.814
 6228SOL    HW119436   3.622   2.235  12.720
 6228SOL    HW219437   3.555   2.167  12.852
 6229SOL     OW19438   3.592   2.796  12.689
 6229SOL    HW119439   3.630   2.887  12.704
 6229SOL    HW219440   3.584   2.779  12.590
 6230SOL     OW19441   2.721   3.236  11.188
 6230SOL    HW119442   2.675   3.251  11.276
 6230SOL    HW219443   2.765   3.321  11.158
 6231SOL     OW19444   2.523   3.652  12.125
 6231SOL    HW119445   2.477   3.740  12.112
 6231SOL    HW219446   2.622   3.664  12.118
 6232SOL     OW19447   2.721   2.818  12.033
 6232SOL    HW119448   2.775   2.749  12.081
 6232SOL    HW219449   2.689   2.887  12.099
 6233SOL     OW19450   2.945   2.846  11.259
 6233SOL    HW119451   2.922   2.899  11.177
 6233SOL    HW219452   3.026   2.790  11.240
 6234SOL     OW19453   3.723   3.431  12.023
 6234SOL    HW119454   3.652   3.419  11.953
 6234SOL    HW219455   3.724   3.352  12.083
 6235SOL     OW19456   2.083   3.176  13.016
 6235SOL    HW119457   2.018   3.103  12.995
 6235SOL    HW219458   2.087   3.190  13.114
 6236SOL     OW19459   1.941   3.102  11.825
 6236SOL    HW119460   1.940   3.055  11.913
 6236SOL    HW219461   2.023   3.074  11.774
 6237SOL     OW19462   2.534   3.253  12.796
 6237SOL    HW119463   2.456   3.203  12.834
 6237SOL    HW219464   2.531   3.348  12.827
 6238SOL     OW19465   3.686   2.054  12.399
 6238SOL    HW119466   3.682   1.964  12.443
 6238SOL    HW219467   3.689   2.043  12.300
 6239SOL     OW19468   3.567   3.349  12.276
 6239SOL    HW119469   3.474   3.324  12.249
 6239SOL    HW219470   3.593   3.299  12.358
 6240SOL     OW19471   2.179   2.409  12.452
 6240SOL    HW119472   2.217   2.350  12.524
 6240SOL    HW219473   2.219   2.383  12.364
 6241SOL     OW19474   2.674   3.448  11.859
 6241SOL    HW119475   2.706   3.458  11.765
 6241SOL    HW219476   2.595   3.386  11.861
 6242SOL     OW19477   3.286   2.076  12.284
 6242SOL    HW119478   3.338   2.011  12.339
 6242SOL    HW219479   3.237   2.139  12.345
 6243SOL     OW19480   2.863   1.896  12.326
 6243SOL    HW119481   2.800   1.824  12.295
 6243SOL    HW219482   2.956   1.860  12.326
 6244SOL     OW19483   2.632   3.192  11.473
 6244SOL    HW119484   2.586   3.105  11.490
 6244SOL    HW219485   2.723   3.189  11.514
 6245SOL     OW19486   2.480   3.429  12.456
 6245SOL    HW119487   2.475   3.511  12.513
 6245SOL    HW219488   2.569   3.426  12.411
 6246SOL     OW19489   3.214   1.914  11.340
 6246SOL    HW119490   3.249   1.873  11.256
 6246SOL    HW219491   3.124   1.876  11.360
 6247SOL     OW19492   3.162   2.315  11.863
 6247SOL    HW119493   3.103   2.395  11.867
 6247SOL    HW219494   3.177   2.280  11.956
 6248SOL     OW19495   3.455   2.083  12.054
 6248SOL    HW119496   3.371   2.082  12.108
 6248SOL    HW219497   3.457   2.166  11.998
 6249SOL     OW19498   1.901   2.939  11.472
 6249SOL    HW119499   2.000   2.928  11.463
 6249SOL    HW219500   1.861   2.853  11.504
 6250SOL     OW19501   2.737   3.508  11.509
 6250SOL    HW119502   2.660   3.473  11.455
 6250SOL    HW219503   2.705   3.579  11.571
 6251SOL     OW19504   2.092   2.490  13.147
 6251SOL    HW119505   1.999   2.488  13.184
 6251SOL    HW219506   2.093   2.451  13.055
 6252SOL     OW19507   1.881   2.230  13.681
 6252SOL    HW119508   1.799   2.273  13.720
 6252SOL    HW219509   1.853   2.157  13.618
 6253SOL     OW19510   3.417   3.373  13.737
 6253SOL    HW119511   3.360   3.357  13.818
 6253SOL    HW219512   3.358   3.383  13.657
 6254SOL     OW19513   2.997   2.565  13.751
 6254SOL    HW119514   3.054   2.643  13.726
 6254SOL    HW219515   2.937   2.591  13.827
 6255SOL     OW19516   3.617   2.469  13.265
 6255SOL    HW119517   3.605   2.456  13.166
 6255SOL    HW219518   3.587   2.388  13.314
 6256SOL     OW19519   2.547   2.874  13.699
 6256SOL    HW119520   2.616   2.858  13.769
 6256SOL    HW219521   2.474   2.931  13.737
 6257SOL     OW19522   3.465   2.309  13.771
 6257SOL    HW119523   3.391   2.355  13.721
 6257SOL    HW219524   3.516   2.377  13.824
 6258SOL     OW19525   2.093   3.575  13.517
 6258SOL    HW119526   2.127   3.652  13.571
 6258SOL    HW219527   2.137   3.575  13.427
 6259SOL     OW19528   2.092   3.296  13.572
 6259SOL    HW119529   2.066   3.392  13.572
 6259SOL    HW219530   2.021   3.242  13.617
 6260SOL     OW19531   2.102   2.953  13.920
 6260SOL    HW119532   2.116   2.869  13.972
 6260SOL    HW219533   2.047   3.017  13.975
 6261SOL     OW19534   2.468   2.826  13.157
 6261SOL    HW119535   2.475   2.910  13.103
 6261SOL    HW219536   2.514   2.839  13.245
 6262SOL     OW19537   1.984   2.505  13.597
 6262SOL    HW119538   1.939   2.417  13.614
 6262SOL    HW219539   1.983   2.559  13.681
 6263SOL     OW19540   3.704   3.629  13.393
 6263SOL    HW119541   3.758   3.600  13.473
 6263SOL    HW219542   3.734   3.719  13.364
 6264SOL     OW19543   1.889   3.458  13.151
 6264SOL    HW119544   1.870   3.362  13.172
 6264SOL    HW219545   1.856   3.516  13.226
 6265SOL     OW19546   3.551   2.784  13.646
 6265SOL    HW119547   3.646   2.755  13.654
 6265SOL    HW219548   3.543   2.849  13.571
 6266SOL     OW19549   3.503   2.970  13.466
 6266SOL    HW119550   3.589   2.972  13.414
 6266SOL    HW219551   3.517   3.017  13.554
 6267SOL     OW19552   2.475   3.227  13.760
 6267SOL    HW119553   2.426   3.140  13.769
 6267SOL    HW219554   2.452   3.270  13.673
 6268SOL     OW19555   2.671   1.866  13.536
 6268SOL    HW119556   2.711   1.957  13.527
 6268SOL    HW219557   2.571   1.874  13.542
 6269SOL     OW19558   3.387   2.861  13.224
 6269SOL    HW119559   3.324   2.785  13.237
 6269SOL    HW219560   3.435   2.879  13.310
 6270SOL     OW19561   3.529   3.576  13.606
 6270SOL    HW119562   3.488   3.553  13.518
 6270SOL    HW219563   3.511   3.502  13.671
 6271SOL     OW19564   2.460   2.591  13.304
 6271SOL    HW119565   2.484   2.660  13.236
 6271SOL    HW219566   2.382   2.624  13.358
 6272SOL     OW19567   3.143   2.207  13.978
 6272SOL    HW119568   3.057   2.157  13.965
 6272SOL    HW219569   3.205   2.153  14.034
 6273SOL     OW19570   3.438   3.524  13.341
 6273SOL    HW119571   3.527   3.570  13.344
 6273SOL    HW219572   3.417   3.500  13.246
 6274SOL     OW19573   2.903   2.563  13.463
 6274SOL    HW119574   2.929   2.559  13.559
 6274SOL    HW219575   2.818   2.512  13.449
 6275SOL     OW19576   1.938   2.673  13.823
 6275SOL    HW119577   2.037   2.661  13.832
 6275SOL    HW219578   1.914   2.768  13.844
 6276SOL     OW19579   2.727   2.210  13.229
 6276SOL    HW119580   2.786   2.273  13.180
 6276SOL    HW219581   2.746   2.116  13.200
 6277SOL     OW19582   3.224   3.006  13.579
 6277SOL    HW119583   3.307   2.977  13.531
 6277SOL    HW219584   3.175   3.073  13.523
 6278SOL     OW19585   2.870   3.318  13.511
 6278SOL    HW119586   2.824   3.390  13.459
 6278SOL    HW219587   2.866   3.338  13.609
 6279SOL     OW19588   2.213   3.663  13.887
 6279SOL    HW119589   2.263   3.577  13.893
 6279SOL    HW219590   2.278   3.740  13.884
 6280SOL     OW19591   3.657   2.928  13.907
 6280SOL    HW119592   3.595   2.913  13.831
 6280SOL    HW219593   3.605   2.939  13.992
 6281SOL     OW19594   2.183   2.805  13.276
 6281SOL    HW119595   2.265   2.844  13.234
 6281SOL    HW219596   2.156   2.723  13.227
 6282SOL     OW19597   3.320   2.597  13.762
 6282SOL    HW119598   3.315   2.532  13.837
 6282SOL    HW219599   3.400   2.656  13.775
 6283SOL     OW19600   2.973   3.638  13.271
 6283SOL    HW119601   2.913   3.576  13.321
 6283SOL    HW219602   3.004   3.594  13.186
 6284SOL     OW19603   3.494   3.239  13.115
 6284SOL    HW119604   3.462   3.333  13.105
 6284SOL    HW219605   3.418   3.176  13.103
 6285SOL     OW19606   2.326   3.605  13.357
 6285SOL    HW119607   2.359   3.644  13.443
 6285SOL    HW219608   2.402   3.598  13.292
 6286SOL     OW19609   3.262   1.969  13.460
 6286SOL    HW119610   3.238   1.932  13.370
 6286SOL    HW219611   3.361   1.985  13.464
 6287SOL     OW19612   2.802   3.560  13.938
 6287SOL    HW119613   2.882   3.503  13.959
 6287SOL    HW219614   2.753   3.520  13.861
 6288SOL     OW19615   2.244   2.562  13.514
 6288SOL    HW119616   2.289   2.472  13.511
 6288SOL    HW219617   2.150   2.551  13.547
 6289SOL     OW19618   2.476   1.984  13.151
 6289SOL    HW119619   2.574   1.962  13.158
 6289SOL    HW219620   2.445   1.967  13.058
 6290SOL     OW19621   2.401   1.926  13.546
 6290SOL    HW119622   2.320   1.927  13.604
 6290SOL    HW219623   2.404   2.009  13.491
 6291SOL     OW19624   3.296   3.050  13.075
 6291SOL    HW119625   3.328   2.974  13.132
 6291SOL    HW219626   3.204   3.077  13.105
 6292SOL     OW19627   2.797   2.098  13.514
 6292SOL    HW119628   2.749   2.139  13.436
 6292SOL    HW219629   2.896   2.096  13.495
 6293SOL     OW19630   2.321   3.014  13.775
 6293SOL    HW119631   2.250   2.987  13.840
 6293SOL    HW219632   2.295   2.986  13.682
 6294SOL     OW19633   3.133   3.659  13.625
 6294SOL    HW119634   3.177   3.723  13.561
 6294SOL    HW219635   3.083   3.711  13.695
 6295SOL     OW19636   2.894   2.411  13.050
 6295SOL    HW119637   2.853   2.493  13.011
 6295SOL    HW219638   2.958   2.437  13.123
 6296SOL     OW19639   2.728   2.316  13.676
 6296SOL    HW119640   2.696   2.388  13.614
 6296SOL    HW219641   2.752   2.235  13.623
 6297SOL     OW19642   2.879   1.901  13.787
 6297SOL    HW119643   2.807   1.906  13.718
 6297SOL    HW219644   2.855   1.832  13.856
 6298SOL     OW19645   3.719   2.695  13.411
 6298SOL    HW119646   3.761   2.631  13.475
 6298SOL    HW219647   3.681   2.644  13.333
 6299SOL     OW19648   2.350   3.247  13.208
 6299SOL    HW119649   2.263   3.232  13.255
 6299SOL    HW219650   2.333   3.273  13.113
 6300SOL     OW19651   3.526   3.142  13.691
 6300SOL    HW119652   3.625   3.150  13.705
 6300SOL    HW219653   3.481   3.226  13.722
 6301SOL     OW19654   3.252   2.437  13.112
 6301SOL    HW119655   3.198   2.416  13.193
 6301SOL    HW219656   3.343   2.396  13.121
 6302SOL     OW19657   2.567   2.912  13.402
 6302SOL    HW119658   2.553   2.919  13.501
 6302SOL    HW219659   2.651   2.861  13.384
 6303SOL     OW19660   2.229   2.962  13.535
 6303SOL    HW119661   2.222   3.045  13.479
 6303SOL    HW219662   2.233   2.882  13.475
 6304SOL     OW19663   2.428   2.399  13.899
 6304SOL    HW119664   2.440   2.465  13.825
 6304SOL    HW219665   2.474   2.433  13.982
 6305SOL     OW19666   3.114   3.210  13.422
 6305SOL    HW119667   3.164   3.287  13.462
 6305SOL    HW219668   3.019   3.212  13.454
 6306SOL     OW19669   3.444   2.501  13.506
 6306SOL    HW119670   3.413   2.562  13.579
 6306SOL    HW219671   3.494   2.553  13.437
 6307SOL     OW19672   3.071   2.387  13.309
 6307SOL    HW119673   3.084   2.303  13.363
 6307SOL    HW219674   3.042   2.461  13.369
 6308SOL     OW19675   3.484   2.229  13.408
 6308SOL    HW119676   3.486   2.153  13.472
 6308SOL    HW219677   3.436   2.306  13.448
 6309SOL     OW19678   3.402   2.136  13.159
 6309SOL    HW119679   3.341   2.061  13.182
 6309SOL    HW219680   3.424   2.188  13.242
 6310SOL     OW19681   3.165   2.700  13.076
 6310SOL    HW119682   3.199   2.607  13.091
 6310SOL    HW219683   3.183   2.727  12.981
 6311SOL     OW19684   1.870   3.188  13.234
 6311SOL    HW119685   1.777   3.209  13.203
 6311SOL    HW219686   1.880   3.089  13.247
 6312SOL     OW19687   2.677   2.434  13.359
 6312SOL    HW119688   2.684   2.345  13.313
 6312SOL    HW219689   2.583   2.468  13.351
 6313SOL     OW19690   2.335   2.362  13.225
 6313SOL    HW119691   2.396   2.442  13.229
 6313SOL    HW219692   2.240   2.393  13.232
 6314SOL     OW19693   3.164   2.717  13.343
 6314SOL    HW119694   3.078   2.686  13.385
 6314SOL    HW219695   3.160   2.703  13.244
 6315SOL     OW19696   3.588   1.997  13.557
 6315SOL    HW119697   3.661   1.980  13.490
 6315SOL    HW219698   3.557   1.910  13.595
 6316SOL     OW19699   3.250   3.435  13.511
 6316SOL    HW119700   3.317   3.447  13.437
 6316SOL    HW219701   3.210   3.524  13.534
 6317SOL     OW19702   3.142   2.789  13.706
 6317SOL    HW119703   3.202   2.708  13.708
 6317SOL    HW219704   3.182   2.858  13.646
 6318SOL     OW19705   2.534   3.478  13.188
 6318SOL    HW119706   2.543   3.488  13.089
 6318SOL    HW219707   2.494   3.389  13.209
 6319SOL     OW19708   3.703   2.037  13.997
 6319SOL    HW119709   3.742   1.952  13.961
 6319SOL    HW219710   3.605   2.039  13.978
 6320SOL     OW19711   3.056   3.474  13.065
 6320SOL    HW119712   3.062   3.381  13.102
 6320SOL    HW219713   2.997   3.474  12.985
 6321SOL     OW19714   2.778   2.772  13.325
 6321SOL    HW119715   2.841   2.810  13.257
 6321SOL    HW219716   2.818   2.689  13.364
 6322SOL     OW19717   3.366   3.469  13.078
 6322SOL    HW119718   3.274   3.506  13.085
 6322SOL    HW219719   3.404   3.489  12.988
 6323SOL     OW19720   2.901   2.960  13.730
 6323SOL    HW119721   2.831   2.913  13.784
 6323SOL    HW219722   2.960   2.892  13.687
 6324SOL     OW19723   2.452   3.349  13.525
 6324SOL    HW119724   2.494   3.291  13.455
 6324SOL    HW219725   2.408   3.428  13.481
 6325SOL     OW19726   2.117   3.210  13.324
 6325SOL    HW119727   2.021   3.211  13.297
 6325SOL    HW219728   2.129   3.263  13.408
 6326SOL     OW19729   3.045   3.197  13.153
 6326SOL    HW119730   2.946   3.186  13.155
 6326SOL    HW219731   3.079   3.212  13.246
 6327SOL     OW19732   3.087   2.187  13.483
 6327SOL    HW119733   3.152   2.113  13.472
 6327SOL    HW219734   3.107   2.237  13.567
 6328SOL     OW19735   2.456   2.607  13.686
 6328SOL    HW119736   2.506   2.692  13.667
 6328SOL    HW219737   2.368   2.609  13.638
 6329SOL     OW19738   2.721   3.236  13.050
 6329SOL    HW119739   2.675   3.251  13.138
 6329SOL    HW219740   2.765   3.321  13.020
 6330SOL     OW19741   2.523   3.652  13.987
 6330SOL    HW119742   2.477   3.740  13.974
 6330SOL    HW219743   2.622   3.664  13.980
 6331SOL     OW19744   2.721   2.818  13.895
 6331SOL    HW119745   2.775   2.749  13.943
 6331SOL    HW219746   2.689   2.887  13.961
 6332SOL     OW19747   2.945   2.846  13.121
 6332SOL    HW119748   2.922   2.899  13.039
 6332SOL    HW219749   3.026   2.790  13.102
 6333SOL     OW19750   1.941   3.102  13.687
 6333SOL    HW119751   1.940   3.055  13.775
 6333SOL    HW219752   2.023   3.074  13.636
 6334SOL     OW19753   3.567   3.349  14.138
 6334SOL    HW119754   3.474   3.324  14.111
 6334SOL    HW219755   3.593   3.299  14.220
 6335SOL     OW19756   2.674   3.448  13.721
 6335SOL    HW119757   2.706   3.458  13.627
 6335SOL    HW219758   2.595   3.386  13.723
 6336SOL     OW19759   2.632   3.192  13.335
 6336SOL    HW119760   2.586   3.105  13.352
 6336SOL    HW219761   2.723   3.189  13.376
 6337SOL     OW19762   3.214   1.914  13.202
 6337SOL    HW119763   3.249   1.873  13.118
 6337SOL    HW219764   3.124   1.876  13.222
 6338SOL     OW19765   3.162   2.315  13.725
 6338SOL    HW119766   3.103   2.395  13.729
 6338SOL    HW219767   3.177   2.280  13.818
 6339SOL     OW19768   1.901   2.939  13.334
 6339SOL    HW119769   2.000   2.928  13.325
 6339SOL    HW219770   1.861   2.853  13.366
 6340SOL     OW19771   2.737   3.508  13.371
 6340SOL    HW119772   2.660   3.473  13.317
 6340SOL    HW219773   2.705   3.579  13.433
 6341SOL     OW19774   2.087   3.999   0.996
 6341SOL    HW119775   2.122   3.982   1.088
 6341SOL    HW219776   1.999   3.954   0.984
 6342SOL     OW19777   1.881   4.092   0.647
 6342SOL    HW119778   1.799   4.135   0.686
 6342SOL    HW219779   1.853   4.019   0.584
 6343SOL     OW19780   3.617   4.331   0.231
 6343SOL    HW119781   3.605   4.318   0.132
 6343SOL    HW219782   3.587   4.250   0.280
 6344SOL     OW19783   2.300   4.116   1.499
 6344SOL    HW119784   2.382   4.060   1.508
 6344SOL    HW219785   2.219   4.058   1.503
 6345SOL     OW19786   3.456   3.838   1.480
 6345SOL    HW119787   3.438   3.905   1.408
 6345SOL    HW219788   3.453   3.884   1.569
 6346SOL     OW19789   2.671   3.728   0.502
 6346SOL    HW119790   2.711   3.819   0.493
 6346SOL    HW219791   2.571   3.736   0.508
 6347SOL     OW19792   3.143   4.069   0.944
 6347SOL    HW119793   3.057   4.019   0.931
 6347SOL    HW219794   3.205   4.015   1.000
 6348SOL     OW19795   2.412   3.920   0.885
 6348SOL    HW119796   2.407   3.915   0.985
 6348SOL    HW219797   2.414   4.016   0.856
 6349SOL     OW19798   2.064   4.009   1.498
 6349SOL    HW119799   1.984   4.069   1.485
 6349SOL    HW219800   2.054   3.960   1.584
 6350SOL     OW19801   3.262   3.831   0.426
 6350SOL    HW119802   3.238   3.794   0.336
 6350SOL    HW219803   3.361   3.847   0.430
 6351SOL     OW19804   3.409   3.946   1.729
 6351SOL    HW119805   3.404   3.983   1.821
 6351SOL    HW219806   3.337   3.877   1.717
 6352SOL     OW19807   2.643   3.988   1.749
 6352SOL    HW119808   2.710   3.927   1.792
 6352SOL    HW219809   2.570   4.007   1.814
 6353SOL     OW19810   2.401   3.788   0.512
 6353SOL    HW119811   2.320   3.789   0.570
 6353SOL    HW219812   2.404   3.871   0.457
 6354SOL     OW19813   2.159   3.759   0.171
 6354SOL    HW119814   2.208   3.843   0.150
 6354SOL    HW219815   2.221   3.694   0.216
 6355SOL     OW19816   2.423   3.946   1.147
 6355SOL    HW119817   2.461   3.862   1.184
 6355SOL    HW219818   2.335   3.965   1.191
 6356SOL     OW19819   2.879   3.763   0.753
 6356SOL    HW119820   2.807   3.768   0.684
 6356SOL    HW219821   2.855   3.694   0.822
 6357SOL     OW19822   2.777   3.813   1.402
 6357SOL    HW119823   2.802   3.793   1.307
 6357SOL    HW219824   2.849   3.869   1.444
 6358SOL     OW19825   3.136   4.110   1.262
 6358SOL    HW119826   3.157   4.184   1.326
 6358SOL    HW219827   3.047   4.127   1.219
 6359SOL     OW19828   2.366   3.774   1.740
 6359SOL    HW119829   2.324   3.717   1.670
 6359SOL    HW219830   2.300   3.843   1.772
 6360SOL     OW19831   2.169   3.937   1.231
 6360SOL    HW119832   2.146   3.974   1.321
 6360SOL    HW219833   2.139   3.842   1.225
 6361SOL     OW19834   3.402   3.998   0.125
 6361SOL    HW119835   3.341   3.923   0.148
 6361SOL    HW219836   3.424   4.050   0.208
 6362SOL     OW19837   3.022   3.931   1.477
 6362SOL    HW119838   3.022   3.995   1.554
 6362SOL    HW219839   3.050   3.979   1.394
 6363SOL     OW19840   2.765   3.810   0.133
 6363SOL    HW119841   2.816   3.811   0.047
 6363SOL    HW219842   2.821   3.768   0.204
 6364SOL     OW19843   3.588   3.859   0.523
 6364SOL    HW119844   3.661   3.842   0.456
 6364SOL    HW219845   3.557   3.772   0.561
 6365SOL     OW19846   3.703   3.899   0.963
 6365SOL    HW119847   3.742   3.814   0.927
 6365SOL    HW219848   3.605   3.901   0.944
 6366SOL     OW19849   2.534   3.927   1.489
 6366SOL    HW119850   2.624   3.911   1.449
 6366SOL    HW219851   2.542   3.932   1.588
 6367SOL     OW19852   1.934   3.890   0.318
 6367SOL    HW119853   1.917   3.973   0.264
 6367SOL    HW219854   2.024   3.853   0.296
 6368SOL     OW19855   3.087   4.049   0.449
 6368SOL    HW119856   3.152   3.975   0.438
 6368SOL    HW219857   3.107   4.099   0.533
 6369SOL     OW19858   3.639   4.066   1.642
 6369SOL    HW119859   3.622   4.097   1.548
 6369SOL    HW219860   3.555   4.029   1.680
 6370SOL     OW19861   3.686   3.916   1.227
 6370SOL    HW119862   3.682   3.826   1.271
 6370SOL    HW219863   3.689   3.905   1.128
 6371SOL     OW19864   3.286   3.938   1.112
 6371SOL    HW119865   3.338   3.873   1.167
 6371SOL    HW219866   3.237   4.001   1.173
 6372SOL     OW19867   2.863   3.758   1.154
 6372SOL    HW119868   2.800   3.686   1.123
 6372SOL    HW219869   2.956   3.722   1.154
 6373SOL     OW19870   3.214   3.776   0.168
 6373SOL    HW119871   3.249   3.735   0.084
 6373SOL    HW219872   3.124   3.738   0.188
 6374SOL     OW19873   3.162   4.177   0.691
 6374SOL    HW119874   3.103   4.257   0.695
 6374SOL    HW219875   3.177   4.142   0.784
 6375SOL     OW19876   3.455   3.945   0.882
 6375SOL    HW119877   3.371   3.944   0.936
 6375SOL    HW219878   3.457   4.028   0.826
 6376SOL     OW19879   2.087   3.999   2.858
 6376SOL    HW119880   2.122   3.982   2.950
 6376SOL    HW219881   1.999   3.954   2.846
 6377SOL     OW19882   1.881   4.092   2.509
 6377SOL    HW119883   1.799   4.135   2.548
 6377SOL    HW219884   1.853   4.019   2.446
 6378SOL     OW19885   3.617   4.331   2.093
 6378SOL    HW119886   3.605   4.318   1.994
 6378SOL    HW219887   3.587   4.250   2.142
 6379SOL     OW19888   2.300   4.116   3.361
 6379SOL    HW119889   2.382   4.060   3.370
 6379SOL    HW219890   2.219   4.058   3.365
 6380SOL     OW19891   3.456   3.838   3.342
 6380SOL    HW119892   3.438   3.905   3.270
 6380SOL    HW219893   3.453   3.884   3.431
 6381SOL     OW19894   2.671   3.728   2.364
 6381SOL    HW119895   2.711   3.819   2.355
 6381SOL    HW219896   2.571   3.736   2.370
 6382SOL     OW19897   3.143   4.069   2.806
 6382SOL    HW119898   3.057   4.019   2.793
 6382SOL    HW219899   3.205   4.015   2.862
 6383SOL     OW19900   2.412   3.920   2.747
 6383SOL    HW119901   2.407   3.915   2.847
 6383SOL    HW219902   2.414   4.016   2.718
 6384SOL     OW19903   2.064   4.009   3.360
 6384SOL    HW119904   1.984   4.069   3.347
 6384SOL    HW219905   2.054   3.960   3.446
 6385SOL     OW19906   3.262   3.831   2.288
 6385SOL    HW119907   3.238   3.794   2.198
 6385SOL    HW219908   3.361   3.847   2.292
 6386SOL     OW19909   3.409   3.946   3.591
 6386SOL    HW119910   3.404   3.983   3.683
 6386SOL    HW219911   3.337   3.877   3.579
 6387SOL     OW19912   2.476   3.846   1.979
 6387SOL    HW119913   2.574   3.824   1.986
 6387SOL    HW219914   2.445   3.829   1.886
 6388SOL     OW19915   2.643   3.988   3.611
 6388SOL    HW119916   2.710   3.927   3.654
 6388SOL    HW219917   2.570   4.007   3.676
 6389SOL     OW19918   2.401   3.788   2.374
 6389SOL    HW119919   2.320   3.789   2.432
 6389SOL    HW219920   2.404   3.871   2.319
 6390SOL     OW19921   2.159   3.759   2.033
 6390SOL    HW119922   2.208   3.843   2.012
 6390SOL    HW219923   2.221   3.694   2.078
 6391SOL     OW19924   2.423   3.946   3.009
 6391SOL    HW119925   2.461   3.862   3.046
 6391SOL    HW219926   2.335   3.965   3.053
 6392SOL     OW19927   2.879   3.763   2.615
 6392SOL    HW119928   2.807   3.768   2.546
 6392SOL    HW219929   2.855   3.694   2.684
 6393SOL     OW19930   2.777   3.813   3.264
 6393SOL    HW119931   2.802   3.793   3.169
 6393SOL    HW219932   2.849   3.869   3.306
 6394SOL     OW19933   3.136   4.110   3.124
 6394SOL    HW119934   3.157   4.184   3.188
 6394SOL    HW219935   3.047   4.127   3.081
 6395SOL     OW19936   2.366   3.774   3.602
 6395SOL    HW119937   2.324   3.717   3.532
 6395SOL    HW219938   2.300   3.843   3.634
 6396SOL     OW19939   2.169   3.937   3.093
 6396SOL    HW119940   2.146   3.974   3.183
 6396SOL    HW219941   2.139   3.842   3.087
 6397SOL     OW19942   3.402   3.998   1.987
 6397SOL    HW119943   3.341   3.923   2.010
 6397SOL    HW219944   3.424   4.050   2.070
 6398SOL     OW19945   3.022   3.931   3.339
 6398SOL    HW119946   3.022   3.995   3.416
 6398SOL    HW219947   3.050   3.979   3.256
 6399SOL     OW19948   2.765   3.810   1.995
 6399SOL    HW119949   2.816   3.811   1.909
 6399SOL    HW219950   2.821   3.768   2.066
 6400SOL     OW19951   3.588   3.859   2.385
 6400SOL    HW119952   3.661   3.842   2.318
 6400SOL    HW219953   3.557   3.772   2.423
 6401SOL     OW19954   3.703   3.899   2.825
 6401SOL    HW119955   3.742   3.814   2.789
 6401SOL    HW219956   3.605   3.901   2.806
 6402SOL     OW19957   2.534   3.927   3.351
 6402SOL    HW119958   2.624   3.911   3.311
 6402SOL    HW219959   2.542   3.932   3.450
 6403SOL     OW19960   1.937   4.069   1.895
 6403SOL    HW119961   1.845   4.041   1.866
 6403SOL    HW219962   1.968   4.146   1.839
 6404SOL     OW19963   1.934   3.890   2.180
 6404SOL    HW119964   1.917   3.973   2.126
 6404SOL    HW219965   2.024   3.853   2.158
 6405SOL     OW19966   3.087   4.049   2.311
 6405SOL    HW119967   3.152   3.975   2.300
 6405SOL    HW219968   3.107   4.099   2.395
 6406SOL     OW19969   3.639   4.066   3.504
 6406SOL    HW119970   3.622   4.097   3.410
 6406SOL    HW219971   3.555   4.029   3.542
 6407SOL     OW19972   3.686   3.916   3.089
 6407SOL    HW119973   3.682   3.826   3.133
 6407SOL    HW219974   3.689   3.905   2.990
 6408SOL     OW19975   3.286   3.938   2.974
 6408SOL    HW119976   3.338   3.873   3.029
 6408SOL    HW219977   3.237   4.001   3.035
 6409SOL     OW19978   2.863   3.758   3.016
 6409SOL    HW119979   2.800   3.686   2.985
 6409SOL    HW219980   2.956   3.722   3.016
 6410SOL     OW19981   3.214   3.776   2.030
 6410SOL    HW119982   3.249   3.735   1.946
 6410SOL    HW219983   3.124   3.738   2.050
 6411SOL     OW19984   3.162   4.177   2.553
 6411SOL    HW119985   3.103   4.257   2.557
 6411SOL    HW219986   3.177   4.142   2.646
 6412SOL     OW19987   3.455   3.945   2.744
 6412SOL    HW119988   3.371   3.944   2.798
 6412SOL    HW219989   3.457   4.028   2.688
 6413SOL     OW19990   2.087   3.999   4.720
 6413SOL    HW119991   2.122   3.982   4.812
 6413SOL    HW219992   1.999   3.954   4.708
 6414SOL     OW19993   1.881   4.092   4.371
 6414SOL    HW119994   1.799   4.135   4.410
 6414SOL    HW219995   1.853   4.019   4.308
 6415SOL     OW19996   3.617   4.331   3.955
 6415SOL    HW119997   3.605   4.318   3.856
 6415SOL    HW219998   3.587   4.250   4.004
 6416SOL     OW19999   2.300   4.116   5.223
 6416SOL    HW120000   2.382   4.060   5.232
 6416SOL    HW220001   2.219   4.058   5.227
 6417SOL     OW20002   3.456   3.838   5.204
 6417SOL    HW120003   3.438   3.905   5.132
 6417SOL    HW220004   3.453   3.884   5.293
 6418SOL     OW20005   2.671   3.728   4.226
 6418SOL    HW120006   2.711   3.819   4.217
 6418SOL    HW220007   2.571   3.736   4.232
 6419SOL     OW20008   3.143   4.069   4.668
 6419SOL    HW120009   3.057   4.019   4.655
 6419SOL    HW220010   3.205   4.015   4.724
 6420SOL     OW20011   2.412   3.920   4.609
 6420SOL    HW120012   2.407   3.915   4.709
 6420SOL    HW220013   2.414   4.016   4.580
 6421SOL     OW20014   2.064   4.009   5.222
 6421SOL    HW120015   1.984   4.069   5.209
 6421SOL    HW220016   2.054   3.960   5.308
 6422SOL     OW20017   3.262   3.831   4.150
 6422SOL    HW120018   3.238   3.794   4.060
 6422SOL    HW220019   3.361   3.847   4.154
 6423SOL     OW20020   3.409   3.946   5.453
 6423SOL    HW120021   3.404   3.983   5.545
 6423SOL    HW220022   3.337   3.877   5.441
 6424SOL     OW20023   2.476   3.846   3.841
 6424SOL    HW120024   2.574   3.824   3.848
 6424SOL    HW220025   2.445   3.829   3.748
 6425SOL     OW20026   2.643   3.988   5.473
 6425SOL    HW120027   2.710   3.927   5.516
 6425SOL    HW220028   2.570   4.007   5.538
 6426SOL     OW20029   2.401   3.788   4.236
 6426SOL    HW120030   2.320   3.789   4.294
 6426SOL    HW220031   2.404   3.871   4.181
 6427SOL     OW20032   2.159   3.759   3.895
 6427SOL    HW120033   2.208   3.843   3.874
 6427SOL    HW220034   2.221   3.694   3.940
 6428SOL     OW20035   2.423   3.946   4.871
 6428SOL    HW120036   2.461   3.862   4.908
 6428SOL    HW220037   2.335   3.965   4.915
 6429SOL     OW20038   2.879   3.763   4.477
 6429SOL    HW120039   2.807   3.768   4.408
 6429SOL    HW220040   2.855   3.694   4.546
 6430SOL     OW20041   2.777   3.813   5.126
 6430SOL    HW120042   2.802   3.793   5.031
 6430SOL    HW220043   2.849   3.869   5.168
 6431SOL     OW20044   3.136   4.110   4.986
 6431SOL    HW120045   3.157   4.184   5.050
 6431SOL    HW220046   3.047   4.127   4.943
 6432SOL     OW20047   2.366   3.774   5.464
 6432SOL    HW120048   2.324   3.717   5.394
 6432SOL    HW220049   2.300   3.843   5.496
 6433SOL     OW20050   2.169   3.937   4.955
 6433SOL    HW120051   2.146   3.974   5.045
 6433SOL    HW220052   2.139   3.842   4.949
 6434SOL     OW20053   3.402   3.998   3.849
 6434SOL    HW120054   3.341   3.923   3.872
 6434SOL    HW220055   3.424   4.050   3.932
 6435SOL     OW20056   3.022   3.931   5.201
 6435SOL    HW120057   3.022   3.995   5.278
 6435SOL    HW220058   3.050   3.979   5.118
 6436SOL     OW20059   2.765   3.810   3.857
 6436SOL    HW120060   2.816   3.811   3.771
 6436SOL    HW220061   2.821   3.768   3.928
 6437SOL     OW20062   3.588   3.859   4.247
 6437SOL    HW120063   3.661   3.842   4.180
 6437SOL    HW220064   3.557   3.772   4.285
 6438SOL     OW20065   3.703   3.899   4.687
 6438SOL    HW120066   3.742   3.814   4.651
 6438SOL    HW220067   3.605   3.901   4.668
 6439SOL     OW20068   2.534   3.927   5.213
 6439SOL    HW120069   2.624   3.911   5.173
 6439SOL    HW220070   2.542   3.932   5.312
 6440SOL     OW20071   1.937   4.069   3.757
 6440SOL    HW120072   1.845   4.041   3.728
 6440SOL    HW220073   1.968   4.146   3.701
 6441SOL     OW20074   1.934   3.890   4.042
 6441SOL    HW120075   1.917   3.973   3.988
 6441SOL    HW220076   2.024   3.853   4.020
 6442SOL     OW20077   3.087   4.049   4.173
 6442SOL    HW120078   3.152   3.975   4.162
 6442SOL    HW220079   3.107   4.099   4.257
 6443SOL     OW20080   3.639   4.066   5.366
 6443SOL    HW120081   3.622   4.097   5.272
 6443SOL    HW220082   3.555   4.029   5.404
 6444SOL     OW20083   3.686   3.916   4.951
 6444SOL    HW120084   3.682   3.826   4.995
 6444SOL    HW220085   3.689   3.905   4.852
 6445SOL     OW20086   3.286   3.938   4.836
 6445SOL    HW120087   3.338   3.873   4.891
 6445SOL    HW220088   3.237   4.001   4.897
 6446SOL     OW20089   2.863   3.758   4.878
 6446SOL    HW120090   2.800   3.686   4.847
 6446SOL    HW220091   2.956   3.722   4.878
 6447SOL     OW20092   3.214   3.776   3.892
 6447SOL    HW120093   3.249   3.735   3.808
 6447SOL    HW220094   3.124   3.738   3.912
 6448SOL     OW20095   3.162   4.177   4.415
 6448SOL    HW120096   3.103   4.257   4.419
 6448SOL    HW220097   3.177   4.142   4.508
 6449SOL     OW20098   3.455   3.945   4.606
 6449SOL    HW120099   3.371   3.944   4.660
 6449SOL    HW220100   3.457   4.028   4.550
 6450SOL     OW20101   2.087   3.999   6.582
 6450SOL    HW120102   2.122   3.982   6.674
 6450SOL    HW220103   1.999   3.954   6.570
 6451SOL     OW20104   1.881   4.092   6.233
 6451SOL    HW120105   1.799   4.135   6.272
 6451SOL    HW220106   1.853   4.019   6.170
 6452SOL     OW20107   3.617   4.331   5.817
 6452SOL    HW120108   3.605   4.318   5.718
 6452SOL    HW220109   3.587   4.250   5.866
 6453SOL     OW20110   2.300   4.116   7.085
 6453SOL    HW120111   2.382   4.060   7.094
 6453SOL    HW220112   2.219   4.058   7.089
 6454SOL     OW20113   3.456   3.838   7.066
 6454SOL    HW120114   3.438   3.905   6.994
 6454SOL    HW220115   3.453   3.884   7.155
 6455SOL     OW20116   2.671   3.728   6.088
 6455SOL    HW120117   2.711   3.819   6.079
 6455SOL    HW220118   2.571   3.736   6.094
 6456SOL     OW20119   3.143   4.069   6.530
 6456SOL    HW120120   3.057   4.019   6.517
 6456SOL    HW220121   3.205   4.015   6.586
 6457SOL     OW20122   2.412   3.920   6.471
 6457SOL    HW120123   2.407   3.915   6.571
 6457SOL    HW220124   2.414   4.016   6.442
 6458SOL     OW20125   2.064   4.009   7.084
 6458SOL    HW120126   1.984   4.069   7.071
 6458SOL    HW220127   2.054   3.960   7.170
 6459SOL     OW20128   3.262   3.831   6.012
 6459SOL    HW120129   3.238   3.794   5.922
 6459SOL    HW220130   3.361   3.847   6.016
 6460SOL     OW20131   3.409   3.946   7.315
 6460SOL    HW120132   3.404   3.983   7.407
 6460SOL    HW220133   3.337   3.877   7.303
 6461SOL     OW20134   2.476   3.846   5.703
 6461SOL    HW120135   2.574   3.824   5.710
 6461SOL    HW220136   2.445   3.829   5.610
 6462SOL     OW20137   2.643   3.988   7.335
 6462SOL    HW120138   2.710   3.927   7.378
 6462SOL    HW220139   2.570   4.007   7.400
 6463SOL     OW20140   2.401   3.788   6.098
 6463SOL    HW120141   2.320   3.789   6.156
 6463SOL    HW220142   2.404   3.871   6.043
 6464SOL     OW20143   2.159   3.759   5.757
 6464SOL    HW120144   2.208   3.843   5.736
 6464SOL    HW220145   2.221   3.694   5.802
 6465SOL     OW20146   2.423   3.946   6.733
 6465SOL    HW120147   2.461   3.862   6.770
 6465SOL    HW220148   2.335   3.965   6.777
 6466SOL     OW20149   2.879   3.763   6.339
 6466SOL    HW120150   2.807   3.768   6.270
 6466SOL    HW220151   2.855   3.694   6.408
 6467SOL     OW20152   2.777   3.813   6.988
 6467SOL    HW120153   2.802   3.793   6.893
 6467SOL    HW220154   2.849   3.869   7.030
 6468SOL     OW20155   3.136   4.110   6.848
 6468SOL    HW120156   3.157   4.184   6.912
 6468SOL    HW220157   3.047   4.127   6.805
 6469SOL     OW20158   2.366   3.774   7.326
 6469SOL    HW120159   2.324   3.717   7.256
 6469SOL    HW220160   2.300   3.843   7.358
 6470SOL     OW20161   2.169   3.937   6.817
 6470SOL    HW120162   2.146   3.974   6.907
 6470SOL    HW220163   2.139   3.842   6.811
 6471SOL     OW20164   3.402   3.998   5.711
 6471SOL    HW120165   3.341   3.923   5.734
 6471SOL    HW220166   3.424   4.050   5.794
 6472SOL     OW20167   3.022   3.931   7.063
 6472SOL    HW120168   3.022   3.995   7.140
 6472SOL    HW220169   3.050   3.979   6.980
 6473SOL     OW20170   2.765   3.810   5.719
 6473SOL    HW120171   2.816   3.811   5.633
 6473SOL    HW220172   2.821   3.768   5.790
 6474SOL     OW20173   3.588   3.859   6.109
 6474SOL    HW120174   3.661   3.842   6.042
 6474SOL    HW220175   3.557   3.772   6.147
 6475SOL     OW20176   3.703   3.899   6.549
 6475SOL    HW120177   3.742   3.814   6.513
 6475SOL    HW220178   3.605   3.901   6.530
 6476SOL     OW20179   2.534   3.927   7.075
 6476SOL    HW120180   2.624   3.911   7.035
 6476SOL    HW220181   2.542   3.932   7.174
 6477SOL     OW20182   1.937   4.069   5.619
 6477SOL    HW120183   1.845   4.041   5.590
 6477SOL    HW220184   1.968   4.146   5.563
 6478SOL     OW20185   1.934   3.890   5.904
 6478SOL    HW120186   1.917   3.973   5.850
 6478SOL    HW220187   2.024   3.853   5.882
 6479SOL     OW20188   3.087   4.049   6.035
 6479SOL    HW120189   3.152   3.975   6.024
 6479SOL    HW220190   3.107   4.099   6.119
 6480SOL     OW20191   3.639   4.066   7.228
 6480SOL    HW120192   3.622   4.097   7.134
 6480SOL    HW220193   3.555   4.029   7.266
 6481SOL     OW20194   3.686   3.916   6.813
 6481SOL    HW120195   3.682   3.826   6.857
 6481SOL    HW220196   3.689   3.905   6.714
 6482SOL     OW20197   3.286   3.938   6.698
 6482SOL    HW120198   3.338   3.873   6.753
 6482SOL    HW220199   3.237   4.001   6.759
 6483SOL     OW20200   2.863   3.758   6.740
 6483SOL    HW120201   2.800   3.686   6.709
 6483SOL    HW220202   2.956   3.722   6.740
 6484SOL     OW20203   3.214   3.776   5.754
 6484SOL    HW120204   3.249   3.735   5.670
 6484SOL    HW220205   3.124   3.738   5.774
 6485SOL     OW20206   3.162   4.177   6.277
 6485SOL    HW120207   3.103   4.257   6.281
 6485SOL    HW220208   3.177   4.142   6.370
 6486SOL     OW20209   3.455   3.945   6.468
 6486SOL    HW120210   3.371   3.944   6.522
 6486SOL    HW220211   3.457   4.028   6.412
 6487SOL     OW20212   2.087   3.999   8.444
 6487SOL    HW120213   2.122   3.982   8.536
 6487SOL    HW220214   1.999   3.954   8.432
 6488SOL     OW20215   1.881   4.092   8.095
 6488SOL    HW120216   1.799   4.135   8.134
 6488SOL    HW220217   1.853   4.019   8.032
 6489SOL     OW20218   3.617   4.331   7.679
 6489SOL    HW120219   3.605   4.318   7.580
 6489SOL    HW220220   3.587   4.250   7.728
 6490SOL     OW20221   2.300   4.116   8.947
 6490SOL    HW120222   2.382   4.060   8.956
 6490SOL    HW220223   2.219   4.058   8.951
 6491SOL     OW20224   3.456   3.838   8.928
 6491SOL    HW120225   3.438   3.905   8.856
 6491SOL    HW220226   3.453   3.884   9.017
 6492SOL     OW20227   2.671   3.728   7.950
 6492SOL    HW120228   2.711   3.819   7.941
 6492SOL    HW220229   2.571   3.736   7.956
 6493SOL     OW20230   3.143   4.069   8.392
 6493SOL    HW120231   3.057   4.019   8.379
 6493SOL    HW220232   3.205   4.015   8.448
 6494SOL     OW20233   2.412   3.920   8.333
 6494SOL    HW120234   2.407   3.915   8.433
 6494SOL    HW220235   2.414   4.016   8.304
 6495SOL     OW20236   2.064   4.009   8.946
 6495SOL    HW120237   1.984   4.069   8.933
 6495SOL    HW220238   2.054   3.960   9.032
 6496SOL     OW20239   3.262   3.831   7.874
 6496SOL    HW120240   3.238   3.794   7.784
 6496SOL    HW220241   3.361   3.847   7.878
 6497SOL     OW20242   3.409   3.946   9.177
 6497SOL    HW120243   3.404   3.983   9.269
 6497SOL    HW220244   3.337   3.877   9.165
 6498SOL     OW20245   2.476   3.846   7.565
 6498SOL    HW120246   2.574   3.824   7.572
 6498SOL    HW220247   2.445   3.829   7.472
 6499SOL     OW20248   2.643   3.988   9.197
 6499SOL    HW120249   2.710   3.927   9.240
 6499SOL    HW220250   2.570   4.007   9.262
 6500SOL     OW20251   2.401   3.788   7.960
 6500SOL    HW120252   2.320   3.789   8.018
 6500SOL    HW220253   2.404   3.871   7.905
 6501SOL     OW20254   2.159   3.759   7.619
 6501SOL    HW120255   2.208   3.843   7.598
 6501SOL    HW220256   2.221   3.694   7.664
 6502SOL     OW20257   2.423   3.946   8.595
 6502SOL    HW120258   2.461   3.862   8.632
 6502SOL    HW220259   2.335   3.965   8.639
 6503SOL     OW20260   2.879   3.763   8.201
 6503SOL    HW120261   2.807   3.768   8.132
 6503SOL    HW220262   2.855   3.694   8.270
 6504SOL     OW20263   2.777   3.813   8.850
 6504SOL    HW120264   2.802   3.793   8.755
 6504SOL    HW220265   2.849   3.869   8.892
 6505SOL     OW20266   3.136   4.110   8.710
 6505SOL    HW120267   3.157   4.184   8.774
 6505SOL    HW220268   3.047   4.127   8.667
 6506SOL     OW20269   2.366   3.774   9.188
 6506SOL    HW120270   2.324   3.717   9.118
 6506SOL    HW220271   2.300   3.843   9.220
 6507SOL     OW20272   2.169   3.937   8.679
 6507SOL    HW120273   2.146   3.974   8.769
 6507SOL    HW220274   2.139   3.842   8.673
 6508SOL     OW20275   3.402   3.998   7.573
 6508SOL    HW120276   3.341   3.923   7.596
 6508SOL    HW220277   3.424   4.050   7.656
 6509SOL     OW20278   3.022   3.931   8.925
 6509SOL    HW120279   3.022   3.995   9.002
 6509SOL    HW220280   3.050   3.979   8.842
 6510SOL     OW20281   2.765   3.810   7.581
 6510SOL    HW120282   2.816   3.811   7.495
 6510SOL    HW220283   2.821   3.768   7.652
 6511SOL     OW20284   3.588   3.859   7.971
 6511SOL    HW120285   3.661   3.842   7.904
 6511SOL    HW220286   3.557   3.772   8.009
 6512SOL     OW20287   3.703   3.899   8.411
 6512SOL    HW120288   3.742   3.814   8.375
 6512SOL    HW220289   3.605   3.901   8.392
 6513SOL     OW20290   2.534   3.927   8.937
 6513SOL    HW120291   2.624   3.911   8.897
 6513SOL    HW220292   2.542   3.932   9.036
 6514SOL     OW20293   1.937   4.069   7.481
 6514SOL    HW120294   1.845   4.041   7.452
 6514SOL    HW220295   1.968   4.146   7.425
 6515SOL     OW20296   1.934   3.890   7.766
 6515SOL    HW120297   1.917   3.973   7.712
 6515SOL    HW220298   2.024   3.853   7.744
 6516SOL     OW20299   3.087   4.049   7.897
 6516SOL    HW120300   3.152   3.975   7.886
 6516SOL    HW220301   3.107   4.099   7.981
 6517SOL     OW20302   3.639   4.066   9.090
 6517SOL    HW120303   3.622   4.097   8.996
 6517SOL    HW220304   3.555   4.029   9.128
 6518SOL     OW20305   3.686   3.916   8.675
 6518SOL    HW120306   3.682   3.826   8.719
 6518SOL    HW220307   3.689   3.905   8.576
 6519SOL     OW20308   3.286   3.938   8.560
 6519SOL    HW120309   3.338   3.873   8.615
 6519SOL    HW220310   3.237   4.001   8.621
 6520SOL     OW20311   2.863   3.758   8.602
 6520SOL    HW120312   2.800   3.686   8.571
 6520SOL    HW220313   2.956   3.722   8.602
 6521SOL     OW20314   3.214   3.776   7.616
 6521SOL    HW120315   3.249   3.735   7.532
 6521SOL    HW220316   3.124   3.738   7.636
 6522SOL     OW20317   3.162   4.177   8.139
 6522SOL    HW120318   3.103   4.257   8.143
 6522SOL    HW220319   3.177   4.142   8.232
 6523SOL     OW20320   3.455   3.945   8.330
 6523SOL    HW120321   3.371   3.944   8.384
 6523SOL    HW220322   3.457   4.028   8.274
 6524SOL     OW20323   2.087   3.999  10.306
 6524SOL    HW120324   2.122   3.982  10.398
 6524SOL    HW220325   1.999   3.954  10.294
 6525SOL     OW20326   1.881   4.092   9.957
 6525SOL    HW120327   1.799   4.135   9.996
 6525SOL    HW220328   1.853   4.019   9.894
 6526SOL     OW20329   3.617   4.331   9.541
 6526SOL    HW120330   3.605   4.318   9.442
 6526SOL    HW220331   3.587   4.250   9.590
 6527SOL     OW20332   2.300   4.116  10.809
 6527SOL    HW120333   2.382   4.060  10.818
 6527SOL    HW220334   2.219   4.058  10.813
 6528SOL     OW20335   3.456   3.838  10.790
 6528SOL    HW120336   3.438   3.905  10.718
 6528SOL    HW220337   3.453   3.884  10.879
 6529SOL     OW20338   2.671   3.728   9.812
 6529SOL    HW120339   2.711   3.819   9.803
 6529SOL    HW220340   2.571   3.736   9.818
 6530SOL     OW20341   3.143   4.069  10.254
 6530SOL    HW120342   3.057   4.019  10.241
 6530SOL    HW220343   3.205   4.015  10.310
 6531SOL     OW20344   2.412   3.920  10.195
 6531SOL    HW120345   2.407   3.915  10.295
 6531SOL    HW220346   2.414   4.016  10.166
 6532SOL     OW20347   2.064   4.009  10.808
 6532SOL    HW120348   1.984   4.069  10.795
 6532SOL    HW220349   2.054   3.960  10.894
 6533SOL     OW20350   3.262   3.831   9.736
 6533SOL    HW120351   3.238   3.794   9.646
 6533SOL    HW220352   3.361   3.847   9.740
 6534SOL     OW20353   3.409   3.946  11.039
 6534SOL    HW120354   3.404   3.983  11.131
 6534SOL    HW220355   3.337   3.877  11.027
 6535SOL     OW20356   2.476   3.846   9.427
 6535SOL    HW120357   2.574   3.824   9.434
 6535SOL    HW220358   2.445   3.829   9.334
 6536SOL     OW20359   2.643   3.988  11.059
 6536SOL    HW120360   2.710   3.927  11.102
 6536SOL    HW220361   2.570   4.007  11.124
 6537SOL     OW20362   2.401   3.788   9.822
 6537SOL    HW120363   2.320   3.789   9.880
 6537SOL    HW220364   2.404   3.871   9.767
 6538SOL     OW20365   2.159   3.759   9.481
 6538SOL    HW120366   2.208   3.843   9.460
 6538SOL    HW220367   2.221   3.694   9.526
 6539SOL     OW20368   2.423   3.946  10.457
 6539SOL    HW120369   2.461   3.862  10.494
 6539SOL    HW220370   2.335   3.965  10.501
 6540SOL     OW20371   2.879   3.763  10.063
 6540SOL    HW120372   2.807   3.768   9.994
 6540SOL    HW220373   2.855   3.694  10.132
 6541SOL     OW20374   2.777   3.813  10.712
 6541SOL    HW120375   2.802   3.793  10.617
 6541SOL    HW220376   2.849   3.869  10.754
 6542SOL     OW20377   3.136   4.110  10.572
 6542SOL    HW120378   3.157   4.184  10.636
 6542SOL    HW220379   3.047   4.127  10.529
 6543SOL     OW20380   2.366   3.774  11.050
 6543SOL    HW120381   2.324   3.717  10.980
 6543SOL    HW220382   2.300   3.843  11.082
 6544SOL     OW20383   2.169   3.937  10.541
 6544SOL    HW120384   2.146   3.974  10.631
 6544SOL    HW220385   2.139   3.842  10.535
 6545SOL     OW20386   3.402   3.998   9.435
 6545SOL    HW120387   3.341   3.923   9.458
 6545SOL    HW220388   3.424   4.050   9.518
 6546SOL     OW20389   3.022   3.931  10.787
 6546SOL    HW120390   3.022   3.995  10.864
 6546SOL    HW220391   3.050   3.979  10.704
 6547SOL     OW20392   2.765   3.810   9.443
 6547SOL    HW120393   2.816   3.811   9.357
 6547SOL    HW220394   2.821   3.768   9.514
 6548SOL     OW20395   3.588   3.859   9.833
 6548SOL    HW120396   3.661   3.842   9.766
 6548SOL    HW220397   3.557   3.772   9.871
 6549SOL     OW20398   3.703   3.899  10.273
 6549SOL    HW120399   3.742   3.814  10.237
 6549SOL    HW220400   3.605   3.901  10.254
 6550SOL     OW20401   2.534   3.927  10.799
 6550SOL    HW120402   2.624   3.911  10.759
 6550SOL    HW220403   2.542   3.932  10.898
 6551SOL     OW20404   1.937   4.069   9.343
 6551SOL    HW120405   1.845   4.041   9.314
 6551SOL    HW220406   1.968   4.146   9.287
 6552SOL     OW20407   1.934   3.890   9.628
 6552SOL    HW120408   1.917   3.973   9.574
 6552SOL    HW220409   2.024   3.853   9.606
 6553SOL     OW20410   3.087   4.049   9.759
 6553SOL    HW120411   3.152   3.975   9.748
 6553SOL    HW220412   3.107   4.099   9.843
 6554SOL     OW20413   3.639   4.066  10.952
 6554SOL    HW120414   3.622   4.097  10.858
 6554SOL    HW220415   3.555   4.029  10.990
 6555SOL     OW20416   3.686   3.916  10.537
 6555SOL    HW120417   3.682   3.826  10.581
 6555SOL    HW220418   3.689   3.905  10.438
 6556SOL     OW20419   3.286   3.938  10.422
 6556SOL    HW120420   3.338   3.873  10.477
 6556SOL    HW220421   3.237   4.001  10.483
 6557SOL     OW20422   2.863   3.758  10.464
 6557SOL    HW120423   2.800   3.686  10.433
 6557SOL    HW220424   2.956   3.722  10.464
 6558SOL     OW20425   3.214   3.776   9.478
 6558SOL    HW120426   3.249   3.735   9.394
 6558SOL    HW220427   3.124   3.738   9.498
 6559SOL     OW20428   3.162   4.177  10.001
 6559SOL    HW120429   3.103   4.257  10.005
 6559SOL    HW220430   3.177   4.142  10.094
 6560SOL     OW20431   3.455   3.945  10.192
 6560SOL    HW120432   3.371   3.944  10.246
 6560SOL    HW220433   3.457   4.028  10.136
 6561SOL     OW20434   2.087   3.999  12.168
 6561SOL    HW120435   2.122   3.982  12.260
 6561SOL    HW220436   1.999   3.954  12.156
 6562SOL     OW20437   1.881   4.092  11.819
 6562SOL    HW120438   1.799   4.135  11.858
 6562SOL    HW220439   1.853   4.019  11.756
 6563SOL     OW20440   3.617   4.331  11.403
 6563SOL    HW120441   3.605   4.318  11.304
 6563SOL    HW220442   3.587   4.250  11.452
 6564SOL     OW20443   2.300   4.116  12.671
 6564SOL    HW120444   2.382   4.060  12.680
 6564SOL    HW220445   2.219   4.058  12.675
 6565SOL     OW20446   3.456   3.838  12.652
 6565SOL    HW120447   3.438   3.905  12.580
 6565SOL    HW220448   3.453   3.884  12.741
 6566SOL     OW20449   2.671   3.728  11.674
 6566SOL    HW120450   2.711   3.819  11.665
 6566SOL    HW220451   2.571   3.736  11.680
 6567SOL     OW20452   3.143   4.069  12.116
 6567SOL    HW120453   3.057   4.019  12.103
 6567SOL    HW220454   3.205   4.015  12.172
 6568SOL     OW20455   2.412   3.920  12.057
 6568SOL    HW120456   2.407   3.915  12.157
 6568SOL    HW220457   2.414   4.016  12.028
 6569SOL     OW20458   2.064   4.009  12.670
 6569SOL    HW120459   1.984   4.069  12.657
 6569SOL    HW220460   2.054   3.960  12.756
 6570SOL     OW20461   3.262   3.831  11.598
 6570SOL    HW120462   3.238   3.794  11.508
 6570SOL    HW220463   3.361   3.847  11.602
 6571SOL     OW20464   3.409   3.946  12.901
 6571SOL    HW120465   3.404   3.983  12.993
 6571SOL    HW220466   3.337   3.877  12.889
 6572SOL     OW20467   2.476   3.846  11.289
 6572SOL    HW120468   2.574   3.824  11.296
 6572SOL    HW220469   2.445   3.829  11.196
 6573SOL     OW20470   2.643   3.988  12.921
 6573SOL    HW120471   2.710   3.927  12.964
 6573SOL    HW220472   2.570   4.007  12.986
 6574SOL     OW20473   2.401   3.788  11.684
 6574SOL    HW120474   2.320   3.789  11.742
 6574SOL    HW220475   2.404   3.871  11.629
 6575SOL     OW20476   2.159   3.759  11.343
 6575SOL    HW120477   2.208   3.843  11.322
 6575SOL    HW220478   2.221   3.694  11.388
 6576SOL     OW20479   2.423   3.946  12.319
 6576SOL    HW120480   2.461   3.862  12.356
 6576SOL    HW220481   2.335   3.965  12.363
 6577SOL     OW20482   2.879   3.763  11.925
 6577SOL    HW120483   2.807   3.768  11.856
 6577SOL    HW220484   2.855   3.694  11.994
 6578SOL     OW20485   2.777   3.813  12.574
 6578SOL    HW120486   2.802   3.793  12.479
 6578SOL    HW220487   2.849   3.869  12.616
 6579SOL     OW20488   3.136   4.110  12.434
 6579SOL    HW120489   3.157   4.184  12.498
 6579SOL    HW220490   3.047   4.127  12.391
 6580SOL     OW20491   2.366   3.774  12.912
 6580SOL    HW120492   2.324   3.717  12.842
 6580SOL    HW220493   2.300   3.843  12.944
 6581SOL     OW20494   2.169   3.937  12.403
 6581SOL    HW120495   2.146   3.974  12.493
 6581SOL    HW220496   2.139   3.842  12.397
 6582SOL     OW20497   3.402   3.998  11.297
 6582SOL    HW120498   3.341   3.923  11.320
 6582SOL    HW220499   3.424   4.050  11.380
 6583SOL     OW20500   3.022   3.931  12.649
 6583SOL    HW120501   3.022   3.995  12.726
 6583SOL    HW220502   3.050   3.979  12.566
 6584SOL     OW20503   2.765   3.810  11.305
 6584SOL    HW120504   2.816   3.811  11.219
 6584SOL    HW220505   2.821   3.768  11.376
 6585SOL     OW20506   3.588   3.859  11.695
 6585SOL    HW120507   3.661   3.842  11.628
 6585SOL    HW220508   3.557   3.772  11.733
 6586SOL     OW20509   3.703   3.899  12.135
 6586SOL    HW120510   3.742   3.814  12.099
 6586SOL    HW220511   3.605   3.901  12.116
 6587SOL     OW20512   2.534   3.927  12.661
 6587SOL    HW120513   2.624   3.911  12.621
 6587SOL    HW220514   2.542   3.932  12.760
 6588SOL     OW20515   1.937   4.069  11.205
 6588SOL    HW120516   1.845   4.041  11.176
 6588SOL    HW220517   1.968   4.146  11.149
 6589SOL     OW20518   1.934   3.890  11.490
 6589SOL    HW120519   1.917   3.973  11.436
 6589SOL    HW220520   2.024   3.853  11.468
 6590SOL     OW20521   3.087   4.049  11.621
 6590SOL    HW120522   3.152   3.975  11.610
 6590SOL    HW220523   3.107   4.099  11.705
 6591SOL     OW20524   3.639   4.066  12.814
 6591SOL    HW120525   3.622   4.097  12.720
 6591SOL    HW220526   3.555   4.029  12.852
 6592SOL     OW20527   3.686   3.916  12.399
 6592SOL    HW120528   3.682   3.826  12.443
 6592SOL    HW220529   3.689   3.905  12.300
 6593SOL     OW20530   3.286   3.938  12.284
 6593SOL    HW120531   3.338   3.873  12.339
 6593SOL    HW220532   3.237   4.001  12.345
 6594SOL     OW20533   2.863   3.758  12.326
 6594SOL    HW120534   2.800   3.686  12.295
 6594SOL    HW220535   2.956   3.722  12.326
 6595SOL     OW20536   3.214   3.776  11.340
 6595SOL    HW120537   3.249   3.735  11.256
 6595SOL    HW220538   3.124   3.738  11.360
 6596SOL     OW20539   3.162   4.177  11.863
 6596SOL    HW120540   3.103   4.257  11.867
 6596SOL    HW220541   3.177   4.142  11.956
 6597SOL     OW20542   3.455   3.945  12.054
 6597SOL    HW120543   3.371   3.944  12.108
 6597SOL    HW220544   3.457   4.028  11.998
 6598SOL     OW20545   1.881   4.092  13.681
 6598SOL    HW120546   1.799   4.135  13.720
 6598SOL    HW220547   1.853   4.019  13.618
 6599SOL     OW20548   3.617   4.331  13.265
 6599SOL    HW120549   3.605   4.318  13.166
 6599SOL    HW220550   3.587   4.250  13.314
 6600SOL     OW20551   3.465   4.171  13.771
 6600SOL    HW120552   3.391   4.217  13.721
 6600SOL    HW220553   3.516   4.239  13.824
 6601SOL     OW20554   2.671   3.728  13.536
 6601SOL    HW120555   2.711   3.819  13.527
 6601SOL    HW220556   2.571   3.736  13.542
 6602SOL     OW20557   3.262   3.831  13.460
 6602SOL    HW120558   3.238   3.794  13.370
 6602SOL    HW220559   3.361   3.847  13.464
 6603SOL     OW20560   2.476   3.846  13.151
 6603SOL    HW120561   2.574   3.824  13.158
 6603SOL    HW220562   2.445   3.829  13.058
 6604SOL     OW20563   2.401   3.788  13.546
 6604SOL    HW120564   2.320   3.789  13.604
 6604SOL    HW220565   2.404   3.871  13.491
 6605SOL     OW20566   2.159   3.759  13.205
 6605SOL    HW120567   2.208   3.843  13.184
 6605SOL    HW220568   2.221   3.694  13.250
 6606SOL     OW20569   2.879   3.763  13.787
 6606SOL    HW120570   2.807   3.768  13.718
 6606SOL    HW220571   2.855   3.694  13.856
 6607SOL     OW20572   3.402   3.998  13.159
 6607SOL    HW120573   3.341   3.923  13.182
 6607SOL    HW220574   3.424   4.050  13.242
 6608SOL     OW20575   2.765   3.810  13.167
 6608SOL    HW120576   2.816   3.811  13.081
 6608SOL    HW220577   2.821   3.768  13.238
 6609SOL     OW20578   3.588   3.859  13.557
 6609SOL    HW120579   3.661   3.842  13.490
 6609SOL    HW220580   3.557   3.772  13.595
 6610SOL     OW20581   3.703   3.899  13.997
 6610SOL    HW120582   3.742   3.814  13.961
 6610SOL    HW220583   3.605   3.901  13.978
 6611SOL     OW20584   1.937   4.069  13.067
 6611SOL    HW120585   1.845   4.041  13.038
 6611SOL    HW220586   1.968   4.146  13.011
 6612SOL     OW20587   1.934   3.890  13.352
 6612SOL    HW120588   1.917   3.973  13.298
 6612SOL    HW220589   2.024   3.853  13.330
 6613SOL     OW20590   3.087   4.049  13.483
 6613SOL    HW120591   3.152   3.975  13.472
 6613SOL    HW220592   3.107   4.099  13.567
 6614SOL     OW20593   3.214   3.776  13.202
 6614SOL    HW120594   3.249   3.735  13.118
 6614SOL    HW220595   3.124   3.738  13.222
 6615SOL     OW20596   3.162   4.177  13.725
 6615SOL    HW120597   3.103   4.257  13.729
 6615SOL    HW220598   3.177   4.142  13.818
 6616SOL     OW20599   3.954   0.628   0.113
 6616SOL    HW120600   3.861   0.626   0.150
 6616SOL    HW220601   3.955   0.589   0.021
 6617SOL     OW20602   3.949   0.275   0.996
 6617SOL    HW120603   3.984   0.258   1.088
 6617SOL    HW220604   3.861   0.230   0.984
 6618SOL     OW20605   3.743   0.368   0.647
 6618SOL    HW120606   3.661   0.411   0.686
 6618SOL    HW220607   3.715   0.295   0.584
 6619SOL     OW20608   4.059   1.435   1.061
 6619SOL    HW120609   3.981   1.404   1.008
 6619SOL    HW220610   4.117   1.493   1.004
 6620SOL     OW20611   3.955   1.713   0.483
 6620SOL    HW120612   3.989   1.790   0.537
 6620SOL    HW220613   3.999   1.713   0.393
 6621SOL     OW20614   3.954   1.434   0.538
 6621SOL    HW120615   3.928   1.530   0.538
 6621SOL    HW220616   3.883   1.380   0.583
 6622SOL     OW20617   3.846   0.643   0.563
 6622SOL    HW120618   3.801   0.555   0.580
 6622SOL    HW220619   3.845   0.697   0.647
 6623SOL     OW20620   3.751   1.596   0.117
 6623SOL    HW120621   3.732   1.500   0.138
 6623SOL    HW220622   3.718   1.654   0.192
 6624SOL     OW20623   3.837   0.737   1.597
 6624SOL    HW120624   3.925   0.724   1.642
 6624SOL    HW220625   3.824   0.834   1.575
 6625SOL     OW20626   3.800   0.811   0.789
 6625SOL    HW120627   3.899   0.799   0.798
 6625SOL    HW220628   3.776   0.906   0.810
 6626SOL     OW20629   3.854   1.821   1.571
 6626SOL    HW120630   3.844   1.806   1.670
 6626SOL    HW220631   3.768   1.857   1.535
 6627SOL     OW20632   3.926   0.285   1.498
 6627SOL    HW120633   3.846   0.345   1.485
 6627SOL    HW220634   3.916   0.236   1.584
 6628SOL     OW20635   3.802   0.556   1.386
 6628SOL    HW120636   3.894   0.555   1.345
 6628SOL    HW220637   3.796   0.630   1.453
 6629SOL     OW20638   3.788   1.564   1.331
 6629SOL    HW120639   3.742   1.646   1.297
 6629SOL    HW220640   3.886   1.583   1.340
 6630SOL     OW20641   4.091   1.100   0.501
 6630SOL    HW120642   4.084   1.183   0.445
 6630SOL    HW220643   4.095   1.020   0.441
 6631SOL     OW20644   4.031   0.213   1.231
 6631SOL    HW120645   4.008   0.250   1.321
 6631SOL    HW220646   4.001   0.118   1.225
 6632SOL     OW20647   3.761   1.310   1.282
 6632SOL    HW120648   3.814   1.261   1.350
 6632SOL    HW220649   3.783   1.408   1.287
 6633SOL     OW20650   3.732   1.326   0.200
 6633SOL    HW120651   3.639   1.347   0.169
 6633SOL    HW220652   3.742   1.227   0.213
 6634SOL     OW20653   3.812   1.801   0.927
 6634SOL    HW120654   3.770   1.715   0.900
 6634SOL    HW220655   3.906   1.804   0.893
 6635SOL     OW20656   4.228   1.568   0.910
 6635SOL    HW120657   4.294   1.642   0.919
 6635SOL    HW220658   4.272   1.489   0.868
 6636SOL     OW20659   3.764   0.544   1.114
 6636SOL    HW120660   3.849   0.511   1.073
 6636SOL    HW220661   3.777   0.559   1.212
 6637SOL     OW20662   3.913   0.520   1.722
 6637SOL    HW120663   3.972   0.480   1.652
 6637SOL    HW220664   3.855   0.591   1.681
 6638SOL     OW20665   3.976   1.564   1.744
 6638SOL    HW120666   3.946   1.621   1.820
 6638SOL    HW220667   3.969   1.467   1.770
 6639SOL     OW20668   3.883   1.137   1.466
 6639SOL    HW120669   3.905   1.076   1.542
 6639SOL    HW220670   3.893   1.088   1.380
 6640SOL     OW20671   3.807   1.258   1.022
 6640SOL    HW120672   3.802   1.257   1.122
 6640SOL    HW220673   3.724   1.217   0.984
 6641SOL     OW20674   3.854   1.794   1.851
 6641SOL    HW120675   3.813   1.720   1.904
 6641SOL    HW220676   3.918   1.845   1.909
 6642SOL     OW20677   3.799   0.345   0.033
 6642SOL    HW120678   3.707   0.317   0.004
 6642SOL    HW220679   3.830   0.422  -0.023
 6643SOL     OW20680   3.796   0.166   0.318
 6643SOL    HW120681   3.779   0.249   0.264
 6643SOL    HW220682   3.886   0.129   0.296
 6644SOL     OW20683   3.803   1.240   0.653
 6644SOL    HW120684   3.802   1.193   0.741
 6644SOL    HW220685   3.885   1.212   0.602
 6645SOL     OW20686   3.763   1.077   0.300
 6645SOL    HW120687   3.862   1.066   0.291
 6645SOL    HW220688   3.723   0.991   0.332
 6646SOL     OW20689   3.954   0.628   1.975
 6646SOL    HW120690   3.861   0.626   2.012
 6646SOL    HW220691   3.955   0.589   1.883
 6647SOL     OW20692   3.949   0.275   2.858
 6647SOL    HW120693   3.984   0.258   2.950
 6647SOL    HW220694   3.861   0.230   2.846
 6648SOL     OW20695   3.743   0.368   2.509
 6648SOL    HW120696   3.661   0.411   2.548
 6648SOL    HW220697   3.715   0.295   2.446
 6649SOL     OW20698   4.059   1.435   2.923
 6649SOL    HW120699   3.981   1.404   2.870
 6649SOL    HW220700   4.117   1.493   2.866
 6650SOL     OW20701   3.955   1.713   2.345
 6650SOL    HW120702   3.989   1.790   2.399
 6650SOL    HW220703   3.999   1.713   2.255
 6651SOL     OW20704   3.954   1.434   2.400
 6651SOL    HW120705   3.928   1.530   2.400
 6651SOL    HW220706   3.883   1.380   2.445
 6652SOL     OW20707   3.846   0.643   2.425
 6652SOL    HW120708   3.801   0.555   2.442
 6652SOL    HW220709   3.845   0.697   2.509
 6653SOL     OW20710   3.751   1.596   1.979
 6653SOL    HW120711   3.732   1.500   2.000
 6653SOL    HW220712   3.718   1.654   2.054
 6654SOL     OW20713   3.837   0.737   3.459
 6654SOL    HW120714   3.925   0.724   3.504
 6654SOL    HW220715   3.824   0.834   3.437
 6655SOL     OW20716   3.800   0.811   2.651
 6655SOL    HW120717   3.899   0.799   2.660
 6655SOL    HW220718   3.776   0.906   2.672
 6656SOL     OW20719   3.854   1.821   3.433
 6656SOL    HW120720   3.844   1.806   3.532
 6656SOL    HW220721   3.768   1.857   3.397
 6657SOL     OW20722   3.926   0.285   3.360
 6657SOL    HW120723   3.846   0.345   3.347
 6657SOL    HW220724   3.916   0.236   3.446
 6658SOL     OW20725   3.802   0.556   3.248
 6658SOL    HW120726   3.894   0.555   3.207
 6658SOL    HW220727   3.796   0.630   3.315
 6659SOL     OW20728   4.251   0.256   2.190
 6659SOL    HW120729   4.278   0.197   2.115
 6659SOL    HW220730   4.251   0.351   2.159
 6660SOL     OW20731   3.788   1.564   3.193
 6660SOL    HW120732   3.742   1.646   3.159
 6660SOL    HW220733   3.886   1.583   3.202
 6661SOL     OW20734   4.091   1.100   2.363
 6661SOL    HW120735   4.084   1.183   2.307
 6661SOL    HW220736   4.095   1.020   2.303
 6662SOL     OW20737   4.031   0.213   3.093
 6662SOL    HW120738   4.008   0.250   3.183
 6662SOL    HW220739   4.001   0.118   3.087
 6663SOL     OW20740   3.761   1.310   3.144
 6663SOL    HW120741   3.814   1.261   3.212
 6663SOL    HW220742   3.783   1.408   3.149
 6664SOL     OW20743   3.732   1.326   2.062
 6664SOL    HW120744   3.639   1.347   2.031
 6664SOL    HW220745   3.742   1.227   2.075
 6665SOL     OW20746   3.812   1.801   2.789
 6665SOL    HW120747   3.770   1.715   2.762
 6665SOL    HW220748   3.906   1.804   2.755
 6666SOL     OW20749   4.228   1.568   2.772
 6666SOL    HW120750   4.294   1.642   2.781
 6666SOL    HW220751   4.272   1.489   2.730
 6667SOL     OW20752   3.764   0.544   2.976
 6667SOL    HW120753   3.849   0.511   2.935
 6667SOL    HW220754   3.777   0.559   3.074
 6668SOL     OW20755   3.913   0.520   3.584
 6668SOL    HW120756   3.972   0.480   3.514
 6668SOL    HW220757   3.855   0.591   3.543
 6669SOL     OW20758   3.976   1.564   3.606
 6669SOL    HW120759   3.946   1.621   3.682
 6669SOL    HW220760   3.969   1.467   3.632
 6670SOL     OW20761   3.883   1.137   3.328
 6670SOL    HW120762   3.905   1.076   3.404
 6670SOL    HW220763   3.893   1.088   3.242
 6671SOL     OW20764   3.807   1.258   2.884
 6671SOL    HW120765   3.802   1.257   2.984
 6671SOL    HW220766   3.724   1.217   2.846
 6672SOL     OW20767   3.854   1.794   3.713
 6672SOL    HW120768   3.813   1.720   3.766
 6672SOL    HW220769   3.918   1.845   3.771
 6673SOL     OW20770   3.799   0.345   1.895
 6673SOL    HW120771   3.707   0.317   1.866
 6673SOL    HW220772   3.830   0.422   1.839
 6674SOL     OW20773   3.796   0.166   2.180
 6674SOL    HW120774   3.779   0.249   2.126
 6674SOL    HW220775   3.886   0.129   2.158
 6675SOL     OW20776   3.803   1.240   2.515
 6675SOL    HW120777   3.802   1.193   2.603
 6675SOL    HW220778   3.885   1.212   2.464
 6676SOL     OW20779   3.763   1.077   2.162
 6676SOL    HW120780   3.862   1.066   2.153
 6676SOL    HW220781   3.723   0.991   2.194
 6677SOL     OW20782   3.954   0.628   3.837
 6677SOL    HW120783   3.861   0.626   3.874
 6677SOL    HW220784   3.955   0.589   3.745
 6678SOL     OW20785   3.949   0.275   4.720
 6678SOL    HW120786   3.984   0.258   4.812
 6678SOL    HW220787   3.861   0.230   4.708
 6679SOL     OW20788   3.743   0.368   4.371
 6679SOL    HW120789   3.661   0.411   4.410
 6679SOL    HW220790   3.715   0.295   4.308
 6680SOL     OW20791   4.059   1.435   4.785
 6680SOL    HW120792   3.981   1.404   4.732
 6680SOL    HW220793   4.117   1.493   4.728
 6681SOL     OW20794   3.955   1.713   4.207
 6681SOL    HW120795   3.989   1.790   4.261
 6681SOL    HW220796   3.999   1.713   4.117
 6682SOL     OW20797   3.954   1.434   4.262
 6682SOL    HW120798   3.928   1.530   4.262
 6682SOL    HW220799   3.883   1.380   4.307
 6683SOL     OW20800   3.846   0.643   4.287
 6683SOL    HW120801   3.801   0.555   4.304
 6683SOL    HW220802   3.845   0.697   4.371
 6684SOL     OW20803   3.751   1.596   3.841
 6684SOL    HW120804   3.732   1.500   3.862
 6684SOL    HW220805   3.718   1.654   3.916
 6685SOL     OW20806   3.837   0.737   5.321
 6685SOL    HW120807   3.925   0.724   5.366
 6685SOL    HW220808   3.824   0.834   5.299
 6686SOL     OW20809   3.800   0.811   4.513
 6686SOL    HW120810   3.899   0.799   4.522
 6686SOL    HW220811   3.776   0.906   4.534
 6687SOL     OW20812   3.854   1.821   5.295
 6687SOL    HW120813   3.844   1.806   5.394
 6687SOL    HW220814   3.768   1.857   5.259
 6688SOL     OW20815   3.926   0.285   5.222
 6688SOL    HW120816   3.846   0.345   5.209
 6688SOL    HW220817   3.916   0.236   5.308
 6689SOL     OW20818   3.802   0.556   5.110
 6689SOL    HW120819   3.894   0.555   5.069
 6689SOL    HW220820   3.796   0.630   5.177
 6690SOL     OW20821   4.251   0.256   4.052
 6690SOL    HW120822   4.278   0.197   3.977
 6690SOL    HW220823   4.251   0.351   4.021
 6691SOL     OW20824   3.788   1.564   5.055
 6691SOL    HW120825   3.742   1.646   5.021
 6691SOL    HW220826   3.886   1.583   5.064
 6692SOL     OW20827   4.091   1.100   4.225
 6692SOL    HW120828   4.084   1.183   4.169
 6692SOL    HW220829   4.095   1.020   4.165
 6693SOL     OW20830   4.031   0.213   4.955
 6693SOL    HW120831   4.008   0.250   5.045
 6693SOL    HW220832   4.001   0.118   4.949
 6694SOL     OW20833   3.761   1.310   5.006
 6694SOL    HW120834   3.814   1.261   5.074
 6694SOL    HW220835   3.783   1.408   5.011
 6695SOL     OW20836   3.732   1.326   3.924
 6695SOL    HW120837   3.639   1.347   3.893
 6695SOL    HW220838   3.742   1.227   3.937
 6696SOL     OW20839   3.812   1.801   4.651
 6696SOL    HW120840   3.770   1.715   4.624
 6696SOL    HW220841   3.906   1.804   4.617
 6697SOL     OW20842   4.228   1.568   4.634
 6697SOL    HW120843   4.294   1.642   4.643
 6697SOL    HW220844   4.272   1.489   4.592
 6698SOL     OW20845   3.764   0.544   4.838
 6698SOL    HW120846   3.849   0.511   4.797
 6698SOL    HW220847   3.777   0.559   4.936
 6699SOL     OW20848   3.913   0.520   5.446
 6699SOL    HW120849   3.972   0.480   5.376
 6699SOL    HW220850   3.855   0.591   5.405
 6700SOL     OW20851   3.976   1.564   5.468
 6700SOL    HW120852   3.946   1.621   5.544
 6700SOL    HW220853   3.969   1.467   5.494
 6701SOL     OW20854   3.883   1.137   5.190
 6701SOL    HW120855   3.905   1.076   5.266
 6701SOL    HW220856   3.893   1.088   5.104
 6702SOL     OW20857   3.807   1.258   4.746
 6702SOL    HW120858   3.802   1.257   4.846
 6702SOL    HW220859   3.724   1.217   4.708
 6703SOL     OW20860   3.854   1.794   5.575
 6703SOL    HW120861   3.813   1.720   5.628
 6703SOL    HW220862   3.918   1.845   5.633
 6704SOL     OW20863   3.799   0.345   3.757
 6704SOL    HW120864   3.707   0.317   3.728
 6704SOL    HW220865   3.830   0.422   3.701
 6705SOL     OW20866   3.796   0.166   4.042
 6705SOL    HW120867   3.779   0.249   3.988
 6705SOL    HW220868   3.886   0.129   4.020
 6706SOL     OW20869   3.803   1.240   4.377
 6706SOL    HW120870   3.802   1.193   4.465
 6706SOL    HW220871   3.885   1.212   4.326
 6707SOL     OW20872   3.763   1.077   4.024
 6707SOL    HW120873   3.862   1.066   4.015
 6707SOL    HW220874   3.723   0.991   4.056
 6708SOL     OW20875   3.954   0.628   5.699
 6708SOL    HW120876   3.861   0.626   5.736
 6708SOL    HW220877   3.955   0.589   5.607
 6709SOL     OW20878   3.949   0.275   6.582
 6709SOL    HW120879   3.984   0.258   6.674
 6709SOL    HW220880   3.861   0.230   6.570
 6710SOL     OW20881   3.743   0.368   6.233
 6710SOL    HW120882   3.661   0.411   6.272
 6710SOL    HW220883   3.715   0.295   6.170
 6711SOL     OW20884   4.059   1.435   6.647
 6711SOL    HW120885   3.981   1.404   6.594
 6711SOL    HW220886   4.117   1.493   6.590
 6712SOL     OW20887   3.955   1.713   6.069
 6712SOL    HW120888   3.989   1.790   6.123
 6712SOL    HW220889   3.999   1.713   5.979
 6713SOL     OW20890   3.954   1.434   6.124
 6713SOL    HW120891   3.928   1.530   6.124
 6713SOL    HW220892   3.883   1.380   6.169
 6714SOL     OW20893   3.846   0.643   6.149
 6714SOL    HW120894   3.801   0.555   6.166
 6714SOL    HW220895   3.845   0.697   6.233
 6715SOL     OW20896   3.751   1.596   5.703
 6715SOL    HW120897   3.732   1.500   5.724
 6715SOL    HW220898   3.718   1.654   5.778
 6716SOL     OW20899   3.837   0.737   7.183
 6716SOL    HW120900   3.925   0.724   7.228
 6716SOL    HW220901   3.824   0.834   7.161
 6717SOL     OW20902   3.800   0.811   6.375
 6717SOL    HW120903   3.899   0.799   6.384
 6717SOL    HW220904   3.776   0.906   6.396
 6718SOL     OW20905   3.854   1.821   7.157
 6718SOL    HW120906   3.844   1.806   7.256
 6718SOL    HW220907   3.768   1.857   7.121
 6719SOL     OW20908   3.926   0.285   7.084
 6719SOL    HW120909   3.846   0.345   7.071
 6719SOL    HW220910   3.916   0.236   7.170
 6720SOL     OW20911   3.802   0.556   6.972
 6720SOL    HW120912   3.894   0.555   6.931
 6720SOL    HW220913   3.796   0.630   7.039
 6721SOL     OW20914   4.251   0.256   5.914
 6721SOL    HW120915   4.278   0.197   5.839
 6721SOL    HW220916   4.251   0.351   5.883
 6722SOL     OW20917   3.788   1.564   6.917
 6722SOL    HW120918   3.742   1.646   6.883
 6722SOL    HW220919   3.886   1.583   6.926
 6723SOL     OW20920   4.091   1.100   6.087
 6723SOL    HW120921   4.084   1.183   6.031
 6723SOL    HW220922   4.095   1.020   6.027
 6724SOL     OW20923   4.031   0.213   6.817
 6724SOL    HW120924   4.008   0.250   6.907
 6724SOL    HW220925   4.001   0.118   6.811
 6725SOL     OW20926   3.761   1.310   6.868
 6725SOL    HW120927   3.814   1.261   6.936
 6725SOL    HW220928   3.783   1.408   6.873
 6726SOL     OW20929   3.732   1.326   5.786
 6726SOL    HW120930   3.639   1.347   5.755
 6726SOL    HW220931   3.742   1.227   5.799
 6727SOL     OW20932   3.812   1.801   6.513
 6727SOL    HW120933   3.770   1.715   6.486
 6727SOL    HW220934   3.906   1.804   6.479
 6728SOL     OW20935   4.228   1.568   6.496
 6728SOL    HW120936   4.294   1.642   6.505
 6728SOL    HW220937   4.272   1.489   6.454
 6729SOL     OW20938   3.764   0.544   6.700
 6729SOL    HW120939   3.849   0.511   6.659
 6729SOL    HW220940   3.777   0.559   6.798
 6730SOL     OW20941   3.913   0.520   7.308
 6730SOL    HW120942   3.972   0.480   7.238
 6730SOL    HW220943   3.855   0.591   7.267
 6731SOL     OW20944   3.976   1.564   7.330
 6731SOL    HW120945   3.946   1.621   7.406
 6731SOL    HW220946   3.969   1.467   7.356
 6732SOL     OW20947   3.883   1.137   7.052
 6732SOL    HW120948   3.905   1.076   7.128
 6732SOL    HW220949   3.893   1.088   6.966
 6733SOL     OW20950   3.807   1.258   6.608
 6733SOL    HW120951   3.802   1.257   6.708
 6733SOL    HW220952   3.724   1.217   6.570
 6734SOL     OW20953   3.854   1.794   7.437
 6734SOL    HW120954   3.813   1.720   7.490
 6734SOL    HW220955   3.918   1.845   7.495
 6735SOL     OW20956   3.799   0.345   5.619
 6735SOL    HW120957   3.707   0.317   5.590
 6735SOL    HW220958   3.830   0.422   5.563
 6736SOL     OW20959   3.796   0.166   5.904
 6736SOL    HW120960   3.779   0.249   5.850
 6736SOL    HW220961   3.886   0.129   5.882
 6737SOL     OW20962   3.803   1.240   6.239
 6737SOL    HW120963   3.802   1.193   6.327
 6737SOL    HW220964   3.885   1.212   6.188
 6738SOL     OW20965   3.763   1.077   5.886
 6738SOL    HW120966   3.862   1.066   5.877
 6738SOL    HW220967   3.723   0.991   5.918
 6739SOL     OW20968   3.954   0.628   7.561
 6739SOL    HW120969   3.861   0.626   7.598
 6739SOL    HW220970   3.955   0.589   7.469
 6740SOL     OW20971   3.949   0.275   8.444
 6740SOL    HW120972   3.984   0.258   8.536
 6740SOL    HW220973   3.861   0.230   8.432
 6741SOL     OW20974   3.743   0.368   8.095
 6741SOL    HW120975   3.661   0.411   8.134
 6741SOL    HW220976   3.715   0.295   8.032
 6742SOL     OW20977   4.059   1.435   8.509
 6742SOL    HW120978   3.981   1.404   8.456
 6742SOL    HW220979   4.117   1.493   8.452
 6743SOL     OW20980   3.955   1.713   7.931
 6743SOL    HW120981   3.989   1.790   7.985
 6743SOL    HW220982   3.999   1.713   7.841
 6744SOL     OW20983   3.954   1.434   7.986
 6744SOL    HW120984   3.928   1.530   7.986
 6744SOL    HW220985   3.883   1.380   8.031
 6745SOL     OW20986   3.846   0.643   8.011
 6745SOL    HW120987   3.801   0.555   8.028
 6745SOL    HW220988   3.845   0.697   8.095
 6746SOL     OW20989   3.751   1.596   7.565
 6746SOL    HW120990   3.732   1.500   7.586
 6746SOL    HW220991   3.718   1.654   7.640
 6747SOL     OW20992   3.837   0.737   9.045
 6747SOL    HW120993   3.925   0.724   9.090
 6747SOL    HW220994   3.824   0.834   9.023
 6748SOL     OW20995   3.800   0.811   8.237
 6748SOL    HW120996   3.899   0.799   8.246
 6748SOL    HW220997   3.776   0.906   8.258
 6749SOL     OW20998   3.854   1.821   9.019
 6749SOL    HW120999   3.844   1.806   9.118
 6749SOL    HW221000   3.768   1.857   8.983
 6750SOL     OW21001   3.926   0.285   8.946
 6750SOL    HW121002   3.846   0.345   8.933
 6750SOL    HW221003   3.916   0.236   9.032
 6751SOL     OW21004   3.802   0.556   8.834
 6751SOL    HW121005   3.894   0.555   8.793
 6751SOL    HW221006   3.796   0.630   8.901
 6752SOL     OW21007   4.251   0.256   7.776
 6752SOL    HW121008   4.278   0.197   7.701
 6752SOL    HW221009   4.251   0.351   7.745
 6753SOL     OW21010   3.788   1.564   8.779
 6753SOL    HW121011   3.742   1.646   8.745
 6753SOL    HW221012   3.886   1.583   8.788
 6754SOL     OW21013   4.091   1.100   7.949
 6754SOL    HW121014   4.084   1.183   7.893
 6754SOL    HW221015   4.095   1.020   7.889
 6755SOL     OW21016   4.031   0.213   8.679
 6755SOL    HW121017   4.008   0.250   8.769
 6755SOL    HW221018   4.001   0.118   8.673
 6756SOL     OW21019   3.761   1.310   8.730
 6756SOL    HW121020   3.814   1.261   8.798
 6756SOL    HW221021   3.783   1.408   8.735
 6757SOL     OW21022   3.732   1.326   7.648
 6757SOL    HW121023   3.639   1.347   7.617
 6757SOL    HW221024   3.742   1.227   7.661
 6758SOL     OW21025   3.812   1.801   8.375
 6758SOL    HW121026   3.770   1.715   8.348
 6758SOL    HW221027   3.906   1.804   8.341
 6759SOL     OW21028   4.228   1.568   8.358
 6759SOL    HW121029   4.294   1.642   8.367
 6759SOL    HW221030   4.272   1.489   8.316
 6760SOL     OW21031   3.764   0.544   8.562
 6760SOL    HW121032   3.849   0.511   8.521
 6760SOL    HW221033   3.777   0.559   8.660
 6761SOL     OW21034   3.913   0.520   9.170
 6761SOL    HW121035   3.972   0.480   9.100
 6761SOL    HW221036   3.855   0.591   9.129
 6762SOL     OW21037   3.976   1.564   9.192
 6762SOL    HW121038   3.946   1.621   9.268
 6762SOL    HW221039   3.969   1.467   9.218
 6763SOL     OW21040   3.883   1.137   8.914
 6763SOL    HW121041   3.905   1.076   8.990
 6763SOL    HW221042   3.893   1.088   8.828
 6764SOL     OW21043   3.807   1.258   8.470
 6764SOL    HW121044   3.802   1.257   8.570
 6764SOL    HW221045   3.724   1.217   8.432
 6765SOL     OW21046   3.854   1.794   9.299
 6765SOL    HW121047   3.813   1.720   9.352
 6765SOL    HW221048   3.918   1.845   9.357
 6766SOL     OW21049   3.799   0.345   7.481
 6766SOL    HW121050   3.707   0.317   7.452
 6766SOL    HW221051   3.830   0.422   7.425
 6767SOL     OW21052   3.796   0.166   7.766
 6767SOL    HW121053   3.779   0.249   7.712
 6767SOL    HW221054   3.886   0.129   7.744
 6768SOL     OW21055   3.803   1.240   8.101
 6768SOL    HW121056   3.802   1.193   8.189
 6768SOL    HW221057   3.885   1.212   8.050
 6769SOL     OW21058   3.763   1.077   7.748
 6769SOL    HW121059   3.862   1.066   7.739
 6769SOL    HW221060   3.723   0.991   7.780
 6770SOL     OW21061   3.954   0.628   9.423
 6770SOL    HW121062   3.861   0.626   9.460
 6770SOL    HW221063   3.955   0.589   9.331
 6771SOL     OW21064   3.949   0.275  10.306
 6771SOL    HW121065   3.984   0.258  10.398
 6771SOL    HW221066   3.861   0.230  10.294
 6772SOL     OW21067   3.743   0.368   9.957
 6772SOL    HW121068   3.661   0.411   9.996
 6772SOL    HW221069   3.715   0.295   9.894
 6773SOL     OW21070   4.059   1.435  10.371
 6773SOL    HW121071   3.981   1.404  10.318
 6773SOL    HW221072   4.117   1.493  10.314
 6774SOL     OW21073   3.955   1.713   9.793
 6774SOL    HW121074   3.989   1.790   9.847
 6774SOL    HW221075   3.999   1.713   9.703
 6775SOL     OW21076   3.954   1.434   9.848
 6775SOL    HW121077   3.928   1.530   9.848
 6775SOL    HW221078   3.883   1.380   9.893
 6776SOL     OW21079   3.846   0.643   9.873
 6776SOL    HW121080   3.801   0.555   9.890
 6776SOL    HW221081   3.845   0.697   9.957
 6777SOL     OW21082   3.751   1.596   9.427
 6777SOL    HW121083   3.732   1.500   9.448
 6777SOL    HW221084   3.718   1.654   9.502
 6778SOL     OW21085   3.837   0.737  10.907
 6778SOL    HW121086   3.925   0.724  10.952
 6778SOL    HW221087   3.824   0.834  10.885
 6779SOL     OW21088   3.800   0.811  10.099
 6779SOL    HW121089   3.899   0.799  10.108
 6779SOL    HW221090   3.776   0.906  10.120
 6780SOL     OW21091   3.854   1.821  10.881
 6780SOL    HW121092   3.844   1.806  10.980
 6780SOL    HW221093   3.768   1.857  10.845
 6781SOL     OW21094   3.926   0.285  10.808
 6781SOL    HW121095   3.846   0.345  10.795
 6781SOL    HW221096   3.916   0.236  10.894
 6782SOL     OW21097   3.802   0.556  10.696
 6782SOL    HW121098   3.894   0.555  10.655
 6782SOL    HW221099   3.796   0.630  10.763
 6783SOL     OW21100   4.251   0.256   9.638
 6783SOL    HW121101   4.278   0.197   9.563
 6783SOL    HW221102   4.251   0.351   9.607
 6784SOL     OW21103   3.788   1.564  10.641
 6784SOL    HW121104   3.742   1.646  10.607
 6784SOL    HW221105   3.886   1.583  10.650
 6785SOL     OW21106   4.091   1.100   9.811
 6785SOL    HW121107   4.084   1.183   9.755
 6785SOL    HW221108   4.095   1.020   9.751
 6786SOL     OW21109   4.031   0.213  10.541
 6786SOL    HW121110   4.008   0.250  10.631
 6786SOL    HW221111   4.001   0.118  10.535
 6787SOL     OW21112   3.761   1.310  10.592
 6787SOL    HW121113   3.814   1.261  10.660
 6787SOL    HW221114   3.783   1.408  10.597
 6788SOL     OW21115   3.732   1.326   9.510
 6788SOL    HW121116   3.639   1.347   9.479
 6788SOL    HW221117   3.742   1.227   9.523
 6789SOL     OW21118   3.812   1.801  10.237
 6789SOL    HW121119   3.770   1.715  10.210
 6789SOL    HW221120   3.906   1.804  10.203
 6790SOL     OW21121   4.228   1.568  10.220
 6790SOL    HW121122   4.294   1.642  10.229
 6790SOL    HW221123   4.272   1.489  10.178
 6791SOL     OW21124   3.764   0.544  10.424
 6791SOL    HW121125   3.849   0.511  10.383
 6791SOL    HW221126   3.777   0.559  10.522
 6792SOL     OW21127   3.913   0.520  11.032
 6792SOL    HW121128   3.972   0.480  10.962
 6792SOL    HW221129   3.855   0.591  10.991
 6793SOL     OW21130   3.976   1.564  11.054
 6793SOL    HW121131   3.946   1.621  11.130
 6793SOL    HW221132   3.969   1.467  11.080
 6794SOL     OW21133   3.883   1.137  10.776
 6794SOL    HW121134   3.905   1.076  10.852
 6794SOL    HW221135   3.893   1.088  10.690
 6795SOL     OW21136   3.807   1.258  10.332
 6795SOL    HW121137   3.802   1.257  10.432
 6795SOL    HW221138   3.724   1.217  10.294
 6796SOL     OW21139   3.854   1.794  11.161
 6796SOL    HW121140   3.813   1.720  11.214
 6796SOL    HW221141   3.918   1.845  11.219
 6797SOL     OW21142   3.799   0.345   9.343
 6797SOL    HW121143   3.707   0.317   9.314
 6797SOL    HW221144   3.830   0.422   9.287
 6798SOL     OW21145   3.796   0.166   9.628
 6798SOL    HW121146   3.779   0.249   9.574
 6798SOL    HW221147   3.886   0.129   9.606
 6799SOL     OW21148   3.803   1.240   9.963
 6799SOL    HW121149   3.802   1.193  10.051
 6799SOL    HW221150   3.885   1.212   9.912
 6800SOL     OW21151   3.763   1.077   9.610
 6800SOL    HW121152   3.862   1.066   9.601
 6800SOL    HW221153   3.723   0.991   9.642
 6801SOL     OW21154   3.954   0.628  11.285
 6801SOL    HW121155   3.861   0.626  11.322
 6801SOL    HW221156   3.955   0.589  11.193
 6802SOL     OW21157   3.949   0.275  12.168
 6802SOL    HW121158   3.984   0.258  12.260
 6802SOL    HW221159   3.861   0.230  12.156
 6803SOL     OW21160   3.743   0.368  11.819
 6803SOL    HW121161   3.661   0.411  11.858
 6803SOL    HW221162   3.715   0.295  11.756
 6804SOL     OW21163   4.059   1.435  12.233
 6804SOL    HW121164   3.981   1.404  12.180
 6804SOL    HW221165   4.117   1.493  12.176
 6805SOL     OW21166   3.955   1.713  11.655
 6805SOL    HW121167   3.989   1.790  11.709
 6805SOL    HW221168   3.999   1.713  11.565
 6806SOL     OW21169   3.954   1.434  11.710
 6806SOL    HW121170   3.928   1.530  11.710
 6806SOL    HW221171   3.883   1.380  11.755
 6807SOL     OW21172   3.846   0.643  11.735
 6807SOL    HW121173   3.801   0.555  11.752
 6807SOL    HW221174   3.845   0.697  11.819
 6808SOL     OW21175   3.751   1.596  11.289
 6808SOL    HW121176   3.732   1.500  11.310
 6808SOL    HW221177   3.718   1.654  11.364
 6809SOL     OW21178   3.837   0.737  12.769
 6809SOL    HW121179   3.925   0.724  12.814
 6809SOL    HW221180   3.824   0.834  12.747
 6810SOL     OW21181   3.800   0.811  11.961
 6810SOL    HW121182   3.899   0.799  11.970
 6810SOL    HW221183   3.776   0.906  11.982
 6811SOL     OW21184   3.854   1.821  12.743
 6811SOL    HW121185   3.844   1.806  12.842
 6811SOL    HW221186   3.768   1.857  12.707
 6812SOL     OW21187   3.926   0.285  12.670
 6812SOL    HW121188   3.846   0.345  12.657
 6812SOL    HW221189   3.916   0.236  12.756
 6813SOL     OW21190   3.802   0.556  12.558
 6813SOL    HW121191   3.894   0.555  12.517
 6813SOL    HW221192   3.796   0.630  12.625
 6814SOL     OW21193   4.251   0.256  11.500
 6814SOL    HW121194   4.278   0.197  11.425
 6814SOL    HW221195   4.251   0.351  11.469
 6815SOL     OW21196   3.788   1.564  12.503
 6815SOL    HW121197   3.742   1.646  12.469
 6815SOL    HW221198   3.886   1.583  12.512
 6816SOL     OW21199   4.091   1.100  11.673
 6816SOL    HW121200   4.084   1.183  11.617
 6816SOL    HW221201   4.095   1.020  11.613
 6817SOL     OW21202   4.031   0.213  12.403
 6817SOL    HW121203   4.008   0.250  12.493
 6817SOL    HW221204   4.001   0.118  12.397
 6818SOL     OW21205   3.761   1.310  12.454
 6818SOL    HW121206   3.814   1.261  12.522
 6818SOL    HW221207   3.783   1.408  12.459
 6819SOL     OW21208   3.732   1.326  11.372
 6819SOL    HW121209   3.639   1.347  11.341
 6819SOL    HW221210   3.742   1.227  11.385
 6820SOL     OW21211   3.812   1.801  12.099
 6820SOL    HW121212   3.770   1.715  12.072
 6820SOL    HW221213   3.906   1.804  12.065
 6821SOL     OW21214   4.228   1.568  12.082
 6821SOL    HW121215   4.294   1.642  12.091
 6821SOL    HW221216   4.272   1.489  12.040
 6822SOL     OW21217   3.764   0.544  12.286
 6822SOL    HW121218   3.849   0.511  12.245
 6822SOL    HW221219   3.777   0.559  12.384
 6823SOL     OW21220   3.913   0.520  12.894
 6823SOL    HW121221   3.972   0.480  12.824
 6823SOL    HW221222   3.855   0.591  12.853
 6824SOL     OW21223   3.976   1.564  12.916
 6824SOL    HW121224   3.946   1.621  12.992
 6824SOL    HW221225   3.969   1.467  12.942
 6825SOL     OW21226   3.883   1.137  12.638
 6825SOL    HW121227   3.905   1.076  12.714
 6825SOL    HW221228   3.893   1.088  12.552
 6826SOL     OW21229   3.807   1.258  12.194
 6826SOL    HW121230   3.802   1.257  12.294
 6826SOL    HW221231   3.724   1.217  12.156
 6827SOL     OW21232   3.854   1.794  13.023
 6827SOL    HW121233   3.813   1.720  13.076
 6827SOL    HW221234   3.918   1.845  13.081
 6828SOL     OW21235   3.799   0.345  11.205
 6828SOL    HW121236   3.707   0.317  11.176
 6828SOL    HW221237   3.830   0.422  11.149
 6829SOL     OW21238   3.796   0.166  11.490
 6829SOL    HW121239   3.779   0.249  11.436
 6829SOL    HW221240   3.886   0.129  11.468
 6830SOL     OW21241   3.803   1.240  11.825
 6830SOL    HW121242   3.802   1.193  11.913
 6830SOL    HW221243   3.885   1.212  11.774
 6831SOL     OW21244   3.763   1.077  11.472
 6831SOL    HW121245   3.862   1.066  11.463
 6831SOL    HW221246   3.723   0.991  11.504
 6832SOL     OW21247   3.954   0.628  13.147
 6832SOL    HW121248   3.861   0.626  13.184
 6832SOL    HW221249   3.955   0.589  13.055
 6833SOL     OW21250   3.743   0.368  13.681
 6833SOL    HW121251   3.661   0.411  13.720
 6833SOL    HW221252   3.715   0.295  13.618
 6834SOL     OW21253   3.955   1.713  13.517
 6834SOL    HW121254   3.989   1.790  13.571
 6834SOL    HW221255   3.999   1.713  13.427
 6835SOL     OW21256   3.954   1.434  13.572
 6835SOL    HW121257   3.928   1.530  13.572
 6835SOL    HW221258   3.883   1.380  13.617
 6836SOL     OW21259   3.964   1.091  13.920
 6836SOL    HW121260   3.978   1.007  13.972
 6836SOL    HW221261   3.909   1.155  13.975
 6837SOL     OW21262   3.846   0.643  13.597
 6837SOL    HW121263   3.801   0.555  13.614
 6837SOL    HW221264   3.845   0.697  13.681
 6838SOL     OW21265   3.751   1.596  13.151
 6838SOL    HW121266   3.732   1.500  13.172
 6838SOL    HW221267   3.718   1.654  13.226
 6839SOL     OW21268   3.800   0.811  13.823
 6839SOL    HW121269   3.899   0.799  13.832
 6839SOL    HW221270   3.776   0.906  13.844
 6840SOL     OW21271   4.075   1.801  13.887
 6840SOL    HW121272   4.125   1.715  13.893
 6840SOL    HW221273   4.140   1.878  13.884
 6841SOL     OW21274   4.251   0.256  13.362
 6841SOL    HW121275   4.278   0.197  13.287
 6841SOL    HW221276   4.251   0.351  13.331
 6842SOL     OW21277   4.091   1.100  13.535
 6842SOL    HW121278   4.084   1.183  13.479
 6842SOL    HW221279   4.095   1.020  13.475
 6843SOL     OW21280   3.732   1.326  13.234
 6843SOL    HW121281   3.639   1.347  13.203
 6843SOL    HW221282   3.742   1.227  13.247
 6844SOL     OW21283   4.228   1.568  13.944
 6844SOL    HW121284   4.294   1.642  13.953
 6844SOL    HW221285   4.272   1.489  13.902
 6845SOL     OW21286   3.799   0.345  13.067
 6845SOL    HW121287   3.707   0.317  13.038
 6845SOL    HW221288   3.830   0.422  13.011
 6846SOL     OW21289   3.796   0.166  13.352
 6846SOL    HW121290   3.779   0.249  13.298
 6846SOL    HW221291   3.886   0.129  13.330
 6847SOL     OW21292   3.803   1.240  13.687
 6847SOL    HW121293   3.802   1.193  13.775
 6847SOL    HW221294   3.885   1.212  13.636
 6848SOL     OW21295   3.763   1.077  13.334
 6848SOL    HW121296   3.862   1.066  13.325
 6848SOL    HW221297   3.723   0.991  13.366
 6849SOL     OW21298   3.954   2.490   0.113
 6849SOL    HW121299   3.861   2.488   0.150
 6849SOL    HW221300   3.955   2.451   0.021
 6850SOL     OW21301   3.949   2.137   0.996
 6850SOL    HW121302   3.984   2.120   1.088
 6850SOL    HW221303   3.861   2.092   0.984
 6851SOL     OW21304   3.743   2.230   0.647
 6851SOL    HW121305   3.661   2.273   0.686
 6851SOL    HW221306   3.715   2.157   0.584
 6852SOL     OW21307   4.059   3.297   1.061
 6852SOL    HW121308   3.981   3.266   1.008
 6852SOL    HW221309   4.117   3.355   1.004
 6853SOL     OW21310   3.955   3.575   0.483
 6853SOL    HW121311   3.989   3.652   0.537
 6853SOL    HW221312   3.999   3.575   0.393
 6854SOL     OW21313   3.954   3.296   0.538
 6854SOL    HW121314   3.928   3.392   0.538
 6854SOL    HW221315   3.883   3.242   0.583
 6855SOL     OW21316   3.846   2.505   0.563
 6855SOL    HW121317   3.801   2.417   0.580
 6855SOL    HW221318   3.845   2.559   0.647
 6856SOL     OW21319   3.751   3.458   0.117
 6856SOL    HW121320   3.732   3.362   0.138
 6856SOL    HW221321   3.718   3.516   0.192
 6857SOL     OW21322   3.837   2.599   1.597
 6857SOL    HW121323   3.925   2.586   1.642
 6857SOL    HW221324   3.824   2.696   1.575
 6858SOL     OW21325   3.800   2.673   0.789
 6858SOL    HW121326   3.899   2.661   0.798
 6858SOL    HW221327   3.776   2.768   0.810
 6859SOL     OW21328   3.854   3.683   1.571
 6859SOL    HW121329   3.844   3.668   1.670
 6859SOL    HW221330   3.768   3.719   1.535
 6860SOL     OW21331   3.926   2.147   1.498
 6860SOL    HW121332   3.846   2.207   1.485
 6860SOL    HW221333   3.916   2.098   1.584
 6861SOL     OW21334   3.802   2.418   1.386
 6861SOL    HW121335   3.894   2.417   1.345
 6861SOL    HW221336   3.796   2.492   1.453
 6862SOL     OW21337   3.788   3.426   1.331
 6862SOL    HW121338   3.742   3.508   1.297
 6862SOL    HW221339   3.886   3.445   1.340
 6863SOL     OW21340   4.091   2.962   0.501
 6863SOL    HW121341   4.084   3.045   0.445
 6863SOL    HW221342   4.095   2.882   0.441
 6864SOL     OW21343   4.031   2.075   1.231
 6864SOL    HW121344   4.008   2.112   1.321
 6864SOL    HW221345   4.001   1.980   1.225
 6865SOL     OW21346   3.761   3.172   1.282
 6865SOL    HW121347   3.814   3.123   1.350
 6865SOL    HW221348   3.783   3.270   1.287
 6866SOL     OW21349   4.031   1.925   0.618
 6866SOL    HW121350   4.020   2.019   0.651
 6866SOL    HW221351   4.026   1.862   0.695
 6867SOL     OW21352   3.732   3.188   0.200
 6867SOL    HW121353   3.639   3.209   0.169
 6867SOL    HW221354   3.742   3.089   0.213
 6868SOL     OW21355   3.812   3.663   0.927
 6868SOL    HW121356   3.770   3.577   0.900
 6868SOL    HW221357   3.906   3.666   0.893
 6869SOL     OW21358   4.228   3.430   0.910
 6869SOL    HW121359   4.294   3.504   0.919
 6869SOL    HW221360   4.272   3.351   0.868
 6870SOL     OW21361   3.764   2.406   1.114
 6870SOL    HW121362   3.849   2.373   1.073
 6870SOL    HW221363   3.777   2.421   1.212
 6871SOL     OW21364   3.913   2.382   1.722
 6871SOL    HW121365   3.972   2.342   1.652
 6871SOL    HW221366   3.855   2.453   1.681
 6872SOL     OW21367   3.976   3.426   1.744
 6872SOL    HW121368   3.946   3.483   1.820
 6872SOL    HW221369   3.969   3.329   1.770
 6873SOL     OW21370   3.883   2.999   1.466
 6873SOL    HW121371   3.905   2.938   1.542
 6873SOL    HW221372   3.893   2.950   1.380
 6874SOL     OW21373   3.807   3.120   1.022
 6874SOL    HW121374   3.802   3.119   1.122
 6874SOL    HW221375   3.724   3.079   0.984
 6875SOL     OW21376   3.854   3.656   1.851
 6875SOL    HW121377   3.813   3.582   1.904
 6875SOL    HW221378   3.918   3.707   1.909
 6876SOL     OW21379   3.799   2.207   0.033
 6876SOL    HW121380   3.707   2.179   0.004
 6876SOL    HW221381   3.830   2.284  -0.023
 6877SOL     OW21382   3.796   2.028   0.318
 6877SOL    HW121383   3.779   2.111   0.264
 6877SOL    HW221384   3.886   1.991   0.296
 6878SOL     OW21385   3.803   3.102   0.653
 6878SOL    HW121386   3.802   3.055   0.741
 6878SOL    HW221387   3.885   3.074   0.602
 6879SOL     OW21388   3.763   2.939   0.300
 6879SOL    HW121389   3.862   2.928   0.291
 6879SOL    HW221390   3.723   2.853   0.332
 6880SOL     OW21391   3.954   2.490   1.975
 6880SOL    HW121392   3.861   2.488   2.012
 6880SOL    HW221393   3.955   2.451   1.883
 6881SOL     OW21394   3.949   2.137   2.858
 6881SOL    HW121395   3.984   2.120   2.950
 6881SOL    HW221396   3.861   2.092   2.846
 6882SOL     OW21397   3.743   2.230   2.509
 6882SOL    HW121398   3.661   2.273   2.548
 6882SOL    HW221399   3.715   2.157   2.446
 6883SOL     OW21400   4.059   3.297   2.923
 6883SOL    HW121401   3.981   3.266   2.870
 6883SOL    HW221402   4.117   3.355   2.866
 6884SOL     OW21403   3.955   3.575   2.345
 6884SOL    HW121404   3.989   3.652   2.399
 6884SOL    HW221405   3.999   3.575   2.255
 6885SOL     OW21406   3.954   3.296   2.400
 6885SOL    HW121407   3.928   3.392   2.400
 6885SOL    HW221408   3.883   3.242   2.445
 6886SOL     OW21409   3.846   2.505   2.425
 6886SOL    HW121410   3.801   2.417   2.442
 6886SOL    HW221411   3.845   2.559   2.509
 6887SOL     OW21412   3.751   3.458   1.979
 6887SOL    HW121413   3.732   3.362   2.000
 6887SOL    HW221414   3.718   3.516   2.054
 6888SOL     OW21415   3.837   2.599   3.459
 6888SOL    HW121416   3.925   2.586   3.504
 6888SOL    HW221417   3.824   2.696   3.437
 6889SOL     OW21418   3.800   2.673   2.651
 6889SOL    HW121419   3.899   2.661   2.660
 6889SOL    HW221420   3.776   2.768   2.672
 6890SOL     OW21421   3.854   3.683   3.433
 6890SOL    HW121422   3.844   3.668   3.532
 6890SOL    HW221423   3.768   3.719   3.397
 6891SOL     OW21424   3.926   2.147   3.360
 6891SOL    HW121425   3.846   2.207   3.347
 6891SOL    HW221426   3.916   2.098   3.446
 6892SOL     OW21427   4.021   1.897   2.033
 6892SOL    HW121428   4.070   1.981   2.012
 6892SOL    HW221429   4.083   1.832   2.078
 6893SOL     OW21430   3.802   2.418   3.248
 6893SOL    HW121431   3.894   2.417   3.207
 6893SOL    HW221432   3.796   2.492   3.315
 6894SOL     OW21433   4.251   2.118   2.190
 6894SOL    HW121434   4.278   2.059   2.115
 6894SOL    HW221435   4.251   2.213   2.159
 6895SOL     OW21436   3.788   3.426   3.193
 6895SOL    HW121437   3.742   3.508   3.159
 6895SOL    HW221438   3.886   3.445   3.202
 6896SOL     OW21439   4.091   2.962   2.363
 6896SOL    HW121440   4.084   3.045   2.307
 6896SOL    HW221441   4.095   2.882   2.303
 6897SOL     OW21442   4.031   2.075   3.093
 6897SOL    HW121443   4.008   2.112   3.183
 6897SOL    HW221444   4.001   1.980   3.087
 6898SOL     OW21445   3.761   3.172   3.144
 6898SOL    HW121446   3.814   3.123   3.212
 6898SOL    HW221447   3.783   3.270   3.149
 6899SOL     OW21448   4.031   1.925   2.480
 6899SOL    HW121449   4.020   2.019   2.513
 6899SOL    HW221450   4.026   1.862   2.557
 6900SOL     OW21451   3.732   3.188   2.062
 6900SOL    HW121452   3.639   3.209   2.031
 6900SOL    HW221453   3.742   3.089   2.075
 6901SOL     OW21454   3.812   3.663   2.789
 6901SOL    HW121455   3.770   3.577   2.762
 6901SOL    HW221456   3.906   3.666   2.755
 6902SOL     OW21457   4.228   3.430   2.772
 6902SOL    HW121458   4.294   3.504   2.781
 6902SOL    HW221459   4.272   3.351   2.730
 6903SOL     OW21460   3.764   2.406   2.976
 6903SOL    HW121461   3.849   2.373   2.935
 6903SOL    HW221462   3.777   2.421   3.074
 6904SOL     OW21463   3.913   2.382   3.584
 6904SOL    HW121464   3.972   2.342   3.514
 6904SOL    HW221465   3.855   2.453   3.543
 6905SOL     OW21466   3.976   3.426   3.606
 6905SOL    HW121467   3.946   3.483   3.682
 6905SOL    HW221468   3.969   3.329   3.632
 6906SOL     OW21469   3.883   2.999   3.328
 6906SOL    HW121470   3.905   2.938   3.404
 6906SOL    HW221471   3.893   2.950   3.242
 6907SOL     OW21472   3.807   3.120   2.884
 6907SOL    HW121473   3.802   3.119   2.984
 6907SOL    HW221474   3.724   3.079   2.846
 6908SOL     OW21475   3.854   3.656   3.713
 6908SOL    HW121476   3.813   3.582   3.766
 6908SOL    HW221477   3.918   3.707   3.771
 6909SOL     OW21478   3.799   2.207   1.895
 6909SOL    HW121479   3.707   2.179   1.866
 6909SOL    HW221480   3.830   2.284   1.839
 6910SOL     OW21481   3.796   2.028   2.180
 6910SOL    HW121482   3.779   2.111   2.126
 6910SOL    HW221483   3.886   1.991   2.158
 6911SOL     OW21484   3.803   3.102   2.515
 6911SOL    HW121485   3.802   3.055   2.603
 6911SOL    HW221486   3.885   3.074   2.464
 6912SOL     OW21487   3.763   2.939   2.162
 6912SOL    HW121488   3.862   2.928   2.153
 6912SOL    HW221489   3.723   2.853   2.194
 6913SOL     OW21490   3.954   2.490   3.837
 6913SOL    HW121491   3.861   2.488   3.874
 6913SOL    HW221492   3.955   2.451   3.745
 6914SOL     OW21493   3.949   2.137   4.720
 6914SOL    HW121494   3.984   2.120   4.812
 6914SOL    HW221495   3.861   2.092   4.708
 6915SOL     OW21496   3.743   2.230   4.371
 6915SOL    HW121497   3.661   2.273   4.410
 6915SOL    HW221498   3.715   2.157   4.308
 6916SOL     OW21499   4.059   3.297   4.785
 6916SOL    HW121500   3.981   3.266   4.732
 6916SOL    HW221501   4.117   3.355   4.728
 6917SOL     OW21502   3.955   3.575   4.207
 6917SOL    HW121503   3.989   3.652   4.261
 6917SOL    HW221504   3.999   3.575   4.117
 6918SOL     OW21505   3.954   3.296   4.262
 6918SOL    HW121506   3.928   3.392   4.262
 6918SOL    HW221507   3.883   3.242   4.307
 6919SOL     OW21508   3.846   2.505   4.287
 6919SOL    HW121509   3.801   2.417   4.304
 6919SOL    HW221510   3.845   2.559   4.371
 6920SOL     OW21511   3.751   3.458   3.841
 6920SOL    HW121512   3.732   3.362   3.862
 6920SOL    HW221513   3.718   3.516   3.916
 6921SOL     OW21514   3.837   2.599   5.321
 6921SOL    HW121515   3.925   2.586   5.366
 6921SOL    HW221516   3.824   2.696   5.299
 6922SOL     OW21517   3.800   2.673   4.513
 6922SOL    HW121518   3.899   2.661   4.522
 6922SOL    HW221519   3.776   2.768   4.534
 6923SOL     OW21520   3.854   3.683   5.295
 6923SOL    HW121521   3.844   3.668   5.394
 6923SOL    HW221522   3.768   3.719   5.259
 6924SOL     OW21523   3.926   2.147   5.222
 6924SOL    HW121524   3.846   2.207   5.209
 6924SOL    HW221525   3.916   2.098   5.308
 6925SOL     OW21526   4.021   1.897   3.895
 6925SOL    HW121527   4.070   1.981   3.874
 6925SOL    HW221528   4.083   1.832   3.940
 6926SOL     OW21529   3.802   2.418   5.110
 6926SOL    HW121530   3.894   2.417   5.069
 6926SOL    HW221531   3.796   2.492   5.177
 6927SOL     OW21532   4.251   2.118   4.052
 6927SOL    HW121533   4.278   2.059   3.977
 6927SOL    HW221534   4.251   2.213   4.021
 6928SOL     OW21535   3.788   3.426   5.055
 6928SOL    HW121536   3.742   3.508   5.021
 6928SOL    HW221537   3.886   3.445   5.064
 6929SOL     OW21538   4.091   2.962   4.225
 6929SOL    HW121539   4.084   3.045   4.169
 6929SOL    HW221540   4.095   2.882   4.165
 6930SOL     OW21541   4.031   2.075   4.955
 6930SOL    HW121542   4.008   2.112   5.045
 6930SOL    HW221543   4.001   1.980   4.949
 6931SOL     OW21544   3.761   3.172   5.006
 6931SOL    HW121545   3.814   3.123   5.074
 6931SOL    HW221546   3.783   3.270   5.011
 6932SOL     OW21547   4.031   1.925   4.342
 6932SOL    HW121548   4.020   2.019   4.375
 6932SOL    HW221549   4.026   1.862   4.419
 6933SOL     OW21550   3.732   3.188   3.924
 6933SOL    HW121551   3.639   3.209   3.893
 6933SOL    HW221552   3.742   3.089   3.937
 6934SOL     OW21553   3.812   3.663   4.651
 6934SOL    HW121554   3.770   3.577   4.624
 6934SOL    HW221555   3.906   3.666   4.617
 6935SOL     OW21556   4.228   3.430   4.634
 6935SOL    HW121557   4.294   3.504   4.643
 6935SOL    HW221558   4.272   3.351   4.592
 6936SOL     OW21559   3.764   2.406   4.838
 6936SOL    HW121560   3.849   2.373   4.797
 6936SOL    HW221561   3.777   2.421   4.936
 6937SOL     OW21562   3.913   2.382   5.446
 6937SOL    HW121563   3.972   2.342   5.376
 6937SOL    HW221564   3.855   2.453   5.405
 6938SOL     OW21565   3.976   3.426   5.468
 6938SOL    HW121566   3.946   3.483   5.544
 6938SOL    HW221567   3.969   3.329   5.494
 6939SOL     OW21568   3.883   2.999   5.190
 6939SOL    HW121569   3.905   2.938   5.266
 6939SOL    HW221570   3.893   2.950   5.104
 6940SOL     OW21571   3.807   3.120   4.746
 6940SOL    HW121572   3.802   3.119   4.846
 6940SOL    HW221573   3.724   3.079   4.708
 6941SOL     OW21574   3.854   3.656   5.575
 6941SOL    HW121575   3.813   3.582   5.628
 6941SOL    HW221576   3.918   3.707   5.633
 6942SOL     OW21577   3.799   2.207   3.757
 6942SOL    HW121578   3.707   2.179   3.728
 6942SOL    HW221579   3.830   2.284   3.701
 6943SOL     OW21580   3.796   2.028   4.042
 6943SOL    HW121581   3.779   2.111   3.988
 6943SOL    HW221582   3.886   1.991   4.020
 6944SOL     OW21583   3.803   3.102   4.377
 6944SOL    HW121584   3.802   3.055   4.465
 6944SOL    HW221585   3.885   3.074   4.326
 6945SOL     OW21586   3.763   2.939   4.024
 6945SOL    HW121587   3.862   2.928   4.015
 6945SOL    HW221588   3.723   2.853   4.056
 6946SOL     OW21589   3.954   2.490   5.699
 6946SOL    HW121590   3.861   2.488   5.736
 6946SOL    HW221591   3.955   2.451   5.607
 6947SOL     OW21592   3.949   2.137   6.582
 6947SOL    HW121593   3.984   2.120   6.674
 6947SOL    HW221594   3.861   2.092   6.570
 6948SOL     OW21595   3.743   2.230   6.233
 6948SOL    HW121596   3.661   2.273   6.272
 6948SOL    HW221597   3.715   2.157   6.170
 6949SOL     OW21598   4.059   3.297   6.647
 6949SOL    HW121599   3.981   3.266   6.594
 6949SOL    HW221600   4.117   3.355   6.590
 6950SOL     OW21601   3.955   3.575   6.069
 6950SOL    HW121602   3.989   3.652   6.123
 6950SOL    HW221603   3.999   3.575   5.979
 6951SOL     OW21604   3.954   3.296   6.124
 6951SOL    HW121605   3.928   3.392   6.124
 6951SOL    HW221606   3.883   3.242   6.169
 6952SOL     OW21607   3.846   2.505   6.149
 6952SOL    HW121608   3.801   2.417   6.166
 6952SOL    HW221609   3.845   2.559   6.233
 6953SOL     OW21610   3.751   3.458   5.703
 6953SOL    HW121611   3.732   3.362   5.724
 6953SOL    HW221612   3.718   3.516   5.778
 6954SOL     OW21613   3.837   2.599   7.183
 6954SOL    HW121614   3.925   2.586   7.228
 6954SOL    HW221615   3.824   2.696   7.161
 6955SOL     OW21616   3.800   2.673   6.375
 6955SOL    HW121617   3.899   2.661   6.384
 6955SOL    HW221618   3.776   2.768   6.396
 6956SOL     OW21619   3.854   3.683   7.157
 6956SOL    HW121620   3.844   3.668   7.256
 6956SOL    HW221621   3.768   3.719   7.121
 6957SOL     OW21622   3.926   2.147   7.084
 6957SOL    HW121623   3.846   2.207   7.071
 6957SOL    HW221624   3.916   2.098   7.170
 6958SOL     OW21625   4.021   1.897   5.757
 6958SOL    HW121626   4.070   1.981   5.736
 6958SOL    HW221627   4.083   1.832   5.802
 6959SOL     OW21628   3.802   2.418   6.972
 6959SOL    HW121629   3.894   2.417   6.931
 6959SOL    HW221630   3.796   2.492   7.039
 6960SOL     OW21631   4.251   2.118   5.914
 6960SOL    HW121632   4.278   2.059   5.839
 6960SOL    HW221633   4.251   2.213   5.883
 6961SOL     OW21634   3.788   3.426   6.917
 6961SOL    HW121635   3.742   3.508   6.883
 6961SOL    HW221636   3.886   3.445   6.926
 6962SOL     OW21637   4.091   2.962   6.087
 6962SOL    HW121638   4.084   3.045   6.031
 6962SOL    HW221639   4.095   2.882   6.027
 6963SOL     OW21640   4.031   2.075   6.817
 6963SOL    HW121641   4.008   2.112   6.907
 6963SOL    HW221642   4.001   1.980   6.811
 6964SOL     OW21643   3.761   3.172   6.868
 6964SOL    HW121644   3.814   3.123   6.936
 6964SOL    HW221645   3.783   3.270   6.873
 6965SOL     OW21646   4.031   1.925   6.204
 6965SOL    HW121647   4.020   2.019   6.237
 6965SOL    HW221648   4.026   1.862   6.281
 6966SOL     OW21649   3.732   3.188   5.786
 6966SOL    HW121650   3.639   3.209   5.755
 6966SOL    HW221651   3.742   3.089   5.799
 6967SOL     OW21652   3.812   3.663   6.513
 6967SOL    HW121653   3.770   3.577   6.486
 6967SOL    HW221654   3.906   3.666   6.479
 6968SOL     OW21655   4.228   3.430   6.496
 6968SOL    HW121656   4.294   3.504   6.505
 6968SOL    HW221657   4.272   3.351   6.454
 6969SOL     OW21658   3.764   2.406   6.700
 6969SOL    HW121659   3.849   2.373   6.659
 6969SOL    HW221660   3.777   2.421   6.798
 6970SOL     OW21661   3.913   2.382   7.308
 6970SOL    HW121662   3.972   2.342   7.238
 6970SOL    HW221663   3.855   2.453   7.267
 6971SOL     OW21664   3.976   3.426   7.330
 6971SOL    HW121665   3.946   3.483   7.406
 6971SOL    HW221666   3.969   3.329   7.356
 6972SOL     OW21667   3.883   2.999   7.052
 6972SOL    HW121668   3.905   2.938   7.128
 6972SOL    HW221669   3.893   2.950   6.966
 6973SOL     OW21670   3.807   3.120   6.608
 6973SOL    HW121671   3.802   3.119   6.708
 6973SOL    HW221672   3.724   3.079   6.570
 6974SOL     OW21673   3.854   3.656   7.437
 6974SOL    HW121674   3.813   3.582   7.490
 6974SOL    HW221675   3.918   3.707   7.495
 6975SOL     OW21676   3.799   2.207   5.619
 6975SOL    HW121677   3.707   2.179   5.590
 6975SOL    HW221678   3.830   2.284   5.563
 6976SOL     OW21679   3.796   2.028   5.904
 6976SOL    HW121680   3.779   2.111   5.850
 6976SOL    HW221681   3.886   1.991   5.882
 6977SOL     OW21682   3.803   3.102   6.239
 6977SOL    HW121683   3.802   3.055   6.327
 6977SOL    HW221684   3.885   3.074   6.188
 6978SOL     OW21685   3.763   2.939   5.886
 6978SOL    HW121686   3.862   2.928   5.877
 6978SOL    HW221687   3.723   2.853   5.918
 6979SOL     OW21688   3.954   2.490   7.561
 6979SOL    HW121689   3.861   2.488   7.598
 6979SOL    HW221690   3.955   2.451   7.469
 6980SOL     OW21691   3.949   2.137   8.444
 6980SOL    HW121692   3.984   2.120   8.536
 6980SOL    HW221693   3.861   2.092   8.432
 6981SOL     OW21694   3.743   2.230   8.095
 6981SOL    HW121695   3.661   2.273   8.134
 6981SOL    HW221696   3.715   2.157   8.032
 6982SOL     OW21697   4.059   3.297   8.509
 6982SOL    HW121698   3.981   3.266   8.456
 6982SOL    HW221699   4.117   3.355   8.452
 6983SOL     OW21700   3.955   3.575   7.931
 6983SOL    HW121701   3.989   3.652   7.985
 6983SOL    HW221702   3.999   3.575   7.841
 6984SOL     OW21703   3.954   3.296   7.986
 6984SOL    HW121704   3.928   3.392   7.986
 6984SOL    HW221705   3.883   3.242   8.031
 6985SOL     OW21706   3.846   2.505   8.011
 6985SOL    HW121707   3.801   2.417   8.028
 6985SOL    HW221708   3.845   2.559   8.095
 6986SOL     OW21709   3.751   3.458   7.565
 6986SOL    HW121710   3.732   3.362   7.586
 6986SOL    HW221711   3.718   3.516   7.640
 6987SOL     OW21712   3.837   2.599   9.045
 6987SOL    HW121713   3.925   2.586   9.090
 6987SOL    HW221714   3.824   2.696   9.023
 6988SOL     OW21715   3.800   2.673   8.237
 6988SOL    HW121716   3.899   2.661   8.246
 6988SOL    HW221717   3.776   2.768   8.258
 6989SOL     OW21718   3.854   3.683   9.019
 6989SOL    HW121719   3.844   3.668   9.118
 6989SOL    HW221720   3.768   3.719   8.983
 6990SOL     OW21721   3.926   2.147   8.946
 6990SOL    HW121722   3.846   2.207   8.933
 6990SOL    HW221723   3.916   2.098   9.032
 6991SOL     OW21724   4.021   1.897   7.619
 6991SOL    HW121725   4.070   1.981   7.598
 6991SOL    HW221726   4.083   1.832   7.664
 6992SOL     OW21727   3.802   2.418   8.834
 6992SOL    HW121728   3.894   2.417   8.793
 6992SOL    HW221729   3.796   2.492   8.901
 6993SOL     OW21730   4.251   2.118   7.776
 6993SOL    HW121731   4.278   2.059   7.701
 6993SOL    HW221732   4.251   2.213   7.745
 6994SOL     OW21733   3.788   3.426   8.779
 6994SOL    HW121734   3.742   3.508   8.745
 6994SOL    HW221735   3.886   3.445   8.788
 6995SOL     OW21736   4.091   2.962   7.949
 6995SOL    HW121737   4.084   3.045   7.893
 6995SOL    HW221738   4.095   2.882   7.889
 6996SOL     OW21739   4.031   2.075   8.679
 6996SOL    HW121740   4.008   2.112   8.769
 6996SOL    HW221741   4.001   1.980   8.673
 6997SOL     OW21742   3.761   3.172   8.730
 6997SOL    HW121743   3.814   3.123   8.798
 6997SOL    HW221744   3.783   3.270   8.735
 6998SOL     OW21745   4.031   1.925   8.066
 6998SOL    HW121746   4.020   2.019   8.099
 6998SOL    HW221747   4.026   1.862   8.143
 6999SOL     OW21748   3.732   3.188   7.648
 6999SOL    HW121749   3.639   3.209   7.617
 6999SOL    HW221750   3.742   3.089   7.661
 7000SOL     OW21751   3.812   3.663   8.375
 7000SOL    HW121752   3.770   3.577   8.348
 7000SOL    HW221753   3.906   3.666   8.341
 7001SOL     OW21754   4.228   3.430   8.358
 7001SOL    HW121755   4.294   3.504   8.367
 7001SOL    HW221756   4.272   3.351   8.316
 7002SOL     OW21757   3.764   2.406   8.562
 7002SOL    HW121758   3.849   2.373   8.521
 7002SOL    HW221759   3.777   2.421   8.660
 7003SOL     OW21760   3.913   2.382   9.170
 7003SOL    HW121761   3.972   2.342   9.100
 7003SOL    HW221762   3.855   2.453   9.129
 7004SOL     OW21763   3.976   3.426   9.192
 7004SOL    HW121764   3.946   3.483   9.268
 7004SOL    HW221765   3.969   3.329   9.218
 7005SOL     OW21766   3.883   2.999   8.914
 7005SOL    HW121767   3.905   2.938   8.990
 7005SOL    HW221768   3.893   2.950   8.828
 7006SOL     OW21769   3.807   3.120   8.470
 7006SOL    HW121770   3.802   3.119   8.570
 7006SOL    HW221771   3.724   3.079   8.432
 7007SOL     OW21772   3.854   3.656   9.299
 7007SOL    HW121773   3.813   3.582   9.352
 7007SOL    HW221774   3.918   3.707   9.357
 7008SOL     OW21775   3.799   2.207   7.481
 7008SOL    HW121776   3.707   2.179   7.452
 7008SOL    HW221777   3.830   2.284   7.425
 7009SOL     OW21778   3.796   2.028   7.766
 7009SOL    HW121779   3.779   2.111   7.712
 7009SOL    HW221780   3.886   1.991   7.744
 7010SOL     OW21781   3.803   3.102   8.101
 7010SOL    HW121782   3.802   3.055   8.189
 7010SOL    HW221783   3.885   3.074   8.050
 7011SOL     OW21784   3.763   2.939   7.748
 7011SOL    HW121785   3.862   2.928   7.739
 7011SOL    HW221786   3.723   2.853   7.780
 7012SOL     OW21787   3.954   2.490   9.423
 7012SOL    HW121788   3.861   2.488   9.460
 7012SOL    HW221789   3.955   2.451   9.331
 7013SOL     OW21790   3.949   2.137  10.306
 7013SOL    HW121791   3.984   2.120  10.398
 7013SOL    HW221792   3.861   2.092  10.294
 7014SOL     OW21793   3.743   2.230   9.957
 7014SOL    HW121794   3.661   2.273   9.996
 7014SOL    HW221795   3.715   2.157   9.894
 7015SOL     OW21796   4.059   3.297  10.371
 7015SOL    HW121797   3.981   3.266  10.318
 7015SOL    HW221798   4.117   3.355  10.314
 7016SOL     OW21799   3.955   3.575   9.793
 7016SOL    HW121800   3.989   3.652   9.847
 7016SOL    HW221801   3.999   3.575   9.703
 7017SOL     OW21802   3.954   3.296   9.848
 7017SOL    HW121803   3.928   3.392   9.848
 7017SOL    HW221804   3.883   3.242   9.893
 7018SOL     OW21805   3.846   2.505   9.873
 7018SOL    HW121806   3.801   2.417   9.890
 7018SOL    HW221807   3.845   2.559   9.957
 7019SOL     OW21808   3.751   3.458   9.427
 7019SOL    HW121809   3.732   3.362   9.448
 7019SOL    HW221810   3.718   3.516   9.502
 7020SOL     OW21811   3.837   2.599  10.907
 7020SOL    HW121812   3.925   2.586  10.952
 7020SOL    HW221813   3.824   2.696  10.885
 7021SOL     OW21814   3.800   2.673  10.099
 7021SOL    HW121815   3.899   2.661  10.108
 7021SOL    HW221816   3.776   2.768  10.120
 7022SOL     OW21817   3.854   3.683  10.881
 7022SOL    HW121818   3.844   3.668  10.980
 7022SOL    HW221819   3.768   3.719  10.845
 7023SOL     OW21820   3.926   2.147  10.808
 7023SOL    HW121821   3.846   2.207  10.795
 7023SOL    HW221822   3.916   2.098  10.894
 7024SOL     OW21823   4.021   1.897   9.481
 7024SOL    HW121824   4.070   1.981   9.460
 7024SOL    HW221825   4.083   1.832   9.526
 7025SOL     OW21826   3.802   2.418  10.696
 7025SOL    HW121827   3.894   2.417  10.655
 7025SOL    HW221828   3.796   2.492  10.763
 7026SOL     OW21829   4.251   2.118   9.638
 7026SOL    HW121830   4.278   2.059   9.563
 7026SOL    HW221831   4.251   2.213   9.607
 7027SOL     OW21832   3.788   3.426  10.641
 7027SOL    HW121833   3.742   3.508  10.607
 7027SOL    HW221834   3.886   3.445  10.650
 7028SOL     OW21835   4.091   2.962   9.811
 7028SOL    HW121836   4.084   3.045   9.755
 7028SOL    HW221837   4.095   2.882   9.751
 7029SOL     OW21838   4.031   2.075  10.541
 7029SOL    HW121839   4.008   2.112  10.631
 7029SOL    HW221840   4.001   1.980  10.535
 7030SOL     OW21841   3.761   3.172  10.592
 7030SOL    HW121842   3.814   3.123  10.660
 7030SOL    HW221843   3.783   3.270  10.597
 7031SOL     OW21844   4.031   1.925   9.928
 7031SOL    HW121845   4.020   2.019   9.961
 7031SOL    HW221846   4.026   1.862  10.005
 7032SOL     OW21847   3.732   3.188   9.510
 7032SOL    HW121848   3.639   3.209   9.479
 7032SOL    HW221849   3.742   3.089   9.523
 7033SOL     OW21850   3.812   3.663  10.237
 7033SOL    HW121851   3.770   3.577  10.210
 7033SOL    HW221852   3.906   3.666  10.203
 7034SOL     OW21853   4.228   3.430  10.220
 7034SOL    HW121854   4.294   3.504  10.229
 7034SOL    HW221855   4.272   3.351  10.178
 7035SOL     OW21856   3.764   2.406  10.424
 7035SOL    HW121857   3.849   2.373  10.383
 7035SOL    HW221858   3.777   2.421  10.522
 7036SOL     OW21859   3.913   2.382  11.032
 7036SOL    HW121860   3.972   2.342  10.962
 7036SOL    HW221861   3.855   2.453  10.991
 7037SOL     OW21862   3.976   3.426  11.054
 7037SOL    HW121863   3.946   3.483  11.130
 7037SOL    HW221864   3.969   3.329  11.080
 7038SOL     OW21865   3.883   2.999  10.776
 7038SOL    HW121866   3.905   2.938  10.852
 7038SOL    HW221867   3.893   2.950  10.690
 7039SOL     OW21868   3.807   3.120  10.332
 7039SOL    HW121869   3.802   3.119  10.432
 7039SOL    HW221870   3.724   3.079  10.294
 7040SOL     OW21871   3.854   3.656  11.161
 7040SOL    HW121872   3.813   3.582  11.214
 7040SOL    HW221873   3.918   3.707  11.219
 7041SOL     OW21874   3.799   2.207   9.343
 7041SOL    HW121875   3.707   2.179   9.314
 7041SOL    HW221876   3.830   2.284   9.287
 7042SOL     OW21877   3.796   2.028   9.628
 7042SOL    HW121878   3.779   2.111   9.574
 7042SOL    HW221879   3.886   1.991   9.606
 7043SOL     OW21880   3.803   3.102   9.963
 7043SOL    HW121881   3.802   3.055  10.051
 7043SOL    HW221882   3.885   3.074   9.912
 7044SOL     OW21883   3.763   2.939   9.610
 7044SOL    HW121884   3.862   2.928   9.601
 7044SOL    HW221885   3.723   2.853   9.642
 7045SOL     OW21886   3.954   2.490  11.285
 7045SOL    HW121887   3.861   2.488  11.322
 7045SOL    HW221888   3.955   2.451  11.193
 7046SOL     OW21889   3.949   2.137  12.168
 7046SOL    HW121890   3.984   2.120  12.260
 7046SOL    HW221891   3.861   2.092  12.156
 7047SOL     OW21892   3.743   2.230  11.819
 7047SOL    HW121893   3.661   2.273  11.858
 7047SOL    HW221894   3.715   2.157  11.756
 7048SOL     OW21895   4.059   3.297  12.233
 7048SOL    HW121896   3.981   3.266  12.180
 7048SOL    HW221897   4.117   3.355  12.176
 7049SOL     OW21898   3.955   3.575  11.655
 7049SOL    HW121899   3.989   3.652  11.709
 7049SOL    HW221900   3.999   3.575  11.565
 7050SOL     OW21901   3.954   3.296  11.710
 7050SOL    HW121902   3.928   3.392  11.710
 7050SOL    HW221903   3.883   3.242  11.755
 7051SOL     OW21904   3.846   2.505  11.735
 7051SOL    HW121905   3.801   2.417  11.752
 7051SOL    HW221906   3.845   2.559  11.819
 7052SOL     OW21907   3.751   3.458  11.289
 7052SOL    HW121908   3.732   3.362  11.310
 7052SOL    HW221909   3.718   3.516  11.364
 7053SOL     OW21910   3.837   2.599  12.769
 7053SOL    HW121911   3.925   2.586  12.814
 7053SOL    HW221912   3.824   2.696  12.747
 7054SOL     OW21913   3.800   2.673  11.961
 7054SOL    HW121914   3.899   2.661  11.970
 7054SOL    HW221915   3.776   2.768  11.982
 7055SOL     OW21916   3.854   3.683  12.743
 7055SOL    HW121917   3.844   3.668  12.842
 7055SOL    HW221918   3.768   3.719  12.707
 7056SOL     OW21919   3.926   2.147  12.670
 7056SOL    HW121920   3.846   2.207  12.657
 7056SOL    HW221921   3.916   2.098  12.756
 7057SOL     OW21922   4.021   1.897  11.343
 7057SOL    HW121923   4.070   1.981  11.322
 7057SOL    HW221924   4.083   1.832  11.388
 7058SOL     OW21925   3.802   2.418  12.558
 7058SOL    HW121926   3.894   2.417  12.517
 7058SOL    HW221927   3.796   2.492  12.625
 7059SOL     OW21928   4.251   2.118  11.500
 7059SOL    HW121929   4.278   2.059  11.425
 7059SOL    HW221930   4.251   2.213  11.469
 7060SOL     OW21931   3.788   3.426  12.503
 7060SOL    HW121932   3.742   3.508  12.469
 7060SOL    HW221933   3.886   3.445  12.512
 7061SOL     OW21934   4.091   2.962  11.673
 7061SOL    HW121935   4.084   3.045  11.617
 7061SOL    HW221936   4.095   2.882  11.613
 7062SOL     OW21937   4.031   2.075  12.403
 7062SOL    HW121938   4.008   2.112  12.493
 7062SOL    HW221939   4.001   1.980  12.397
 7063SOL     OW21940   3.761   3.172  12.454
 7063SOL    HW121941   3.814   3.123  12.522
 7063SOL    HW221942   3.783   3.270  12.459
 7064SOL     OW21943   4.031   1.925  11.790
 7064SOL    HW121944   4.020   2.019  11.823
 7064SOL    HW221945   4.026   1.862  11.867
 7065SOL     OW21946   3.732   3.188  11.372
 7065SOL    HW121947   3.639   3.209  11.341
 7065SOL    HW221948   3.742   3.089  11.385
 7066SOL     OW21949   3.812   3.663  12.099
 7066SOL    HW121950   3.770   3.577  12.072
 7066SOL    HW221951   3.906   3.666  12.065
 7067SOL     OW21952   4.228   3.430  12.082
 7067SOL    HW121953   4.294   3.504  12.091
 7067SOL    HW221954   4.272   3.351  12.040
 7068SOL     OW21955   3.764   2.406  12.286
 7068SOL    HW121956   3.849   2.373  12.245
 7068SOL    HW221957   3.777   2.421  12.384
 7069SOL     OW21958   3.913   2.382  12.894
 7069SOL    HW121959   3.972   2.342  12.824
 7069SOL    HW221960   3.855   2.453  12.853
 7070SOL     OW21961   3.976   3.426  12.916
 7070SOL    HW121962   3.946   3.483  12.992
 7070SOL    HW221963   3.969   3.329  12.942
 7071SOL     OW21964   3.883   2.999  12.638
 7071SOL    HW121965   3.905   2.938  12.714
 7071SOL    HW221966   3.893   2.950  12.552
 7072SOL     OW21967   3.807   3.120  12.194
 7072SOL    HW121968   3.802   3.119  12.294
 7072SOL    HW221969   3.724   3.079  12.156
 7073SOL     OW21970   3.854   3.656  13.023
 7073SOL    HW121971   3.813   3.582  13.076
 7073SOL    HW221972   3.918   3.707  13.081
 7074SOL     OW21973   3.799   2.207  11.205
 7074SOL    HW121974   3.707   2.179  11.176
 7074SOL    HW221975   3.830   2.284  11.149
 7075SOL     OW21976   3.796   2.028  11.490
 7075SOL    HW121977   3.779   2.111  11.436
 7075SOL    HW221978   3.886   1.991  11.468
 7076SOL     OW21979   3.803   3.102  11.825
 7076SOL    HW121980   3.802   3.055  11.913
 7076SOL    HW221981   3.885   3.074  11.774
 7077SOL     OW21982   3.763   2.939  11.472
 7077SOL    HW121983   3.862   2.928  11.463
 7077SOL    HW221984   3.723   2.853  11.504
 7078SOL     OW21985   3.954   2.490  13.147
 7078SOL    HW121986   3.861   2.488  13.184
 7078SOL    HW221987   3.955   2.451  13.055
 7079SOL     OW21988   3.743   2.230  13.681
 7079SOL    HW121989   3.661   2.273  13.720
 7079SOL    HW221990   3.715   2.157  13.618
 7080SOL     OW21991   3.955   3.575  13.517
 7080SOL    HW121992   3.989   3.652  13.571
 7080SOL    HW221993   3.999   3.575  13.427
 7081SOL     OW21994   3.954   3.296  13.572
 7081SOL    HW121995   3.928   3.392  13.572
 7081SOL    HW221996   3.883   3.242  13.617
 7082SOL     OW21997   3.964   2.953  13.920
 7082SOL    HW121998   3.978   2.869  13.972
 7082SOL    HW221999   3.909   3.017  13.975
 7083SOL     OW22000   3.846   2.505  13.597
 7083SOL    HW122001   3.801   2.417  13.614
 7083SOL    HW222002   3.845   2.559  13.681
 7084SOL     OW22003   3.751   3.458  13.151
 7084SOL    HW122004   3.732   3.362  13.172
 7084SOL    HW222005   3.718   3.516  13.226
 7085SOL     OW22006   3.800   2.673  13.823
 7085SOL    HW122007   3.899   2.661  13.832
 7085SOL    HW222008   3.776   2.768  13.844
 7086SOL     OW22009   4.075   3.663  13.887
 7086SOL    HW122010   4.125   3.577  13.893
 7086SOL    HW222011   4.140   3.740  13.884
 7087SOL     OW22012   4.021   1.897  13.205
 7087SOL    HW122013   4.070   1.981  13.184
 7087SOL    HW222014   4.083   1.832  13.250
 7088SOL     OW22015   4.251   2.118  13.362
 7088SOL    HW122016   4.278   2.059  13.287
 7088SOL    HW222017   4.251   2.213  13.331
 7089SOL     OW22018   4.091   2.962  13.535
 7089SOL    HW122019   4.084   3.045  13.479
 7089SOL    HW222020   4.095   2.882  13.475
 7090SOL     OW22021   4.031   1.925  13.652
 7090SOL    HW122022   4.020   2.019  13.685
 7090SOL    HW222023   4.026   1.862  13.729
 7091SOL     OW22024   3.732   3.188  13.234
 7091SOL    HW122025   3.639   3.209  13.203
 7091SOL    HW222026   3.742   3.089  13.247
 7092SOL     OW22027   4.228   3.430  13.944
 7092SOL    HW122028   4.294   3.504  13.953
 7092SOL    HW222029   4.272   3.351  13.902
 7093SOL     OW22030   3.799   2.207  13.067
 7093SOL    HW122031   3.707   2.179  13.038
 7093SOL    HW222032   3.830   2.284  13.011
 7094SOL     OW22033   3.796   2.028  13.352
 7094SOL    HW122034   3.779   2.111  13.298
 7094SOL    HW222035   3.886   1.991  13.330
 7095SOL     OW22036   3.803   3.102  13.687
 7095SOL    HW122037   3.802   3.055  13.775
 7095SOL    HW222038   3.885   3.074  13.636
 7096SOL     OW22039   3.763   2.939  13.334
 7096SOL    HW122040   3.862   2.928  13.325
 7096SOL    HW222041   3.723   2.853  13.366
 7097SOL     OW22042   3.949   3.999   0.996
 7097SOL    HW122043   3.984   3.982   1.088
 7097SOL    HW222044   3.861   3.954   0.984
 7098SOL     OW22045   3.743   4.092   0.647
 7098SOL    HW122046   3.661   4.135   0.686
 7098SOL    HW222047   3.715   4.019   0.584
 7099SOL     OW22048   3.926   4.009   1.498
 7099SOL    HW122049   3.846   4.069   1.485
 7099SOL    HW222050   3.916   3.960   1.584
 7100SOL     OW22051   4.021   3.759   0.171
 7100SOL    HW122052   4.070   3.843   0.150
 7100SOL    HW222053   4.083   3.694   0.216
 7101SOL     OW22054   4.031   3.937   1.231
 7101SOL    HW122055   4.008   3.974   1.321
 7101SOL    HW222056   4.001   3.842   1.225
 7102SOL     OW22057   4.031   3.787   0.618
 7102SOL    HW122058   4.020   3.881   0.651
 7102SOL    HW222059   4.026   3.724   0.695
 7103SOL     OW22060   3.796   3.890   0.318
 7103SOL    HW122061   3.779   3.973   0.264
 7103SOL    HW222062   3.886   3.853   0.296
 7104SOL     OW22063   3.949   3.999   2.858
 7104SOL    HW122064   3.984   3.982   2.950
 7104SOL    HW222065   3.861   3.954   2.846
 7105SOL     OW22066   3.743   4.092   2.509
 7105SOL    HW122067   3.661   4.135   2.548
 7105SOL    HW222068   3.715   4.019   2.446
 7106SOL     OW22069   3.926   4.009   3.360
 7106SOL    HW122070   3.846   4.069   3.347
 7106SOL    HW222071   3.916   3.960   3.446
 7107SOL     OW22072   4.021   3.759   2.033
 7107SOL    HW122073   4.070   3.843   2.012
 7107SOL    HW222074   4.083   3.694   2.078
 7108SOL     OW22075   4.031   3.937   3.093
 7108SOL    HW122076   4.008   3.974   3.183
 7108SOL    HW222077   4.001   3.842   3.087
 7109SOL     OW22078   4.031   3.787   2.480
 7109SOL    HW122079   4.020   3.881   2.513
 7109SOL    HW222080   4.026   3.724   2.557
 7110SOL     OW22081   3.799   4.069   1.895
 7110SOL    HW122082   3.707   4.041   1.866
 7110SOL    HW222083   3.830   4.146   1.839
 7111SOL     OW22084   3.796   3.890   2.180
 7111SOL    HW122085   3.779   3.973   2.126
 7111SOL    HW222086   3.886   3.853   2.158
 7112SOL     OW22087   3.949   3.999   4.720
 7112SOL    HW122088   3.984   3.982   4.812
 7112SOL    HW222089   3.861   3.954   4.708
 7113SOL     OW22090   3.743   4.092   4.371
 7113SOL    HW122091   3.661   4.135   4.410
 7113SOL    HW222092   3.715   4.019   4.308
 7114SOL     OW22093   3.926   4.009   5.222
 7114SOL    HW122094   3.846   4.069   5.209
 7114SOL    HW222095   3.916   3.960   5.308
 7115SOL     OW22096   4.021   3.759   3.895
 7115SOL    HW122097   4.070   3.843   3.874
 7115SOL    HW222098   4.083   3.694   3.940
 7116SOL     OW22099   4.031   3.937   4.955
 7116SOL    HW122100   4.008   3.974   5.045
 7116SOL    HW222101   4.001   3.842   4.949
 7117SOL     OW22102   4.031   3.787   4.342
 7117SOL    HW122103   4.020   3.881   4.375
 7117SOL    HW222104   4.026   3.724   4.419
 7118SOL     OW22105   3.799   4.069   3.757
 7118SOL    HW122106   3.707   4.041   3.728
 7118SOL    HW222107   3.830   4.146   3.701
 7119SOL     OW22108   3.796   3.890   4.042
 7119SOL    HW122109   3.779   3.973   3.988
 7119SOL    HW222110   3.886   3.853   4.020
 7120SOL     OW22111   3.949   3.999   6.582
 7120SOL    HW122112   3.984   3.982   6.674
 7120SOL    HW222113   3.861   3.954   6.570
 7121SOL     OW22114   3.743   4.092   6.233
 7121SOL    HW122115   3.661   4.135   6.272
 7121SOL    HW222116   3.715   4.019   6.170
 7122SOL     OW22117   3.926   4.009   7.084
 7122SOL    HW122118   3.846   4.069   7.071
 7122SOL    HW222119   3.916   3.960   7.170
 7123SOL     OW22120   4.021   3.759   5.757
 7123SOL    HW122121   4.070   3.843   5.736
 7123SOL    HW222122   4.083   3.694   5.802
 7124SOL     OW22123   4.031   3.937   6.817
 7124SOL    HW122124   4.008   3.974   6.907
 7124SOL    HW222125   4.001   3.842   6.811
 7125SOL     OW22126   4.031   3.787   6.204
 7125SOL    HW122127   4.020   3.881   6.237
 7125SOL    HW222128   4.026   3.724   6.281
 7126SOL     OW22129   3.799   4.069   5.619
 7126SOL    HW122130   3.707   4.041   5.590
 7126SOL    HW222131   3.830   4.146   5.563
 7127SOL     OW22132   3.796   3.890   5.904
 7127SOL    HW122133   3.779   3.973   5.850
 7127SOL    HW222134   3.886   3.853   5.882
 7128SOL     OW22135   3.949   3.999   8.444
 7128SOL    HW122136   3.984   3.982   8.536
 7128SOL    HW222137   3.861   3.954   8.432
 7129SOL     OW22138   3.743   4.092   8.095
 7129SOL    HW122139   3.661   4.135   8.134
 7129SOL    HW222140   3.715   4.019   8.032
 7130SOL     OW22141   3.926   4.009   8.946
 7130SOL    HW122142   3.846   4.069   8.933
 7130SOL    HW222143   3.916   3.960   9.032
 7131SOL     OW22144   4.021   3.759   7.619
 7131SOL    HW122145   4.070   3.843   7.598
 7131SOL    HW222146   4.083   3.694   7.664
 7132SOL     OW22147   4.031   3.937   8.679
 7132SOL    HW122148   4.008   3.974   8.769
 7132SOL    HW222149   4.001   3.842   8.673
 7133SOL     OW22150   4.031   3.787   8.066
 7133SOL    HW122151   4.020   3.881   8.099
 7133SOL    HW222152   4.026   3.724   8.143
 7134SOL     OW22153   3.799   4.069   7.481
 7134SOL    HW122154   3.707   4.041   7.452
 7134SOL    HW222155   3.830   4.146   7.425
 7135SOL     OW22156   3.796   3.890   7.766
 7135SOL    HW122157   3.779   3.973   7.712
 7135SOL    HW222158   3.886   3.853   7.744
 7136SOL     OW22159   3.949   3.999  10.306
 7136SOL    HW122160   3.984   3.982  10.398
 7136SOL    HW222161   3.861   3.954  10.294
 7137SOL     OW22162   3.743   4.092   9.957
 7137SOL    HW122163   3.661   4.135   9.996
 7137SOL    HW222164   3.715   4.019   9.894
 7138SOL     OW22165   3.926   4.009  10.808
 7138SOL    HW122166   3.846   4.069  10.795
 7138SOL    HW222167   3.916   3.960  10.894
 7139SOL     OW22168   4.021   3.759   9.481
 7139SOL    HW122169   4.070   3.843   9.460
 7139SOL    HW222170   4.083   3.694   9.526
 7140SOL     OW22171   4.031   3.937  10.541
 7140SOL    HW122172   4.008   3.974  10.631
 7140SOL    HW222173   4.001   3.842  10.535
 7141SOL     OW22174   4.031   3.787   9.928
 7141SOL    HW122175   4.020   3.881   9.961
 7141SOL    HW222176   4.026   3.724  10.005
 7142SOL     OW22177   3.799   4.069   9.343
 7142SOL    HW122178   3.707   4.041   9.314
 7142SOL    HW222179   3.830   4.146   9.287
 7143SOL     OW22180   3.796   3.890   9.628
 7143SOL    HW122181   3.779   3.973   9.574
 7143SOL    HW222182   3.886   3.853   9.606
 7144SOL     OW22183   3.949   3.999  12.168
 7144SOL    HW122184   3.984   3.982  12.260
 7144SOL    HW222185   3.861   3.954  12.156
 7145SOL     OW22186   3.743   4.092  11.819
 7145SOL    HW122187   3.661   4.135  11.858
 7145SOL    HW222188   3.715   4.019  11.756
 7146SOL     OW22189   3.926   4.009  12.670
 7146SOL    HW122190   3.846   4.069  12.657
 7146SOL    HW222191   3.916   3.960  12.756
 7147SOL     OW22192   4.021   3.759  11.343
 7147SOL    HW122193   4.070   3.843  11.322
 7147SOL    HW222194   4.083   3.694  11.388
 7148SOL     OW22195   4.031   3.937  12.403
 7148SOL    HW122196   4.008   3.974  12.493
 7148SOL    HW222197   4.001   3.842  12.397
 7149SOL     OW22198   4.031   3.787  11.790
 7149SOL    HW122199   4.020   3.881  11.823
 7149SOL    HW222200   4.026   3.724  11.867
 7150SOL     OW22201   3.799   4.069  11.205
 7150SOL    HW122202   3.707   4.041  11.176
 7150SOL    HW222203   3.830   4.146  11.149
 7151SOL     OW22204   3.796   3.890  11.490
 7151SOL    HW122205   3.779   3.973  11.436
 7151SOL    HW222206   3.886   3.853  11.468
 7152SOL     OW22207   3.743   4.092  13.681
 7152SOL    HW122208   3.661   4.135  13.720
 7152SOL    HW222209   3.715   4.019  13.618
 7153SOL     OW22210   4.021   3.759  13.205
 7153SOL    HW122211   4.070   3.843  13.184
 7153SOL    HW222212   4.083   3.694  13.250
 7154SOL     OW22213   4.031   3.787  13.652
 7154SOL    HW122214   4.020   3.881  13.685
 7154SOL    HW222215   4.026   3.724  13.729
 7155SOL     OW22216   3.799   4.069  13.067
 7155SOL    HW122217   3.707   4.041  13.038
 7155SOL    HW222218   3.830   4.146  13.011
 7156SOL     OW22219   3.796   3.890  13.352
 7156SOL    HW122220   3.779   3.973  13.298
 7156SOL    HW222221   3.886   3.853  13.330
   4.00000   4.00000  13.90000
