Built with Packmol
22224
    1LIG      O    1   2.627   2.770   0.038
    1LIG      C    2   2.692   2.820   0.126
    1LIG     C1    3   2.621   2.767   0.219
    1LIG     O1    4   2.685   2.817   0.308
    1LIG     C2    5   2.620   2.768   0.396
    1LIG     C3    6   2.691   2.823   0.487
    1LIG     O2    7   2.627   2.775   0.575
    1LIG     C4    8   2.690   2.825   0.664
    1LIG     C5    9   2.618   2.770   0.756
    1LIG     O3   10   2.681   2.820   0.844
    1LIG     C6   11   2.616   2.771   0.932
    1LIG     C7   12   2.688   2.827   1.023
    1LIG     O4   13   2.624   2.779   1.112
    1LIG     C8   14   2.688   2.829   1.200
    1LIG     C9   15   2.615   2.773   1.291
    1LIG     O5   16   2.679   2.823   1.379
    1LIG    C10   17   2.615   2.774   1.468
    1LIG    C11   18   2.687   2.830   1.559
    1LIG     O6   19   2.623   2.781   1.647
    1LIG    C12   20   2.686   2.830   1.735
    1LIG    C13   21   2.613   2.775   1.827
    1LIG     O7   22   2.677   2.824   1.915
    1LIG    C14   23   2.613   2.775   2.003
    1LIG    C15   24   2.685   2.830   2.095
    1LIG     O8   25   2.621   2.781   2.184
    1LIG    C16   26   2.685   2.831   2.272
    1LIG    C17   27   2.614   2.776   2.363
    1LIG     O9   28   2.677   2.825   2.452
    1LIG    C18   29   2.612   2.776   2.540
    1LIG    C19   30   2.684   2.831   2.631
    1LIG    O10   31   2.621   2.782   2.720
    1LIG    C20   32   2.685   2.832   2.807
    1LIG    C21   33   2.612   2.776   2.899
    1LIG    O11   34   2.676   2.825   2.987
    1LIG    C22   35   2.612   2.776   3.075
    1LIG    C23   36   2.684   2.832   3.166
    1LIG    O12   37   2.620   2.783   3.254
    1LIG    C24   38   2.684   2.832   3.343
    1LIG    C25   39   2.612   2.777   3.435
    1LIG    O13   40   2.675   2.826   3.524
    1LIG    C26   41   2.611   2.777   3.611
    1LIG    C27   42   2.683   2.832   3.703
    1LIG    O14   43   2.619   2.783   3.791
    1LIG    C28   44   2.684   2.832   3.879
    1LIG    C29   45   2.612   2.776   3.971
    1LIG    O15   46   2.676   2.825   4.059
    1LIG    C30   47   2.612   2.776   4.147
    1LIG    C31   48   2.684   2.831   4.238
    1LIG    O16   49   2.620   2.782   4.326
    1LIG    C32   50   2.684   2.831   4.415
    1LIG    C33   51   2.612   2.776   4.506
    1LIG    O17   52   2.676   2.825   4.595
    1LIG    C34   53   2.612   2.775   4.683
    1LIG    C35   54   2.684   2.830   4.774
    1LIG    O18   55   2.620   2.781   4.863
    1LIG    C36   56   2.684   2.830   4.951
    1LIG    C37   57   2.613   2.775   5.042
    1LIG    O19   58   2.677   2.824   5.131
    1LIG    C38   59   2.613   2.774   5.219
    1LIG    C39   60   2.684   2.829   5.311
    1LIG    O20   61   2.621   2.780   5.399
    1LIG    C40   62   2.685   2.829   5.487
    1LIG    C41   63   2.614   2.774   5.579
    1LIG    O21   64   2.677   2.823   5.667
    1LIG    C42   65   2.613   2.773   5.755
    1LIG    C43   66   2.685   2.828   5.846
    1LIG    O22   67   2.622   2.779   5.935
    1LIG    C44   68   2.686   2.828   6.023
    1LIG    C45   69   2.614   2.772   6.114
    1LIG    O23   70   2.678   2.821   6.202
    1LIG    C46   71   2.614   2.772   6.291
    1LIG    C47   72   2.687   2.828   6.382
    1LIG    O24   73   2.623   2.778   6.470
    1LIG    C48   74   2.686   2.827   6.558
    1LIG    C49   75   2.614   2.771   6.650
    1LIG    O25   76   2.678   2.820   6.738
    1LIG    C50   77   2.615   2.771   6.826
    1LIG    C51   78   2.687   2.827   6.917
    1LIG    O26   79   2.624   2.777   7.005
    1LIG    C52   80   2.687   2.826   7.094
    1LIG    C53   81   2.615   2.769   7.185
    1LIG    O27   82   2.679   2.819   7.273
    1LIG    C54   83   2.616   2.769   7.362
    1LIG    C55   84   2.688   2.825   7.454
    1LIG    O28   85   2.624   2.775   7.542
    1LIG    C56   86   2.688   2.824   7.630
    1LIG    C57   87   2.617   2.768   7.723
    1LIG    O29   88   2.681   2.817   7.811
    1LIG    C58   89   2.617   2.767   7.899
    1LIG    C59   90   2.688   2.822   7.991
    1LIG      H   91   2.689   2.930   0.125
    1LIG     H1   92   2.797   2.789   0.125
    1LIG     H2   93   2.624   2.658   0.219
    1LIG     H3   94   2.516   2.798   0.218
    1LIG     H4   95   2.623   2.658   0.397
    1LIG     H5   96   2.515   2.799   0.396
    1LIG     H6   97   2.689   2.933   0.486
    1LIG     H7   98   2.797   2.792   0.487
    1LIG     H8   99   2.688   2.934   0.664
    1LIG     H9  100   2.795   2.794   0.665
    1LIG    H10  101   2.621   2.661   0.755
    1LIG    H11  102   2.513   2.801   0.754
    1LIG    H12  103   2.619   2.662   0.933
    1LIG    H13  104   2.511   2.802   0.933
    1LIG    H14  105   2.685   2.937   1.022
    1LIG    H15  106   2.793   2.796   1.023
    1LIG    H16  107   2.685   2.938   1.201
    1LIG    H17  108   2.793   2.798   1.202
    1LIG    H18  109   2.618   2.664   1.290
    1LIG    H19  110   2.510   2.804   1.290
    1LIG    H20  111   2.617   2.664   1.469
    1LIG    H21  112   2.509   2.805   1.469
    1LIG    H22  113   2.684   2.939   1.558
    1LIG    H23  114   2.792   2.799   1.558
    1LIG    H24  115   2.683   2.939   1.736
    1LIG    H25  116   2.791   2.799   1.737
    1LIG    H26  117   2.616   2.665   1.826
    1LIG    H27  118   2.508   2.806   1.825
    1LIG    H28  119   2.616   2.665   2.004
    1LIG    H29  120   2.508   2.806   2.004
    1LIG    H30  121   2.682   2.940   2.094
    1LIG    H31  122   2.790   2.799   2.094
    1LIG    H32  123   2.682   2.941   2.272
    1LIG    H33  124   2.790   2.800   2.273
    1LIG    H34  125   2.616   2.667   2.362
    1LIG    H35  126   2.508   2.807   2.362
    1LIG    H36  127   2.615   2.666   2.541
    1LIG    H37  128   2.507   2.807   2.541
    1LIG    H38  129   2.681   2.941   2.630
    1LIG    H39  130   2.789   2.800   2.630
    1LIG    H40  131   2.682   2.941   2.809
    1LIG    H41  132   2.790   2.801   2.809
    1LIG    H42  133   2.615   2.667   2.897
    1LIG    H43  134   2.507   2.807   2.897
    1LIG    H44  135   2.615   2.667   3.076
    1LIG    H45  136   2.507   2.807   3.076
    1LIG    H46  137   2.681   2.942   3.165
    1LIG    H47  138   2.790   2.801   3.165
    1LIG    H48  139   2.681   2.941   3.344
    1LIG    H49  140   2.789   2.801   3.344
    1LIG    H50  141   2.615   2.667   3.434
    1LIG    H51  142   2.507   2.808   3.434
    1LIG    H52  143   2.614   2.667   3.612
    1LIG    H53  144   2.506   2.808   3.612
    1LIG    H54  145   2.680   2.942   3.702
    1LIG    H55  146   2.788   2.801   3.701
    1LIG    H56  147   2.681   2.941   3.880
    1LIG    H57  148   2.789   2.801   3.880
    1LIG    H58  149   2.615   2.667   3.970
    1LIG    H59  150   2.507   2.807   3.970
    1LIG    H60  151   2.615   2.666   4.148
    1LIG    H61  152   2.507   2.807   4.148
    1LIG    H62  153   2.681   2.941   4.237
    1LIG    H63  154   2.789   2.800   4.237
    1LIG    H64  155   2.681   2.940   4.416
    1LIG    H65  156   2.789   2.800   4.416
    1LIG    H66  157   2.615   2.666   4.505
    1LIG    H67  158   2.507   2.807   4.505
    1LIG    H68  159   2.615   2.666   4.683
    1LIG    H69  160   2.507   2.806   4.683
    1LIG    H70  161   2.681   2.940   4.773
    1LIG    H71  162   2.789   2.800   4.773
    1LIG    H72  163   2.681   2.940   4.952
    1LIG    H73  164   2.790   2.800   4.951
    1LIG    H74  165   2.616   2.666   5.041
    1LIG    H75  166   2.508   2.806   5.042
    1LIG    H76  167   2.616   2.665   5.219
    1LIG    H77  168   2.508   2.805   5.220
    1LIG    H78  169   2.681   2.938   5.310
    1LIG    H79  170   2.790   2.798   5.309
    1LIG    H80  171   2.682   2.939   5.488
    1LIG    H81  172   2.790   2.799   5.488
    1LIG    H82  173   2.617   2.664   5.577
    1LIG    H83  174   2.508   2.804   5.578
    1LIG    H84  175   2.617   2.663   5.756
    1LIG    H85  176   2.508   2.803   5.756
    1LIG    H86  177   2.682   2.938   5.845
    1LIG    H87  178   2.791   2.798   5.845
    1LIG    H88  179   2.683   2.938   6.024
    1LIG    H89  180   2.791   2.798   6.024
    1LIG    H90  181   2.617   2.663   6.113
    1LIG    H91  182   2.509   2.803   6.113
    1LIG    H92  183   2.618   2.662   6.292
    1LIG    H93  184   2.509   2.802   6.292
    1LIG    H94  185   2.683   2.937   6.381
    1LIG    H95  186   2.792   2.797   6.381
    1LIG    H96  187   2.683   2.936   6.560
    1LIG    H97  188   2.791   2.796   6.560
    1LIG    H98  189   2.618   2.661   6.648
    1LIG    H99  190   2.509   2.801   6.649
    1LIG   H100  191   2.618   2.661   6.827
    1LIG   H101  192   2.510   2.801   6.828
    1LIG   H102  193   2.684   2.936   6.916
    1LIG   H103  194   2.792   2.796   6.916
    1LIG   H104  195   2.684   2.935   7.095
    1LIG   H105  196   2.792   2.795   7.095
    1LIG   H106  197   2.619   2.660   7.184
    1LIG   H107  198   2.510   2.800   7.184
    1LIG   H108  199   2.620   2.660   7.363
    1LIG   H109  200   2.511   2.800   7.363
    1LIG   H110  201   2.684   2.934   7.453
    1LIG   H111  202   2.793   2.794   7.452
    1LIG   H112  203   2.685   2.934   7.631
    1LIG   H113  204   2.794   2.794   7.631
    1LIG   H114  205   2.621   2.659   7.721
    1LIG   H115  206   2.512   2.799   7.722
    1LIG   H116  207   2.621   2.657   7.899
    1LIG   H117  208   2.512   2.799   7.900
    1LIG   H118  209   2.793   2.792   7.991
    1LIG   H119  210   2.641   2.785   8.060
    1LIG      O  211   2.627   2.470   0.038
    1LIG      C  212   2.692   2.520   0.126
    1LIG     C1  213   2.621   2.467   0.219
    1LIG     O1  214   2.685   2.517   0.308
    1LIG     C2  215   2.620   2.468   0.396
    1LIG     C3  216   2.691   2.523   0.487
    1LIG     O2  217   2.627   2.475   0.575
    1LIG     C4  218   2.690   2.525   0.664
    1LIG     C5  219   2.618   2.470   0.756
    1LIG     O3  220   2.681   2.520   0.844
    1LIG     C6  221   2.616   2.471   0.932
    1LIG     C7  222   2.688   2.527   1.023
    1LIG     O4  223   2.624   2.479   1.112
    1LIG     C8  224   2.688   2.529   1.200
    1LIG     C9  225   2.615   2.473   1.291
    1LIG     O5  226   2.679   2.523   1.379
    1LIG    C10  227   2.615   2.474   1.468
    1LIG    C11  228   2.687   2.530   1.559
    1LIG     O6  229   2.623   2.481   1.647
    1LIG    C12  230   2.686   2.530   1.735
    1LIG    C13  231   2.613   2.475   1.827
    1LIG     O7  232   2.677   2.524   1.915
    1LIG    C14  233   2.613   2.475   2.003
    1LIG    C15  234   2.685   2.530   2.095
    1LIG     O8  235   2.621   2.481   2.184
    1LIG    C16  236   2.685   2.531   2.272
    1LIG    C17  237   2.614   2.476   2.363
    1LIG     O9  238   2.677   2.525   2.452
    1LIG    C18  239   2.612   2.476   2.540
    1LIG    C19  240   2.684   2.531   2.631
    1LIG    O10  241   2.621   2.482   2.720
    1LIG    C20  242   2.685   2.532   2.807
    1LIG    C21  243   2.612   2.476   2.899
    1LIG    O11  244   2.676   2.525   2.987
    1LIG    C22  245   2.612   2.476   3.075
    1LIG    C23  246   2.684   2.532   3.166
    1LIG    O12  247   2.620   2.483   3.254
    1LIG    C24  248   2.684   2.532   3.343
    1LIG    C25  249   2.612   2.477   3.435
    1LIG    O13  250   2.675   2.526   3.524
    1LIG    C26  251   2.611   2.477   3.611
    1LIG    C27  252   2.683   2.532   3.703
    1LIG    O14  253   2.619   2.483   3.791
    1LIG    C28  254   2.684   2.532   3.879
    1LIG    C29  255   2.612   2.476   3.971
    1LIG    O15  256   2.676   2.525   4.059
    1LIG    C30  257   2.612   2.476   4.147
    1LIG    C31  258   2.684   2.531   4.238
    1LIG    O16  259   2.620   2.482   4.326
    1LIG    C32  260   2.684   2.531   4.415
    1LIG    C33  261   2.612   2.476   4.506
    1LIG    O17  262   2.676   2.525   4.595
    1LIG    C34  263   2.612   2.475   4.683
    1LIG    C35  264   2.684   2.530   4.774
    1LIG    O18  265   2.620   2.481   4.863
    1LIG    C36  266   2.684   2.530   4.951
    1LIG    C37  267   2.613   2.475   5.042
    1LIG    O19  268   2.677   2.524   5.131
    1LIG    C38  269   2.613   2.474   5.219
    1LIG    C39  270   2.684   2.529   5.311
    1LIG    O20  271   2.621   2.480   5.399
    1LIG    C40  272   2.685   2.529   5.487
    1LIG    C41  273   2.614   2.474   5.579
    1LIG    O21  274   2.677   2.523   5.667
    1LIG    C42  275   2.613   2.473   5.755
    1LIG    C43  276   2.685   2.528   5.846
    1LIG    O22  277   2.622   2.479   5.935
    1LIG    C44  278   2.686   2.528   6.023
    1LIG    C45  279   2.614   2.472   6.114
    1LIG    O23  280   2.678   2.521   6.202
    1LIG    C46  281   2.614   2.472   6.291
    1LIG    C47  282   2.687   2.528   6.382
    1LIG    O24  283   2.623   2.478   6.470
    1LIG    C48  284   2.686   2.527   6.558
    1LIG    C49  285   2.614   2.471   6.650
    1LIG    O25  286   2.678   2.520   6.738
    1LIG    C50  287   2.615   2.471   6.826
    1LIG    C51  288   2.687   2.527   6.917
    1LIG    O26  289   2.624   2.477   7.005
    1LIG    C52  290   2.687   2.526   7.094
    1LIG    C53  291   2.615   2.469   7.185
    1LIG    O27  292   2.679   2.519   7.273
    1LIG    C54  293   2.616   2.469   7.362
    1LIG    C55  294   2.688   2.525   7.454
    1LIG    O28  295   2.624   2.475   7.542
    1LIG    C56  296   2.688   2.524   7.630
    1LIG    C57  297   2.617   2.468   7.723
    1LIG    O29  298   2.681   2.517   7.811
    1LIG    C58  299   2.617   2.467   7.899
    1LIG    C59  300   2.688   2.522   7.991
    1LIG      H  301   2.689   2.630   0.125
    1LIG     H1  302   2.797   2.489   0.125
    1LIG     H2  303   2.624   2.358   0.219
    1LIG     H3  304   2.516   2.498   0.218
    1LIG     H4  305   2.623   2.358   0.397
    1LIG     H5  306   2.515   2.499   0.396
    1LIG     H6  307   2.689   2.633   0.486
    1LIG     H7  308   2.797   2.492   0.487
    1LIG     H8  309   2.688   2.634   0.664
    1LIG     H9  310   2.795   2.494   0.665
    1LIG    H10  311   2.621   2.361   0.755
    1LIG    H11  312   2.513   2.501   0.754
    1LIG    H12  313   2.619   2.362   0.933
    1LIG    H13  314   2.511   2.502   0.933
    1LIG    H14  315   2.685   2.637   1.022
    1LIG    H15  316   2.793   2.496   1.023
    1LIG    H16  317   2.685   2.638   1.201
    1LIG    H17  318   2.793   2.498   1.202
    1LIG    H18  319   2.618   2.364   1.290
    1LIG    H19  320   2.510   2.504   1.290
    1LIG    H20  321   2.617   2.364   1.469
    1LIG    H21  322   2.509   2.505   1.469
    1LIG    H22  323   2.684   2.639   1.558
    1LIG    H23  324   2.792   2.499   1.558
    1LIG    H24  325   2.683   2.639   1.736
    1LIG    H25  326   2.791   2.499   1.737
    1LIG    H26  327   2.616   2.365   1.826
    1LIG    H27  328   2.508   2.506   1.825
    1LIG    H28  329   2.616   2.365   2.004
    1LIG    H29  330   2.508   2.506   2.004
    1LIG    H30  331   2.682   2.640   2.094
    1LIG    H31  332   2.790   2.499   2.094
    1LIG    H32  333   2.682   2.641   2.272
    1LIG    H33  334   2.790   2.500   2.273
    1LIG    H34  335   2.616   2.367   2.362
    1LIG    H35  336   2.508   2.507   2.362
    1LIG    H36  337   2.615   2.366   2.541
    1LIG    H37  338   2.507   2.507   2.541
    1LIG    H38  339   2.681   2.641   2.630
    1LIG    H39  340   2.789   2.500   2.630
    1LIG    H40  341   2.682   2.641   2.809
    1LIG    H41  342   2.790   2.501   2.809
    1LIG    H42  343   2.615   2.367   2.897
    1LIG    H43  344   2.507   2.507   2.897
    1LIG    H44  345   2.615   2.367   3.076
    1LIG    H45  346   2.507   2.507   3.076
    1LIG    H46  347   2.681   2.642   3.165
    1LIG    H47  348   2.790   2.501   3.165
    1LIG    H48  349   2.681   2.641   3.344
    1LIG    H49  350   2.789   2.501   3.344
    1LIG    H50  351   2.615   2.367   3.434
    1LIG    H51  352   2.507   2.508   3.434
    1LIG    H52  353   2.614   2.367   3.612
    1LIG    H53  354   2.506   2.508   3.612
    1LIG    H54  355   2.680   2.642   3.702
    1LIG    H55  356   2.788   2.501   3.701
    1LIG    H56  357   2.681   2.641   3.880
    1LIG    H57  358   2.789   2.501   3.880
    1LIG    H58  359   2.615   2.367   3.970
    1LIG    H59  360   2.507   2.507   3.970
    1LIG    H60  361   2.615   2.366   4.148
    1LIG    H61  362   2.507   2.507   4.148
    1LIG    H62  363   2.681   2.641   4.237
    1LIG    H63  364   2.789   2.500   4.237
    1LIG    H64  365   2.681   2.640   4.416
    1LIG    H65  366   2.789   2.500   4.416
    1LIG    H66  367   2.615   2.366   4.505
    1LIG    H67  368   2.507   2.507   4.505
    1LIG    H68  369   2.615   2.366   4.683
    1LIG    H69  370   2.507   2.506   4.683
    1LIG    H70  371   2.681   2.640   4.773
    1LIG    H71  372   2.789   2.500   4.773
    1LIG    H72  373   2.681   2.640   4.952
    1LIG    H73  374   2.790   2.500   4.951
    1LIG    H74  375   2.616   2.366   5.041
    1LIG    H75  376   2.508   2.506   5.042
    1LIG    H76  377   2.616   2.365   5.219
    1LIG    H77  378   2.508   2.505   5.220
    1LIG    H78  379   2.681   2.638   5.310
    1LIG    H79  380   2.790   2.498   5.309
    1LIG    H80  381   2.682   2.639   5.488
    1LIG    H81  382   2.790   2.499   5.488
    1LIG    H82  383   2.617   2.364   5.577
    1LIG    H83  384   2.508   2.504   5.578
    1LIG    H84  385   2.617   2.363   5.756
    1LIG    H85  386   2.508   2.503   5.756
    1LIG    H86  387   2.682   2.638   5.845
    1LIG    H87  388   2.791   2.498   5.845
    1LIG    H88  389   2.683   2.638   6.024
    1LIG    H89  390   2.791   2.498   6.024
    1LIG    H90  391   2.617   2.363   6.113
    1LIG    H91  392   2.509   2.503   6.113
    1LIG    H92  393   2.618   2.362   6.292
    1LIG    H93  394   2.509   2.502   6.292
    1LIG    H94  395   2.683   2.637   6.381
    1LIG    H95  396   2.792   2.497   6.381
    1LIG    H96  397   2.683   2.636   6.560
    1LIG    H97  398   2.791   2.496   6.560
    1LIG    H98  399   2.618   2.361   6.648
    1LIG    H99  400   2.509   2.501   6.649
    1LIG   H100  401   2.618   2.361   6.827
    1LIG   H101  402   2.510   2.501   6.828
    1LIG   H102  403   2.684   2.636   6.916
    1LIG   H103  404   2.792   2.496   6.916
    1LIG   H104  405   2.684   2.635   7.095
    1LIG   H105  406   2.792   2.495   7.095
    1LIG   H106  407   2.619   2.360   7.184
    1LIG   H107  408   2.510   2.500   7.184
    1LIG   H108  409   2.620   2.360   7.363
    1LIG   H109  410   2.511   2.500   7.363
    1LIG   H110  411   2.684   2.634   7.453
    1LIG   H111  412   2.793   2.494   7.452
    1LIG   H112  413   2.685   2.634   7.631
    1LIG   H113  414   2.794   2.494   7.631
    1LIG   H114  415   2.621   2.359   7.721
    1LIG   H115  416   2.512   2.499   7.722
    1LIG   H116  417   2.621   2.357   7.899
    1LIG   H117  418   2.512   2.499   7.900
    1LIG   H118  419   2.793   2.492   7.991
    1LIG   H119  420   2.641   2.485   8.060
    1MOL     C1  421   1.970   2.848   4.024
    1MOL     H1  422   1.865   2.818   4.032
    1MOL     O1  423   2.003   2.907   4.148
    1MOL     C2  424   2.137   2.960   4.157
    1MOL     H2  425   2.209   2.878   4.145
    1MOL     C3  426   2.154   3.017   4.297
    1MOL     H3  427   2.261   3.038   4.312
    1MOL     H4  428   2.123   2.940   4.370
    1MOL     O2  429   2.076   3.135   4.310
    1MOL     H5  430   2.099   3.177   4.394
    1MOL     C4  431   1.989   2.948   3.909
    1MOL     H6  432   1.920   3.032   3.928
    1MOL     O3  433   1.955   2.897   3.782
    1MOL     H7  434   1.987   2.805   3.773
    1MOL     C5  435   2.132   3.003   3.911
    1MOL     H8  436   2.202   2.921   3.892
    1MOL     O4  437   2.146   3.103   3.810
    1MOL     H9  438   2.099   3.069   3.732
    1MOL     C6  439   2.161   3.065   4.046
    1MOL    H10  440   2.093   3.150   4.062
    1MOL     O5  441   2.297   3.109   4.047
    1MOL     C7  442   2.326   3.236   4.103
    1MOL    H11  443   2.236   3.278   4.150
    1MOL     O6  444   2.420   3.224   4.207
    1MOL     C8  445   2.549   3.172   4.167
    1MOL    H12  446   2.534   3.073   4.121
    1MOL     C9  447   2.634   3.153   4.294
    1MOL    H13  448   2.706   3.073   4.274
    1MOL    H14  449   2.568   3.119   4.374
    1MOL     O7  450   2.699   3.271   4.339
    1MOL    H15  451   2.787   3.274   4.296
    1MOL    C10  452   2.379   3.328   3.992
    1MOL    H16  453   2.390   3.428   4.034
    1MOL     O8  454   2.290   3.342   3.882
    1MOL    H17  455   2.257   3.253   3.855
    1MOL    C11  456   2.516   3.280   3.945
    1MOL    H18  457   2.506   3.181   3.898
    1MOL     O9  458   2.573   3.372   3.852
    1MOL    H19  459   2.500   3.395   3.791
    1MOL    C12  460   2.609   3.269   4.065
    1MOL    H20  461   2.619   3.367   4.113
    1MOL    O10  462   2.737   3.224   4.019
    1MOL    C13  463   2.849   3.305   4.046
    1MOL    H21  464   2.817   3.405   4.078
    1MOL    O11  465   2.926   3.254   4.154
    1MOL    C14  466   2.981   3.122   4.130
    1MOL    H22  467   2.898   3.053   4.108
    1MOL    C15  468   3.049   3.074   4.259
    1MOL    H23  469   3.043   2.964   4.263
    1MOL    H24  470   2.991   3.113   4.344
    1MOL    O12  471   3.183   3.118   4.274
    1MOL    H25  472   3.240   3.047   4.239
    1MOL    C16  473   2.934   3.315   3.919
    1MOL    H26  474   3.016   3.385   3.938
    1MOL    O13  475   2.862   3.365   3.807
    1MOL    H27  476   2.767   3.343   3.817
    1MOL    C17  477   2.996   3.178   3.888
    1MOL    H28  478   2.916   3.106   3.865
    1MOL    O14  479   3.085   3.188   3.777
    1MOL    H29  480   3.037   3.238   3.708
    1MOL    C18  481   3.074   3.129   4.009
    1MOL    H30  482   3.155   3.200   4.032
    1MOL    O15  483   3.129   3.001   3.977
    1MOL    C19  484   3.268   2.983   3.992
    1MOL    H31  485   3.319   3.079   4.006
    1MOL    O16  486   3.298   2.907   4.108
    1MOL    C20  487   3.241   2.774   4.109
    1MOL    H32  488   3.132   2.783   4.098
    1MOL    C21  489   3.271   2.708   4.245
    1MOL    H33  490   3.188   2.640   4.268
    1MOL    H34  491   3.269   2.788   4.321
    1MOL    O17  492   3.396   2.643   4.253
    1MOL    H35  493   3.380   2.549   4.232
    1MOL    C22  494   3.320   2.912   3.866
    1MOL    H36  495   3.429   2.905   3.874
    1MOL    O18  496   3.292   2.983   3.747
    1MOL    H37  497   3.208   3.032   3.757
    1MOL    C23  498   3.264   2.770   3.860
    1MOL    H38  499   3.155   2.774   3.849
    1MOL    O19  500   3.321   2.698   3.751
    1MOL    H39  501   3.316   2.758   3.674
    1MOL    C24  502   3.298   2.696   3.989
    1MOL    H40  503   3.407   2.690   4.001
    1MOL    O20  504   3.241   2.565   3.982
    1MOL    C25  505   3.327   2.454   4.000
    1MOL    H41  506   3.431   2.485   3.998
    1MOL    O21  507   3.306   2.394   4.127
    1MOL    C26  508   3.173   2.343   4.149
    1MOL    H42  509   3.101   2.425   4.143
    1MOL    C27  510   3.167   2.286   4.290
    1MOL    H43  511   3.062   2.266   4.314
    1MOL    H44  512   3.205   2.362   4.360
    1MOL    O22  513   3.246   2.167   4.296
    1MOL    H45  514   3.236   2.130   4.385
    1MOL    C28  515   3.298   2.354   3.888
    1MOL    H46  516   3.368   2.270   3.900
    1MOL    O23  517   3.320   2.406   3.758
    1MOL    H47  518   3.297   2.501   3.757
    1MOL    C29  519   3.156   2.299   3.902
    1MOL    H48  520   3.084   2.382   3.889
    1MOL    O24  521   3.132   2.199   3.804
    1MOL    H49  522   3.170   2.233   3.721
    1MOL    C30  523   3.137   2.239   4.041
    1MOL    H50  524   3.201   2.151   4.051
    1MOL    O25  525   3.000   2.202   4.053
    1MOL    C31  526   2.969   2.077   4.115
    1MOL    H51  527   3.057   2.038   4.166
    1MOL    O26  528   2.871   2.096   4.215
    1MOL    C32  529   2.744   2.147   4.168
    1MOL    H52  530   2.761   2.243   4.117
    1MOL    C33  531   2.655   2.172   4.290
    1MOL    H53  532   2.579   2.246   4.262
    1MOL    H54  533   2.719   2.218   4.367
    1MOL    O27  534   2.595   2.055   4.341
    1MOL    H55  535   2.499   2.066   4.334
    1MOL    C34  536   2.919   1.979   4.007
    1MOL    H56  537   2.905   1.882   4.055
    1MOL    O28  538   3.011   1.958   3.902
    1MOL    H57  539   3.039   2.045   3.865
    1MOL    C35  540   2.784   2.026   3.953
    1MOL    H58  541   2.797   2.122   3.902
    1MOL    O29  542   2.730   1.930   3.862
    1MOL    H59  543   2.805   1.902   3.807
    1MOL    C36  544   2.686   2.046   4.068
    1MOL    H60  545   2.671   1.951   4.122
    1MOL    O30  546   2.561   2.091   4.014
    1MOL    C37  547   2.454   2.000   4.017
    1MOL    H61  548   2.490   1.898   4.036
    1MOL    O31  549   2.364   2.028   4.122
    1MOL    C38  550   2.303   2.158   4.117
    1MOL    H62  551   2.382   2.235   4.114
    1MOL    C39  552   2.227   2.174   4.246
    1MOL    H63  553   2.158   2.088   4.259
    1MOL    H64  554   2.168   2.266   4.245
    1MOL    O32  555   2.324   2.176   4.351
    1MOL    H65  556   2.280   2.198   4.434
    1MOL    C40  557   2.380   2.006   3.883
    1MOL    H66  558   2.302   1.929   3.886
    1MOL    O33  559   2.461   1.982   3.770
    1MOL    H67  560   2.556   1.981   3.796
    1MOL    C41  561   2.311   2.142   3.869
    1MOL    H68  562   2.388   2.220   3.865
    1MOL    O34  563   2.232   2.145   3.750
    1MOL    H69  564   2.290   2.111   3.679
    1MOL    C42  565   2.220   2.169   3.988
    1MOL    H70  566   2.139   2.094   3.990
    1MOL    O35  567   2.165   2.300   3.972
    1MOL    C43  568   2.025   2.316   3.976
    1MOL    H71  569   1.975   2.219   3.979
    1MOL    O36  570   1.984   2.383   4.094
    1MOL    C44  571   2.035   2.516   4.111
    1MOL    H72  572   2.145   2.513   4.113
    1MOL    C45  573   1.986   2.565   4.245
    1MOL    H73  574   1.878   2.545   4.252
    1MOL    H74  575   2.002   2.673   4.253
    1MOL    O37  576   2.058   2.495   4.347
    1MOL    H75  577   2.021   2.521   4.432
    1MOL    C46  578   1.982   2.396   3.853
    1MOL    H76  579   1.872   2.401   3.853
    1MOL    O38  580   2.018   2.337   3.730
    1MOL    H77  581   2.104   2.290   3.740
    1MOL    C47  582   2.035   2.539   3.862
    1MOL    H78  583   2.145   2.536   3.860
    1MOL    O39  584   1.987   2.616   3.752
    1MOL    H79  585   1.998   2.560   3.674
    1MOL    C48  586   1.991   2.605   3.992
    1MOL    H80  587   1.882   2.615   3.992
    1MOL    O40  588   2.052   2.734   3.999
    2SOL     OW  589   0.230   0.628   0.113
    2SOL    HW1  590   0.137   0.626   0.150
    2SOL    HW2  591   0.231   0.589   0.021
    3SOL     OW  592   0.225   0.275   0.996
    3SOL    HW1  593   0.260   0.258   1.088
    3SOL    HW2  594   0.137   0.230   0.984
    4SOL     OW  595   0.019   0.368   0.647
    4SOL    HW1  596  -0.063   0.411   0.686
    4SOL    HW2  597  -0.009   0.295   0.584
    5SOL     OW  598   0.569   1.275   1.165
    5SOL    HW1  599   0.476   1.268   1.128
    5SOL    HW2  600   0.580   1.364   1.209
    6SOL     OW  601   1.555   1.511   0.703
    6SOL    HW1  602   1.498   1.495   0.784
    6SOL    HW2  603   1.496   1.521   0.623
    7SOL     OW  604   1.135   0.703   0.717
    7SOL    HW1  605   1.192   0.781   0.692
    7SOL    HW2  606   1.075   0.729   0.793
    8SOL     OW  607   1.755   0.607   0.231
    8SOL    HW1  608   1.743   0.594   0.132
    8SOL    HW2  609   1.725   0.526   0.280
    9SOL     OW  610   0.768   1.144   1.023
    9SOL    HW1  611   0.690   1.161   1.083
    9SOL    HW2  612   0.802   1.231   0.987
   10SOL     OW  613   0.850   0.798   1.823
   10SOL    HW1  614   0.846   0.874   1.888
   10SOL    HW2  615   0.872   0.834   1.732
   11SOL     OW  616   0.685   1.012   0.665
   11SOL    HW1  617   0.754   0.996   0.735
   11SOL    HW2  618   0.612   1.069   0.703
   12SOL     OW  619   0.686   1.161   1.803
   12SOL    HW1  620   0.746   1.240   1.817
   12SOL    HW2  621   0.600   1.192   1.762
   13SOL     OW  622   0.335   1.435   1.061
   13SOL    HW1  623   0.257   1.404   1.008
   13SOL    HW2  624   0.393   1.493   1.004
   14SOL     OW  625   1.460   1.505   1.339
   14SOL    HW1  626   1.484   1.599   1.365
   14SOL    HW2  627   1.444   1.451   1.421
   15SOL     OW  628   0.438   0.392   1.499
   15SOL    HW1  629   0.520   0.336   1.508
   15SOL    HW2  630   0.357   0.334   1.503
   16SOL     OW  631   1.603   0.447   0.737
   16SOL    HW1  632   1.529   0.493   0.687
   16SOL    HW2  633   1.654   0.515   0.790
   17SOL     OW  634   0.231   1.713   0.483
   17SOL    HW1  635   0.265   1.790   0.537
   17SOL    HW2  636   0.275   1.713   0.393
   18SOL     OW  637   1.127   1.341   1.690
   18SOL    HW1  638   1.174   1.341   1.778
   18SOL    HW2  639   1.079   1.254   1.679
   19SOL     OW  640   0.230   1.434   0.538
   19SOL    HW1  641   0.204   1.530   0.538
   19SOL    HW2  642   0.159   1.380   0.583
   20SOL     OW  643   0.240   1.091   0.886
   20SOL    HW1  644   0.254   1.007   0.938
   20SOL    HW2  645   0.185   1.155   0.941
   21SOL     OW  646   0.620   1.786   1.439
   21SOL    HW1  647   0.528   1.769   1.474
   21SOL    HW2  648   0.648   1.878   1.465
   22SOL     OW  649   0.606   0.964   0.123
   22SOL    HW1  650   0.613   1.048   0.069
   22SOL    HW2  651   0.652   0.977   0.211
   23SOL     OW  652   1.594   0.114   1.480
   23SOL    HW1  653   1.576   0.181   1.408
   23SOL    HW2  654   1.591   0.160   1.569
   24SOL     OW  655   0.122   0.643   0.563
   24SOL    HW1  656   0.077   0.555   0.580
   24SOL    HW2  657   0.121   0.697   0.647
   25SOL     OW  658   1.842   1.767   0.359
   25SOL    HW1  659   1.896   1.738   0.439
   25SOL    HW2  660   1.872   1.857   0.330
   26SOL     OW  661   0.027   1.596   0.117
   26SOL    HW1  662   0.008   1.500   0.138
   26SOL    HW2  663  -0.006   1.654   0.192
   27SOL     OW  664   1.689   0.922   0.612
   27SOL    HW1  665   1.784   0.893   0.620
   27SOL    HW2  666   1.681   0.987   0.537
   28SOL     OW  667   1.641   1.108   0.432
   28SOL    HW1  668   1.727   1.110   0.380
   28SOL    HW2  669   1.655   1.155   0.520
   29SOL     OW  670   0.113   0.737   1.597
   29SOL    HW1  671   0.201   0.724   1.642
   29SOL    HW2  672   0.100   0.834   1.575
   30SOL     OW  673   0.613   1.365   0.726
   30SOL    HW1  674   0.564   1.278   0.735
   30SOL    HW2  675   0.590   1.408   0.639
   31SOL     OW  676   1.293   1.228   1.423
   31SOL    HW1  677   1.330   1.155   1.365
   31SOL    HW2  678   1.345   1.233   1.508
   32SOL     OW  679   0.809   0.004   0.502
   32SOL    HW1  680   0.849   0.095   0.493
   32SOL    HW2  681   0.709   0.012   0.508
   33SOL     OW  682   0.197   0.976   1.264
   33SOL    HW1  683   0.286   0.931   1.250
   33SOL    HW2  684   0.124   0.911   1.245
   34SOL     OW  685   1.525   0.999   0.190
   34SOL    HW1  686   1.462   0.923   0.203
   34SOL    HW2  687   1.573   1.017   0.276
   35SOL     OW  688   1.187   1.792   1.616
   35SOL    HW1  689   1.211   1.852   1.540
   35SOL    HW2  690   1.194   1.697   1.586
   36SOL     OW  691   0.317   0.251   1.801
   36SOL    HW1  692   0.388   0.322   1.807
   36SOL    HW2  693   0.229   0.290   1.829
   37SOL     OW  694   1.466   1.417   0.953
   37SOL    HW1  695   1.407   1.423   1.033
   37SOL    HW2  696   1.451   1.329   0.907
   38SOL     OW  697   1.667   1.714   0.572
   38SOL    HW1  698   1.626   1.691   0.484
   38SOL    HW2  699   1.649   1.640   0.637
   39SOL     OW  700   0.598   0.729   0.270
   39SOL    HW1  701   0.622   0.798   0.202
   39SOL    HW2  702   0.520   0.762   0.324
   40SOL     OW  703   1.281   0.345   0.944
   40SOL    HW1  704   1.195   0.295   0.931
   40SOL    HW2  705   1.343   0.291   1.000
   41SOL     OW  706   1.576   1.662   0.307
   41SOL    HW1  707   1.665   1.708   0.310
   41SOL    HW2  708   1.555   1.638   0.212
   42SOL     OW  709   0.807   0.605   1.465
   42SOL    HW1  710   0.760   0.602   1.554
   42SOL    HW2  711   0.756   0.550   1.399
   43SOL     OW  712   1.394   0.469   1.674
   43SOL    HW1  713   1.374   0.512   1.762
   43SOL    HW2  714   1.472   0.407   1.683
   44SOL     OW  715   0.973   0.890   1.572
   44SOL    HW1  716   1.019   0.806   1.543
   44SOL    HW2  717   0.917   0.924   1.497
   45SOL     OW  718   0.991   0.410   1.242
   45SOL    HW1  719   0.914   0.444   1.296
   45SOL    HW2  720   0.957   0.359   1.163
   46SOL     OW  721   1.041   0.701   0.429
   46SOL    HW1  722   1.067   0.697   0.525
   46SOL    HW2  723   0.956   0.650   0.415
   47SOL     OW  724   0.076   0.811   0.789
   47SOL    HW1  725   0.175   0.799   0.798
   47SOL    HW2  726   0.052   0.906   0.810
   48SOL     OW  727   0.130   1.821   1.571
   48SOL    HW1  728   0.120   1.806   1.670
   48SOL    HW2  729   0.044   1.857   1.535
   49SOL     OW  730   0.865   0.348   0.195
   49SOL    HW1  731   0.924   0.411   0.146
   49SOL    HW2  732   0.884   0.254   0.166
   50SOL     OW  733   1.719   0.585   1.831
   50SOL    HW1  734   1.693   0.674   1.795
   50SOL    HW2  735   1.717   0.517   1.758
   51SOL     OW  736   1.362   1.144   0.545
   51SOL    HW1  737   1.445   1.115   0.497
   51SOL    HW2  738   1.313   1.211   0.489
   52SOL     OW  739   0.550   0.196   0.885
   52SOL    HW1  740   0.545   0.191   0.985
   52SOL    HW2  741   0.552   0.292   0.856
   53SOL     OW  742   1.008   1.456   0.477
   53SOL    HW1  743   0.962   1.528   0.425
   53SOL    HW2  744   1.004   1.476   0.575
   54SOL     OW  745   0.351   1.801   0.853
   54SOL    HW1  746   0.401   1.715   0.859
   54SOL    HW2  747   0.416   1.878   0.850
   55SOL     OW  748   1.795   1.066   0.873
   55SOL    HW1  749   1.733   1.051   0.797
   55SOL    HW2  750   1.743   1.077   0.958
   56SOL     OW  751   1.227   1.550   1.506
   56SOL    HW1  752   1.233   1.473   1.570
   56SOL    HW2  753   1.175   1.524   1.426
   57SOL     OW  754   0.321   0.943   0.242
   57SOL    HW1  755   0.403   0.982   0.200
   57SOL    HW2  756   0.294   0.861   0.193
   58SOL     OW  757   1.458   0.735   0.728
   58SOL    HW1  758   1.453   0.670   0.803
   58SOL    HW2  759   1.538   0.794   0.741
   59SOL     OW  760   0.461   1.266   1.727
   59SOL    HW1  761   0.411   1.267   1.641
   59SOL    HW2  762   0.398   1.248   1.803
   60SOL     OW  763   1.111   1.776   0.237
   60SOL    HW1  764   1.051   1.714   0.287
   60SOL    HW2  765   1.142   1.732   0.152
   61SOL     OW  766   0.202   0.285   1.498
   61SOL    HW1  767   0.122   0.345   1.485
   61SOL    HW2  768   0.192   0.236   1.584
   62SOL     OW  769   1.632   1.377   0.081
   62SOL    HW1  770   1.600   1.471   0.071
   62SOL    HW2  771   1.556   1.314   0.069
   63SOL     OW  772   0.464   1.743   0.323
   63SOL    HW1  773   0.497   1.782   0.409
   63SOL    HW2  774   0.540   1.736   0.258
   64SOL     OW  775   1.400   0.107   0.426
   64SOL    HW1  776   1.376   0.070   0.336
   64SOL    HW2  777   1.499   0.123   0.430
   65SOL     OW  778   0.249   1.785   1.241
   65SOL    HW1  779   0.306   1.720   1.291
   65SOL    HW2  780   0.233   1.752   1.148
   66SOL     OW  781   0.940   1.698   0.904
   66SOL    HW1  782   1.020   1.641   0.925
   66SOL    HW2  783   0.891   1.658   0.827
   67SOL     OW  784   0.382   0.700   0.480
   67SOL    HW1  785   0.427   0.610   0.477
   67SOL    HW2  786   0.288   0.689   0.513
   68SOL     OW  787   1.547   0.222   1.729
   68SOL    HW1  788   1.542   0.259   1.821
   68SOL    HW2  789   1.475   0.153   1.717
   69SOL     OW  790   0.614   0.122   0.117
   69SOL    HW1  791   0.712   0.100   0.124
   69SOL    HW2  792   0.583   0.105   0.024
   70SOL     OW  793   0.781   0.264   1.749
   70SOL    HW1  794   0.848   0.203   1.792
   70SOL    HW2  795   0.708   0.283   1.814
   71SOL     OW  796   0.888   1.514   1.195
   71SOL    HW1  797   0.865   1.489   1.101
   71SOL    HW2  798   0.949   1.445   1.234
   72SOL     OW  799   1.351   0.590   1.433
   72SOL    HW1  800   1.379   0.547   1.518
   72SOL    HW2  801   1.376   0.686   1.434
   73SOL     OW  802   0.803   1.402   0.924
   73SOL    HW1  803   0.893   1.416   0.882
   73SOL    HW2  804   0.732   1.404   0.853
   74SOL     OW  805   0.922   0.503   0.899
   74SOL    HW1  806   0.897   0.494   0.803
   74SOL    HW2  807   0.970   0.421   0.930
   75SOL     OW  808   0.539   0.064   0.512
   75SOL    HW1  809   0.458   0.065   0.570
   75SOL    HW2  810   0.542   0.147   0.457
   76SOL     OW  811   1.434   1.188   0.041
   76SOL    HW1  812   1.466   1.112   0.098
   76SOL    HW2  813   1.342   1.215   0.071
   77SOL     OW  814   0.297   0.035   0.171
   77SOL    HW1  815   0.346   0.119   0.150
   77SOL    HW2  816   0.359  -0.030   0.216
   78SOL     OW  817   0.935   0.236   0.480
   78SOL    HW1  818   0.887   0.277   0.402
   78SOL    HW2  819   1.034   0.234   0.461
   79SOL     OW  820   1.076   0.683   1.464
   79SOL    HW1  821   0.996   0.622   1.467
   79SOL    HW2  822   1.157   0.630   1.440
   80SOL     OW  823   1.227   1.570   0.793
   80SOL    HW1  824   1.248   1.644   0.728
   80SOL    HW2  825   1.295   1.570   0.866
   81SOL     OW  826   0.459   1.152   0.741
   81SOL    HW1  827   0.388   1.125   0.806
   81SOL    HW2  828   0.433   1.124   0.648
   82SOL     OW  829   1.271   1.797   0.591
   82SOL    HW1  830   1.315   1.861   0.527
   82SOL    HW2  831   1.221   1.849   0.661
   83SOL     OW  832   1.032   0.549   0.016
   83SOL    HW1  833   0.991   0.631  -0.023
   83SOL    HW2  834   1.096   0.575   0.089
   84SOL     OW  835   0.078   0.556   1.386
   84SOL    HW1  836   0.170   0.555   1.345
   84SOL    HW2  837   0.072   0.630   1.453
   85SOL     OW  838   0.561   0.222   1.147
   85SOL    HW1  839   0.599   0.138   1.184
   85SOL    HW2  840   0.473   0.241   1.191
   86SOL     OW  841   0.866   0.454   0.642
   86SOL    HW1  842   0.834   0.526   0.580
   86SOL    HW2  843   0.890   0.373   0.589
   87SOL     OW  844   1.017   0.039   0.753
   87SOL    HW1  845   0.945   0.044   0.684
   87SOL    HW2  846   0.993  -0.030   0.822
   88SOL     OW  847   1.429   1.173   0.867
   88SOL    HW1  848   1.374   1.089   0.860
   88SOL    HW2  849   1.455   1.202   0.775
   89SOL     OW  850   1.466   0.590   0.992
   89SOL    HW1  851   1.436   0.495   0.999
   89SOL    HW2  852   1.539   0.606   1.058
   90SOL     OW  853   1.857   0.833   0.377
   90SOL    HW1  854   1.899   0.769   0.441
   90SOL    HW2  855   1.819   0.782   0.299
   91SOL     OW  856   0.488   1.385   0.174
   91SOL    HW1  857   0.401   1.370   0.221
   91SOL    HW2  858   0.471   1.411   0.079
   92SOL     OW  859   1.664   1.280   0.657
   92SOL    HW1  860   1.763   1.288   0.671
   92SOL    HW2  861   1.619   1.364   0.688
   93SOL     OW  862   1.390   0.575   0.078
   93SOL    HW1  863   1.336   0.554   0.159
   93SOL    HW2  864   1.481   0.534   0.087
   94SOL     OW  865   0.527   0.256   0.328
   94SOL    HW1  866   0.554   0.197   0.253
   94SOL    HW2  867   0.527   0.351   0.297
   95SOL     OW  868   1.754   1.223   1.588
   95SOL    HW1  869   1.845   1.184   1.575
   95SOL    HW2  870   1.762   1.319   1.612
   96SOL     OW  871   1.064   1.347   1.340
   96SOL    HW1  872   0.984   1.324   1.395
   96SOL    HW2  873   1.147   1.321   1.389
   97SOL     OW  874   1.592   1.629   1.625
   97SOL    HW1  875   1.619   1.663   1.535
   97SOL    HW2  876   1.671   1.591   1.671
   98SOL     OW  877   1.111   1.195   1.100
   98SOL    HW1  878   1.071   1.239   1.181
   98SOL    HW2  879   1.070   1.232   1.017
   99SOL     OW  880   1.638   1.099   1.079
   99SOL    HW1  881   1.643   1.180   1.138
   99SOL    HW2  882   1.552   1.101   1.028
  100SOL     OW  883   0.915   0.089   1.402
  100SOL    HW1  884   0.940   0.069   1.307
  100SOL    HW2  885   0.987   0.145   1.444
  101SOL     OW  886   0.980   1.116   1.719
  101SOL    HW1  887   0.881   1.122   1.729
  101SOL    HW2  888   1.003   1.036   1.663
  102SOL     OW  889   0.705   1.050   0.368
  102SOL    HW1  890   0.691   1.057   0.467
  102SOL    HW2  891   0.789   0.999   0.350
  103SOL     OW  892   0.410   0.813   1.251
  103SOL    HW1  893   0.496   0.825   1.301
  103SOL    HW2  894   0.368   0.726   1.278
  104SOL     OW  895   1.274   0.386   1.262
  104SOL    HW1  896   1.295   0.460   1.326
  104SOL    HW2  897   1.185   0.403   1.219
  105SOL     OW  898   0.064   1.564   1.331
  105SOL    HW1  899   0.018   1.646   1.297
  105SOL    HW2  900   0.162   1.583   1.340
  106SOL     OW  901   0.367   1.100   0.501
  106SOL    HW1  902   0.360   1.183   0.445
  106SOL    HW2  903   0.371   1.020   0.441
  107SOL     OW  904   0.566   0.537   0.865
  107SOL    HW1  905   0.578   0.603   0.791
  107SOL    HW2  906   0.612   0.571   0.948
  108SOL     OW  907   1.252   1.348   0.388
  108SOL    HW1  908   1.302   1.425   0.428
  108SOL    HW2  909   1.157   1.350   0.420
  109SOL     OW  910   1.272   1.445   1.142
  109SOL    HW1  911   1.319   1.458   1.229
  109SOL    HW2  912   1.206   1.371   1.151
  110SOL     OW  913   1.582   0.639   0.472
  110SOL    HW1  914   1.551   0.700   0.545
  110SOL    HW2  915   1.632   0.691   0.403
  111SOL     OW  916   0.354   1.510   1.329
  111SOL    HW1  917   0.333   1.466   1.242
  111SOL    HW2  918   0.451   1.536   1.332
  112SOL     OW  919   0.402   0.751   1.598
  112SOL    HW1  920   0.470   0.806   1.551
  112SOL    HW2  921   0.442   0.663   1.625
  113SOL     OW  922   1.587   0.779   1.670
  113SOL    HW1  923   1.495   0.817   1.665
  113SOL    HW2  924   1.647   0.826   1.605
  114SOL     OW  925   1.013   0.105   1.770
  114SOL    HW1  926   1.019   0.190   1.718
  114SOL    HW2  927   1.045   0.029   1.713
  115SOL     OW  928   0.504   0.050   1.740
  115SOL    HW1  929   0.462  -0.007   1.670
  115SOL    HW2  930   0.438   0.119   1.772
  116SOL     OW  931   0.573   0.870   1.029
  116SOL    HW1  932   0.617   0.959   1.020
  116SOL    HW2  933   0.510   0.870   1.106
  117SOL     OW  934   1.360   0.862   1.045
  117SOL    HW1  935   1.285   0.862   0.979
  117SOL    HW2  936   1.397   0.770   1.054
  118SOL     OW  937   1.209   0.525   0.275
  118SOL    HW1  938   1.222   0.441   0.329
  118SOL    HW2  939   1.180   0.599   0.335
  119SOL     OW  940   0.307   0.213   1.231
  119SOL    HW1  941   0.284   0.250   1.321
  119SOL    HW2  942   0.277   0.118   1.225
  120SOL     OW  943   0.037   1.310   1.282
  120SOL    HW1  944   0.090   1.261   1.350
  120SOL    HW2  945   0.059   1.408   1.287
  121SOL     OW  946   0.732   0.634   1.064
  121SOL    HW1  947   0.791   0.608   0.988
  121SOL    HW2  948   0.704   0.730   1.053
  122SOL     OW  949   1.728   0.935   1.854
  122SOL    HW1  950   1.682   0.928   1.765
  122SOL    HW2  951   1.666   0.979   1.920
  123SOL     OW  952   0.307   0.063   0.618
  123SOL    HW1  953   0.296   0.157   0.651
  123SOL    HW2  954   0.302   0.000   0.695
  124SOL     OW  955   1.622   0.367   0.374
  124SOL    HW1  956   1.624   0.291   0.438
  124SOL    HW2  957   1.574   0.444   0.414
  125SOL     OW  958   1.023   0.766   0.966
  125SOL    HW1  959   1.038   0.787   1.062
  125SOL    HW2  960   0.993   0.671   0.957
  126SOL     OW  961   0.980   1.573   1.700
  126SOL    HW1  962   0.960   1.617   1.612
  126SOL    HW2  963   1.019   1.482   1.684
  127SOL     OW  964   1.859   1.518   1.605
  127SOL    HW1  965   1.873   1.545   1.510
  127SOL    HW2  966   1.942   1.540   1.658
  128SOL     OW  967   0.350   0.898   1.804
  128SOL    HW1  968   0.426   0.942   1.852
  128SOL    HW2  969   0.385   0.851   1.722
  129SOL     OW  970   1.540   0.274   0.125
  129SOL    HW1  971   1.479   0.199   0.148
  129SOL    HW2  972   1.562   0.326   0.208
  130SOL     OW  973   1.303   0.838   0.042
  130SOL    HW1  974   1.337   0.745   0.057
  130SOL    HW2  975   1.321   0.865  -0.053
  131SOL     OW  976   1.068   1.333   0.849
  131SOL    HW1  977   1.075   1.249   0.794
  131SOL    HW2  978   1.130   1.402   0.813
  132SOL     OW  979   0.319   0.810   0.949
  132SOL    HW1  980   0.412   0.846   0.954
  132SOL    HW2  981   0.313   0.725   1.001
  133SOL     OW  982   0.339   0.509   1.006
  133SOL    HW1  983   0.287   0.426   0.989
  133SOL    HW2  984   0.416   0.514   0.942
  134SOL     OW  985   1.138   0.380   1.678
  134SOL    HW1  986   1.093   0.443   1.742
  134SOL    HW2  987   1.231   0.411   1.661
  135SOL     OW  988   1.160   0.207   1.477
  135SOL    HW1  989   1.160   0.271   1.554
  135SOL    HW2  990   1.188   0.255   1.394
  136SOL     OW  991   0.008   1.326   0.200
  136SOL    HW1  992  -0.085   1.347   0.169
  136SOL    HW2  993   0.018   1.227   0.213
  137SOL     OW  994   0.088   1.801   0.927
  137SOL    HW1  995   0.046   1.715   0.900
  137SOL    HW2  996   0.182   1.804   0.893
  138SOL     OW  997   0.504   1.568   0.910
  138SOL    HW1  998   0.570   1.642   0.919
  138SOL    HW2  999   0.548   1.489   0.868
  139SOL     OW 1000   1.002   0.796   1.238
  139SOL    HW1 1001   1.043   0.764   1.324
  139SOL    HW2 1002   0.906   0.769   1.235
  140SOL     OW 1003   0.040   0.544   1.114
  140SOL    HW1 1004   0.125   0.511   1.073
  140SOL    HW2 1005   0.053   0.559   1.212
  141SOL     OW 1006   0.189   0.520   1.722
  141SOL    HW1 1007   0.248   0.480   1.652
  141SOL    HW2 1008   0.131   0.591   1.681
  142SOL     OW 1009   1.369   0.950   1.660
  142SOL    HW1 1010   1.408   1.039   1.680
  142SOL    HW2 1011   1.379   0.930   1.563
  143SOL     OW 1012   0.815   0.572   0.325
  143SOL    HW1 1013   0.822   0.483   0.279
  143SOL    HW2 1014   0.721   0.606   0.317
  144SOL     OW 1015   1.657   0.604   1.206
  144SOL    HW1 1016   1.619   0.535   1.268
  144SOL    HW2 1017   1.739   0.568   1.162
  145SOL     OW 1018   0.252   1.564   1.744
  145SOL    HW1 1019   0.222   1.621   1.820
  145SOL    HW2 1020   0.245   1.467   1.770
  146SOL     OW 1021   0.671   0.464   1.269
  146SOL    HW1 1022   0.637   0.375   1.239
  146SOL    HW2 1023   0.697   0.518   1.189
  147SOL     OW 1024   0.930   1.678   1.465
  147SOL    HW1 1025   0.906   1.660   1.370
  147SOL    HW2 1026   0.960   1.772   1.475
  148SOL     OW 1027   0.473   0.500   0.191
  148SOL    HW1 1028   0.534   0.580   0.195
  148SOL    HW2 1029   0.378   0.531   0.198
  149SOL     OW 1030   0.159   1.137   1.466
  149SOL    HW1 1031   0.181   1.076   1.542
  149SOL    HW2 1032   0.169   1.088   1.380
  150SOL     OW 1033   1.347   1.059   1.234
  150SOL    HW1 1034   1.371   0.996   1.160
  150SOL    HW2 1035   1.257   1.099   1.216
  151SOL     OW 1036   1.302   0.855   0.309
  151SOL    HW1 1037   1.216   0.824   0.351
  151SOL    HW2 1038   1.298   0.841   0.210
  152SOL     OW 1039   1.759   1.747   1.154
  152SOL    HW1 1040   1.820   1.777   1.081
  152SOL    HW2 1041   1.721   1.658   1.132
  153SOL     OW 1042   1.252   1.731   1.128
  153SOL    HW1 1043   1.336   1.736   1.074
  153SOL    HW2 1044   1.229   1.635   1.146
  154SOL     OW 1045   0.083   1.258   1.022
  154SOL    HW1 1046   0.078   1.257   1.122
  154SOL    HW2 1047   0.000   1.217   0.984
  155SOL     OW 1048   0.688   1.662   1.716
  155SOL    HW1 1049   0.632   1.743   1.725
  155SOL    HW2 1050   0.740   1.666   1.630
  156SOL     OW 1051   0.903   0.086   0.133
  156SOL    HW1 1052   0.954   0.087   0.047
  156SOL    HW2 1053   0.959   0.044   0.204
  157SOL     OW 1054   1.726   0.135   0.523
  157SOL    HW1 1055   1.799   0.118   0.456
  157SOL    HW2 1056   1.695   0.048   0.561
  158SOL     OW 1057   1.388   1.573   0.477
  158SOL    HW1 1058   1.455   1.585   0.403
  158SOL    HW2 1059   1.348   1.662   0.500
  159SOL     OW 1060   0.130   1.794   1.851
  159SOL    HW1 1061   0.089   1.720   1.904
  159SOL    HW2 1062   0.194   1.845   1.909
  160SOL     OW 1063   1.280   0.927   0.672
  160SOL    HW1 1064   1.340   0.846   0.674
  160SOL    HW2 1065   1.320   0.996   0.612
  161SOL     OW 1066   0.830   1.273   1.422
  161SOL    HW1 1067   0.825   1.306   1.517
  161SOL    HW2 1068   0.744   1.292   1.376
  162SOL     OW 1069   0.672   1.616   0.154
  162SOL    HW1 1070   0.681   1.626   0.055
  162SOL    HW2 1071   0.632   1.527   0.175
  163SOL     OW 1072   1.650   1.720   1.394
  163SOL    HW1 1073   1.703   1.730   1.310
  163SOL    HW2 1074   1.623   1.810   1.428
  164SOL     OW 1075   1.841   0.175   0.963
  164SOL    HW1 1076   1.880   0.090   0.927
  164SOL    HW2 1077   1.743   0.177   0.944
  165SOL     OW 1078   0.263   0.326   0.720
  165SOL    HW1 1079   0.184   0.377   0.686
  165SOL    HW2 1080   0.254   0.311   0.818
  166SOL     OW 1081   1.194   1.612   0.031
  166SOL    HW1 1082   1.200   1.519   0.068
  166SOL    HW2 1083   1.135   1.612  -0.049
  167SOL     OW 1084   0.822   1.002   1.372
  167SOL    HW1 1085   0.862   1.001   1.280
  167SOL    HW2 1086   0.832   1.094   1.412
  168SOL     OW 1087   0.916   0.910   0.291
  168SOL    HW1 1088   0.979   0.948   0.223
  168SOL    HW2 1089   0.956   0.827   0.330
  169SOL     OW 1090   1.504   1.607   0.044
  169SOL    HW1 1091   1.412   1.644   0.051
  169SOL    HW2 1092   1.542   1.627  -0.046
  170SOL     OW 1093   0.372   1.288   1.490
  170SOL    HW1 1094   0.359   1.381   1.456
  170SOL    HW2 1095   0.288   1.236   1.477
  171SOL     OW 1096   1.614   1.292   1.289
  171SOL    HW1 1097   1.674   1.295   1.369
  171SOL    HW2 1098   1.539   1.356   1.302
  172SOL     OW 1099   1.039   1.098   0.696
  172SOL    HW1 1100   0.969   1.051   0.750
  172SOL    HW2 1101   1.098   1.030   0.653
  173SOL     OW 1102   1.014   0.236   0.971
  173SOL    HW1 1103   1.006   0.200   0.878
  173SOL    HW2 1104   1.012   0.160   1.036
  174SOL     OW 1105   0.590   1.487   0.491
  174SOL    HW1 1106   0.632   1.429   0.421
  174SOL    HW2 1107   0.546   1.566   0.447
  175SOL     OW 1108   1.709   0.385   1.381
  175SOL    HW1 1109   1.782   0.454   1.385
  175SOL    HW2 1110   1.737   0.310   1.322
  176SOL     OW 1111   0.255   1.348   0.290
  176SOL    HW1 1112   0.159   1.349   0.263
  176SOL    HW2 1113   0.267   1.401   0.374
  177SOL     OW 1114   0.105   1.013   1.726
  177SOL    HW1 1115   0.028   0.980   1.780
  177SOL    HW2 1116   0.190   0.983   1.768
  178SOL     OW 1117   0.672   0.203   1.489
  178SOL    HW1 1118   0.762   0.187   1.449
  178SOL    HW2 1119   0.680   0.208   1.588
  179SOL     OW 1120   0.075   0.345   0.033
  179SOL    HW1 1121  -0.017   0.317   0.004
  179SOL    HW2 1122   0.106   0.422  -0.023
  180SOL     OW 1123   1.440   0.856   1.398
  180SOL    HW1 1124   1.383   0.908   1.335
  180SOL    HW2 1125   1.536   0.868   1.374
  181SOL     OW 1126   0.072   0.166   0.318
  181SOL    HW1 1127   0.055   0.249   0.264
  181SOL    HW2 1128   0.162   0.129   0.296
  182SOL     OW 1129   1.183   1.335   0.119
  182SOL    HW1 1130   1.084   1.324   0.121
  182SOL    HW2 1131   1.217   1.350   0.212
  183SOL     OW 1132   0.613   0.842   1.431
  183SOL    HW1 1133   0.669   0.923   1.414
  183SOL    HW2 1134   0.672   0.762   1.434
  184SOL     OW 1135   1.493   1.767   0.959
  184SOL    HW1 1136   1.526   1.831   0.890
  184SOL    HW2 1137   1.559   1.761   1.034
  185SOL     OW 1138   0.716   0.565   1.708
  185SOL    HW1 1139   0.735   0.630   1.782
  185SOL    HW2 1140   0.776   0.485   1.717
  186SOL     OW 1141   1.450   1.220   1.633
  186SOL    HW1 1142   1.441   1.210   1.732
  186SOL    HW2 1143   1.546   1.213   1.607
  187SOL     OW 1144   0.390   1.741   1.560
  187SOL    HW1 1145   0.299   1.782   1.558
  187SOL    HW2 1146   0.383   1.647   1.592
  188SOL     OW 1147   1.674   0.883   1.254
  188SOL    HW1 1148   1.647   0.794   1.217
  188SOL    HW2 1149   1.675   0.951   1.181
  189SOL     OW 1150   1.225   0.325   0.449
  189SOL    HW1 1151   1.290   0.251   0.438
  189SOL    HW2 1152   1.245   0.375   0.533
  190SOL     OW 1153   0.594   0.745   0.652
  190SOL    HW1 1154   0.644   0.830   0.633
  190SOL    HW2 1155   0.506   0.747   0.604
  191SOL     OW 1156   1.777   0.342   1.642
  191SOL    HW1 1157   1.760   0.373   1.548
  191SOL    HW2 1158   1.693   0.305   1.680
  192SOL     OW 1159   1.730   0.934   1.517
  192SOL    HW1 1160   1.768   1.025   1.532
  192SOL    HW2 1161   1.722   0.917   1.418
  193SOL     OW 1162   0.859   1.374   0.016
  193SOL    HW1 1163   0.813   1.389   0.104
  193SOL    HW2 1164   0.903   1.459  -0.014
  194SOL     OW 1165   0.661   1.790   0.953
  194SOL    HW1 1166   0.615   1.878   0.940
  194SOL    HW2 1167   0.760   1.802   0.946
  195SOL     OW 1168   0.859   0.956   0.861
  195SOL    HW1 1169   0.913   0.887   0.909
  195SOL    HW2 1170   0.827   1.025   0.927
  196SOL     OW 1171   1.083   0.984   0.087
  196SOL    HW1 1172   1.060   1.037   0.005
  196SOL    HW2 1173   1.164   0.928   0.068
  197SOL     OW 1174   1.861   1.569   0.851
  197SOL    HW1 1175   1.790   1.557   0.781
  197SOL    HW2 1176   1.862   1.490   0.911
  198SOL     OW 1177   0.221   1.314   1.844
  198SOL    HW1 1178   0.156   1.241   1.823
  198SOL    HW2 1179   0.225   1.328   1.942
  199SOL     OW 1180   0.079   1.240   0.653
  199SOL    HW1 1181   0.078   1.193   0.741
  199SOL    HW2 1182   0.161   1.212   0.602
  200SOL     OW 1183   0.672   1.391   1.624
  200SOL    HW1 1184   0.594   1.341   1.662
  200SOL    HW2 1185   0.669   1.486   1.655
  201SOL     OW 1186   1.824   0.192   1.227
  201SOL    HW1 1187   1.820   0.102   1.271
  201SOL    HW2 1188   1.827   0.181   1.128
  202SOL     OW 1189   0.428   0.424   0.520
  202SOL    HW1 1190   0.458   0.352   0.458
  202SOL    HW2 1191   0.389   0.384   0.603
  203SOL     OW 1192   1.705   1.487   1.104
  203SOL    HW1 1193   1.612   1.462   1.077
  203SOL    HW2 1194   1.731   1.437   1.186
  204SOL     OW 1195   0.317   0.547   1.280
  204SOL    HW1 1196   0.355   0.488   1.352
  204SOL    HW2 1197   0.357   0.521   1.192
  205SOL     OW 1198   0.812   1.586   0.687
  205SOL    HW1 1199   0.844   1.596   0.593
  205SOL    HW2 1200   0.733   1.524   0.689
  206SOL     OW 1201   1.424   0.214   1.112
  206SOL    HW1 1202   1.476   0.149   1.167
  206SOL    HW2 1203   1.375   0.277   1.173
  207SOL     OW 1204   1.001   0.034   1.154
  207SOL    HW1 1205   0.938  -0.038   1.123
  207SOL    HW2 1206   1.094  -0.002   1.154
  208SOL     OW 1207   0.770   1.330   0.301
  208SOL    HW1 1208   0.724   1.243   0.318
  208SOL    HW2 1209   0.861   1.327   0.342
  209SOL     OW 1210   0.618   1.567   1.284
  209SOL    HW1 1211   0.613   1.649   1.341
  209SOL    HW2 1212   0.707   1.564   1.239
  210SOL     OW 1213   1.352   0.052   0.168
  210SOL    HW1 1214   1.387   0.011   0.084
  210SOL    HW2 1215   1.262   0.014   0.188
  211SOL     OW 1216   1.300   0.453   0.691
  211SOL    HW1 1217   1.241   0.533   0.695
  211SOL    HW2 1218   1.315   0.418   0.784
  212SOL     OW 1219   1.593   0.221   0.882
  212SOL    HW1 1220   1.509   0.220   0.936
  212SOL    HW2 1221   1.595   0.304   0.826
  213SOL     OW 1222   0.039   1.077   0.300
  213SOL    HW1 1223   0.138   1.066   0.291
  213SOL    HW2 1224  -0.001   0.991   0.332
  214SOL     OW 1225   0.875   1.646   0.337
  214SOL    HW1 1226   0.798   1.611   0.283
  214SOL    HW2 1227   0.843   1.717   0.399
  215SOL     OW 1228   0.230   0.628   1.975
  215SOL    HW1 1229   0.137   0.626   2.012
  215SOL    HW2 1230   0.231   0.589   1.883
  216SOL     OW 1231   0.225   0.275   2.858
  216SOL    HW1 1232   0.260   0.258   2.950
  216SOL    HW2 1233   0.137   0.230   2.846
  217SOL     OW 1234   0.019   0.368   2.509
  217SOL    HW1 1235  -0.063   0.411   2.548
  217SOL    HW2 1236  -0.009   0.295   2.446
  218SOL     OW 1237   0.569   1.275   3.027
  218SOL    HW1 1238   0.476   1.268   2.990
  218SOL    HW2 1239   0.580   1.364   3.071
  219SOL     OW 1240   1.555   1.511   2.565
  219SOL    HW1 1241   1.498   1.495   2.646
  219SOL    HW2 1242   1.496   1.521   2.485
  220SOL     OW 1243   1.135   0.703   2.579
  220SOL    HW1 1244   1.192   0.781   2.554
  220SOL    HW2 1245   1.075   0.729   2.655
  221SOL     OW 1246   1.755   0.607   2.093
  221SOL    HW1 1247   1.743   0.594   1.994
  221SOL    HW2 1248   1.725   0.526   2.142
  222SOL     OW 1249   0.768   1.144   2.885
  222SOL    HW1 1250   0.690   1.161   2.945
  222SOL    HW2 1251   0.802   1.231   2.849
  223SOL     OW 1252   0.850   0.798   3.685
  223SOL    HW1 1253   0.846   0.874   3.750
  223SOL    HW2 1254   0.872   0.834   3.594
  224SOL     OW 1255   0.685   1.012   2.527
  224SOL    HW1 1256   0.754   0.996   2.597
  224SOL    HW2 1257   0.612   1.069   2.565
  225SOL     OW 1258   0.686   1.161   3.665
  225SOL    HW1 1259   0.746   1.240   3.679
  225SOL    HW2 1260   0.600   1.192   3.624
  226SOL     OW 1261   0.335   1.435   2.923
  226SOL    HW1 1262   0.257   1.404   2.870
  226SOL    HW2 1263   0.393   1.493   2.866
  227SOL     OW 1264   1.460   1.505   3.201
  227SOL    HW1 1265   1.484   1.599   3.227
  227SOL    HW2 1266   1.444   1.451   3.283
  228SOL     OW 1267   0.438   0.392   3.361
  228SOL    HW1 1268   0.520   0.336   3.370
  228SOL    HW2 1269   0.357   0.334   3.365
  229SOL     OW 1270   1.603   0.447   2.599
  229SOL    HW1 1271   1.529   0.493   2.549
  229SOL    HW2 1272   1.654   0.515   2.652
  230SOL     OW 1273   0.231   1.713   2.345
  230SOL    HW1 1274   0.265   1.790   2.399
  230SOL    HW2 1275   0.275   1.713   2.255
  231SOL     OW 1276   1.127   1.341   3.552
  231SOL    HW1 1277   1.174   1.341   3.640
  231SOL    HW2 1278   1.079   1.254   3.541
  232SOL     OW 1279   0.230   1.434   2.400
  232SOL    HW1 1280   0.204   1.530   2.400
  232SOL    HW2 1281   0.159   1.380   2.445
  233SOL     OW 1282   0.240   1.091   2.748
  233SOL    HW1 1283   0.254   1.007   2.800
  233SOL    HW2 1284   0.185   1.155   2.803
  234SOL     OW 1285   0.620   1.786   3.301
  234SOL    HW1 1286   0.528   1.769   3.336
  234SOL    HW2 1287   0.648   1.878   3.327
  235SOL     OW 1288   0.606   0.964   1.985
  235SOL    HW1 1289   0.613   1.048   1.931
  235SOL    HW2 1290   0.652   0.977   2.073
  236SOL     OW 1291   1.594   0.114   3.342
  236SOL    HW1 1292   1.576   0.181   3.270
  236SOL    HW2 1293   1.591   0.160   3.431
  237SOL     OW 1294   0.122   0.643   2.425
  237SOL    HW1 1295   0.077   0.555   2.442
  237SOL    HW2 1296   0.121   0.697   2.509
  238SOL     OW 1297   1.842   1.767   2.221
  238SOL    HW1 1298   1.896   1.738   2.301
  238SOL    HW2 1299   1.872   1.857   2.192
  239SOL     OW 1300   0.027   1.596   1.979
  239SOL    HW1 1301   0.008   1.500   2.000
  239SOL    HW2 1302  -0.006   1.654   2.054
  240SOL     OW 1303   1.689   0.922   2.474
  240SOL    HW1 1304   1.784   0.893   2.482
  240SOL    HW2 1305   1.681   0.987   2.399
  241SOL     OW 1306   1.641   1.108   2.294
  241SOL    HW1 1307   1.727   1.110   2.242
  241SOL    HW2 1308   1.655   1.155   2.382
  242SOL     OW 1309   0.113   0.737   3.459
  242SOL    HW1 1310   0.201   0.724   3.504
  242SOL    HW2 1311   0.100   0.834   3.437
  243SOL     OW 1312   0.613   1.365   2.588
  243SOL    HW1 1313   0.564   1.278   2.597
  243SOL    HW2 1314   0.590   1.408   2.501
  244SOL     OW 1315   1.293   1.228   3.285
  244SOL    HW1 1316   1.330   1.155   3.227
  244SOL    HW2 1317   1.345   1.233   3.370
  245SOL     OW 1318   0.809   0.004   2.364
  245SOL    HW1 1319   0.849   0.095   2.355
  245SOL    HW2 1320   0.709   0.012   2.370
  246SOL     OW 1321   0.197   0.976   3.126
  246SOL    HW1 1322   0.286   0.931   3.112
  246SOL    HW2 1323   0.124   0.911   3.107
  247SOL     OW 1324   1.525   0.999   2.052
  247SOL    HW1 1325   1.462   0.923   2.065
  247SOL    HW2 1326   1.573   1.017   2.138
  248SOL     OW 1327   1.187   1.792   3.478
  248SOL    HW1 1328   1.211   1.852   3.402
  248SOL    HW2 1329   1.194   1.697   3.448
  249SOL     OW 1330   0.317   0.251   3.663
  249SOL    HW1 1331   0.388   0.322   3.669
  249SOL    HW2 1332   0.229   0.290   3.691
  250SOL     OW 1333   1.466   1.417   2.815
  250SOL    HW1 1334   1.407   1.423   2.895
  250SOL    HW2 1335   1.451   1.329   2.769
  251SOL     OW 1336   1.667   1.714   2.434
  251SOL    HW1 1337   1.626   1.691   2.346
  251SOL    HW2 1338   1.649   1.640   2.499
  252SOL     OW 1339   0.598   0.729   2.132
  252SOL    HW1 1340   0.622   0.798   2.064
  252SOL    HW2 1341   0.520   0.762   2.186
  253SOL     OW 1342   1.281   0.345   2.806
  253SOL    HW1 1343   1.195   0.295   2.793
  253SOL    HW2 1344   1.343   0.291   2.862
  254SOL     OW 1345   1.576   1.662   2.169
  254SOL    HW1 1346   1.665   1.708   2.172
  254SOL    HW2 1347   1.555   1.638   2.074
  255SOL     OW 1348   0.807   0.605   3.327
  255SOL    HW1 1349   0.760   0.602   3.416
  255SOL    HW2 1350   0.756   0.550   3.261
  256SOL     OW 1351   1.394   0.469   3.536
  256SOL    HW1 1352   1.374   0.512   3.624
  256SOL    HW2 1353   1.472   0.407   3.545
  257SOL     OW 1354   0.973   0.890   3.434
  257SOL    HW1 1355   1.019   0.806   3.405
  257SOL    HW2 1356   0.917   0.924   3.359
  258SOL     OW 1357   0.991   0.410   3.104
  258SOL    HW1 1358   0.914   0.444   3.158
  258SOL    HW2 1359   0.957   0.359   3.025
  259SOL     OW 1360   1.041   0.701   2.291
  259SOL    HW1 1361   1.067   0.697   2.387
  259SOL    HW2 1362   0.956   0.650   2.277
  260SOL     OW 1363   0.076   0.811   2.651
  260SOL    HW1 1364   0.175   0.799   2.660
  260SOL    HW2 1365   0.052   0.906   2.672
  261SOL     OW 1366   0.130   1.821   3.433
  261SOL    HW1 1367   0.120   1.806   3.532
  261SOL    HW2 1368   0.044   1.857   3.397
  262SOL     OW 1369   0.865   0.348   2.057
  262SOL    HW1 1370   0.924   0.411   2.008
  262SOL    HW2 1371   0.884   0.254   2.028
  263SOL     OW 1372   1.719   0.585   3.693
  263SOL    HW1 1373   1.693   0.674   3.657
  263SOL    HW2 1374   1.717   0.517   3.620
  264SOL     OW 1375   1.362   1.144   2.407
  264SOL    HW1 1376   1.445   1.115   2.359
  264SOL    HW2 1377   1.313   1.211   2.351
  265SOL     OW 1378   0.550   0.196   2.747
  265SOL    HW1 1379   0.545   0.191   2.847
  265SOL    HW2 1380   0.552   0.292   2.718
  266SOL     OW 1381   1.008   1.456   2.339
  266SOL    HW1 1382   0.962   1.528   2.287
  266SOL    HW2 1383   1.004   1.476   2.437
  267SOL     OW 1384   0.351   1.801   2.715
  267SOL    HW1 1385   0.401   1.715   2.721
  267SOL    HW2 1386   0.416   1.878   2.712
  268SOL     OW 1387   1.795   1.066   2.735
  268SOL    HW1 1388   1.733   1.051   2.659
  268SOL    HW2 1389   1.743   1.077   2.820
  269SOL     OW 1390   1.227   1.550   3.368
  269SOL    HW1 1391   1.233   1.473   3.432
  269SOL    HW2 1392   1.175   1.524   3.288
  270SOL     OW 1393   0.321   0.943   2.104
  270SOL    HW1 1394   0.403   0.982   2.062
  270SOL    HW2 1395   0.294   0.861   2.055
  271SOL     OW 1396   1.458   0.735   2.590
  271SOL    HW1 1397   1.453   0.670   2.665
  271SOL    HW2 1398   1.538   0.794   2.603
  272SOL     OW 1399   0.461   1.266   3.589
  272SOL    HW1 1400   0.411   1.267   3.503
  272SOL    HW2 1401   0.398   1.248   3.665
  273SOL     OW 1402   1.111   1.776   2.099
  273SOL    HW1 1403   1.051   1.714   2.149
  273SOL    HW2 1404   1.142   1.732   2.014
  274SOL     OW 1405   0.202   0.285   3.360
  274SOL    HW1 1406   0.122   0.345   3.347
  274SOL    HW2 1407   0.192   0.236   3.446
  275SOL     OW 1408   1.632   1.377   1.943
  275SOL    HW1 1409   1.600   1.471   1.933
  275SOL    HW2 1410   1.556   1.314   1.931
  276SOL     OW 1411   0.464   1.743   2.185
  276SOL    HW1 1412   0.497   1.782   2.271
  276SOL    HW2 1413   0.540   1.736   2.120
  277SOL     OW 1414   1.400   0.107   2.288
  277SOL    HW1 1415   1.376   0.070   2.198
  277SOL    HW2 1416   1.499   0.123   2.292
  278SOL     OW 1417   0.249   1.785   3.103
  278SOL    HW1 1418   0.306   1.720   3.153
  278SOL    HW2 1419   0.233   1.752   3.010
  279SOL     OW 1420   0.940   1.698   2.766
  279SOL    HW1 1421   1.020   1.641   2.787
  279SOL    HW2 1422   0.891   1.658   2.689
  280SOL     OW 1423   0.382   0.700   2.342
  280SOL    HW1 1424   0.427   0.610   2.339
  280SOL    HW2 1425   0.288   0.689   2.375
  281SOL     OW 1426   1.547   0.222   3.591
  281SOL    HW1 1427   1.542   0.259   3.683
  281SOL    HW2 1428   1.475   0.153   3.579
  282SOL     OW 1429   0.614   0.122   1.979
  282SOL    HW1 1430   0.712   0.100   1.986
  282SOL    HW2 1431   0.583   0.105   1.886
  283SOL     OW 1432   0.781   0.264   3.611
  283SOL    HW1 1433   0.848   0.203   3.654
  283SOL    HW2 1434   0.708   0.283   3.676
  284SOL     OW 1435   0.888   1.514   3.057
  284SOL    HW1 1436   0.865   1.489   2.963
  284SOL    HW2 1437   0.949   1.445   3.096
  285SOL     OW 1438   1.351   0.590   3.295
  285SOL    HW1 1439   1.379   0.547   3.380
  285SOL    HW2 1440   1.376   0.686   3.296
  286SOL     OW 1441   0.803   1.402   2.786
  286SOL    HW1 1442   0.893   1.416   2.744
  286SOL    HW2 1443   0.732   1.404   2.715
  287SOL     OW 1444   0.922   0.503   2.761
  287SOL    HW1 1445   0.897   0.494   2.665
  287SOL    HW2 1446   0.970   0.421   2.792
  288SOL     OW 1447   0.539   0.064   2.374
  288SOL    HW1 1448   0.458   0.065   2.432
  288SOL    HW2 1449   0.542   0.147   2.319
  289SOL     OW 1450   1.434   1.188   1.903
  289SOL    HW1 1451   1.466   1.112   1.960
  289SOL    HW2 1452   1.342   1.215   1.933
  290SOL     OW 1453   0.297   0.035   2.033
  290SOL    HW1 1454   0.346   0.119   2.012
  290SOL    HW2 1455   0.359  -0.030   2.078
  291SOL     OW 1456   0.935   0.236   2.342
  291SOL    HW1 1457   0.887   0.277   2.264
  291SOL    HW2 1458   1.034   0.234   2.323
  292SOL     OW 1459   1.076   0.683   3.326
  292SOL    HW1 1460   0.996   0.622   3.329
  292SOL    HW2 1461   1.157   0.630   3.302
  293SOL     OW 1462   1.227   1.570   2.655
  293SOL    HW1 1463   1.248   1.644   2.590
  293SOL    HW2 1464   1.295   1.570   2.728
  294SOL     OW 1465   0.459   1.152   2.603
  294SOL    HW1 1466   0.388   1.125   2.668
  294SOL    HW2 1467   0.433   1.124   2.510
  295SOL     OW 1468   1.271   1.797   2.453
  295SOL    HW1 1469   1.315   1.861   2.389
  295SOL    HW2 1470   1.221   1.849   2.523
  296SOL     OW 1471   1.032   0.549   1.878
  296SOL    HW1 1472   0.991   0.631   1.839
  296SOL    HW2 1473   1.096   0.575   1.951
  297SOL     OW 1474   0.078   0.556   3.248
  297SOL    HW1 1475   0.170   0.555   3.207
  297SOL    HW2 1476   0.072   0.630   3.315
  298SOL     OW 1477   0.561   0.222   3.009
  298SOL    HW1 1478   0.599   0.138   3.046
  298SOL    HW2 1479   0.473   0.241   3.053
  299SOL     OW 1480   0.866   0.454   2.504
  299SOL    HW1 1481   0.834   0.526   2.442
  299SOL    HW2 1482   0.890   0.373   2.451
  300SOL     OW 1483   1.017   0.039   2.615
  300SOL    HW1 1484   0.945   0.044   2.546
  300SOL    HW2 1485   0.993  -0.030   2.684
  301SOL     OW 1486   1.429   1.173   2.729
  301SOL    HW1 1487   1.374   1.089   2.722
  301SOL    HW2 1488   1.455   1.202   2.637
  302SOL     OW 1489   1.466   0.590   2.854
  302SOL    HW1 1490   1.436   0.495   2.861
  302SOL    HW2 1491   1.539   0.606   2.920
  303SOL     OW 1492   1.857   0.833   2.239
  303SOL    HW1 1493   1.899   0.769   2.303
  303SOL    HW2 1494   1.819   0.782   2.161
  304SOL     OW 1495   0.488   1.385   2.036
  304SOL    HW1 1496   0.401   1.370   2.083
  304SOL    HW2 1497   0.471   1.411   1.941
  305SOL     OW 1498   1.664   1.280   2.519
  305SOL    HW1 1499   1.763   1.288   2.533
  305SOL    HW2 1500   1.619   1.364   2.550
  306SOL     OW 1501   1.390   0.575   1.940
  306SOL    HW1 1502   1.336   0.554   2.021
  306SOL    HW2 1503   1.481   0.534   1.949
  307SOL     OW 1504   0.527   0.256   2.190
  307SOL    HW1 1505   0.554   0.197   2.115
  307SOL    HW2 1506   0.527   0.351   2.159
  308SOL     OW 1507   1.754   1.223   3.450
  308SOL    HW1 1508   1.845   1.184   3.437
  308SOL    HW2 1509   1.762   1.319   3.474
  309SOL     OW 1510   1.064   1.347   3.202
  309SOL    HW1 1511   0.984   1.324   3.257
  309SOL    HW2 1512   1.147   1.321   3.251
  310SOL     OW 1513   1.592   1.629   3.487
  310SOL    HW1 1514   1.619   1.663   3.397
  310SOL    HW2 1515   1.671   1.591   3.533
  311SOL     OW 1516   1.111   1.195   2.962
  311SOL    HW1 1517   1.071   1.239   3.043
  311SOL    HW2 1518   1.070   1.232   2.879
  312SOL     OW 1519   1.638   1.099   2.941
  312SOL    HW1 1520   1.643   1.180   3.000
  312SOL    HW2 1521   1.552   1.101   2.890
  313SOL     OW 1522   0.915   0.089   3.264
  313SOL    HW1 1523   0.940   0.069   3.169
  313SOL    HW2 1524   0.987   0.145   3.306
  314SOL     OW 1525   0.980   1.116   3.581
  314SOL    HW1 1526   0.881   1.122   3.591
  314SOL    HW2 1527   1.003   1.036   3.525
  315SOL     OW 1528   0.705   1.050   2.230
  315SOL    HW1 1529   0.691   1.057   2.329
  315SOL    HW2 1530   0.789   0.999   2.212
  316SOL     OW 1531   0.410   0.813   3.113
  316SOL    HW1 1532   0.496   0.825   3.163
  316SOL    HW2 1533   0.368   0.726   3.140
  317SOL     OW 1534   1.274   0.386   3.124
  317SOL    HW1 1535   1.295   0.460   3.188
  317SOL    HW2 1536   1.185   0.403   3.081
  318SOL     OW 1537   0.064   1.564   3.193
  318SOL    HW1 1538   0.018   1.646   3.159
  318SOL    HW2 1539   0.162   1.583   3.202
  319SOL     OW 1540   0.367   1.100   2.363
  319SOL    HW1 1541   0.360   1.183   2.307
  319SOL    HW2 1542   0.371   1.020   2.303
  320SOL     OW 1543   0.566   0.537   2.727
  320SOL    HW1 1544   0.578   0.603   2.653
  320SOL    HW2 1545   0.612   0.571   2.810
  321SOL     OW 1546   1.252   1.348   2.250
  321SOL    HW1 1547   1.302   1.425   2.290
  321SOL    HW2 1548   1.157   1.350   2.282
  322SOL     OW 1549   1.272   1.445   3.004
  322SOL    HW1 1550   1.319   1.458   3.091
  322SOL    HW2 1551   1.206   1.371   3.013
  323SOL     OW 1552   1.582   0.639   2.334
  323SOL    HW1 1553   1.551   0.700   2.407
  323SOL    HW2 1554   1.632   0.691   2.265
  324SOL     OW 1555   0.354   1.510   3.191
  324SOL    HW1 1556   0.333   1.466   3.104
  324SOL    HW2 1557   0.451   1.536   3.194
  325SOL     OW 1558   0.402   0.751   3.460
  325SOL    HW1 1559   0.470   0.806   3.413
  325SOL    HW2 1560   0.442   0.663   3.487
  326SOL     OW 1561   1.587   0.779   3.532
  326SOL    HW1 1562   1.495   0.817   3.527
  326SOL    HW2 1563   1.647   0.826   3.467
  327SOL     OW 1564   1.013   0.105   3.632
  327SOL    HW1 1565   1.019   0.190   3.580
  327SOL    HW2 1566   1.045   0.029   3.575
  328SOL     OW 1567   0.504   0.050   3.602
  328SOL    HW1 1568   0.462  -0.007   3.532
  328SOL    HW2 1569   0.438   0.119   3.634
  329SOL     OW 1570   0.573   0.870   2.891
  329SOL    HW1 1571   0.617   0.959   2.882
  329SOL    HW2 1572   0.510   0.870   2.968
  330SOL     OW 1573   1.360   0.862   2.907
  330SOL    HW1 1574   1.285   0.862   2.841
  330SOL    HW2 1575   1.397   0.770   2.916
  331SOL     OW 1576   1.209   0.525   2.137
  331SOL    HW1 1577   1.222   0.441   2.191
  331SOL    HW2 1578   1.180   0.599   2.197
  332SOL     OW 1579   0.307   0.213   3.093
  332SOL    HW1 1580   0.284   0.250   3.183
  332SOL    HW2 1581   0.277   0.118   3.087
  333SOL     OW 1582   0.037   1.310   3.144
  333SOL    HW1 1583   0.090   1.261   3.212
  333SOL    HW2 1584   0.059   1.408   3.149
  334SOL     OW 1585   0.732   0.634   2.926
  334SOL    HW1 1586   0.791   0.608   2.850
  334SOL    HW2 1587   0.704   0.730   2.915
  335SOL     OW 1588   1.728   0.935   3.716
  335SOL    HW1 1589   1.682   0.928   3.627
  335SOL    HW2 1590   1.666   0.979   3.782
  336SOL     OW 1591   0.307   0.063   2.480
  336SOL    HW1 1592   0.296   0.157   2.513
  336SOL    HW2 1593   0.302   0.000   2.557
  337SOL     OW 1594   1.622   0.367   2.236
  337SOL    HW1 1595   1.624   0.291   2.300
  337SOL    HW2 1596   1.574   0.444   2.276
  338SOL     OW 1597   1.023   0.766   2.828
  338SOL    HW1 1598   1.038   0.787   2.924
  338SOL    HW2 1599   0.993   0.671   2.819
  339SOL     OW 1600   0.980   1.573   3.562
  339SOL    HW1 1601   0.960   1.617   3.474
  339SOL    HW2 1602   1.019   1.482   3.546
  340SOL     OW 1603   1.859   1.518   3.467
  340SOL    HW1 1604   1.873   1.545   3.372
  340SOL    HW2 1605   1.942   1.540   3.520
  341SOL     OW 1606   0.350   0.898   3.666
  341SOL    HW1 1607   0.426   0.942   3.714
  341SOL    HW2 1608   0.385   0.851   3.584
  342SOL     OW 1609   1.540   0.274   1.987
  342SOL    HW1 1610   1.479   0.199   2.010
  342SOL    HW2 1611   1.562   0.326   2.070
  343SOL     OW 1612   1.303   0.838   1.904
  343SOL    HW1 1613   1.337   0.745   1.919
  343SOL    HW2 1614   1.321   0.865   1.809
  344SOL     OW 1615   1.068   1.333   2.711
  344SOL    HW1 1616   1.075   1.249   2.656
  344SOL    HW2 1617   1.130   1.402   2.675
  345SOL     OW 1618   0.319   0.810   2.811
  345SOL    HW1 1619   0.412   0.846   2.816
  345SOL    HW2 1620   0.313   0.725   2.863
  346SOL     OW 1621   0.339   0.509   2.868
  346SOL    HW1 1622   0.287   0.426   2.851
  346SOL    HW2 1623   0.416   0.514   2.804
  347SOL     OW 1624   1.138   0.380   3.540
  347SOL    HW1 1625   1.093   0.443   3.604
  347SOL    HW2 1626   1.231   0.411   3.523
  348SOL     OW 1627   1.160   0.207   3.339
  348SOL    HW1 1628   1.160   0.271   3.416
  348SOL    HW2 1629   1.188   0.255   3.256
  349SOL     OW 1630   0.008   1.326   2.062
  349SOL    HW1 1631  -0.085   1.347   2.031
  349SOL    HW2 1632   0.018   1.227   2.075
  350SOL     OW 1633   0.088   1.801   2.789
  350SOL    HW1 1634   0.046   1.715   2.762
  350SOL    HW2 1635   0.182   1.804   2.755
  351SOL     OW 1636   0.504   1.568   2.772
  351SOL    HW1 1637   0.570   1.642   2.781
  351SOL    HW2 1638   0.548   1.489   2.730
  352SOL     OW 1639   1.002   0.796   3.100
  352SOL    HW1 1640   1.043   0.764   3.186
  352SOL    HW2 1641   0.906   0.769   3.097
  353SOL     OW 1642   0.040   0.544   2.976
  353SOL    HW1 1643   0.125   0.511   2.935
  353SOL    HW2 1644   0.053   0.559   3.074
  354SOL     OW 1645   0.189   0.520   3.584
  354SOL    HW1 1646   0.248   0.480   3.514
  354SOL    HW2 1647   0.131   0.591   3.543
  355SOL     OW 1648   1.369   0.950   3.522
  355SOL    HW1 1649   1.408   1.039   3.542
  355SOL    HW2 1650   1.379   0.930   3.425
  356SOL     OW 1651   0.815   0.572   2.187
  356SOL    HW1 1652   0.822   0.483   2.141
  356SOL    HW2 1653   0.721   0.606   2.179
  357SOL     OW 1654   1.657   0.604   3.068
  357SOL    HW1 1655   1.619   0.535   3.130
  357SOL    HW2 1656   1.739   0.568   3.024
  358SOL     OW 1657   0.252   1.564   3.606
  358SOL    HW1 1658   0.222   1.621   3.682
  358SOL    HW2 1659   0.245   1.467   3.632
  359SOL     OW 1660   0.671   0.464   3.131
  359SOL    HW1 1661   0.637   0.375   3.101
  359SOL    HW2 1662   0.697   0.518   3.051
  360SOL     OW 1663   0.930   1.678   3.327
  360SOL    HW1 1664   0.906   1.660   3.232
  360SOL    HW2 1665   0.960   1.772   3.337
  361SOL     OW 1666   0.473   0.500   2.053
  361SOL    HW1 1667   0.534   0.580   2.057
  361SOL    HW2 1668   0.378   0.531   2.060
  362SOL     OW 1669   0.159   1.137   3.328
  362SOL    HW1 1670   0.181   1.076   3.404
  362SOL    HW2 1671   0.169   1.088   3.242
  363SOL     OW 1672   1.347   1.059   3.096
  363SOL    HW1 1673   1.371   0.996   3.022
  363SOL    HW2 1674   1.257   1.099   3.078
  364SOL     OW 1675   1.302   0.855   2.171
  364SOL    HW1 1676   1.216   0.824   2.213
  364SOL    HW2 1677   1.298   0.841   2.072
  365SOL     OW 1678   1.759   1.747   3.016
  365SOL    HW1 1679   1.820   1.777   2.943
  365SOL    HW2 1680   1.721   1.658   2.994
  366SOL     OW 1681   1.252   1.731   2.990
  366SOL    HW1 1682   1.336   1.736   2.936
  366SOL    HW2 1683   1.229   1.635   3.008
  367SOL     OW 1684   0.083   1.258   2.884
  367SOL    HW1 1685   0.078   1.257   2.984
  367SOL    HW2 1686   0.000   1.217   2.846
  368SOL     OW 1687   0.688   1.662   3.578
  368SOL    HW1 1688   0.632   1.743   3.587
  368SOL    HW2 1689   0.740   1.666   3.492
  369SOL     OW 1690   1.726   0.135   2.385
  369SOL    HW1 1691   1.799   0.118   2.318
  369SOL    HW2 1692   1.695   0.048   2.423
  370SOL     OW 1693   1.388   1.573   2.339
  370SOL    HW1 1694   1.455   1.585   2.265
  370SOL    HW2 1695   1.348   1.662   2.362
  371SOL     OW 1696   0.130   1.794   3.713
  371SOL    HW1 1697   0.089   1.720   3.766
  371SOL    HW2 1698   0.194   1.845   3.771
  372SOL     OW 1699   1.280   0.927   2.534
  372SOL    HW1 1700   1.340   0.846   2.536
  372SOL    HW2 1701   1.320   0.996   2.474
  373SOL     OW 1702   0.830   1.273   3.284
  373SOL    HW1 1703   0.825   1.306   3.379
  373SOL    HW2 1704   0.744   1.292   3.238
  374SOL     OW 1705   0.672   1.616   2.016
  374SOL    HW1 1706   0.681   1.626   1.917
  374SOL    HW2 1707   0.632   1.527   2.037
  375SOL     OW 1708   1.650   1.720   3.256
  375SOL    HW1 1709   1.703   1.730   3.172
  375SOL    HW2 1710   1.623   1.810   3.290
  376SOL     OW 1711   1.841   0.175   2.825
  376SOL    HW1 1712   1.880   0.090   2.789
  376SOL    HW2 1713   1.743   0.177   2.806
  377SOL     OW 1714   0.263   0.326   2.582
  377SOL    HW1 1715   0.184   0.377   2.548
  377SOL    HW2 1716   0.254   0.311   2.680
  378SOL     OW 1717   1.194   1.612   1.893
  378SOL    HW1 1718   1.200   1.519   1.930
  378SOL    HW2 1719   1.135   1.612   1.813
  379SOL     OW 1720   0.822   1.002   3.234
  379SOL    HW1 1721   0.862   1.001   3.142
  379SOL    HW2 1722   0.832   1.094   3.274
  380SOL     OW 1723   0.916   0.910   2.153
  380SOL    HW1 1724   0.979   0.948   2.085
  380SOL    HW2 1725   0.956   0.827   2.192
  381SOL     OW 1726   1.504   1.607   1.906
  381SOL    HW1 1727   1.412   1.644   1.913
  381SOL    HW2 1728   1.542   1.627   1.816
  382SOL     OW 1729   0.372   1.288   3.352
  382SOL    HW1 1730   0.359   1.381   3.318
  382SOL    HW2 1731   0.288   1.236   3.339
  383SOL     OW 1732   1.614   1.292   3.151
  383SOL    HW1 1733   1.674   1.295   3.231
  383SOL    HW2 1734   1.539   1.356   3.164
  384SOL     OW 1735   1.039   1.098   2.558
  384SOL    HW1 1736   0.969   1.051   2.612
  384SOL    HW2 1737   1.098   1.030   2.515
  385SOL     OW 1738   1.014   0.236   2.833
  385SOL    HW1 1739   1.006   0.200   2.740
  385SOL    HW2 1740   1.012   0.160   2.898
  386SOL     OW 1741   0.590   1.487   2.353
  386SOL    HW1 1742   0.632   1.429   2.283
  386SOL    HW2 1743   0.546   1.566   2.309
  387SOL     OW 1744   1.709   0.385   3.243
  387SOL    HW1 1745   1.782   0.454   3.247
  387SOL    HW2 1746   1.737   0.310   3.184
  388SOL     OW 1747   0.255   1.348   2.152
  388SOL    HW1 1748   0.159   1.349   2.125
  388SOL    HW2 1749   0.267   1.401   2.236
  389SOL     OW 1750   0.105   1.013   3.588
  389SOL    HW1 1751   0.028   0.980   3.642
  389SOL    HW2 1752   0.190   0.983   3.630
  390SOL     OW 1753   0.672   0.203   3.351
  390SOL    HW1 1754   0.762   0.187   3.311
  390SOL    HW2 1755   0.680   0.208   3.450
  391SOL     OW 1756   0.075   0.345   1.895
  391SOL    HW1 1757  -0.017   0.317   1.866
  391SOL    HW2 1758   0.106   0.422   1.839
  392SOL     OW 1759   1.440   0.856   3.260
  392SOL    HW1 1760   1.383   0.908   3.197
  392SOL    HW2 1761   1.536   0.868   3.236
  393SOL     OW 1762   0.072   0.166   2.180
  393SOL    HW1 1763   0.055   0.249   2.126
  393SOL    HW2 1764   0.162   0.129   2.158
  394SOL     OW 1765   1.183   1.335   1.981
  394SOL    HW1 1766   1.084   1.324   1.983
  394SOL    HW2 1767   1.217   1.350   2.074
  395SOL     OW 1768   0.613   0.842   3.293
  395SOL    HW1 1769   0.669   0.923   3.276
  395SOL    HW2 1770   0.672   0.762   3.296
  396SOL     OW 1771   1.493   1.767   2.821
  396SOL    HW1 1772   1.526   1.831   2.752
  396SOL    HW2 1773   1.559   1.761   2.896
  397SOL     OW 1774   0.716   0.565   3.570
  397SOL    HW1 1775   0.735   0.630   3.644
  397SOL    HW2 1776   0.776   0.485   3.579
  398SOL     OW 1777   1.450   1.220   3.495
  398SOL    HW1 1778   1.441   1.210   3.594
  398SOL    HW2 1779   1.546   1.213   3.469
  399SOL     OW 1780   0.390   1.741   3.422
  399SOL    HW1 1781   0.299   1.782   3.420
  399SOL    HW2 1782   0.383   1.647   3.454
  400SOL     OW 1783   1.674   0.883   3.116
  400SOL    HW1 1784   1.647   0.794   3.079
  400SOL    HW2 1785   1.675   0.951   3.043
  401SOL     OW 1786   1.225   0.325   2.311
  401SOL    HW1 1787   1.290   0.251   2.300
  401SOL    HW2 1788   1.245   0.375   2.395
  402SOL     OW 1789   0.594   0.745   2.514
  402SOL    HW1 1790   0.644   0.830   2.495
  402SOL    HW2 1791   0.506   0.747   2.466
  403SOL     OW 1792   1.777   0.342   3.504
  403SOL    HW1 1793   1.760   0.373   3.410
  403SOL    HW2 1794   1.693   0.305   3.542
  404SOL     OW 1795   1.730   0.934   3.379
  404SOL    HW1 1796   1.768   1.025   3.394
  404SOL    HW2 1797   1.722   0.917   3.280
  405SOL     OW 1798   0.859   1.374   1.878
  405SOL    HW1 1799   0.813   1.389   1.966
  405SOL    HW2 1800   0.903   1.459   1.848
  406SOL     OW 1801   0.661   1.790   2.815
  406SOL    HW1 1802   0.615   1.878   2.802
  406SOL    HW2 1803   0.760   1.802   2.808
  407SOL     OW 1804   0.859   0.956   2.723
  407SOL    HW1 1805   0.913   0.887   2.771
  407SOL    HW2 1806   0.827   1.025   2.789
  408SOL     OW 1807   1.083   0.984   1.949
  408SOL    HW1 1808   1.060   1.037   1.867
  408SOL    HW2 1809   1.164   0.928   1.930
  409SOL     OW 1810   1.861   1.569   2.713
  409SOL    HW1 1811   1.790   1.557   2.643
  409SOL    HW2 1812   1.862   1.490   2.773
  410SOL     OW 1813   0.221   1.314   3.706
  410SOL    HW1 1814   0.156   1.241   3.685
  410SOL    HW2 1815   0.225   1.328   3.804
  411SOL     OW 1816   0.079   1.240   2.515
  411SOL    HW1 1817   0.078   1.193   2.603
  411SOL    HW2 1818   0.161   1.212   2.464
  412SOL     OW 1819   0.672   1.391   3.486
  412SOL    HW1 1820   0.594   1.341   3.524
  412SOL    HW2 1821   0.669   1.486   3.517
  413SOL     OW 1822   1.824   0.192   3.089
  413SOL    HW1 1823   1.820   0.102   3.133
  413SOL    HW2 1824   1.827   0.181   2.990
  414SOL     OW 1825   0.428   0.424   2.382
  414SOL    HW1 1826   0.458   0.352   2.320
  414SOL    HW2 1827   0.389   0.384   2.465
  415SOL     OW 1828   1.705   1.487   2.966
  415SOL    HW1 1829   1.612   1.462   2.939
  415SOL    HW2 1830   1.731   1.437   3.048
  416SOL     OW 1831   0.317   0.547   3.142
  416SOL    HW1 1832   0.355   0.488   3.214
  416SOL    HW2 1833   0.357   0.521   3.054
  417SOL     OW 1834   0.812   1.586   2.549
  417SOL    HW1 1835   0.844   1.596   2.455
  417SOL    HW2 1836   0.733   1.524   2.551
  418SOL     OW 1837   1.424   0.214   2.974
  418SOL    HW1 1838   1.476   0.149   3.029
  418SOL    HW2 1839   1.375   0.277   3.035
  419SOL     OW 1840   1.001   0.034   3.016
  419SOL    HW1 1841   0.938  -0.038   2.985
  419SOL    HW2 1842   1.094  -0.002   3.016
  420SOL     OW 1843   0.770   1.330   2.163
  420SOL    HW1 1844   0.724   1.243   2.180
  420SOL    HW2 1845   0.861   1.327   2.204
  421SOL     OW 1846   0.618   1.567   3.146
  421SOL    HW1 1847   0.613   1.649   3.203
  421SOL    HW2 1848   0.707   1.564   3.101
  422SOL     OW 1849   1.352   0.052   2.030
  422SOL    HW1 1850   1.387   0.011   1.946
  422SOL    HW2 1851   1.262   0.014   2.050
  423SOL     OW 1852   1.300   0.453   2.553
  423SOL    HW1 1853   1.241   0.533   2.557
  423SOL    HW2 1854   1.315   0.418   2.646
  424SOL     OW 1855   1.593   0.221   2.744
  424SOL    HW1 1856   1.509   0.220   2.798
  424SOL    HW2 1857   1.595   0.304   2.688
  425SOL     OW 1858   0.039   1.077   2.162
  425SOL    HW1 1859   0.138   1.066   2.153
  425SOL    HW2 1860  -0.001   0.991   2.194
  426SOL     OW 1861   0.875   1.646   2.199
  426SOL    HW1 1862   0.798   1.611   2.145
  426SOL    HW2 1863   0.843   1.717   2.261
  427SOL     OW 1864   0.230   0.628   3.837
  427SOL    HW1 1865   0.137   0.626   3.874
  427SOL    HW2 1866   0.231   0.589   3.745
  428SOL     OW 1867   0.225   0.275   4.720
  428SOL    HW1 1868   0.260   0.258   4.812
  428SOL    HW2 1869   0.137   0.230   4.708
  429SOL     OW 1870   0.019   0.368   4.371
  429SOL    HW1 1871  -0.063   0.411   4.410
  429SOL    HW2 1872  -0.009   0.295   4.308
  430SOL     OW 1873   0.569   1.275   4.889
  430SOL    HW1 1874   0.476   1.268   4.852
  430SOL    HW2 1875   0.580   1.364   4.933
  431SOL     OW 1876   1.555   1.511   4.427
  431SOL    HW1 1877   1.498   1.495   4.508
  431SOL    HW2 1878   1.496   1.521   4.347
  432SOL     OW 1879   1.135   0.703   4.441
  432SOL    HW1 1880   1.192   0.781   4.416
  432SOL    HW2 1881   1.075   0.729   4.517
  433SOL     OW 1882   1.755   0.607   3.955
  433SOL    HW1 1883   1.743   0.594   3.856
  433SOL    HW2 1884   1.725   0.526   4.004
  434SOL     OW 1885   0.768   1.144   4.747
  434SOL    HW1 1886   0.690   1.161   4.807
  434SOL    HW2 1887   0.802   1.231   4.711
  435SOL     OW 1888   0.850   0.798   5.547
  435SOL    HW1 1889   0.846   0.874   5.612
  435SOL    HW2 1890   0.872   0.834   5.456
  436SOL     OW 1891   0.685   1.012   4.389
  436SOL    HW1 1892   0.754   0.996   4.459
  436SOL    HW2 1893   0.612   1.069   4.427
  437SOL     OW 1894   0.686   1.161   5.527
  437SOL    HW1 1895   0.746   1.240   5.541
  437SOL    HW2 1896   0.600   1.192   5.486
  438SOL     OW 1897   0.335   1.435   4.785
  438SOL    HW1 1898   0.257   1.404   4.732
  438SOL    HW2 1899   0.393   1.493   4.728
  439SOL     OW 1900   1.460   1.505   5.063
  439SOL    HW1 1901   1.484   1.599   5.089
  439SOL    HW2 1902   1.444   1.451   5.145
  440SOL     OW 1903   0.438   0.392   5.223
  440SOL    HW1 1904   0.520   0.336   5.232
  440SOL    HW2 1905   0.357   0.334   5.227
  441SOL     OW 1906   1.603   0.447   4.461
  441SOL    HW1 1907   1.529   0.493   4.411
  441SOL    HW2 1908   1.654   0.515   4.514
  442SOL     OW 1909   0.231   1.713   4.207
  442SOL    HW1 1910   0.265   1.790   4.261
  442SOL    HW2 1911   0.275   1.713   4.117
  443SOL     OW 1912   1.127   1.341   5.414
  443SOL    HW1 1913   1.174   1.341   5.502
  443SOL    HW2 1914   1.079   1.254   5.403
  444SOL     OW 1915   0.230   1.434   4.262
  444SOL    HW1 1916   0.204   1.530   4.262
  444SOL    HW2 1917   0.159   1.380   4.307
  445SOL     OW 1918   0.240   1.091   4.610
  445SOL    HW1 1919   0.254   1.007   4.662
  445SOL    HW2 1920   0.185   1.155   4.665
  446SOL     OW 1921   0.620   1.786   5.163
  446SOL    HW1 1922   0.528   1.769   5.198
  446SOL    HW2 1923   0.648   1.878   5.189
  447SOL     OW 1924   0.606   0.964   3.847
  447SOL    HW1 1925   0.613   1.048   3.793
  447SOL    HW2 1926   0.652   0.977   3.935
  448SOL     OW 1927   1.594   0.114   5.204
  448SOL    HW1 1928   1.576   0.181   5.132
  448SOL    HW2 1929   1.591   0.160   5.293
  449SOL     OW 1930   0.122   0.643   4.287
  449SOL    HW1 1931   0.077   0.555   4.304
  449SOL    HW2 1932   0.121   0.697   4.371
  450SOL     OW 1933   1.842   1.767   4.083
  450SOL    HW1 1934   1.896   1.738   4.163
  450SOL    HW2 1935   1.872   1.857   4.054
  451SOL     OW 1936   0.027   1.596   3.841
  451SOL    HW1 1937   0.008   1.500   3.862
  451SOL    HW2 1938  -0.006   1.654   3.916
  452SOL     OW 1939   1.689   0.922   4.336
  452SOL    HW1 1940   1.784   0.893   4.344
  452SOL    HW2 1941   1.681   0.987   4.261
  453SOL     OW 1942   1.641   1.108   4.156
  453SOL    HW1 1943   1.727   1.110   4.104
  453SOL    HW2 1944   1.655   1.155   4.244
  454SOL     OW 1945   0.113   0.737   5.321
  454SOL    HW1 1946   0.201   0.724   5.366
  454SOL    HW2 1947   0.100   0.834   5.299
  455SOL     OW 1948   0.613   1.365   4.450
  455SOL    HW1 1949   0.564   1.278   4.459
  455SOL    HW2 1950   0.590   1.408   4.363
  456SOL     OW 1951   1.293   1.228   5.147
  456SOL    HW1 1952   1.330   1.155   5.089
  456SOL    HW2 1953   1.345   1.233   5.232
  457SOL     OW 1954   0.809   0.004   4.226
  457SOL    HW1 1955   0.849   0.095   4.217
  457SOL    HW2 1956   0.709   0.012   4.232
  458SOL     OW 1957   0.197   0.976   4.988
  458SOL    HW1 1958   0.286   0.931   4.974
  458SOL    HW2 1959   0.124   0.911   4.969
  459SOL     OW 1960   1.525   0.999   3.914
  459SOL    HW1 1961   1.462   0.923   3.927
  459SOL    HW2 1962   1.573   1.017   4.000
  460SOL     OW 1963   1.187   1.792   5.340
  460SOL    HW1 1964   1.211   1.852   5.264
  460SOL    HW2 1965   1.194   1.697   5.310
  461SOL     OW 1966   0.317   0.251   5.525
  461SOL    HW1 1967   0.388   0.322   5.531
  461SOL    HW2 1968   0.229   0.290   5.553
  462SOL     OW 1969   1.466   1.417   4.677
  462SOL    HW1 1970   1.407   1.423   4.757
  462SOL    HW2 1971   1.451   1.329   4.631
  463SOL     OW 1972   1.667   1.714   4.296
  463SOL    HW1 1973   1.626   1.691   4.208
  463SOL    HW2 1974   1.649   1.640   4.361
  464SOL     OW 1975   0.598   0.729   3.994
  464SOL    HW1 1976   0.622   0.798   3.926
  464SOL    HW2 1977   0.520   0.762   4.048
  465SOL     OW 1978   1.281   0.345   4.668
  465SOL    HW1 1979   1.195   0.295   4.655
  465SOL    HW2 1980   1.343   0.291   4.724
  466SOL     OW 1981   1.576   1.662   4.031
  466SOL    HW1 1982   1.665   1.708   4.034
  466SOL    HW2 1983   1.555   1.638   3.936
  467SOL     OW 1984   0.807   0.605   5.189
  467SOL    HW1 1985   0.760   0.602   5.278
  467SOL    HW2 1986   0.756   0.550   5.123
  468SOL     OW 1987   1.394   0.469   5.398
  468SOL    HW1 1988   1.374   0.512   5.486
  468SOL    HW2 1989   1.472   0.407   5.407
  469SOL     OW 1990   0.973   0.890   5.296
  469SOL    HW1 1991   1.019   0.806   5.267
  469SOL    HW2 1992   0.917   0.924   5.221
  470SOL     OW 1993   0.991   0.410   4.966
  470SOL    HW1 1994   0.914   0.444   5.020
  470SOL    HW2 1995   0.957   0.359   4.887
  471SOL     OW 1996   1.041   0.701   4.153
  471SOL    HW1 1997   1.067   0.697   4.249
  471SOL    HW2 1998   0.956   0.650   4.139
  472SOL     OW 1999   0.076   0.811   4.513
  472SOL    HW1 2000   0.175   0.799   4.522
  472SOL    HW2 2001   0.052   0.906   4.534
  473SOL     OW 2002   0.130   1.821   5.295
  473SOL    HW1 2003   0.120   1.806   5.394
  473SOL    HW2 2004   0.044   1.857   5.259
  474SOL     OW 2005   0.865   0.348   3.919
  474SOL    HW1 2006   0.924   0.411   3.870
  474SOL    HW2 2007   0.884   0.254   3.890
  475SOL     OW 2008   1.719   0.585   5.555
  475SOL    HW1 2009   1.693   0.674   5.519
  475SOL    HW2 2010   1.717   0.517   5.482
  476SOL     OW 2011   1.362   1.144   4.269
  476SOL    HW1 2012   1.445   1.115   4.221
  476SOL    HW2 2013   1.313   1.211   4.213
  477SOL     OW 2014   0.550   0.196   4.609
  477SOL    HW1 2015   0.545   0.191   4.709
  477SOL    HW2 2016   0.552   0.292   4.580
  478SOL     OW 2017   1.008   1.456   4.201
  478SOL    HW1 2018   0.962   1.528   4.149
  478SOL    HW2 2019   1.004   1.476   4.299
  479SOL     OW 2020   0.351   1.801   4.577
  479SOL    HW1 2021   0.401   1.715   4.583
  479SOL    HW2 2022   0.416   1.878   4.574
  480SOL     OW 2023   1.795   1.066   4.597
  480SOL    HW1 2024   1.733   1.051   4.521
  480SOL    HW2 2025   1.743   1.077   4.682
  481SOL     OW 2026   1.227   1.550   5.230
  481SOL    HW1 2027   1.233   1.473   5.294
  481SOL    HW2 2028   1.175   1.524   5.150
  482SOL     OW 2029   0.321   0.943   3.966
  482SOL    HW1 2030   0.403   0.982   3.924
  482SOL    HW2 2031   0.294   0.861   3.917
  483SOL     OW 2032   1.458   0.735   4.452
  483SOL    HW1 2033   1.453   0.670   4.527
  483SOL    HW2 2034   1.538   0.794   4.465
  484SOL     OW 2035   0.461   1.266   5.451
  484SOL    HW1 2036   0.411   1.267   5.365
  484SOL    HW2 2037   0.398   1.248   5.527
  485SOL     OW 2038   1.111   1.776   3.961
  485SOL    HW1 2039   1.051   1.714   4.011
  485SOL    HW2 2040   1.142   1.732   3.876
  486SOL     OW 2041   0.202   0.285   5.222
  486SOL    HW1 2042   0.122   0.345   5.209
  486SOL    HW2 2043   0.192   0.236   5.308
  487SOL     OW 2044   1.632   1.377   3.805
  487SOL    HW1 2045   1.600   1.471   3.795
  487SOL    HW2 2046   1.556   1.314   3.793
  488SOL     OW 2047   0.464   1.743   4.047
  488SOL    HW1 2048   0.497   1.782   4.133
  488SOL    HW2 2049   0.540   1.736   3.982
  489SOL     OW 2050   1.400   0.107   4.150
  489SOL    HW1 2051   1.376   0.070   4.060
  489SOL    HW2 2052   1.499   0.123   4.154
  490SOL     OW 2053   0.249   1.785   4.965
  490SOL    HW1 2054   0.306   1.720   5.015
  490SOL    HW2 2055   0.233   1.752   4.872
  491SOL     OW 2056   0.940   1.698   4.628
  491SOL    HW1 2057   1.020   1.641   4.649
  491SOL    HW2 2058   0.891   1.658   4.551
  492SOL     OW 2059   0.382   0.700   4.204
  492SOL    HW1 2060   0.427   0.610   4.201
  492SOL    HW2 2061   0.288   0.689   4.237
  493SOL     OW 2062   1.547   0.222   5.453
  493SOL    HW1 2063   1.542   0.259   5.545
  493SOL    HW2 2064   1.475   0.153   5.441
  494SOL     OW 2065   0.614   0.122   3.841
  494SOL    HW1 2066   0.712   0.100   3.848
  494SOL    HW2 2067   0.583   0.105   3.748
  495SOL     OW 2068   0.781   0.264   5.473
  495SOL    HW1 2069   0.848   0.203   5.516
  495SOL    HW2 2070   0.708   0.283   5.538
  496SOL     OW 2071   0.888   1.514   4.919
  496SOL    HW1 2072   0.865   1.489   4.825
  496SOL    HW2 2073   0.949   1.445   4.958
  497SOL     OW 2074   1.351   0.590   5.157
  497SOL    HW1 2075   1.379   0.547   5.242
  497SOL    HW2 2076   1.376   0.686   5.158
  498SOL     OW 2077   0.803   1.402   4.648
  498SOL    HW1 2078   0.893   1.416   4.606
  498SOL    HW2 2079   0.732   1.404   4.577
  499SOL     OW 2080   0.922   0.503   4.623
  499SOL    HW1 2081   0.897   0.494   4.527
  499SOL    HW2 2082   0.970   0.421   4.654
  500SOL     OW 2083   0.539   0.064   4.236
  500SOL    HW1 2084   0.458   0.065   4.294
  500SOL    HW2 2085   0.542   0.147   4.181
  501SOL     OW 2086   1.434   1.188   3.765
  501SOL    HW1 2087   1.466   1.112   3.822
  501SOL    HW2 2088   1.342   1.215   3.795
  502SOL     OW 2089   0.297   0.035   3.895
  502SOL    HW1 2090   0.346   0.119   3.874
  502SOL    HW2 2091   0.359  -0.030   3.940
  503SOL     OW 2092   0.935   0.236   4.204
  503SOL    HW1 2093   0.887   0.277   4.126
  503SOL    HW2 2094   1.034   0.234   4.185
  504SOL     OW 2095   1.076   0.683   5.188
  504SOL    HW1 2096   0.996   0.622   5.191
  504SOL    HW2 2097   1.157   0.630   5.164
  505SOL     OW 2098   1.227   1.570   4.517
  505SOL    HW1 2099   1.248   1.644   4.452
  505SOL    HW2 2100   1.295   1.570   4.590
  506SOL     OW 2101   0.459   1.152   4.465
  506SOL    HW1 2102   0.388   1.125   4.530
  506SOL    HW2 2103   0.433   1.124   4.372
  507SOL     OW 2104   1.271   1.797   4.315
  507SOL    HW1 2105   1.315   1.861   4.251
  507SOL    HW2 2106   1.221   1.849   4.385
  508SOL     OW 2107   1.032   0.549   3.740
  508SOL    HW1 2108   0.991   0.631   3.701
  508SOL    HW2 2109   1.096   0.575   3.813
  509SOL     OW 2110   0.078   0.556   5.110
  509SOL    HW1 2111   0.170   0.555   5.069
  509SOL    HW2 2112   0.072   0.630   5.177
  510SOL     OW 2113   0.561   0.222   4.871
  510SOL    HW1 2114   0.599   0.138   4.908
  510SOL    HW2 2115   0.473   0.241   4.915
  511SOL     OW 2116   0.866   0.454   4.366
  511SOL    HW1 2117   0.834   0.526   4.304
  511SOL    HW2 2118   0.890   0.373   4.313
  512SOL     OW 2119   1.017   0.039   4.477
  512SOL    HW1 2120   0.945   0.044   4.408
  512SOL    HW2 2121   0.993  -0.030   4.546
  513SOL     OW 2122   1.429   1.173   4.591
  513SOL    HW1 2123   1.374   1.089   4.584
  513SOL    HW2 2124   1.455   1.202   4.499
  514SOL     OW 2125   1.466   0.590   4.716
  514SOL    HW1 2126   1.436   0.495   4.723
  514SOL    HW2 2127   1.539   0.606   4.782
  515SOL     OW 2128   1.857   0.833   4.101
  515SOL    HW1 2129   1.899   0.769   4.165
  515SOL    HW2 2130   1.819   0.782   4.023
  516SOL     OW 2131   0.488   1.385   3.898
  516SOL    HW1 2132   0.401   1.370   3.945
  516SOL    HW2 2133   0.471   1.411   3.803
  517SOL     OW 2134   1.664   1.280   4.381
  517SOL    HW1 2135   1.763   1.288   4.395
  517SOL    HW2 2136   1.619   1.364   4.412
  518SOL     OW 2137   1.390   0.575   3.802
  518SOL    HW1 2138   1.336   0.554   3.883
  518SOL    HW2 2139   1.481   0.534   3.811
  519SOL     OW 2140   0.527   0.256   4.052
  519SOL    HW1 2141   0.554   0.197   3.977
  519SOL    HW2 2142   0.527   0.351   4.021
  520SOL     OW 2143   1.754   1.223   5.312
  520SOL    HW1 2144   1.845   1.184   5.299
  520SOL    HW2 2145   1.762   1.319   5.336
  521SOL     OW 2146   1.064   1.347   5.064
  521SOL    HW1 2147   0.984   1.324   5.119
  521SOL    HW2 2148   1.147   1.321   5.113
  522SOL     OW 2149   1.592   1.629   5.349
  522SOL    HW1 2150   1.619   1.663   5.259
  522SOL    HW2 2151   1.671   1.591   5.395
  523SOL     OW 2152   1.111   1.195   4.824
  523SOL    HW1 2153   1.071   1.239   4.905
  523SOL    HW2 2154   1.070   1.232   4.741
  524SOL     OW 2155   1.638   1.099   4.803
  524SOL    HW1 2156   1.643   1.180   4.862
  524SOL    HW2 2157   1.552   1.101   4.752
  525SOL     OW 2158   0.915   0.089   5.126
  525SOL    HW1 2159   0.940   0.069   5.031
  525SOL    HW2 2160   0.987   0.145   5.168
  526SOL     OW 2161   0.980   1.116   5.443
  526SOL    HW1 2162   0.881   1.122   5.453
  526SOL    HW2 2163   1.003   1.036   5.387
  527SOL     OW 2164   0.705   1.050   4.092
  527SOL    HW1 2165   0.691   1.057   4.191
  527SOL    HW2 2166   0.789   0.999   4.074
  528SOL     OW 2167   0.410   0.813   4.975
  528SOL    HW1 2168   0.496   0.825   5.025
  528SOL    HW2 2169   0.368   0.726   5.002
  529SOL     OW 2170   1.274   0.386   4.986
  529SOL    HW1 2171   1.295   0.460   5.050
  529SOL    HW2 2172   1.185   0.403   4.943
  530SOL     OW 2173   0.064   1.564   5.055
  530SOL    HW1 2174   0.018   1.646   5.021
  530SOL    HW2 2175   0.162   1.583   5.064
  531SOL     OW 2176   0.367   1.100   4.225
  531SOL    HW1 2177   0.360   1.183   4.169
  531SOL    HW2 2178   0.371   1.020   4.165
  532SOL     OW 2179   0.566   0.537   4.589
  532SOL    HW1 2180   0.578   0.603   4.515
  532SOL    HW2 2181   0.612   0.571   4.672
  533SOL     OW 2182   1.252   1.348   4.112
  533SOL    HW1 2183   1.302   1.425   4.152
  533SOL    HW2 2184   1.157   1.350   4.144
  534SOL     OW 2185   1.272   1.445   4.866
  534SOL    HW1 2186   1.319   1.458   4.953
  534SOL    HW2 2187   1.206   1.371   4.875
  535SOL     OW 2188   1.582   0.639   4.196
  535SOL    HW1 2189   1.551   0.700   4.269
  535SOL    HW2 2190   1.632   0.691   4.127
  536SOL     OW 2191   0.354   1.510   5.053
  536SOL    HW1 2192   0.333   1.466   4.966
  536SOL    HW2 2193   0.451   1.536   5.056
  537SOL     OW 2194   0.402   0.751   5.322
  537SOL    HW1 2195   0.470   0.806   5.275
  537SOL    HW2 2196   0.442   0.663   5.349
  538SOL     OW 2197   1.587   0.779   5.394
  538SOL    HW1 2198   1.495   0.817   5.389
  538SOL    HW2 2199   1.647   0.826   5.329
  539SOL     OW 2200   1.013   0.105   5.494
  539SOL    HW1 2201   1.019   0.190   5.442
  539SOL    HW2 2202   1.045   0.029   5.437
  540SOL     OW 2203   0.504   0.050   5.464
  540SOL    HW1 2204   0.462  -0.007   5.394
  540SOL    HW2 2205   0.438   0.119   5.496
  541SOL     OW 2206   0.573   0.870   4.753
  541SOL    HW1 2207   0.617   0.959   4.744
  541SOL    HW2 2208   0.510   0.870   4.830
  542SOL     OW 2209   1.360   0.862   4.769
  542SOL    HW1 2210   1.285   0.862   4.703
  542SOL    HW2 2211   1.397   0.770   4.778
  543SOL     OW 2212   1.209   0.525   3.999
  543SOL    HW1 2213   1.222   0.441   4.053
  543SOL    HW2 2214   1.180   0.599   4.059
  544SOL     OW 2215   0.307   0.213   4.955
  544SOL    HW1 2216   0.284   0.250   5.045
  544SOL    HW2 2217   0.277   0.118   4.949
  545SOL     OW 2218   0.037   1.310   5.006
  545SOL    HW1 2219   0.090   1.261   5.074
  545SOL    HW2 2220   0.059   1.408   5.011
  546SOL     OW 2221   0.732   0.634   4.788
  546SOL    HW1 2222   0.791   0.608   4.712
  546SOL    HW2 2223   0.704   0.730   4.777
  547SOL     OW 2224   1.728   0.935   5.578
  547SOL    HW1 2225   1.682   0.928   5.489
  547SOL    HW2 2226   1.666   0.979   5.644
  548SOL     OW 2227   0.307   0.063   4.342
  548SOL    HW1 2228   0.296   0.157   4.375
  548SOL    HW2 2229   0.302   0.000   4.419
  549SOL     OW 2230   1.622   0.367   4.098
  549SOL    HW1 2231   1.624   0.291   4.162
  549SOL    HW2 2232   1.574   0.444   4.138
  550SOL     OW 2233   1.023   0.766   4.690
  550SOL    HW1 2234   1.038   0.787   4.786
  550SOL    HW2 2235   0.993   0.671   4.681
  551SOL     OW 2236   0.980   1.573   5.424
  551SOL    HW1 2237   0.960   1.617   5.336
  551SOL    HW2 2238   1.019   1.482   5.408
  552SOL     OW 2239   1.859   1.518   5.329
  552SOL    HW1 2240   1.873   1.545   5.234
  552SOL    HW2 2241   1.942   1.540   5.382
  553SOL     OW 2242   0.350   0.898   5.528
  553SOL    HW1 2243   0.426   0.942   5.576
  553SOL    HW2 2244   0.385   0.851   5.446
  554SOL     OW 2245   1.540   0.274   3.849
  554SOL    HW1 2246   1.479   0.199   3.872
  554SOL    HW2 2247   1.562   0.326   3.932
  555SOL     OW 2248   1.303   0.838   3.766
  555SOL    HW1 2249   1.337   0.745   3.781
  555SOL    HW2 2250   1.321   0.865   3.671
  556SOL     OW 2251   1.068   1.333   4.573
  556SOL    HW1 2252   1.075   1.249   4.518
  556SOL    HW2 2253   1.130   1.402   4.537
  557SOL     OW 2254   0.319   0.810   4.673
  557SOL    HW1 2255   0.412   0.846   4.678
  557SOL    HW2 2256   0.313   0.725   4.725
  558SOL     OW 2257   0.339   0.509   4.730
  558SOL    HW1 2258   0.287   0.426   4.713
  558SOL    HW2 2259   0.416   0.514   4.666
  559SOL     OW 2260   1.138   0.380   5.402
  559SOL    HW1 2261   1.093   0.443   5.466
  559SOL    HW2 2262   1.231   0.411   5.385
  560SOL     OW 2263   1.160   0.207   5.201
  560SOL    HW1 2264   1.160   0.271   5.278
  560SOL    HW2 2265   1.188   0.255   5.118
  561SOL     OW 2266   0.008   1.326   3.924
  561SOL    HW1 2267  -0.085   1.347   3.893
  561SOL    HW2 2268   0.018   1.227   3.937
  562SOL     OW 2269   0.088   1.801   4.651
  562SOL    HW1 2270   0.046   1.715   4.624
  562SOL    HW2 2271   0.182   1.804   4.617
  563SOL     OW 2272   0.504   1.568   4.634
  563SOL    HW1 2273   0.570   1.642   4.643
  563SOL    HW2 2274   0.548   1.489   4.592
  564SOL     OW 2275   1.002   0.796   4.962
  564SOL    HW1 2276   1.043   0.764   5.048
  564SOL    HW2 2277   0.906   0.769   4.959
  565SOL     OW 2278   0.040   0.544   4.838
  565SOL    HW1 2279   0.125   0.511   4.797
  565SOL    HW2 2280   0.053   0.559   4.936
  566SOL     OW 2281   0.189   0.520   5.446
  566SOL    HW1 2282   0.248   0.480   5.376
  566SOL    HW2 2283   0.131   0.591   5.405
  567SOL     OW 2284   1.369   0.950   5.384
  567SOL    HW1 2285   1.408   1.039   5.404
  567SOL    HW2 2286   1.379   0.930   5.287
  568SOL     OW 2287   0.815   0.572   4.049
  568SOL    HW1 2288   0.822   0.483   4.003
  568SOL    HW2 2289   0.721   0.606   4.041
  569SOL     OW 2290   1.657   0.604   4.930
  569SOL    HW1 2291   1.619   0.535   4.992
  569SOL    HW2 2292   1.739   0.568   4.886
  570SOL     OW 2293   0.252   1.564   5.468
  570SOL    HW1 2294   0.222   1.621   5.544
  570SOL    HW2 2295   0.245   1.467   5.494
  571SOL     OW 2296   0.671   0.464   4.993
  571SOL    HW1 2297   0.637   0.375   4.963
  571SOL    HW2 2298   0.697   0.518   4.913
  572SOL     OW 2299   0.930   1.678   5.189
  572SOL    HW1 2300   0.906   1.660   5.094
  572SOL    HW2 2301   0.960   1.772   5.199
  573SOL     OW 2302   0.473   0.500   3.915
  573SOL    HW1 2303   0.534   0.580   3.919
  573SOL    HW2 2304   0.378   0.531   3.922
  574SOL     OW 2305   0.159   1.137   5.190
  574SOL    HW1 2306   0.181   1.076   5.266
  574SOL    HW2 2307   0.169   1.088   5.104
  575SOL     OW 2308   1.347   1.059   4.958
  575SOL    HW1 2309   1.371   0.996   4.884
  575SOL    HW2 2310   1.257   1.099   4.940
  576SOL     OW 2311   1.302   0.855   4.033
  576SOL    HW1 2312   1.216   0.824   4.075
  576SOL    HW2 2313   1.298   0.841   3.934
  577SOL     OW 2314   1.759   1.747   4.878
  577SOL    HW1 2315   1.820   1.777   4.805
  577SOL    HW2 2316   1.721   1.658   4.856
  578SOL     OW 2317   1.252   1.731   4.852
  578SOL    HW1 2318   1.336   1.736   4.798
  578SOL    HW2 2319   1.229   1.635   4.870
  579SOL     OW 2320   0.083   1.258   4.746
  579SOL    HW1 2321   0.078   1.257   4.846
  579SOL    HW2 2322   0.000   1.217   4.708
  580SOL     OW 2323   0.688   1.662   5.440
  580SOL    HW1 2324   0.632   1.743   5.449
  580SOL    HW2 2325   0.740   1.666   5.354
  581SOL     OW 2326   1.726   0.135   4.247
  581SOL    HW1 2327   1.799   0.118   4.180
  581SOL    HW2 2328   1.695   0.048   4.285
  582SOL     OW 2329   1.388   1.573   4.201
  582SOL    HW1 2330   1.455   1.585   4.127
  582SOL    HW2 2331   1.348   1.662   4.224
  583SOL     OW 2332   0.130   1.794   5.575
  583SOL    HW1 2333   0.089   1.720   5.628
  583SOL    HW2 2334   0.194   1.845   5.633
  584SOL     OW 2335   1.280   0.927   4.396
  584SOL    HW1 2336   1.340   0.846   4.398
  584SOL    HW2 2337   1.320   0.996   4.336
  585SOL     OW 2338   0.830   1.273   5.146
  585SOL    HW1 2339   0.825   1.306   5.241
  585SOL    HW2 2340   0.744   1.292   5.100
  586SOL     OW 2341   0.672   1.616   3.878
  586SOL    HW1 2342   0.681   1.626   3.779
  586SOL    HW2 2343   0.632   1.527   3.899
  587SOL     OW 2344   1.650   1.720   5.118
  587SOL    HW1 2345   1.703   1.730   5.034
  587SOL    HW2 2346   1.623   1.810   5.152
  588SOL     OW 2347   1.841   0.175   4.687
  588SOL    HW1 2348   1.880   0.090   4.651
  588SOL    HW2 2349   1.743   0.177   4.668
  589SOL     OW 2350   0.263   0.326   4.444
  589SOL    HW1 2351   0.184   0.377   4.410
  589SOL    HW2 2352   0.254   0.311   4.542
  590SOL     OW 2353   1.194   1.612   3.755
  590SOL    HW1 2354   1.200   1.519   3.792
  590SOL    HW2 2355   1.135   1.612   3.675
  591SOL     OW 2356   0.822   1.002   5.096
  591SOL    HW1 2357   0.862   1.001   5.004
  591SOL    HW2 2358   0.832   1.094   5.136
  592SOL     OW 2359   0.916   0.910   4.015
  592SOL    HW1 2360   0.979   0.948   3.947
  592SOL    HW2 2361   0.956   0.827   4.054
  593SOL     OW 2362   1.504   1.607   3.768
  593SOL    HW1 2363   1.412   1.644   3.775
  593SOL    HW2 2364   1.542   1.627   3.678
  594SOL     OW 2365   0.372   1.288   5.214
  594SOL    HW1 2366   0.359   1.381   5.180
  594SOL    HW2 2367   0.288   1.236   5.201
  595SOL     OW 2368   1.614   1.292   5.013
  595SOL    HW1 2369   1.674   1.295   5.093
  595SOL    HW2 2370   1.539   1.356   5.026
  596SOL     OW 2371   1.039   1.098   4.420
  596SOL    HW1 2372   0.969   1.051   4.474
  596SOL    HW2 2373   1.098   1.030   4.377
  597SOL     OW 2374   1.014   0.236   4.695
  597SOL    HW1 2375   1.006   0.200   4.602
  597SOL    HW2 2376   1.012   0.160   4.760
  598SOL     OW 2377   0.590   1.487   4.215
  598SOL    HW1 2378   0.632   1.429   4.145
  598SOL    HW2 2379   0.546   1.566   4.171
  599SOL     OW 2380   1.709   0.385   5.105
  599SOL    HW1 2381   1.782   0.454   5.109
  599SOL    HW2 2382   1.737   0.310   5.046
  600SOL     OW 2383   0.255   1.348   4.014
  600SOL    HW1 2384   0.159   1.349   3.987
  600SOL    HW2 2385   0.267   1.401   4.098
  601SOL     OW 2386   0.105   1.013   5.450
  601SOL    HW1 2387   0.028   0.980   5.504
  601SOL    HW2 2388   0.190   0.983   5.492
  602SOL     OW 2389   0.672   0.203   5.213
  602SOL    HW1 2390   0.762   0.187   5.173
  602SOL    HW2 2391   0.680   0.208   5.312
  603SOL     OW 2392   0.075   0.345   3.757
  603SOL    HW1 2393  -0.017   0.317   3.728
  603SOL    HW2 2394   0.106   0.422   3.701
  604SOL     OW 2395   1.440   0.856   5.122
  604SOL    HW1 2396   1.383   0.908   5.059
  604SOL    HW2 2397   1.536   0.868   5.098
  605SOL     OW 2398   0.072   0.166   4.042
  605SOL    HW1 2399   0.055   0.249   3.988
  605SOL    HW2 2400   0.162   0.129   4.020
  606SOL     OW 2401   1.183   1.335   3.843
  606SOL    HW1 2402   1.084   1.324   3.845
  606SOL    HW2 2403   1.217   1.350   3.936
  607SOL     OW 2404   0.613   0.842   5.155
  607SOL    HW1 2405   0.669   0.923   5.138
  607SOL    HW2 2406   0.672   0.762   5.158
  608SOL     OW 2407   1.493   1.767   4.683
  608SOL    HW1 2408   1.526   1.831   4.614
  608SOL    HW2 2409   1.559   1.761   4.758
  609SOL     OW 2410   0.716   0.565   5.432
  609SOL    HW1 2411   0.735   0.630   5.506
  609SOL    HW2 2412   0.776   0.485   5.441
  610SOL     OW 2413   1.450   1.220   5.357
  610SOL    HW1 2414   1.441   1.210   5.456
  610SOL    HW2 2415   1.546   1.213   5.331
  611SOL     OW 2416   0.390   1.741   5.284
  611SOL    HW1 2417   0.299   1.782   5.282
  611SOL    HW2 2418   0.383   1.647   5.316
  612SOL     OW 2419   1.674   0.883   4.978
  612SOL    HW1 2420   1.647   0.794   4.941
  612SOL    HW2 2421   1.675   0.951   4.905
  613SOL     OW 2422   1.225   0.325   4.173
  613SOL    HW1 2423   1.290   0.251   4.162
  613SOL    HW2 2424   1.245   0.375   4.257
  614SOL     OW 2425   0.594   0.745   4.376
  614SOL    HW1 2426   0.644   0.830   4.357
  614SOL    HW2 2427   0.506   0.747   4.328
  615SOL     OW 2428   1.777   0.342   5.366
  615SOL    HW1 2429   1.760   0.373   5.272
  615SOL    HW2 2430   1.693   0.305   5.404
  616SOL     OW 2431   1.730   0.934   5.241
  616SOL    HW1 2432   1.768   1.025   5.256
  616SOL    HW2 2433   1.722   0.917   5.142
  617SOL     OW 2434   0.859   1.374   3.740
  617SOL    HW1 2435   0.813   1.389   3.828
  617SOL    HW2 2436   0.903   1.459   3.710
  618SOL     OW 2437   0.661   1.790   4.677
  618SOL    HW1 2438   0.615   1.878   4.664
  618SOL    HW2 2439   0.760   1.802   4.670
  619SOL     OW 2440   0.859   0.956   4.585
  619SOL    HW1 2441   0.913   0.887   4.633
  619SOL    HW2 2442   0.827   1.025   4.651
  620SOL     OW 2443   1.083   0.984   3.811
  620SOL    HW1 2444   1.060   1.037   3.729
  620SOL    HW2 2445   1.164   0.928   3.792
  621SOL     OW 2446   1.861   1.569   4.575
  621SOL    HW1 2447   1.790   1.557   4.505
  621SOL    HW2 2448   1.862   1.490   4.635
  622SOL     OW 2449   0.221   1.314   5.568
  622SOL    HW1 2450   0.156   1.241   5.547
  622SOL    HW2 2451   0.225   1.328   5.666
  623SOL     OW 2452   0.079   1.240   4.377
  623SOL    HW1 2453   0.078   1.193   4.465
  623SOL    HW2 2454   0.161   1.212   4.326
  624SOL     OW 2455   0.672   1.391   5.348
  624SOL    HW1 2456   0.594   1.341   5.386
  624SOL    HW2 2457   0.669   1.486   5.379
  625SOL     OW 2458   1.824   0.192   4.951
  625SOL    HW1 2459   1.820   0.102   4.995
  625SOL    HW2 2460   1.827   0.181   4.852
  626SOL     OW 2461   0.428   0.424   4.244
  626SOL    HW1 2462   0.458   0.352   4.182
  626SOL    HW2 2463   0.389   0.384   4.327
  627SOL     OW 2464   1.705   1.487   4.828
  627SOL    HW1 2465   1.612   1.462   4.801
  627SOL    HW2 2466   1.731   1.437   4.910
  628SOL     OW 2467   0.317   0.547   5.004
  628SOL    HW1 2468   0.355   0.488   5.076
  628SOL    HW2 2469   0.357   0.521   4.916
  629SOL     OW 2470   0.812   1.586   4.411
  629SOL    HW1 2471   0.844   1.596   4.317
  629SOL    HW2 2472   0.733   1.524   4.413
  630SOL     OW 2473   1.424   0.214   4.836
  630SOL    HW1 2474   1.476   0.149   4.891
  630SOL    HW2 2475   1.375   0.277   4.897
  631SOL     OW 2476   1.001   0.034   4.878
  631SOL    HW1 2477   0.938  -0.038   4.847
  631SOL    HW2 2478   1.094  -0.002   4.878
  632SOL     OW 2479   0.770   1.330   4.025
  632SOL    HW1 2480   0.724   1.243   4.042
  632SOL    HW2 2481   0.861   1.327   4.066
  633SOL     OW 2482   0.618   1.567   5.008
  633SOL    HW1 2483   0.613   1.649   5.065
  633SOL    HW2 2484   0.707   1.564   4.963
  634SOL     OW 2485   1.352   0.052   3.892
  634SOL    HW1 2486   1.387   0.011   3.808
  634SOL    HW2 2487   1.262   0.014   3.912
  635SOL     OW 2488   1.300   0.453   4.415
  635SOL    HW1 2489   1.241   0.533   4.419
  635SOL    HW2 2490   1.315   0.418   4.508
  636SOL     OW 2491   1.593   0.221   4.606
  636SOL    HW1 2492   1.509   0.220   4.660
  636SOL    HW2 2493   1.595   0.304   4.550
  637SOL     OW 2494   0.039   1.077   4.024
  637SOL    HW1 2495   0.138   1.066   4.015
  637SOL    HW2 2496  -0.001   0.991   4.056
  638SOL     OW 2497   0.875   1.646   4.061
  638SOL    HW1 2498   0.798   1.611   4.007
  638SOL    HW2 2499   0.843   1.717   4.123
  639SOL     OW 2500   0.230   0.628   5.699
  639SOL    HW1 2501   0.137   0.626   5.736
  639SOL    HW2 2502   0.231   0.589   5.607
  640SOL     OW 2503   0.225   0.275   6.582
  640SOL    HW1 2504   0.260   0.258   6.674
  640SOL    HW2 2505   0.137   0.230   6.570
  641SOL     OW 2506   0.019   0.368   6.233
  641SOL    HW1 2507  -0.063   0.411   6.272
  641SOL    HW2 2508  -0.009   0.295   6.170
  642SOL     OW 2509   0.569   1.275   6.751
  642SOL    HW1 2510   0.476   1.268   6.714
  642SOL    HW2 2511   0.580   1.364   6.795
  643SOL     OW 2512   1.555   1.511   6.289
  643SOL    HW1 2513   1.498   1.495   6.370
  643SOL    HW2 2514   1.496   1.521   6.209
  644SOL     OW 2515   1.135   0.703   6.303
  644SOL    HW1 2516   1.192   0.781   6.278
  644SOL    HW2 2517   1.075   0.729   6.379
  645SOL     OW 2518   1.755   0.607   5.817
  645SOL    HW1 2519   1.743   0.594   5.718
  645SOL    HW2 2520   1.725   0.526   5.866
  646SOL     OW 2521   0.768   1.144   6.609
  646SOL    HW1 2522   0.690   1.161   6.669
  646SOL    HW2 2523   0.802   1.231   6.573
  647SOL     OW 2524   0.850   0.798   7.409
  647SOL    HW1 2525   0.846   0.874   7.474
  647SOL    HW2 2526   0.872   0.834   7.318
  648SOL     OW 2527   0.685   1.012   6.251
  648SOL    HW1 2528   0.754   0.996   6.321
  648SOL    HW2 2529   0.612   1.069   6.289
  649SOL     OW 2530   0.686   1.161   7.389
  649SOL    HW1 2531   0.746   1.240   7.403
  649SOL    HW2 2532   0.600   1.192   7.348
  650SOL     OW 2533   0.335   1.435   6.647
  650SOL    HW1 2534   0.257   1.404   6.594
  650SOL    HW2 2535   0.393   1.493   6.590
  651SOL     OW 2536   1.460   1.505   6.925
  651SOL    HW1 2537   1.484   1.599   6.951
  651SOL    HW2 2538   1.444   1.451   7.007
  652SOL     OW 2539   0.438   0.392   7.085
  652SOL    HW1 2540   0.520   0.336   7.094
  652SOL    HW2 2541   0.357   0.334   7.089
  653SOL     OW 2542   1.603   0.447   6.323
  653SOL    HW1 2543   1.529   0.493   6.273
  653SOL    HW2 2544   1.654   0.515   6.376
  654SOL     OW 2545   0.231   1.713   6.069
  654SOL    HW1 2546   0.265   1.790   6.123
  654SOL    HW2 2547   0.275   1.713   5.979
  655SOL     OW 2548   1.127   1.341   7.276
  655SOL    HW1 2549   1.174   1.341   7.364
  655SOL    HW2 2550   1.079   1.254   7.265
  656SOL     OW 2551   0.230   1.434   6.124
  656SOL    HW1 2552   0.204   1.530   6.124
  656SOL    HW2 2553   0.159   1.380   6.169
  657SOL     OW 2554   0.240   1.091   6.472
  657SOL    HW1 2555   0.254   1.007   6.524
  657SOL    HW2 2556   0.185   1.155   6.527
  658SOL     OW 2557   0.620   1.786   7.025
  658SOL    HW1 2558   0.528   1.769   7.060
  658SOL    HW2 2559   0.648   1.878   7.051
  659SOL     OW 2560   0.606   0.964   5.709
  659SOL    HW1 2561   0.613   1.048   5.655
  659SOL    HW2 2562   0.652   0.977   5.797
  660SOL     OW 2563   1.594   0.114   7.066
  660SOL    HW1 2564   1.576   0.181   6.994
  660SOL    HW2 2565   1.591   0.160   7.155
  661SOL     OW 2566   0.122   0.643   6.149
  661SOL    HW1 2567   0.077   0.555   6.166
  661SOL    HW2 2568   0.121   0.697   6.233
  662SOL     OW 2569   1.842   1.767   5.945
  662SOL    HW1 2570   1.896   1.738   6.025
  662SOL    HW2 2571   1.872   1.857   5.916
  663SOL     OW 2572   0.027   1.596   5.703
  663SOL    HW1 2573   0.008   1.500   5.724
  663SOL    HW2 2574  -0.006   1.654   5.778
  664SOL     OW 2575   1.689   0.922   6.198
  664SOL    HW1 2576   1.784   0.893   6.206
  664SOL    HW2 2577   1.681   0.987   6.123
  665SOL     OW 2578   1.641   1.108   6.018
  665SOL    HW1 2579   1.727   1.110   5.966
  665SOL    HW2 2580   1.655   1.155   6.106
  666SOL     OW 2581   0.113   0.737   7.183
  666SOL    HW1 2582   0.201   0.724   7.228
  666SOL    HW2 2583   0.100   0.834   7.161
  667SOL     OW 2584   0.613   1.365   6.312
  667SOL    HW1 2585   0.564   1.278   6.321
  667SOL    HW2 2586   0.590   1.408   6.225
  668SOL     OW 2587   1.293   1.228   7.009
  668SOL    HW1 2588   1.330   1.155   6.951
  668SOL    HW2 2589   1.345   1.233   7.094
  669SOL     OW 2590   0.809   0.004   6.088
  669SOL    HW1 2591   0.849   0.095   6.079
  669SOL    HW2 2592   0.709   0.012   6.094
  670SOL     OW 2593   0.197   0.976   6.850
  670SOL    HW1 2594   0.286   0.931   6.836
  670SOL    HW2 2595   0.124   0.911   6.831
  671SOL     OW 2596   1.525   0.999   5.776
  671SOL    HW1 2597   1.462   0.923   5.789
  671SOL    HW2 2598   1.573   1.017   5.862
  672SOL     OW 2599   1.187   1.792   7.202
  672SOL    HW1 2600   1.211   1.852   7.126
  672SOL    HW2 2601   1.194   1.697   7.172
  673SOL     OW 2602   0.317   0.251   7.387
  673SOL    HW1 2603   0.388   0.322   7.393
  673SOL    HW2 2604   0.229   0.290   7.415
  674SOL     OW 2605   1.466   1.417   6.539
  674SOL    HW1 2606   1.407   1.423   6.619
  674SOL    HW2 2607   1.451   1.329   6.493
  675SOL     OW 2608   1.667   1.714   6.158
  675SOL    HW1 2609   1.626   1.691   6.070
  675SOL    HW2 2610   1.649   1.640   6.223
  676SOL     OW 2611   0.598   0.729   5.856
  676SOL    HW1 2612   0.622   0.798   5.788
  676SOL    HW2 2613   0.520   0.762   5.910
  677SOL     OW 2614   1.281   0.345   6.530
  677SOL    HW1 2615   1.195   0.295   6.517
  677SOL    HW2 2616   1.343   0.291   6.586
  678SOL     OW 2617   1.576   1.662   5.893
  678SOL    HW1 2618   1.665   1.708   5.896
  678SOL    HW2 2619   1.555   1.638   5.798
  679SOL     OW 2620   0.807   0.605   7.051
  679SOL    HW1 2621   0.760   0.602   7.140
  679SOL    HW2 2622   0.756   0.550   6.985
  680SOL     OW 2623   1.394   0.469   7.260
  680SOL    HW1 2624   1.374   0.512   7.348
  680SOL    HW2 2625   1.472   0.407   7.269
  681SOL     OW 2626   0.973   0.890   7.158
  681SOL    HW1 2627   1.019   0.806   7.129
  681SOL    HW2 2628   0.917   0.924   7.083
  682SOL     OW 2629   0.991   0.410   6.828
  682SOL    HW1 2630   0.914   0.444   6.882
  682SOL    HW2 2631   0.957   0.359   6.749
  683SOL     OW 2632   1.041   0.701   6.015
  683SOL    HW1 2633   1.067   0.697   6.111
  683SOL    HW2 2634   0.956   0.650   6.001
  684SOL     OW 2635   0.076   0.811   6.375
  684SOL    HW1 2636   0.175   0.799   6.384
  684SOL    HW2 2637   0.052   0.906   6.396
  685SOL     OW 2638   0.130   1.821   7.157
  685SOL    HW1 2639   0.120   1.806   7.256
  685SOL    HW2 2640   0.044   1.857   7.121
  686SOL     OW 2641   0.865   0.348   5.781
  686SOL    HW1 2642   0.924   0.411   5.732
  686SOL    HW2 2643   0.884   0.254   5.752
  687SOL     OW 2644   1.719   0.585   7.417
  687SOL    HW1 2645   1.693   0.674   7.381
  687SOL    HW2 2646   1.717   0.517   7.344
  688SOL     OW 2647   1.362   1.144   6.131
  688SOL    HW1 2648   1.445   1.115   6.083
  688SOL    HW2 2649   1.313   1.211   6.075
  689SOL     OW 2650   0.550   0.196   6.471
  689SOL    HW1 2651   0.545   0.191   6.571
  689SOL    HW2 2652   0.552   0.292   6.442
  690SOL     OW 2653   1.008   1.456   6.063
  690SOL    HW1 2654   0.962   1.528   6.011
  690SOL    HW2 2655   1.004   1.476   6.161
  691SOL     OW 2656   0.351   1.801   6.439
  691SOL    HW1 2657   0.401   1.715   6.445
  691SOL    HW2 2658   0.416   1.878   6.436
  692SOL     OW 2659   1.795   1.066   6.459
  692SOL    HW1 2660   1.733   1.051   6.383
  692SOL    HW2 2661   1.743   1.077   6.544
  693SOL     OW 2662   1.227   1.550   7.092
  693SOL    HW1 2663   1.233   1.473   7.156
  693SOL    HW2 2664   1.175   1.524   7.012
  694SOL     OW 2665   0.321   0.943   5.828
  694SOL    HW1 2666   0.403   0.982   5.786
  694SOL    HW2 2667   0.294   0.861   5.779
  695SOL     OW 2668   1.458   0.735   6.314
  695SOL    HW1 2669   1.453   0.670   6.389
  695SOL    HW2 2670   1.538   0.794   6.327
  696SOL     OW 2671   0.461   1.266   7.313
  696SOL    HW1 2672   0.411   1.267   7.227
  696SOL    HW2 2673   0.398   1.248   7.389
  697SOL     OW 2674   1.111   1.776   5.823
  697SOL    HW1 2675   1.051   1.714   5.873
  697SOL    HW2 2676   1.142   1.732   5.738
  698SOL     OW 2677   0.202   0.285   7.084
  698SOL    HW1 2678   0.122   0.345   7.071
  698SOL    HW2 2679   0.192   0.236   7.170
  699SOL     OW 2680   1.632   1.377   5.667
  699SOL    HW1 2681   1.600   1.471   5.657
  699SOL    HW2 2682   1.556   1.314   5.655
  700SOL     OW 2683   0.464   1.743   5.909
  700SOL    HW1 2684   0.497   1.782   5.995
  700SOL    HW2 2685   0.540   1.736   5.844
  701SOL     OW 2686   1.400   0.107   6.012
  701SOL    HW1 2687   1.376   0.070   5.922
  701SOL    HW2 2688   1.499   0.123   6.016
  702SOL     OW 2689   0.249   1.785   6.827
  702SOL    HW1 2690   0.306   1.720   6.877
  702SOL    HW2 2691   0.233   1.752   6.734
  703SOL     OW 2692   0.940   1.698   6.490
  703SOL    HW1 2693   1.020   1.641   6.511
  703SOL    HW2 2694   0.891   1.658   6.413
  704SOL     OW 2695   0.382   0.700   6.066
  704SOL    HW1 2696   0.427   0.610   6.063
  704SOL    HW2 2697   0.288   0.689   6.099
  705SOL     OW 2698   1.547   0.222   7.315
  705SOL    HW1 2699   1.542   0.259   7.407
  705SOL    HW2 2700   1.475   0.153   7.303
  706SOL     OW 2701   0.614   0.122   5.703
  706SOL    HW1 2702   0.712   0.100   5.710
  706SOL    HW2 2703   0.583   0.105   5.610
  707SOL     OW 2704   0.781   0.264   7.335
  707SOL    HW1 2705   0.848   0.203   7.378
  707SOL    HW2 2706   0.708   0.283   7.400
  708SOL     OW 2707   0.888   1.514   6.781
  708SOL    HW1 2708   0.865   1.489   6.687
  708SOL    HW2 2709   0.949   1.445   6.820
  709SOL     OW 2710   1.351   0.590   7.019
  709SOL    HW1 2711   1.379   0.547   7.104
  709SOL    HW2 2712   1.376   0.686   7.020
  710SOL     OW 2713   0.803   1.402   6.510
  710SOL    HW1 2714   0.893   1.416   6.468
  710SOL    HW2 2715   0.732   1.404   6.439
  711SOL     OW 2716   0.922   0.503   6.485
  711SOL    HW1 2717   0.897   0.494   6.389
  711SOL    HW2 2718   0.970   0.421   6.516
  712SOL     OW 2719   0.539   0.064   6.098
  712SOL    HW1 2720   0.458   0.065   6.156
  712SOL    HW2 2721   0.542   0.147   6.043
  713SOL     OW 2722   1.434   1.188   5.627
  713SOL    HW1 2723   1.466   1.112   5.684
  713SOL    HW2 2724   1.342   1.215   5.657
  714SOL     OW 2725   0.297   0.035   5.757
  714SOL    HW1 2726   0.346   0.119   5.736
  714SOL    HW2 2727   0.359  -0.030   5.802
  715SOL     OW 2728   0.935   0.236   6.066
  715SOL    HW1 2729   0.887   0.277   5.988
  715SOL    HW2 2730   1.034   0.234   6.047
  716SOL     OW 2731   1.076   0.683   7.050
  716SOL    HW1 2732   0.996   0.622   7.053
  716SOL    HW2 2733   1.157   0.630   7.026
  717SOL     OW 2734   1.227   1.570   6.379
  717SOL    HW1 2735   1.248   1.644   6.314
  717SOL    HW2 2736   1.295   1.570   6.452
  718SOL     OW 2737   0.459   1.152   6.327
  718SOL    HW1 2738   0.388   1.125   6.392
  718SOL    HW2 2739   0.433   1.124   6.234
  719SOL     OW 2740   1.271   1.797   6.177
  719SOL    HW1 2741   1.315   1.861   6.113
  719SOL    HW2 2742   1.221   1.849   6.247
  720SOL     OW 2743   1.032   0.549   5.602
  720SOL    HW1 2744   0.991   0.631   5.563
  720SOL    HW2 2745   1.096   0.575   5.675
  721SOL     OW 2746   0.078   0.556   6.972
  721SOL    HW1 2747   0.170   0.555   6.931
  721SOL    HW2 2748   0.072   0.630   7.039
  722SOL     OW 2749   0.561   0.222   6.733
  722SOL    HW1 2750   0.599   0.138   6.770
  722SOL    HW2 2751   0.473   0.241   6.777
  723SOL     OW 2752   0.866   0.454   6.228
  723SOL    HW1 2753   0.834   0.526   6.166
  723SOL    HW2 2754   0.890   0.373   6.175
  724SOL     OW 2755   1.017   0.039   6.339
  724SOL    HW1 2756   0.945   0.044   6.270
  724SOL    HW2 2757   0.993  -0.030   6.408
  725SOL     OW 2758   1.429   1.173   6.453
  725SOL    HW1 2759   1.374   1.089   6.446
  725SOL    HW2 2760   1.455   1.202   6.361
  726SOL     OW 2761   1.466   0.590   6.578
  726SOL    HW1 2762   1.436   0.495   6.585
  726SOL    HW2 2763   1.539   0.606   6.644
  727SOL     OW 2764   1.857   0.833   5.963
  727SOL    HW1 2765   1.899   0.769   6.027
  727SOL    HW2 2766   1.819   0.782   5.885
  728SOL     OW 2767   0.488   1.385   5.760
  728SOL    HW1 2768   0.401   1.370   5.807
  728SOL    HW2 2769   0.471   1.411   5.665
  729SOL     OW 2770   1.664   1.280   6.243
  729SOL    HW1 2771   1.763   1.288   6.257
  729SOL    HW2 2772   1.619   1.364   6.274
  730SOL     OW 2773   1.390   0.575   5.664
  730SOL    HW1 2774   1.336   0.554   5.745
  730SOL    HW2 2775   1.481   0.534   5.673
  731SOL     OW 2776   0.527   0.256   5.914
  731SOL    HW1 2777   0.554   0.197   5.839
  731SOL    HW2 2778   0.527   0.351   5.883
  732SOL     OW 2779   1.754   1.223   7.174
  732SOL    HW1 2780   1.845   1.184   7.161
  732SOL    HW2 2781   1.762   1.319   7.198
  733SOL     OW 2782   1.064   1.347   6.926
  733SOL    HW1 2783   0.984   1.324   6.981
  733SOL    HW2 2784   1.147   1.321   6.975
  734SOL     OW 2785   1.592   1.629   7.211
  734SOL    HW1 2786   1.619   1.663   7.121
  734SOL    HW2 2787   1.671   1.591   7.257
  735SOL     OW 2788   1.111   1.195   6.686
  735SOL    HW1 2789   1.071   1.239   6.767
  735SOL    HW2 2790   1.070   1.232   6.603
  736SOL     OW 2791   1.638   1.099   6.665
  736SOL    HW1 2792   1.643   1.180   6.724
  736SOL    HW2 2793   1.552   1.101   6.614
  737SOL     OW 2794   0.915   0.089   6.988
  737SOL    HW1 2795   0.940   0.069   6.893
  737SOL    HW2 2796   0.987   0.145   7.030
  738SOL     OW 2797   0.980   1.116   7.305
  738SOL    HW1 2798   0.881   1.122   7.315
  738SOL    HW2 2799   1.003   1.036   7.249
  739SOL     OW 2800   0.705   1.050   5.954
  739SOL    HW1 2801   0.691   1.057   6.053
  739SOL    HW2 2802   0.789   0.999   5.936
  740SOL     OW 2803   0.410   0.813   6.837
  740SOL    HW1 2804   0.496   0.825   6.887
  740SOL    HW2 2805   0.368   0.726   6.864
  741SOL     OW 2806   1.274   0.386   6.848
  741SOL    HW1 2807   1.295   0.460   6.912
  741SOL    HW2 2808   1.185   0.403   6.805
  742SOL     OW 2809   0.064   1.564   6.917
  742SOL    HW1 2810   0.018   1.646   6.883
  742SOL    HW2 2811   0.162   1.583   6.926
  743SOL     OW 2812   0.367   1.100   6.087
  743SOL    HW1 2813   0.360   1.183   6.031
  743SOL    HW2 2814   0.371   1.020   6.027
  744SOL     OW 2815   0.566   0.537   6.451
  744SOL    HW1 2816   0.578   0.603   6.377
  744SOL    HW2 2817   0.612   0.571   6.534
  745SOL     OW 2818   1.252   1.348   5.974
  745SOL    HW1 2819   1.302   1.425   6.014
  745SOL    HW2 2820   1.157   1.350   6.006
  746SOL     OW 2821   1.272   1.445   6.728
  746SOL    HW1 2822   1.319   1.458   6.815
  746SOL    HW2 2823   1.206   1.371   6.737
  747SOL     OW 2824   1.582   0.639   6.058
  747SOL    HW1 2825   1.551   0.700   6.131
  747SOL    HW2 2826   1.632   0.691   5.989
  748SOL     OW 2827   0.354   1.510   6.915
  748SOL    HW1 2828   0.333   1.466   6.828
  748SOL    HW2 2829   0.451   1.536   6.918
  749SOL     OW 2830   0.402   0.751   7.184
  749SOL    HW1 2831   0.470   0.806   7.137
  749SOL    HW2 2832   0.442   0.663   7.211
  750SOL     OW 2833   1.587   0.779   7.256
  750SOL    HW1 2834   1.495   0.817   7.251
  750SOL    HW2 2835   1.647   0.826   7.191
  751SOL     OW 2836   1.013   0.105   7.356
  751SOL    HW1 2837   1.019   0.190   7.304
  751SOL    HW2 2838   1.045   0.029   7.299
  752SOL     OW 2839   0.504   0.050   7.326
  752SOL    HW1 2840   0.462  -0.007   7.256
  752SOL    HW2 2841   0.438   0.119   7.358
  753SOL     OW 2842   0.573   0.870   6.615
  753SOL    HW1 2843   0.617   0.959   6.606
  753SOL    HW2 2844   0.510   0.870   6.692
  754SOL     OW 2845   1.360   0.862   6.631
  754SOL    HW1 2846   1.285   0.862   6.565
  754SOL    HW2 2847   1.397   0.770   6.640
  755SOL     OW 2848   1.209   0.525   5.861
  755SOL    HW1 2849   1.222   0.441   5.915
  755SOL    HW2 2850   1.180   0.599   5.921
  756SOL     OW 2851   0.307   0.213   6.817
  756SOL    HW1 2852   0.284   0.250   6.907
  756SOL    HW2 2853   0.277   0.118   6.811
  757SOL     OW 2854   0.037   1.310   6.868
  757SOL    HW1 2855   0.090   1.261   6.936
  757SOL    HW2 2856   0.059   1.408   6.873
  758SOL     OW 2857   0.732   0.634   6.650
  758SOL    HW1 2858   0.791   0.608   6.574
  758SOL    HW2 2859   0.704   0.730   6.639
  759SOL     OW 2860   1.728   0.935   7.440
  759SOL    HW1 2861   1.682   0.928   7.351
  759SOL    HW2 2862   1.666   0.979   7.506
  760SOL     OW 2863   0.307   0.063   6.204
  760SOL    HW1 2864   0.296   0.157   6.237
  760SOL    HW2 2865   0.302   0.000   6.281
  761SOL     OW 2866   1.622   0.367   5.960
  761SOL    HW1 2867   1.624   0.291   6.024
  761SOL    HW2 2868   1.574   0.444   6.000
  762SOL     OW 2869   1.023   0.766   6.552
  762SOL    HW1 2870   1.038   0.787   6.648
  762SOL    HW2 2871   0.993   0.671   6.543
  763SOL     OW 2872   0.980   1.573   7.286
  763SOL    HW1 2873   0.960   1.617   7.198
  763SOL    HW2 2874   1.019   1.482   7.270
  764SOL     OW 2875   1.859   1.518   7.191
  764SOL    HW1 2876   1.873   1.545   7.096
  764SOL    HW2 2877   1.942   1.540   7.244
  765SOL     OW 2878   0.350   0.898   7.390
  765SOL    HW1 2879   0.426   0.942   7.438
  765SOL    HW2 2880   0.385   0.851   7.308
  766SOL     OW 2881   1.540   0.274   5.711
  766SOL    HW1 2882   1.479   0.199   5.734
  766SOL    HW2 2883   1.562   0.326   5.794
  767SOL     OW 2884   1.303   0.838   5.628
  767SOL    HW1 2885   1.337   0.745   5.643
  767SOL    HW2 2886   1.321   0.865   5.533
  768SOL     OW 2887   1.068   1.333   6.435
  768SOL    HW1 2888   1.075   1.249   6.380
  768SOL    HW2 2889   1.130   1.402   6.399
  769SOL     OW 2890   0.319   0.810   6.535
  769SOL    HW1 2891   0.412   0.846   6.540
  769SOL    HW2 2892   0.313   0.725   6.587
  770SOL     OW 2893   0.339   0.509   6.592
  770SOL    HW1 2894   0.287   0.426   6.575
  770SOL    HW2 2895   0.416   0.514   6.528
  771SOL     OW 2896   1.138   0.380   7.264
  771SOL    HW1 2897   1.093   0.443   7.328
  771SOL    HW2 2898   1.231   0.411   7.247
  772SOL     OW 2899   1.160   0.207   7.063
  772SOL    HW1 2900   1.160   0.271   7.140
  772SOL    HW2 2901   1.188   0.255   6.980
  773SOL     OW 2902   0.008   1.326   5.786
  773SOL    HW1 2903  -0.085   1.347   5.755
  773SOL    HW2 2904   0.018   1.227   5.799
  774SOL     OW 2905   0.088   1.801   6.513
  774SOL    HW1 2906   0.046   1.715   6.486
  774SOL    HW2 2907   0.182   1.804   6.479
  775SOL     OW 2908   0.504   1.568   6.496
  775SOL    HW1 2909   0.570   1.642   6.505
  775SOL    HW2 2910   0.548   1.489   6.454
  776SOL     OW 2911   1.002   0.796   6.824
  776SOL    HW1 2912   1.043   0.764   6.910
  776SOL    HW2 2913   0.906   0.769   6.821
  777SOL     OW 2914   0.040   0.544   6.700
  777SOL    HW1 2915   0.125   0.511   6.659
  777SOL    HW2 2916   0.053   0.559   6.798
  778SOL     OW 2917   0.189   0.520   7.308
  778SOL    HW1 2918   0.248   0.480   7.238
  778SOL    HW2 2919   0.131   0.591   7.267
  779SOL     OW 2920   1.369   0.950   7.246
  779SOL    HW1 2921   1.408   1.039   7.266
  779SOL    HW2 2922   1.379   0.930   7.149
  780SOL     OW 2923   0.815   0.572   5.911
  780SOL    HW1 2924   0.822   0.483   5.865
  780SOL    HW2 2925   0.721   0.606   5.903
  781SOL     OW 2926   1.657   0.604   6.792
  781SOL    HW1 2927   1.619   0.535   6.854
  781SOL    HW2 2928   1.739   0.568   6.748
  782SOL     OW 2929   0.252   1.564   7.330
  782SOL    HW1 2930   0.222   1.621   7.406
  782SOL    HW2 2931   0.245   1.467   7.356
  783SOL     OW 2932   0.671   0.464   6.855
  783SOL    HW1 2933   0.637   0.375   6.825
  783SOL    HW2 2934   0.697   0.518   6.775
  784SOL     OW 2935   0.930   1.678   7.051
  784SOL    HW1 2936   0.906   1.660   6.956
  784SOL    HW2 2937   0.960   1.772   7.061
  785SOL     OW 2938   0.473   0.500   5.777
  785SOL    HW1 2939   0.534   0.580   5.781
  785SOL    HW2 2940   0.378   0.531   5.784
  786SOL     OW 2941   0.159   1.137   7.052
  786SOL    HW1 2942   0.181   1.076   7.128
  786SOL    HW2 2943   0.169   1.088   6.966
  787SOL     OW 2944   1.347   1.059   6.820
  787SOL    HW1 2945   1.371   0.996   6.746
  787SOL    HW2 2946   1.257   1.099   6.802
  788SOL     OW 2947   1.302   0.855   5.895
  788SOL    HW1 2948   1.216   0.824   5.937
  788SOL    HW2 2949   1.298   0.841   5.796
  789SOL     OW 2950   1.759   1.747   6.740
  789SOL    HW1 2951   1.820   1.777   6.667
  789SOL    HW2 2952   1.721   1.658   6.718
  790SOL     OW 2953   1.252   1.731   6.714
  790SOL    HW1 2954   1.336   1.736   6.660
  790SOL    HW2 2955   1.229   1.635   6.732
  791SOL     OW 2956   0.083   1.258   6.608
  791SOL    HW1 2957   0.078   1.257   6.708
  791SOL    HW2 2958   0.000   1.217   6.570
  792SOL     OW 2959   0.688   1.662   7.302
  792SOL    HW1 2960   0.632   1.743   7.311
  792SOL    HW2 2961   0.740   1.666   7.216
  793SOL     OW 2962   1.726   0.135   6.109
  793SOL    HW1 2963   1.799   0.118   6.042
  793SOL    HW2 2964   1.695   0.048   6.147
  794SOL     OW 2965   1.388   1.573   6.063
  794SOL    HW1 2966   1.455   1.585   5.989
  794SOL    HW2 2967   1.348   1.662   6.086
  795SOL     OW 2968   0.130   1.794   7.437
  795SOL    HW1 2969   0.089   1.720   7.490
  795SOL    HW2 2970   0.194   1.845   7.495
  796SOL     OW 2971   1.280   0.927   6.258
  796SOL    HW1 2972   1.340   0.846   6.260
  796SOL    HW2 2973   1.320   0.996   6.198
  797SOL     OW 2974   0.830   1.273   7.008
  797SOL    HW1 2975   0.825   1.306   7.103
  797SOL    HW2 2976   0.744   1.292   6.962
  798SOL     OW 2977   0.672   1.616   5.740
  798SOL    HW1 2978   0.681   1.626   5.641
  798SOL    HW2 2979   0.632   1.527   5.761
  799SOL     OW 2980   1.650   1.720   6.980
  799SOL    HW1 2981   1.703   1.730   6.896
  799SOL    HW2 2982   1.623   1.810   7.014
  800SOL     OW 2983   1.841   0.175   6.549
  800SOL    HW1 2984   1.880   0.090   6.513
  800SOL    HW2 2985   1.743   0.177   6.530
  801SOL     OW 2986   0.263   0.326   6.306
  801SOL    HW1 2987   0.184   0.377   6.272
  801SOL    HW2 2988   0.254   0.311   6.404
  802SOL     OW 2989   1.194   1.612   5.617
  802SOL    HW1 2990   1.200   1.519   5.654
  802SOL    HW2 2991   1.135   1.612   5.537
  803SOL     OW 2992   0.822   1.002   6.958
  803SOL    HW1 2993   0.862   1.001   6.866
  803SOL    HW2 2994   0.832   1.094   6.998
  804SOL     OW 2995   0.916   0.910   5.877
  804SOL    HW1 2996   0.979   0.948   5.809
  804SOL    HW2 2997   0.956   0.827   5.916
  805SOL     OW 2998   1.504   1.607   5.630
  805SOL    HW1 2999   1.412   1.644   5.637
  805SOL    HW2 3000   1.542   1.627   5.540
  806SOL     OW 3001   0.372   1.288   7.076
  806SOL    HW1 3002   0.359   1.381   7.042
  806SOL    HW2 3003   0.288   1.236   7.063
  807SOL     OW 3004   1.614   1.292   6.875
  807SOL    HW1 3005   1.674   1.295   6.955
  807SOL    HW2 3006   1.539   1.356   6.888
  808SOL     OW 3007   1.039   1.098   6.282
  808SOL    HW1 3008   0.969   1.051   6.336
  808SOL    HW2 3009   1.098   1.030   6.239
  809SOL     OW 3010   1.014   0.236   6.557
  809SOL    HW1 3011   1.006   0.200   6.464
  809SOL    HW2 3012   1.012   0.160   6.622
  810SOL     OW 3013   0.590   1.487   6.077
  810SOL    HW1 3014   0.632   1.429   6.007
  810SOL    HW2 3015   0.546   1.566   6.033
  811SOL     OW 3016   1.709   0.385   6.967
  811SOL    HW1 3017   1.782   0.454   6.971
  811SOL    HW2 3018   1.737   0.310   6.908
  812SOL     OW 3019   0.255   1.348   5.876
  812SOL    HW1 3020   0.159   1.349   5.849
  812SOL    HW2 3021   0.267   1.401   5.960
  813SOL     OW 3022   0.105   1.013   7.312
  813SOL    HW1 3023   0.028   0.980   7.366
  813SOL    HW2 3024   0.190   0.983   7.354
  814SOL     OW 3025   0.672   0.203   7.075
  814SOL    HW1 3026   0.762   0.187   7.035
  814SOL    HW2 3027   0.680   0.208   7.174
  815SOL     OW 3028   0.075   0.345   5.619
  815SOL    HW1 3029  -0.017   0.317   5.590
  815SOL    HW2 3030   0.106   0.422   5.563
  816SOL     OW 3031   1.440   0.856   6.984
  816SOL    HW1 3032   1.383   0.908   6.921
  816SOL    HW2 3033   1.536   0.868   6.960
  817SOL     OW 3034   0.072   0.166   5.904
  817SOL    HW1 3035   0.055   0.249   5.850
  817SOL    HW2 3036   0.162   0.129   5.882
  818SOL     OW 3037   1.183   1.335   5.705
  818SOL    HW1 3038   1.084   1.324   5.707
  818SOL    HW2 3039   1.217   1.350   5.798
  819SOL     OW 3040   0.613   0.842   7.017
  819SOL    HW1 3041   0.669   0.923   7.000
  819SOL    HW2 3042   0.672   0.762   7.020
  820SOL     OW 3043   1.493   1.767   6.545
  820SOL    HW1 3044   1.526   1.831   6.476
  820SOL    HW2 3045   1.559   1.761   6.620
  821SOL     OW 3046   0.716   0.565   7.294
  821SOL    HW1 3047   0.735   0.630   7.368
  821SOL    HW2 3048   0.776   0.485   7.303
  822SOL     OW 3049   1.450   1.220   7.219
  822SOL    HW1 3050   1.441   1.210   7.318
  822SOL    HW2 3051   1.546   1.213   7.193
  823SOL     OW 3052   0.390   1.741   7.146
  823SOL    HW1 3053   0.299   1.782   7.144
  823SOL    HW2 3054   0.383   1.647   7.178
  824SOL     OW 3055   1.674   0.883   6.840
  824SOL    HW1 3056   1.647   0.794   6.803
  824SOL    HW2 3057   1.675   0.951   6.767
  825SOL     OW 3058   1.225   0.325   6.035
  825SOL    HW1 3059   1.290   0.251   6.024
  825SOL    HW2 3060   1.245   0.375   6.119
  826SOL     OW 3061   0.594   0.745   6.238
  826SOL    HW1 3062   0.644   0.830   6.219
  826SOL    HW2 3063   0.506   0.747   6.190
  827SOL     OW 3064   1.777   0.342   7.228
  827SOL    HW1 3065   1.760   0.373   7.134
  827SOL    HW2 3066   1.693   0.305   7.266
  828SOL     OW 3067   1.730   0.934   7.103
  828SOL    HW1 3068   1.768   1.025   7.118
  828SOL    HW2 3069   1.722   0.917   7.004
  829SOL     OW 3070   0.859   1.374   5.602
  829SOL    HW1 3071   0.813   1.389   5.690
  829SOL    HW2 3072   0.903   1.459   5.572
  830SOL     OW 3073   0.661   1.790   6.539
  830SOL    HW1 3074   0.615   1.878   6.526
  830SOL    HW2 3075   0.760   1.802   6.532
  831SOL     OW 3076   0.859   0.956   6.447
  831SOL    HW1 3077   0.913   0.887   6.495
  831SOL    HW2 3078   0.827   1.025   6.513
  832SOL     OW 3079   1.083   0.984   5.673
  832SOL    HW1 3080   1.060   1.037   5.591
  832SOL    HW2 3081   1.164   0.928   5.654
  833SOL     OW 3082   1.861   1.569   6.437
  833SOL    HW1 3083   1.790   1.557   6.367
  833SOL    HW2 3084   1.862   1.490   6.497
  834SOL     OW 3085   0.221   1.314   7.430
  834SOL    HW1 3086   0.156   1.241   7.409
  834SOL    HW2 3087   0.225   1.328   7.528
  835SOL     OW 3088   0.079   1.240   6.239
  835SOL    HW1 3089   0.078   1.193   6.327
  835SOL    HW2 3090   0.161   1.212   6.188
  836SOL     OW 3091   0.672   1.391   7.210
  836SOL    HW1 3092   0.594   1.341   7.248
  836SOL    HW2 3093   0.669   1.486   7.241
  837SOL     OW 3094   1.824   0.192   6.813
  837SOL    HW1 3095   1.820   0.102   6.857
  837SOL    HW2 3096   1.827   0.181   6.714
  838SOL     OW 3097   0.428   0.424   6.106
  838SOL    HW1 3098   0.458   0.352   6.044
  838SOL    HW2 3099   0.389   0.384   6.189
  839SOL     OW 3100   1.705   1.487   6.690
  839SOL    HW1 3101   1.612   1.462   6.663
  839SOL    HW2 3102   1.731   1.437   6.772
  840SOL     OW 3103   0.317   0.547   6.866
  840SOL    HW1 3104   0.355   0.488   6.938
  840SOL    HW2 3105   0.357   0.521   6.778
  841SOL     OW 3106   0.812   1.586   6.273
  841SOL    HW1 3107   0.844   1.596   6.179
  841SOL    HW2 3108   0.733   1.524   6.275
  842SOL     OW 3109   1.424   0.214   6.698
  842SOL    HW1 3110   1.476   0.149   6.753
  842SOL    HW2 3111   1.375   0.277   6.759
  843SOL     OW 3112   1.001   0.034   6.740
  843SOL    HW1 3113   0.938  -0.038   6.709
  843SOL    HW2 3114   1.094  -0.002   6.740
  844SOL     OW 3115   0.770   1.330   5.887
  844SOL    HW1 3116   0.724   1.243   5.904
  844SOL    HW2 3117   0.861   1.327   5.928
  845SOL     OW 3118   0.618   1.567   6.870
  845SOL    HW1 3119   0.613   1.649   6.927
  845SOL    HW2 3120   0.707   1.564   6.825
  846SOL     OW 3121   1.352   0.052   5.754
  846SOL    HW1 3122   1.387   0.011   5.670
  846SOL    HW2 3123   1.262   0.014   5.774
  847SOL     OW 3124   1.300   0.453   6.277
  847SOL    HW1 3125   1.241   0.533   6.281
  847SOL    HW2 3126   1.315   0.418   6.370
  848SOL     OW 3127   1.593   0.221   6.468
  848SOL    HW1 3128   1.509   0.220   6.522
  848SOL    HW2 3129   1.595   0.304   6.412
  849SOL     OW 3130   0.039   1.077   5.886
  849SOL    HW1 3131   0.138   1.066   5.877
  849SOL    HW2 3132  -0.001   0.991   5.918
  850SOL     OW 3133   0.875   1.646   5.923
  850SOL    HW1 3134   0.798   1.611   5.869
  850SOL    HW2 3135   0.843   1.717   5.985
  851SOL     OW 3136   0.230   0.628   7.561
  851SOL    HW1 3137   0.137   0.626   7.598
  851SOL    HW2 3138   0.231   0.589   7.469
  852SOL     OW 3139   1.755   0.607   7.679
  852SOL    HW1 3140   1.743   0.594   7.580
  852SOL    HW2 3141   1.725   0.526   7.728
  853SOL     OW 3142   0.231   1.713   7.931
  853SOL    HW1 3143   0.265   1.790   7.985
  853SOL    HW2 3144   0.275   1.713   7.841
  854SOL     OW 3145   0.230   1.434   7.986
  854SOL    HW1 3146   0.204   1.530   7.986
  854SOL    HW2 3147   0.159   1.380   8.031
  855SOL     OW 3148   0.606   0.964   7.571
  855SOL    HW1 3149   0.613   1.048   7.517
  855SOL    HW2 3150   0.652   0.977   7.659
  856SOL     OW 3151   1.842   1.767   7.807
  856SOL    HW1 3152   1.896   1.738   7.887
  856SOL    HW2 3153   1.872   1.857   7.778
  857SOL     OW 3154   0.027   1.596   7.565
  857SOL    HW1 3155   0.008   1.500   7.586
  857SOL    HW2 3156  -0.006   1.654   7.640
  858SOL     OW 3157   1.689   0.922   8.060
  858SOL    HW1 3158   1.784   0.893   8.068
  858SOL    HW2 3159   1.681   0.987   7.985
  859SOL     OW 3160   1.641   1.108   7.880
  859SOL    HW1 3161   1.727   1.110   7.828
  859SOL    HW2 3162   1.655   1.155   7.968
  860SOL     OW 3163   0.809   0.004   7.950
  860SOL    HW1 3164   0.849   0.095   7.941
  860SOL    HW2 3165   0.709   0.012   7.956
  861SOL     OW 3166   1.525   0.999   7.638
  861SOL    HW1 3167   1.462   0.923   7.651
  861SOL    HW2 3168   1.573   1.017   7.724
  862SOL     OW 3169   0.598   0.729   7.718
  862SOL    HW1 3170   0.622   0.798   7.650
  862SOL    HW2 3171   0.520   0.762   7.772
  863SOL     OW 3172   1.576   1.662   7.755
  863SOL    HW1 3173   1.665   1.708   7.758
  863SOL    HW2 3174   1.555   1.638   7.660
  864SOL     OW 3175   0.076   0.811   8.237
  864SOL    HW1 3176   0.175   0.799   8.246
  864SOL    HW2 3177   0.052   0.906   8.258
  865SOL     OW 3178   0.865   0.348   7.643
  865SOL    HW1 3179   0.924   0.411   7.594
  865SOL    HW2 3180   0.884   0.254   7.614
  866SOL     OW 3181   0.321   0.943   7.690
  866SOL    HW1 3182   0.403   0.982   7.648
  866SOL    HW2 3183   0.294   0.861   7.641
  867SOL     OW 3184   1.111   1.776   7.685
  867SOL    HW1 3185   1.051   1.714   7.735
  867SOL    HW2 3186   1.142   1.732   7.600
  868SOL     OW 3187   1.632   1.377   7.529
  868SOL    HW1 3188   1.600   1.471   7.519
  868SOL    HW2 3189   1.556   1.314   7.517
  869SOL     OW 3190   0.464   1.743   7.771
  869SOL    HW1 3191   0.497   1.782   7.857
  869SOL    HW2 3192   0.540   1.736   7.706
  870SOL     OW 3193   1.400   0.107   7.874
  870SOL    HW1 3194   1.376   0.070   7.784
  870SOL    HW2 3195   1.499   0.123   7.878
  871SOL     OW 3196   0.382   0.700   7.928
  871SOL    HW1 3197   0.427   0.610   7.925
  871SOL    HW2 3198   0.288   0.689   7.961
  872SOL     OW 3199   0.614   0.122   7.565
  872SOL    HW1 3200   0.712   0.100   7.572
  872SOL    HW2 3201   0.583   0.105   7.472
  873SOL     OW 3202   0.539   0.064   7.960
  873SOL    HW1 3203   0.458   0.065   8.018
  873SOL    HW2 3204   0.542   0.147   7.905
  874SOL     OW 3205   1.434   1.188   7.489
  874SOL    HW1 3206   1.466   1.112   7.546
  874SOL    HW2 3207   1.342   1.215   7.519
  875SOL     OW 3208   0.297   0.035   7.619
  875SOL    HW1 3209   0.346   0.119   7.598
  875SOL    HW2 3210   0.359  -0.030   7.664
  876SOL     OW 3211   0.935   0.236   7.928
  876SOL    HW1 3212   0.887   0.277   7.850
  876SOL    HW2 3213   1.034   0.234   7.909
  877SOL     OW 3214   0.459   1.152   8.189
  877SOL    HW1 3215   0.388   1.125   8.254
  877SOL    HW2 3216   0.433   1.124   8.096
  878SOL     OW 3217   1.271   1.797   8.039
  878SOL    HW1 3218   1.315   1.861   7.975
  878SOL    HW2 3219   1.221   1.849   8.109
  879SOL     OW 3220   1.032   0.549   7.464
  879SOL    HW1 3221   0.991   0.631   7.425
  879SOL    HW2 3222   1.096   0.575   7.537
  880SOL     OW 3223   1.857   0.833   7.825
  880SOL    HW1 3224   1.899   0.769   7.889
  880SOL    HW2 3225   1.819   0.782   7.747
  881SOL     OW 3226   0.488   1.385   7.622
  881SOL    HW1 3227   0.401   1.370   7.669
  881SOL    HW2 3228   0.471   1.411   7.527
  882SOL     OW 3229   1.390   0.575   7.526
  882SOL    HW1 3230   1.336   0.554   7.607
  882SOL    HW2 3231   1.481   0.534   7.535
  883SOL     OW 3232   0.527   0.256   7.776
  883SOL    HW1 3233   0.554   0.197   7.701
  883SOL    HW2 3234   0.527   0.351   7.745
  884SOL     OW 3235   0.705   1.050   7.816
  884SOL    HW1 3236   0.691   1.057   7.915
  884SOL    HW2 3237   0.789   0.999   7.798
  885SOL     OW 3238   0.367   1.100   7.949
  885SOL    HW1 3239   0.360   1.183   7.893
  885SOL    HW2 3240   0.371   1.020   7.889
  886SOL     OW 3241   1.252   1.348   7.836
  886SOL    HW1 3242   1.302   1.425   7.876
  886SOL    HW2 3243   1.157   1.350   7.868
  887SOL     OW 3244   1.582   0.639   7.920
  887SOL    HW1 3245   1.551   0.700   7.993
  887SOL    HW2 3246   1.632   0.691   7.851
  888SOL     OW 3247   1.209   0.525   7.723
  888SOL    HW1 3248   1.222   0.441   7.777
  888SOL    HW2 3249   1.180   0.599   7.783
  889SOL     OW 3250   1.622   0.367   7.822
  889SOL    HW1 3251   1.624   0.291   7.886
  889SOL    HW2 3252   1.574   0.444   7.862
  890SOL     OW 3253   1.540   0.274   7.573
  890SOL    HW1 3254   1.479   0.199   7.596
  890SOL    HW2 3255   1.562   0.326   7.656
  891SOL     OW 3256   1.303   0.838   7.490
  891SOL    HW1 3257   1.337   0.745   7.505
  891SOL    HW2 3258   1.321   0.865   7.395
  892SOL     OW 3259   0.008   1.326   7.648
  892SOL    HW1 3260  -0.085   1.347   7.617
  892SOL    HW2 3261   0.018   1.227   7.661
  893SOL     OW 3262   0.815   0.572   7.773
  893SOL    HW1 3263   0.822   0.483   7.727
  893SOL    HW2 3264   0.721   0.606   7.765
  894SOL     OW 3265   0.473   0.500   7.639
  894SOL    HW1 3266   0.534   0.580   7.643
  894SOL    HW2 3267   0.378   0.531   7.646
  895SOL     OW 3268   1.302   0.855   7.757
  895SOL    HW1 3269   1.216   0.824   7.799
  895SOL    HW2 3270   1.298   0.841   7.658
  896SOL     OW 3271   1.726   0.135   7.971
  896SOL    HW1 3272   1.799   0.118   7.904
  896SOL    HW2 3273   1.695   0.048   8.009
  897SOL     OW 3274   1.388   1.573   7.925
  897SOL    HW1 3275   1.455   1.585   7.851
  897SOL    HW2 3276   1.348   1.662   7.948
  898SOL     OW 3277   0.672   1.616   7.602
  898SOL    HW1 3278   0.681   1.626   7.503
  898SOL    HW2 3279   0.632   1.527   7.623
  899SOL     OW 3280   1.194   1.612   7.479
  899SOL    HW1 3281   1.200   1.519   7.516
  899SOL    HW2 3282   1.135   1.612   7.399
  900SOL     OW 3283   0.916   0.910   7.739
  900SOL    HW1 3284   0.979   0.948   7.671
  900SOL    HW2 3285   0.956   0.827   7.778
  901SOL     OW 3286   1.504   1.607   7.492
  901SOL    HW1 3287   1.412   1.644   7.499
  901SOL    HW2 3288   1.542   1.627   7.402
  902SOL     OW 3289   0.590   1.487   7.939
  902SOL    HW1 3290   0.632   1.429   7.869
  902SOL    HW2 3291   0.546   1.566   7.895
  903SOL     OW 3292   0.255   1.348   7.738
  903SOL    HW1 3293   0.159   1.349   7.711
  903SOL    HW2 3294   0.267   1.401   7.822
  904SOL     OW 3295   0.075   0.345   7.481
  904SOL    HW1 3296  -0.017   0.317   7.452
  904SOL    HW2 3297   0.106   0.422   7.425
  905SOL     OW 3298   0.072   0.166   7.766
  905SOL    HW1 3299   0.055   0.249   7.712
  905SOL    HW2 3300   0.162   0.129   7.744
  906SOL     OW 3301   1.183   1.335   7.567
  906SOL    HW1 3302   1.084   1.324   7.569
  906SOL    HW2 3303   1.217   1.350   7.660
  907SOL     OW 3304   1.225   0.325   7.897
  907SOL    HW1 3305   1.290   0.251   7.886
  907SOL    HW2 3306   1.245   0.375   7.981
  908SOL     OW 3307   0.594   0.745   8.100
  908SOL    HW1 3308   0.644   0.830   8.081
  908SOL    HW2 3309   0.506   0.747   8.052
  909SOL     OW 3310   0.859   1.374   7.464
  909SOL    HW1 3311   0.813   1.389   7.552
  909SOL    HW2 3312   0.903   1.459   7.434
  910SOL     OW 3313   1.083   0.984   7.535
  910SOL    HW1 3314   1.060   1.037   7.453
  910SOL    HW2 3315   1.164   0.928   7.516
  911SOL     OW 3316   0.428   0.424   7.968
  911SOL    HW1 3317   0.458   0.352   7.906
  911SOL    HW2 3318   0.389   0.384   8.051
  912SOL     OW 3319   0.770   1.330   7.749
  912SOL    HW1 3320   0.724   1.243   7.766
  912SOL    HW2 3321   0.861   1.327   7.790
  913SOL     OW 3322   1.352   0.052   7.616
  913SOL    HW1 3323   1.387   0.011   7.532
  913SOL    HW2 3324   1.262   0.014   7.636
  914SOL     OW 3325   0.039   1.077   7.748
  914SOL    HW1 3326   0.138   1.066   7.739
  914SOL    HW2 3327  -0.001   0.991   7.780
  915SOL     OW 3328   0.875   1.646   7.785
  915SOL    HW1 3329   0.798   1.611   7.731
  915SOL    HW2 3330   0.843   1.717   7.847
  916SOL     OW 3331   0.230   2.490   0.113
  916SOL    HW1 3332   0.137   2.488   0.150
  916SOL    HW2 3333   0.231   2.451   0.021
  917SOL     OW 3334   0.225   2.137   0.996
  917SOL    HW1 3335   0.260   2.120   1.088
  917SOL    HW2 3336   0.137   2.092   0.984
  918SOL     OW 3337   0.019   2.230   0.647
  918SOL    HW1 3338  -0.063   2.273   0.686
  918SOL    HW2 3339  -0.009   2.157   0.584
  919SOL     OW 3340   0.569   3.137   1.165
  919SOL    HW1 3341   0.476   3.130   1.128
  919SOL    HW2 3342   0.580   3.226   1.209
  920SOL     OW 3343   1.555   3.373   0.703
  920SOL    HW1 3344   1.498   3.357   0.784
  920SOL    HW2 3345   1.496   3.383   0.623
  921SOL     OW 3346   1.135   2.565   0.717
  921SOL    HW1 3347   1.192   2.643   0.692
  921SOL    HW2 3348   1.075   2.591   0.793
  922SOL     OW 3349   1.755   2.469   0.231
  922SOL    HW1 3350   1.743   2.456   0.132
  922SOL    HW2 3351   1.725   2.388   0.280
  923SOL     OW 3352   0.768   3.006   1.023
  923SOL    HW1 3353   0.690   3.023   1.083
  923SOL    HW2 3354   0.802   3.093   0.987
  924SOL     OW 3355   0.850   2.660   1.823
  924SOL    HW1 3356   0.846   2.736   1.888
  924SOL    HW2 3357   0.872   2.696   1.732
  925SOL     OW 3358   0.685   2.874   0.665
  925SOL    HW1 3359   0.754   2.858   0.735
  925SOL    HW2 3360   0.612   2.931   0.703
  926SOL     OW 3361   0.686   3.023   1.803
  926SOL    HW1 3362   0.746   3.102   1.817
  926SOL    HW2 3363   0.600   3.054   1.762
  927SOL     OW 3364   0.335   3.297   1.061
  927SOL    HW1 3365   0.257   3.266   1.008
  927SOL    HW2 3366   0.393   3.355   1.004
  928SOL     OW 3367   1.460   3.367   1.339
  928SOL    HW1 3368   1.484   3.461   1.365
  928SOL    HW2 3369   1.444   3.313   1.421
  929SOL     OW 3370   0.438   2.254   1.499
  929SOL    HW1 3371   0.520   2.198   1.508
  929SOL    HW2 3372   0.357   2.196   1.503
  930SOL     OW 3373   1.603   2.309   0.737
  930SOL    HW1 3374   1.529   2.355   0.687
  930SOL    HW2 3375   1.654   2.377   0.790
  931SOL     OW 3376   0.231   3.575   0.483
  931SOL    HW1 3377   0.265   3.652   0.537
  931SOL    HW2 3378   0.275   3.575   0.393
  932SOL     OW 3379   1.127   3.203   1.690
  932SOL    HW1 3380   1.174   3.203   1.778
  932SOL    HW2 3381   1.079   3.116   1.679
  933SOL     OW 3382   0.230   3.296   0.538
  933SOL    HW1 3383   0.204   3.392   0.538
  933SOL    HW2 3384   0.159   3.242   0.583
  934SOL     OW 3385   0.240   2.953   0.886
  934SOL    HW1 3386   0.254   2.869   0.938
  934SOL    HW2 3387   0.185   3.017   0.941
  935SOL     OW 3388   0.620   3.648   1.439
  935SOL    HW1 3389   0.528   3.631   1.474
  935SOL    HW2 3390   0.648   3.740   1.465
  936SOL     OW 3391   0.606   2.826   0.123
  936SOL    HW1 3392   0.613   2.910   0.069
  936SOL    HW2 3393   0.652   2.839   0.211
  937SOL     OW 3394   1.594   1.976   1.480
  937SOL    HW1 3395   1.576   2.043   1.408
  937SOL    HW2 3396   1.591   2.022   1.569
  938SOL     OW 3397   0.122   2.505   0.563
  938SOL    HW1 3398   0.077   2.417   0.580
  938SOL    HW2 3399   0.121   2.559   0.647
  939SOL     OW 3400   1.842   3.629   0.359
  939SOL    HW1 3401   1.896   3.600   0.439
  939SOL    HW2 3402   1.872   3.719   0.330
  940SOL     OW 3403   0.027   3.458   0.117
  940SOL    HW1 3404   0.008   3.362   0.138
  940SOL    HW2 3405  -0.006   3.516   0.192
  941SOL     OW 3406   1.689   2.784   0.612
  941SOL    HW1 3407   1.784   2.755   0.620
  941SOL    HW2 3408   1.681   2.849   0.537
  942SOL     OW 3409   1.641   2.970   0.432
  942SOL    HW1 3410   1.727   2.972   0.380
  942SOL    HW2 3411   1.655   3.017   0.520
  943SOL     OW 3412   0.113   2.599   1.597
  943SOL    HW1 3413   0.201   2.586   1.642
  943SOL    HW2 3414   0.100   2.696   1.575
  944SOL     OW 3415   0.613   3.227   0.726
  944SOL    HW1 3416   0.564   3.140   0.735
  944SOL    HW2 3417   0.590   3.270   0.639
  945SOL     OW 3418   1.293   3.090   1.423
  945SOL    HW1 3419   1.330   3.017   1.365
  945SOL    HW2 3420   1.345   3.095   1.508
  946SOL     OW 3421   0.809   1.866   0.502
  946SOL    HW1 3422   0.849   1.957   0.493
  946SOL    HW2 3423   0.709   1.874   0.508
  947SOL     OW 3424   0.197   2.838   1.264
  947SOL    HW1 3425   0.286   2.793   1.250
  947SOL    HW2 3426   0.124   2.773   1.245
  948SOL     OW 3427   1.525   2.861   0.190
  948SOL    HW1 3428   1.462   2.785   0.203
  948SOL    HW2 3429   1.573   2.879   0.276
  949SOL     OW 3430   1.187   3.654   1.616
  949SOL    HW1 3431   1.211   3.714   1.540
  949SOL    HW2 3432   1.194   3.559   1.586
  950SOL     OW 3433   0.317   2.113   1.801
  950SOL    HW1 3434   0.388   2.184   1.807
  950SOL    HW2 3435   0.229   2.152   1.829
  951SOL     OW 3436   1.466   3.279   0.953
  951SOL    HW1 3437   1.407   3.285   1.033
  951SOL    HW2 3438   1.451   3.191   0.907
  952SOL     OW 3439   1.667   3.576   0.572
  952SOL    HW1 3440   1.626   3.553   0.484
  952SOL    HW2 3441   1.649   3.502   0.637
  953SOL     OW 3442   0.598   2.591   0.270
  953SOL    HW1 3443   0.622   2.660   0.202
  953SOL    HW2 3444   0.520   2.624   0.324
  954SOL     OW 3445   1.281   2.207   0.944
  954SOL    HW1 3446   1.195   2.157   0.931
  954SOL    HW2 3447   1.343   2.153   1.000
  955SOL     OW 3448   1.576   3.524   0.307
  955SOL    HW1 3449   1.665   3.570   0.310
  955SOL    HW2 3450   1.555   3.500   0.212
  956SOL     OW 3451   0.807   2.467   1.465
  956SOL    HW1 3452   0.760   2.464   1.554
  956SOL    HW2 3453   0.756   2.412   1.399
  957SOL     OW 3454   1.394   2.331   1.674
  957SOL    HW1 3455   1.374   2.374   1.762
  957SOL    HW2 3456   1.472   2.269   1.683
  958SOL     OW 3457   0.973   2.752   1.572
  958SOL    HW1 3458   1.019   2.668   1.543
  958SOL    HW2 3459   0.917   2.786   1.497
  959SOL     OW 3460   0.991   2.272   1.242
  959SOL    HW1 3461   0.914   2.306   1.296
  959SOL    HW2 3462   0.957   2.221   1.163
  960SOL     OW 3463   1.041   2.563   0.429
  960SOL    HW1 3464   1.067   2.559   0.525
  960SOL    HW2 3465   0.956   2.512   0.415
  961SOL     OW 3466   0.076   2.673   0.789
  961SOL    HW1 3467   0.175   2.661   0.798
  961SOL    HW2 3468   0.052   2.768   0.810
  962SOL     OW 3469   0.130   3.683   1.571
  962SOL    HW1 3470   0.120   3.668   1.670
  962SOL    HW2 3471   0.044   3.719   1.535
  963SOL     OW 3472   0.865   2.210   0.195
  963SOL    HW1 3473   0.924   2.273   0.146
  963SOL    HW2 3474   0.884   2.116   0.166
  964SOL     OW 3475   1.719   2.447   1.831
  964SOL    HW1 3476   1.693   2.536   1.795
  964SOL    HW2 3477   1.717   2.379   1.758
  965SOL     OW 3478   1.362   3.006   0.545
  965SOL    HW1 3479   1.445   2.977   0.497
  965SOL    HW2 3480   1.313   3.073   0.489
  966SOL     OW 3481   0.550   2.058   0.885
  966SOL    HW1 3482   0.545   2.053   0.985
  966SOL    HW2 3483   0.552   2.154   0.856
  967SOL     OW 3484   1.008   3.318   0.477
  967SOL    HW1 3485   0.962   3.390   0.425
  967SOL    HW2 3486   1.004   3.338   0.575
  968SOL     OW 3487   0.351   3.663   0.853
  968SOL    HW1 3488   0.401   3.577   0.859
  968SOL    HW2 3489   0.416   3.740   0.850
  969SOL     OW 3490   1.795   2.928   0.873
  969SOL    HW1 3491   1.733   2.913   0.797
  969SOL    HW2 3492   1.743   2.939   0.958
  970SOL     OW 3493   1.227   3.412   1.506
  970SOL    HW1 3494   1.233   3.335   1.570
  970SOL    HW2 3495   1.175   3.386   1.426
  971SOL     OW 3496   0.321   2.805   0.242
  971SOL    HW1 3497   0.403   2.844   0.200
  971SOL    HW2 3498   0.294   2.723   0.193
  972SOL     OW 3499   1.458   2.597   0.728
  972SOL    HW1 3500   1.453   2.532   0.803
  972SOL    HW2 3501   1.538   2.656   0.741
  973SOL     OW 3502   0.461   3.128   1.727
  973SOL    HW1 3503   0.411   3.129   1.641
  973SOL    HW2 3504   0.398   3.110   1.803
  974SOL     OW 3505   1.111   3.638   0.237
  974SOL    HW1 3506   1.051   3.576   0.287
  974SOL    HW2 3507   1.142   3.594   0.152
  975SOL     OW 3508   0.202   2.147   1.498
  975SOL    HW1 3509   0.122   2.207   1.485
  975SOL    HW2 3510   0.192   2.098   1.584
  976SOL     OW 3511   1.632   3.239   0.081
  976SOL    HW1 3512   1.600   3.333   0.071
  976SOL    HW2 3513   1.556   3.176   0.069
  977SOL     OW 3514   0.464   3.605   0.323
  977SOL    HW1 3515   0.497   3.644   0.409
  977SOL    HW2 3516   0.540   3.598   0.258
  978SOL     OW 3517   1.400   1.969   0.426
  978SOL    HW1 3518   1.376   1.932   0.336
  978SOL    HW2 3519   1.499   1.985   0.430
  979SOL     OW 3520   0.249   3.647   1.241
  979SOL    HW1 3521   0.306   3.582   1.291
  979SOL    HW2 3522   0.233   3.614   1.148
  980SOL     OW 3523   0.940   3.560   0.904
  980SOL    HW1 3524   1.020   3.503   0.925
  980SOL    HW2 3525   0.891   3.520   0.827
  981SOL     OW 3526   0.382   2.562   0.480
  981SOL    HW1 3527   0.427   2.472   0.477
  981SOL    HW2 3528   0.288   2.551   0.513
  982SOL     OW 3529   1.547   2.084   1.729
  982SOL    HW1 3530   1.542   2.121   1.821
  982SOL    HW2 3531   1.475   2.015   1.717
  983SOL     OW 3532   0.614   1.984   0.117
  983SOL    HW1 3533   0.712   1.962   0.124
  983SOL    HW2 3534   0.583   1.967   0.024
  984SOL     OW 3535   0.781   2.126   1.749
  984SOL    HW1 3536   0.848   2.065   1.792
  984SOL    HW2 3537   0.708   2.145   1.814
  985SOL     OW 3538   0.888   3.376   1.195
  985SOL    HW1 3539   0.865   3.351   1.101
  985SOL    HW2 3540   0.949   3.307   1.234
  986SOL     OW 3541   1.351   2.452   1.433
  986SOL    HW1 3542   1.379   2.409   1.518
  986SOL    HW2 3543   1.376   2.548   1.434
  987SOL     OW 3544   0.803   3.264   0.924
  987SOL    HW1 3545   0.893   3.278   0.882
  987SOL    HW2 3546   0.732   3.266   0.853
  988SOL     OW 3547   0.922   2.365   0.899
  988SOL    HW1 3548   0.897   2.356   0.803
  988SOL    HW2 3549   0.970   2.283   0.930
  989SOL     OW 3550   0.539   1.926   0.512
  989SOL    HW1 3551   0.458   1.927   0.570
  989SOL    HW2 3552   0.542   2.009   0.457
  990SOL     OW 3553   1.434   3.050   0.041
  990SOL    HW1 3554   1.466   2.974   0.098
  990SOL    HW2 3555   1.342   3.077   0.071
  991SOL     OW 3556   0.297   1.897   0.171
  991SOL    HW1 3557   0.346   1.981   0.150
  991SOL    HW2 3558   0.359   1.832   0.216
  992SOL     OW 3559   0.935   2.098   0.480
  992SOL    HW1 3560   0.887   2.139   0.402
  992SOL    HW2 3561   1.034   2.096   0.461
  993SOL     OW 3562   1.076   2.545   1.464
  993SOL    HW1 3563   0.996   2.484   1.467
  993SOL    HW2 3564   1.157   2.492   1.440
  994SOL     OW 3565   1.227   3.432   0.793
  994SOL    HW1 3566   1.248   3.506   0.728
  994SOL    HW2 3567   1.295   3.432   0.866
  995SOL     OW 3568   0.459   3.014   0.741
  995SOL    HW1 3569   0.388   2.987   0.806
  995SOL    HW2 3570   0.433   2.986   0.648
  996SOL     OW 3571   1.271   3.659   0.591
  996SOL    HW1 3572   1.315   3.723   0.527
  996SOL    HW2 3573   1.221   3.711   0.661
  997SOL     OW 3574   1.032   2.411   0.016
  997SOL    HW1 3575   0.991   2.493  -0.023
  997SOL    HW2 3576   1.096   2.437   0.089
  998SOL     OW 3577   0.078   2.418   1.386
  998SOL    HW1 3578   0.170   2.417   1.345
  998SOL    HW2 3579   0.072   2.492   1.453
  999SOL     OW 3580   0.561   2.084   1.147
  999SOL    HW1 3581   0.599   2.000   1.184
  999SOL    HW2 3582   0.473   2.103   1.191
 1000SOL     OW 3583   0.866   2.316   0.642
 1000SOL    HW1 3584   0.834   2.388   0.580
 1000SOL    HW2 3585   0.890   2.235   0.589
 1001SOL     OW 3586   1.017   1.901   0.753
 1001SOL    HW1 3587   0.945   1.906   0.684
 1001SOL    HW2 3588   0.993   1.832   0.822
 1002SOL     OW 3589   1.429   3.035   0.867
 1002SOL    HW1 3590   1.374   2.951   0.860
 1002SOL    HW2 3591   1.455   3.064   0.775
 1003SOL     OW 3592   1.466   2.452   0.992
 1003SOL    HW1 3593   1.436   2.357   0.999
 1003SOL    HW2 3594   1.539   2.468   1.058
 1004SOL     OW 3595   1.857   2.695   0.377
 1004SOL    HW1 3596   1.899   2.631   0.441
 1004SOL    HW2 3597   1.819   2.644   0.299
 1005SOL     OW 3598   0.488   3.247   0.174
 1005SOL    HW1 3599   0.401   3.232   0.221
 1005SOL    HW2 3600   0.471   3.273   0.079
 1006SOL     OW 3601   1.664   3.142   0.657
 1006SOL    HW1 3602   1.763   3.150   0.671
 1006SOL    HW2 3603   1.619   3.226   0.688
 1007SOL     OW 3604   1.390   2.437   0.078
 1007SOL    HW1 3605   1.336   2.416   0.159
 1007SOL    HW2 3606   1.481   2.396   0.087
 1008SOL     OW 3607   0.527   2.118   0.328
 1008SOL    HW1 3608   0.554   2.059   0.253
 1008SOL    HW2 3609   0.527   2.213   0.297
 1009SOL     OW 3610   1.754   3.085   1.588
 1009SOL    HW1 3611   1.845   3.046   1.575
 1009SOL    HW2 3612   1.762   3.181   1.612
 1010SOL     OW 3613   1.064   3.209   1.340
 1010SOL    HW1 3614   0.984   3.186   1.395
 1010SOL    HW2 3615   1.147   3.183   1.389
 1011SOL     OW 3616   1.592   3.491   1.625
 1011SOL    HW1 3617   1.619   3.525   1.535
 1011SOL    HW2 3618   1.671   3.453   1.671
 1012SOL     OW 3619   1.111   3.057   1.100
 1012SOL    HW1 3620   1.071   3.101   1.181
 1012SOL    HW2 3621   1.070   3.094   1.017
 1013SOL     OW 3622   1.638   2.961   1.079
 1013SOL    HW1 3623   1.643   3.042   1.138
 1013SOL    HW2 3624   1.552   2.963   1.028
 1014SOL     OW 3625   0.915   1.951   1.402
 1014SOL    HW1 3626   0.940   1.931   1.307
 1014SOL    HW2 3627   0.987   2.007   1.444
 1015SOL     OW 3628   0.980   2.978   1.719
 1015SOL    HW1 3629   0.881   2.984   1.729
 1015SOL    HW2 3630   1.003   2.898   1.663
 1016SOL     OW 3631   0.705   2.912   0.368
 1016SOL    HW1 3632   0.691   2.919   0.467
 1016SOL    HW2 3633   0.789   2.861   0.350
 1017SOL     OW 3634   0.410   2.675   1.251
 1017SOL    HW1 3635   0.496   2.687   1.301
 1017SOL    HW2 3636   0.368   2.588   1.278
 1018SOL     OW 3637   1.274   2.248   1.262
 1018SOL    HW1 3638   1.295   2.322   1.326
 1018SOL    HW2 3639   1.185   2.265   1.219
 1019SOL     OW 3640   0.064   3.426   1.331
 1019SOL    HW1 3641   0.018   3.508   1.297
 1019SOL    HW2 3642   0.162   3.445   1.340
 1020SOL     OW 3643   0.367   2.962   0.501
 1020SOL    HW1 3644   0.360   3.045   0.445
 1020SOL    HW2 3645   0.371   2.882   0.441
 1021SOL     OW 3646   0.566   2.399   0.865
 1021SOL    HW1 3647   0.578   2.465   0.791
 1021SOL    HW2 3648   0.612   2.433   0.948
 1022SOL     OW 3649   1.252   3.210   0.388
 1022SOL    HW1 3650   1.302   3.287   0.428
 1022SOL    HW2 3651   1.157   3.212   0.420
 1023SOL     OW 3652   1.272   3.307   1.142
 1023SOL    HW1 3653   1.319   3.320   1.229
 1023SOL    HW2 3654   1.206   3.233   1.151
 1024SOL     OW 3655   1.582   2.501   0.472
 1024SOL    HW1 3656   1.551   2.562   0.545
 1024SOL    HW2 3657   1.632   2.553   0.403
 1025SOL     OW 3658   0.354   3.372   1.329
 1025SOL    HW1 3659   0.333   3.328   1.242
 1025SOL    HW2 3660   0.451   3.398   1.332
 1026SOL     OW 3661   0.402   2.613   1.598
 1026SOL    HW1 3662   0.470   2.668   1.551
 1026SOL    HW2 3663   0.442   2.525   1.625
 1027SOL     OW 3664   1.587   2.641   1.670
 1027SOL    HW1 3665   1.495   2.679   1.665
 1027SOL    HW2 3666   1.647   2.688   1.605
 1028SOL     OW 3667   1.013   1.967   1.770
 1028SOL    HW1 3668   1.019   2.052   1.718
 1028SOL    HW2 3669   1.045   1.891   1.713
 1029SOL     OW 3670   0.504   1.912   1.740
 1029SOL    HW1 3671   0.462   1.855   1.670
 1029SOL    HW2 3672   0.438   1.981   1.772
 1030SOL     OW 3673   0.573   2.732   1.029
 1030SOL    HW1 3674   0.617   2.821   1.020
 1030SOL    HW2 3675   0.510   2.732   1.106
 1031SOL     OW 3676   1.360   2.724   1.045
 1031SOL    HW1 3677   1.285   2.724   0.979
 1031SOL    HW2 3678   1.397   2.632   1.054
 1032SOL     OW 3679   1.209   2.387   0.275
 1032SOL    HW1 3680   1.222   2.303   0.329
 1032SOL    HW2 3681   1.180   2.461   0.335
 1033SOL     OW 3682   0.307   2.075   1.231
 1033SOL    HW1 3683   0.284   2.112   1.321
 1033SOL    HW2 3684   0.277   1.980   1.225
 1034SOL     OW 3685   0.037   3.172   1.282
 1034SOL    HW1 3686   0.090   3.123   1.350
 1034SOL    HW2 3687   0.059   3.270   1.287
 1035SOL     OW 3688   0.732   2.496   1.064
 1035SOL    HW1 3689   0.791   2.470   0.988
 1035SOL    HW2 3690   0.704   2.592   1.053
 1036SOL     OW 3691   1.728   2.797   1.854
 1036SOL    HW1 3692   1.682   2.790   1.765
 1036SOL    HW2 3693   1.666   2.841   1.920
 1037SOL     OW 3694   0.307   1.925   0.618
 1037SOL    HW1 3695   0.296   2.019   0.651
 1037SOL    HW2 3696   0.302   1.862   0.695
 1038SOL     OW 3697   1.622   2.229   0.374
 1038SOL    HW1 3698   1.624   2.153   0.438
 1038SOL    HW2 3699   1.574   2.306   0.414
 1039SOL     OW 3700   1.023   2.628   0.966
 1039SOL    HW1 3701   1.038   2.649   1.062
 1039SOL    HW2 3702   0.993   2.533   0.957
 1040SOL     OW 3703   0.980   3.435   1.700
 1040SOL    HW1 3704   0.960   3.479   1.612
 1040SOL    HW2 3705   1.019   3.344   1.684
 1041SOL     OW 3706   1.859   3.380   1.605
 1041SOL    HW1 3707   1.873   3.407   1.510
 1041SOL    HW2 3708   1.942   3.402   1.658
 1042SOL     OW 3709   0.350   2.760   1.804
 1042SOL    HW1 3710   0.426   2.804   1.852
 1042SOL    HW2 3711   0.385   2.713   1.722
 1043SOL     OW 3712   1.540   2.136   0.125
 1043SOL    HW1 3713   1.479   2.061   0.148
 1043SOL    HW2 3714   1.562   2.188   0.208
 1044SOL     OW 3715   1.303   2.700   0.042
 1044SOL    HW1 3716   1.337   2.607   0.057
 1044SOL    HW2 3717   1.321   2.727  -0.053
 1045SOL     OW 3718   1.068   3.195   0.849
 1045SOL    HW1 3719   1.075   3.111   0.794
 1045SOL    HW2 3720   1.130   3.264   0.813
 1046SOL     OW 3721   0.319   2.672   0.949
 1046SOL    HW1 3722   0.412   2.708   0.954
 1046SOL    HW2 3723   0.313   2.587   1.001
 1047SOL     OW 3724   0.339   2.371   1.006
 1047SOL    HW1 3725   0.287   2.288   0.989
 1047SOL    HW2 3726   0.416   2.376   0.942
 1048SOL     OW 3727   1.138   2.242   1.678
 1048SOL    HW1 3728   1.093   2.305   1.742
 1048SOL    HW2 3729   1.231   2.273   1.661
 1049SOL     OW 3730   1.160   2.069   1.477
 1049SOL    HW1 3731   1.160   2.133   1.554
 1049SOL    HW2 3732   1.188   2.117   1.394
 1050SOL     OW 3733   0.008   3.188   0.200
 1050SOL    HW1 3734  -0.085   3.209   0.169
 1050SOL    HW2 3735   0.018   3.089   0.213
 1051SOL     OW 3736   0.088   3.663   0.927
 1051SOL    HW1 3737   0.046   3.577   0.900
 1051SOL    HW2 3738   0.182   3.666   0.893
 1052SOL     OW 3739   0.504   3.430   0.910
 1052SOL    HW1 3740   0.570   3.504   0.919
 1052SOL    HW2 3741   0.548   3.351   0.868
 1053SOL     OW 3742   1.002   2.658   1.238
 1053SOL    HW1 3743   1.043   2.626   1.324
 1053SOL    HW2 3744   0.906   2.631   1.235
 1054SOL     OW 3745   0.040   2.406   1.114
 1054SOL    HW1 3746   0.125   2.373   1.073
 1054SOL    HW2 3747   0.053   2.421   1.212
 1055SOL     OW 3748   0.189   2.382   1.722
 1055SOL    HW1 3749   0.248   2.342   1.652
 1055SOL    HW2 3750   0.131   2.453   1.681
 1056SOL     OW 3751   1.369   2.812   1.660
 1056SOL    HW1 3752   1.408   2.901   1.680
 1056SOL    HW2 3753   1.379   2.792   1.563
 1057SOL     OW 3754   0.815   2.434   0.325
 1057SOL    HW1 3755   0.822   2.345   0.279
 1057SOL    HW2 3756   0.721   2.468   0.317
 1058SOL     OW 3757   1.657   2.466   1.206
 1058SOL    HW1 3758   1.619   2.397   1.268
 1058SOL    HW2 3759   1.739   2.430   1.162
 1059SOL     OW 3760   0.252   3.426   1.744
 1059SOL    HW1 3761   0.222   3.483   1.820
 1059SOL    HW2 3762   0.245   3.329   1.770
 1060SOL     OW 3763   0.671   2.326   1.269
 1060SOL    HW1 3764   0.637   2.237   1.239
 1060SOL    HW2 3765   0.697   2.380   1.189
 1061SOL     OW 3766   0.930   3.540   1.465
 1061SOL    HW1 3767   0.906   3.522   1.370
 1061SOL    HW2 3768   0.960   3.634   1.475
 1062SOL     OW 3769   0.473   2.362   0.191
 1062SOL    HW1 3770   0.534   2.442   0.195
 1062SOL    HW2 3771   0.378   2.393   0.198
 1063SOL     OW 3772   0.159   2.999   1.466
 1063SOL    HW1 3773   0.181   2.938   1.542
 1063SOL    HW2 3774   0.169   2.950   1.380
 1064SOL     OW 3775   1.347   2.921   1.234
 1064SOL    HW1 3776   1.371   2.858   1.160
 1064SOL    HW2 3777   1.257   2.961   1.216
 1065SOL     OW 3778   1.302   2.717   0.309
 1065SOL    HW1 3779   1.216   2.686   0.351
 1065SOL    HW2 3780   1.298   2.703   0.210
 1066SOL     OW 3781   1.759   3.609   1.154
 1066SOL    HW1 3782   1.820   3.639   1.081
 1066SOL    HW2 3783   1.721   3.520   1.132
 1067SOL     OW 3784   1.252   3.593   1.128
 1067SOL    HW1 3785   1.336   3.598   1.074
 1067SOL    HW2 3786   1.229   3.497   1.146
 1068SOL     OW 3787   0.083   3.120   1.022
 1068SOL    HW1 3788   0.078   3.119   1.122
 1068SOL    HW2 3789   0.000   3.079   0.984
 1069SOL     OW 3790   0.688   3.524   1.716
 1069SOL    HW1 3791   0.632   3.605   1.725
 1069SOL    HW2 3792   0.740   3.528   1.630
 1070SOL     OW 3793   0.903   1.948   0.133
 1070SOL    HW1 3794   0.954   1.949   0.047
 1070SOL    HW2 3795   0.959   1.906   0.204
 1071SOL     OW 3796   1.726   1.997   0.523
 1071SOL    HW1 3797   1.799   1.980   0.456
 1071SOL    HW2 3798   1.695   1.910   0.561
 1072SOL     OW 3799   1.388   3.435   0.477
 1072SOL    HW1 3800   1.455   3.447   0.403
 1072SOL    HW2 3801   1.348   3.524   0.500
 1073SOL     OW 3802   0.130   3.656   1.851
 1073SOL    HW1 3803   0.089   3.582   1.904
 1073SOL    HW2 3804   0.194   3.707   1.909
 1074SOL     OW 3805   1.280   2.789   0.672
 1074SOL    HW1 3806   1.340   2.708   0.674
 1074SOL    HW2 3807   1.320   2.858   0.612
 1075SOL     OW 3808   0.830   3.135   1.422
 1075SOL    HW1 3809   0.825   3.168   1.517
 1075SOL    HW2 3810   0.744   3.154   1.376
 1076SOL     OW 3811   0.672   3.478   0.154
 1076SOL    HW1 3812   0.681   3.488   0.055
 1076SOL    HW2 3813   0.632   3.389   0.175
 1077SOL     OW 3814   1.650   3.582   1.394
 1077SOL    HW1 3815   1.703   3.592   1.310
 1077SOL    HW2 3816   1.623   3.672   1.428
 1078SOL     OW 3817   1.841   2.037   0.963
 1078SOL    HW1 3818   1.880   1.952   0.927
 1078SOL    HW2 3819   1.743   2.039   0.944
 1079SOL     OW 3820   0.263   2.188   0.720
 1079SOL    HW1 3821   0.184   2.239   0.686
 1079SOL    HW2 3822   0.254   2.173   0.818
 1080SOL     OW 3823   1.194   3.474   0.031
 1080SOL    HW1 3824   1.200   3.381   0.068
 1080SOL    HW2 3825   1.135   3.474  -0.049
 1081SOL     OW 3826   0.822   2.864   1.372
 1081SOL    HW1 3827   0.862   2.863   1.280
 1081SOL    HW2 3828   0.832   2.956   1.412
 1082SOL     OW 3829   0.916   2.772   0.291
 1082SOL    HW1 3830   0.979   2.810   0.223
 1082SOL    HW2 3831   0.956   2.689   0.330
 1083SOL     OW 3832   1.504   3.469   0.044
 1083SOL    HW1 3833   1.412   3.506   0.051
 1083SOL    HW2 3834   1.542   3.489  -0.046
 1084SOL     OW 3835   0.372   3.150   1.490
 1084SOL    HW1 3836   0.359   3.243   1.456
 1084SOL    HW2 3837   0.288   3.098   1.477
 1085SOL     OW 3838   1.614   3.154   1.289
 1085SOL    HW1 3839   1.674   3.157   1.369
 1085SOL    HW2 3840   1.539   3.218   1.302
 1086SOL     OW 3841   1.039   2.960   0.696
 1086SOL    HW1 3842   0.969   2.913   0.750
 1086SOL    HW2 3843   1.098   2.892   0.653
 1087SOL     OW 3844   1.014   2.098   0.971
 1087SOL    HW1 3845   1.006   2.062   0.878
 1087SOL    HW2 3846   1.012   2.022   1.036
 1088SOL     OW 3847   0.590   3.349   0.491
 1088SOL    HW1 3848   0.632   3.291   0.421
 1088SOL    HW2 3849   0.546   3.428   0.447
 1089SOL     OW 3850   1.709   2.247   1.381
 1089SOL    HW1 3851   1.782   2.316   1.385
 1089SOL    HW2 3852   1.737   2.172   1.322
 1090SOL     OW 3853   0.255   3.210   0.290
 1090SOL    HW1 3854   0.159   3.211   0.263
 1090SOL    HW2 3855   0.267   3.263   0.374
 1091SOL     OW 3856   0.105   2.875   1.726
 1091SOL    HW1 3857   0.028   2.842   1.780
 1091SOL    HW2 3858   0.190   2.845   1.768
 1092SOL     OW 3859   0.672   2.065   1.489
 1092SOL    HW1 3860   0.762   2.049   1.449
 1092SOL    HW2 3861   0.680   2.070   1.588
 1093SOL     OW 3862   0.075   2.207   0.033
 1093SOL    HW1 3863  -0.017   2.179   0.004
 1093SOL    HW2 3864   0.106   2.284  -0.023
 1094SOL     OW 3865   1.440   2.718   1.398
 1094SOL    HW1 3866   1.383   2.770   1.335
 1094SOL    HW2 3867   1.536   2.730   1.374
 1095SOL     OW 3868   0.072   2.028   0.318
 1095SOL    HW1 3869   0.055   2.111   0.264
 1095SOL    HW2 3870   0.162   1.991   0.296
 1096SOL     OW 3871   1.183   3.197   0.119
 1096SOL    HW1 3872   1.084   3.186   0.121
 1096SOL    HW2 3873   1.217   3.212   0.212
 1097SOL     OW 3874   0.613   2.704   1.431
 1097SOL    HW1 3875   0.669   2.785   1.414
 1097SOL    HW2 3876   0.672   2.624   1.434
 1098SOL     OW 3877   1.493   3.629   0.959
 1098SOL    HW1 3878   1.526   3.693   0.890
 1098SOL    HW2 3879   1.559   3.623   1.034
 1099SOL     OW 3880   0.716   2.427   1.708
 1099SOL    HW1 3881   0.735   2.492   1.782
 1099SOL    HW2 3882   0.776   2.347   1.717
 1100SOL     OW 3883   1.450   3.082   1.633
 1100SOL    HW1 3884   1.441   3.072   1.732
 1100SOL    HW2 3885   1.546   3.075   1.607
 1101SOL     OW 3886   0.390   3.603   1.560
 1101SOL    HW1 3887   0.299   3.644   1.558
 1101SOL    HW2 3888   0.383   3.509   1.592
 1102SOL     OW 3889   1.674   2.745   1.254
 1102SOL    HW1 3890   1.647   2.656   1.217
 1102SOL    HW2 3891   1.675   2.813   1.181
 1103SOL     OW 3892   1.225   2.187   0.449
 1103SOL    HW1 3893   1.290   2.113   0.438
 1103SOL    HW2 3894   1.245   2.237   0.533
 1104SOL     OW 3895   0.594   2.607   0.652
 1104SOL    HW1 3896   0.644   2.692   0.633
 1104SOL    HW2 3897   0.506   2.609   0.604
 1105SOL     OW 3898   1.777   2.204   1.642
 1105SOL    HW1 3899   1.760   2.235   1.548
 1105SOL    HW2 3900   1.693   2.167   1.680
 1106SOL     OW 3901   1.730   2.796   1.517
 1106SOL    HW1 3902   1.768   2.887   1.532
 1106SOL    HW2 3903   1.722   2.779   1.418
 1107SOL     OW 3904   0.859   3.236   0.016
 1107SOL    HW1 3905   0.813   3.251   0.104
 1107SOL    HW2 3906   0.903   3.321  -0.014
 1108SOL     OW 3907   0.661   3.652   0.953
 1108SOL    HW1 3908   0.615   3.740   0.940
 1108SOL    HW2 3909   0.760   3.664   0.946
 1109SOL     OW 3910   0.859   2.818   0.861
 1109SOL    HW1 3911   0.913   2.749   0.909
 1109SOL    HW2 3912   0.827   2.887   0.927
 1110SOL     OW 3913   1.083   2.846   0.087
 1110SOL    HW1 3914   1.060   2.899   0.005
 1110SOL    HW2 3915   1.164   2.790   0.068
 1111SOL     OW 3916   1.861   3.431   0.851
 1111SOL    HW1 3917   1.790   3.419   0.781
 1111SOL    HW2 3918   1.862   3.352   0.911
 1112SOL     OW 3919   0.221   3.176   1.844
 1112SOL    HW1 3920   0.156   3.103   1.823
 1112SOL    HW2 3921   0.225   3.190   1.942
 1113SOL     OW 3922   0.079   3.102   0.653
 1113SOL    HW1 3923   0.078   3.055   0.741
 1113SOL    HW2 3924   0.161   3.074   0.602
 1114SOL     OW 3925   0.672   3.253   1.624
 1114SOL    HW1 3926   0.594   3.203   1.662
 1114SOL    HW2 3927   0.669   3.348   1.655
 1115SOL     OW 3928   1.824   2.054   1.227
 1115SOL    HW1 3929   1.820   1.964   1.271
 1115SOL    HW2 3930   1.827   2.043   1.128
 1116SOL     OW 3931   0.428   2.286   0.520
 1116SOL    HW1 3932   0.458   2.214   0.458
 1116SOL    HW2 3933   0.389   2.246   0.603
 1117SOL     OW 3934   1.705   3.349   1.104
 1117SOL    HW1 3935   1.612   3.324   1.077
 1117SOL    HW2 3936   1.731   3.299   1.186
 1118SOL     OW 3937   0.317   2.409   1.280
 1118SOL    HW1 3938   0.355   2.350   1.352
 1118SOL    HW2 3939   0.357   2.383   1.192
 1119SOL     OW 3940   0.812   3.448   0.687
 1119SOL    HW1 3941   0.844   3.458   0.593
 1119SOL    HW2 3942   0.733   3.386   0.689
 1120SOL     OW 3943   1.424   2.076   1.112
 1120SOL    HW1 3944   1.476   2.011   1.167
 1120SOL    HW2 3945   1.375   2.139   1.173
 1121SOL     OW 3946   1.001   1.896   1.154
 1121SOL    HW1 3947   0.938   1.824   1.123
 1121SOL    HW2 3948   1.094   1.860   1.154
 1122SOL     OW 3949   0.770   3.192   0.301
 1122SOL    HW1 3950   0.724   3.105   0.318
 1122SOL    HW2 3951   0.861   3.189   0.342
 1123SOL     OW 3952   0.618   3.429   1.284
 1123SOL    HW1 3953   0.613   3.511   1.341
 1123SOL    HW2 3954   0.707   3.426   1.239
 1124SOL     OW 3955   1.352   1.914   0.168
 1124SOL    HW1 3956   1.387   1.873   0.084
 1124SOL    HW2 3957   1.262   1.876   0.188
 1125SOL     OW 3958   1.300   2.315   0.691
 1125SOL    HW1 3959   1.241   2.395   0.695
 1125SOL    HW2 3960   1.315   2.280   0.784
 1126SOL     OW 3961   1.593   2.083   0.882
 1126SOL    HW1 3962   1.509   2.082   0.936
 1126SOL    HW2 3963   1.595   2.166   0.826
 1127SOL     OW 3964   0.039   2.939   0.300
 1127SOL    HW1 3965   0.138   2.928   0.291
 1127SOL    HW2 3966  -0.001   2.853   0.332
 1128SOL     OW 3967   0.875   3.508   0.337
 1128SOL    HW1 3968   0.798   3.473   0.283
 1128SOL    HW2 3969   0.843   3.579   0.399
 1129SOL     OW 3970   0.230   2.490   1.975
 1129SOL    HW1 3971   0.137   2.488   2.012
 1129SOL    HW2 3972   0.231   2.451   1.883
 1130SOL     OW 3973   0.225   2.137   2.858
 1130SOL    HW1 3974   0.260   2.120   2.950
 1130SOL    HW2 3975   0.137   2.092   2.846
 1131SOL     OW 3976   0.019   2.230   2.509
 1131SOL    HW1 3977  -0.063   2.273   2.548
 1131SOL    HW2 3978  -0.009   2.157   2.446
 1132SOL     OW 3979   0.569   3.137   3.027
 1132SOL    HW1 3980   0.476   3.130   2.990
 1132SOL    HW2 3981   0.580   3.226   3.071
 1133SOL     OW 3982   1.555   3.373   2.565
 1133SOL    HW1 3983   1.498   3.357   2.646
 1133SOL    HW2 3984   1.496   3.383   2.485
 1134SOL     OW 3985   1.135   2.565   2.579
 1134SOL    HW1 3986   1.192   2.643   2.554
 1134SOL    HW2 3987   1.075   2.591   2.655
 1135SOL     OW 3988   1.755   2.469   2.093
 1135SOL    HW1 3989   1.743   2.456   1.994
 1135SOL    HW2 3990   1.725   2.388   2.142
 1136SOL     OW 3991   0.768   3.006   2.885
 1136SOL    HW1 3992   0.690   3.023   2.945
 1136SOL    HW2 3993   0.802   3.093   2.849
 1137SOL     OW 3994   0.850   2.660   3.685
 1137SOL    HW1 3995   0.846   2.736   3.750
 1137SOL    HW2 3996   0.872   2.696   3.594
 1138SOL     OW 3997   0.685   2.874   2.527
 1138SOL    HW1 3998   0.754   2.858   2.597
 1138SOL    HW2 3999   0.612   2.931   2.565
 1139SOL     OW 4000   0.686   3.023   3.665
 1139SOL    HW1 4001   0.746   3.102   3.679
 1139SOL    HW2 4002   0.600   3.054   3.624
 1140SOL     OW 4003   0.335   3.297   2.923
 1140SOL    HW1 4004   0.257   3.266   2.870
 1140SOL    HW2 4005   0.393   3.355   2.866
 1141SOL     OW 4006   1.460   3.367   3.201
 1141SOL    HW1 4007   1.484   3.461   3.227
 1141SOL    HW2 4008   1.444   3.313   3.283
 1142SOL     OW 4009   0.438   2.254   3.361
 1142SOL    HW1 4010   0.520   2.198   3.370
 1142SOL    HW2 4011   0.357   2.196   3.365
 1143SOL     OW 4012   1.603   2.309   2.599
 1143SOL    HW1 4013   1.529   2.355   2.549
 1143SOL    HW2 4014   1.654   2.377   2.652
 1144SOL     OW 4015   0.231   3.575   2.345
 1144SOL    HW1 4016   0.265   3.652   2.399
 1144SOL    HW2 4017   0.275   3.575   2.255
 1145SOL     OW 4018   1.127   3.203   3.552
 1145SOL    HW1 4019   1.174   3.203   3.640
 1145SOL    HW2 4020   1.079   3.116   3.541
 1146SOL     OW 4021   0.230   3.296   2.400
 1146SOL    HW1 4022   0.204   3.392   2.400
 1146SOL    HW2 4023   0.159   3.242   2.445
 1147SOL     OW 4024   0.240   2.953   2.748
 1147SOL    HW1 4025   0.254   2.869   2.800
 1147SOL    HW2 4026   0.185   3.017   2.803
 1148SOL     OW 4027   0.620   3.648   3.301
 1148SOL    HW1 4028   0.528   3.631   3.336
 1148SOL    HW2 4029   0.648   3.740   3.327
 1149SOL     OW 4030   0.606   2.826   1.985
 1149SOL    HW1 4031   0.613   2.910   1.931
 1149SOL    HW2 4032   0.652   2.839   2.073
 1150SOL     OW 4033   1.594   1.976   3.342
 1150SOL    HW1 4034   1.576   2.043   3.270
 1150SOL    HW2 4035   1.591   2.022   3.431
 1151SOL     OW 4036   0.122   2.505   2.425
 1151SOL    HW1 4037   0.077   2.417   2.442
 1151SOL    HW2 4038   0.121   2.559   2.509
 1152SOL     OW 4039   1.842   3.629   2.221
 1152SOL    HW1 4040   1.896   3.600   2.301
 1152SOL    HW2 4041   1.872   3.719   2.192
 1153SOL     OW 4042   0.027   3.458   1.979
 1153SOL    HW1 4043   0.008   3.362   2.000
 1153SOL    HW2 4044  -0.006   3.516   2.054
 1154SOL     OW 4045   1.689   2.784   2.474
 1154SOL    HW1 4046   1.784   2.755   2.482
 1154SOL    HW2 4047   1.681   2.849   2.399
 1155SOL     OW 4048   1.641   2.970   2.294
 1155SOL    HW1 4049   1.727   2.972   2.242
 1155SOL    HW2 4050   1.655   3.017   2.382
 1156SOL     OW 4051   0.113   2.599   3.459
 1156SOL    HW1 4052   0.201   2.586   3.504
 1156SOL    HW2 4053   0.100   2.696   3.437
 1157SOL     OW 4054   0.613   3.227   2.588
 1157SOL    HW1 4055   0.564   3.140   2.597
 1157SOL    HW2 4056   0.590   3.270   2.501
 1158SOL     OW 4057   1.293   3.090   3.285
 1158SOL    HW1 4058   1.330   3.017   3.227
 1158SOL    HW2 4059   1.345   3.095   3.370
 1159SOL     OW 4060   0.809   1.866   2.364
 1159SOL    HW1 4061   0.849   1.957   2.355
 1159SOL    HW2 4062   0.709   1.874   2.370
 1160SOL     OW 4063   0.197   2.838   3.126
 1160SOL    HW1 4064   0.286   2.793   3.112
 1160SOL    HW2 4065   0.124   2.773   3.107
 1161SOL     OW 4066   1.525   2.861   2.052
 1161SOL    HW1 4067   1.462   2.785   2.065
 1161SOL    HW2 4068   1.573   2.879   2.138
 1162SOL     OW 4069   1.187   3.654   3.478
 1162SOL    HW1 4070   1.211   3.714   3.402
 1162SOL    HW2 4071   1.194   3.559   3.448
 1163SOL     OW 4072   0.317   2.113   3.663
 1163SOL    HW1 4073   0.388   2.184   3.669
 1163SOL    HW2 4074   0.229   2.152   3.691
 1164SOL     OW 4075   1.466   3.279   2.815
 1164SOL    HW1 4076   1.407   3.285   2.895
 1164SOL    HW2 4077   1.451   3.191   2.769
 1165SOL     OW 4078   1.667   3.576   2.434
 1165SOL    HW1 4079   1.626   3.553   2.346
 1165SOL    HW2 4080   1.649   3.502   2.499
 1166SOL     OW 4081   0.598   2.591   2.132
 1166SOL    HW1 4082   0.622   2.660   2.064
 1166SOL    HW2 4083   0.520   2.624   2.186
 1167SOL     OW 4084   1.281   2.207   2.806
 1167SOL    HW1 4085   1.195   2.157   2.793
 1167SOL    HW2 4086   1.343   2.153   2.862
 1168SOL     OW 4087   1.576   3.524   2.169
 1168SOL    HW1 4088   1.665   3.570   2.172
 1168SOL    HW2 4089   1.555   3.500   2.074
 1169SOL     OW 4090   0.807   2.467   3.327
 1169SOL    HW1 4091   0.760   2.464   3.416
 1169SOL    HW2 4092   0.756   2.412   3.261
 1170SOL     OW 4093   1.394   2.331   3.536
 1170SOL    HW1 4094   1.374   2.374   3.624
 1170SOL    HW2 4095   1.472   2.269   3.545
 1171SOL     OW 4096   0.973   2.752   3.434
 1171SOL    HW1 4097   1.019   2.668   3.405
 1171SOL    HW2 4098   0.917   2.786   3.359
 1172SOL     OW 4099   0.991   2.272   3.104
 1172SOL    HW1 4100   0.914   2.306   3.158
 1172SOL    HW2 4101   0.957   2.221   3.025
 1173SOL     OW 4102   1.041   2.563   2.291
 1173SOL    HW1 4103   1.067   2.559   2.387
 1173SOL    HW2 4104   0.956   2.512   2.277
 1174SOL     OW 4105   0.076   2.673   2.651
 1174SOL    HW1 4106   0.175   2.661   2.660
 1174SOL    HW2 4107   0.052   2.768   2.672
 1175SOL     OW 4108   0.130   3.683   3.433
 1175SOL    HW1 4109   0.120   3.668   3.532
 1175SOL    HW2 4110   0.044   3.719   3.397
 1176SOL     OW 4111   0.865   2.210   2.057
 1176SOL    HW1 4112   0.924   2.273   2.008
 1176SOL    HW2 4113   0.884   2.116   2.028
 1177SOL     OW 4114   1.719   2.447   3.693
 1177SOL    HW1 4115   1.693   2.536   3.657
 1177SOL    HW2 4116   1.717   2.379   3.620
 1178SOL     OW 4117   1.362   3.006   2.407
 1178SOL    HW1 4118   1.445   2.977   2.359
 1178SOL    HW2 4119   1.313   3.073   2.351
 1179SOL     OW 4120   0.550   2.058   2.747
 1179SOL    HW1 4121   0.545   2.053   2.847
 1179SOL    HW2 4122   0.552   2.154   2.718
 1180SOL     OW 4123   1.008   3.318   2.339
 1180SOL    HW1 4124   0.962   3.390   2.287
 1180SOL    HW2 4125   1.004   3.338   2.437
 1181SOL     OW 4126   0.351   3.663   2.715
 1181SOL    HW1 4127   0.401   3.577   2.721
 1181SOL    HW2 4128   0.416   3.740   2.712
 1182SOL     OW 4129   1.795   2.928   2.735
 1182SOL    HW1 4130   1.733   2.913   2.659
 1182SOL    HW2 4131   1.743   2.939   2.820
 1183SOL     OW 4132   1.227   3.412   3.368
 1183SOL    HW1 4133   1.233   3.335   3.432
 1183SOL    HW2 4134   1.175   3.386   3.288
 1184SOL     OW 4135   0.321   2.805   2.104
 1184SOL    HW1 4136   0.403   2.844   2.062
 1184SOL    HW2 4137   0.294   2.723   2.055
 1185SOL     OW 4138   1.458   2.597   2.590
 1185SOL    HW1 4139   1.453   2.532   2.665
 1185SOL    HW2 4140   1.538   2.656   2.603
 1186SOL     OW 4141   0.461   3.128   3.589
 1186SOL    HW1 4142   0.411   3.129   3.503
 1186SOL    HW2 4143   0.398   3.110   3.665
 1187SOL     OW 4144   1.111   3.638   2.099
 1187SOL    HW1 4145   1.051   3.576   2.149
 1187SOL    HW2 4146   1.142   3.594   2.014
 1188SOL     OW 4147   0.202   2.147   3.360
 1188SOL    HW1 4148   0.122   2.207   3.347
 1188SOL    HW2 4149   0.192   2.098   3.446
 1189SOL     OW 4150   1.632   3.239   1.943
 1189SOL    HW1 4151   1.600   3.333   1.933
 1189SOL    HW2 4152   1.556   3.176   1.931
 1190SOL     OW 4153   0.464   3.605   2.185
 1190SOL    HW1 4154   0.497   3.644   2.271
 1190SOL    HW2 4155   0.540   3.598   2.120
 1191SOL     OW 4156   1.400   1.969   2.288
 1191SOL    HW1 4157   1.376   1.932   2.198
 1191SOL    HW2 4158   1.499   1.985   2.292
 1192SOL     OW 4159   0.249   3.647   3.103
 1192SOL    HW1 4160   0.306   3.582   3.153
 1192SOL    HW2 4161   0.233   3.614   3.010
 1193SOL     OW 4162   0.940   3.560   2.766
 1193SOL    HW1 4163   1.020   3.503   2.787
 1193SOL    HW2 4164   0.891   3.520   2.689
 1194SOL     OW 4165   0.382   2.562   2.342
 1194SOL    HW1 4166   0.427   2.472   2.339
 1194SOL    HW2 4167   0.288   2.551   2.375
 1195SOL     OW 4168   1.547   2.084   3.591
 1195SOL    HW1 4169   1.542   2.121   3.683
 1195SOL    HW2 4170   1.475   2.015   3.579
 1196SOL     OW 4171   0.614   1.984   1.979
 1196SOL    HW1 4172   0.712   1.962   1.986
 1196SOL    HW2 4173   0.583   1.967   1.886
 1197SOL     OW 4174   0.781   2.126   3.611
 1197SOL    HW1 4175   0.848   2.065   3.654
 1197SOL    HW2 4176   0.708   2.145   3.676
 1198SOL     OW 4177   0.888   3.376   3.057
 1198SOL    HW1 4178   0.865   3.351   2.963
 1198SOL    HW2 4179   0.949   3.307   3.096
 1199SOL     OW 4180   1.351   2.452   3.295
 1199SOL    HW1 4181   1.379   2.409   3.380
 1199SOL    HW2 4182   1.376   2.548   3.296
 1200SOL     OW 4183   0.803   3.264   2.786
 1200SOL    HW1 4184   0.893   3.278   2.744
 1200SOL    HW2 4185   0.732   3.266   2.715
 1201SOL     OW 4186   0.922   2.365   2.761
 1201SOL    HW1 4187   0.897   2.356   2.665
 1201SOL    HW2 4188   0.970   2.283   2.792
 1202SOL     OW 4189   0.539   1.926   2.374
 1202SOL    HW1 4190   0.458   1.927   2.432
 1202SOL    HW2 4191   0.542   2.009   2.319
 1203SOL     OW 4192   1.434   3.050   1.903
 1203SOL    HW1 4193   1.466   2.974   1.960
 1203SOL    HW2 4194   1.342   3.077   1.933
 1204SOL     OW 4195   0.297   1.897   2.033
 1204SOL    HW1 4196   0.346   1.981   2.012
 1204SOL    HW2 4197   0.359   1.832   2.078
 1205SOL     OW 4198   0.935   2.098   2.342
 1205SOL    HW1 4199   0.887   2.139   2.264
 1205SOL    HW2 4200   1.034   2.096   2.323
 1206SOL     OW 4201   1.076   2.545   3.326
 1206SOL    HW1 4202   0.996   2.484   3.329
 1206SOL    HW2 4203   1.157   2.492   3.302
 1207SOL     OW 4204   1.227   3.432   2.655
 1207SOL    HW1 4205   1.248   3.506   2.590
 1207SOL    HW2 4206   1.295   3.432   2.728
 1208SOL     OW 4207   0.459   3.014   2.603
 1208SOL    HW1 4208   0.388   2.987   2.668
 1208SOL    HW2 4209   0.433   2.986   2.510
 1209SOL     OW 4210   1.271   3.659   2.453
 1209SOL    HW1 4211   1.315   3.723   2.389
 1209SOL    HW2 4212   1.221   3.711   2.523
 1210SOL     OW 4213   1.032   2.411   1.878
 1210SOL    HW1 4214   0.991   2.493   1.839
 1210SOL    HW2 4215   1.096   2.437   1.951
 1211SOL     OW 4216   0.078   2.418   3.248
 1211SOL    HW1 4217   0.170   2.417   3.207
 1211SOL    HW2 4218   0.072   2.492   3.315
 1212SOL     OW 4219   0.561   2.084   3.009
 1212SOL    HW1 4220   0.599   2.000   3.046
 1212SOL    HW2 4221   0.473   2.103   3.053
 1213SOL     OW 4222   0.866   2.316   2.504
 1213SOL    HW1 4223   0.834   2.388   2.442
 1213SOL    HW2 4224   0.890   2.235   2.451
 1214SOL     OW 4225   1.017   1.901   2.615
 1214SOL    HW1 4226   0.945   1.906   2.546
 1214SOL    HW2 4227   0.993   1.832   2.684
 1215SOL     OW 4228   1.429   3.035   2.729
 1215SOL    HW1 4229   1.374   2.951   2.722
 1215SOL    HW2 4230   1.455   3.064   2.637
 1216SOL     OW 4231   1.466   2.452   2.854
 1216SOL    HW1 4232   1.436   2.357   2.861
 1216SOL    HW2 4233   1.539   2.468   2.920
 1217SOL     OW 4234   1.857   2.695   2.239
 1217SOL    HW1 4235   1.899   2.631   2.303
 1217SOL    HW2 4236   1.819   2.644   2.161
 1218SOL     OW 4237   0.488   3.247   2.036
 1218SOL    HW1 4238   0.401   3.232   2.083
 1218SOL    HW2 4239   0.471   3.273   1.941
 1219SOL     OW 4240   1.664   3.142   2.519
 1219SOL    HW1 4241   1.763   3.150   2.533
 1219SOL    HW2 4242   1.619   3.226   2.550
 1220SOL     OW 4243   1.390   2.437   1.940
 1220SOL    HW1 4244   1.336   2.416   2.021
 1220SOL    HW2 4245   1.481   2.396   1.949
 1221SOL     OW 4246   0.527   2.118   2.190
 1221SOL    HW1 4247   0.554   2.059   2.115
 1221SOL    HW2 4248   0.527   2.213   2.159
 1222SOL     OW 4249   1.754   3.085   3.450
 1222SOL    HW1 4250   1.845   3.046   3.437
 1222SOL    HW2 4251   1.762   3.181   3.474
 1223SOL     OW 4252   1.064   3.209   3.202
 1223SOL    HW1 4253   0.984   3.186   3.257
 1223SOL    HW2 4254   1.147   3.183   3.251
 1224SOL     OW 4255   1.592   3.491   3.487
 1224SOL    HW1 4256   1.619   3.525   3.397
 1224SOL    HW2 4257   1.671   3.453   3.533
 1225SOL     OW 4258   1.111   3.057   2.962
 1225SOL    HW1 4259   1.071   3.101   3.043
 1225SOL    HW2 4260   1.070   3.094   2.879
 1226SOL     OW 4261   1.638   2.961   2.941
 1226SOL    HW1 4262   1.643   3.042   3.000
 1226SOL    HW2 4263   1.552   2.963   2.890
 1227SOL     OW 4264   0.915   1.951   3.264
 1227SOL    HW1 4265   0.940   1.931   3.169
 1227SOL    HW2 4266   0.987   2.007   3.306
 1228SOL     OW 4267   0.980   2.978   3.581
 1228SOL    HW1 4268   0.881   2.984   3.591
 1228SOL    HW2 4269   1.003   2.898   3.525
 1229SOL     OW 4270   0.705   2.912   2.230
 1229SOL    HW1 4271   0.691   2.919   2.329
 1229SOL    HW2 4272   0.789   2.861   2.212
 1230SOL     OW 4273   0.410   2.675   3.113
 1230SOL    HW1 4274   0.496   2.687   3.163
 1230SOL    HW2 4275   0.368   2.588   3.140
 1231SOL     OW 4276   1.274   2.248   3.124
 1231SOL    HW1 4277   1.295   2.322   3.188
 1231SOL    HW2 4278   1.185   2.265   3.081
 1232SOL     OW 4279   0.064   3.426   3.193
 1232SOL    HW1 4280   0.018   3.508   3.159
 1232SOL    HW2 4281   0.162   3.445   3.202
 1233SOL     OW 4282   0.367   2.962   2.363
 1233SOL    HW1 4283   0.360   3.045   2.307
 1233SOL    HW2 4284   0.371   2.882   2.303
 1234SOL     OW 4285   0.566   2.399   2.727
 1234SOL    HW1 4286   0.578   2.465   2.653
 1234SOL    HW2 4287   0.612   2.433   2.810
 1235SOL     OW 4288   1.252   3.210   2.250
 1235SOL    HW1 4289   1.302   3.287   2.290
 1235SOL    HW2 4290   1.157   3.212   2.282
 1236SOL     OW 4291   1.272   3.307   3.004
 1236SOL    HW1 4292   1.319   3.320   3.091
 1236SOL    HW2 4293   1.206   3.233   3.013
 1237SOL     OW 4294   1.582   2.501   2.334
 1237SOL    HW1 4295   1.551   2.562   2.407
 1237SOL    HW2 4296   1.632   2.553   2.265
 1238SOL     OW 4297   0.354   3.372   3.191
 1238SOL    HW1 4298   0.333   3.328   3.104
 1238SOL    HW2 4299   0.451   3.398   3.194
 1239SOL     OW 4300   0.402   2.613   3.460
 1239SOL    HW1 4301   0.470   2.668   3.413
 1239SOL    HW2 4302   0.442   2.525   3.487
 1240SOL     OW 4303   1.587   2.641   3.532
 1240SOL    HW1 4304   1.495   2.679   3.527
 1240SOL    HW2 4305   1.647   2.688   3.467
 1241SOL     OW 4306   1.013   1.967   3.632
 1241SOL    HW1 4307   1.019   2.052   3.580
 1241SOL    HW2 4308   1.045   1.891   3.575
 1242SOL     OW 4309   0.504   1.912   3.602
 1242SOL    HW1 4310   0.462   1.855   3.532
 1242SOL    HW2 4311   0.438   1.981   3.634
 1243SOL     OW 4312   0.573   2.732   2.891
 1243SOL    HW1 4313   0.617   2.821   2.882
 1243SOL    HW2 4314   0.510   2.732   2.968
 1244SOL     OW 4315   1.360   2.724   2.907
 1244SOL    HW1 4316   1.285   2.724   2.841
 1244SOL    HW2 4317   1.397   2.632   2.916
 1245SOL     OW 4318   1.209   2.387   2.137
 1245SOL    HW1 4319   1.222   2.303   2.191
 1245SOL    HW2 4320   1.180   2.461   2.197
 1246SOL     OW 4321   0.307   2.075   3.093
 1246SOL    HW1 4322   0.284   2.112   3.183
 1246SOL    HW2 4323   0.277   1.980   3.087
 1247SOL     OW 4324   0.037   3.172   3.144
 1247SOL    HW1 4325   0.090   3.123   3.212
 1247SOL    HW2 4326   0.059   3.270   3.149
 1248SOL     OW 4327   0.732   2.496   2.926
 1248SOL    HW1 4328   0.791   2.470   2.850
 1248SOL    HW2 4329   0.704   2.592   2.915
 1249SOL     OW 4330   1.728   2.797   3.716
 1249SOL    HW1 4331   1.682   2.790   3.627
 1249SOL    HW2 4332   1.666   2.841   3.782
 1250SOL     OW 4333   0.307   1.925   2.480
 1250SOL    HW1 4334   0.296   2.019   2.513
 1250SOL    HW2 4335   0.302   1.862   2.557
 1251SOL     OW 4336   1.622   2.229   2.236
 1251SOL    HW1 4337   1.624   2.153   2.300
 1251SOL    HW2 4338   1.574   2.306   2.276
 1252SOL     OW 4339   1.023   2.628   2.828
 1252SOL    HW1 4340   1.038   2.649   2.924
 1252SOL    HW2 4341   0.993   2.533   2.819
 1253SOL     OW 4342   0.980   3.435   3.562
 1253SOL    HW1 4343   0.960   3.479   3.474
 1253SOL    HW2 4344   1.019   3.344   3.546
 1254SOL     OW 4345   1.859   3.380   3.467
 1254SOL    HW1 4346   1.873   3.407   3.372
 1254SOL    HW2 4347   1.942   3.402   3.520
 1255SOL     OW 4348   0.350   2.760   3.666
 1255SOL    HW1 4349   0.426   2.804   3.714
 1255SOL    HW2 4350   0.385   2.713   3.584
 1256SOL     OW 4351   1.540   2.136   1.987
 1256SOL    HW1 4352   1.479   2.061   2.010
 1256SOL    HW2 4353   1.562   2.188   2.070
 1257SOL     OW 4354   1.303   2.700   1.904
 1257SOL    HW1 4355   1.337   2.607   1.919
 1257SOL    HW2 4356   1.321   2.727   1.809
 1258SOL     OW 4357   1.068   3.195   2.711
 1258SOL    HW1 4358   1.075   3.111   2.656
 1258SOL    HW2 4359   1.130   3.264   2.675
 1259SOL     OW 4360   0.319   2.672   2.811
 1259SOL    HW1 4361   0.412   2.708   2.816
 1259SOL    HW2 4362   0.313   2.587   2.863
 1260SOL     OW 4363   0.339   2.371   2.868
 1260SOL    HW1 4364   0.287   2.288   2.851
 1260SOL    HW2 4365   0.416   2.376   2.804
 1261SOL     OW 4366   1.138   2.242   3.540
 1261SOL    HW1 4367   1.093   2.305   3.604
 1261SOL    HW2 4368   1.231   2.273   3.523
 1262SOL     OW 4369   1.160   2.069   3.339
 1262SOL    HW1 4370   1.160   2.133   3.416
 1262SOL    HW2 4371   1.188   2.117   3.256
 1263SOL     OW 4372   0.008   3.188   2.062
 1263SOL    HW1 4373  -0.085   3.209   2.031
 1263SOL    HW2 4374   0.018   3.089   2.075
 1264SOL     OW 4375   0.088   3.663   2.789
 1264SOL    HW1 4376   0.046   3.577   2.762
 1264SOL    HW2 4377   0.182   3.666   2.755
 1265SOL     OW 4378   0.504   3.430   2.772
 1265SOL    HW1 4379   0.570   3.504   2.781
 1265SOL    HW2 4380   0.548   3.351   2.730
 1266SOL     OW 4381   1.002   2.658   3.100
 1266SOL    HW1 4382   1.043   2.626   3.186
 1266SOL    HW2 4383   0.906   2.631   3.097
 1267SOL     OW 4384   0.040   2.406   2.976
 1267SOL    HW1 4385   0.125   2.373   2.935
 1267SOL    HW2 4386   0.053   2.421   3.074
 1268SOL     OW 4387   0.189   2.382   3.584
 1268SOL    HW1 4388   0.248   2.342   3.514
 1268SOL    HW2 4389   0.131   2.453   3.543
 1269SOL     OW 4390   1.369   2.812   3.522
 1269SOL    HW1 4391   1.408   2.901   3.542
 1269SOL    HW2 4392   1.379   2.792   3.425
 1270SOL     OW 4393   0.815   2.434   2.187
 1270SOL    HW1 4394   0.822   2.345   2.141
 1270SOL    HW2 4395   0.721   2.468   2.179
 1271SOL     OW 4396   1.657   2.466   3.068
 1271SOL    HW1 4397   1.619   2.397   3.130
 1271SOL    HW2 4398   1.739   2.430   3.024
 1272SOL     OW 4399   0.252   3.426   3.606
 1272SOL    HW1 4400   0.222   3.483   3.682
 1272SOL    HW2 4401   0.245   3.329   3.632
 1273SOL     OW 4402   0.671   2.326   3.131
 1273SOL    HW1 4403   0.637   2.237   3.101
 1273SOL    HW2 4404   0.697   2.380   3.051
 1274SOL     OW 4405   0.930   3.540   3.327
 1274SOL    HW1 4406   0.906   3.522   3.232
 1274SOL    HW2 4407   0.960   3.634   3.337
 1275SOL     OW 4408   0.473   2.362   2.053
 1275SOL    HW1 4409   0.534   2.442   2.057
 1275SOL    HW2 4410   0.378   2.393   2.060
 1276SOL     OW 4411   0.159   2.999   3.328
 1276SOL    HW1 4412   0.181   2.938   3.404
 1276SOL    HW2 4413   0.169   2.950   3.242
 1277SOL     OW 4414   1.347   2.921   3.096
 1277SOL    HW1 4415   1.371   2.858   3.022
 1277SOL    HW2 4416   1.257   2.961   3.078
 1278SOL     OW 4417   1.302   2.717   2.171
 1278SOL    HW1 4418   1.216   2.686   2.213
 1278SOL    HW2 4419   1.298   2.703   2.072
 1279SOL     OW 4420   1.759   3.609   3.016
 1279SOL    HW1 4421   1.820   3.639   2.943
 1279SOL    HW2 4422   1.721   3.520   2.994
 1280SOL     OW 4423   1.252   3.593   2.990
 1280SOL    HW1 4424   1.336   3.598   2.936
 1280SOL    HW2 4425   1.229   3.497   3.008
 1281SOL     OW 4426   0.083   3.120   2.884
 1281SOL    HW1 4427   0.078   3.119   2.984
 1281SOL    HW2 4428   0.000   3.079   2.846
 1282SOL     OW 4429   0.688   3.524   3.578
 1282SOL    HW1 4430   0.632   3.605   3.587
 1282SOL    HW2 4431   0.740   3.528   3.492
 1283SOL     OW 4432   1.726   1.997   2.385
 1283SOL    HW1 4433   1.799   1.980   2.318
 1283SOL    HW2 4434   1.695   1.910   2.423
 1284SOL     OW 4435   1.388   3.435   2.339
 1284SOL    HW1 4436   1.455   3.447   2.265
 1284SOL    HW2 4437   1.348   3.524   2.362
 1285SOL     OW 4438   0.130   3.656   3.713
 1285SOL    HW1 4439   0.089   3.582   3.766
 1285SOL    HW2 4440   0.194   3.707   3.771
 1286SOL     OW 4441   1.280   2.789   2.534
 1286SOL    HW1 4442   1.340   2.708   2.536
 1286SOL    HW2 4443   1.320   2.858   2.474
 1287SOL     OW 4444   0.830   3.135   3.284
 1287SOL    HW1 4445   0.825   3.168   3.379
 1287SOL    HW2 4446   0.744   3.154   3.238
 1288SOL     OW 4447   0.672   3.478   2.016
 1288SOL    HW1 4448   0.681   3.488   1.917
 1288SOL    HW2 4449   0.632   3.389   2.037
 1289SOL     OW 4450   1.650   3.582   3.256
 1289SOL    HW1 4451   1.703   3.592   3.172
 1289SOL    HW2 4452   1.623   3.672   3.290
 1290SOL     OW 4453   1.841   2.037   2.825
 1290SOL    HW1 4454   1.880   1.952   2.789
 1290SOL    HW2 4455   1.743   2.039   2.806
 1291SOL     OW 4456   0.263   2.188   2.582
 1291SOL    HW1 4457   0.184   2.239   2.548
 1291SOL    HW2 4458   0.254   2.173   2.680
 1292SOL     OW 4459   1.194   3.474   1.893
 1292SOL    HW1 4460   1.200   3.381   1.930
 1292SOL    HW2 4461   1.135   3.474   1.813
 1293SOL     OW 4462   0.822   2.864   3.234
 1293SOL    HW1 4463   0.862   2.863   3.142
 1293SOL    HW2 4464   0.832   2.956   3.274
 1294SOL     OW 4465   0.916   2.772   2.153
 1294SOL    HW1 4466   0.979   2.810   2.085
 1294SOL    HW2 4467   0.956   2.689   2.192
 1295SOL     OW 4468   1.504   3.469   1.906
 1295SOL    HW1 4469   1.412   3.506   1.913
 1295SOL    HW2 4470   1.542   3.489   1.816
 1296SOL     OW 4471   0.372   3.150   3.352
 1296SOL    HW1 4472   0.359   3.243   3.318
 1296SOL    HW2 4473   0.288   3.098   3.339
 1297SOL     OW 4474   1.614   3.154   3.151
 1297SOL    HW1 4475   1.674   3.157   3.231
 1297SOL    HW2 4476   1.539   3.218   3.164
 1298SOL     OW 4477   1.039   2.960   2.558
 1298SOL    HW1 4478   0.969   2.913   2.612
 1298SOL    HW2 4479   1.098   2.892   2.515
 1299SOL     OW 4480   1.014   2.098   2.833
 1299SOL    HW1 4481   1.006   2.062   2.740
 1299SOL    HW2 4482   1.012   2.022   2.898
 1300SOL     OW 4483   0.590   3.349   2.353
 1300SOL    HW1 4484   0.632   3.291   2.283
 1300SOL    HW2 4485   0.546   3.428   2.309
 1301SOL     OW 4486   1.709   2.247   3.243
 1301SOL    HW1 4487   1.782   2.316   3.247
 1301SOL    HW2 4488   1.737   2.172   3.184
 1302SOL     OW 4489   0.255   3.210   2.152
 1302SOL    HW1 4490   0.159   3.211   2.125
 1302SOL    HW2 4491   0.267   3.263   2.236
 1303SOL     OW 4492   0.105   2.875   3.588
 1303SOL    HW1 4493   0.028   2.842   3.642
 1303SOL    HW2 4494   0.190   2.845   3.630
 1304SOL     OW 4495   0.672   2.065   3.351
 1304SOL    HW1 4496   0.762   2.049   3.311
 1304SOL    HW2 4497   0.680   2.070   3.450
 1305SOL     OW 4498   0.075   2.207   1.895
 1305SOL    HW1 4499  -0.017   2.179   1.866
 1305SOL    HW2 4500   0.106   2.284   1.839
 1306SOL     OW 4501   1.440   2.718   3.260
 1306SOL    HW1 4502   1.383   2.770   3.197
 1306SOL    HW2 4503   1.536   2.730   3.236
 1307SOL     OW 4504   0.072   2.028   2.180
 1307SOL    HW1 4505   0.055   2.111   2.126
 1307SOL    HW2 4506   0.162   1.991   2.158
 1308SOL     OW 4507   1.183   3.197   1.981
 1308SOL    HW1 4508   1.084   3.186   1.983
 1308SOL    HW2 4509   1.217   3.212   2.074
 1309SOL     OW 4510   0.613   2.704   3.293
 1309SOL    HW1 4511   0.669   2.785   3.276
 1309SOL    HW2 4512   0.672   2.624   3.296
 1310SOL     OW 4513   1.493   3.629   2.821
 1310SOL    HW1 4514   1.526   3.693   2.752
 1310SOL    HW2 4515   1.559   3.623   2.896
 1311SOL     OW 4516   0.716   2.427   3.570
 1311SOL    HW1 4517   0.735   2.492   3.644
 1311SOL    HW2 4518   0.776   2.347   3.579
 1312SOL     OW 4519   1.450   3.082   3.495
 1312SOL    HW1 4520   1.441   3.072   3.594
 1312SOL    HW2 4521   1.546   3.075   3.469
 1313SOL     OW 4522   0.390   3.603   3.422
 1313SOL    HW1 4523   0.299   3.644   3.420
 1313SOL    HW2 4524   0.383   3.509   3.454
 1314SOL     OW 4525   1.674   2.745   3.116
 1314SOL    HW1 4526   1.647   2.656   3.079
 1314SOL    HW2 4527   1.675   2.813   3.043
 1315SOL     OW 4528   1.225   2.187   2.311
 1315SOL    HW1 4529   1.290   2.113   2.300
 1315SOL    HW2 4530   1.245   2.237   2.395
 1316SOL     OW 4531   0.594   2.607   2.514
 1316SOL    HW1 4532   0.644   2.692   2.495
 1316SOL    HW2 4533   0.506   2.609   2.466
 1317SOL     OW 4534   1.777   2.204   3.504
 1317SOL    HW1 4535   1.760   2.235   3.410
 1317SOL    HW2 4536   1.693   2.167   3.542
 1318SOL     OW 4537   1.730   2.796   3.379
 1318SOL    HW1 4538   1.768   2.887   3.394
 1318SOL    HW2 4539   1.722   2.779   3.280
 1319SOL     OW 4540   0.859   3.236   1.878
 1319SOL    HW1 4541   0.813   3.251   1.966
 1319SOL    HW2 4542   0.903   3.321   1.848
 1320SOL     OW 4543   0.661   3.652   2.815
 1320SOL    HW1 4544   0.615   3.740   2.802
 1320SOL    HW2 4545   0.760   3.664   2.808
 1321SOL     OW 4546   0.859   2.818   2.723
 1321SOL    HW1 4547   0.913   2.749   2.771
 1321SOL    HW2 4548   0.827   2.887   2.789
 1322SOL     OW 4549   1.083   2.846   1.949
 1322SOL    HW1 4550   1.060   2.899   1.867
 1322SOL    HW2 4551   1.164   2.790   1.930
 1323SOL     OW 4552   1.861   3.431   2.713
 1323SOL    HW1 4553   1.790   3.419   2.643
 1323SOL    HW2 4554   1.862   3.352   2.773
 1324SOL     OW 4555   0.221   3.176   3.706
 1324SOL    HW1 4556   0.156   3.103   3.685
 1324SOL    HW2 4557   0.225   3.190   3.804
 1325SOL     OW 4558   0.079   3.102   2.515
 1325SOL    HW1 4559   0.078   3.055   2.603
 1325SOL    HW2 4560   0.161   3.074   2.464
 1326SOL     OW 4561   0.672   3.253   3.486
 1326SOL    HW1 4562   0.594   3.203   3.524
 1326SOL    HW2 4563   0.669   3.348   3.517
 1327SOL     OW 4564   1.824   2.054   3.089
 1327SOL    HW1 4565   1.820   1.964   3.133
 1327SOL    HW2 4566   1.827   2.043   2.990
 1328SOL     OW 4567   0.428   2.286   2.382
 1328SOL    HW1 4568   0.458   2.214   2.320
 1328SOL    HW2 4569   0.389   2.246   2.465
 1329SOL     OW 4570   1.705   3.349   2.966
 1329SOL    HW1 4571   1.612   3.324   2.939
 1329SOL    HW2 4572   1.731   3.299   3.048
 1330SOL     OW 4573   0.317   2.409   3.142
 1330SOL    HW1 4574   0.355   2.350   3.214
 1330SOL    HW2 4575   0.357   2.383   3.054
 1331SOL     OW 4576   0.812   3.448   2.549
 1331SOL    HW1 4577   0.844   3.458   2.455
 1331SOL    HW2 4578   0.733   3.386   2.551
 1332SOL     OW 4579   1.424   2.076   2.974
 1332SOL    HW1 4580   1.476   2.011   3.029
 1332SOL    HW2 4581   1.375   2.139   3.035
 1333SOL     OW 4582   1.001   1.896   3.016
 1333SOL    HW1 4583   0.938   1.824   2.985
 1333SOL    HW2 4584   1.094   1.860   3.016
 1334SOL     OW 4585   0.770   3.192   2.163
 1334SOL    HW1 4586   0.724   3.105   2.180
 1334SOL    HW2 4587   0.861   3.189   2.204
 1335SOL     OW 4588   0.618   3.429   3.146
 1335SOL    HW1 4589   0.613   3.511   3.203
 1335SOL    HW2 4590   0.707   3.426   3.101
 1336SOL     OW 4591   1.352   1.914   2.030
 1336SOL    HW1 4592   1.387   1.873   1.946
 1336SOL    HW2 4593   1.262   1.876   2.050
 1337SOL     OW 4594   1.300   2.315   2.553
 1337SOL    HW1 4595   1.241   2.395   2.557
 1337SOL    HW2 4596   1.315   2.280   2.646
 1338SOL     OW 4597   1.593   2.083   2.744
 1338SOL    HW1 4598   1.509   2.082   2.798
 1338SOL    HW2 4599   1.595   2.166   2.688
 1339SOL     OW 4600   0.039   2.939   2.162
 1339SOL    HW1 4601   0.138   2.928   2.153
 1339SOL    HW2 4602  -0.001   2.853   2.194
 1340SOL     OW 4603   0.875   3.508   2.199
 1340SOL    HW1 4604   0.798   3.473   2.145
 1340SOL    HW2 4605   0.843   3.579   2.261
 1341SOL     OW 4606   0.230   2.490   3.837
 1341SOL    HW1 4607   0.137   2.488   3.874
 1341SOL    HW2 4608   0.231   2.451   3.745
 1342SOL     OW 4609   0.225   2.137   4.720
 1342SOL    HW1 4610   0.260   2.120   4.812
 1342SOL    HW2 4611   0.137   2.092   4.708
 1343SOL     OW 4612   0.019   2.230   4.371
 1343SOL    HW1 4613  -0.063   2.273   4.410
 1343SOL    HW2 4614  -0.009   2.157   4.308
 1344SOL     OW 4615   0.569   3.137   4.889
 1344SOL    HW1 4616   0.476   3.130   4.852
 1344SOL    HW2 4617   0.580   3.226   4.933
 1345SOL     OW 4618   1.555   3.373   4.427
 1345SOL    HW1 4619   1.498   3.357   4.508
 1345SOL    HW2 4620   1.496   3.383   4.347
 1346SOL     OW 4621   1.135   2.565   4.441
 1346SOL    HW1 4622   1.192   2.643   4.416
 1346SOL    HW2 4623   1.075   2.591   4.517
 1347SOL     OW 4624   1.755   2.469   3.955
 1347SOL    HW1 4625   1.743   2.456   3.856
 1347SOL    HW2 4626   1.725   2.388   4.004
 1348SOL     OW 4627   0.768   3.006   4.747
 1348SOL    HW1 4628   0.690   3.023   4.807
 1348SOL    HW2 4629   0.802   3.093   4.711
 1349SOL     OW 4630   0.850   2.660   5.547
 1349SOL    HW1 4631   0.846   2.736   5.612
 1349SOL    HW2 4632   0.872   2.696   5.456
 1350SOL     OW 4633   0.685   2.874   4.389
 1350SOL    HW1 4634   0.754   2.858   4.459
 1350SOL    HW2 4635   0.612   2.931   4.427
 1351SOL     OW 4636   0.686   3.023   5.527
 1351SOL    HW1 4637   0.746   3.102   5.541
 1351SOL    HW2 4638   0.600   3.054   5.486
 1352SOL     OW 4639   0.335   3.297   4.785
 1352SOL    HW1 4640   0.257   3.266   4.732
 1352SOL    HW2 4641   0.393   3.355   4.728
 1353SOL     OW 4642   1.460   3.367   5.063
 1353SOL    HW1 4643   1.484   3.461   5.089
 1353SOL    HW2 4644   1.444   3.313   5.145
 1354SOL     OW 4645   0.438   2.254   5.223
 1354SOL    HW1 4646   0.520   2.198   5.232
 1354SOL    HW2 4647   0.357   2.196   5.227
 1355SOL     OW 4648   1.603   2.309   4.461
 1355SOL    HW1 4649   1.529   2.355   4.411
 1355SOL    HW2 4650   1.654   2.377   4.514
 1356SOL     OW 4651   0.231   3.575   4.207
 1356SOL    HW1 4652   0.265   3.652   4.261
 1356SOL    HW2 4653   0.275   3.575   4.117
 1357SOL     OW 4654   1.127   3.203   5.414
 1357SOL    HW1 4655   1.174   3.203   5.502
 1357SOL    HW2 4656   1.079   3.116   5.403
 1358SOL     OW 4657   0.230   3.296   4.262
 1358SOL    HW1 4658   0.204   3.392   4.262
 1358SOL    HW2 4659   0.159   3.242   4.307
 1359SOL     OW 4660   0.240   2.953   4.610
 1359SOL    HW1 4661   0.254   2.869   4.662
 1359SOL    HW2 4662   0.185   3.017   4.665
 1360SOL     OW 4663   0.620   3.648   5.163
 1360SOL    HW1 4664   0.528   3.631   5.198
 1360SOL    HW2 4665   0.648   3.740   5.189
 1361SOL     OW 4666   0.606   2.826   3.847
 1361SOL    HW1 4667   0.613   2.910   3.793
 1361SOL    HW2 4668   0.652   2.839   3.935
 1362SOL     OW 4669   1.594   1.976   5.204
 1362SOL    HW1 4670   1.576   2.043   5.132
 1362SOL    HW2 4671   1.591   2.022   5.293
 1363SOL     OW 4672   0.122   2.505   4.287
 1363SOL    HW1 4673   0.077   2.417   4.304
 1363SOL    HW2 4674   0.121   2.559   4.371
 1364SOL     OW 4675   1.842   3.629   4.083
 1364SOL    HW1 4676   1.896   3.600   4.163
 1364SOL    HW2 4677   1.872   3.719   4.054
 1365SOL     OW 4678   0.027   3.458   3.841
 1365SOL    HW1 4679   0.008   3.362   3.862
 1365SOL    HW2 4680  -0.006   3.516   3.916
 1366SOL     OW 4681   1.689   2.784   4.336
 1366SOL    HW1 4682   1.784   2.755   4.344
 1366SOL    HW2 4683   1.681   2.849   4.261
 1367SOL     OW 4684   1.641   2.970   4.156
 1367SOL    HW1 4685   1.727   2.972   4.104
 1367SOL    HW2 4686   1.655   3.017   4.244
 1368SOL     OW 4687   0.113   2.599   5.321
 1368SOL    HW1 4688   0.201   2.586   5.366
 1368SOL    HW2 4689   0.100   2.696   5.299
 1369SOL     OW 4690   0.613   3.227   4.450
 1369SOL    HW1 4691   0.564   3.140   4.459
 1369SOL    HW2 4692   0.590   3.270   4.363
 1370SOL     OW 4693   1.293   3.090   5.147
 1370SOL    HW1 4694   1.330   3.017   5.089
 1370SOL    HW2 4695   1.345   3.095   5.232
 1371SOL     OW 4696   0.809   1.866   4.226
 1371SOL    HW1 4697   0.849   1.957   4.217
 1371SOL    HW2 4698   0.709   1.874   4.232
 1372SOL     OW 4699   0.197   2.838   4.988
 1372SOL    HW1 4700   0.286   2.793   4.974
 1372SOL    HW2 4701   0.124   2.773   4.969
 1373SOL     OW 4702   1.525   2.861   3.914
 1373SOL    HW1 4703   1.462   2.785   3.927
 1373SOL    HW2 4704   1.573   2.879   4.000
 1374SOL     OW 4705   1.187   3.654   5.340
 1374SOL    HW1 4706   1.211   3.714   5.264
 1374SOL    HW2 4707   1.194   3.559   5.310
 1375SOL     OW 4708   0.317   2.113   5.525
 1375SOL    HW1 4709   0.388   2.184   5.531
 1375SOL    HW2 4710   0.229   2.152   5.553
 1376SOL     OW 4711   1.466   3.279   4.677
 1376SOL    HW1 4712   1.407   3.285   4.757
 1376SOL    HW2 4713   1.451   3.191   4.631
 1377SOL     OW 4714   1.667   3.576   4.296
 1377SOL    HW1 4715   1.626   3.553   4.208
 1377SOL    HW2 4716   1.649   3.502   4.361
 1378SOL     OW 4717   0.598   2.591   3.994
 1378SOL    HW1 4718   0.622   2.660   3.926
 1378SOL    HW2 4719   0.520   2.624   4.048
 1379SOL     OW 4720   1.281   2.207   4.668
 1379SOL    HW1 4721   1.195   2.157   4.655
 1379SOL    HW2 4722   1.343   2.153   4.724
 1380SOL     OW 4723   1.576   3.524   4.031
 1380SOL    HW1 4724   1.665   3.570   4.034
 1380SOL    HW2 4725   1.555   3.500   3.936
 1381SOL     OW 4726   0.807   2.467   5.189
 1381SOL    HW1 4727   0.760   2.464   5.278
 1381SOL    HW2 4728   0.756   2.412   5.123
 1382SOL     OW 4729   1.394   2.331   5.398
 1382SOL    HW1 4730   1.374   2.374   5.486
 1382SOL    HW2 4731   1.472   2.269   5.407
 1383SOL     OW 4732   0.973   2.752   5.296
 1383SOL    HW1 4733   1.019   2.668   5.267
 1383SOL    HW2 4734   0.917   2.786   5.221
 1384SOL     OW 4735   0.991   2.272   4.966
 1384SOL    HW1 4736   0.914   2.306   5.020
 1384SOL    HW2 4737   0.957   2.221   4.887
 1385SOL     OW 4738   1.041   2.563   4.153
 1385SOL    HW1 4739   1.067   2.559   4.249
 1385SOL    HW2 4740   0.956   2.512   4.139
 1386SOL     OW 4741   0.076   2.673   4.513
 1386SOL    HW1 4742   0.175   2.661   4.522
 1386SOL    HW2 4743   0.052   2.768   4.534
 1387SOL     OW 4744   0.130   3.683   5.295
 1387SOL    HW1 4745   0.120   3.668   5.394
 1387SOL    HW2 4746   0.044   3.719   5.259
 1388SOL     OW 4747   0.865   2.210   3.919
 1388SOL    HW1 4748   0.924   2.273   3.870
 1388SOL    HW2 4749   0.884   2.116   3.890
 1389SOL     OW 4750   1.719   2.447   5.555
 1389SOL    HW1 4751   1.693   2.536   5.519
 1389SOL    HW2 4752   1.717   2.379   5.482
 1390SOL     OW 4753   1.362   3.006   4.269
 1390SOL    HW1 4754   1.445   2.977   4.221
 1390SOL    HW2 4755   1.313   3.073   4.213
 1391SOL     OW 4756   0.550   2.058   4.609
 1391SOL    HW1 4757   0.545   2.053   4.709
 1391SOL    HW2 4758   0.552   2.154   4.580
 1392SOL     OW 4759   1.008   3.318   4.201
 1392SOL    HW1 4760   0.962   3.390   4.149
 1392SOL    HW2 4761   1.004   3.338   4.299
 1393SOL     OW 4762   0.351   3.663   4.577
 1393SOL    HW1 4763   0.401   3.577   4.583
 1393SOL    HW2 4764   0.416   3.740   4.574
 1394SOL     OW 4765   1.795   2.928   4.597
 1394SOL    HW1 4766   1.733   2.913   4.521
 1394SOL    HW2 4767   1.743   2.939   4.682
 1395SOL     OW 4768   1.227   3.412   5.230
 1395SOL    HW1 4769   1.233   3.335   5.294
 1395SOL    HW2 4770   1.175   3.386   5.150
 1396SOL     OW 4771   0.321   2.805   3.966
 1396SOL    HW1 4772   0.403   2.844   3.924
 1396SOL    HW2 4773   0.294   2.723   3.917
 1397SOL     OW 4774   1.458   2.597   4.452
 1397SOL    HW1 4775   1.453   2.532   4.527
 1397SOL    HW2 4776   1.538   2.656   4.465
 1398SOL     OW 4777   0.461   3.128   5.451
 1398SOL    HW1 4778   0.411   3.129   5.365
 1398SOL    HW2 4779   0.398   3.110   5.527
 1399SOL     OW 4780   1.111   3.638   3.961
 1399SOL    HW1 4781   1.051   3.576   4.011
 1399SOL    HW2 4782   1.142   3.594   3.876
 1400SOL     OW 4783   0.202   2.147   5.222
 1400SOL    HW1 4784   0.122   2.207   5.209
 1400SOL    HW2 4785   0.192   2.098   5.308
 1401SOL     OW 4786   1.632   3.239   3.805
 1401SOL    HW1 4787   1.600   3.333   3.795
 1401SOL    HW2 4788   1.556   3.176   3.793
 1402SOL     OW 4789   0.464   3.605   4.047
 1402SOL    HW1 4790   0.497   3.644   4.133
 1402SOL    HW2 4791   0.540   3.598   3.982
 1403SOL     OW 4792   1.400   1.969   4.150
 1403SOL    HW1 4793   1.376   1.932   4.060
 1403SOL    HW2 4794   1.499   1.985   4.154
 1404SOL     OW 4795   0.249   3.647   4.965
 1404SOL    HW1 4796   0.306   3.582   5.015
 1404SOL    HW2 4797   0.233   3.614   4.872
 1405SOL     OW 4798   0.940   3.560   4.628
 1405SOL    HW1 4799   1.020   3.503   4.649
 1405SOL    HW2 4800   0.891   3.520   4.551
 1406SOL     OW 4801   0.382   2.562   4.204
 1406SOL    HW1 4802   0.427   2.472   4.201
 1406SOL    HW2 4803   0.288   2.551   4.237
 1407SOL     OW 4804   1.547   2.084   5.453
 1407SOL    HW1 4805   1.542   2.121   5.545
 1407SOL    HW2 4806   1.475   2.015   5.441
 1408SOL     OW 4807   0.614   1.984   3.841
 1408SOL    HW1 4808   0.712   1.962   3.848
 1408SOL    HW2 4809   0.583   1.967   3.748
 1409SOL     OW 4810   0.781   2.126   5.473
 1409SOL    HW1 4811   0.848   2.065   5.516
 1409SOL    HW2 4812   0.708   2.145   5.538
 1410SOL     OW 4813   0.888   3.376   4.919
 1410SOL    HW1 4814   0.865   3.351   4.825
 1410SOL    HW2 4815   0.949   3.307   4.958
 1411SOL     OW 4816   1.351   2.452   5.157
 1411SOL    HW1 4817   1.379   2.409   5.242
 1411SOL    HW2 4818   1.376   2.548   5.158
 1412SOL     OW 4819   0.803   3.264   4.648
 1412SOL    HW1 4820   0.893   3.278   4.606
 1412SOL    HW2 4821   0.732   3.266   4.577
 1413SOL     OW 4822   0.922   2.365   4.623
 1413SOL    HW1 4823   0.897   2.356   4.527
 1413SOL    HW2 4824   0.970   2.283   4.654
 1414SOL     OW 4825   0.539   1.926   4.236
 1414SOL    HW1 4826   0.458   1.927   4.294
 1414SOL    HW2 4827   0.542   2.009   4.181
 1415SOL     OW 4828   1.434   3.050   3.765
 1415SOL    HW1 4829   1.466   2.974   3.822
 1415SOL    HW2 4830   1.342   3.077   3.795
 1416SOL     OW 4831   0.297   1.897   3.895
 1416SOL    HW1 4832   0.346   1.981   3.874
 1416SOL    HW2 4833   0.359   1.832   3.940
 1417SOL     OW 4834   0.935   2.098   4.204
 1417SOL    HW1 4835   0.887   2.139   4.126
 1417SOL    HW2 4836   1.034   2.096   4.185
 1418SOL     OW 4837   1.076   2.545   5.188
 1418SOL    HW1 4838   0.996   2.484   5.191
 1418SOL    HW2 4839   1.157   2.492   5.164
 1419SOL     OW 4840   1.227   3.432   4.517
 1419SOL    HW1 4841   1.248   3.506   4.452
 1419SOL    HW2 4842   1.295   3.432   4.590
 1420SOL     OW 4843   0.459   3.014   4.465
 1420SOL    HW1 4844   0.388   2.987   4.530
 1420SOL    HW2 4845   0.433   2.986   4.372
 1421SOL     OW 4846   1.271   3.659   4.315
 1421SOL    HW1 4847   1.315   3.723   4.251
 1421SOL    HW2 4848   1.221   3.711   4.385
 1422SOL     OW 4849   1.032   2.411   3.740
 1422SOL    HW1 4850   0.991   2.493   3.701
 1422SOL    HW2 4851   1.096   2.437   3.813
 1423SOL     OW 4852   0.078   2.418   5.110
 1423SOL    HW1 4853   0.170   2.417   5.069
 1423SOL    HW2 4854   0.072   2.492   5.177
 1424SOL     OW 4855   0.561   2.084   4.871
 1424SOL    HW1 4856   0.599   2.000   4.908
 1424SOL    HW2 4857   0.473   2.103   4.915
 1425SOL     OW 4858   0.866   2.316   4.366
 1425SOL    HW1 4859   0.834   2.388   4.304
 1425SOL    HW2 4860   0.890   2.235   4.313
 1426SOL     OW 4861   1.017   1.901   4.477
 1426SOL    HW1 4862   0.945   1.906   4.408
 1426SOL    HW2 4863   0.993   1.832   4.546
 1427SOL     OW 4864   1.429   3.035   4.591
 1427SOL    HW1 4865   1.374   2.951   4.584
 1427SOL    HW2 4866   1.455   3.064   4.499
 1428SOL     OW 4867   1.466   2.452   4.716
 1428SOL    HW1 4868   1.436   2.357   4.723
 1428SOL    HW2 4869   1.539   2.468   4.782
 1429SOL     OW 4870   0.488   3.247   3.898
 1429SOL    HW1 4871   0.401   3.232   3.945
 1429SOL    HW2 4872   0.471   3.273   3.803
 1430SOL     OW 4873   1.664   3.142   4.381
 1430SOL    HW1 4874   1.763   3.150   4.395
 1430SOL    HW2 4875   1.619   3.226   4.412
 1431SOL     OW 4876   1.390   2.437   3.802
 1431SOL    HW1 4877   1.336   2.416   3.883
 1431SOL    HW2 4878   1.481   2.396   3.811
 1432SOL     OW 4879   0.527   2.118   4.052
 1432SOL    HW1 4880   0.554   2.059   3.977
 1432SOL    HW2 4881   0.527   2.213   4.021
 1433SOL     OW 4882   1.754   3.085   5.312
 1433SOL    HW1 4883   1.845   3.046   5.299
 1433SOL    HW2 4884   1.762   3.181   5.336
 1434SOL     OW 4885   1.064   3.209   5.064
 1434SOL    HW1 4886   0.984   3.186   5.119
 1434SOL    HW2 4887   1.147   3.183   5.113
 1435SOL     OW 4888   1.592   3.491   5.349
 1435SOL    HW1 4889   1.619   3.525   5.259
 1435SOL    HW2 4890   1.671   3.453   5.395
 1436SOL     OW 4891   1.111   3.057   4.824
 1436SOL    HW1 4892   1.071   3.101   4.905
 1436SOL    HW2 4893   1.070   3.094   4.741
 1437SOL     OW 4894   1.638   2.961   4.803
 1437SOL    HW1 4895   1.643   3.042   4.862
 1437SOL    HW2 4896   1.552   2.963   4.752
 1438SOL     OW 4897   0.915   1.951   5.126
 1438SOL    HW1 4898   0.940   1.931   5.031
 1438SOL    HW2 4899   0.987   2.007   5.168
 1439SOL     OW 4900   0.980   2.978   5.443
 1439SOL    HW1 4901   0.881   2.984   5.453
 1439SOL    HW2 4902   1.003   2.898   5.387
 1440SOL     OW 4903   0.705   2.912   4.092
 1440SOL    HW1 4904   0.691   2.919   4.191
 1440SOL    HW2 4905   0.789   2.861   4.074
 1441SOL     OW 4906   0.410   2.675   4.975
 1441SOL    HW1 4907   0.496   2.687   5.025
 1441SOL    HW2 4908   0.368   2.588   5.002
 1442SOL     OW 4909   1.274   2.248   4.986
 1442SOL    HW1 4910   1.295   2.322   5.050
 1442SOL    HW2 4911   1.185   2.265   4.943
 1443SOL     OW 4912   0.064   3.426   5.055
 1443SOL    HW1 4913   0.018   3.508   5.021
 1443SOL    HW2 4914   0.162   3.445   5.064
 1444SOL     OW 4915   0.367   2.962   4.225
 1444SOL    HW1 4916   0.360   3.045   4.169
 1444SOL    HW2 4917   0.371   2.882   4.165
 1445SOL     OW 4918   0.566   2.399   4.589
 1445SOL    HW1 4919   0.578   2.465   4.515
 1445SOL    HW2 4920   0.612   2.433   4.672
 1446SOL     OW 4921   1.252   3.210   4.112
 1446SOL    HW1 4922   1.302   3.287   4.152
 1446SOL    HW2 4923   1.157   3.212   4.144
 1447SOL     OW 4924   1.272   3.307   4.866
 1447SOL    HW1 4925   1.319   3.320   4.953
 1447SOL    HW2 4926   1.206   3.233   4.875
 1448SOL     OW 4927   1.582   2.501   4.196
 1448SOL    HW1 4928   1.551   2.562   4.269
 1448SOL    HW2 4929   1.632   2.553   4.127
 1449SOL     OW 4930   0.354   3.372   5.053
 1449SOL    HW1 4931   0.333   3.328   4.966
 1449SOL    HW2 4932   0.451   3.398   5.056
 1450SOL     OW 4933   0.402   2.613   5.322
 1450SOL    HW1 4934   0.470   2.668   5.275
 1450SOL    HW2 4935   0.442   2.525   5.349
 1451SOL     OW 4936   1.587   2.641   5.394
 1451SOL    HW1 4937   1.495   2.679   5.389
 1451SOL    HW2 4938   1.647   2.688   5.329
 1452SOL     OW 4939   1.013   1.967   5.494
 1452SOL    HW1 4940   1.019   2.052   5.442
 1452SOL    HW2 4941   1.045   1.891   5.437
 1453SOL     OW 4942   0.504   1.912   5.464
 1453SOL    HW1 4943   0.462   1.855   5.394
 1453SOL    HW2 4944   0.438   1.981   5.496
 1454SOL     OW 4945   0.573   2.732   4.753
 1454SOL    HW1 4946   0.617   2.821   4.744
 1454SOL    HW2 4947   0.510   2.732   4.830
 1455SOL     OW 4948   1.360   2.724   4.769
 1455SOL    HW1 4949   1.285   2.724   4.703
 1455SOL    HW2 4950   1.397   2.632   4.778
 1456SOL     OW 4951   1.209   2.387   3.999
 1456SOL    HW1 4952   1.222   2.303   4.053
 1456SOL    HW2 4953   1.180   2.461   4.059
 1457SOL     OW 4954   0.307   2.075   4.955
 1457SOL    HW1 4955   0.284   2.112   5.045
 1457SOL    HW2 4956   0.277   1.980   4.949
 1458SOL     OW 4957   0.037   3.172   5.006
 1458SOL    HW1 4958   0.090   3.123   5.074
 1458SOL    HW2 4959   0.059   3.270   5.011
 1459SOL     OW 4960   0.732   2.496   4.788
 1459SOL    HW1 4961   0.791   2.470   4.712
 1459SOL    HW2 4962   0.704   2.592   4.777
 1460SOL     OW 4963   1.728   2.797   5.578
 1460SOL    HW1 4964   1.682   2.790   5.489
 1460SOL    HW2 4965   1.666   2.841   5.644
 1461SOL     OW 4966   0.307   1.925   4.342
 1461SOL    HW1 4967   0.296   2.019   4.375
 1461SOL    HW2 4968   0.302   1.862   4.419
 1462SOL     OW 4969   1.622   2.229   4.098
 1462SOL    HW1 4970   1.624   2.153   4.162
 1462SOL    HW2 4971   1.574   2.306   4.138
 1463SOL     OW 4972   1.023   2.628   4.690
 1463SOL    HW1 4973   1.038   2.649   4.786
 1463SOL    HW2 4974   0.993   2.533   4.681
 1464SOL     OW 4975   0.980   3.435   5.424
 1464SOL    HW1 4976   0.960   3.479   5.336
 1464SOL    HW2 4977   1.019   3.344   5.408
 1465SOL     OW 4978   1.859   3.380   5.329
 1465SOL    HW1 4979   1.873   3.407   5.234
 1465SOL    HW2 4980   1.942   3.402   5.382
 1466SOL     OW 4981   0.350   2.760   5.528
 1466SOL    HW1 4982   0.426   2.804   5.576
 1466SOL    HW2 4983   0.385   2.713   5.446
 1467SOL     OW 4984   1.540   2.136   3.849
 1467SOL    HW1 4985   1.479   2.061   3.872
 1467SOL    HW2 4986   1.562   2.188   3.932
 1468SOL     OW 4987   1.303   2.700   3.766
 1468SOL    HW1 4988   1.337   2.607   3.781
 1468SOL    HW2 4989   1.321   2.727   3.671
 1469SOL     OW 4990   1.068   3.195   4.573
 1469SOL    HW1 4991   1.075   3.111   4.518
 1469SOL    HW2 4992   1.130   3.264   4.537
 1470SOL     OW 4993   0.319   2.672   4.673
 1470SOL    HW1 4994   0.412   2.708   4.678
 1470SOL    HW2 4995   0.313   2.587   4.725
 1471SOL     OW 4996   0.339   2.371   4.730
 1471SOL    HW1 4997   0.287   2.288   4.713
 1471SOL    HW2 4998   0.416   2.376   4.666
 1472SOL     OW 4999   1.138   2.242   5.402
 1472SOL    HW1 5000   1.093   2.305   5.466
 1472SOL    HW2 5001   1.231   2.273   5.385
 1473SOL     OW 5002   1.160   2.069   5.201
 1473SOL    HW1 5003   1.160   2.133   5.278
 1473SOL    HW2 5004   1.188   2.117   5.118
 1474SOL     OW 5005   0.008   3.188   3.924
 1474SOL    HW1 5006  -0.085   3.209   3.893
 1474SOL    HW2 5007   0.018   3.089   3.937
 1475SOL     OW 5008   0.088   3.663   4.651
 1475SOL    HW1 5009   0.046   3.577   4.624
 1475SOL    HW2 5010   0.182   3.666   4.617
 1476SOL     OW 5011   0.504   3.430   4.634
 1476SOL    HW1 5012   0.570   3.504   4.643
 1476SOL    HW2 5013   0.548   3.351   4.592
 1477SOL     OW 5014   1.002   2.658   4.962
 1477SOL    HW1 5015   1.043   2.626   5.048
 1477SOL    HW2 5016   0.906   2.631   4.959
 1478SOL     OW 5017   0.040   2.406   4.838
 1478SOL    HW1 5018   0.125   2.373   4.797
 1478SOL    HW2 5019   0.053   2.421   4.936
 1479SOL     OW 5020   0.189   2.382   5.446
 1479SOL    HW1 5021   0.248   2.342   5.376
 1479SOL    HW2 5022   0.131   2.453   5.405
 1480SOL     OW 5023   1.369   2.812   5.384
 1480SOL    HW1 5024   1.408   2.901   5.404
 1480SOL    HW2 5025   1.379   2.792   5.287
 1481SOL     OW 5026   0.815   2.434   4.049
 1481SOL    HW1 5027   0.822   2.345   4.003
 1481SOL    HW2 5028   0.721   2.468   4.041
 1482SOL     OW 5029   1.657   2.466   4.930
 1482SOL    HW1 5030   1.619   2.397   4.992
 1482SOL    HW2 5031   1.739   2.430   4.886
 1483SOL     OW 5032   0.252   3.426   5.468
 1483SOL    HW1 5033   0.222   3.483   5.544
 1483SOL    HW2 5034   0.245   3.329   5.494
 1484SOL     OW 5035   0.671   2.326   4.993
 1484SOL    HW1 5036   0.637   2.237   4.963
 1484SOL    HW2 5037   0.697   2.380   4.913
 1485SOL     OW 5038   0.930   3.540   5.189
 1485SOL    HW1 5039   0.906   3.522   5.094
 1485SOL    HW2 5040   0.960   3.634   5.199
 1486SOL     OW 5041   0.473   2.362   3.915
 1486SOL    HW1 5042   0.534   2.442   3.919
 1486SOL    HW2 5043   0.378   2.393   3.922
 1487SOL     OW 5044   0.159   2.999   5.190
 1487SOL    HW1 5045   0.181   2.938   5.266
 1487SOL    HW2 5046   0.169   2.950   5.104
 1488SOL     OW 5047   1.347   2.921   4.958
 1488SOL    HW1 5048   1.371   2.858   4.884
 1488SOL    HW2 5049   1.257   2.961   4.940
 1489SOL     OW 5050   1.302   2.717   4.033
 1489SOL    HW1 5051   1.216   2.686   4.075
 1489SOL    HW2 5052   1.298   2.703   3.934
 1490SOL     OW 5053   1.759   3.609   4.878
 1490SOL    HW1 5054   1.820   3.639   4.805
 1490SOL    HW2 5055   1.721   3.520   4.856
 1491SOL     OW 5056   1.252   3.593   4.852
 1491SOL    HW1 5057   1.336   3.598   4.798
 1491SOL    HW2 5058   1.229   3.497   4.870
 1492SOL     OW 5059   0.083   3.120   4.746
 1492SOL    HW1 5060   0.078   3.119   4.846
 1492SOL    HW2 5061   0.000   3.079   4.708
 1493SOL     OW 5062   0.688   3.524   5.440
 1493SOL    HW1 5063   0.632   3.605   5.449
 1493SOL    HW2 5064   0.740   3.528   5.354
 1494SOL     OW 5065   1.726   1.997   4.247
 1494SOL    HW1 5066   1.799   1.980   4.180
 1494SOL    HW2 5067   1.695   1.910   4.285
 1495SOL     OW 5068   1.388   3.435   4.201
 1495SOL    HW1 5069   1.455   3.447   4.127
 1495SOL    HW2 5070   1.348   3.524   4.224
 1496SOL     OW 5071   0.130   3.656   5.575
 1496SOL    HW1 5072   0.089   3.582   5.628
 1496SOL    HW2 5073   0.194   3.707   5.633
 1497SOL     OW 5074   1.280   2.789   4.396
 1497SOL    HW1 5075   1.340   2.708   4.398
 1497SOL    HW2 5076   1.320   2.858   4.336
 1498SOL     OW 5077   0.830   3.135   5.146
 1498SOL    HW1 5078   0.825   3.168   5.241
 1498SOL    HW2 5079   0.744   3.154   5.100
 1499SOL     OW 5080   0.672   3.478   3.878
 1499SOL    HW1 5081   0.681   3.488   3.779
 1499SOL    HW2 5082   0.632   3.389   3.899
 1500SOL     OW 5083   1.650   3.582   5.118
 1500SOL    HW1 5084   1.703   3.592   5.034
 1500SOL    HW2 5085   1.623   3.672   5.152
 1501SOL     OW 5086   1.841   2.037   4.687
 1501SOL    HW1 5087   1.880   1.952   4.651
 1501SOL    HW2 5088   1.743   2.039   4.668
 1502SOL     OW 5089   0.263   2.188   4.444
 1502SOL    HW1 5090   0.184   2.239   4.410
 1502SOL    HW2 5091   0.254   2.173   4.542
 1503SOL     OW 5092   1.194   3.474   3.755
 1503SOL    HW1 5093   1.200   3.381   3.792
 1503SOL    HW2 5094   1.135   3.474   3.675
 1504SOL     OW 5095   0.822   2.864   5.096
 1504SOL    HW1 5096   0.862   2.863   5.004
 1504SOL    HW2 5097   0.832   2.956   5.136
 1505SOL     OW 5098   0.916   2.772   4.015
 1505SOL    HW1 5099   0.979   2.810   3.947
 1505SOL    HW2 5100   0.956   2.689   4.054
 1506SOL     OW 5101   1.504   3.469   3.768
 1506SOL    HW1 5102   1.412   3.506   3.775
 1506SOL    HW2 5103   1.542   3.489   3.678
 1507SOL     OW 5104   0.372   3.150   5.214
 1507SOL    HW1 5105   0.359   3.243   5.180
 1507SOL    HW2 5106   0.288   3.098   5.201
 1508SOL     OW 5107   1.614   3.154   5.013
 1508SOL    HW1 5108   1.674   3.157   5.093
 1508SOL    HW2 5109   1.539   3.218   5.026
 1509SOL     OW 5110   1.039   2.960   4.420
 1509SOL    HW1 5111   0.969   2.913   4.474
 1509SOL    HW2 5112   1.098   2.892   4.377
 1510SOL     OW 5113   1.014   2.098   4.695
 1510SOL    HW1 5114   1.006   2.062   4.602
 1510SOL    HW2 5115   1.012   2.022   4.760
 1511SOL     OW 5116   0.590   3.349   4.215
 1511SOL    HW1 5117   0.632   3.291   4.145
 1511SOL    HW2 5118   0.546   3.428   4.171
 1512SOL     OW 5119   1.709   2.247   5.105
 1512SOL    HW1 5120   1.782   2.316   5.109
 1512SOL    HW2 5121   1.737   2.172   5.046
 1513SOL     OW 5122   0.255   3.210   4.014
 1513SOL    HW1 5123   0.159   3.211   3.987
 1513SOL    HW2 5124   0.267   3.263   4.098
 1514SOL     OW 5125   0.105   2.875   5.450
 1514SOL    HW1 5126   0.028   2.842   5.504
 1514SOL    HW2 5127   0.190   2.845   5.492
 1515SOL     OW 5128   0.672   2.065   5.213
 1515SOL    HW1 5129   0.762   2.049   5.173
 1515SOL    HW2 5130   0.680   2.070   5.312
 1516SOL     OW 5131   0.075   2.207   3.757
 1516SOL    HW1 5132  -0.017   2.179   3.728
 1516SOL    HW2 5133   0.106   2.284   3.701
 1517SOL     OW 5134   1.440   2.718   5.122
 1517SOL    HW1 5135   1.383   2.770   5.059
 1517SOL    HW2 5136   1.536   2.730   5.098
 1518SOL     OW 5137   0.072   2.028   4.042
 1518SOL    HW1 5138   0.055   2.111   3.988
 1518SOL    HW2 5139   0.162   1.991   4.020
 1519SOL     OW 5140   1.183   3.197   3.843
 1519SOL    HW1 5141   1.084   3.186   3.845
 1519SOL    HW2 5142   1.217   3.212   3.936
 1520SOL     OW 5143   0.613   2.704   5.155
 1520SOL    HW1 5144   0.669   2.785   5.138
 1520SOL    HW2 5145   0.672   2.624   5.158
 1521SOL     OW 5146   1.493   3.629   4.683
 1521SOL    HW1 5147   1.526   3.693   4.614
 1521SOL    HW2 5148   1.559   3.623   4.758
 1522SOL     OW 5149   0.716   2.427   5.432
 1522SOL    HW1 5150   0.735   2.492   5.506
 1522SOL    HW2 5151   0.776   2.347   5.441
 1523SOL     OW 5152   1.450   3.082   5.357
 1523SOL    HW1 5153   1.441   3.072   5.456
 1523SOL    HW2 5154   1.546   3.075   5.331
 1524SOL     OW 5155   0.390   3.603   5.284
 1524SOL    HW1 5156   0.299   3.644   5.282
 1524SOL    HW2 5157   0.383   3.509   5.316
 1525SOL     OW 5158   1.674   2.745   4.978
 1525SOL    HW1 5159   1.647   2.656   4.941
 1525SOL    HW2 5160   1.675   2.813   4.905
 1526SOL     OW 5161   1.225   2.187   4.173
 1526SOL    HW1 5162   1.290   2.113   4.162
 1526SOL    HW2 5163   1.245   2.237   4.257
 1527SOL     OW 5164   0.594   2.607   4.376
 1527SOL    HW1 5165   0.644   2.692   4.357
 1527SOL    HW2 5166   0.506   2.609   4.328
 1528SOL     OW 5167   1.777   2.204   5.366
 1528SOL    HW1 5168   1.760   2.235   5.272
 1528SOL    HW2 5169   1.693   2.167   5.404
 1529SOL     OW 5170   1.730   2.796   5.241
 1529SOL    HW1 5171   1.768   2.887   5.256
 1529SOL    HW2 5172   1.722   2.779   5.142
 1530SOL     OW 5173   0.859   3.236   3.740
 1530SOL    HW1 5174   0.813   3.251   3.828
 1530SOL    HW2 5175   0.903   3.321   3.710
 1531SOL     OW 5176   0.661   3.652   4.677
 1531SOL    HW1 5177   0.615   3.740   4.664
 1531SOL    HW2 5178   0.760   3.664   4.670
 1532SOL     OW 5179   0.859   2.818   4.585
 1532SOL    HW1 5180   0.913   2.749   4.633
 1532SOL    HW2 5181   0.827   2.887   4.651
 1533SOL     OW 5182   1.083   2.846   3.811
 1533SOL    HW1 5183   1.060   2.899   3.729
 1533SOL    HW2 5184   1.164   2.790   3.792
 1534SOL     OW 5185   1.861   3.431   4.575
 1534SOL    HW1 5186   1.790   3.419   4.505
 1534SOL    HW2 5187   1.862   3.352   4.635
 1535SOL     OW 5188   0.221   3.176   5.568
 1535SOL    HW1 5189   0.156   3.103   5.547
 1535SOL    HW2 5190   0.225   3.190   5.666
 1536SOL     OW 5191   0.079   3.102   4.377
 1536SOL    HW1 5192   0.078   3.055   4.465
 1536SOL    HW2 5193   0.161   3.074   4.326
 1537SOL     OW 5194   0.672   3.253   5.348
 1537SOL    HW1 5195   0.594   3.203   5.386
 1537SOL    HW2 5196   0.669   3.348   5.379
 1538SOL     OW 5197   1.824   2.054   4.951
 1538SOL    HW1 5198   1.820   1.964   4.995
 1538SOL    HW2 5199   1.827   2.043   4.852
 1539SOL     OW 5200   0.428   2.286   4.244
 1539SOL    HW1 5201   0.458   2.214   4.182
 1539SOL    HW2 5202   0.389   2.246   4.327
 1540SOL     OW 5203   1.705   3.349   4.828
 1540SOL    HW1 5204   1.612   3.324   4.801
 1540SOL    HW2 5205   1.731   3.299   4.910
 1541SOL     OW 5206   0.317   2.409   5.004
 1541SOL    HW1 5207   0.355   2.350   5.076
 1541SOL    HW2 5208   0.357   2.383   4.916
 1542SOL     OW 5209   0.812   3.448   4.411
 1542SOL    HW1 5210   0.844   3.458   4.317
 1542SOL    HW2 5211   0.733   3.386   4.413
 1543SOL     OW 5212   1.424   2.076   4.836
 1543SOL    HW1 5213   1.476   2.011   4.891
 1543SOL    HW2 5214   1.375   2.139   4.897
 1544SOL     OW 5215   1.001   1.896   4.878
 1544SOL    HW1 5216   0.938   1.824   4.847
 1544SOL    HW2 5217   1.094   1.860   4.878
 1545SOL     OW 5218   0.770   3.192   4.025
 1545SOL    HW1 5219   0.724   3.105   4.042
 1545SOL    HW2 5220   0.861   3.189   4.066
 1546SOL     OW 5221   0.618   3.429   5.008
 1546SOL    HW1 5222   0.613   3.511   5.065
 1546SOL    HW2 5223   0.707   3.426   4.963
 1547SOL     OW 5224   1.352   1.914   3.892
 1547SOL    HW1 5225   1.387   1.873   3.808
 1547SOL    HW2 5226   1.262   1.876   3.912
 1548SOL     OW 5227   1.300   2.315   4.415
 1548SOL    HW1 5228   1.241   2.395   4.419
 1548SOL    HW2 5229   1.315   2.280   4.508
 1549SOL     OW 5230   1.593   2.083   4.606
 1549SOL    HW1 5231   1.509   2.082   4.660
 1549SOL    HW2 5232   1.595   2.166   4.550
 1550SOL     OW 5233   0.039   2.939   4.024
 1550SOL    HW1 5234   0.138   2.928   4.015
 1550SOL    HW2 5235  -0.001   2.853   4.056
 1551SOL     OW 5236   0.875   3.508   4.061
 1551SOL    HW1 5237   0.798   3.473   4.007
 1551SOL    HW2 5238   0.843   3.579   4.123
 1552SOL     OW 5239   0.230   2.490   5.699
 1552SOL    HW1 5240   0.137   2.488   5.736
 1552SOL    HW2 5241   0.231   2.451   5.607
 1553SOL     OW 5242   0.225   2.137   6.582
 1553SOL    HW1 5243   0.260   2.120   6.674
 1553SOL    HW2 5244   0.137   2.092   6.570
 1554SOL     OW 5245   0.019   2.230   6.233
 1554SOL    HW1 5246  -0.063   2.273   6.272
 1554SOL    HW2 5247  -0.009   2.157   6.170
 1555SOL     OW 5248   0.569   3.137   6.751
 1555SOL    HW1 5249   0.476   3.130   6.714
 1555SOL    HW2 5250   0.580   3.226   6.795
 1556SOL     OW 5251   1.555   3.373   6.289
 1556SOL    HW1 5252   1.498   3.357   6.370
 1556SOL    HW2 5253   1.496   3.383   6.209
 1557SOL     OW 5254   1.135   2.565   6.303
 1557SOL    HW1 5255   1.192   2.643   6.278
 1557SOL    HW2 5256   1.075   2.591   6.379
 1558SOL     OW 5257   1.755   2.469   5.817
 1558SOL    HW1 5258   1.743   2.456   5.718
 1558SOL    HW2 5259   1.725   2.388   5.866
 1559SOL     OW 5260   0.768   3.006   6.609
 1559SOL    HW1 5261   0.690   3.023   6.669
 1559SOL    HW2 5262   0.802   3.093   6.573
 1560SOL     OW 5263   0.850   2.660   7.409
 1560SOL    HW1 5264   0.846   2.736   7.474
 1560SOL    HW2 5265   0.872   2.696   7.318
 1561SOL     OW 5266   0.685   2.874   6.251
 1561SOL    HW1 5267   0.754   2.858   6.321
 1561SOL    HW2 5268   0.612   2.931   6.289
 1562SOL     OW 5269   0.686   3.023   7.389
 1562SOL    HW1 5270   0.746   3.102   7.403
 1562SOL    HW2 5271   0.600   3.054   7.348
 1563SOL     OW 5272   0.335   3.297   6.647
 1563SOL    HW1 5273   0.257   3.266   6.594
 1563SOL    HW2 5274   0.393   3.355   6.590
 1564SOL     OW 5275   1.460   3.367   6.925
 1564SOL    HW1 5276   1.484   3.461   6.951
 1564SOL    HW2 5277   1.444   3.313   7.007
 1565SOL     OW 5278   0.438   2.254   7.085
 1565SOL    HW1 5279   0.520   2.198   7.094
 1565SOL    HW2 5280   0.357   2.196   7.089
 1566SOL     OW 5281   1.603   2.309   6.323
 1566SOL    HW1 5282   1.529   2.355   6.273
 1566SOL    HW2 5283   1.654   2.377   6.376
 1567SOL     OW 5284   0.231   3.575   6.069
 1567SOL    HW1 5285   0.265   3.652   6.123
 1567SOL    HW2 5286   0.275   3.575   5.979
 1568SOL     OW 5287   1.127   3.203   7.276
 1568SOL    HW1 5288   1.174   3.203   7.364
 1568SOL    HW2 5289   1.079   3.116   7.265
 1569SOL     OW 5290   0.230   3.296   6.124
 1569SOL    HW1 5291   0.204   3.392   6.124
 1569SOL    HW2 5292   0.159   3.242   6.169
 1570SOL     OW 5293   0.240   2.953   6.472
 1570SOL    HW1 5294   0.254   2.869   6.524
 1570SOL    HW2 5295   0.185   3.017   6.527
 1571SOL     OW 5296   0.620   3.648   7.025
 1571SOL    HW1 5297   0.528   3.631   7.060
 1571SOL    HW2 5298   0.648   3.740   7.051
 1572SOL     OW 5299   0.606   2.826   5.709
 1572SOL    HW1 5300   0.613   2.910   5.655
 1572SOL    HW2 5301   0.652   2.839   5.797
 1573SOL     OW 5302   1.594   1.976   7.066
 1573SOL    HW1 5303   1.576   2.043   6.994
 1573SOL    HW2 5304   1.591   2.022   7.155
 1574SOL     OW 5305   0.122   2.505   6.149
 1574SOL    HW1 5306   0.077   2.417   6.166
 1574SOL    HW2 5307   0.121   2.559   6.233
 1575SOL     OW 5308   1.842   3.629   5.945
 1575SOL    HW1 5309   1.896   3.600   6.025
 1575SOL    HW2 5310   1.872   3.719   5.916
 1576SOL     OW 5311   0.027   3.458   5.703
 1576SOL    HW1 5312   0.008   3.362   5.724
 1576SOL    HW2 5313  -0.006   3.516   5.778
 1577SOL     OW 5314   1.689   2.784   6.198
 1577SOL    HW1 5315   1.784   2.755   6.206
 1577SOL    HW2 5316   1.681   2.849   6.123
 1578SOL     OW 5317   1.641   2.970   6.018
 1578SOL    HW1 5318   1.727   2.972   5.966
 1578SOL    HW2 5319   1.655   3.017   6.106
 1579SOL     OW 5320   0.113   2.599   7.183
 1579SOL    HW1 5321   0.201   2.586   7.228
 1579SOL    HW2 5322   0.100   2.696   7.161
 1580SOL     OW 5323   0.613   3.227   6.312
 1580SOL    HW1 5324   0.564   3.140   6.321
 1580SOL    HW2 5325   0.590   3.270   6.225
 1581SOL     OW 5326   1.293   3.090   7.009
 1581SOL    HW1 5327   1.330   3.017   6.951
 1581SOL    HW2 5328   1.345   3.095   7.094
 1582SOL     OW 5329   0.809   1.866   6.088
 1582SOL    HW1 5330   0.849   1.957   6.079
 1582SOL    HW2 5331   0.709   1.874   6.094
 1583SOL     OW 5332   0.197   2.838   6.850
 1583SOL    HW1 5333   0.286   2.793   6.836
 1583SOL    HW2 5334   0.124   2.773   6.831
 1584SOL     OW 5335   1.525   2.861   5.776
 1584SOL    HW1 5336   1.462   2.785   5.789
 1584SOL    HW2 5337   1.573   2.879   5.862
 1585SOL     OW 5338   1.187   3.654   7.202
 1585SOL    HW1 5339   1.211   3.714   7.126
 1585SOL    HW2 5340   1.194   3.559   7.172
 1586SOL     OW 5341   0.317   2.113   7.387
 1586SOL    HW1 5342   0.388   2.184   7.393
 1586SOL    HW2 5343   0.229   2.152   7.415
 1587SOL     OW 5344   1.466   3.279   6.539
 1587SOL    HW1 5345   1.407   3.285   6.619
 1587SOL    HW2 5346   1.451   3.191   6.493
 1588SOL     OW 5347   1.667   3.576   6.158
 1588SOL    HW1 5348   1.626   3.553   6.070
 1588SOL    HW2 5349   1.649   3.502   6.223
 1589SOL     OW 5350   0.598   2.591   5.856
 1589SOL    HW1 5351   0.622   2.660   5.788
 1589SOL    HW2 5352   0.520   2.624   5.910
 1590SOL     OW 5353   1.281   2.207   6.530
 1590SOL    HW1 5354   1.195   2.157   6.517
 1590SOL    HW2 5355   1.343   2.153   6.586
 1591SOL     OW 5356   1.576   3.524   5.893
 1591SOL    HW1 5357   1.665   3.570   5.896
 1591SOL    HW2 5358   1.555   3.500   5.798
 1592SOL     OW 5359   0.807   2.467   7.051
 1592SOL    HW1 5360   0.760   2.464   7.140
 1592SOL    HW2 5361   0.756   2.412   6.985
 1593SOL     OW 5362   1.394   2.331   7.260
 1593SOL    HW1 5363   1.374   2.374   7.348
 1593SOL    HW2 5364   1.472   2.269   7.269
 1594SOL     OW 5365   0.973   2.752   7.158
 1594SOL    HW1 5366   1.019   2.668   7.129
 1594SOL    HW2 5367   0.917   2.786   7.083
 1595SOL     OW 5368   0.991   2.272   6.828
 1595SOL    HW1 5369   0.914   2.306   6.882
 1595SOL    HW2 5370   0.957   2.221   6.749
 1596SOL     OW 5371   1.041   2.563   6.015
 1596SOL    HW1 5372   1.067   2.559   6.111
 1596SOL    HW2 5373   0.956   2.512   6.001
 1597SOL     OW 5374   0.076   2.673   6.375
 1597SOL    HW1 5375   0.175   2.661   6.384
 1597SOL    HW2 5376   0.052   2.768   6.396
 1598SOL     OW 5377   0.130   3.683   7.157
 1598SOL    HW1 5378   0.120   3.668   7.256
 1598SOL    HW2 5379   0.044   3.719   7.121
 1599SOL     OW 5380   0.865   2.210   5.781
 1599SOL    HW1 5381   0.924   2.273   5.732
 1599SOL    HW2 5382   0.884   2.116   5.752
 1600SOL     OW 5383   1.719   2.447   7.417
 1600SOL    HW1 5384   1.693   2.536   7.381
 1600SOL    HW2 5385   1.717   2.379   7.344
 1601SOL     OW 5386   1.362   3.006   6.131
 1601SOL    HW1 5387   1.445   2.977   6.083
 1601SOL    HW2 5388   1.313   3.073   6.075
 1602SOL     OW 5389   0.550   2.058   6.471
 1602SOL    HW1 5390   0.545   2.053   6.571
 1602SOL    HW2 5391   0.552   2.154   6.442
 1603SOL     OW 5392   1.008   3.318   6.063
 1603SOL    HW1 5393   0.962   3.390   6.011
 1603SOL    HW2 5394   1.004   3.338   6.161
 1604SOL     OW 5395   0.351   3.663   6.439
 1604SOL    HW1 5396   0.401   3.577   6.445
 1604SOL    HW2 5397   0.416   3.740   6.436
 1605SOL     OW 5398   1.795   2.928   6.459
 1605SOL    HW1 5399   1.733   2.913   6.383
 1605SOL    HW2 5400   1.743   2.939   6.544
 1606SOL     OW 5401   1.227   3.412   7.092
 1606SOL    HW1 5402   1.233   3.335   7.156
 1606SOL    HW2 5403   1.175   3.386   7.012
 1607SOL     OW 5404   0.321   2.805   5.828
 1607SOL    HW1 5405   0.403   2.844   5.786
 1607SOL    HW2 5406   0.294   2.723   5.779
 1608SOL     OW 5407   1.458   2.597   6.314
 1608SOL    HW1 5408   1.453   2.532   6.389
 1608SOL    HW2 5409   1.538   2.656   6.327
 1609SOL     OW 5410   0.461   3.128   7.313
 1609SOL    HW1 5411   0.411   3.129   7.227
 1609SOL    HW2 5412   0.398   3.110   7.389
 1610SOL     OW 5413   1.111   3.638   5.823
 1610SOL    HW1 5414   1.051   3.576   5.873
 1610SOL    HW2 5415   1.142   3.594   5.738
 1611SOL     OW 5416   0.202   2.147   7.084
 1611SOL    HW1 5417   0.122   2.207   7.071
 1611SOL    HW2 5418   0.192   2.098   7.170
 1612SOL     OW 5419   1.632   3.239   5.667
 1612SOL    HW1 5420   1.600   3.333   5.657
 1612SOL    HW2 5421   1.556   3.176   5.655
 1613SOL     OW 5422   0.464   3.605   5.909
 1613SOL    HW1 5423   0.497   3.644   5.995
 1613SOL    HW2 5424   0.540   3.598   5.844
 1614SOL     OW 5425   1.400   1.969   6.012
 1614SOL    HW1 5426   1.376   1.932   5.922
 1614SOL    HW2 5427   1.499   1.985   6.016
 1615SOL     OW 5428   0.249   3.647   6.827
 1615SOL    HW1 5429   0.306   3.582   6.877
 1615SOL    HW2 5430   0.233   3.614   6.734
 1616SOL     OW 5431   0.940   3.560   6.490
 1616SOL    HW1 5432   1.020   3.503   6.511
 1616SOL    HW2 5433   0.891   3.520   6.413
 1617SOL     OW 5434   0.382   2.562   6.066
 1617SOL    HW1 5435   0.427   2.472   6.063
 1617SOL    HW2 5436   0.288   2.551   6.099
 1618SOL     OW 5437   1.547   2.084   7.315
 1618SOL    HW1 5438   1.542   2.121   7.407
 1618SOL    HW2 5439   1.475   2.015   7.303
 1619SOL     OW 5440   0.614   1.984   5.703
 1619SOL    HW1 5441   0.712   1.962   5.710
 1619SOL    HW2 5442   0.583   1.967   5.610
 1620SOL     OW 5443   0.781   2.126   7.335
 1620SOL    HW1 5444   0.848   2.065   7.378
 1620SOL    HW2 5445   0.708   2.145   7.400
 1621SOL     OW 5446   0.888   3.376   6.781
 1621SOL    HW1 5447   0.865   3.351   6.687
 1621SOL    HW2 5448   0.949   3.307   6.820
 1622SOL     OW 5449   1.351   2.452   7.019
 1622SOL    HW1 5450   1.379   2.409   7.104
 1622SOL    HW2 5451   1.376   2.548   7.020
 1623SOL     OW 5452   0.803   3.264   6.510
 1623SOL    HW1 5453   0.893   3.278   6.468
 1623SOL    HW2 5454   0.732   3.266   6.439
 1624SOL     OW 5455   0.922   2.365   6.485
 1624SOL    HW1 5456   0.897   2.356   6.389
 1624SOL    HW2 5457   0.970   2.283   6.516
 1625SOL     OW 5458   0.539   1.926   6.098
 1625SOL    HW1 5459   0.458   1.927   6.156
 1625SOL    HW2 5460   0.542   2.009   6.043
 1626SOL     OW 5461   1.434   3.050   5.627
 1626SOL    HW1 5462   1.466   2.974   5.684
 1626SOL    HW2 5463   1.342   3.077   5.657
 1627SOL     OW 5464   0.297   1.897   5.757
 1627SOL    HW1 5465   0.346   1.981   5.736
 1627SOL    HW2 5466   0.359   1.832   5.802
 1628SOL     OW 5467   0.935   2.098   6.066
 1628SOL    HW1 5468   0.887   2.139   5.988
 1628SOL    HW2 5469   1.034   2.096   6.047
 1629SOL     OW 5470   1.076   2.545   7.050
 1629SOL    HW1 5471   0.996   2.484   7.053
 1629SOL    HW2 5472   1.157   2.492   7.026
 1630SOL     OW 5473   1.227   3.432   6.379
 1630SOL    HW1 5474   1.248   3.506   6.314
 1630SOL    HW2 5475   1.295   3.432   6.452
 1631SOL     OW 5476   0.459   3.014   6.327
 1631SOL    HW1 5477   0.388   2.987   6.392
 1631SOL    HW2 5478   0.433   2.986   6.234
 1632SOL     OW 5479   1.271   3.659   6.177
 1632SOL    HW1 5480   1.315   3.723   6.113
 1632SOL    HW2 5481   1.221   3.711   6.247
 1633SOL     OW 5482   1.032   2.411   5.602
 1633SOL    HW1 5483   0.991   2.493   5.563
 1633SOL    HW2 5484   1.096   2.437   5.675
 1634SOL     OW 5485   0.078   2.418   6.972
 1634SOL    HW1 5486   0.170   2.417   6.931
 1634SOL    HW2 5487   0.072   2.492   7.039
 1635SOL     OW 5488   0.561   2.084   6.733
 1635SOL    HW1 5489   0.599   2.000   6.770
 1635SOL    HW2 5490   0.473   2.103   6.777
 1636SOL     OW 5491   0.866   2.316   6.228
 1636SOL    HW1 5492   0.834   2.388   6.166
 1636SOL    HW2 5493   0.890   2.235   6.175
 1637SOL     OW 5494   1.017   1.901   6.339
 1637SOL    HW1 5495   0.945   1.906   6.270
 1637SOL    HW2 5496   0.993   1.832   6.408
 1638SOL     OW 5497   1.429   3.035   6.453
 1638SOL    HW1 5498   1.374   2.951   6.446
 1638SOL    HW2 5499   1.455   3.064   6.361
 1639SOL     OW 5500   1.466   2.452   6.578
 1639SOL    HW1 5501   1.436   2.357   6.585
 1639SOL    HW2 5502   1.539   2.468   6.644
 1640SOL     OW 5503   1.857   2.695   5.963
 1640SOL    HW1 5504   1.899   2.631   6.027
 1640SOL    HW2 5505   1.819   2.644   5.885
 1641SOL     OW 5506   0.488   3.247   5.760
 1641SOL    HW1 5507   0.401   3.232   5.807
 1641SOL    HW2 5508   0.471   3.273   5.665
 1642SOL     OW 5509   1.664   3.142   6.243
 1642SOL    HW1 5510   1.763   3.150   6.257
 1642SOL    HW2 5511   1.619   3.226   6.274
 1643SOL     OW 5512   1.390   2.437   5.664
 1643SOL    HW1 5513   1.336   2.416   5.745
 1643SOL    HW2 5514   1.481   2.396   5.673
 1644SOL     OW 5515   0.527   2.118   5.914
 1644SOL    HW1 5516   0.554   2.059   5.839
 1644SOL    HW2 5517   0.527   2.213   5.883
 1645SOL     OW 5518   1.754   3.085   7.174
 1645SOL    HW1 5519   1.845   3.046   7.161
 1645SOL    HW2 5520   1.762   3.181   7.198
 1646SOL     OW 5521   1.064   3.209   6.926
 1646SOL    HW1 5522   0.984   3.186   6.981
 1646SOL    HW2 5523   1.147   3.183   6.975
 1647SOL     OW 5524   1.592   3.491   7.211
 1647SOL    HW1 5525   1.619   3.525   7.121
 1647SOL    HW2 5526   1.671   3.453   7.257
 1648SOL     OW 5527   1.111   3.057   6.686
 1648SOL    HW1 5528   1.071   3.101   6.767
 1648SOL    HW2 5529   1.070   3.094   6.603
 1649SOL     OW 5530   1.638   2.961   6.665
 1649SOL    HW1 5531   1.643   3.042   6.724
 1649SOL    HW2 5532   1.552   2.963   6.614
 1650SOL     OW 5533   0.915   1.951   6.988
 1650SOL    HW1 5534   0.940   1.931   6.893
 1650SOL    HW2 5535   0.987   2.007   7.030
 1651SOL     OW 5536   0.980   2.978   7.305
 1651SOL    HW1 5537   0.881   2.984   7.315
 1651SOL    HW2 5538   1.003   2.898   7.249
 1652SOL     OW 5539   0.705   2.912   5.954
 1652SOL    HW1 5540   0.691   2.919   6.053
 1652SOL    HW2 5541   0.789   2.861   5.936
 1653SOL     OW 5542   0.410   2.675   6.837
 1653SOL    HW1 5543   0.496   2.687   6.887
 1653SOL    HW2 5544   0.368   2.588   6.864
 1654SOL     OW 5545   1.274   2.248   6.848
 1654SOL    HW1 5546   1.295   2.322   6.912
 1654SOL    HW2 5547   1.185   2.265   6.805
 1655SOL     OW 5548   0.064   3.426   6.917
 1655SOL    HW1 5549   0.018   3.508   6.883
 1655SOL    HW2 5550   0.162   3.445   6.926
 1656SOL     OW 5551   0.367   2.962   6.087
 1656SOL    HW1 5552   0.360   3.045   6.031
 1656SOL    HW2 5553   0.371   2.882   6.027
 1657SOL     OW 5554   0.566   2.399   6.451
 1657SOL    HW1 5555   0.578   2.465   6.377
 1657SOL    HW2 5556   0.612   2.433   6.534
 1658SOL     OW 5557   1.252   3.210   5.974
 1658SOL    HW1 5558   1.302   3.287   6.014
 1658SOL    HW2 5559   1.157   3.212   6.006
 1659SOL     OW 5560   1.272   3.307   6.728
 1659SOL    HW1 5561   1.319   3.320   6.815
 1659SOL    HW2 5562   1.206   3.233   6.737
 1660SOL     OW 5563   1.582   2.501   6.058
 1660SOL    HW1 5564   1.551   2.562   6.131
 1660SOL    HW2 5565   1.632   2.553   5.989
 1661SOL     OW 5566   0.354   3.372   6.915
 1661SOL    HW1 5567   0.333   3.328   6.828
 1661SOL    HW2 5568   0.451   3.398   6.918
 1662SOL     OW 5569   0.402   2.613   7.184
 1662SOL    HW1 5570   0.470   2.668   7.137
 1662SOL    HW2 5571   0.442   2.525   7.211
 1663SOL     OW 5572   1.587   2.641   7.256
 1663SOL    HW1 5573   1.495   2.679   7.251
 1663SOL    HW2 5574   1.647   2.688   7.191
 1664SOL     OW 5575   1.013   1.967   7.356
 1664SOL    HW1 5576   1.019   2.052   7.304
 1664SOL    HW2 5577   1.045   1.891   7.299
 1665SOL     OW 5578   0.504   1.912   7.326
 1665SOL    HW1 5579   0.462   1.855   7.256
 1665SOL    HW2 5580   0.438   1.981   7.358
 1666SOL     OW 5581   0.573   2.732   6.615
 1666SOL    HW1 5582   0.617   2.821   6.606
 1666SOL    HW2 5583   0.510   2.732   6.692
 1667SOL     OW 5584   1.360   2.724   6.631
 1667SOL    HW1 5585   1.285   2.724   6.565
 1667SOL    HW2 5586   1.397   2.632   6.640
 1668SOL     OW 5587   1.209   2.387   5.861
 1668SOL    HW1 5588   1.222   2.303   5.915
 1668SOL    HW2 5589   1.180   2.461   5.921
 1669SOL     OW 5590   0.307   2.075   6.817
 1669SOL    HW1 5591   0.284   2.112   6.907
 1669SOL    HW2 5592   0.277   1.980   6.811
 1670SOL     OW 5593   0.037   3.172   6.868
 1670SOL    HW1 5594   0.090   3.123   6.936
 1670SOL    HW2 5595   0.059   3.270   6.873
 1671SOL     OW 5596   0.732   2.496   6.650
 1671SOL    HW1 5597   0.791   2.470   6.574
 1671SOL    HW2 5598   0.704   2.592   6.639
 1672SOL     OW 5599   1.728   2.797   7.440
 1672SOL    HW1 5600   1.682   2.790   7.351
 1672SOL    HW2 5601   1.666   2.841   7.506
 1673SOL     OW 5602   0.307   1.925   6.204
 1673SOL    HW1 5603   0.296   2.019   6.237
 1673SOL    HW2 5604   0.302   1.862   6.281
 1674SOL     OW 5605   1.622   2.229   5.960
 1674SOL    HW1 5606   1.624   2.153   6.024
 1674SOL    HW2 5607   1.574   2.306   6.000
 1675SOL     OW 5608   1.023   2.628   6.552
 1675SOL    HW1 5609   1.038   2.649   6.648
 1675SOL    HW2 5610   0.993   2.533   6.543
 1676SOL     OW 5611   0.980   3.435   7.286
 1676SOL    HW1 5612   0.960   3.479   7.198
 1676SOL    HW2 5613   1.019   3.344   7.270
 1677SOL     OW 5614   1.859   3.380   7.191
 1677SOL    HW1 5615   1.873   3.407   7.096
 1677SOL    HW2 5616   1.942   3.402   7.244
 1678SOL     OW 5617   0.350   2.760   7.390
 1678SOL    HW1 5618   0.426   2.804   7.438
 1678SOL    HW2 5619   0.385   2.713   7.308
 1679SOL     OW 5620   1.540   2.136   5.711
 1679SOL    HW1 5621   1.479   2.061   5.734
 1679SOL    HW2 5622   1.562   2.188   5.794
 1680SOL     OW 5623   1.303   2.700   5.628
 1680SOL    HW1 5624   1.337   2.607   5.643
 1680SOL    HW2 5625   1.321   2.727   5.533
 1681SOL     OW 5626   1.068   3.195   6.435
 1681SOL    HW1 5627   1.075   3.111   6.380
 1681SOL    HW2 5628   1.130   3.264   6.399
 1682SOL     OW 5629   0.319   2.672   6.535
 1682SOL    HW1 5630   0.412   2.708   6.540
 1682SOL    HW2 5631   0.313   2.587   6.587
 1683SOL     OW 5632   0.339   2.371   6.592
 1683SOL    HW1 5633   0.287   2.288   6.575
 1683SOL    HW2 5634   0.416   2.376   6.528
 1684SOL     OW 5635   1.138   2.242   7.264
 1684SOL    HW1 5636   1.093   2.305   7.328
 1684SOL    HW2 5637   1.231   2.273   7.247
 1685SOL     OW 5638   1.160   2.069   7.063
 1685SOL    HW1 5639   1.160   2.133   7.140
 1685SOL    HW2 5640   1.188   2.117   6.980
 1686SOL     OW 5641   0.008   3.188   5.786
 1686SOL    HW1 5642  -0.085   3.209   5.755
 1686SOL    HW2 5643   0.018   3.089   5.799
 1687SOL     OW 5644   0.088   3.663   6.513
 1687SOL    HW1 5645   0.046   3.577   6.486
 1687SOL    HW2 5646   0.182   3.666   6.479
 1688SOL     OW 5647   0.504   3.430   6.496
 1688SOL    HW1 5648   0.570   3.504   6.505
 1688SOL    HW2 5649   0.548   3.351   6.454
 1689SOL     OW 5650   1.002   2.658   6.824
 1689SOL    HW1 5651   1.043   2.626   6.910
 1689SOL    HW2 5652   0.906   2.631   6.821
 1690SOL     OW 5653   0.040   2.406   6.700
 1690SOL    HW1 5654   0.125   2.373   6.659
 1690SOL    HW2 5655   0.053   2.421   6.798
 1691SOL     OW 5656   0.189   2.382   7.308
 1691SOL    HW1 5657   0.248   2.342   7.238
 1691SOL    HW2 5658   0.131   2.453   7.267
 1692SOL     OW 5659   1.369   2.812   7.246
 1692SOL    HW1 5660   1.408   2.901   7.266
 1692SOL    HW2 5661   1.379   2.792   7.149
 1693SOL     OW 5662   0.815   2.434   5.911
 1693SOL    HW1 5663   0.822   2.345   5.865
 1693SOL    HW2 5664   0.721   2.468   5.903
 1694SOL     OW 5665   1.657   2.466   6.792
 1694SOL    HW1 5666   1.619   2.397   6.854
 1694SOL    HW2 5667   1.739   2.430   6.748
 1695SOL     OW 5668   0.252   3.426   7.330
 1695SOL    HW1 5669   0.222   3.483   7.406
 1695SOL    HW2 5670   0.245   3.329   7.356
 1696SOL     OW 5671   0.671   2.326   6.855
 1696SOL    HW1 5672   0.637   2.237   6.825
 1696SOL    HW2 5673   0.697   2.380   6.775
 1697SOL     OW 5674   0.930   3.540   7.051
 1697SOL    HW1 5675   0.906   3.522   6.956
 1697SOL    HW2 5676   0.960   3.634   7.061
 1698SOL     OW 5677   0.473   2.362   5.777
 1698SOL    HW1 5678   0.534   2.442   5.781
 1698SOL    HW2 5679   0.378   2.393   5.784
 1699SOL     OW 5680   0.159   2.999   7.052
 1699SOL    HW1 5681   0.181   2.938   7.128
 1699SOL    HW2 5682   0.169   2.950   6.966
 1700SOL     OW 5683   1.347   2.921   6.820
 1700SOL    HW1 5684   1.371   2.858   6.746
 1700SOL    HW2 5685   1.257   2.961   6.802
 1701SOL     OW 5686   1.302   2.717   5.895
 1701SOL    HW1 5687   1.216   2.686   5.937
 1701SOL    HW2 5688   1.298   2.703   5.796
 1702SOL     OW 5689   1.759   3.609   6.740
 1702SOL    HW1 5690   1.820   3.639   6.667
 1702SOL    HW2 5691   1.721   3.520   6.718
 1703SOL     OW 5692   1.252   3.593   6.714
 1703SOL    HW1 5693   1.336   3.598   6.660
 1703SOL    HW2 5694   1.229   3.497   6.732
 1704SOL     OW 5695   0.083   3.120   6.608
 1704SOL    HW1 5696   0.078   3.119   6.708
 1704SOL    HW2 5697   0.000   3.079   6.570
 1705SOL     OW 5698   0.688   3.524   7.302
 1705SOL    HW1 5699   0.632   3.605   7.311
 1705SOL    HW2 5700   0.740   3.528   7.216
 1706SOL     OW 5701   1.726   1.997   6.109
 1706SOL    HW1 5702   1.799   1.980   6.042
 1706SOL    HW2 5703   1.695   1.910   6.147
 1707SOL     OW 5704   1.388   3.435   6.063
 1707SOL    HW1 5705   1.455   3.447   5.989
 1707SOL    HW2 5706   1.348   3.524   6.086
 1708SOL     OW 5707   0.130   3.656   7.437
 1708SOL    HW1 5708   0.089   3.582   7.490
 1708SOL    HW2 5709   0.194   3.707   7.495
 1709SOL     OW 5710   1.280   2.789   6.258
 1709SOL    HW1 5711   1.340   2.708   6.260
 1709SOL    HW2 5712   1.320   2.858   6.198
 1710SOL     OW 5713   0.830   3.135   7.008
 1710SOL    HW1 5714   0.825   3.168   7.103
 1710SOL    HW2 5715   0.744   3.154   6.962
 1711SOL     OW 5716   0.672   3.478   5.740
 1711SOL    HW1 5717   0.681   3.488   5.641
 1711SOL    HW2 5718   0.632   3.389   5.761
 1712SOL     OW 5719   1.650   3.582   6.980
 1712SOL    HW1 5720   1.703   3.592   6.896
 1712SOL    HW2 5721   1.623   3.672   7.014
 1713SOL     OW 5722   1.841   2.037   6.549
 1713SOL    HW1 5723   1.880   1.952   6.513
 1713SOL    HW2 5724   1.743   2.039   6.530
 1714SOL     OW 5725   0.263   2.188   6.306
 1714SOL    HW1 5726   0.184   2.239   6.272
 1714SOL    HW2 5727   0.254   2.173   6.404
 1715SOL     OW 5728   1.194   3.474   5.617
 1715SOL    HW1 5729   1.200   3.381   5.654
 1715SOL    HW2 5730   1.135   3.474   5.537
 1716SOL     OW 5731   0.822   2.864   6.958
 1716SOL    HW1 5732   0.862   2.863   6.866
 1716SOL    HW2 5733   0.832   2.956   6.998
 1717SOL     OW 5734   0.916   2.772   5.877
 1717SOL    HW1 5735   0.979   2.810   5.809
 1717SOL    HW2 5736   0.956   2.689   5.916
 1718SOL     OW 5737   1.504   3.469   5.630
 1718SOL    HW1 5738   1.412   3.506   5.637
 1718SOL    HW2 5739   1.542   3.489   5.540
 1719SOL     OW 5740   0.372   3.150   7.076
 1719SOL    HW1 5741   0.359   3.243   7.042
 1719SOL    HW2 5742   0.288   3.098   7.063
 1720SOL     OW 5743   1.614   3.154   6.875
 1720SOL    HW1 5744   1.674   3.157   6.955
 1720SOL    HW2 5745   1.539   3.218   6.888
 1721SOL     OW 5746   1.039   2.960   6.282
 1721SOL    HW1 5747   0.969   2.913   6.336
 1721SOL    HW2 5748   1.098   2.892   6.239
 1722SOL     OW 5749   1.014   2.098   6.557
 1722SOL    HW1 5750   1.006   2.062   6.464
 1722SOL    HW2 5751   1.012   2.022   6.622
 1723SOL     OW 5752   0.590   3.349   6.077
 1723SOL    HW1 5753   0.632   3.291   6.007
 1723SOL    HW2 5754   0.546   3.428   6.033
 1724SOL     OW 5755   1.709   2.247   6.967
 1724SOL    HW1 5756   1.782   2.316   6.971
 1724SOL    HW2 5757   1.737   2.172   6.908
 1725SOL     OW 5758   0.255   3.210   5.876
 1725SOL    HW1 5759   0.159   3.211   5.849
 1725SOL    HW2 5760   0.267   3.263   5.960
 1726SOL     OW 5761   0.105   2.875   7.312
 1726SOL    HW1 5762   0.028   2.842   7.366
 1726SOL    HW2 5763   0.190   2.845   7.354
 1727SOL     OW 5764   0.672   2.065   7.075
 1727SOL    HW1 5765   0.762   2.049   7.035
 1727SOL    HW2 5766   0.680   2.070   7.174
 1728SOL     OW 5767   0.075   2.207   5.619
 1728SOL    HW1 5768  -0.017   2.179   5.590
 1728SOL    HW2 5769   0.106   2.284   5.563
 1729SOL     OW 5770   1.440   2.718   6.984
 1729SOL    HW1 5771   1.383   2.770   6.921
 1729SOL    HW2 5772   1.536   2.730   6.960
 1730SOL     OW 5773   0.072   2.028   5.904
 1730SOL    HW1 5774   0.055   2.111   5.850
 1730SOL    HW2 5775   0.162   1.991   5.882
 1731SOL     OW 5776   1.183   3.197   5.705
 1731SOL    HW1 5777   1.084   3.186   5.707
 1731SOL    HW2 5778   1.217   3.212   5.798
 1732SOL     OW 5779   0.613   2.704   7.017
 1732SOL    HW1 5780   0.669   2.785   7.000
 1732SOL    HW2 5781   0.672   2.624   7.020
 1733SOL     OW 5782   1.493   3.629   6.545
 1733SOL    HW1 5783   1.526   3.693   6.476
 1733SOL    HW2 5784   1.559   3.623   6.620
 1734SOL     OW 5785   0.716   2.427   7.294
 1734SOL    HW1 5786   0.735   2.492   7.368
 1734SOL    HW2 5787   0.776   2.347   7.303
 1735SOL     OW 5788   1.450   3.082   7.219
 1735SOL    HW1 5789   1.441   3.072   7.318
 1735SOL    HW2 5790   1.546   3.075   7.193
 1736SOL     OW 5791   0.390   3.603   7.146
 1736SOL    HW1 5792   0.299   3.644   7.144
 1736SOL    HW2 5793   0.383   3.509   7.178
 1737SOL     OW 5794   1.674   2.745   6.840
 1737SOL    HW1 5795   1.647   2.656   6.803
 1737SOL    HW2 5796   1.675   2.813   6.767
 1738SOL     OW 5797   1.225   2.187   6.035
 1738SOL    HW1 5798   1.290   2.113   6.024
 1738SOL    HW2 5799   1.245   2.237   6.119
 1739SOL     OW 5800   0.594   2.607   6.238
 1739SOL    HW1 5801   0.644   2.692   6.219
 1739SOL    HW2 5802   0.506   2.609   6.190
 1740SOL     OW 5803   1.777   2.204   7.228
 1740SOL    HW1 5804   1.760   2.235   7.134
 1740SOL    HW2 5805   1.693   2.167   7.266
 1741SOL     OW 5806   1.730   2.796   7.103
 1741SOL    HW1 5807   1.768   2.887   7.118
 1741SOL    HW2 5808   1.722   2.779   7.004
 1742SOL     OW 5809   0.859   3.236   5.602
 1742SOL    HW1 5810   0.813   3.251   5.690
 1742SOL    HW2 5811   0.903   3.321   5.572
 1743SOL     OW 5812   0.661   3.652   6.539
 1743SOL    HW1 5813   0.615   3.740   6.526
 1743SOL    HW2 5814   0.760   3.664   6.532
 1744SOL     OW 5815   0.859   2.818   6.447
 1744SOL    HW1 5816   0.913   2.749   6.495
 1744SOL    HW2 5817   0.827   2.887   6.513
 1745SOL     OW 5818   1.083   2.846   5.673
 1745SOL    HW1 5819   1.060   2.899   5.591
 1745SOL    HW2 5820   1.164   2.790   5.654
 1746SOL     OW 5821   1.861   3.431   6.437
 1746SOL    HW1 5822   1.790   3.419   6.367
 1746SOL    HW2 5823   1.862   3.352   6.497
 1747SOL     OW 5824   0.221   3.176   7.430
 1747SOL    HW1 5825   0.156   3.103   7.409
 1747SOL    HW2 5826   0.225   3.190   7.528
 1748SOL     OW 5827   0.079   3.102   6.239
 1748SOL    HW1 5828   0.078   3.055   6.327
 1748SOL    HW2 5829   0.161   3.074   6.188
 1749SOL     OW 5830   0.672   3.253   7.210
 1749SOL    HW1 5831   0.594   3.203   7.248
 1749SOL    HW2 5832   0.669   3.348   7.241
 1750SOL     OW 5833   1.824   2.054   6.813
 1750SOL    HW1 5834   1.820   1.964   6.857
 1750SOL    HW2 5835   1.827   2.043   6.714
 1751SOL     OW 5836   0.428   2.286   6.106
 1751SOL    HW1 5837   0.458   2.214   6.044
 1751SOL    HW2 5838   0.389   2.246   6.189
 1752SOL     OW 5839   1.705   3.349   6.690
 1752SOL    HW1 5840   1.612   3.324   6.663
 1752SOL    HW2 5841   1.731   3.299   6.772
 1753SOL     OW 5842   0.317   2.409   6.866
 1753SOL    HW1 5843   0.355   2.350   6.938
 1753SOL    HW2 5844   0.357   2.383   6.778
 1754SOL     OW 5845   0.812   3.448   6.273
 1754SOL    HW1 5846   0.844   3.458   6.179
 1754SOL    HW2 5847   0.733   3.386   6.275
 1755SOL     OW 5848   1.424   2.076   6.698
 1755SOL    HW1 5849   1.476   2.011   6.753
 1755SOL    HW2 5850   1.375   2.139   6.759
 1756SOL     OW 5851   1.001   1.896   6.740
 1756SOL    HW1 5852   0.938   1.824   6.709
 1756SOL    HW2 5853   1.094   1.860   6.740
 1757SOL     OW 5854   0.770   3.192   5.887
 1757SOL    HW1 5855   0.724   3.105   5.904
 1757SOL    HW2 5856   0.861   3.189   5.928
 1758SOL     OW 5857   0.618   3.429   6.870
 1758SOL    HW1 5858   0.613   3.511   6.927
 1758SOL    HW2 5859   0.707   3.426   6.825
 1759SOL     OW 5860   1.352   1.914   5.754
 1759SOL    HW1 5861   1.387   1.873   5.670
 1759SOL    HW2 5862   1.262   1.876   5.774
 1760SOL     OW 5863   1.300   2.315   6.277
 1760SOL    HW1 5864   1.241   2.395   6.281
 1760SOL    HW2 5865   1.315   2.280   6.370
 1761SOL     OW 5866   1.593   2.083   6.468
 1761SOL    HW1 5867   1.509   2.082   6.522
 1761SOL    HW2 5868   1.595   2.166   6.412
 1762SOL     OW 5869   0.039   2.939   5.886
 1762SOL    HW1 5870   0.138   2.928   5.877
 1762SOL    HW2 5871  -0.001   2.853   5.918
 1763SOL     OW 5872   0.875   3.508   5.923
 1763SOL    HW1 5873   0.798   3.473   5.869
 1763SOL    HW2 5874   0.843   3.579   5.985
 1764SOL     OW 5875   0.230   2.490   7.561
 1764SOL    HW1 5876   0.137   2.488   7.598
 1764SOL    HW2 5877   0.231   2.451   7.469
 1765SOL     OW 5878   1.755   2.469   7.679
 1765SOL    HW1 5879   1.743   2.456   7.580
 1765SOL    HW2 5880   1.725   2.388   7.728
 1766SOL     OW 5881   0.231   3.575   7.931
 1766SOL    HW1 5882   0.265   3.652   7.985
 1766SOL    HW2 5883   0.275   3.575   7.841
 1767SOL     OW 5884   0.230   3.296   7.986
 1767SOL    HW1 5885   0.204   3.392   7.986
 1767SOL    HW2 5886   0.159   3.242   8.031
 1768SOL     OW 5887   0.606   2.826   7.571
 1768SOL    HW1 5888   0.613   2.910   7.517
 1768SOL    HW2 5889   0.652   2.839   7.659
 1769SOL     OW 5890   1.842   3.629   7.807
 1769SOL    HW1 5891   1.896   3.600   7.887
 1769SOL    HW2 5892   1.872   3.719   7.778
 1770SOL     OW 5893   0.027   3.458   7.565
 1770SOL    HW1 5894   0.008   3.362   7.586
 1770SOL    HW2 5895  -0.006   3.516   7.640
 1771SOL     OW 5896   1.689   2.784   8.060
 1771SOL    HW1 5897   1.784   2.755   8.068
 1771SOL    HW2 5898   1.681   2.849   7.985
 1772SOL     OW 5899   1.641   2.970   7.880
 1772SOL    HW1 5900   1.727   2.972   7.828
 1772SOL    HW2 5901   1.655   3.017   7.968
 1773SOL     OW 5902   0.809   1.866   7.950
 1773SOL    HW1 5903   0.849   1.957   7.941
 1773SOL    HW2 5904   0.709   1.874   7.956
 1774SOL     OW 5905   1.525   2.861   7.638
 1774SOL    HW1 5906   1.462   2.785   7.651
 1774SOL    HW2 5907   1.573   2.879   7.724
 1775SOL     OW 5908   0.598   2.591   7.718
 1775SOL    HW1 5909   0.622   2.660   7.650
 1775SOL    HW2 5910   0.520   2.624   7.772
 1776SOL     OW 5911   1.576   3.524   7.755
 1776SOL    HW1 5912   1.665   3.570   7.758
 1776SOL    HW2 5913   1.555   3.500   7.660
 1777SOL     OW 5914   0.076   2.673   8.237
 1777SOL    HW1 5915   0.175   2.661   8.246
 1777SOL    HW2 5916   0.052   2.768   8.258
 1778SOL     OW 5917   0.865   2.210   7.643
 1778SOL    HW1 5918   0.924   2.273   7.594
 1778SOL    HW2 5919   0.884   2.116   7.614
 1779SOL     OW 5920   0.321   2.805   7.690
 1779SOL    HW1 5921   0.403   2.844   7.648
 1779SOL    HW2 5922   0.294   2.723   7.641
 1780SOL     OW 5923   1.111   3.638   7.685
 1780SOL    HW1 5924   1.051   3.576   7.735
 1780SOL    HW2 5925   1.142   3.594   7.600
 1781SOL     OW 5926   1.632   3.239   7.529
 1781SOL    HW1 5927   1.600   3.333   7.519
 1781SOL    HW2 5928   1.556   3.176   7.517
 1782SOL     OW 5929   0.464   3.605   7.771
 1782SOL    HW1 5930   0.497   3.644   7.857
 1782SOL    HW2 5931   0.540   3.598   7.706
 1783SOL     OW 5932   1.400   1.969   7.874
 1783SOL    HW1 5933   1.376   1.932   7.784
 1783SOL    HW2 5934   1.499   1.985   7.878
 1784SOL     OW 5935   0.382   2.562   7.928
 1784SOL    HW1 5936   0.427   2.472   7.925
 1784SOL    HW2 5937   0.288   2.551   7.961
 1785SOL     OW 5938   0.614   1.984   7.565
 1785SOL    HW1 5939   0.712   1.962   7.572
 1785SOL    HW2 5940   0.583   1.967   7.472
 1786SOL     OW 5941   0.539   1.926   7.960
 1786SOL    HW1 5942   0.458   1.927   8.018
 1786SOL    HW2 5943   0.542   2.009   7.905
 1787SOL     OW 5944   1.434   3.050   7.489
 1787SOL    HW1 5945   1.466   2.974   7.546
 1787SOL    HW2 5946   1.342   3.077   7.519
 1788SOL     OW 5947   0.297   1.897   7.619
 1788SOL    HW1 5948   0.346   1.981   7.598
 1788SOL    HW2 5949   0.359   1.832   7.664
 1789SOL     OW 5950   0.935   2.098   7.928
 1789SOL    HW1 5951   0.887   2.139   7.850
 1789SOL    HW2 5952   1.034   2.096   7.909
 1790SOL     OW 5953   0.459   3.014   8.189
 1790SOL    HW1 5954   0.388   2.987   8.254
 1790SOL    HW2 5955   0.433   2.986   8.096
 1791SOL     OW 5956   1.271   3.659   8.039
 1791SOL    HW1 5957   1.315   3.723   7.975
 1791SOL    HW2 5958   1.221   3.711   8.109
 1792SOL     OW 5959   1.032   2.411   7.464
 1792SOL    HW1 5960   0.991   2.493   7.425
 1792SOL    HW2 5961   1.096   2.437   7.537
 1793SOL     OW 5962   1.857   2.695   7.825
 1793SOL    HW1 5963   1.899   2.631   7.889
 1793SOL    HW2 5964   1.819   2.644   7.747
 1794SOL     OW 5965   0.488   3.247   7.622
 1794SOL    HW1 5966   0.401   3.232   7.669
 1794SOL    HW2 5967   0.471   3.273   7.527
 1795SOL     OW 5968   1.390   2.437   7.526
 1795SOL    HW1 5969   1.336   2.416   7.607
 1795SOL    HW2 5970   1.481   2.396   7.535
 1796SOL     OW 5971   0.527   2.118   7.776
 1796SOL    HW1 5972   0.554   2.059   7.701
 1796SOL    HW2 5973   0.527   2.213   7.745
 1797SOL     OW 5974   0.705   2.912   7.816
 1797SOL    HW1 5975   0.691   2.919   7.915
 1797SOL    HW2 5976   0.789   2.861   7.798
 1798SOL     OW 5977   0.367   2.962   7.949
 1798SOL    HW1 5978   0.360   3.045   7.893
 1798SOL    HW2 5979   0.371   2.882   7.889
 1799SOL     OW 5980   1.252   3.210   7.836
 1799SOL    HW1 5981   1.302   3.287   7.876
 1799SOL    HW2 5982   1.157   3.212   7.868
 1800SOL     OW 5983   1.582   2.501   7.920
 1800SOL    HW1 5984   1.551   2.562   7.993
 1800SOL    HW2 5985   1.632   2.553   7.851
 1801SOL     OW 5986   1.209   2.387   7.723
 1801SOL    HW1 5987   1.222   2.303   7.777
 1801SOL    HW2 5988   1.180   2.461   7.783
 1802SOL     OW 5989   1.622   2.229   7.822
 1802SOL    HW1 5990   1.624   2.153   7.886
 1802SOL    HW2 5991   1.574   2.306   7.862
 1803SOL     OW 5992   1.540   2.136   7.573
 1803SOL    HW1 5993   1.479   2.061   7.596
 1803SOL    HW2 5994   1.562   2.188   7.656
 1804SOL     OW 5995   1.303   2.700   7.490
 1804SOL    HW1 5996   1.337   2.607   7.505
 1804SOL    HW2 5997   1.321   2.727   7.395
 1805SOL     OW 5998   0.008   3.188   7.648
 1805SOL    HW1 5999  -0.085   3.209   7.617
 1805SOL    HW2 6000   0.018   3.089   7.661
 1806SOL     OW 6001   0.815   2.434   7.773
 1806SOL    HW1 6002   0.822   2.345   7.727
 1806SOL    HW2 6003   0.721   2.468   7.765
 1807SOL     OW 6004   0.473   2.362   7.639
 1807SOL    HW1 6005   0.534   2.442   7.643
 1807SOL    HW2 6006   0.378   2.393   7.646
 1808SOL     OW 6007   1.302   2.717   7.757
 1808SOL    HW1 6008   1.216   2.686   7.799
 1808SOL    HW2 6009   1.298   2.703   7.658
 1809SOL     OW 6010   1.726   1.997   7.971
 1809SOL    HW1 6011   1.799   1.980   7.904
 1809SOL    HW2 6012   1.695   1.910   8.009
 1810SOL     OW 6013   1.388   3.435   7.925
 1810SOL    HW1 6014   1.455   3.447   7.851
 1810SOL    HW2 6015   1.348   3.524   7.948
 1811SOL     OW 6016   0.672   3.478   7.602
 1811SOL    HW1 6017   0.681   3.488   7.503
 1811SOL    HW2 6018   0.632   3.389   7.623
 1812SOL     OW 6019   1.194   3.474   7.479
 1812SOL    HW1 6020   1.200   3.381   7.516
 1812SOL    HW2 6021   1.135   3.474   7.399
 1813SOL     OW 6022   0.916   2.772   7.739
 1813SOL    HW1 6023   0.979   2.810   7.671
 1813SOL    HW2 6024   0.956   2.689   7.778
 1814SOL     OW 6025   1.504   3.469   7.492
 1814SOL    HW1 6026   1.412   3.506   7.499
 1814SOL    HW2 6027   1.542   3.489   7.402
 1815SOL     OW 6028   0.590   3.349   7.939
 1815SOL    HW1 6029   0.632   3.291   7.869
 1815SOL    HW2 6030   0.546   3.428   7.895
 1816SOL     OW 6031   0.255   3.210   7.738
 1816SOL    HW1 6032   0.159   3.211   7.711
 1816SOL    HW2 6033   0.267   3.263   7.822
 1817SOL     OW 6034   0.075   2.207   7.481
 1817SOL    HW1 6035  -0.017   2.179   7.452
 1817SOL    HW2 6036   0.106   2.284   7.425
 1818SOL     OW 6037   0.072   2.028   7.766
 1818SOL    HW1 6038   0.055   2.111   7.712
 1818SOL    HW2 6039   0.162   1.991   7.744
 1819SOL     OW 6040   1.183   3.197   7.567
 1819SOL    HW1 6041   1.084   3.186   7.569
 1819SOL    HW2 6042   1.217   3.212   7.660
 1820SOL     OW 6043   1.225   2.187   7.897
 1820SOL    HW1 6044   1.290   2.113   7.886
 1820SOL    HW2 6045   1.245   2.237   7.981
 1821SOL     OW 6046   0.594   2.607   8.100
 1821SOL    HW1 6047   0.644   2.692   8.081
 1821SOL    HW2 6048   0.506   2.609   8.052
 1822SOL     OW 6049   0.859   3.236   7.464
 1822SOL    HW1 6050   0.813   3.251   7.552
 1822SOL    HW2 6051   0.903   3.321   7.434
 1823SOL     OW 6052   1.083   2.846   7.535
 1823SOL    HW1 6053   1.060   2.899   7.453
 1823SOL    HW2 6054   1.164   2.790   7.516
 1824SOL     OW 6055   0.428   2.286   7.968
 1824SOL    HW1 6056   0.458   2.214   7.906
 1824SOL    HW2 6057   0.389   2.246   8.051
 1825SOL     OW 6058   0.770   3.192   7.749
 1825SOL    HW1 6059   0.724   3.105   7.766
 1825SOL    HW2 6060   0.861   3.189   7.790
 1826SOL     OW 6061   1.352   1.914   7.616
 1826SOL    HW1 6062   1.387   1.873   7.532
 1826SOL    HW2 6063   1.262   1.876   7.636
 1827SOL     OW 6064   0.039   2.939   7.748
 1827SOL    HW1 6065   0.138   2.928   7.739
 1827SOL    HW2 6066  -0.001   2.853   7.780
 1828SOL     OW 6067   0.875   3.508   7.785
 1828SOL    HW1 6068   0.798   3.473   7.731
 1828SOL    HW2 6069   0.843   3.579   7.847
 1829SOL     OW 6070   0.230   4.352   0.113
 1829SOL    HW1 6071   0.137   4.350   0.150
 1829SOL    HW2 6072   0.231   4.313   0.021
 1830SOL     OW 6073   0.225   3.999   0.996
 1830SOL    HW1 6074   0.260   3.982   1.088
 1830SOL    HW2 6075   0.137   3.954   0.984
 1831SOL     OW 6076   0.019   4.092   0.647
 1831SOL    HW1 6077  -0.063   4.135   0.686
 1831SOL    HW2 6078  -0.009   4.019   0.584
 1832SOL     OW 6079   0.569   4.999   1.165
 1832SOL    HW1 6080   0.476   4.992   1.128
 1832SOL    HW2 6081   0.580   5.088   1.209
 1833SOL     OW 6082   1.555   5.235   0.703
 1833SOL    HW1 6083   1.498   5.219   0.784
 1833SOL    HW2 6084   1.496   5.245   0.623
 1834SOL     OW 6085   1.135   4.427   0.717
 1834SOL    HW1 6086   1.192   4.505   0.692
 1834SOL    HW2 6087   1.075   4.453   0.793
 1835SOL     OW 6088   1.755   4.331   0.231
 1835SOL    HW1 6089   1.743   4.318   0.132
 1835SOL    HW2 6090   1.725   4.250   0.280
 1836SOL     OW 6091   0.768   4.868   1.023
 1836SOL    HW1 6092   0.690   4.885   1.083
 1836SOL    HW2 6093   0.802   4.955   0.987
 1837SOL     OW 6094   0.850   4.522   1.823
 1837SOL    HW1 6095   0.846   4.598   1.888
 1837SOL    HW2 6096   0.872   4.558   1.732
 1838SOL     OW 6097   0.685   4.736   0.665
 1838SOL    HW1 6098   0.754   4.720   0.735
 1838SOL    HW2 6099   0.612   4.793   0.703
 1839SOL     OW 6100   0.686   4.885   1.803
 1839SOL    HW1 6101   0.746   4.964   1.817
 1839SOL    HW2 6102   0.600   4.916   1.762
 1840SOL     OW 6103   0.335   5.159   1.061
 1840SOL    HW1 6104   0.257   5.128   1.008
 1840SOL    HW2 6105   0.393   5.217   1.004
 1841SOL     OW 6106   1.460   5.229   1.339
 1841SOL    HW1 6107   1.484   5.323   1.365
 1841SOL    HW2 6108   1.444   5.175   1.421
 1842SOL     OW 6109   0.438   4.116   1.499
 1842SOL    HW1 6110   0.520   4.060   1.508
 1842SOL    HW2 6111   0.357   4.058   1.503
 1843SOL     OW 6112   1.603   4.171   0.737
 1843SOL    HW1 6113   1.529   4.217   0.687
 1843SOL    HW2 6114   1.654   4.239   0.790
 1844SOL     OW 6115   1.127   5.065   1.690
 1844SOL    HW1 6116   1.174   5.065   1.778
 1844SOL    HW2 6117   1.079   4.978   1.679
 1845SOL     OW 6118   0.230   5.158   0.538
 1845SOL    HW1 6119   0.204   5.254   0.538
 1845SOL    HW2 6120   0.159   5.104   0.583
 1846SOL     OW 6121   0.240   4.815   0.886
 1846SOL    HW1 6122   0.254   4.731   0.938
 1846SOL    HW2 6123   0.185   4.879   0.941
 1847SOL     OW 6124   0.606   4.688   0.123
 1847SOL    HW1 6125   0.613   4.772   0.069
 1847SOL    HW2 6126   0.652   4.701   0.211
 1848SOL     OW 6127   1.594   3.838   1.480
 1848SOL    HW1 6128   1.576   3.905   1.408
 1848SOL    HW2 6129   1.591   3.884   1.569
 1849SOL     OW 6130   0.122   4.367   0.563
 1849SOL    HW1 6131   0.077   4.279   0.580
 1849SOL    HW2 6132   0.121   4.421   0.647
 1850SOL     OW 6133   0.027   5.320   0.117
 1850SOL    HW1 6134   0.008   5.224   0.138
 1850SOL    HW2 6135  -0.006   5.378   0.192
 1851SOL     OW 6136   1.689   4.646   0.612
 1851SOL    HW1 6137   1.784   4.617   0.620
 1851SOL    HW2 6138   1.681   4.711   0.537
 1852SOL     OW 6139   1.641   4.832   0.432
 1852SOL    HW1 6140   1.727   4.834   0.380
 1852SOL    HW2 6141   1.655   4.879   0.520
 1853SOL     OW 6142   0.113   4.461   1.597
 1853SOL    HW1 6143   0.201   4.448   1.642
 1853SOL    HW2 6144   0.100   4.558   1.575
 1854SOL     OW 6145   0.613   5.089   0.726
 1854SOL    HW1 6146   0.564   5.002   0.735
 1854SOL    HW2 6147   0.590   5.132   0.639
 1855SOL     OW 6148   1.293   4.952   1.423
 1855SOL    HW1 6149   1.330   4.879   1.365
 1855SOL    HW2 6150   1.345   4.957   1.508
 1856SOL     OW 6151   0.809   3.728   0.502
 1856SOL    HW1 6152   0.849   3.819   0.493
 1856SOL    HW2 6153   0.709   3.736   0.508
 1857SOL     OW 6154   0.197   4.700   1.264
 1857SOL    HW1 6155   0.286   4.655   1.250
 1857SOL    HW2 6156   0.124   4.635   1.245
 1858SOL     OW 6157   1.525   4.723   0.190
 1858SOL    HW1 6158   1.462   4.647   0.203
 1858SOL    HW2 6159   1.573   4.741   0.276
 1859SOL     OW 6160   0.317   3.975   1.801
 1859SOL    HW1 6161   0.388   4.046   1.807
 1859SOL    HW2 6162   0.229   4.014   1.829
 1860SOL     OW 6163   1.466   5.141   0.953
 1860SOL    HW1 6164   1.407   5.147   1.033
 1860SOL    HW2 6165   1.451   5.053   0.907
 1861SOL     OW 6166   0.598   4.453   0.270
 1861SOL    HW1 6167   0.622   4.522   0.202
 1861SOL    HW2 6168   0.520   4.486   0.324
 1862SOL     OW 6169   1.281   4.069   0.944
 1862SOL    HW1 6170   1.195   4.019   0.931
 1862SOL    HW2 6171   1.343   4.015   1.000
 1863SOL     OW 6172   0.807   4.329   1.465
 1863SOL    HW1 6173   0.760   4.326   1.554
 1863SOL    HW2 6174   0.756   4.274   1.399
 1864SOL     OW 6175   1.394   4.193   1.674
 1864SOL    HW1 6176   1.374   4.236   1.762
 1864SOL    HW2 6177   1.472   4.131   1.683
 1865SOL     OW 6178   0.973   4.614   1.572
 1865SOL    HW1 6179   1.019   4.530   1.543
 1865SOL    HW2 6180   0.917   4.648   1.497
 1866SOL     OW 6181   0.991   4.134   1.242
 1866SOL    HW1 6182   0.914   4.168   1.296
 1866SOL    HW2 6183   0.957   4.083   1.163
 1867SOL     OW 6184   1.041   4.425   0.429
 1867SOL    HW1 6185   1.067   4.421   0.525
 1867SOL    HW2 6186   0.956   4.374   0.415
 1868SOL     OW 6187   0.076   4.535   0.789
 1868SOL    HW1 6188   0.175   4.523   0.798
 1868SOL    HW2 6189   0.052   4.630   0.810
 1869SOL     OW 6190   0.865   4.072   0.195
 1869SOL    HW1 6191   0.924   4.135   0.146
 1869SOL    HW2 6192   0.884   3.978   0.166
 1870SOL     OW 6193   1.719   4.309   1.831
 1870SOL    HW1 6194   1.693   4.398   1.795
 1870SOL    HW2 6195   1.717   4.241   1.758
 1871SOL     OW 6196   1.362   4.868   0.545
 1871SOL    HW1 6197   1.445   4.839   0.497
 1871SOL    HW2 6198   1.313   4.935   0.489
 1872SOL     OW 6199   0.550   3.920   0.885
 1872SOL    HW1 6200   0.545   3.915   0.985
 1872SOL    HW2 6201   0.552   4.016   0.856
 1873SOL     OW 6202   1.008   5.180   0.477
 1873SOL    HW1 6203   0.962   5.252   0.425
 1873SOL    HW2 6204   1.004   5.200   0.575
 1874SOL     OW 6205   1.795   4.790   0.873
 1874SOL    HW1 6206   1.733   4.775   0.797
 1874SOL    HW2 6207   1.743   4.801   0.958
 1875SOL     OW 6208   1.227   5.274   1.506
 1875SOL    HW1 6209   1.233   5.197   1.570
 1875SOL    HW2 6210   1.175   5.248   1.426
 1876SOL     OW 6211   0.321   4.667   0.242
 1876SOL    HW1 6212   0.403   4.706   0.200
 1876SOL    HW2 6213   0.294   4.585   0.193
 1877SOL     OW 6214   1.458   4.459   0.728
 1877SOL    HW1 6215   1.453   4.394   0.803
 1877SOL    HW2 6216   1.538   4.518   0.741
 1878SOL     OW 6217   0.461   4.990   1.727
 1878SOL    HW1 6218   0.411   4.991   1.641
 1878SOL    HW2 6219   0.398   4.972   1.803
 1879SOL     OW 6220   1.111   5.500   0.237
 1879SOL    HW1 6221   1.051   5.438   0.287
 1879SOL    HW2 6222   1.142   5.456   0.152
 1880SOL     OW 6223   0.202   4.009   1.498
 1880SOL    HW1 6224   0.122   4.069   1.485
 1880SOL    HW2 6225   0.192   3.960   1.584
 1881SOL     OW 6226   1.632   5.101   0.081
 1881SOL    HW1 6227   1.600   5.195   0.071
 1881SOL    HW2 6228   1.556   5.038   0.069
 1882SOL     OW 6229   1.400   3.831   0.426
 1882SOL    HW1 6230   1.376   3.794   0.336
 1882SOL    HW2 6231   1.499   3.847   0.430
 1883SOL     OW 6232   0.382   4.424   0.480
 1883SOL    HW1 6233   0.427   4.334   0.477
 1883SOL    HW2 6234   0.288   4.413   0.513
 1884SOL     OW 6235   1.547   3.946   1.729
 1884SOL    HW1 6236   1.542   3.983   1.821
 1884SOL    HW2 6237   1.475   3.877   1.717
 1885SOL     OW 6238   0.614   3.846   0.117
 1885SOL    HW1 6239   0.712   3.824   0.124
 1885SOL    HW2 6240   0.583   3.829   0.024
 1886SOL     OW 6241   0.781   3.988   1.749
 1886SOL    HW1 6242   0.848   3.927   1.792
 1886SOL    HW2 6243   0.708   4.007   1.814
 1887SOL     OW 6244   1.351   4.314   1.433
 1887SOL    HW1 6245   1.379   4.271   1.518
 1887SOL    HW2 6246   1.376   4.410   1.434
 1888SOL     OW 6247   0.803   5.126   0.924
 1888SOL    HW1 6248   0.893   5.140   0.882
 1888SOL    HW2 6249   0.732   5.128   0.853
 1889SOL     OW 6250   0.922   4.227   0.899
 1889SOL    HW1 6251   0.897   4.218   0.803
 1889SOL    HW2 6252   0.970   4.145   0.930
 1890SOL     OW 6253   0.539   3.788   0.512
 1890SOL    HW1 6254   0.458   3.789   0.570
 1890SOL    HW2 6255   0.542   3.871   0.457
 1891SOL     OW 6256   1.434   4.912   0.041
 1891SOL    HW1 6257   1.466   4.836   0.098
 1891SOL    HW2 6258   1.342   4.939   0.071
 1892SOL     OW 6259   0.297   3.759   0.171
 1892SOL    HW1 6260   0.346   3.843   0.150
 1892SOL    HW2 6261   0.359   3.694   0.216
 1893SOL     OW 6262   0.935   3.960   0.480
 1893SOL    HW1 6263   0.887   4.001   0.402
 1893SOL    HW2 6264   1.034   3.958   0.461
 1894SOL     OW 6265   1.076   4.407   1.464
 1894SOL    HW1 6266   0.996   4.346   1.467
 1894SOL    HW2 6267   1.157   4.354   1.440
 1895SOL     OW 6268   1.227   5.294   0.793
 1895SOL    HW1 6269   1.248   5.368   0.728
 1895SOL    HW2 6270   1.295   5.294   0.866
 1896SOL     OW 6271   0.459   4.876   0.741
 1896SOL    HW1 6272   0.388   4.849   0.806
 1896SOL    HW2 6273   0.433   4.848   0.648
 1897SOL     OW 6274   1.032   4.273   0.016
 1897SOL    HW1 6275   0.991   4.355  -0.023
 1897SOL    HW2 6276   1.096   4.299   0.089
 1898SOL     OW 6277   0.078   4.280   1.386
 1898SOL    HW1 6278   0.170   4.279   1.345
 1898SOL    HW2 6279   0.072   4.354   1.453
 1899SOL     OW 6280   0.561   3.946   1.147
 1899SOL    HW1 6281   0.599   3.862   1.184
 1899SOL    HW2 6282   0.473   3.965   1.191
 1900SOL     OW 6283   0.866   4.178   0.642
 1900SOL    HW1 6284   0.834   4.250   0.580
 1900SOL    HW2 6285   0.890   4.097   0.589
 1901SOL     OW 6286   1.017   3.763   0.753
 1901SOL    HW1 6287   0.945   3.768   0.684
 1901SOL    HW2 6288   0.993   3.694   0.822
 1902SOL     OW 6289   1.429   4.897   0.867
 1902SOL    HW1 6290   1.374   4.813   0.860
 1902SOL    HW2 6291   1.455   4.926   0.775
 1903SOL     OW 6292   1.466   4.314   0.992
 1903SOL    HW1 6293   1.436   4.219   0.999
 1903SOL    HW2 6294   1.539   4.330   1.058
 1904SOL     OW 6295   1.857   4.557   0.377
 1904SOL    HW1 6296   1.899   4.493   0.441
 1904SOL    HW2 6297   1.819   4.506   0.299
 1905SOL     OW 6298   0.488   5.109   0.174
 1905SOL    HW1 6299   0.401   5.094   0.221
 1905SOL    HW2 6300   0.471   5.135   0.079
 1906SOL     OW 6301   1.664   5.004   0.657
 1906SOL    HW1 6302   1.763   5.012   0.671
 1906SOL    HW2 6303   1.619   5.088   0.688
 1907SOL     OW 6304   1.390   4.299   0.078
 1907SOL    HW1 6305   1.336   4.278   0.159
 1907SOL    HW2 6306   1.481   4.258   0.087
 1908SOL     OW 6307   0.527   3.980   0.328
 1908SOL    HW1 6308   0.554   3.921   0.253
 1908SOL    HW2 6309   0.527   4.075   0.297
 1909SOL     OW 6310   1.754   4.947   1.588
 1909SOL    HW1 6311   1.845   4.908   1.575
 1909SOL    HW2 6312   1.762   5.043   1.612
 1910SOL     OW 6313   1.064   5.071   1.340
 1910SOL    HW1 6314   0.984   5.048   1.395
 1910SOL    HW2 6315   1.147   5.045   1.389
 1911SOL     OW 6316   1.111   4.919   1.100
 1911SOL    HW1 6317   1.071   4.963   1.181
 1911SOL    HW2 6318   1.070   4.956   1.017
 1912SOL     OW 6319   1.638   4.823   1.079
 1912SOL    HW1 6320   1.643   4.904   1.138
 1912SOL    HW2 6321   1.552   4.825   1.028
 1913SOL     OW 6322   0.915   3.813   1.402
 1913SOL    HW1 6323   0.940   3.793   1.307
 1913SOL    HW2 6324   0.987   3.869   1.444
 1914SOL     OW 6325   0.980   4.840   1.719
 1914SOL    HW1 6326   0.881   4.846   1.729
 1914SOL    HW2 6327   1.003   4.760   1.663
 1915SOL     OW 6328   0.705   4.774   0.368
 1915SOL    HW1 6329   0.691   4.781   0.467
 1915SOL    HW2 6330   0.789   4.723   0.350
 1916SOL     OW 6331   0.410   4.537   1.251
 1916SOL    HW1 6332   0.496   4.549   1.301
 1916SOL    HW2 6333   0.368   4.450   1.278
 1917SOL     OW 6334   1.274   4.110   1.262
 1917SOL    HW1 6335   1.295   4.184   1.326
 1917SOL    HW2 6336   1.185   4.127   1.219
 1918SOL     OW 6337   0.064   5.288   1.331
 1918SOL    HW1 6338   0.018   5.370   1.297
 1918SOL    HW2 6339   0.162   5.307   1.340
 1919SOL     OW 6340   0.367   4.824   0.501
 1919SOL    HW1 6341   0.360   4.907   0.445
 1919SOL    HW2 6342   0.371   4.744   0.441
 1920SOL     OW 6343   0.566   4.261   0.865
 1920SOL    HW1 6344   0.578   4.327   0.791
 1920SOL    HW2 6345   0.612   4.295   0.948
 1921SOL     OW 6346   1.252   5.072   0.388
 1921SOL    HW1 6347   1.302   5.149   0.428
 1921SOL    HW2 6348   1.157   5.074   0.420
 1922SOL     OW 6349   1.272   5.169   1.142
 1922SOL    HW1 6350   1.319   5.182   1.229
 1922SOL    HW2 6351   1.206   5.095   1.151
 1923SOL     OW 6352   1.582   4.363   0.472
 1923SOL    HW1 6353   1.551   4.424   0.545
 1923SOL    HW2 6354   1.632   4.415   0.403
 1924SOL     OW 6355   0.354   5.234   1.329
 1924SOL    HW1 6356   0.333   5.190   1.242
 1924SOL    HW2 6357   0.451   5.260   1.332
 1925SOL     OW 6358   0.402   4.475   1.598
 1925SOL    HW1 6359   0.470   4.530   1.551
 1925SOL    HW2 6360   0.442   4.387   1.625
 1926SOL     OW 6361   1.587   4.503   1.670
 1926SOL    HW1 6362   1.495   4.541   1.665
 1926SOL    HW2 6363   1.647   4.550   1.605
 1927SOL     OW 6364   1.013   3.829   1.770
 1927SOL    HW1 6365   1.019   3.914   1.718
 1927SOL    HW2 6366   1.045   3.753   1.713
 1928SOL     OW 6367   0.504   3.774   1.740
 1928SOL    HW1 6368   0.462   3.717   1.670
 1928SOL    HW2 6369   0.438   3.843   1.772
 1929SOL     OW 6370   0.573   4.594   1.029
 1929SOL    HW1 6371   0.617   4.683   1.020
 1929SOL    HW2 6372   0.510   4.594   1.106
 1930SOL     OW 6373   1.360   4.586   1.045
 1930SOL    HW1 6374   1.285   4.586   0.979
 1930SOL    HW2 6375   1.397   4.494   1.054
 1931SOL     OW 6376   1.209   4.249   0.275
 1931SOL    HW1 6377   1.222   4.165   0.329
 1931SOL    HW2 6378   1.180   4.323   0.335
 1932SOL     OW 6379   0.307   3.937   1.231
 1932SOL    HW1 6380   0.284   3.974   1.321
 1932SOL    HW2 6381   0.277   3.842   1.225
 1933SOL     OW 6382   0.037   5.034   1.282
 1933SOL    HW1 6383   0.090   4.985   1.350
 1933SOL    HW2 6384   0.059   5.132   1.287
 1934SOL     OW 6385   0.732   4.358   1.064
 1934SOL    HW1 6386   0.791   4.332   0.988
 1934SOL    HW2 6387   0.704   4.454   1.053
 1935SOL     OW 6388   1.728   4.659   1.854
 1935SOL    HW1 6389   1.682   4.652   1.765
 1935SOL    HW2 6390   1.666   4.703   1.920
 1936SOL     OW 6391   0.307   3.787   0.618
 1936SOL    HW1 6392   0.296   3.881   0.651
 1936SOL    HW2 6393   0.302   3.724   0.695
 1937SOL     OW 6394   1.622   4.091   0.374
 1937SOL    HW1 6395   1.624   4.015   0.438
 1937SOL    HW2 6396   1.574   4.168   0.414
 1938SOL     OW 6397   1.023   4.490   0.966
 1938SOL    HW1 6398   1.038   4.511   1.062
 1938SOL    HW2 6399   0.993   4.395   0.957
 1939SOL     OW 6400   1.859   5.242   1.605
 1939SOL    HW1 6401   1.873   5.269   1.510
 1939SOL    HW2 6402   1.942   5.264   1.658
 1940SOL     OW 6403   0.350   4.622   1.804
 1940SOL    HW1 6404   0.426   4.666   1.852
 1940SOL    HW2 6405   0.385   4.575   1.722
 1941SOL     OW 6406   1.540   3.998   0.125
 1941SOL    HW1 6407   1.479   3.923   0.148
 1941SOL    HW2 6408   1.562   4.050   0.208
 1942SOL     OW 6409   1.303   4.562   0.042
 1942SOL    HW1 6410   1.337   4.469   0.057
 1942SOL    HW2 6411   1.321   4.589  -0.053
 1943SOL     OW 6412   1.068   5.057   0.849
 1943SOL    HW1 6413   1.075   4.973   0.794
 1943SOL    HW2 6414   1.130   5.126   0.813
 1944SOL     OW 6415   0.319   4.534   0.949
 1944SOL    HW1 6416   0.412   4.570   0.954
 1944SOL    HW2 6417   0.313   4.449   1.001
 1945SOL     OW 6418   0.339   4.233   1.006
 1945SOL    HW1 6419   0.287   4.150   0.989
 1945SOL    HW2 6420   0.416   4.238   0.942
 1946SOL     OW 6421   1.138   4.104   1.678
 1946SOL    HW1 6422   1.093   4.167   1.742
 1946SOL    HW2 6423   1.231   4.135   1.661
 1947SOL     OW 6424   1.160   3.931   1.477
 1947SOL    HW1 6425   1.160   3.995   1.554
 1947SOL    HW2 6426   1.188   3.979   1.394
 1948SOL     OW 6427   0.008   5.050   0.200
 1948SOL    HW1 6428  -0.085   5.071   0.169
 1948SOL    HW2 6429   0.018   4.951   0.213
 1949SOL     OW 6430   1.002   4.520   1.238
 1949SOL    HW1 6431   1.043   4.488   1.324
 1949SOL    HW2 6432   0.906   4.493   1.235
 1950SOL     OW 6433   0.040   4.268   1.114
 1950SOL    HW1 6434   0.125   4.235   1.073
 1950SOL    HW2 6435   0.053   4.283   1.212
 1951SOL     OW 6436   0.189   4.244   1.722
 1951SOL    HW1 6437   0.248   4.204   1.652
 1951SOL    HW2 6438   0.131   4.315   1.681
 1952SOL     OW 6439   1.369   4.674   1.660
 1952SOL    HW1 6440   1.408   4.763   1.680
 1952SOL    HW2 6441   1.379   4.654   1.563
 1953SOL     OW 6442   0.815   4.296   0.325
 1953SOL    HW1 6443   0.822   4.207   0.279
 1953SOL    HW2 6444   0.721   4.330   0.317
 1954SOL     OW 6445   1.657   4.328   1.206
 1954SOL    HW1 6446   1.619   4.259   1.268
 1954SOL    HW2 6447   1.739   4.292   1.162
 1955SOL     OW 6448   0.252   5.288   1.744
 1955SOL    HW1 6449   0.222   5.345   1.820
 1955SOL    HW2 6450   0.245   5.191   1.770
 1956SOL     OW 6451   0.671   4.188   1.269
 1956SOL    HW1 6452   0.637   4.099   1.239
 1956SOL    HW2 6453   0.697   4.242   1.189
 1957SOL     OW 6454   0.473   4.224   0.191
 1957SOL    HW1 6455   0.534   4.304   0.195
 1957SOL    HW2 6456   0.378   4.255   0.198
 1958SOL     OW 6457   0.159   4.861   1.466
 1958SOL    HW1 6458   0.181   4.800   1.542
 1958SOL    HW2 6459   0.169   4.812   1.380
 1959SOL     OW 6460   1.347   4.783   1.234
 1959SOL    HW1 6461   1.371   4.720   1.160
 1959SOL    HW2 6462   1.257   4.823   1.216
 1960SOL     OW 6463   1.302   4.579   0.309
 1960SOL    HW1 6464   1.216   4.548   0.351
 1960SOL    HW2 6465   1.298   4.565   0.210
 1961SOL     OW 6466   0.083   4.982   1.022
 1961SOL    HW1 6467   0.078   4.981   1.122
 1961SOL    HW2 6468   0.000   4.941   0.984
 1962SOL     OW 6469   0.688   5.386   1.716
 1962SOL    HW1 6470   0.632   5.467   1.725
 1962SOL    HW2 6471   0.740   5.390   1.630
 1963SOL     OW 6472   0.903   3.810   0.133
 1963SOL    HW1 6473   0.954   3.811   0.047
 1963SOL    HW2 6474   0.959   3.768   0.204
 1964SOL     OW 6475   1.726   3.859   0.523
 1964SOL    HW1 6476   1.799   3.842   0.456
 1964SOL    HW2 6477   1.695   3.772   0.561
 1965SOL     OW 6478   1.280   4.651   0.672
 1965SOL    HW1 6479   1.340   4.570   0.674
 1965SOL    HW2 6480   1.320   4.720   0.612
 1966SOL     OW 6481   0.830   4.997   1.422
 1966SOL    HW1 6482   0.825   5.030   1.517
 1966SOL    HW2 6483   0.744   5.016   1.376
 1967SOL     OW 6484   1.841   3.899   0.963
 1967SOL    HW1 6485   1.880   3.814   0.927
 1967SOL    HW2 6486   1.743   3.901   0.944
 1968SOL     OW 6487   0.263   4.050   0.720
 1968SOL    HW1 6488   0.184   4.101   0.686
 1968SOL    HW2 6489   0.254   4.035   0.818
 1969SOL     OW 6490   1.194   5.336   0.031
 1969SOL    HW1 6491   1.200   5.243   0.068
 1969SOL    HW2 6492   1.135   5.336  -0.049
 1970SOL     OW 6493   0.822   4.726   1.372
 1970SOL    HW1 6494   0.862   4.725   1.280
 1970SOL    HW2 6495   0.832   4.818   1.412
 1971SOL     OW 6496   0.916   4.634   0.291
 1971SOL    HW1 6497   0.979   4.672   0.223
 1971SOL    HW2 6498   0.956   4.551   0.330
 1972SOL     OW 6499   0.372   5.012   1.490
 1972SOL    HW1 6500   0.359   5.105   1.456
 1972SOL    HW2 6501   0.288   4.960   1.477
 1973SOL     OW 6502   1.614   5.016   1.289
 1973SOL    HW1 6503   1.674   5.019   1.369
 1973SOL    HW2 6504   1.539   5.080   1.302
 1974SOL     OW 6505   1.039   4.822   0.696
 1974SOL    HW1 6506   0.969   4.775   0.750
 1974SOL    HW2 6507   1.098   4.754   0.653
 1975SOL     OW 6508   1.014   3.960   0.971
 1975SOL    HW1 6509   1.006   3.924   0.878
 1975SOL    HW2 6510   1.012   3.884   1.036
 1976SOL     OW 6511   1.709   4.109   1.381
 1976SOL    HW1 6512   1.782   4.178   1.385
 1976SOL    HW2 6513   1.737   4.034   1.322
 1977SOL     OW 6514   0.255   5.072   0.290
 1977SOL    HW1 6515   0.159   5.073   0.263
 1977SOL    HW2 6516   0.267   5.125   0.374
 1978SOL     OW 6517   0.105   4.737   1.726
 1978SOL    HW1 6518   0.028   4.704   1.780
 1978SOL    HW2 6519   0.190   4.707   1.768
 1979SOL     OW 6520   0.672   3.927   1.489
 1979SOL    HW1 6521   0.762   3.911   1.449
 1979SOL    HW2 6522   0.680   3.932   1.588
 1980SOL     OW 6523   0.075   4.069   0.033
 1980SOL    HW1 6524  -0.017   4.041   0.004
 1980SOL    HW2 6525   0.106   4.146  -0.023
 1981SOL     OW 6526   1.440   4.580   1.398
 1981SOL    HW1 6527   1.383   4.632   1.335
 1981SOL    HW2 6528   1.536   4.592   1.374
 1982SOL     OW 6529   0.072   3.890   0.318
 1982SOL    HW1 6530   0.055   3.973   0.264
 1982SOL    HW2 6531   0.162   3.853   0.296
 1983SOL     OW 6532   1.183   5.059   0.119
 1983SOL    HW1 6533   1.084   5.048   0.121
 1983SOL    HW2 6534   1.217   5.074   0.212
 1984SOL     OW 6535   0.613   4.566   1.431
 1984SOL    HW1 6536   0.669   4.647   1.414
 1984SOL    HW2 6537   0.672   4.486   1.434
 1985SOL     OW 6538   0.716   4.289   1.708
 1985SOL    HW1 6539   0.735   4.354   1.782
 1985SOL    HW2 6540   0.776   4.209   1.717
 1986SOL     OW 6541   1.450   4.944   1.633
 1986SOL    HW1 6542   1.441   4.934   1.732
 1986SOL    HW2 6543   1.546   4.937   1.607
 1987SOL     OW 6544   1.674   4.607   1.254
 1987SOL    HW1 6545   1.647   4.518   1.217
 1987SOL    HW2 6546   1.675   4.675   1.181
 1988SOL     OW 6547   1.225   4.049   0.449
 1988SOL    HW1 6548   1.290   3.975   0.438
 1988SOL    HW2 6549   1.245   4.099   0.533
 1989SOL     OW 6550   0.594   4.469   0.652
 1989SOL    HW1 6551   0.644   4.554   0.633
 1989SOL    HW2 6552   0.506   4.471   0.604
 1990SOL     OW 6553   1.777   4.066   1.642
 1990SOL    HW1 6554   1.760   4.097   1.548
 1990SOL    HW2 6555   1.693   4.029   1.680
 1991SOL     OW 6556   1.730   4.658   1.517
 1991SOL    HW1 6557   1.768   4.749   1.532
 1991SOL    HW2 6558   1.722   4.641   1.418
 1992SOL     OW 6559   0.859   5.098   0.016
 1992SOL    HW1 6560   0.813   5.113   0.104
 1992SOL    HW2 6561   0.903   5.183  -0.014
 1993SOL     OW 6562   0.859   4.680   0.861
 1993SOL    HW1 6563   0.913   4.611   0.909
 1993SOL    HW2 6564   0.827   4.749   0.927
 1994SOL     OW 6565   1.083   4.708   0.087
 1994SOL    HW1 6566   1.060   4.761   0.005
 1994SOL    HW2 6567   1.164   4.652   0.068
 1995SOL     OW 6568   0.221   5.038   1.844
 1995SOL    HW1 6569   0.156   4.965   1.823
 1995SOL    HW2 6570   0.225   5.052   1.942
 1996SOL     OW 6571   0.079   4.964   0.653
 1996SOL    HW1 6572   0.078   4.917   0.741
 1996SOL    HW2 6573   0.161   4.936   0.602
 1997SOL     OW 6574   0.672   5.115   1.624
 1997SOL    HW1 6575   0.594   5.065   1.662
 1997SOL    HW2 6576   0.669   5.210   1.655
 1998SOL     OW 6577   1.824   3.916   1.227
 1998SOL    HW1 6578   1.820   3.826   1.271
 1998SOL    HW2 6579   1.827   3.905   1.128
 1999SOL     OW 6580   0.428   4.148   0.520
 1999SOL    HW1 6581   0.458   4.076   0.458
 1999SOL    HW2 6582   0.389   4.108   0.603
 2000SOL     OW 6583   1.705   5.211   1.104
 2000SOL    HW1 6584   1.612   5.186   1.077
 2000SOL    HW2 6585   1.731   5.161   1.186
 2001SOL     OW 6586   0.317   4.271   1.280
 2001SOL    HW1 6587   0.355   4.212   1.352
 2001SOL    HW2 6588   0.357   4.245   1.192
 2002SOL     OW 6589   1.424   3.938   1.112
 2002SOL    HW1 6590   1.476   3.873   1.167
 2002SOL    HW2 6591   1.375   4.001   1.173
 2003SOL     OW 6592   1.001   3.758   1.154
 2003SOL    HW1 6593   0.938   3.686   1.123
 2003SOL    HW2 6594   1.094   3.722   1.154
 2004SOL     OW 6595   0.770   5.054   0.301
 2004SOL    HW1 6596   0.724   4.967   0.318
 2004SOL    HW2 6597   0.861   5.051   0.342
 2005SOL     OW 6598   0.618   5.291   1.284
 2005SOL    HW1 6599   0.613   5.373   1.341
 2005SOL    HW2 6600   0.707   5.288   1.239
 2006SOL     OW 6601   1.352   3.776   0.168
 2006SOL    HW1 6602   1.387   3.735   0.084
 2006SOL    HW2 6603   1.262   3.738   0.188
 2007SOL     OW 6604   1.300   4.177   0.691
 2007SOL    HW1 6605   1.241   4.257   0.695
 2007SOL    HW2 6606   1.315   4.142   0.784
 2008SOL     OW 6607   1.593   3.945   0.882
 2008SOL    HW1 6608   1.509   3.944   0.936
 2008SOL    HW2 6609   1.595   4.028   0.826
 2009SOL     OW 6610   0.039   4.801   0.300
 2009SOL    HW1 6611   0.138   4.790   0.291
 2009SOL    HW2 6612  -0.001   4.715   0.332
 2010SOL     OW 6613   0.230   4.352   1.975
 2010SOL    HW1 6614   0.137   4.350   2.012
 2010SOL    HW2 6615   0.231   4.313   1.883
 2011SOL     OW 6616   0.225   3.999   2.858
 2011SOL    HW1 6617   0.260   3.982   2.950
 2011SOL    HW2 6618   0.137   3.954   2.846
 2012SOL     OW 6619   0.019   4.092   2.509
 2012SOL    HW1 6620  -0.063   4.135   2.548
 2012SOL    HW2 6621  -0.009   4.019   2.446
 2013SOL     OW 6622   0.569   4.999   3.027
 2013SOL    HW1 6623   0.476   4.992   2.990
 2013SOL    HW2 6624   0.580   5.088   3.071
 2014SOL     OW 6625   1.555   5.235   2.565
 2014SOL    HW1 6626   1.498   5.219   2.646
 2014SOL    HW2 6627   1.496   5.245   2.485
 2015SOL     OW 6628   1.135   4.427   2.579
 2015SOL    HW1 6629   1.192   4.505   2.554
 2015SOL    HW2 6630   1.075   4.453   2.655
 2016SOL     OW 6631   1.755   4.331   2.093
 2016SOL    HW1 6632   1.743   4.318   1.994
 2016SOL    HW2 6633   1.725   4.250   2.142
 2017SOL     OW 6634   0.768   4.868   2.885
 2017SOL    HW1 6635   0.690   4.885   2.945
 2017SOL    HW2 6636   0.802   4.955   2.849
 2018SOL     OW 6637   0.850   4.522   3.685
 2018SOL    HW1 6638   0.846   4.598   3.750
 2018SOL    HW2 6639   0.872   4.558   3.594
 2019SOL     OW 6640   0.685   4.736   2.527
 2019SOL    HW1 6641   0.754   4.720   2.597
 2019SOL    HW2 6642   0.612   4.793   2.565
 2020SOL     OW 6643   0.686   4.885   3.665
 2020SOL    HW1 6644   0.746   4.964   3.679
 2020SOL    HW2 6645   0.600   4.916   3.624
 2021SOL     OW 6646   0.335   5.159   2.923
 2021SOL    HW1 6647   0.257   5.128   2.870
 2021SOL    HW2 6648   0.393   5.217   2.866
 2022SOL     OW 6649   1.460   5.229   3.201
 2022SOL    HW1 6650   1.484   5.323   3.227
 2022SOL    HW2 6651   1.444   5.175   3.283
 2023SOL     OW 6652   0.438   4.116   3.361
 2023SOL    HW1 6653   0.520   4.060   3.370
 2023SOL    HW2 6654   0.357   4.058   3.365
 2024SOL     OW 6655   1.603   4.171   2.599
 2024SOL    HW1 6656   1.529   4.217   2.549
 2024SOL    HW2 6657   1.654   4.239   2.652
 2025SOL     OW 6658   1.127   5.065   3.552
 2025SOL    HW1 6659   1.174   5.065   3.640
 2025SOL    HW2 6660   1.079   4.978   3.541
 2026SOL     OW 6661   0.230   5.158   2.400
 2026SOL    HW1 6662   0.204   5.254   2.400
 2026SOL    HW2 6663   0.159   5.104   2.445
 2027SOL     OW 6664   0.240   4.815   2.748
 2027SOL    HW1 6665   0.254   4.731   2.800
 2027SOL    HW2 6666   0.185   4.879   2.803
 2028SOL     OW 6667   0.606   4.688   1.985
 2028SOL    HW1 6668   0.613   4.772   1.931
 2028SOL    HW2 6669   0.652   4.701   2.073
 2029SOL     OW 6670   1.594   3.838   3.342
 2029SOL    HW1 6671   1.576   3.905   3.270
 2029SOL    HW2 6672   1.591   3.884   3.431
 2030SOL     OW 6673   0.122   4.367   2.425
 2030SOL    HW1 6674   0.077   4.279   2.442
 2030SOL    HW2 6675   0.121   4.421   2.509
 2031SOL     OW 6676   0.027   5.320   1.979
 2031SOL    HW1 6677   0.008   5.224   2.000
 2031SOL    HW2 6678  -0.006   5.378   2.054
 2032SOL     OW 6679   1.689   4.646   2.474
 2032SOL    HW1 6680   1.784   4.617   2.482
 2032SOL    HW2 6681   1.681   4.711   2.399
 2033SOL     OW 6682   1.641   4.832   2.294
 2033SOL    HW1 6683   1.727   4.834   2.242
 2033SOL    HW2 6684   1.655   4.879   2.382
 2034SOL     OW 6685   0.113   4.461   3.459
 2034SOL    HW1 6686   0.201   4.448   3.504
 2034SOL    HW2 6687   0.100   4.558   3.437
 2035SOL     OW 6688   0.613   5.089   2.588
 2035SOL    HW1 6689   0.564   5.002   2.597
 2035SOL    HW2 6690   0.590   5.132   2.501
 2036SOL     OW 6691   1.293   4.952   3.285
 2036SOL    HW1 6692   1.330   4.879   3.227
 2036SOL    HW2 6693   1.345   4.957   3.370
 2037SOL     OW 6694   0.809   3.728   2.364
 2037SOL    HW1 6695   0.849   3.819   2.355
 2037SOL    HW2 6696   0.709   3.736   2.370
 2038SOL     OW 6697   0.197   4.700   3.126
 2038SOL    HW1 6698   0.286   4.655   3.112
 2038SOL    HW2 6699   0.124   4.635   3.107
 2039SOL     OW 6700   1.525   4.723   2.052
 2039SOL    HW1 6701   1.462   4.647   2.065
 2039SOL    HW2 6702   1.573   4.741   2.138
 2040SOL     OW 6703   0.317   3.975   3.663
 2040SOL    HW1 6704   0.388   4.046   3.669
 2040SOL    HW2 6705   0.229   4.014   3.691
 2041SOL     OW 6706   1.466   5.141   2.815
 2041SOL    HW1 6707   1.407   5.147   2.895
 2041SOL    HW2 6708   1.451   5.053   2.769
 2042SOL     OW 6709   0.598   4.453   2.132
 2042SOL    HW1 6710   0.622   4.522   2.064
 2042SOL    HW2 6711   0.520   4.486   2.186
 2043SOL     OW 6712   1.281   4.069   2.806
 2043SOL    HW1 6713   1.195   4.019   2.793
 2043SOL    HW2 6714   1.343   4.015   2.862
 2044SOL     OW 6715   0.807   4.329   3.327
 2044SOL    HW1 6716   0.760   4.326   3.416
 2044SOL    HW2 6717   0.756   4.274   3.261
 2045SOL     OW 6718   1.394   4.193   3.536
 2045SOL    HW1 6719   1.374   4.236   3.624
 2045SOL    HW2 6720   1.472   4.131   3.545
 2046SOL     OW 6721   0.973   4.614   3.434
 2046SOL    HW1 6722   1.019   4.530   3.405
 2046SOL    HW2 6723   0.917   4.648   3.359
 2047SOL     OW 6724   0.991   4.134   3.104
 2047SOL    HW1 6725   0.914   4.168   3.158
 2047SOL    HW2 6726   0.957   4.083   3.025
 2048SOL     OW 6727   1.041   4.425   2.291
 2048SOL    HW1 6728   1.067   4.421   2.387
 2048SOL    HW2 6729   0.956   4.374   2.277
 2049SOL     OW 6730   0.076   4.535   2.651
 2049SOL    HW1 6731   0.175   4.523   2.660
 2049SOL    HW2 6732   0.052   4.630   2.672
 2050SOL     OW 6733   0.865   4.072   2.057
 2050SOL    HW1 6734   0.924   4.135   2.008
 2050SOL    HW2 6735   0.884   3.978   2.028
 2051SOL     OW 6736   1.719   4.309   3.693
 2051SOL    HW1 6737   1.693   4.398   3.657
 2051SOL    HW2 6738   1.717   4.241   3.620
 2052SOL     OW 6739   1.362   4.868   2.407
 2052SOL    HW1 6740   1.445   4.839   2.359
 2052SOL    HW2 6741   1.313   4.935   2.351
 2053SOL     OW 6742   0.550   3.920   2.747
 2053SOL    HW1 6743   0.545   3.915   2.847
 2053SOL    HW2 6744   0.552   4.016   2.718
 2054SOL     OW 6745   1.008   5.180   2.339
 2054SOL    HW1 6746   0.962   5.252   2.287
 2054SOL    HW2 6747   1.004   5.200   2.437
 2055SOL     OW 6748   1.795   4.790   2.735
 2055SOL    HW1 6749   1.733   4.775   2.659
 2055SOL    HW2 6750   1.743   4.801   2.820
 2056SOL     OW 6751   1.227   5.274   3.368
 2056SOL    HW1 6752   1.233   5.197   3.432
 2056SOL    HW2 6753   1.175   5.248   3.288
 2057SOL     OW 6754   0.321   4.667   2.104
 2057SOL    HW1 6755   0.403   4.706   2.062
 2057SOL    HW2 6756   0.294   4.585   2.055
 2058SOL     OW 6757   1.458   4.459   2.590
 2058SOL    HW1 6758   1.453   4.394   2.665
 2058SOL    HW2 6759   1.538   4.518   2.603
 2059SOL     OW 6760   0.461   4.990   3.589
 2059SOL    HW1 6761   0.411   4.991   3.503
 2059SOL    HW2 6762   0.398   4.972   3.665
 2060SOL     OW 6763   1.111   5.500   2.099
 2060SOL    HW1 6764   1.051   5.438   2.149
 2060SOL    HW2 6765   1.142   5.456   2.014
 2061SOL     OW 6766   0.202   4.009   3.360
 2061SOL    HW1 6767   0.122   4.069   3.347
 2061SOL    HW2 6768   0.192   3.960   3.446
 2062SOL     OW 6769   1.632   5.101   1.943
 2062SOL    HW1 6770   1.600   5.195   1.933
 2062SOL    HW2 6771   1.556   5.038   1.931
 2063SOL     OW 6772   1.400   3.831   2.288
 2063SOL    HW1 6773   1.376   3.794   2.198
 2063SOL    HW2 6774   1.499   3.847   2.292
 2064SOL     OW 6775   0.382   4.424   2.342
 2064SOL    HW1 6776   0.427   4.334   2.339
 2064SOL    HW2 6777   0.288   4.413   2.375
 2065SOL     OW 6778   1.547   3.946   3.591
 2065SOL    HW1 6779   1.542   3.983   3.683
 2065SOL    HW2 6780   1.475   3.877   3.579
 2066SOL     OW 6781   0.614   3.846   1.979
 2066SOL    HW1 6782   0.712   3.824   1.986
 2066SOL    HW2 6783   0.583   3.829   1.886
 2067SOL     OW 6784   0.781   3.988   3.611
 2067SOL    HW1 6785   0.848   3.927   3.654
 2067SOL    HW2 6786   0.708   4.007   3.676
 2068SOL     OW 6787   1.351   4.314   3.295
 2068SOL    HW1 6788   1.379   4.271   3.380
 2068SOL    HW2 6789   1.376   4.410   3.296
 2069SOL     OW 6790   0.803   5.126   2.786
 2069SOL    HW1 6791   0.893   5.140   2.744
 2069SOL    HW2 6792   0.732   5.128   2.715
 2070SOL     OW 6793   0.922   4.227   2.761
 2070SOL    HW1 6794   0.897   4.218   2.665
 2070SOL    HW2 6795   0.970   4.145   2.792
 2071SOL     OW 6796   0.539   3.788   2.374
 2071SOL    HW1 6797   0.458   3.789   2.432
 2071SOL    HW2 6798   0.542   3.871   2.319
 2072SOL     OW 6799   1.434   4.912   1.903
 2072SOL    HW1 6800   1.466   4.836   1.960
 2072SOL    HW2 6801   1.342   4.939   1.933
 2073SOL     OW 6802   0.297   3.759   2.033
 2073SOL    HW1 6803   0.346   3.843   2.012
 2073SOL    HW2 6804   0.359   3.694   2.078
 2074SOL     OW 6805   0.935   3.960   2.342
 2074SOL    HW1 6806   0.887   4.001   2.264
 2074SOL    HW2 6807   1.034   3.958   2.323
 2075SOL     OW 6808   1.076   4.407   3.326
 2075SOL    HW1 6809   0.996   4.346   3.329
 2075SOL    HW2 6810   1.157   4.354   3.302
 2076SOL     OW 6811   1.227   5.294   2.655
 2076SOL    HW1 6812   1.248   5.368   2.590
 2076SOL    HW2 6813   1.295   5.294   2.728
 2077SOL     OW 6814   0.459   4.876   2.603
 2077SOL    HW1 6815   0.388   4.849   2.668
 2077SOL    HW2 6816   0.433   4.848   2.510
 2078SOL     OW 6817   1.032   4.273   1.878
 2078SOL    HW1 6818   0.991   4.355   1.839
 2078SOL    HW2 6819   1.096   4.299   1.951
 2079SOL     OW 6820   0.078   4.280   3.248
 2079SOL    HW1 6821   0.170   4.279   3.207
 2079SOL    HW2 6822   0.072   4.354   3.315
 2080SOL     OW 6823   0.561   3.946   3.009
 2080SOL    HW1 6824   0.599   3.862   3.046
 2080SOL    HW2 6825   0.473   3.965   3.053
 2081SOL     OW 6826   0.866   4.178   2.504
 2081SOL    HW1 6827   0.834   4.250   2.442
 2081SOL    HW2 6828   0.890   4.097   2.451
 2082SOL     OW 6829   1.017   3.763   2.615
 2082SOL    HW1 6830   0.945   3.768   2.546
 2082SOL    HW2 6831   0.993   3.694   2.684
 2083SOL     OW 6832   1.429   4.897   2.729
 2083SOL    HW1 6833   1.374   4.813   2.722
 2083SOL    HW2 6834   1.455   4.926   2.637
 2084SOL     OW 6835   1.466   4.314   2.854
 2084SOL    HW1 6836   1.436   4.219   2.861
 2084SOL    HW2 6837   1.539   4.330   2.920
 2085SOL     OW 6838   1.857   4.557   2.239
 2085SOL    HW1 6839   1.899   4.493   2.303
 2085SOL    HW2 6840   1.819   4.506   2.161
 2086SOL     OW 6841   0.488   5.109   2.036
 2086SOL    HW1 6842   0.401   5.094   2.083
 2086SOL    HW2 6843   0.471   5.135   1.941
 2087SOL     OW 6844   1.664   5.004   2.519
 2087SOL    HW1 6845   1.763   5.012   2.533
 2087SOL    HW2 6846   1.619   5.088   2.550
 2088SOL     OW 6847   1.390   4.299   1.940
 2088SOL    HW1 6848   1.336   4.278   2.021
 2088SOL    HW2 6849   1.481   4.258   1.949
 2089SOL     OW 6850   0.527   3.980   2.190
 2089SOL    HW1 6851   0.554   3.921   2.115
 2089SOL    HW2 6852   0.527   4.075   2.159
 2090SOL     OW 6853   1.754   4.947   3.450
 2090SOL    HW1 6854   1.845   4.908   3.437
 2090SOL    HW2 6855   1.762   5.043   3.474
 2091SOL     OW 6856   1.064   5.071   3.202
 2091SOL    HW1 6857   0.984   5.048   3.257
 2091SOL    HW2 6858   1.147   5.045   3.251
 2092SOL     OW 6859   1.111   4.919   2.962
 2092SOL    HW1 6860   1.071   4.963   3.043
 2092SOL    HW2 6861   1.070   4.956   2.879
 2093SOL     OW 6862   1.638   4.823   2.941
 2093SOL    HW1 6863   1.643   4.904   3.000
 2093SOL    HW2 6864   1.552   4.825   2.890
 2094SOL     OW 6865   0.915   3.813   3.264
 2094SOL    HW1 6866   0.940   3.793   3.169
 2094SOL    HW2 6867   0.987   3.869   3.306
 2095SOL     OW 6868   0.980   4.840   3.581
 2095SOL    HW1 6869   0.881   4.846   3.591
 2095SOL    HW2 6870   1.003   4.760   3.525
 2096SOL     OW 6871   0.705   4.774   2.230
 2096SOL    HW1 6872   0.691   4.781   2.329
 2096SOL    HW2 6873   0.789   4.723   2.212
 2097SOL     OW 6874   0.410   4.537   3.113
 2097SOL    HW1 6875   0.496   4.549   3.163
 2097SOL    HW2 6876   0.368   4.450   3.140
 2098SOL     OW 6877   1.274   4.110   3.124
 2098SOL    HW1 6878   1.295   4.184   3.188
 2098SOL    HW2 6879   1.185   4.127   3.081
 2099SOL     OW 6880   0.064   5.288   3.193
 2099SOL    HW1 6881   0.018   5.370   3.159
 2099SOL    HW2 6882   0.162   5.307   3.202
 2100SOL     OW 6883   0.367   4.824   2.363
 2100SOL    HW1 6884   0.360   4.907   2.307
 2100SOL    HW2 6885   0.371   4.744   2.303
 2101SOL     OW 6886   0.566   4.261   2.727
 2101SOL    HW1 6887   0.578   4.327   2.653
 2101SOL    HW2 6888   0.612   4.295   2.810
 2102SOL     OW 6889   1.252   5.072   2.250
 2102SOL    HW1 6890   1.302   5.149   2.290
 2102SOL    HW2 6891   1.157   5.074   2.282
 2103SOL     OW 6892   1.272   5.169   3.004
 2103SOL    HW1 6893   1.319   5.182   3.091
 2103SOL    HW2 6894   1.206   5.095   3.013
 2104SOL     OW 6895   1.582   4.363   2.334
 2104SOL    HW1 6896   1.551   4.424   2.407
 2104SOL    HW2 6897   1.632   4.415   2.265
 2105SOL     OW 6898   0.354   5.234   3.191
 2105SOL    HW1 6899   0.333   5.190   3.104
 2105SOL    HW2 6900   0.451   5.260   3.194
 2106SOL     OW 6901   0.402   4.475   3.460
 2106SOL    HW1 6902   0.470   4.530   3.413
 2106SOL    HW2 6903   0.442   4.387   3.487
 2107SOL     OW 6904   1.587   4.503   3.532
 2107SOL    HW1 6905   1.495   4.541   3.527
 2107SOL    HW2 6906   1.647   4.550   3.467
 2108SOL     OW 6907   1.013   3.829   3.632
 2108SOL    HW1 6908   1.019   3.914   3.580
 2108SOL    HW2 6909   1.045   3.753   3.575
 2109SOL     OW 6910   0.504   3.774   3.602
 2109SOL    HW1 6911   0.462   3.717   3.532
 2109SOL    HW2 6912   0.438   3.843   3.634
 2110SOL     OW 6913   0.573   4.594   2.891
 2110SOL    HW1 6914   0.617   4.683   2.882
 2110SOL    HW2 6915   0.510   4.594   2.968
 2111SOL     OW 6916   1.360   4.586   2.907
 2111SOL    HW1 6917   1.285   4.586   2.841
 2111SOL    HW2 6918   1.397   4.494   2.916
 2112SOL     OW 6919   1.209   4.249   2.137
 2112SOL    HW1 6920   1.222   4.165   2.191
 2112SOL    HW2 6921   1.180   4.323   2.197
 2113SOL     OW 6922   0.307   3.937   3.093
 2113SOL    HW1 6923   0.284   3.974   3.183
 2113SOL    HW2 6924   0.277   3.842   3.087
 2114SOL     OW 6925   0.037   5.034   3.144
 2114SOL    HW1 6926   0.090   4.985   3.212
 2114SOL    HW2 6927   0.059   5.132   3.149
 2115SOL     OW 6928   0.732   4.358   2.926
 2115SOL    HW1 6929   0.791   4.332   2.850
 2115SOL    HW2 6930   0.704   4.454   2.915
 2116SOL     OW 6931   1.728   4.659   3.716
 2116SOL    HW1 6932   1.682   4.652   3.627
 2116SOL    HW2 6933   1.666   4.703   3.782
 2117SOL     OW 6934   0.307   3.787   2.480
 2117SOL    HW1 6935   0.296   3.881   2.513
 2117SOL    HW2 6936   0.302   3.724   2.557
 2118SOL     OW 6937   1.622   4.091   2.236
 2118SOL    HW1 6938   1.624   4.015   2.300
 2118SOL    HW2 6939   1.574   4.168   2.276
 2119SOL     OW 6940   1.023   4.490   2.828
 2119SOL    HW1 6941   1.038   4.511   2.924
 2119SOL    HW2 6942   0.993   4.395   2.819
 2120SOL     OW 6943   1.859   5.242   3.467
 2120SOL    HW1 6944   1.873   5.269   3.372
 2120SOL    HW2 6945   1.942   5.264   3.520
 2121SOL     OW 6946   0.350   4.622   3.666
 2121SOL    HW1 6947   0.426   4.666   3.714
 2121SOL    HW2 6948   0.385   4.575   3.584
 2122SOL     OW 6949   1.540   3.998   1.987
 2122SOL    HW1 6950   1.479   3.923   2.010
 2122SOL    HW2 6951   1.562   4.050   2.070
 2123SOL     OW 6952   1.303   4.562   1.904
 2123SOL    HW1 6953   1.337   4.469   1.919
 2123SOL    HW2 6954   1.321   4.589   1.809
 2124SOL     OW 6955   1.068   5.057   2.711
 2124SOL    HW1 6956   1.075   4.973   2.656
 2124SOL    HW2 6957   1.130   5.126   2.675
 2125SOL     OW 6958   0.319   4.534   2.811
 2125SOL    HW1 6959   0.412   4.570   2.816
 2125SOL    HW2 6960   0.313   4.449   2.863
 2126SOL     OW 6961   0.339   4.233   2.868
 2126SOL    HW1 6962   0.287   4.150   2.851
 2126SOL    HW2 6963   0.416   4.238   2.804
 2127SOL     OW 6964   1.138   4.104   3.540
 2127SOL    HW1 6965   1.093   4.167   3.604
 2127SOL    HW2 6966   1.231   4.135   3.523
 2128SOL     OW 6967   1.160   3.931   3.339
 2128SOL    HW1 6968   1.160   3.995   3.416
 2128SOL    HW2 6969   1.188   3.979   3.256
 2129SOL     OW 6970   0.008   5.050   2.062
 2129SOL    HW1 6971  -0.085   5.071   2.031
 2129SOL    HW2 6972   0.018   4.951   2.075
 2130SOL     OW 6973   1.002   4.520   3.100
 2130SOL    HW1 6974   1.043   4.488   3.186
 2130SOL    HW2 6975   0.906   4.493   3.097
 2131SOL     OW 6976   0.040   4.268   2.976
 2131SOL    HW1 6977   0.125   4.235   2.935
 2131SOL    HW2 6978   0.053   4.283   3.074
 2132SOL     OW 6979   0.189   4.244   3.584
 2132SOL    HW1 6980   0.248   4.204   3.514
 2132SOL    HW2 6981   0.131   4.315   3.543
 2133SOL     OW 6982   1.369   4.674   3.522
 2133SOL    HW1 6983   1.408   4.763   3.542
 2133SOL    HW2 6984   1.379   4.654   3.425
 2134SOL     OW 6985   0.815   4.296   2.187
 2134SOL    HW1 6986   0.822   4.207   2.141
 2134SOL    HW2 6987   0.721   4.330   2.179
 2135SOL     OW 6988   1.657   4.328   3.068
 2135SOL    HW1 6989   1.619   4.259   3.130
 2135SOL    HW2 6990   1.739   4.292   3.024
 2136SOL     OW 6991   0.252   5.288   3.606
 2136SOL    HW1 6992   0.222   5.345   3.682
 2136SOL    HW2 6993   0.245   5.191   3.632
 2137SOL     OW 6994   0.671   4.188   3.131
 2137SOL    HW1 6995   0.637   4.099   3.101
 2137SOL    HW2 6996   0.697   4.242   3.051
 2138SOL     OW 6997   0.473   4.224   2.053
 2138SOL    HW1 6998   0.534   4.304   2.057
 2138SOL    HW2 6999   0.378   4.255   2.060
 2139SOL     OW 7000   0.159   4.861   3.328
 2139SOL    HW1 7001   0.181   4.800   3.404
 2139SOL    HW2 7002   0.169   4.812   3.242
 2140SOL     OW 7003   1.347   4.783   3.096
 2140SOL    HW1 7004   1.371   4.720   3.022
 2140SOL    HW2 7005   1.257   4.823   3.078
 2141SOL     OW 7006   1.302   4.579   2.171
 2141SOL    HW1 7007   1.216   4.548   2.213
 2141SOL    HW2 7008   1.298   4.565   2.072
 2142SOL     OW 7009   0.083   4.982   2.884
 2142SOL    HW1 7010   0.078   4.981   2.984
 2142SOL    HW2 7011   0.000   4.941   2.846
 2143SOL     OW 7012   0.688   5.386   3.578
 2143SOL    HW1 7013   0.632   5.467   3.587
 2143SOL    HW2 7014   0.740   5.390   3.492
 2144SOL     OW 7015   1.726   3.859   2.385
 2144SOL    HW1 7016   1.799   3.842   2.318
 2144SOL    HW2 7017   1.695   3.772   2.423
 2145SOL     OW 7018   1.280   4.651   2.534
 2145SOL    HW1 7019   1.340   4.570   2.536
 2145SOL    HW2 7020   1.320   4.720   2.474
 2146SOL     OW 7021   0.830   4.997   3.284
 2146SOL    HW1 7022   0.825   5.030   3.379
 2146SOL    HW2 7023   0.744   5.016   3.238
 2147SOL     OW 7024   1.841   3.899   2.825
 2147SOL    HW1 7025   1.880   3.814   2.789
 2147SOL    HW2 7026   1.743   3.901   2.806
 2148SOL     OW 7027   0.263   4.050   2.582
 2148SOL    HW1 7028   0.184   4.101   2.548
 2148SOL    HW2 7029   0.254   4.035   2.680
 2149SOL     OW 7030   0.822   4.726   3.234
 2149SOL    HW1 7031   0.862   4.725   3.142
 2149SOL    HW2 7032   0.832   4.818   3.274
 2150SOL     OW 7033   0.916   4.634   2.153
 2150SOL    HW1 7034   0.979   4.672   2.085
 2150SOL    HW2 7035   0.956   4.551   2.192
 2151SOL     OW 7036   0.372   5.012   3.352
 2151SOL    HW1 7037   0.359   5.105   3.318
 2151SOL    HW2 7038   0.288   4.960   3.339
 2152SOL     OW 7039   1.614   5.016   3.151
 2152SOL    HW1 7040   1.674   5.019   3.231
 2152SOL    HW2 7041   1.539   5.080   3.164
 2153SOL     OW 7042   1.039   4.822   2.558
 2153SOL    HW1 7043   0.969   4.775   2.612
 2153SOL    HW2 7044   1.098   4.754   2.515
 2154SOL     OW 7045   1.014   3.960   2.833
 2154SOL    HW1 7046   1.006   3.924   2.740
 2154SOL    HW2 7047   1.012   3.884   2.898
 2155SOL     OW 7048   1.709   4.109   3.243
 2155SOL    HW1 7049   1.782   4.178   3.247
 2155SOL    HW2 7050   1.737   4.034   3.184
 2156SOL     OW 7051   0.255   5.072   2.152
 2156SOL    HW1 7052   0.159   5.073   2.125
 2156SOL    HW2 7053   0.267   5.125   2.236
 2157SOL     OW 7054   0.105   4.737   3.588
 2157SOL    HW1 7055   0.028   4.704   3.642
 2157SOL    HW2 7056   0.190   4.707   3.630
 2158SOL     OW 7057   0.672   3.927   3.351
 2158SOL    HW1 7058   0.762   3.911   3.311
 2158SOL    HW2 7059   0.680   3.932   3.450
 2159SOL     OW 7060   0.075   4.069   1.895
 2159SOL    HW1 7061  -0.017   4.041   1.866
 2159SOL    HW2 7062   0.106   4.146   1.839
 2160SOL     OW 7063   1.440   4.580   3.260
 2160SOL    HW1 7064   1.383   4.632   3.197
 2160SOL    HW2 7065   1.536   4.592   3.236
 2161SOL     OW 7066   0.072   3.890   2.180
 2161SOL    HW1 7067   0.055   3.973   2.126
 2161SOL    HW2 7068   0.162   3.853   2.158
 2162SOL     OW 7069   1.183   5.059   1.981
 2162SOL    HW1 7070   1.084   5.048   1.983
 2162SOL    HW2 7071   1.217   5.074   2.074
 2163SOL     OW 7072   0.613   4.566   3.293
 2163SOL    HW1 7073   0.669   4.647   3.276
 2163SOL    HW2 7074   0.672   4.486   3.296
 2164SOL     OW 7075   0.716   4.289   3.570
 2164SOL    HW1 7076   0.735   4.354   3.644
 2164SOL    HW2 7077   0.776   4.209   3.579
 2165SOL     OW 7078   1.450   4.944   3.495
 2165SOL    HW1 7079   1.441   4.934   3.594
 2165SOL    HW2 7080   1.546   4.937   3.469
 2166SOL     OW 7081   1.674   4.607   3.116
 2166SOL    HW1 7082   1.647   4.518   3.079
 2166SOL    HW2 7083   1.675   4.675   3.043
 2167SOL     OW 7084   1.225   4.049   2.311
 2167SOL    HW1 7085   1.290   3.975   2.300
 2167SOL    HW2 7086   1.245   4.099   2.395
 2168SOL     OW 7087   0.594   4.469   2.514
 2168SOL    HW1 7088   0.644   4.554   2.495
 2168SOL    HW2 7089   0.506   4.471   2.466
 2169SOL     OW 7090   1.777   4.066   3.504
 2169SOL    HW1 7091   1.760   4.097   3.410
 2169SOL    HW2 7092   1.693   4.029   3.542
 2170SOL     OW 7093   1.730   4.658   3.379
 2170SOL    HW1 7094   1.768   4.749   3.394
 2170SOL    HW2 7095   1.722   4.641   3.280
 2171SOL     OW 7096   0.859   5.098   1.878
 2171SOL    HW1 7097   0.813   5.113   1.966
 2171SOL    HW2 7098   0.903   5.183   1.848
 2172SOL     OW 7099   0.859   4.680   2.723
 2172SOL    HW1 7100   0.913   4.611   2.771
 2172SOL    HW2 7101   0.827   4.749   2.789
 2173SOL     OW 7102   1.083   4.708   1.949
 2173SOL    HW1 7103   1.060   4.761   1.867
 2173SOL    HW2 7104   1.164   4.652   1.930
 2174SOL     OW 7105   0.221   5.038   3.706
 2174SOL    HW1 7106   0.156   4.965   3.685
 2174SOL    HW2 7107   0.225   5.052   3.804
 2175SOL     OW 7108   0.079   4.964   2.515
 2175SOL    HW1 7109   0.078   4.917   2.603
 2175SOL    HW2 7110   0.161   4.936   2.464
 2176SOL     OW 7111   0.672   5.115   3.486
 2176SOL    HW1 7112   0.594   5.065   3.524
 2176SOL    HW2 7113   0.669   5.210   3.517
 2177SOL     OW 7114   1.824   3.916   3.089
 2177SOL    HW1 7115   1.820   3.826   3.133
 2177SOL    HW2 7116   1.827   3.905   2.990
 2178SOL     OW 7117   0.428   4.148   2.382
 2178SOL    HW1 7118   0.458   4.076   2.320
 2178SOL    HW2 7119   0.389   4.108   2.465
 2179SOL     OW 7120   1.705   5.211   2.966
 2179SOL    HW1 7121   1.612   5.186   2.939
 2179SOL    HW2 7122   1.731   5.161   3.048
 2180SOL     OW 7123   0.317   4.271   3.142
 2180SOL    HW1 7124   0.355   4.212   3.214
 2180SOL    HW2 7125   0.357   4.245   3.054
 2181SOL     OW 7126   1.424   3.938   2.974
 2181SOL    HW1 7127   1.476   3.873   3.029
 2181SOL    HW2 7128   1.375   4.001   3.035
 2182SOL     OW 7129   1.001   3.758   3.016
 2182SOL    HW1 7130   0.938   3.686   2.985
 2182SOL    HW2 7131   1.094   3.722   3.016
 2183SOL     OW 7132   0.770   5.054   2.163
 2183SOL    HW1 7133   0.724   4.967   2.180
 2183SOL    HW2 7134   0.861   5.051   2.204
 2184SOL     OW 7135   0.618   5.291   3.146
 2184SOL    HW1 7136   0.613   5.373   3.203
 2184SOL    HW2 7137   0.707   5.288   3.101
 2185SOL     OW 7138   1.352   3.776   2.030
 2185SOL    HW1 7139   1.387   3.735   1.946
 2185SOL    HW2 7140   1.262   3.738   2.050
 2186SOL     OW 7141   1.300   4.177   2.553
 2186SOL    HW1 7142   1.241   4.257   2.557
 2186SOL    HW2 7143   1.315   4.142   2.646
 2187SOL     OW 7144   1.593   3.945   2.744
 2187SOL    HW1 7145   1.509   3.944   2.798
 2187SOL    HW2 7146   1.595   4.028   2.688
 2188SOL     OW 7147   0.039   4.801   2.162
 2188SOL    HW1 7148   0.138   4.790   2.153
 2188SOL    HW2 7149  -0.001   4.715   2.194
 2189SOL     OW 7150   0.230   4.352   3.837
 2189SOL    HW1 7151   0.137   4.350   3.874
 2189SOL    HW2 7152   0.231   4.313   3.745
 2190SOL     OW 7153   0.225   3.999   4.720
 2190SOL    HW1 7154   0.260   3.982   4.812
 2190SOL    HW2 7155   0.137   3.954   4.708
 2191SOL     OW 7156   0.019   4.092   4.371
 2191SOL    HW1 7157  -0.063   4.135   4.410
 2191SOL    HW2 7158  -0.009   4.019   4.308
 2192SOL     OW 7159   0.569   4.999   4.889
 2192SOL    HW1 7160   0.476   4.992   4.852
 2192SOL    HW2 7161   0.580   5.088   4.933
 2193SOL     OW 7162   1.555   5.235   4.427
 2193SOL    HW1 7163   1.498   5.219   4.508
 2193SOL    HW2 7164   1.496   5.245   4.347
 2194SOL     OW 7165   1.135   4.427   4.441
 2194SOL    HW1 7166   1.192   4.505   4.416
 2194SOL    HW2 7167   1.075   4.453   4.517
 2195SOL     OW 7168   1.755   4.331   3.955
 2195SOL    HW1 7169   1.743   4.318   3.856
 2195SOL    HW2 7170   1.725   4.250   4.004
 2196SOL     OW 7171   0.768   4.868   4.747
 2196SOL    HW1 7172   0.690   4.885   4.807
 2196SOL    HW2 7173   0.802   4.955   4.711
 2197SOL     OW 7174   0.850   4.522   5.547
 2197SOL    HW1 7175   0.846   4.598   5.612
 2197SOL    HW2 7176   0.872   4.558   5.456
 2198SOL     OW 7177   0.685   4.736   4.389
 2198SOL    HW1 7178   0.754   4.720   4.459
 2198SOL    HW2 7179   0.612   4.793   4.427
 2199SOL     OW 7180   0.686   4.885   5.527
 2199SOL    HW1 7181   0.746   4.964   5.541
 2199SOL    HW2 7182   0.600   4.916   5.486
 2200SOL     OW 7183   0.335   5.159   4.785
 2200SOL    HW1 7184   0.257   5.128   4.732
 2200SOL    HW2 7185   0.393   5.217   4.728
 2201SOL     OW 7186   1.460   5.229   5.063
 2201SOL    HW1 7187   1.484   5.323   5.089
 2201SOL    HW2 7188   1.444   5.175   5.145
 2202SOL     OW 7189   0.438   4.116   5.223
 2202SOL    HW1 7190   0.520   4.060   5.232
 2202SOL    HW2 7191   0.357   4.058   5.227
 2203SOL     OW 7192   1.603   4.171   4.461
 2203SOL    HW1 7193   1.529   4.217   4.411
 2203SOL    HW2 7194   1.654   4.239   4.514
 2204SOL     OW 7195   1.127   5.065   5.414
 2204SOL    HW1 7196   1.174   5.065   5.502
 2204SOL    HW2 7197   1.079   4.978   5.403
 2205SOL     OW 7198   0.230   5.158   4.262
 2205SOL    HW1 7199   0.204   5.254   4.262
 2205SOL    HW2 7200   0.159   5.104   4.307
 2206SOL     OW 7201   0.240   4.815   4.610
 2206SOL    HW1 7202   0.254   4.731   4.662
 2206SOL    HW2 7203   0.185   4.879   4.665
 2207SOL     OW 7204   0.606   4.688   3.847
 2207SOL    HW1 7205   0.613   4.772   3.793
 2207SOL    HW2 7206   0.652   4.701   3.935
 2208SOL     OW 7207   1.594   3.838   5.204
 2208SOL    HW1 7208   1.576   3.905   5.132
 2208SOL    HW2 7209   1.591   3.884   5.293
 2209SOL     OW 7210   0.122   4.367   4.287
 2209SOL    HW1 7211   0.077   4.279   4.304
 2209SOL    HW2 7212   0.121   4.421   4.371
 2210SOL     OW 7213   0.027   5.320   3.841
 2210SOL    HW1 7214   0.008   5.224   3.862
 2210SOL    HW2 7215  -0.006   5.378   3.916
 2211SOL     OW 7216   1.689   4.646   4.336
 2211SOL    HW1 7217   1.784   4.617   4.344
 2211SOL    HW2 7218   1.681   4.711   4.261
 2212SOL     OW 7219   1.641   4.832   4.156
 2212SOL    HW1 7220   1.727   4.834   4.104
 2212SOL    HW2 7221   1.655   4.879   4.244
 2213SOL     OW 7222   0.113   4.461   5.321
 2213SOL    HW1 7223   0.201   4.448   5.366
 2213SOL    HW2 7224   0.100   4.558   5.299
 2214SOL     OW 7225   0.613   5.089   4.450
 2214SOL    HW1 7226   0.564   5.002   4.459
 2214SOL    HW2 7227   0.590   5.132   4.363
 2215SOL     OW 7228   1.293   4.952   5.147
 2215SOL    HW1 7229   1.330   4.879   5.089
 2215SOL    HW2 7230   1.345   4.957   5.232
 2216SOL     OW 7231   0.809   3.728   4.226
 2216SOL    HW1 7232   0.849   3.819   4.217
 2216SOL    HW2 7233   0.709   3.736   4.232
 2217SOL     OW 7234   0.197   4.700   4.988
 2217SOL    HW1 7235   0.286   4.655   4.974
 2217SOL    HW2 7236   0.124   4.635   4.969
 2218SOL     OW 7237   1.525   4.723   3.914
 2218SOL    HW1 7238   1.462   4.647   3.927
 2218SOL    HW2 7239   1.573   4.741   4.000
 2219SOL     OW 7240   0.317   3.975   5.525
 2219SOL    HW1 7241   0.388   4.046   5.531
 2219SOL    HW2 7242   0.229   4.014   5.553
 2220SOL     OW 7243   1.466   5.141   4.677
 2220SOL    HW1 7244   1.407   5.147   4.757
 2220SOL    HW2 7245   1.451   5.053   4.631
 2221SOL     OW 7246   0.598   4.453   3.994
 2221SOL    HW1 7247   0.622   4.522   3.926
 2221SOL    HW2 7248   0.520   4.486   4.048
 2222SOL     OW 7249   1.281   4.069   4.668
 2222SOL    HW1 7250   1.195   4.019   4.655
 2222SOL    HW2 7251   1.343   4.015   4.724
 2223SOL     OW 7252   0.807   4.329   5.189
 2223SOL    HW1 7253   0.760   4.326   5.278
 2223SOL    HW2 7254   0.756   4.274   5.123
 2224SOL     OW 7255   1.394   4.193   5.398
 2224SOL    HW1 7256   1.374   4.236   5.486
 2224SOL    HW2 7257   1.472   4.131   5.407
 2225SOL     OW 7258   0.973   4.614   5.296
 2225SOL    HW1 7259   1.019   4.530   5.267
 2225SOL    HW2 7260   0.917   4.648   5.221
 2226SOL     OW 7261   0.991   4.134   4.966
 2226SOL    HW1 7262   0.914   4.168   5.020
 2226SOL    HW2 7263   0.957   4.083   4.887
 2227SOL     OW 7264   1.041   4.425   4.153
 2227SOL    HW1 7265   1.067   4.421   4.249
 2227SOL    HW2 7266   0.956   4.374   4.139
 2228SOL     OW 7267   0.076   4.535   4.513
 2228SOL    HW1 7268   0.175   4.523   4.522
 2228SOL    HW2 7269   0.052   4.630   4.534
 2229SOL     OW 7270   0.865   4.072   3.919
 2229SOL    HW1 7271   0.924   4.135   3.870
 2229SOL    HW2 7272   0.884   3.978   3.890
 2230SOL     OW 7273   1.719   4.309   5.555
 2230SOL    HW1 7274   1.693   4.398   5.519
 2230SOL    HW2 7275   1.717   4.241   5.482
 2231SOL     OW 7276   1.362   4.868   4.269
 2231SOL    HW1 7277   1.445   4.839   4.221
 2231SOL    HW2 7278   1.313   4.935   4.213
 2232SOL     OW 7279   0.550   3.920   4.609
 2232SOL    HW1 7280   0.545   3.915   4.709
 2232SOL    HW2 7281   0.552   4.016   4.580
 2233SOL     OW 7282   1.008   5.180   4.201
 2233SOL    HW1 7283   0.962   5.252   4.149
 2233SOL    HW2 7284   1.004   5.200   4.299
 2234SOL     OW 7285   1.795   4.790   4.597
 2234SOL    HW1 7286   1.733   4.775   4.521
 2234SOL    HW2 7287   1.743   4.801   4.682
 2235SOL     OW 7288   1.227   5.274   5.230
 2235SOL    HW1 7289   1.233   5.197   5.294
 2235SOL    HW2 7290   1.175   5.248   5.150
 2236SOL     OW 7291   0.321   4.667   3.966
 2236SOL    HW1 7292   0.403   4.706   3.924
 2236SOL    HW2 7293   0.294   4.585   3.917
 2237SOL     OW 7294   1.458   4.459   4.452
 2237SOL    HW1 7295   1.453   4.394   4.527
 2237SOL    HW2 7296   1.538   4.518   4.465
 2238SOL     OW 7297   0.461   4.990   5.451
 2238SOL    HW1 7298   0.411   4.991   5.365
 2238SOL    HW2 7299   0.398   4.972   5.527
 2239SOL     OW 7300   1.111   5.500   3.961
 2239SOL    HW1 7301   1.051   5.438   4.011
 2239SOL    HW2 7302   1.142   5.456   3.876
 2240SOL     OW 7303   0.202   4.009   5.222
 2240SOL    HW1 7304   0.122   4.069   5.209
 2240SOL    HW2 7305   0.192   3.960   5.308
 2241SOL     OW 7306   1.632   5.101   3.805
 2241SOL    HW1 7307   1.600   5.195   3.795
 2241SOL    HW2 7308   1.556   5.038   3.793
 2242SOL     OW 7309   1.400   3.831   4.150
 2242SOL    HW1 7310   1.376   3.794   4.060
 2242SOL    HW2 7311   1.499   3.847   4.154
 2243SOL     OW 7312   0.382   4.424   4.204
 2243SOL    HW1 7313   0.427   4.334   4.201
 2243SOL    HW2 7314   0.288   4.413   4.237
 2244SOL     OW 7315   1.547   3.946   5.453
 2244SOL    HW1 7316   1.542   3.983   5.545
 2244SOL    HW2 7317   1.475   3.877   5.441
 2245SOL     OW 7318   0.614   3.846   3.841
 2245SOL    HW1 7319   0.712   3.824   3.848
 2245SOL    HW2 7320   0.583   3.829   3.748
 2246SOL     OW 7321   0.781   3.988   5.473
 2246SOL    HW1 7322   0.848   3.927   5.516
 2246SOL    HW2 7323   0.708   4.007   5.538
 2247SOL     OW 7324   1.351   4.314   5.157
 2247SOL    HW1 7325   1.379   4.271   5.242
 2247SOL    HW2 7326   1.376   4.410   5.158
 2248SOL     OW 7327   0.803   5.126   4.648
 2248SOL    HW1 7328   0.893   5.140   4.606
 2248SOL    HW2 7329   0.732   5.128   4.577
 2249SOL     OW 7330   0.922   4.227   4.623
 2249SOL    HW1 7331   0.897   4.218   4.527
 2249SOL    HW2 7332   0.970   4.145   4.654
 2250SOL     OW 7333   0.539   3.788   4.236
 2250SOL    HW1 7334   0.458   3.789   4.294
 2250SOL    HW2 7335   0.542   3.871   4.181
 2251SOL     OW 7336   1.434   4.912   3.765
 2251SOL    HW1 7337   1.466   4.836   3.822
 2251SOL    HW2 7338   1.342   4.939   3.795
 2252SOL     OW 7339   0.297   3.759   3.895
 2252SOL    HW1 7340   0.346   3.843   3.874
 2252SOL    HW2 7341   0.359   3.694   3.940
 2253SOL     OW 7342   0.935   3.960   4.204
 2253SOL    HW1 7343   0.887   4.001   4.126
 2253SOL    HW2 7344   1.034   3.958   4.185
 2254SOL     OW 7345   1.076   4.407   5.188
 2254SOL    HW1 7346   0.996   4.346   5.191
 2254SOL    HW2 7347   1.157   4.354   5.164
 2255SOL     OW 7348   1.227   5.294   4.517
 2255SOL    HW1 7349   1.248   5.368   4.452
 2255SOL    HW2 7350   1.295   5.294   4.590
 2256SOL     OW 7351   0.459   4.876   4.465
 2256SOL    HW1 7352   0.388   4.849   4.530
 2256SOL    HW2 7353   0.433   4.848   4.372
 2257SOL     OW 7354   1.032   4.273   3.740
 2257SOL    HW1 7355   0.991   4.355   3.701
 2257SOL    HW2 7356   1.096   4.299   3.813
 2258SOL     OW 7357   0.078   4.280   5.110
 2258SOL    HW1 7358   0.170   4.279   5.069
 2258SOL    HW2 7359   0.072   4.354   5.177
 2259SOL     OW 7360   0.561   3.946   4.871
 2259SOL    HW1 7361   0.599   3.862   4.908
 2259SOL    HW2 7362   0.473   3.965   4.915
 2260SOL     OW 7363   0.866   4.178   4.366
 2260SOL    HW1 7364   0.834   4.250   4.304
 2260SOL    HW2 7365   0.890   4.097   4.313
 2261SOL     OW 7366   1.017   3.763   4.477
 2261SOL    HW1 7367   0.945   3.768   4.408
 2261SOL    HW2 7368   0.993   3.694   4.546
 2262SOL     OW 7369   1.429   4.897   4.591
 2262SOL    HW1 7370   1.374   4.813   4.584
 2262SOL    HW2 7371   1.455   4.926   4.499
 2263SOL     OW 7372   1.466   4.314   4.716
 2263SOL    HW1 7373   1.436   4.219   4.723
 2263SOL    HW2 7374   1.539   4.330   4.782
 2264SOL     OW 7375   1.857   4.557   4.101
 2264SOL    HW1 7376   1.899   4.493   4.165
 2264SOL    HW2 7377   1.819   4.506   4.023
 2265SOL     OW 7378   0.488   5.109   3.898
 2265SOL    HW1 7379   0.401   5.094   3.945
 2265SOL    HW2 7380   0.471   5.135   3.803
 2266SOL     OW 7381   1.664   5.004   4.381
 2266SOL    HW1 7382   1.763   5.012   4.395
 2266SOL    HW2 7383   1.619   5.088   4.412
 2267SOL     OW 7384   1.390   4.299   3.802
 2267SOL    HW1 7385   1.336   4.278   3.883
 2267SOL    HW2 7386   1.481   4.258   3.811
 2268SOL     OW 7387   0.527   3.980   4.052
 2268SOL    HW1 7388   0.554   3.921   3.977
 2268SOL    HW2 7389   0.527   4.075   4.021
 2269SOL     OW 7390   1.754   4.947   5.312
 2269SOL    HW1 7391   1.845   4.908   5.299
 2269SOL    HW2 7392   1.762   5.043   5.336
 2270SOL     OW 7393   1.064   5.071   5.064
 2270SOL    HW1 7394   0.984   5.048   5.119
 2270SOL    HW2 7395   1.147   5.045   5.113
 2271SOL     OW 7396   1.111   4.919   4.824
 2271SOL    HW1 7397   1.071   4.963   4.905
 2271SOL    HW2 7398   1.070   4.956   4.741
 2272SOL     OW 7399   1.638   4.823   4.803
 2272SOL    HW1 7400   1.643   4.904   4.862
 2272SOL    HW2 7401   1.552   4.825   4.752
 2273SOL     OW 7402   0.915   3.813   5.126
 2273SOL    HW1 7403   0.940   3.793   5.031
 2273SOL    HW2 7404   0.987   3.869   5.168
 2274SOL     OW 7405   0.980   4.840   5.443
 2274SOL    HW1 7406   0.881   4.846   5.453
 2274SOL    HW2 7407   1.003   4.760   5.387
 2275SOL     OW 7408   0.705   4.774   4.092
 2275SOL    HW1 7409   0.691   4.781   4.191
 2275SOL    HW2 7410   0.789   4.723   4.074
 2276SOL     OW 7411   0.410   4.537   4.975
 2276SOL    HW1 7412   0.496   4.549   5.025
 2276SOL    HW2 7413   0.368   4.450   5.002
 2277SOL     OW 7414   1.274   4.110   4.986
 2277SOL    HW1 7415   1.295   4.184   5.050
 2277SOL    HW2 7416   1.185   4.127   4.943
 2278SOL     OW 7417   0.064   5.288   5.055
 2278SOL    HW1 7418   0.018   5.370   5.021
 2278SOL    HW2 7419   0.162   5.307   5.064
 2279SOL     OW 7420   0.367   4.824   4.225
 2279SOL    HW1 7421   0.360   4.907   4.169
 2279SOL    HW2 7422   0.371   4.744   4.165
 2280SOL     OW 7423   0.566   4.261   4.589
 2280SOL    HW1 7424   0.578   4.327   4.515
 2280SOL    HW2 7425   0.612   4.295   4.672
 2281SOL     OW 7426   1.252   5.072   4.112
 2281SOL    HW1 7427   1.302   5.149   4.152
 2281SOL    HW2 7428   1.157   5.074   4.144
 2282SOL     OW 7429   1.272   5.169   4.866
 2282SOL    HW1 7430   1.319   5.182   4.953
 2282SOL    HW2 7431   1.206   5.095   4.875
 2283SOL     OW 7432   1.582   4.363   4.196
 2283SOL    HW1 7433   1.551   4.424   4.269
 2283SOL    HW2 7434   1.632   4.415   4.127
 2284SOL     OW 7435   0.354   5.234   5.053
 2284SOL    HW1 7436   0.333   5.190   4.966
 2284SOL    HW2 7437   0.451   5.260   5.056
 2285SOL     OW 7438   0.402   4.475   5.322
 2285SOL    HW1 7439   0.470   4.530   5.275
 2285SOL    HW2 7440   0.442   4.387   5.349
 2286SOL     OW 7441   1.587   4.503   5.394
 2286SOL    HW1 7442   1.495   4.541   5.389
 2286SOL    HW2 7443   1.647   4.550   5.329
 2287SOL     OW 7444   1.013   3.829   5.494
 2287SOL    HW1 7445   1.019   3.914   5.442
 2287SOL    HW2 7446   1.045   3.753   5.437
 2288SOL     OW 7447   0.504   3.774   5.464
 2288SOL    HW1 7448   0.462   3.717   5.394
 2288SOL    HW2 7449   0.438   3.843   5.496
 2289SOL     OW 7450   0.573   4.594   4.753
 2289SOL    HW1 7451   0.617   4.683   4.744
 2289SOL    HW2 7452   0.510   4.594   4.830
 2290SOL     OW 7453   1.360   4.586   4.769
 2290SOL    HW1 7454   1.285   4.586   4.703
 2290SOL    HW2 7455   1.397   4.494   4.778
 2291SOL     OW 7456   1.209   4.249   3.999
 2291SOL    HW1 7457   1.222   4.165   4.053
 2291SOL    HW2 7458   1.180   4.323   4.059
 2292SOL     OW 7459   0.307   3.937   4.955
 2292SOL    HW1 7460   0.284   3.974   5.045
 2292SOL    HW2 7461   0.277   3.842   4.949
 2293SOL     OW 7462   0.037   5.034   5.006
 2293SOL    HW1 7463   0.090   4.985   5.074
 2293SOL    HW2 7464   0.059   5.132   5.011
 2294SOL     OW 7465   0.732   4.358   4.788
 2294SOL    HW1 7466   0.791   4.332   4.712
 2294SOL    HW2 7467   0.704   4.454   4.777
 2295SOL     OW 7468   1.728   4.659   5.578
 2295SOL    HW1 7469   1.682   4.652   5.489
 2295SOL    HW2 7470   1.666   4.703   5.644
 2296SOL     OW 7471   0.307   3.787   4.342
 2296SOL    HW1 7472   0.296   3.881   4.375
 2296SOL    HW2 7473   0.302   3.724   4.419
 2297SOL     OW 7474   1.622   4.091   4.098
 2297SOL    HW1 7475   1.624   4.015   4.162
 2297SOL    HW2 7476   1.574   4.168   4.138
 2298SOL     OW 7477   1.023   4.490   4.690
 2298SOL    HW1 7478   1.038   4.511   4.786
 2298SOL    HW2 7479   0.993   4.395   4.681
 2299SOL     OW 7480   1.859   5.242   5.329
 2299SOL    HW1 7481   1.873   5.269   5.234
 2299SOL    HW2 7482   1.942   5.264   5.382
 2300SOL     OW 7483   0.350   4.622   5.528
 2300SOL    HW1 7484   0.426   4.666   5.576
 2300SOL    HW2 7485   0.385   4.575   5.446
 2301SOL     OW 7486   1.540   3.998   3.849
 2301SOL    HW1 7487   1.479   3.923   3.872
 2301SOL    HW2 7488   1.562   4.050   3.932
 2302SOL     OW 7489   1.303   4.562   3.766
 2302SOL    HW1 7490   1.337   4.469   3.781
 2302SOL    HW2 7491   1.321   4.589   3.671
 2303SOL     OW 7492   1.068   5.057   4.573
 2303SOL    HW1 7493   1.075   4.973   4.518
 2303SOL    HW2 7494   1.130   5.126   4.537
 2304SOL     OW 7495   0.319   4.534   4.673
 2304SOL    HW1 7496   0.412   4.570   4.678
 2304SOL    HW2 7497   0.313   4.449   4.725
 2305SOL     OW 7498   0.339   4.233   4.730
 2305SOL    HW1 7499   0.287   4.150   4.713
 2305SOL    HW2 7500   0.416   4.238   4.666
 2306SOL     OW 7501   1.138   4.104   5.402
 2306SOL    HW1 7502   1.093   4.167   5.466
 2306SOL    HW2 7503   1.231   4.135   5.385
 2307SOL     OW 7504   1.160   3.931   5.201
 2307SOL    HW1 7505   1.160   3.995   5.278
 2307SOL    HW2 7506   1.188   3.979   5.118
 2308SOL     OW 7507   0.008   5.050   3.924
 2308SOL    HW1 7508  -0.085   5.071   3.893
 2308SOL    HW2 7509   0.018   4.951   3.937
 2309SOL     OW 7510   1.002   4.520   4.962
 2309SOL    HW1 7511   1.043   4.488   5.048
 2309SOL    HW2 7512   0.906   4.493   4.959
 2310SOL     OW 7513   0.040   4.268   4.838
 2310SOL    HW1 7514   0.125   4.235   4.797
 2310SOL    HW2 7515   0.053   4.283   4.936
 2311SOL     OW 7516   0.189   4.244   5.446
 2311SOL    HW1 7517   0.248   4.204   5.376
 2311SOL    HW2 7518   0.131   4.315   5.405
 2312SOL     OW 7519   1.369   4.674   5.384
 2312SOL    HW1 7520   1.408   4.763   5.404
 2312SOL    HW2 7521   1.379   4.654   5.287
 2313SOL     OW 7522   0.815   4.296   4.049
 2313SOL    HW1 7523   0.822   4.207   4.003
 2313SOL    HW2 7524   0.721   4.330   4.041
 2314SOL     OW 7525   1.657   4.328   4.930
 2314SOL    HW1 7526   1.619   4.259   4.992
 2314SOL    HW2 7527   1.739   4.292   4.886
 2315SOL     OW 7528   0.252   5.288   5.468
 2315SOL    HW1 7529   0.222   5.345   5.544
 2315SOL    HW2 7530   0.245   5.191   5.494
 2316SOL     OW 7531   0.671   4.188   4.993
 2316SOL    HW1 7532   0.637   4.099   4.963
 2316SOL    HW2 7533   0.697   4.242   4.913
 2317SOL     OW 7534   0.473   4.224   3.915
 2317SOL    HW1 7535   0.534   4.304   3.919
 2317SOL    HW2 7536   0.378   4.255   3.922
 2318SOL     OW 7537   0.159   4.861   5.190
 2318SOL    HW1 7538   0.181   4.800   5.266
 2318SOL    HW2 7539   0.169   4.812   5.104
 2319SOL     OW 7540   1.347   4.783   4.958
 2319SOL    HW1 7541   1.371   4.720   4.884
 2319SOL    HW2 7542   1.257   4.823   4.940
 2320SOL     OW 7543   1.302   4.579   4.033
 2320SOL    HW1 7544   1.216   4.548   4.075
 2320SOL    HW2 7545   1.298   4.565   3.934
 2321SOL     OW 7546   0.083   4.982   4.746
 2321SOL    HW1 7547   0.078   4.981   4.846
 2321SOL    HW2 7548   0.000   4.941   4.708
 2322SOL     OW 7549   0.688   5.386   5.440
 2322SOL    HW1 7550   0.632   5.467   5.449
 2322SOL    HW2 7551   0.740   5.390   5.354
 2323SOL     OW 7552   1.726   3.859   4.247
 2323SOL    HW1 7553   1.799   3.842   4.180
 2323SOL    HW2 7554   1.695   3.772   4.285
 2324SOL     OW 7555   1.280   4.651   4.396
 2324SOL    HW1 7556   1.340   4.570   4.398
 2324SOL    HW2 7557   1.320   4.720   4.336
 2325SOL     OW 7558   0.830   4.997   5.146
 2325SOL    HW1 7559   0.825   5.030   5.241
 2325SOL    HW2 7560   0.744   5.016   5.100
 2326SOL     OW 7561   1.841   3.899   4.687
 2326SOL    HW1 7562   1.880   3.814   4.651
 2326SOL    HW2 7563   1.743   3.901   4.668
 2327SOL     OW 7564   0.263   4.050   4.444
 2327SOL    HW1 7565   0.184   4.101   4.410
 2327SOL    HW2 7566   0.254   4.035   4.542
 2328SOL     OW 7567   0.822   4.726   5.096
 2328SOL    HW1 7568   0.862   4.725   5.004
 2328SOL    HW2 7569   0.832   4.818   5.136
 2329SOL     OW 7570   0.916   4.634   4.015
 2329SOL    HW1 7571   0.979   4.672   3.947
 2329SOL    HW2 7572   0.956   4.551   4.054
 2330SOL     OW 7573   0.372   5.012   5.214
 2330SOL    HW1 7574   0.359   5.105   5.180
 2330SOL    HW2 7575   0.288   4.960   5.201
 2331SOL     OW 7576   1.614   5.016   5.013
 2331SOL    HW1 7577   1.674   5.019   5.093
 2331SOL    HW2 7578   1.539   5.080   5.026
 2332SOL     OW 7579   1.039   4.822   4.420
 2332SOL    HW1 7580   0.969   4.775   4.474
 2332SOL    HW2 7581   1.098   4.754   4.377
 2333SOL     OW 7582   1.014   3.960   4.695
 2333SOL    HW1 7583   1.006   3.924   4.602
 2333SOL    HW2 7584   1.012   3.884   4.760
 2334SOL     OW 7585   1.709   4.109   5.105
 2334SOL    HW1 7586   1.782   4.178   5.109
 2334SOL    HW2 7587   1.737   4.034   5.046
 2335SOL     OW 7588   0.255   5.072   4.014
 2335SOL    HW1 7589   0.159   5.073   3.987
 2335SOL    HW2 7590   0.267   5.125   4.098
 2336SOL     OW 7591   0.105   4.737   5.450
 2336SOL    HW1 7592   0.028   4.704   5.504
 2336SOL    HW2 7593   0.190   4.707   5.492
 2337SOL     OW 7594   0.672   3.927   5.213
 2337SOL    HW1 7595   0.762   3.911   5.173
 2337SOL    HW2 7596   0.680   3.932   5.312
 2338SOL     OW 7597   0.075   4.069   3.757
 2338SOL    HW1 7598  -0.017   4.041   3.728
 2338SOL    HW2 7599   0.106   4.146   3.701
 2339SOL     OW 7600   1.440   4.580   5.122
 2339SOL    HW1 7601   1.383   4.632   5.059
 2339SOL    HW2 7602   1.536   4.592   5.098
 2340SOL     OW 7603   0.072   3.890   4.042
 2340SOL    HW1 7604   0.055   3.973   3.988
 2340SOL    HW2 7605   0.162   3.853   4.020
 2341SOL     OW 7606   1.183   5.059   3.843
 2341SOL    HW1 7607   1.084   5.048   3.845
 2341SOL    HW2 7608   1.217   5.074   3.936
 2342SOL     OW 7609   0.613   4.566   5.155
 2342SOL    HW1 7610   0.669   4.647   5.138
 2342SOL    HW2 7611   0.672   4.486   5.158
 2343SOL     OW 7612   0.716   4.289   5.432
 2343SOL    HW1 7613   0.735   4.354   5.506
 2343SOL    HW2 7614   0.776   4.209   5.441
 2344SOL     OW 7615   1.450   4.944   5.357
 2344SOL    HW1 7616   1.441   4.934   5.456
 2344SOL    HW2 7617   1.546   4.937   5.331
 2345SOL     OW 7618   1.674   4.607   4.978
 2345SOL    HW1 7619   1.647   4.518   4.941
 2345SOL    HW2 7620   1.675   4.675   4.905
 2346SOL     OW 7621   1.225   4.049   4.173
 2346SOL    HW1 7622   1.290   3.975   4.162
 2346SOL    HW2 7623   1.245   4.099   4.257
 2347SOL     OW 7624   0.594   4.469   4.376
 2347SOL    HW1 7625   0.644   4.554   4.357
 2347SOL    HW2 7626   0.506   4.471   4.328
 2348SOL     OW 7627   1.777   4.066   5.366
 2348SOL    HW1 7628   1.760   4.097   5.272
 2348SOL    HW2 7629   1.693   4.029   5.404
 2349SOL     OW 7630   1.730   4.658   5.241
 2349SOL    HW1 7631   1.768   4.749   5.256
 2349SOL    HW2 7632   1.722   4.641   5.142
 2350SOL     OW 7633   0.859   5.098   3.740
 2350SOL    HW1 7634   0.813   5.113   3.828
 2350SOL    HW2 7635   0.903   5.183   3.710
 2351SOL     OW 7636   0.859   4.680   4.585
 2351SOL    HW1 7637   0.913   4.611   4.633
 2351SOL    HW2 7638   0.827   4.749   4.651
 2352SOL     OW 7639   1.083   4.708   3.811
 2352SOL    HW1 7640   1.060   4.761   3.729
 2352SOL    HW2 7641   1.164   4.652   3.792
 2353SOL     OW 7642   0.221   5.038   5.568
 2353SOL    HW1 7643   0.156   4.965   5.547
 2353SOL    HW2 7644   0.225   5.052   5.666
 2354SOL     OW 7645   0.079   4.964   4.377
 2354SOL    HW1 7646   0.078   4.917   4.465
 2354SOL    HW2 7647   0.161   4.936   4.326
 2355SOL     OW 7648   0.672   5.115   5.348
 2355SOL    HW1 7649   0.594   5.065   5.386
 2355SOL    HW2 7650   0.669   5.210   5.379
 2356SOL     OW 7651   1.824   3.916   4.951
 2356SOL    HW1 7652   1.820   3.826   4.995
 2356SOL    HW2 7653   1.827   3.905   4.852
 2357SOL     OW 7654   0.428   4.148   4.244
 2357SOL    HW1 7655   0.458   4.076   4.182
 2357SOL    HW2 7656   0.389   4.108   4.327
 2358SOL     OW 7657   1.705   5.211   4.828
 2358SOL    HW1 7658   1.612   5.186   4.801
 2358SOL    HW2 7659   1.731   5.161   4.910
 2359SOL     OW 7660   0.317   4.271   5.004
 2359SOL    HW1 7661   0.355   4.212   5.076
 2359SOL    HW2 7662   0.357   4.245   4.916
 2360SOL     OW 7663   1.424   3.938   4.836
 2360SOL    HW1 7664   1.476   3.873   4.891
 2360SOL    HW2 7665   1.375   4.001   4.897
 2361SOL     OW 7666   1.001   3.758   4.878
 2361SOL    HW1 7667   0.938   3.686   4.847
 2361SOL    HW2 7668   1.094   3.722   4.878
 2362SOL     OW 7669   0.770   5.054   4.025
 2362SOL    HW1 7670   0.724   4.967   4.042
 2362SOL    HW2 7671   0.861   5.051   4.066
 2363SOL     OW 7672   0.618   5.291   5.008
 2363SOL    HW1 7673   0.613   5.373   5.065
 2363SOL    HW2 7674   0.707   5.288   4.963
 2364SOL     OW 7675   1.352   3.776   3.892
 2364SOL    HW1 7676   1.387   3.735   3.808
 2364SOL    HW2 7677   1.262   3.738   3.912
 2365SOL     OW 7678   1.300   4.177   4.415
 2365SOL    HW1 7679   1.241   4.257   4.419
 2365SOL    HW2 7680   1.315   4.142   4.508
 2366SOL     OW 7681   1.593   3.945   4.606
 2366SOL    HW1 7682   1.509   3.944   4.660
 2366SOL    HW2 7683   1.595   4.028   4.550
 2367SOL     OW 7684   0.039   4.801   4.024
 2367SOL    HW1 7685   0.138   4.790   4.015
 2367SOL    HW2 7686  -0.001   4.715   4.056
 2368SOL     OW 7687   0.230   4.352   5.699
 2368SOL    HW1 7688   0.137   4.350   5.736
 2368SOL    HW2 7689   0.231   4.313   5.607
 2369SOL     OW 7690   0.225   3.999   6.582
 2369SOL    HW1 7691   0.260   3.982   6.674
 2369SOL    HW2 7692   0.137   3.954   6.570
 2370SOL     OW 7693   0.019   4.092   6.233
 2370SOL    HW1 7694  -0.063   4.135   6.272
 2370SOL    HW2 7695  -0.009   4.019   6.170
 2371SOL     OW 7696   0.569   4.999   6.751
 2371SOL    HW1 7697   0.476   4.992   6.714
 2371SOL    HW2 7698   0.580   5.088   6.795
 2372SOL     OW 7699   1.555   5.235   6.289
 2372SOL    HW1 7700   1.498   5.219   6.370
 2372SOL    HW2 7701   1.496   5.245   6.209
 2373SOL     OW 7702   1.135   4.427   6.303
 2373SOL    HW1 7703   1.192   4.505   6.278
 2373SOL    HW2 7704   1.075   4.453   6.379
 2374SOL     OW 7705   1.755   4.331   5.817
 2374SOL    HW1 7706   1.743   4.318   5.718
 2374SOL    HW2 7707   1.725   4.250   5.866
 2375SOL     OW 7708   0.768   4.868   6.609
 2375SOL    HW1 7709   0.690   4.885   6.669
 2375SOL    HW2 7710   0.802   4.955   6.573
 2376SOL     OW 7711   0.850   4.522   7.409
 2376SOL    HW1 7712   0.846   4.598   7.474
 2376SOL    HW2 7713   0.872   4.558   7.318
 2377SOL     OW 7714   0.685   4.736   6.251
 2377SOL    HW1 7715   0.754   4.720   6.321
 2377SOL    HW2 7716   0.612   4.793   6.289
 2378SOL     OW 7717   0.686   4.885   7.389
 2378SOL    HW1 7718   0.746   4.964   7.403
 2378SOL    HW2 7719   0.600   4.916   7.348
 2379SOL     OW 7720   0.335   5.159   6.647
 2379SOL    HW1 7721   0.257   5.128   6.594
 2379SOL    HW2 7722   0.393   5.217   6.590
 2380SOL     OW 7723   1.460   5.229   6.925
 2380SOL    HW1 7724   1.484   5.323   6.951
 2380SOL    HW2 7725   1.444   5.175   7.007
 2381SOL     OW 7726   0.438   4.116   7.085
 2381SOL    HW1 7727   0.520   4.060   7.094
 2381SOL    HW2 7728   0.357   4.058   7.089
 2382SOL     OW 7729   1.603   4.171   6.323
 2382SOL    HW1 7730   1.529   4.217   6.273
 2382SOL    HW2 7731   1.654   4.239   6.376
 2383SOL     OW 7732   1.127   5.065   7.276
 2383SOL    HW1 7733   1.174   5.065   7.364
 2383SOL    HW2 7734   1.079   4.978   7.265
 2384SOL     OW 7735   0.230   5.158   6.124
 2384SOL    HW1 7736   0.204   5.254   6.124
 2384SOL    HW2 7737   0.159   5.104   6.169
 2385SOL     OW 7738   0.240   4.815   6.472
 2385SOL    HW1 7739   0.254   4.731   6.524
 2385SOL    HW2 7740   0.185   4.879   6.527
 2386SOL     OW 7741   0.606   4.688   5.709
 2386SOL    HW1 7742   0.613   4.772   5.655
 2386SOL    HW2 7743   0.652   4.701   5.797
 2387SOL     OW 7744   1.594   3.838   7.066
 2387SOL    HW1 7745   1.576   3.905   6.994
 2387SOL    HW2 7746   1.591   3.884   7.155
 2388SOL     OW 7747   0.122   4.367   6.149
 2388SOL    HW1 7748   0.077   4.279   6.166
 2388SOL    HW2 7749   0.121   4.421   6.233
 2389SOL     OW 7750   0.027   5.320   5.703
 2389SOL    HW1 7751   0.008   5.224   5.724
 2389SOL    HW2 7752  -0.006   5.378   5.778
 2390SOL     OW 7753   1.689   4.646   6.198
 2390SOL    HW1 7754   1.784   4.617   6.206
 2390SOL    HW2 7755   1.681   4.711   6.123
 2391SOL     OW 7756   1.641   4.832   6.018
 2391SOL    HW1 7757   1.727   4.834   5.966
 2391SOL    HW2 7758   1.655   4.879   6.106
 2392SOL     OW 7759   0.113   4.461   7.183
 2392SOL    HW1 7760   0.201   4.448   7.228
 2392SOL    HW2 7761   0.100   4.558   7.161
 2393SOL     OW 7762   0.613   5.089   6.312
 2393SOL    HW1 7763   0.564   5.002   6.321
 2393SOL    HW2 7764   0.590   5.132   6.225
 2394SOL     OW 7765   1.293   4.952   7.009
 2394SOL    HW1 7766   1.330   4.879   6.951
 2394SOL    HW2 7767   1.345   4.957   7.094
 2395SOL     OW 7768   0.809   3.728   6.088
 2395SOL    HW1 7769   0.849   3.819   6.079
 2395SOL    HW2 7770   0.709   3.736   6.094
 2396SOL     OW 7771   0.197   4.700   6.850
 2396SOL    HW1 7772   0.286   4.655   6.836
 2396SOL    HW2 7773   0.124   4.635   6.831
 2397SOL     OW 7774   1.525   4.723   5.776
 2397SOL    HW1 7775   1.462   4.647   5.789
 2397SOL    HW2 7776   1.573   4.741   5.862
 2398SOL     OW 7777   0.317   3.975   7.387
 2398SOL    HW1 7778   0.388   4.046   7.393
 2398SOL    HW2 7779   0.229   4.014   7.415
 2399SOL     OW 7780   1.466   5.141   6.539
 2399SOL    HW1 7781   1.407   5.147   6.619
 2399SOL    HW2 7782   1.451   5.053   6.493
 2400SOL     OW 7783   0.598   4.453   5.856
 2400SOL    HW1 7784   0.622   4.522   5.788
 2400SOL    HW2 7785   0.520   4.486   5.910
 2401SOL     OW 7786   1.281   4.069   6.530
 2401SOL    HW1 7787   1.195   4.019   6.517
 2401SOL    HW2 7788   1.343   4.015   6.586
 2402SOL     OW 7789   0.807   4.329   7.051
 2402SOL    HW1 7790   0.760   4.326   7.140
 2402SOL    HW2 7791   0.756   4.274   6.985
 2403SOL     OW 7792   1.394   4.193   7.260
 2403SOL    HW1 7793   1.374   4.236   7.348
 2403SOL    HW2 7794   1.472   4.131   7.269
 2404SOL     OW 7795   0.973   4.614   7.158
 2404SOL    HW1 7796   1.019   4.530   7.129
 2404SOL    HW2 7797   0.917   4.648   7.083
 2405SOL     OW 7798   0.991   4.134   6.828
 2405SOL    HW1 7799   0.914   4.168   6.882
 2405SOL    HW2 7800   0.957   4.083   6.749
 2406SOL     OW 7801   1.041   4.425   6.015
 2406SOL    HW1 7802   1.067   4.421   6.111
 2406SOL    HW2 7803   0.956   4.374   6.001
 2407SOL     OW 7804   0.076   4.535   6.375
 2407SOL    HW1 7805   0.175   4.523   6.384
 2407SOL    HW2 7806   0.052   4.630   6.396
 2408SOL     OW 7807   0.865   4.072   5.781
 2408SOL    HW1 7808   0.924   4.135   5.732
 2408SOL    HW2 7809   0.884   3.978   5.752
 2409SOL     OW 7810   1.719   4.309   7.417
 2409SOL    HW1 7811   1.693   4.398   7.381
 2409SOL    HW2 7812   1.717   4.241   7.344
 2410SOL     OW 7813   1.362   4.868   6.131
 2410SOL    HW1 7814   1.445   4.839   6.083
 2410SOL    HW2 7815   1.313   4.935   6.075
 2411SOL     OW 7816   0.550   3.920   6.471
 2411SOL    HW1 7817   0.545   3.915   6.571
 2411SOL    HW2 7818   0.552   4.016   6.442
 2412SOL     OW 7819   1.008   5.180   6.063
 2412SOL    HW1 7820   0.962   5.252   6.011
 2412SOL    HW2 7821   1.004   5.200   6.161
 2413SOL     OW 7822   1.795   4.790   6.459
 2413SOL    HW1 7823   1.733   4.775   6.383
 2413SOL    HW2 7824   1.743   4.801   6.544
 2414SOL     OW 7825   1.227   5.274   7.092
 2414SOL    HW1 7826   1.233   5.197   7.156
 2414SOL    HW2 7827   1.175   5.248   7.012
 2415SOL     OW 7828   0.321   4.667   5.828
 2415SOL    HW1 7829   0.403   4.706   5.786
 2415SOL    HW2 7830   0.294   4.585   5.779
 2416SOL     OW 7831   1.458   4.459   6.314
 2416SOL    HW1 7832   1.453   4.394   6.389
 2416SOL    HW2 7833   1.538   4.518   6.327
 2417SOL     OW 7834   0.461   4.990   7.313
 2417SOL    HW1 7835   0.411   4.991   7.227
 2417SOL    HW2 7836   0.398   4.972   7.389
 2418SOL     OW 7837   1.111   5.500   5.823
 2418SOL    HW1 7838   1.051   5.438   5.873
 2418SOL    HW2 7839   1.142   5.456   5.738
 2419SOL     OW 7840   0.202   4.009   7.084
 2419SOL    HW1 7841   0.122   4.069   7.071
 2419SOL    HW2 7842   0.192   3.960   7.170
 2420SOL     OW 7843   1.632   5.101   5.667
 2420SOL    HW1 7844   1.600   5.195   5.657
 2420SOL    HW2 7845   1.556   5.038   5.655
 2421SOL     OW 7846   1.400   3.831   6.012
 2421SOL    HW1 7847   1.376   3.794   5.922
 2421SOL    HW2 7848   1.499   3.847   6.016
 2422SOL     OW 7849   0.382   4.424   6.066
 2422SOL    HW1 7850   0.427   4.334   6.063
 2422SOL    HW2 7851   0.288   4.413   6.099
 2423SOL     OW 7852   1.547   3.946   7.315
 2423SOL    HW1 7853   1.542   3.983   7.407
 2423SOL    HW2 7854   1.475   3.877   7.303
 2424SOL     OW 7855   0.614   3.846   5.703
 2424SOL    HW1 7856   0.712   3.824   5.710
 2424SOL    HW2 7857   0.583   3.829   5.610
 2425SOL     OW 7858   0.781   3.988   7.335
 2425SOL    HW1 7859   0.848   3.927   7.378
 2425SOL    HW2 7860   0.708   4.007   7.400
 2426SOL     OW 7861   1.351   4.314   7.019
 2426SOL    HW1 7862   1.379   4.271   7.104
 2426SOL    HW2 7863   1.376   4.410   7.020
 2427SOL     OW 7864   0.803   5.126   6.510
 2427SOL    HW1 7865   0.893   5.140   6.468
 2427SOL    HW2 7866   0.732   5.128   6.439
 2428SOL     OW 7867   0.922   4.227   6.485
 2428SOL    HW1 7868   0.897   4.218   6.389
 2428SOL    HW2 7869   0.970   4.145   6.516
 2429SOL     OW 7870   0.539   3.788   6.098
 2429SOL    HW1 7871   0.458   3.789   6.156
 2429SOL    HW2 7872   0.542   3.871   6.043
 2430SOL     OW 7873   1.434   4.912   5.627
 2430SOL    HW1 7874   1.466   4.836   5.684
 2430SOL    HW2 7875   1.342   4.939   5.657
 2431SOL     OW 7876   0.297   3.759   5.757
 2431SOL    HW1 7877   0.346   3.843   5.736
 2431SOL    HW2 7878   0.359   3.694   5.802
 2432SOL     OW 7879   0.935   3.960   6.066
 2432SOL    HW1 7880   0.887   4.001   5.988
 2432SOL    HW2 7881   1.034   3.958   6.047
 2433SOL     OW 7882   1.076   4.407   7.050
 2433SOL    HW1 7883   0.996   4.346   7.053
 2433SOL    HW2 7884   1.157   4.354   7.026
 2434SOL     OW 7885   1.227   5.294   6.379
 2434SOL    HW1 7886   1.248   5.368   6.314
 2434SOL    HW2 7887   1.295   5.294   6.452
 2435SOL     OW 7888   0.459   4.876   6.327
 2435SOL    HW1 7889   0.388   4.849   6.392
 2435SOL    HW2 7890   0.433   4.848   6.234
 2436SOL     OW 7891   1.032   4.273   5.602
 2436SOL    HW1 7892   0.991   4.355   5.563
 2436SOL    HW2 7893   1.096   4.299   5.675
 2437SOL     OW 7894   0.078   4.280   6.972
 2437SOL    HW1 7895   0.170   4.279   6.931
 2437SOL    HW2 7896   0.072   4.354   7.039
 2438SOL     OW 7897   0.561   3.946   6.733
 2438SOL    HW1 7898   0.599   3.862   6.770
 2438SOL    HW2 7899   0.473   3.965   6.777
 2439SOL     OW 7900   0.866   4.178   6.228
 2439SOL    HW1 7901   0.834   4.250   6.166
 2439SOL    HW2 7902   0.890   4.097   6.175
 2440SOL     OW 7903   1.017   3.763   6.339
 2440SOL    HW1 7904   0.945   3.768   6.270
 2440SOL    HW2 7905   0.993   3.694   6.408
 2441SOL     OW 7906   1.429   4.897   6.453
 2441SOL    HW1 7907   1.374   4.813   6.446
 2441SOL    HW2 7908   1.455   4.926   6.361
 2442SOL     OW 7909   1.466   4.314   6.578
 2442SOL    HW1 7910   1.436   4.219   6.585
 2442SOL    HW2 7911   1.539   4.330   6.644
 2443SOL     OW 7912   1.857   4.557   5.963
 2443SOL    HW1 7913   1.899   4.493   6.027
 2443SOL    HW2 7914   1.819   4.506   5.885
 2444SOL     OW 7915   0.488   5.109   5.760
 2444SOL    HW1 7916   0.401   5.094   5.807
 2444SOL    HW2 7917   0.471   5.135   5.665
 2445SOL     OW 7918   1.664   5.004   6.243
 2445SOL    HW1 7919   1.763   5.012   6.257
 2445SOL    HW2 7920   1.619   5.088   6.274
 2446SOL     OW 7921   1.390   4.299   5.664
 2446SOL    HW1 7922   1.336   4.278   5.745
 2446SOL    HW2 7923   1.481   4.258   5.673
 2447SOL     OW 7924   0.527   3.980   5.914
 2447SOL    HW1 7925   0.554   3.921   5.839
 2447SOL    HW2 7926   0.527   4.075   5.883
 2448SOL     OW 7927   1.754   4.947   7.174
 2448SOL    HW1 7928   1.845   4.908   7.161
 2448SOL    HW2 7929   1.762   5.043   7.198
 2449SOL     OW 7930   1.064   5.071   6.926
 2449SOL    HW1 7931   0.984   5.048   6.981
 2449SOL    HW2 7932   1.147   5.045   6.975
 2450SOL     OW 7933   1.111   4.919   6.686
 2450SOL    HW1 7934   1.071   4.963   6.767
 2450SOL    HW2 7935   1.070   4.956   6.603
 2451SOL     OW 7936   1.638   4.823   6.665
 2451SOL    HW1 7937   1.643   4.904   6.724
 2451SOL    HW2 7938   1.552   4.825   6.614
 2452SOL     OW 7939   0.915   3.813   6.988
 2452SOL    HW1 7940   0.940   3.793   6.893
 2452SOL    HW2 7941   0.987   3.869   7.030
 2453SOL     OW 7942   0.980   4.840   7.305
 2453SOL    HW1 7943   0.881   4.846   7.315
 2453SOL    HW2 7944   1.003   4.760   7.249
 2454SOL     OW 7945   0.705   4.774   5.954
 2454SOL    HW1 7946   0.691   4.781   6.053
 2454SOL    HW2 7947   0.789   4.723   5.936
 2455SOL     OW 7948   0.410   4.537   6.837
 2455SOL    HW1 7949   0.496   4.549   6.887
 2455SOL    HW2 7950   0.368   4.450   6.864
 2456SOL     OW 7951   1.274   4.110   6.848
 2456SOL    HW1 7952   1.295   4.184   6.912
 2456SOL    HW2 7953   1.185   4.127   6.805
 2457SOL     OW 7954   0.064   5.288   6.917
 2457SOL    HW1 7955   0.018   5.370   6.883
 2457SOL    HW2 7956   0.162   5.307   6.926
 2458SOL     OW 7957   0.367   4.824   6.087
 2458SOL    HW1 7958   0.360   4.907   6.031
 2458SOL    HW2 7959   0.371   4.744   6.027
 2459SOL     OW 7960   0.566   4.261   6.451
 2459SOL    HW1 7961   0.578   4.327   6.377
 2459SOL    HW2 7962   0.612   4.295   6.534
 2460SOL     OW 7963   1.252   5.072   5.974
 2460SOL    HW1 7964   1.302   5.149   6.014
 2460SOL    HW2 7965   1.157   5.074   6.006
 2461SOL     OW 7966   1.272   5.169   6.728
 2461SOL    HW1 7967   1.319   5.182   6.815
 2461SOL    HW2 7968   1.206   5.095   6.737
 2462SOL     OW 7969   1.582   4.363   6.058
 2462SOL    HW1 7970   1.551   4.424   6.131
 2462SOL    HW2 7971   1.632   4.415   5.989
 2463SOL     OW 7972   0.354   5.234   6.915
 2463SOL    HW1 7973   0.333   5.190   6.828
 2463SOL    HW2 7974   0.451   5.260   6.918
 2464SOL     OW 7975   0.402   4.475   7.184
 2464SOL    HW1 7976   0.470   4.530   7.137
 2464SOL    HW2 7977   0.442   4.387   7.211
 2465SOL     OW 7978   1.587   4.503   7.256
 2465SOL    HW1 7979   1.495   4.541   7.251
 2465SOL    HW2 7980   1.647   4.550   7.191
 2466SOL     OW 7981   1.013   3.829   7.356
 2466SOL    HW1 7982   1.019   3.914   7.304
 2466SOL    HW2 7983   1.045   3.753   7.299
 2467SOL     OW 7984   0.504   3.774   7.326
 2467SOL    HW1 7985   0.462   3.717   7.256
 2467SOL    HW2 7986   0.438   3.843   7.358
 2468SOL     OW 7987   0.573   4.594   6.615
 2468SOL    HW1 7988   0.617   4.683   6.606
 2468SOL    HW2 7989   0.510   4.594   6.692
 2469SOL     OW 7990   1.360   4.586   6.631
 2469SOL    HW1 7991   1.285   4.586   6.565
 2469SOL    HW2 7992   1.397   4.494   6.640
 2470SOL     OW 7993   1.209   4.249   5.861
 2470SOL    HW1 7994   1.222   4.165   5.915
 2470SOL    HW2 7995   1.180   4.323   5.921
 2471SOL     OW 7996   0.307   3.937   6.817
 2471SOL    HW1 7997   0.284   3.974   6.907
 2471SOL    HW2 7998   0.277   3.842   6.811
 2472SOL     OW 7999   0.037   5.034   6.868
 2472SOL    HW1 8000   0.090   4.985   6.936
 2472SOL    HW2 8001   0.059   5.132   6.873
 2473SOL     OW 8002   0.732   4.358   6.650
 2473SOL    HW1 8003   0.791   4.332   6.574
 2473SOL    HW2 8004   0.704   4.454   6.639
 2474SOL     OW 8005   1.728   4.659   7.440
 2474SOL    HW1 8006   1.682   4.652   7.351
 2474SOL    HW2 8007   1.666   4.703   7.506
 2475SOL     OW 8008   0.307   3.787   6.204
 2475SOL    HW1 8009   0.296   3.881   6.237
 2475SOL    HW2 8010   0.302   3.724   6.281
 2476SOL     OW 8011   1.622   4.091   5.960
 2476SOL    HW1 8012   1.624   4.015   6.024
 2476SOL    HW2 8013   1.574   4.168   6.000
 2477SOL     OW 8014   1.023   4.490   6.552
 2477SOL    HW1 8015   1.038   4.511   6.648
 2477SOL    HW2 8016   0.993   4.395   6.543
 2478SOL     OW 8017   1.859   5.242   7.191
 2478SOL    HW1 8018   1.873   5.269   7.096
 2478SOL    HW2 8019   1.942   5.264   7.244
 2479SOL     OW 8020   0.350   4.622   7.390
 2479SOL    HW1 8021   0.426   4.666   7.438
 2479SOL    HW2 8022   0.385   4.575   7.308
 2480SOL     OW 8023   1.540   3.998   5.711
 2480SOL    HW1 8024   1.479   3.923   5.734
 2480SOL    HW2 8025   1.562   4.050   5.794
 2481SOL     OW 8026   1.303   4.562   5.628
 2481SOL    HW1 8027   1.337   4.469   5.643
 2481SOL    HW2 8028   1.321   4.589   5.533
 2482SOL     OW 8029   1.068   5.057   6.435
 2482SOL    HW1 8030   1.075   4.973   6.380
 2482SOL    HW2 8031   1.130   5.126   6.399
 2483SOL     OW 8032   0.319   4.534   6.535
 2483SOL    HW1 8033   0.412   4.570   6.540
 2483SOL    HW2 8034   0.313   4.449   6.587
 2484SOL     OW 8035   0.339   4.233   6.592
 2484SOL    HW1 8036   0.287   4.150   6.575
 2484SOL    HW2 8037   0.416   4.238   6.528
 2485SOL     OW 8038   1.138   4.104   7.264
 2485SOL    HW1 8039   1.093   4.167   7.328
 2485SOL    HW2 8040   1.231   4.135   7.247
 2486SOL     OW 8041   1.160   3.931   7.063
 2486SOL    HW1 8042   1.160   3.995   7.140
 2486SOL    HW2 8043   1.188   3.979   6.980
 2487SOL     OW 8044   0.008   5.050   5.786
 2487SOL    HW1 8045  -0.085   5.071   5.755
 2487SOL    HW2 8046   0.018   4.951   5.799
 2488SOL     OW 8047   1.002   4.520   6.824
 2488SOL    HW1 8048   1.043   4.488   6.910
 2488SOL    HW2 8049   0.906   4.493   6.821
 2489SOL     OW 8050   0.040   4.268   6.700
 2489SOL    HW1 8051   0.125   4.235   6.659
 2489SOL    HW2 8052   0.053   4.283   6.798
 2490SOL     OW 8053   0.189   4.244   7.308
 2490SOL    HW1 8054   0.248   4.204   7.238
 2490SOL    HW2 8055   0.131   4.315   7.267
 2491SOL     OW 8056   1.369   4.674   7.246
 2491SOL    HW1 8057   1.408   4.763   7.266
 2491SOL    HW2 8058   1.379   4.654   7.149
 2492SOL     OW 8059   0.815   4.296   5.911
 2492SOL    HW1 8060   0.822   4.207   5.865
 2492SOL    HW2 8061   0.721   4.330   5.903
 2493SOL     OW 8062   1.657   4.328   6.792
 2493SOL    HW1 8063   1.619   4.259   6.854
 2493SOL    HW2 8064   1.739   4.292   6.748
 2494SOL     OW 8065   0.252   5.288   7.330
 2494SOL    HW1 8066   0.222   5.345   7.406
 2494SOL    HW2 8067   0.245   5.191   7.356
 2495SOL     OW 8068   0.671   4.188   6.855
 2495SOL    HW1 8069   0.637   4.099   6.825
 2495SOL    HW2 8070   0.697   4.242   6.775
 2496SOL     OW 8071   0.473   4.224   5.777
 2496SOL    HW1 8072   0.534   4.304   5.781
 2496SOL    HW2 8073   0.378   4.255   5.784
 2497SOL     OW 8074   0.159   4.861   7.052
 2497SOL    HW1 8075   0.181   4.800   7.128
 2497SOL    HW2 8076   0.169   4.812   6.966
 2498SOL     OW 8077   1.347   4.783   6.820
 2498SOL    HW1 8078   1.371   4.720   6.746
 2498SOL    HW2 8079   1.257   4.823   6.802
 2499SOL     OW 8080   1.302   4.579   5.895
 2499SOL    HW1 8081   1.216   4.548   5.937
 2499SOL    HW2 8082   1.298   4.565   5.796
 2500SOL     OW 8083   0.083   4.982   6.608
 2500SOL    HW1 8084   0.078   4.981   6.708
 2500SOL    HW2 8085   0.000   4.941   6.570
 2501SOL     OW 8086   0.688   5.386   7.302
 2501SOL    HW1 8087   0.632   5.467   7.311
 2501SOL    HW2 8088   0.740   5.390   7.216
 2502SOL     OW 8089   1.726   3.859   6.109
 2502SOL    HW1 8090   1.799   3.842   6.042
 2502SOL    HW2 8091   1.695   3.772   6.147
 2503SOL     OW 8092   1.280   4.651   6.258
 2503SOL    HW1 8093   1.340   4.570   6.260
 2503SOL    HW2 8094   1.320   4.720   6.198
 2504SOL     OW 8095   0.830   4.997   7.008
 2504SOL    HW1 8096   0.825   5.030   7.103
 2504SOL    HW2 8097   0.744   5.016   6.962
 2505SOL     OW 8098   1.841   3.899   6.549
 2505SOL    HW1 8099   1.880   3.814   6.513
 2505SOL    HW2 8100   1.743   3.901   6.530
 2506SOL     OW 8101   0.263   4.050   6.306
 2506SOL    HW1 8102   0.184   4.101   6.272
 2506SOL    HW2 8103   0.254   4.035   6.404
 2507SOL     OW 8104   0.822   4.726   6.958
 2507SOL    HW1 8105   0.862   4.725   6.866
 2507SOL    HW2 8106   0.832   4.818   6.998
 2508SOL     OW 8107   0.916   4.634   5.877
 2508SOL    HW1 8108   0.979   4.672   5.809
 2508SOL    HW2 8109   0.956   4.551   5.916
 2509SOL     OW 8110   0.372   5.012   7.076
 2509SOL    HW1 8111   0.359   5.105   7.042
 2509SOL    HW2 8112   0.288   4.960   7.063
 2510SOL     OW 8113   1.614   5.016   6.875
 2510SOL    HW1 8114   1.674   5.019   6.955
 2510SOL    HW2 8115   1.539   5.080   6.888
 2511SOL     OW 8116   1.039   4.822   6.282
 2511SOL    HW1 8117   0.969   4.775   6.336
 2511SOL    HW2 8118   1.098   4.754   6.239
 2512SOL     OW 8119   1.014   3.960   6.557
 2512SOL    HW1 8120   1.006   3.924   6.464
 2512SOL    HW2 8121   1.012   3.884   6.622
 2513SOL     OW 8122   1.709   4.109   6.967
 2513SOL    HW1 8123   1.782   4.178   6.971
 2513SOL    HW2 8124   1.737   4.034   6.908
 2514SOL     OW 8125   0.255   5.072   5.876
 2514SOL    HW1 8126   0.159   5.073   5.849
 2514SOL    HW2 8127   0.267   5.125   5.960
 2515SOL     OW 8128   0.105   4.737   7.312
 2515SOL    HW1 8129   0.028   4.704   7.366
 2515SOL    HW2 8130   0.190   4.707   7.354
 2516SOL     OW 8131   0.672   3.927   7.075
 2516SOL    HW1 8132   0.762   3.911   7.035
 2516SOL    HW2 8133   0.680   3.932   7.174
 2517SOL     OW 8134   0.075   4.069   5.619
 2517SOL    HW1 8135  -0.017   4.041   5.590
 2517SOL    HW2 8136   0.106   4.146   5.563
 2518SOL     OW 8137   1.440   4.580   6.984
 2518SOL    HW1 8138   1.383   4.632   6.921
 2518SOL    HW2 8139   1.536   4.592   6.960
 2519SOL     OW 8140   0.072   3.890   5.904
 2519SOL    HW1 8141   0.055   3.973   5.850
 2519SOL    HW2 8142   0.162   3.853   5.882
 2520SOL     OW 8143   1.183   5.059   5.705
 2520SOL    HW1 8144   1.084   5.048   5.707
 2520SOL    HW2 8145   1.217   5.074   5.798
 2521SOL     OW 8146   0.613   4.566   7.017
 2521SOL    HW1 8147   0.669   4.647   7.000
 2521SOL    HW2 8148   0.672   4.486   7.020
 2522SOL     OW 8149   0.716   4.289   7.294
 2522SOL    HW1 8150   0.735   4.354   7.368
 2522SOL    HW2 8151   0.776   4.209   7.303
 2523SOL     OW 8152   1.450   4.944   7.219
 2523SOL    HW1 8153   1.441   4.934   7.318
 2523SOL    HW2 8154   1.546   4.937   7.193
 2524SOL     OW 8155   1.674   4.607   6.840
 2524SOL    HW1 8156   1.647   4.518   6.803
 2524SOL    HW2 8157   1.675   4.675   6.767
 2525SOL     OW 8158   1.225   4.049   6.035
 2525SOL    HW1 8159   1.290   3.975   6.024
 2525SOL    HW2 8160   1.245   4.099   6.119
 2526SOL     OW 8161   0.594   4.469   6.238
 2526SOL    HW1 8162   0.644   4.554   6.219
 2526SOL    HW2 8163   0.506   4.471   6.190
 2527SOL     OW 8164   1.777   4.066   7.228
 2527SOL    HW1 8165   1.760   4.097   7.134
 2527SOL    HW2 8166   1.693   4.029   7.266
 2528SOL     OW 8167   1.730   4.658   7.103
 2528SOL    HW1 8168   1.768   4.749   7.118
 2528SOL    HW2 8169   1.722   4.641   7.004
 2529SOL     OW 8170   0.859   5.098   5.602
 2529SOL    HW1 8171   0.813   5.113   5.690
 2529SOL    HW2 8172   0.903   5.183   5.572
 2530SOL     OW 8173   0.859   4.680   6.447
 2530SOL    HW1 8174   0.913   4.611   6.495
 2530SOL    HW2 8175   0.827   4.749   6.513
 2531SOL     OW 8176   1.083   4.708   5.673
 2531SOL    HW1 8177   1.060   4.761   5.591
 2531SOL    HW2 8178   1.164   4.652   5.654
 2532SOL     OW 8179   0.221   5.038   7.430
 2532SOL    HW1 8180   0.156   4.965   7.409
 2532SOL    HW2 8181   0.225   5.052   7.528
 2533SOL     OW 8182   0.079   4.964   6.239
 2533SOL    HW1 8183   0.078   4.917   6.327
 2533SOL    HW2 8184   0.161   4.936   6.188
 2534SOL     OW 8185   0.672   5.115   7.210
 2534SOL    HW1 8186   0.594   5.065   7.248
 2534SOL    HW2 8187   0.669   5.210   7.241
 2535SOL     OW 8188   1.824   3.916   6.813
 2535SOL    HW1 8189   1.820   3.826   6.857
 2535SOL    HW2 8190   1.827   3.905   6.714
 2536SOL     OW 8191   0.428   4.148   6.106
 2536SOL    HW1 8192   0.458   4.076   6.044
 2536SOL    HW2 8193   0.389   4.108   6.189
 2537SOL     OW 8194   1.705   5.211   6.690
 2537SOL    HW1 8195   1.612   5.186   6.663
 2537SOL    HW2 8196   1.731   5.161   6.772
 2538SOL     OW 8197   0.317   4.271   6.866
 2538SOL    HW1 8198   0.355   4.212   6.938
 2538SOL    HW2 8199   0.357   4.245   6.778
 2539SOL     OW 8200   1.424   3.938   6.698
 2539SOL    HW1 8201   1.476   3.873   6.753
 2539SOL    HW2 8202   1.375   4.001   6.759
 2540SOL     OW 8203   1.001   3.758   6.740
 2540SOL    HW1 8204   0.938   3.686   6.709
 2540SOL    HW2 8205   1.094   3.722   6.740
 2541SOL     OW 8206   0.770   5.054   5.887
 2541SOL    HW1 8207   0.724   4.967   5.904
 2541SOL    HW2 8208   0.861   5.051   5.928
 2542SOL     OW 8209   0.618   5.291   6.870
 2542SOL    HW1 8210   0.613   5.373   6.927
 2542SOL    HW2 8211   0.707   5.288   6.825
 2543SOL     OW 8212   1.352   3.776   5.754
 2543SOL    HW1 8213   1.387   3.735   5.670
 2543SOL    HW2 8214   1.262   3.738   5.774
 2544SOL     OW 8215   1.300   4.177   6.277
 2544SOL    HW1 8216   1.241   4.257   6.281
 2544SOL    HW2 8217   1.315   4.142   6.370
 2545SOL     OW 8218   1.593   3.945   6.468
 2545SOL    HW1 8219   1.509   3.944   6.522
 2545SOL    HW2 8220   1.595   4.028   6.412
 2546SOL     OW 8221   0.039   4.801   5.886
 2546SOL    HW1 8222   0.138   4.790   5.877
 2546SOL    HW2 8223  -0.001   4.715   5.918
 2547SOL     OW 8224   0.230   4.352   7.561
 2547SOL    HW1 8225   0.137   4.350   7.598
 2547SOL    HW2 8226   0.231   4.313   7.469
 2548SOL     OW 8227   1.755   4.331   7.679
 2548SOL    HW1 8228   1.743   4.318   7.580
 2548SOL    HW2 8229   1.725   4.250   7.728
 2549SOL     OW 8230   0.231   5.437   7.931
 2549SOL    HW1 8231   0.265   5.514   7.985
 2549SOL    HW2 8232   0.275   5.437   7.841
 2550SOL     OW 8233   0.230   5.158   7.986
 2550SOL    HW1 8234   0.204   5.254   7.986
 2550SOL    HW2 8235   0.159   5.104   8.031
 2551SOL     OW 8236   0.606   4.688   7.571
 2551SOL    HW1 8237   0.613   4.772   7.517
 2551SOL    HW2 8238   0.652   4.701   7.659
 2552SOL     OW 8239   0.027   5.320   7.565
 2552SOL    HW1 8240   0.008   5.224   7.586
 2552SOL    HW2 8241  -0.006   5.378   7.640
 2553SOL     OW 8242   1.689   4.646   8.060
 2553SOL    HW1 8243   1.784   4.617   8.068
 2553SOL    HW2 8244   1.681   4.711   7.985
 2554SOL     OW 8245   1.641   4.832   7.880
 2554SOL    HW1 8246   1.727   4.834   7.828
 2554SOL    HW2 8247   1.655   4.879   7.968
 2555SOL     OW 8248   0.809   3.728   7.950
 2555SOL    HW1 8249   0.849   3.819   7.941
 2555SOL    HW2 8250   0.709   3.736   7.956
 2556SOL     OW 8251   1.525   4.723   7.638
 2556SOL    HW1 8252   1.462   4.647   7.651
 2556SOL    HW2 8253   1.573   4.741   7.724
 2557SOL     OW 8254   0.598   4.453   7.718
 2557SOL    HW1 8255   0.622   4.522   7.650
 2557SOL    HW2 8256   0.520   4.486   7.772
 2558SOL     OW 8257   0.076   4.535   8.237
 2558SOL    HW1 8258   0.175   4.523   8.246
 2558SOL    HW2 8259   0.052   4.630   8.258
 2559SOL     OW 8260   0.865   4.072   7.643
 2559SOL    HW1 8261   0.924   4.135   7.594
 2559SOL    HW2 8262   0.884   3.978   7.614
 2560SOL     OW 8263   0.321   4.667   7.690
 2560SOL    HW1 8264   0.403   4.706   7.648
 2560SOL    HW2 8265   0.294   4.585   7.641
 2561SOL     OW 8266   1.111   5.500   7.685
 2561SOL    HW1 8267   1.051   5.438   7.735
 2561SOL    HW2 8268   1.142   5.456   7.600
 2562SOL     OW 8269   1.632   5.101   7.529
 2562SOL    HW1 8270   1.600   5.195   7.519
 2562SOL    HW2 8271   1.556   5.038   7.517
 2563SOL     OW 8272   1.400   3.831   7.874
 2563SOL    HW1 8273   1.376   3.794   7.784
 2563SOL    HW2 8274   1.499   3.847   7.878
 2564SOL     OW 8275   0.382   4.424   7.928
 2564SOL    HW1 8276   0.427   4.334   7.925
 2564SOL    HW2 8277   0.288   4.413   7.961
 2565SOL     OW 8278   0.614   3.846   7.565
 2565SOL    HW1 8279   0.712   3.824   7.572
 2565SOL    HW2 8280   0.583   3.829   7.472
 2566SOL     OW 8281   0.539   3.788   7.960
 2566SOL    HW1 8282   0.458   3.789   8.018
 2566SOL    HW2 8283   0.542   3.871   7.905
 2567SOL     OW 8284   1.434   4.912   7.489
 2567SOL    HW1 8285   1.466   4.836   7.546
 2567SOL    HW2 8286   1.342   4.939   7.519
 2568SOL     OW 8287   0.297   3.759   7.619
 2568SOL    HW1 8288   0.346   3.843   7.598
 2568SOL    HW2 8289   0.359   3.694   7.664
 2569SOL     OW 8290   0.935   3.960   7.928
 2569SOL    HW1 8291   0.887   4.001   7.850
 2569SOL    HW2 8292   1.034   3.958   7.909
 2570SOL     OW 8293   0.459   4.876   8.189
 2570SOL    HW1 8294   0.388   4.849   8.254
 2570SOL    HW2 8295   0.433   4.848   8.096
 2571SOL     OW 8296   1.032   4.273   7.464
 2571SOL    HW1 8297   0.991   4.355   7.425
 2571SOL    HW2 8298   1.096   4.299   7.537
 2572SOL     OW 8299   1.857   4.557   7.825
 2572SOL    HW1 8300   1.899   4.493   7.889
 2572SOL    HW2 8301   1.819   4.506   7.747
 2573SOL     OW 8302   0.488   5.109   7.622
 2573SOL    HW1 8303   0.401   5.094   7.669
 2573SOL    HW2 8304   0.471   5.135   7.527
 2574SOL     OW 8305   1.390   4.299   7.526
 2574SOL    HW1 8306   1.336   4.278   7.607
 2574SOL    HW2 8307   1.481   4.258   7.535
 2575SOL     OW 8308   0.527   3.980   7.776
 2575SOL    HW1 8309   0.554   3.921   7.701
 2575SOL    HW2 8310   0.527   4.075   7.745
 2576SOL     OW 8311   0.705   4.774   7.816
 2576SOL    HW1 8312   0.691   4.781   7.915
 2576SOL    HW2 8313   0.789   4.723   7.798
 2577SOL     OW 8314   0.367   4.824   7.949
 2577SOL    HW1 8315   0.360   4.907   7.893
 2577SOL    HW2 8316   0.371   4.744   7.889
 2578SOL     OW 8317   1.252   5.072   7.836
 2578SOL    HW1 8318   1.302   5.149   7.876
 2578SOL    HW2 8319   1.157   5.074   7.868
 2579SOL     OW 8320   1.582   4.363   7.920
 2579SOL    HW1 8321   1.551   4.424   7.993
 2579SOL    HW2 8322   1.632   4.415   7.851
 2580SOL     OW 8323   1.209   4.249   7.723
 2580SOL    HW1 8324   1.222   4.165   7.777
 2580SOL    HW2 8325   1.180   4.323   7.783
 2581SOL     OW 8326   1.622   4.091   7.822
 2581SOL    HW1 8327   1.624   4.015   7.886
 2581SOL    HW2 8328   1.574   4.168   7.862
 2582SOL     OW 8329   1.540   3.998   7.573
 2582SOL    HW1 8330   1.479   3.923   7.596
 2582SOL    HW2 8331   1.562   4.050   7.656
 2583SOL     OW 8332   1.303   4.562   7.490
 2583SOL    HW1 8333   1.337   4.469   7.505
 2583SOL    HW2 8334   1.321   4.589   7.395
 2584SOL     OW 8335   0.008   5.050   7.648
 2584SOL    HW1 8336  -0.085   5.071   7.617
 2584SOL    HW2 8337   0.018   4.951   7.661
 2585SOL     OW 8338   0.815   4.296   7.773
 2585SOL    HW1 8339   0.822   4.207   7.727
 2585SOL    HW2 8340   0.721   4.330   7.765
 2586SOL     OW 8341   0.473   4.224   7.639
 2586SOL    HW1 8342   0.534   4.304   7.643
 2586SOL    HW2 8343   0.378   4.255   7.646
 2587SOL     OW 8344   1.302   4.579   7.757
 2587SOL    HW1 8345   1.216   4.548   7.799
 2587SOL    HW2 8346   1.298   4.565   7.658
 2588SOL     OW 8347   1.726   3.859   7.971
 2588SOL    HW1 8348   1.799   3.842   7.904
 2588SOL    HW2 8349   1.695   3.772   8.009
 2589SOL     OW 8350   0.916   4.634   7.739
 2589SOL    HW1 8351   0.979   4.672   7.671
 2589SOL    HW2 8352   0.956   4.551   7.778
 2590SOL     OW 8353   0.255   5.072   7.738
 2590SOL    HW1 8354   0.159   5.073   7.711
 2590SOL    HW2 8355   0.267   5.125   7.822
 2591SOL     OW 8356   0.075   4.069   7.481
 2591SOL    HW1 8357  -0.017   4.041   7.452
 2591SOL    HW2 8358   0.106   4.146   7.425
 2592SOL     OW 8359   0.072   3.890   7.766
 2592SOL    HW1 8360   0.055   3.973   7.712
 2592SOL    HW2 8361   0.162   3.853   7.744
 2593SOL     OW 8362   1.183   5.059   7.567
 2593SOL    HW1 8363   1.084   5.048   7.569
 2593SOL    HW2 8364   1.217   5.074   7.660
 2594SOL     OW 8365   1.225   4.049   7.897
 2594SOL    HW1 8366   1.290   3.975   7.886
 2594SOL    HW2 8367   1.245   4.099   7.981
 2595SOL     OW 8368   0.594   4.469   8.100
 2595SOL    HW1 8369   0.644   4.554   8.081
 2595SOL    HW2 8370   0.506   4.471   8.052
 2596SOL     OW 8371   0.859   5.098   7.464
 2596SOL    HW1 8372   0.813   5.113   7.552
 2596SOL    HW2 8373   0.903   5.183   7.434
 2597SOL     OW 8374   1.083   4.708   7.535
 2597SOL    HW1 8375   1.060   4.761   7.453
 2597SOL    HW2 8376   1.164   4.652   7.516
 2598SOL     OW 8377   0.428   4.148   7.968
 2598SOL    HW1 8378   0.458   4.076   7.906
 2598SOL    HW2 8379   0.389   4.108   8.051
 2599SOL     OW 8380   0.770   5.054   7.749
 2599SOL    HW1 8381   0.724   4.967   7.766
 2599SOL    HW2 8382   0.861   5.051   7.790
 2600SOL     OW 8383   1.352   3.776   7.616
 2600SOL    HW1 8384   1.387   3.735   7.532
 2600SOL    HW2 8385   1.262   3.738   7.636
 2601SOL     OW 8386   0.039   4.801   7.748
 2601SOL    HW1 8387   0.138   4.790   7.739
 2601SOL    HW2 8388  -0.001   4.715   7.780
 2602SOL     OW 8389   2.092   0.628   0.113
 2602SOL    HW1 8390   1.999   0.626   0.150
 2602SOL    HW2 8391   2.093   0.589   0.021
 2603SOL     OW 8392   2.087   0.275   0.996
 2603SOL    HW1 8393   2.122   0.258   1.088
 2603SOL    HW2 8394   1.999   0.230   0.984
 2604SOL     OW 8395   1.881   0.368   0.647
 2604SOL    HW1 8396   1.799   0.411   0.686
 2604SOL    HW2 8397   1.853   0.295   0.584
 2605SOL     OW 8398   2.431   1.275   1.165
 2605SOL    HW1 8399   2.338   1.268   1.128
 2605SOL    HW2 8400   2.442   1.364   1.209
 2606SOL     OW 8401   3.417   1.511   0.703
 2606SOL    HW1 8402   3.360   1.495   0.784
 2606SOL    HW2 8403   3.358   1.521   0.623
 2607SOL     OW 8404   2.997   0.703   0.717
 2607SOL    HW1 8405   3.054   0.781   0.692
 2607SOL    HW2 8406   2.937   0.729   0.793
 2608SOL     OW 8407   3.617   0.607   0.231
 2608SOL    HW1 8408   3.605   0.594   0.132
 2608SOL    HW2 8409   3.587   0.526   0.280
 2609SOL     OW 8410   2.630   1.144   1.023
 2609SOL    HW1 8411   2.552   1.161   1.083
 2609SOL    HW2 8412   2.664   1.231   0.987
 2610SOL     OW 8413   2.712   0.798   1.823
 2610SOL    HW1 8414   2.708   0.874   1.888
 2610SOL    HW2 8415   2.734   0.834   1.732
 2611SOL     OW 8416   2.547   1.012   0.665
 2611SOL    HW1 8417   2.616   0.996   0.735
 2611SOL    HW2 8418   2.474   1.069   0.703
 2612SOL     OW 8419   2.548   1.161   1.803
 2612SOL    HW1 8420   2.608   1.240   1.817
 2612SOL    HW2 8421   2.462   1.192   1.762
 2613SOL     OW 8422   2.197   1.435   1.061
 2613SOL    HW1 8423   2.119   1.404   1.008
 2613SOL    HW2 8424   2.255   1.493   1.004
 2614SOL     OW 8425   3.322   1.505   1.339
 2614SOL    HW1 8426   3.346   1.599   1.365
 2614SOL    HW2 8427   3.306   1.451   1.421
 2615SOL     OW 8428   2.300   0.392   1.499
 2615SOL    HW1 8429   2.382   0.336   1.508
 2615SOL    HW2 8430   2.219   0.334   1.503
 2616SOL     OW 8431   3.465   0.447   0.737
 2616SOL    HW1 8432   3.391   0.493   0.687
 2616SOL    HW2 8433   3.516   0.515   0.790
 2617SOL     OW 8434   2.093   1.713   0.483
 2617SOL    HW1 8435   2.127   1.790   0.537
 2617SOL    HW2 8436   2.137   1.713   0.393
 2618SOL     OW 8437   2.989   1.341   1.690
 2618SOL    HW1 8438   3.036   1.341   1.778
 2618SOL    HW2 8439   2.941   1.254   1.679
 2619SOL     OW 8440   2.092   1.434   0.538
 2619SOL    HW1 8441   2.066   1.530   0.538
 2619SOL    HW2 8442   2.021   1.380   0.583
 2620SOL     OW 8443   2.102   1.091   0.886
 2620SOL    HW1 8444   2.116   1.007   0.938
 2620SOL    HW2 8445   2.047   1.155   0.941
 2621SOL     OW 8446   2.482   1.786   1.439
 2621SOL    HW1 8447   2.390   1.769   1.474
 2621SOL    HW2 8448   2.510   1.878   1.465
 2622SOL     OW 8449   2.468   0.964   0.123
 2622SOL    HW1 8450   2.475   1.048   0.069
 2622SOL    HW2 8451   2.514   0.977   0.211
 2623SOL     OW 8452   3.456   0.114   1.480
 2623SOL    HW1 8453   3.438   0.181   1.408
 2623SOL    HW2 8454   3.453   0.160   1.569
 2624SOL     OW 8455   1.984   0.643   0.563
 2624SOL    HW1 8456   1.939   0.555   0.580
 2624SOL    HW2 8457   1.983   0.697   0.647
 2625SOL     OW 8458   3.704   1.767   0.359
 2625SOL    HW1 8459   3.758   1.738   0.439
 2625SOL    HW2 8460   3.734   1.857   0.330
 2626SOL     OW 8461   1.889   1.596   0.117
 2626SOL    HW1 8462   1.870   1.500   0.138
 2626SOL    HW2 8463   1.856   1.654   0.192
 2627SOL     OW 8464   3.551   0.922   0.612
 2627SOL    HW1 8465   3.646   0.893   0.620
 2627SOL    HW2 8466   3.543   0.987   0.537
 2628SOL     OW 8467   3.503   1.108   0.432
 2628SOL    HW1 8468   3.589   1.110   0.380
 2628SOL    HW2 8469   3.517   1.155   0.520
 2629SOL     OW 8470   1.975   0.737   1.597
 2629SOL    HW1 8471   2.063   0.724   1.642
 2629SOL    HW2 8472   1.962   0.834   1.575
 2630SOL     OW 8473   2.475   1.365   0.726
 2630SOL    HW1 8474   2.426   1.278   0.735
 2630SOL    HW2 8475   2.452   1.408   0.639
 2631SOL     OW 8476   3.155   1.228   1.423
 2631SOL    HW1 8477   3.192   1.155   1.365
 2631SOL    HW2 8478   3.207   1.233   1.508
 2632SOL     OW 8479   2.671   0.004   0.502
 2632SOL    HW1 8480   2.711   0.095   0.493
 2632SOL    HW2 8481   2.571   0.012   0.508
 2633SOL     OW 8482   2.059   0.976   1.264
 2633SOL    HW1 8483   2.148   0.931   1.250
 2633SOL    HW2 8484   1.986   0.911   1.245
 2634SOL     OW 8485   3.387   0.999   0.190
 2634SOL    HW1 8486   3.324   0.923   0.203
 2634SOL    HW2 8487   3.435   1.017   0.276
 2635SOL     OW 8488   3.049   1.792   1.616
 2635SOL    HW1 8489   3.073   1.852   1.540
 2635SOL    HW2 8490   3.056   1.697   1.586
 2636SOL     OW 8491   2.179   0.251   1.801
 2636SOL    HW1 8492   2.250   0.322   1.807
 2636SOL    HW2 8493   2.091   0.290   1.829
 2637SOL     OW 8494   3.328   1.417   0.953
 2637SOL    HW1 8495   3.269   1.423   1.033
 2637SOL    HW2 8496   3.313   1.329   0.907
 2638SOL     OW 8497   3.529   1.714   0.572
 2638SOL    HW1 8498   3.488   1.691   0.484
 2638SOL    HW2 8499   3.511   1.640   0.637
 2639SOL     OW 8500   2.460   0.729   0.270
 2639SOL    HW1 8501   2.484   0.798   0.202
 2639SOL    HW2 8502   2.382   0.762   0.324
 2640SOL     OW 8503   3.143   0.345   0.944
 2640SOL    HW1 8504   3.057   0.295   0.931
 2640SOL    HW2 8505   3.205   0.291   1.000
 2641SOL     OW 8506   3.438   1.662   0.307
 2641SOL    HW1 8507   3.527   1.708   0.310
 2641SOL    HW2 8508   3.417   1.638   0.212
 2642SOL     OW 8509   2.669   0.605   1.465
 2642SOL    HW1 8510   2.622   0.602   1.554
 2642SOL    HW2 8511   2.618   0.550   1.399
 2643SOL     OW 8512   3.256   0.469   1.674
 2643SOL    HW1 8513   3.236   0.512   1.762
 2643SOL    HW2 8514   3.334   0.407   1.683
 2644SOL     OW 8515   2.835   0.890   1.572
 2644SOL    HW1 8516   2.881   0.806   1.543
 2644SOL    HW2 8517   2.779   0.924   1.497
 2645SOL     OW 8518   2.853   0.410   1.242
 2645SOL    HW1 8519   2.776   0.444   1.296
 2645SOL    HW2 8520   2.819   0.359   1.163
 2646SOL     OW 8521   2.903   0.701   0.429
 2646SOL    HW1 8522   2.929   0.697   0.525
 2646SOL    HW2 8523   2.818   0.650   0.415
 2647SOL     OW 8524   1.938   0.811   0.789
 2647SOL    HW1 8525   2.037   0.799   0.798
 2647SOL    HW2 8526   1.914   0.906   0.810
 2648SOL     OW 8527   1.992   1.821   1.571
 2648SOL    HW1 8528   1.982   1.806   1.670
 2648SOL    HW2 8529   1.906   1.857   1.535
 2649SOL     OW 8530   2.727   0.348   0.195
 2649SOL    HW1 8531   2.786   0.411   0.146
 2649SOL    HW2 8532   2.746   0.254   0.166
 2650SOL     OW 8533   3.581   0.585   1.831
 2650SOL    HW1 8534   3.555   0.674   1.795
 2650SOL    HW2 8535   3.579   0.517   1.758
 2651SOL     OW 8536   3.224   1.144   0.545
 2651SOL    HW1 8537   3.307   1.115   0.497
 2651SOL    HW2 8538   3.175   1.211   0.489
 2652SOL     OW 8539   2.412   0.196   0.885
 2652SOL    HW1 8540   2.407   0.191   0.985
 2652SOL    HW2 8541   2.414   0.292   0.856
 2653SOL     OW 8542   2.870   1.456   0.477
 2653SOL    HW1 8543   2.824   1.528   0.425
 2653SOL    HW2 8544   2.866   1.476   0.575
 2654SOL     OW 8545   2.213   1.801   0.853
 2654SOL    HW1 8546   2.263   1.715   0.859
 2654SOL    HW2 8547   2.278   1.878   0.850
 2655SOL     OW 8548   3.657   1.066   0.873
 2655SOL    HW1 8549   3.595   1.051   0.797
 2655SOL    HW2 8550   3.605   1.077   0.958
 2656SOL     OW 8551   3.089   1.550   1.506
 2656SOL    HW1 8552   3.095   1.473   1.570
 2656SOL    HW2 8553   3.037   1.524   1.426
 2657SOL     OW 8554   2.183   0.943   0.242
 2657SOL    HW1 8555   2.265   0.982   0.200
 2657SOL    HW2 8556   2.156   0.861   0.193
 2658SOL     OW 8557   3.320   0.735   0.728
 2658SOL    HW1 8558   3.315   0.670   0.803
 2658SOL    HW2 8559   3.400   0.794   0.741
 2659SOL     OW 8560   2.323   1.266   1.727
 2659SOL    HW1 8561   2.273   1.267   1.641
 2659SOL    HW2 8562   2.260   1.248   1.803
 2660SOL     OW 8563   2.973   1.776   0.237
 2660SOL    HW1 8564   2.913   1.714   0.287
 2660SOL    HW2 8565   3.004   1.732   0.152
 2661SOL     OW 8566   2.064   0.285   1.498
 2661SOL    HW1 8567   1.984   0.345   1.485
 2661SOL    HW2 8568   2.054   0.236   1.584
 2662SOL     OW 8569   3.494   1.377   0.081
 2662SOL    HW1 8570   3.462   1.471   0.071
 2662SOL    HW2 8571   3.418   1.314   0.069
 2663SOL     OW 8572   2.326   1.743   0.323
 2663SOL    HW1 8573   2.359   1.782   0.409
 2663SOL    HW2 8574   2.402   1.736   0.258
 2664SOL     OW 8575   3.262   0.107   0.426
 2664SOL    HW1 8576   3.238   0.070   0.336
 2664SOL    HW2 8577   3.361   0.123   0.430
 2665SOL     OW 8578   2.111   1.785   1.241
 2665SOL    HW1 8579   2.168   1.720   1.291
 2665SOL    HW2 8580   2.095   1.752   1.148
 2666SOL     OW 8581   2.802   1.698   0.904
 2666SOL    HW1 8582   2.882   1.641   0.925
 2666SOL    HW2 8583   2.753   1.658   0.827
 2667SOL     OW 8584   2.244   0.700   0.480
 2667SOL    HW1 8585   2.289   0.610   0.477
 2667SOL    HW2 8586   2.150   0.689   0.513
 2668SOL     OW 8587   3.409   0.222   1.729
 2668SOL    HW1 8588   3.404   0.259   1.821
 2668SOL    HW2 8589   3.337   0.153   1.717
 2669SOL     OW 8590   2.476   0.122   0.117
 2669SOL    HW1 8591   2.574   0.100   0.124
 2669SOL    HW2 8592   2.445   0.105   0.024
 2670SOL     OW 8593   2.643   0.264   1.749
 2670SOL    HW1 8594   2.710   0.203   1.792
 2670SOL    HW2 8595   2.570   0.283   1.814
 2671SOL     OW 8596   2.750   1.514   1.195
 2671SOL    HW1 8597   2.727   1.489   1.101
 2671SOL    HW2 8598   2.811   1.445   1.234
 2672SOL     OW 8599   3.213   0.590   1.433
 2672SOL    HW1 8600   3.241   0.547   1.518
 2672SOL    HW2 8601   3.238   0.686   1.434
 2673SOL     OW 8602   2.665   1.402   0.924
 2673SOL    HW1 8603   2.755   1.416   0.882
 2673SOL    HW2 8604   2.594   1.404   0.853
 2674SOL     OW 8605   2.784   0.503   0.899
 2674SOL    HW1 8606   2.759   0.494   0.803
 2674SOL    HW2 8607   2.832   0.421   0.930
 2675SOL     OW 8608   2.401   0.064   0.512
 2675SOL    HW1 8609   2.320   0.065   0.570
 2675SOL    HW2 8610   2.404   0.147   0.457
 2676SOL     OW 8611   3.296   1.188   0.041
 2676SOL    HW1 8612   3.328   1.112   0.098
 2676SOL    HW2 8613   3.204   1.215   0.071
 2677SOL     OW 8614   2.159   0.035   0.171
 2677SOL    HW1 8615   2.208   0.119   0.150
 2677SOL    HW2 8616   2.221  -0.030   0.216
 2678SOL     OW 8617   2.797   0.236   0.480
 2678SOL    HW1 8618   2.749   0.277   0.402
 2678SOL    HW2 8619   2.896   0.234   0.461
 2679SOL     OW 8620   2.938   0.683   1.464
 2679SOL    HW1 8621   2.858   0.622   1.467
 2679SOL    HW2 8622   3.019   0.630   1.440
 2680SOL     OW 8623   3.089   1.570   0.793
 2680SOL    HW1 8624   3.110   1.644   0.728
 2680SOL    HW2 8625   3.157   1.570   0.866
 2681SOL     OW 8626   2.321   1.152   0.741
 2681SOL    HW1 8627   2.250   1.125   0.806
 2681SOL    HW2 8628   2.295   1.124   0.648
 2682SOL     OW 8629   3.133   1.797   0.591
 2682SOL    HW1 8630   3.177   1.861   0.527
 2682SOL    HW2 8631   3.083   1.849   0.661
 2683SOL     OW 8632   2.894   0.549   0.016
 2683SOL    HW1 8633   2.853   0.631  -0.023
 2683SOL    HW2 8634   2.958   0.575   0.089
 2684SOL     OW 8635   1.940   0.556   1.386
 2684SOL    HW1 8636   2.032   0.555   1.345
 2684SOL    HW2 8637   1.934   0.630   1.453
 2685SOL     OW 8638   2.423   0.222   1.147
 2685SOL    HW1 8639   2.461   0.138   1.184
 2685SOL    HW2 8640   2.335   0.241   1.191
 2686SOL     OW 8641   2.728   0.454   0.642
 2686SOL    HW1 8642   2.696   0.526   0.580
 2686SOL    HW2 8643   2.752   0.373   0.589
 2687SOL     OW 8644   2.879   0.039   0.753
 2687SOL    HW1 8645   2.807   0.044   0.684
 2687SOL    HW2 8646   2.855  -0.030   0.822
 2688SOL     OW 8647   3.291   1.173   0.867
 2688SOL    HW1 8648   3.236   1.089   0.860
 2688SOL    HW2 8649   3.317   1.202   0.775
 2689SOL     OW 8650   3.328   0.590   0.992
 2689SOL    HW1 8651   3.298   0.495   0.999
 2689SOL    HW2 8652   3.401   0.606   1.058
 2690SOL     OW 8653   3.719   0.833   0.377
 2690SOL    HW1 8654   3.761   0.769   0.441
 2690SOL    HW2 8655   3.681   0.782   0.299
 2691SOL     OW 8656   2.350   1.385   0.174
 2691SOL    HW1 8657   2.263   1.370   0.221
 2691SOL    HW2 8658   2.333   1.411   0.079
 2692SOL     OW 8659   3.526   1.280   0.657
 2692SOL    HW1 8660   3.625   1.288   0.671
 2692SOL    HW2 8661   3.481   1.364   0.688
 2693SOL     OW 8662   3.252   0.575   0.078
 2693SOL    HW1 8663   3.198   0.554   0.159
 2693SOL    HW2 8664   3.343   0.534   0.087
 2694SOL     OW 8665   2.389   0.256   0.328
 2694SOL    HW1 8666   2.416   0.197   0.253
 2694SOL    HW2 8667   2.389   0.351   0.297
 2695SOL     OW 8668   3.616   1.223   1.588
 2695SOL    HW1 8669   3.707   1.184   1.575
 2695SOL    HW2 8670   3.624   1.319   1.612
 2696SOL     OW 8671   2.926   1.347   1.340
 2696SOL    HW1 8672   2.846   1.324   1.395
 2696SOL    HW2 8673   3.009   1.321   1.389
 2697SOL     OW 8674   3.454   1.629   1.625
 2697SOL    HW1 8675   3.481   1.663   1.535
 2697SOL    HW2 8676   3.533   1.591   1.671
 2698SOL     OW 8677   2.973   1.195   1.100
 2698SOL    HW1 8678   2.933   1.239   1.181
 2698SOL    HW2 8679   2.932   1.232   1.017
 2699SOL     OW 8680   3.500   1.099   1.079
 2699SOL    HW1 8681   3.505   1.180   1.138
 2699SOL    HW2 8682   3.414   1.101   1.028
 2700SOL     OW 8683   2.777   0.089   1.402
 2700SOL    HW1 8684   2.802   0.069   1.307
 2700SOL    HW2 8685   2.849   0.145   1.444
 2701SOL     OW 8686   2.842   1.116   1.719
 2701SOL    HW1 8687   2.743   1.122   1.729
 2701SOL    HW2 8688   2.865   1.036   1.663
 2702SOL     OW 8689   2.567   1.050   0.368
 2702SOL    HW1 8690   2.553   1.057   0.467
 2702SOL    HW2 8691   2.651   0.999   0.350
 2703SOL     OW 8692   2.272   0.813   1.251
 2703SOL    HW1 8693   2.358   0.825   1.301
 2703SOL    HW2 8694   2.230   0.726   1.278
 2704SOL     OW 8695   3.136   0.386   1.262
 2704SOL    HW1 8696   3.157   0.460   1.326
 2704SOL    HW2 8697   3.047   0.403   1.219
 2705SOL     OW 8698   1.926   1.564   1.331
 2705SOL    HW1 8699   1.880   1.646   1.297
 2705SOL    HW2 8700   2.024   1.583   1.340
 2706SOL     OW 8701   2.229   1.100   0.501
 2706SOL    HW1 8702   2.222   1.183   0.445
 2706SOL    HW2 8703   2.233   1.020   0.441
 2707SOL     OW 8704   2.428   0.537   0.865
 2707SOL    HW1 8705   2.440   0.603   0.791
 2707SOL    HW2 8706   2.474   0.571   0.948
 2708SOL     OW 8707   3.114   1.348   0.388
 2708SOL    HW1 8708   3.164   1.425   0.428
 2708SOL    HW2 8709   3.019   1.350   0.420
 2709SOL     OW 8710   3.134   1.445   1.142
 2709SOL    HW1 8711   3.181   1.458   1.229
 2709SOL    HW2 8712   3.068   1.371   1.151
 2710SOL     OW 8713   3.444   0.639   0.472
 2710SOL    HW1 8714   3.413   0.700   0.545
 2710SOL    HW2 8715   3.494   0.691   0.403
 2711SOL     OW 8716   2.216   1.510   1.329
 2711SOL    HW1 8717   2.195   1.466   1.242
 2711SOL    HW2 8718   2.313   1.536   1.332
 2712SOL     OW 8719   2.264   0.751   1.598
 2712SOL    HW1 8720   2.332   0.806   1.551
 2712SOL    HW2 8721   2.304   0.663   1.625
 2713SOL     OW 8722   3.449   0.779   1.670
 2713SOL    HW1 8723   3.357   0.817   1.665
 2713SOL    HW2 8724   3.509   0.826   1.605
 2714SOL     OW 8725   2.875   0.105   1.770
 2714SOL    HW1 8726   2.881   0.190   1.718
 2714SOL    HW2 8727   2.907   0.029   1.713
 2715SOL     OW 8728   2.366   0.050   1.740
 2715SOL    HW1 8729   2.324  -0.007   1.670
 2715SOL    HW2 8730   2.300   0.119   1.772
 2716SOL     OW 8731   2.435   0.870   1.029
 2716SOL    HW1 8732   2.479   0.959   1.020
 2716SOL    HW2 8733   2.372   0.870   1.106
 2717SOL     OW 8734   3.222   0.862   1.045
 2717SOL    HW1 8735   3.147   0.862   0.979
 2717SOL    HW2 8736   3.259   0.770   1.054
 2718SOL     OW 8737   3.071   0.525   0.275
 2718SOL    HW1 8738   3.084   0.441   0.329
 2718SOL    HW2 8739   3.042   0.599   0.335
 2719SOL     OW 8740   2.169   0.213   1.231
 2719SOL    HW1 8741   2.146   0.250   1.321
 2719SOL    HW2 8742   2.139   0.118   1.225
 2720SOL     OW 8743   1.899   1.310   1.282
 2720SOL    HW1 8744   1.952   1.261   1.350
 2720SOL    HW2 8745   1.921   1.408   1.287
 2721SOL     OW 8746   2.594   0.634   1.064
 2721SOL    HW1 8747   2.653   0.608   0.988
 2721SOL    HW2 8748   2.566   0.730   1.053
 2722SOL     OW 8749   3.590   0.935   1.854
 2722SOL    HW1 8750   3.544   0.928   1.765
 2722SOL    HW2 8751   3.528   0.979   1.920
 2723SOL     OW 8752   2.169   0.063   0.618
 2723SOL    HW1 8753   2.158   0.157   0.651
 2723SOL    HW2 8754   2.164   0.000   0.695
 2724SOL     OW 8755   3.484   0.367   0.374
 2724SOL    HW1 8756   3.486   0.291   0.438
 2724SOL    HW2 8757   3.436   0.444   0.414
 2725SOL     OW 8758   2.885   0.766   0.966
 2725SOL    HW1 8759   2.900   0.787   1.062
 2725SOL    HW2 8760   2.855   0.671   0.957
 2726SOL     OW 8761   2.842   1.573   1.700
 2726SOL    HW1 8762   2.822   1.617   1.612
 2726SOL    HW2 8763   2.881   1.482   1.684
 2727SOL     OW 8764   3.721   1.518   1.605
 2727SOL    HW1 8765   3.735   1.545   1.510
 2727SOL    HW2 8766   3.804   1.540   1.658
 2728SOL     OW 8767   2.212   0.898   1.804
 2728SOL    HW1 8768   2.288   0.942   1.852
 2728SOL    HW2 8769   2.247   0.851   1.722
 2729SOL     OW 8770   3.402   0.274   0.125
 2729SOL    HW1 8771   3.341   0.199   0.148
 2729SOL    HW2 8772   3.424   0.326   0.208
 2730SOL     OW 8773   3.165   0.838   0.042
 2730SOL    HW1 8774   3.199   0.745   0.057
 2730SOL    HW2 8775   3.183   0.865  -0.053
 2731SOL     OW 8776   2.930   1.333   0.849
 2731SOL    HW1 8777   2.937   1.249   0.794
 2731SOL    HW2 8778   2.992   1.402   0.813
 2732SOL     OW 8779   2.181   0.810   0.949
 2732SOL    HW1 8780   2.274   0.846   0.954
 2732SOL    HW2 8781   2.175   0.725   1.001
 2733SOL     OW 8782   2.201   0.509   1.006
 2733SOL    HW1 8783   2.149   0.426   0.989
 2733SOL    HW2 8784   2.278   0.514   0.942
 2734SOL     OW 8785   3.000   0.380   1.678
 2734SOL    HW1 8786   2.955   0.443   1.742
 2734SOL    HW2 8787   3.093   0.411   1.661
 2735SOL     OW 8788   3.022   0.207   1.477
 2735SOL    HW1 8789   3.022   0.271   1.554
 2735SOL    HW2 8790   3.050   0.255   1.394
 2736SOL     OW 8791   1.870   1.326   0.200
 2736SOL    HW1 8792   1.777   1.347   0.169
 2736SOL    HW2 8793   1.880   1.227   0.213
 2737SOL     OW 8794   1.950   1.801   0.927
 2737SOL    HW1 8795   1.908   1.715   0.900
 2737SOL    HW2 8796   2.044   1.804   0.893
 2738SOL     OW 8797   2.366   1.568   0.910
 2738SOL    HW1 8798   2.432   1.642   0.919
 2738SOL    HW2 8799   2.410   1.489   0.868
 2739SOL     OW 8800   2.864   0.796   1.238
 2739SOL    HW1 8801   2.905   0.764   1.324
 2739SOL    HW2 8802   2.768   0.769   1.235
 2740SOL     OW 8803   1.902   0.544   1.114
 2740SOL    HW1 8804   1.987   0.511   1.073
 2740SOL    HW2 8805   1.915   0.559   1.212
 2741SOL     OW 8806   2.051   0.520   1.722
 2741SOL    HW1 8807   2.110   0.480   1.652
 2741SOL    HW2 8808   1.993   0.591   1.681
 2742SOL     OW 8809   3.231   0.950   1.660
 2742SOL    HW1 8810   3.270   1.039   1.680
 2742SOL    HW2 8811   3.241   0.930   1.563
 2743SOL     OW 8812   2.677   0.572   0.325
 2743SOL    HW1 8813   2.684   0.483   0.279
 2743SOL    HW2 8814   2.583   0.606   0.317
 2744SOL     OW 8815   3.519   0.604   1.206
 2744SOL    HW1 8816   3.481   0.535   1.268
 2744SOL    HW2 8817   3.601   0.568   1.162
 2745SOL     OW 8818   2.114   1.564   1.744
 2745SOL    HW1 8819   2.084   1.621   1.820
 2745SOL    HW2 8820   2.107   1.467   1.770
 2746SOL     OW 8821   2.533   0.464   1.269
 2746SOL    HW1 8822   2.499   0.375   1.239
 2746SOL    HW2 8823   2.559   0.518   1.189
 2747SOL     OW 8824   2.792   1.678   1.465
 2747SOL    HW1 8825   2.768   1.660   1.370
 2747SOL    HW2 8826   2.822   1.772   1.475
 2748SOL     OW 8827   2.335   0.500   0.191
 2748SOL    HW1 8828   2.396   0.580   0.195
 2748SOL    HW2 8829   2.240   0.531   0.198
 2749SOL     OW 8830   2.021   1.137   1.466
 2749SOL    HW1 8831   2.043   1.076   1.542
 2749SOL    HW2 8832   2.031   1.088   1.380
 2750SOL     OW 8833   3.209   1.059   1.234
 2750SOL    HW1 8834   3.233   0.996   1.160
 2750SOL    HW2 8835   3.119   1.099   1.216
 2751SOL     OW 8836   3.164   0.855   0.309
 2751SOL    HW1 8837   3.078   0.824   0.351
 2751SOL    HW2 8838   3.160   0.841   0.210
 2752SOL     OW 8839   3.621   1.747   1.154
 2752SOL    HW1 8840   3.682   1.777   1.081
 2752SOL    HW2 8841   3.583   1.658   1.132
 2753SOL     OW 8842   3.114   1.731   1.128
 2753SOL    HW1 8843   3.198   1.736   1.074
 2753SOL    HW2 8844   3.091   1.635   1.146
 2754SOL     OW 8845   1.945   1.258   1.022
 2754SOL    HW1 8846   1.940   1.257   1.122
 2754SOL    HW2 8847   1.862   1.217   0.984
 2755SOL     OW 8848   2.550   1.662   1.716
 2755SOL    HW1 8849   2.494   1.743   1.725
 2755SOL    HW2 8850   2.602   1.666   1.630
 2756SOL     OW 8851   2.765   0.086   0.133
 2756SOL    HW1 8852   2.816   0.087   0.047
 2756SOL    HW2 8853   2.821   0.044   0.204
 2757SOL     OW 8854   3.588   0.135   0.523
 2757SOL    HW1 8855   3.661   0.118   0.456
 2757SOL    HW2 8856   3.557   0.048   0.561
 2758SOL     OW 8857   3.250   1.573   0.477
 2758SOL    HW1 8858   3.317   1.585   0.403
 2758SOL    HW2 8859   3.210   1.662   0.500
 2759SOL     OW 8860   1.992   1.794   1.851
 2759SOL    HW1 8861   1.951   1.720   1.904
 2759SOL    HW2 8862   2.056   1.845   1.909
 2760SOL     OW 8863   3.142   0.927   0.672
 2760SOL    HW1 8864   3.202   0.846   0.674
 2760SOL    HW2 8865   3.182   0.996   0.612
 2761SOL     OW 8866   2.692   1.273   1.422
 2761SOL    HW1 8867   2.687   1.306   1.517
 2761SOL    HW2 8868   2.606   1.292   1.376
 2762SOL     OW 8869   2.534   1.616   0.154
 2762SOL    HW1 8870   2.543   1.626   0.055
 2762SOL    HW2 8871   2.494   1.527   0.175
 2763SOL     OW 8872   3.512   1.720   1.394
 2763SOL    HW1 8873   3.565   1.730   1.310
 2763SOL    HW2 8874   3.485   1.810   1.428
 2764SOL     OW 8875   3.703   0.175   0.963
 2764SOL    HW1 8876   3.742   0.090   0.927
 2764SOL    HW2 8877   3.605   0.177   0.944
 2765SOL     OW 8878   2.125   0.326   0.720
 2765SOL    HW1 8879   2.046   0.377   0.686
 2765SOL    HW2 8880   2.116   0.311   0.818
 2766SOL     OW 8881   3.056   1.612   0.031
 2766SOL    HW1 8882   3.062   1.519   0.068
 2766SOL    HW2 8883   2.997   1.612  -0.049
 2767SOL     OW 8884   2.684   1.002   1.372
 2767SOL    HW1 8885   2.724   1.001   1.280
 2767SOL    HW2 8886   2.694   1.094   1.412
 2768SOL     OW 8887   2.778   0.910   0.291
 2768SOL    HW1 8888   2.841   0.948   0.223
 2768SOL    HW2 8889   2.818   0.827   0.330
 2769SOL     OW 8890   3.366   1.607   0.044
 2769SOL    HW1 8891   3.274   1.644   0.051
 2769SOL    HW2 8892   3.404   1.627  -0.046
 2770SOL     OW 8893   2.234   1.288   1.490
 2770SOL    HW1 8894   2.221   1.381   1.456
 2770SOL    HW2 8895   2.150   1.236   1.477
 2771SOL     OW 8896   3.476   1.292   1.289
 2771SOL    HW1 8897   3.536   1.295   1.369
 2771SOL    HW2 8898   3.401   1.356   1.302
 2772SOL     OW 8899   2.901   1.098   0.696
 2772SOL    HW1 8900   2.831   1.051   0.750
 2772SOL    HW2 8901   2.960   1.030   0.653
 2773SOL     OW 8902   2.876   0.236   0.971
 2773SOL    HW1 8903   2.868   0.200   0.878
 2773SOL    HW2 8904   2.874   0.160   1.036
 2774SOL     OW 8905   2.452   1.487   0.491
 2774SOL    HW1 8906   2.494   1.429   0.421
 2774SOL    HW2 8907   2.408   1.566   0.447
 2775SOL     OW 8908   3.571   0.385   1.381
 2775SOL    HW1 8909   3.644   0.454   1.385
 2775SOL    HW2 8910   3.599   0.310   1.322
 2776SOL     OW 8911   2.117   1.348   0.290
 2776SOL    HW1 8912   2.021   1.349   0.263
 2776SOL    HW2 8913   2.129   1.401   0.374
 2777SOL     OW 8914   1.967   1.013   1.726
 2777SOL    HW1 8915   1.890   0.980   1.780
 2777SOL    HW2 8916   2.052   0.983   1.768
 2778SOL     OW 8917   2.534   0.203   1.489
 2778SOL    HW1 8918   2.624   0.187   1.449
 2778SOL    HW2 8919   2.542   0.208   1.588
 2779SOL     OW 8920   1.937   0.345   0.033
 2779SOL    HW1 8921   1.845   0.317   0.004
 2779SOL    HW2 8922   1.968   0.422  -0.023
 2780SOL     OW 8923   3.302   0.856   1.398
 2780SOL    HW1 8924   3.245   0.908   1.335
 2780SOL    HW2 8925   3.398   0.868   1.374
 2781SOL     OW 8926   1.934   0.166   0.318
 2781SOL    HW1 8927   1.917   0.249   0.264
 2781SOL    HW2 8928   2.024   0.129   0.296
 2782SOL     OW 8929   3.045   1.335   0.119
 2782SOL    HW1 8930   2.946   1.324   0.121
 2782SOL    HW2 8931   3.079   1.350   0.212
 2783SOL     OW 8932   2.475   0.842   1.431
 2783SOL    HW1 8933   2.531   0.923   1.414
 2783SOL    HW2 8934   2.534   0.762   1.434
 2784SOL     OW 8935   3.355   1.767   0.959
 2784SOL    HW1 8936   3.388   1.831   0.890
 2784SOL    HW2 8937   3.421   1.761   1.034
 2785SOL     OW 8938   2.578   0.565   1.708
 2785SOL    HW1 8939   2.597   0.630   1.782
 2785SOL    HW2 8940   2.638   0.485   1.717
 2786SOL     OW 8941   3.312   1.220   1.633
 2786SOL    HW1 8942   3.303   1.210   1.732
 2786SOL    HW2 8943   3.408   1.213   1.607
 2787SOL     OW 8944   2.252   1.741   1.560
 2787SOL    HW1 8945   2.161   1.782   1.558
 2787SOL    HW2 8946   2.245   1.647   1.592
 2788SOL     OW 8947   3.536   0.883   1.254
 2788SOL    HW1 8948   3.509   0.794   1.217
 2788SOL    HW2 8949   3.537   0.951   1.181
 2789SOL     OW 8950   3.087   0.325   0.449
 2789SOL    HW1 8951   3.152   0.251   0.438
 2789SOL    HW2 8952   3.107   0.375   0.533
 2790SOL     OW 8953   2.456   0.745   0.652
 2790SOL    HW1 8954   2.506   0.830   0.633
 2790SOL    HW2 8955   2.368   0.747   0.604
 2791SOL     OW 8956   3.639   0.342   1.642
 2791SOL    HW1 8957   3.622   0.373   1.548
 2791SOL    HW2 8958   3.555   0.305   1.680
 2792SOL     OW 8959   3.592   0.934   1.517
 2792SOL    HW1 8960   3.630   1.025   1.532
 2792SOL    HW2 8961   3.584   0.917   1.418
 2793SOL     OW 8962   2.721   1.374   0.016
 2793SOL    HW1 8963   2.675   1.389   0.104
 2793SOL    HW2 8964   2.765   1.459  -0.014
 2794SOL     OW 8965   2.523   1.790   0.953
 2794SOL    HW1 8966   2.477   1.878   0.940
 2794SOL    HW2 8967   2.622   1.802   0.946
 2795SOL     OW 8968   2.721   0.956   0.861
 2795SOL    HW1 8969   2.775   0.887   0.909
 2795SOL    HW2 8970   2.689   1.025   0.927
 2796SOL     OW 8971   2.945   0.984   0.087
 2796SOL    HW1 8972   2.922   1.037   0.005
 2796SOL    HW2 8973   3.026   0.928   0.068
 2797SOL     OW 8974   3.723   1.569   0.851
 2797SOL    HW1 8975   3.652   1.557   0.781
 2797SOL    HW2 8976   3.724   1.490   0.911
 2798SOL     OW 8977   2.083   1.314   1.844
 2798SOL    HW1 8978   2.018   1.241   1.823
 2798SOL    HW2 8979   2.087   1.328   1.942
 2799SOL     OW 8980   1.941   1.240   0.653
 2799SOL    HW1 8981   1.940   1.193   0.741
 2799SOL    HW2 8982   2.023   1.212   0.602
 2800SOL     OW 8983   2.534   1.391   1.624
 2800SOL    HW1 8984   2.456   1.341   1.662
 2800SOL    HW2 8985   2.531   1.486   1.655
 2801SOL     OW 8986   3.686   0.192   1.227
 2801SOL    HW1 8987   3.682   0.102   1.271
 2801SOL    HW2 8988   3.689   0.181   1.128
 2802SOL     OW 8989   2.290   0.424   0.520
 2802SOL    HW1 8990   2.320   0.352   0.458
 2802SOL    HW2 8991   2.251   0.384   0.603
 2803SOL     OW 8992   3.567   1.487   1.104
 2803SOL    HW1 8993   3.474   1.462   1.077
 2803SOL    HW2 8994   3.593   1.437   1.186
 2804SOL     OW 8995   2.179   0.547   1.280
 2804SOL    HW1 8996   2.217   0.488   1.352
 2804SOL    HW2 8997   2.219   0.521   1.192
 2805SOL     OW 8998   2.674   1.586   0.687
 2805SOL    HW1 8999   2.706   1.596   0.593
 2805SOL    HW2 9000   2.595   1.524   0.689
 2806SOL     OW 9001   3.286   0.214   1.112
 2806SOL    HW1 9002   3.338   0.149   1.167
 2806SOL    HW2 9003   3.237   0.277   1.173
 2807SOL     OW 9004   2.863   0.034   1.154
 2807SOL    HW1 9005   2.800  -0.038   1.123
 2807SOL    HW2 9006   2.956  -0.002   1.154
 2808SOL     OW 9007   2.632   1.330   0.301
 2808SOL    HW1 9008   2.586   1.243   0.318
 2808SOL    HW2 9009   2.723   1.327   0.342
 2809SOL     OW 9010   2.480   1.567   1.284
 2809SOL    HW1 9011   2.475   1.649   1.341
 2809SOL    HW2 9012   2.569   1.564   1.239
 2810SOL     OW 9013   3.214   0.052   0.168
 2810SOL    HW1 9014   3.249   0.011   0.084
 2810SOL    HW2 9015   3.124   0.014   0.188
 2811SOL     OW 9016   3.162   0.453   0.691
 2811SOL    HW1 9017   3.103   0.533   0.695
 2811SOL    HW2 9018   3.177   0.418   0.784
 2812SOL     OW 9019   3.455   0.221   0.882
 2812SOL    HW1 9020   3.371   0.220   0.936
 2812SOL    HW2 9021   3.457   0.304   0.826
 2813SOL     OW 9022   1.901   1.077   0.300
 2813SOL    HW1 9023   2.000   1.066   0.291
 2813SOL    HW2 9024   1.861   0.991   0.332
 2814SOL     OW 9025   2.737   1.646   0.337
 2814SOL    HW1 9026   2.660   1.611   0.283
 2814SOL    HW2 9027   2.705   1.717   0.399
 2815SOL     OW 9028   2.092   0.628   1.975
 2815SOL    HW1 9029   1.999   0.626   2.012
 2815SOL    HW2 9030   2.093   0.589   1.883
 2816SOL     OW 9031   2.087   0.275   2.858
 2816SOL    HW1 9032   2.122   0.258   2.950
 2816SOL    HW2 9033   1.999   0.230   2.846
 2817SOL     OW 9034   1.881   0.368   2.509
 2817SOL    HW1 9035   1.799   0.411   2.548
 2817SOL    HW2 9036   1.853   0.295   2.446
 2818SOL     OW 9037   2.431   1.275   3.027
 2818SOL    HW1 9038   2.338   1.268   2.990
 2818SOL    HW2 9039   2.442   1.364   3.071
 2819SOL     OW 9040   3.417   1.511   2.565
 2819SOL    HW1 9041   3.360   1.495   2.646
 2819SOL    HW2 9042   3.358   1.521   2.485
 2820SOL     OW 9043   2.997   0.703   2.579
 2820SOL    HW1 9044   3.054   0.781   2.554
 2820SOL    HW2 9045   2.937   0.729   2.655
 2821SOL     OW 9046   3.617   0.607   2.093
 2821SOL    HW1 9047   3.605   0.594   1.994
 2821SOL    HW2 9048   3.587   0.526   2.142
 2822SOL     OW 9049   2.630   1.144   2.885
 2822SOL    HW1 9050   2.552   1.161   2.945
 2822SOL    HW2 9051   2.664   1.231   2.849
 2823SOL     OW 9052   2.712   0.798   3.685
 2823SOL    HW1 9053   2.708   0.874   3.750
 2823SOL    HW2 9054   2.734   0.834   3.594
 2824SOL     OW 9055   2.547   1.012   2.527
 2824SOL    HW1 9056   2.616   0.996   2.597
 2824SOL    HW2 9057   2.474   1.069   2.565
 2825SOL     OW 9058   2.548   1.161   3.665
 2825SOL    HW1 9059   2.608   1.240   3.679
 2825SOL    HW2 9060   2.462   1.192   3.624
 2826SOL     OW 9061   2.197   1.435   2.923
 2826SOL    HW1 9062   2.119   1.404   2.870
 2826SOL    HW2 9063   2.255   1.493   2.866
 2827SOL     OW 9064   3.322   1.505   3.201
 2827SOL    HW1 9065   3.346   1.599   3.227
 2827SOL    HW2 9066   3.306   1.451   3.283
 2828SOL     OW 9067   2.300   0.392   3.361
 2828SOL    HW1 9068   2.382   0.336   3.370
 2828SOL    HW2 9069   2.219   0.334   3.365
 2829SOL     OW 9070   3.465   0.447   2.599
 2829SOL    HW1 9071   3.391   0.493   2.549
 2829SOL    HW2 9072   3.516   0.515   2.652
 2830SOL     OW 9073   2.093   1.713   2.345
 2830SOL    HW1 9074   2.127   1.790   2.399
 2830SOL    HW2 9075   2.137   1.713   2.255
 2831SOL     OW 9076   2.989   1.341   3.552
 2831SOL    HW1 9077   3.036   1.341   3.640
 2831SOL    HW2 9078   2.941   1.254   3.541
 2832SOL     OW 9079   2.092   1.434   2.400
 2832SOL    HW1 9080   2.066   1.530   2.400
 2832SOL    HW2 9081   2.021   1.380   2.445
 2833SOL     OW 9082   2.102   1.091   2.748
 2833SOL    HW1 9083   2.116   1.007   2.800
 2833SOL    HW2 9084   2.047   1.155   2.803
 2834SOL     OW 9085   2.482   1.786   3.301
 2834SOL    HW1 9086   2.390   1.769   3.336
 2834SOL    HW2 9087   2.510   1.878   3.327
 2835SOL     OW 9088   2.468   0.964   1.985
 2835SOL    HW1 9089   2.475   1.048   1.931
 2835SOL    HW2 9090   2.514   0.977   2.073
 2836SOL     OW 9091   3.456   0.114   3.342
 2836SOL    HW1 9092   3.438   0.181   3.270
 2836SOL    HW2 9093   3.453   0.160   3.431
 2837SOL     OW 9094   1.984   0.643   2.425
 2837SOL    HW1 9095   1.939   0.555   2.442
 2837SOL    HW2 9096   1.983   0.697   2.509
 2838SOL     OW 9097   3.704   1.767   2.221
 2838SOL    HW1 9098   3.758   1.738   2.301
 2838SOL    HW2 9099   3.734   1.857   2.192
 2839SOL     OW 9100   1.889   1.596   1.979
 2839SOL    HW1 9101   1.870   1.500   2.000
 2839SOL    HW2 9102   1.856   1.654   2.054
 2840SOL     OW 9103   3.551   0.922   2.474
 2840SOL    HW1 9104   3.646   0.893   2.482
 2840SOL    HW2 9105   3.543   0.987   2.399
 2841SOL     OW 9106   3.503   1.108   2.294
 2841SOL    HW1 9107   3.589   1.110   2.242
 2841SOL    HW2 9108   3.517   1.155   2.382
 2842SOL     OW 9109   1.975   0.737   3.459
 2842SOL    HW1 9110   2.063   0.724   3.504
 2842SOL    HW2 9111   1.962   0.834   3.437
 2843SOL     OW 9112   2.475   1.365   2.588
 2843SOL    HW1 9113   2.426   1.278   2.597
 2843SOL    HW2 9114   2.452   1.408   2.501
 2844SOL     OW 9115   3.155   1.228   3.285
 2844SOL    HW1 9116   3.192   1.155   3.227
 2844SOL    HW2 9117   3.207   1.233   3.370
 2845SOL     OW 9118   2.671   0.004   2.364
 2845SOL    HW1 9119   2.711   0.095   2.355
 2845SOL    HW2 9120   2.571   0.012   2.370
 2846SOL     OW 9121   2.059   0.976   3.126
 2846SOL    HW1 9122   2.148   0.931   3.112
 2846SOL    HW2 9123   1.986   0.911   3.107
 2847SOL     OW 9124   3.387   0.999   2.052
 2847SOL    HW1 9125   3.324   0.923   2.065
 2847SOL    HW2 9126   3.435   1.017   2.138
 2848SOL     OW 9127   3.049   1.792   3.478
 2848SOL    HW1 9128   3.073   1.852   3.402
 2848SOL    HW2 9129   3.056   1.697   3.448
 2849SOL     OW 9130   2.179   0.251   3.663
 2849SOL    HW1 9131   2.250   0.322   3.669
 2849SOL    HW2 9132   2.091   0.290   3.691
 2850SOL     OW 9133   3.328   1.417   2.815
 2850SOL    HW1 9134   3.269   1.423   2.895
 2850SOL    HW2 9135   3.313   1.329   2.769
 2851SOL     OW 9136   3.529   1.714   2.434
 2851SOL    HW1 9137   3.488   1.691   2.346
 2851SOL    HW2 9138   3.511   1.640   2.499
 2852SOL     OW 9139   2.460   0.729   2.132
 2852SOL    HW1 9140   2.484   0.798   2.064
 2852SOL    HW2 9141   2.382   0.762   2.186
 2853SOL     OW 9142   3.143   0.345   2.806
 2853SOL    HW1 9143   3.057   0.295   2.793
 2853SOL    HW2 9144   3.205   0.291   2.862
 2854SOL     OW 9145   3.438   1.662   2.169
 2854SOL    HW1 9146   3.527   1.708   2.172
 2854SOL    HW2 9147   3.417   1.638   2.074
 2855SOL     OW 9148   2.669   0.605   3.327
 2855SOL    HW1 9149   2.622   0.602   3.416
 2855SOL    HW2 9150   2.618   0.550   3.261
 2856SOL     OW 9151   3.256   0.469   3.536
 2856SOL    HW1 9152   3.236   0.512   3.624
 2856SOL    HW2 9153   3.334   0.407   3.545
 2857SOL     OW 9154   2.835   0.890   3.434
 2857SOL    HW1 9155   2.881   0.806   3.405
 2857SOL    HW2 9156   2.779   0.924   3.359
 2858SOL     OW 9157   2.853   0.410   3.104
 2858SOL    HW1 9158   2.776   0.444   3.158
 2858SOL    HW2 9159   2.819   0.359   3.025
 2859SOL     OW 9160   2.903   0.701   2.291
 2859SOL    HW1 9161   2.929   0.697   2.387
 2859SOL    HW2 9162   2.818   0.650   2.277
 2860SOL     OW 9163   1.938   0.811   2.651
 2860SOL    HW1 9164   2.037   0.799   2.660
 2860SOL    HW2 9165   1.914   0.906   2.672
 2861SOL     OW 9166   1.992   1.821   3.433
 2861SOL    HW1 9167   1.982   1.806   3.532
 2861SOL    HW2 9168   1.906   1.857   3.397
 2862SOL     OW 9169   2.727   0.348   2.057
 2862SOL    HW1 9170   2.786   0.411   2.008
 2862SOL    HW2 9171   2.746   0.254   2.028
 2863SOL     OW 9172   3.581   0.585   3.693
 2863SOL    HW1 9173   3.555   0.674   3.657
 2863SOL    HW2 9174   3.579   0.517   3.620
 2864SOL     OW 9175   3.224   1.144   2.407
 2864SOL    HW1 9176   3.307   1.115   2.359
 2864SOL    HW2 9177   3.175   1.211   2.351
 2865SOL     OW 9178   2.412   0.196   2.747
 2865SOL    HW1 9179   2.407   0.191   2.847
 2865SOL    HW2 9180   2.414   0.292   2.718
 2866SOL     OW 9181   2.870   1.456   2.339
 2866SOL    HW1 9182   2.824   1.528   2.287
 2866SOL    HW2 9183   2.866   1.476   2.437
 2867SOL     OW 9184   2.213   1.801   2.715
 2867SOL    HW1 9185   2.263   1.715   2.721
 2867SOL    HW2 9186   2.278   1.878   2.712
 2868SOL     OW 9187   3.657   1.066   2.735
 2868SOL    HW1 9188   3.595   1.051   2.659
 2868SOL    HW2 9189   3.605   1.077   2.820
 2869SOL     OW 9190   3.089   1.550   3.368
 2869SOL    HW1 9191   3.095   1.473   3.432
 2869SOL    HW2 9192   3.037   1.524   3.288
 2870SOL     OW 9193   2.183   0.943   2.104
 2870SOL    HW1 9194   2.265   0.982   2.062
 2870SOL    HW2 9195   2.156   0.861   2.055
 2871SOL     OW 9196   3.320   0.735   2.590
 2871SOL    HW1 9197   3.315   0.670   2.665
 2871SOL    HW2 9198   3.400   0.794   2.603
 2872SOL     OW 9199   2.323   1.266   3.589
 2872SOL    HW1 9200   2.273   1.267   3.503
 2872SOL    HW2 9201   2.260   1.248   3.665
 2873SOL     OW 9202   2.973   1.776   2.099
 2873SOL    HW1 9203   2.913   1.714   2.149
 2873SOL    HW2 9204   3.004   1.732   2.014
 2874SOL     OW 9205   2.064   0.285   3.360
 2874SOL    HW1 9206   1.984   0.345   3.347
 2874SOL    HW2 9207   2.054   0.236   3.446
 2875SOL     OW 9208   3.494   1.377   1.943
 2875SOL    HW1 9209   3.462   1.471   1.933
 2875SOL    HW2 9210   3.418   1.314   1.931
 2876SOL     OW 9211   2.326   1.743   2.185
 2876SOL    HW1 9212   2.359   1.782   2.271
 2876SOL    HW2 9213   2.402   1.736   2.120
 2877SOL     OW 9214   3.262   0.107   2.288
 2877SOL    HW1 9215   3.238   0.070   2.198
 2877SOL    HW2 9216   3.361   0.123   2.292
 2878SOL     OW 9217   2.111   1.785   3.103
 2878SOL    HW1 9218   2.168   1.720   3.153
 2878SOL    HW2 9219   2.095   1.752   3.010
 2879SOL     OW 9220   2.802   1.698   2.766
 2879SOL    HW1 9221   2.882   1.641   2.787
 2879SOL    HW2 9222   2.753   1.658   2.689
 2880SOL     OW 9223   2.244   0.700   2.342
 2880SOL    HW1 9224   2.289   0.610   2.339
 2880SOL    HW2 9225   2.150   0.689   2.375
 2881SOL     OW 9226   3.409   0.222   3.591
 2881SOL    HW1 9227   3.404   0.259   3.683
 2881SOL    HW2 9228   3.337   0.153   3.579
 2882SOL     OW 9229   2.476   0.122   1.979
 2882SOL    HW1 9230   2.574   0.100   1.986
 2882SOL    HW2 9231   2.445   0.105   1.886
 2883SOL     OW 9232   2.643   0.264   3.611
 2883SOL    HW1 9233   2.710   0.203   3.654
 2883SOL    HW2 9234   2.570   0.283   3.676
 2884SOL     OW 9235   2.750   1.514   3.057
 2884SOL    HW1 9236   2.727   1.489   2.963
 2884SOL    HW2 9237   2.811   1.445   3.096
 2885SOL     OW 9238   3.213   0.590   3.295
 2885SOL    HW1 9239   3.241   0.547   3.380
 2885SOL    HW2 9240   3.238   0.686   3.296
 2886SOL     OW 9241   2.665   1.402   2.786
 2886SOL    HW1 9242   2.755   1.416   2.744
 2886SOL    HW2 9243   2.594   1.404   2.715
 2887SOL     OW 9244   2.784   0.503   2.761
 2887SOL    HW1 9245   2.759   0.494   2.665
 2887SOL    HW2 9246   2.832   0.421   2.792
 2888SOL     OW 9247   2.401   0.064   2.374
 2888SOL    HW1 9248   2.320   0.065   2.432
 2888SOL    HW2 9249   2.404   0.147   2.319
 2889SOL     OW 9250   3.296   1.188   1.903
 2889SOL    HW1 9251   3.328   1.112   1.960
 2889SOL    HW2 9252   3.204   1.215   1.933
 2890SOL     OW 9253   2.159   0.035   2.033
 2890SOL    HW1 9254   2.208   0.119   2.012
 2890SOL    HW2 9255   2.221  -0.030   2.078
 2891SOL     OW 9256   2.797   0.236   2.342
 2891SOL    HW1 9257   2.749   0.277   2.264
 2891SOL    HW2 9258   2.896   0.234   2.323
 2892SOL     OW 9259   2.938   0.683   3.326
 2892SOL    HW1 9260   2.858   0.622   3.329
 2892SOL    HW2 9261   3.019   0.630   3.302
 2893SOL     OW 9262   3.089   1.570   2.655
 2893SOL    HW1 9263   3.110   1.644   2.590
 2893SOL    HW2 9264   3.157   1.570   2.728
 2894SOL     OW 9265   2.321   1.152   2.603
 2894SOL    HW1 9266   2.250   1.125   2.668
 2894SOL    HW2 9267   2.295   1.124   2.510
 2895SOL     OW 9268   3.133   1.797   2.453
 2895SOL    HW1 9269   3.177   1.861   2.389
 2895SOL    HW2 9270   3.083   1.849   2.523
 2896SOL     OW 9271   2.894   0.549   1.878
 2896SOL    HW1 9272   2.853   0.631   1.839
 2896SOL    HW2 9273   2.958   0.575   1.951
 2897SOL     OW 9274   1.940   0.556   3.248
 2897SOL    HW1 9275   2.032   0.555   3.207
 2897SOL    HW2 9276   1.934   0.630   3.315
 2898SOL     OW 9277   2.423   0.222   3.009
 2898SOL    HW1 9278   2.461   0.138   3.046
 2898SOL    HW2 9279   2.335   0.241   3.053
 2899SOL     OW 9280   2.728   0.454   2.504
 2899SOL    HW1 9281   2.696   0.526   2.442
 2899SOL    HW2 9282   2.752   0.373   2.451
 2900SOL     OW 9283   2.879   0.039   2.615
 2900SOL    HW1 9284   2.807   0.044   2.546
 2900SOL    HW2 9285   2.855  -0.030   2.684
 2901SOL     OW 9286   3.291   1.173   2.729
 2901SOL    HW1 9287   3.236   1.089   2.722
 2901SOL    HW2 9288   3.317   1.202   2.637
 2902SOL     OW 9289   3.328   0.590   2.854
 2902SOL    HW1 9290   3.298   0.495   2.861
 2902SOL    HW2 9291   3.401   0.606   2.920
 2903SOL     OW 9292   3.719   0.833   2.239
 2903SOL    HW1 9293   3.761   0.769   2.303
 2903SOL    HW2 9294   3.681   0.782   2.161
 2904SOL     OW 9295   2.350   1.385   2.036
 2904SOL    HW1 9296   2.263   1.370   2.083
 2904SOL    HW2 9297   2.333   1.411   1.941
 2905SOL     OW 9298   3.526   1.280   2.519
 2905SOL    HW1 9299   3.625   1.288   2.533
 2905SOL    HW2 9300   3.481   1.364   2.550
 2906SOL     OW 9301   3.252   0.575   1.940
 2906SOL    HW1 9302   3.198   0.554   2.021
 2906SOL    HW2 9303   3.343   0.534   1.949
 2907SOL     OW 9304   2.389   0.256   2.190
 2907SOL    HW1 9305   2.416   0.197   2.115
 2907SOL    HW2 9306   2.389   0.351   2.159
 2908SOL     OW 9307   3.616   1.223   3.450
 2908SOL    HW1 9308   3.707   1.184   3.437
 2908SOL    HW2 9309   3.624   1.319   3.474
 2909SOL     OW 9310   2.926   1.347   3.202
 2909SOL    HW1 9311   2.846   1.324   3.257
 2909SOL    HW2 9312   3.009   1.321   3.251
 2910SOL     OW 9313   3.454   1.629   3.487
 2910SOL    HW1 9314   3.481   1.663   3.397
 2910SOL    HW2 9315   3.533   1.591   3.533
 2911SOL     OW 9316   2.973   1.195   2.962
 2911SOL    HW1 9317   2.933   1.239   3.043
 2911SOL    HW2 9318   2.932   1.232   2.879
 2912SOL     OW 9319   3.500   1.099   2.941
 2912SOL    HW1 9320   3.505   1.180   3.000
 2912SOL    HW2 9321   3.414   1.101   2.890
 2913SOL     OW 9322   2.777   0.089   3.264
 2913SOL    HW1 9323   2.802   0.069   3.169
 2913SOL    HW2 9324   2.849   0.145   3.306
 2914SOL     OW 9325   2.842   1.116   3.581
 2914SOL    HW1 9326   2.743   1.122   3.591
 2914SOL    HW2 9327   2.865   1.036   3.525
 2915SOL     OW 9328   2.567   1.050   2.230
 2915SOL    HW1 9329   2.553   1.057   2.329
 2915SOL    HW2 9330   2.651   0.999   2.212
 2916SOL     OW 9331   2.272   0.813   3.113
 2916SOL    HW1 9332   2.358   0.825   3.163
 2916SOL    HW2 9333   2.230   0.726   3.140
 2917SOL     OW 9334   3.136   0.386   3.124
 2917SOL    HW1 9335   3.157   0.460   3.188
 2917SOL    HW2 9336   3.047   0.403   3.081
 2918SOL     OW 9337   1.926   1.564   3.193
 2918SOL    HW1 9338   1.880   1.646   3.159
 2918SOL    HW2 9339   2.024   1.583   3.202
 2919SOL     OW 9340   2.229   1.100   2.363
 2919SOL    HW1 9341   2.222   1.183   2.307
 2919SOL    HW2 9342   2.233   1.020   2.303
 2920SOL     OW 9343   2.428   0.537   2.727
 2920SOL    HW1 9344   2.440   0.603   2.653
 2920SOL    HW2 9345   2.474   0.571   2.810
 2921SOL     OW 9346   3.114   1.348   2.250
 2921SOL    HW1 9347   3.164   1.425   2.290
 2921SOL    HW2 9348   3.019   1.350   2.282
 2922SOL     OW 9349   3.134   1.445   3.004
 2922SOL    HW1 9350   3.181   1.458   3.091
 2922SOL    HW2 9351   3.068   1.371   3.013
 2923SOL     OW 9352   3.444   0.639   2.334
 2923SOL    HW1 9353   3.413   0.700   2.407
 2923SOL    HW2 9354   3.494   0.691   2.265
 2924SOL     OW 9355   2.216   1.510   3.191
 2924SOL    HW1 9356   2.195   1.466   3.104
 2924SOL    HW2 9357   2.313   1.536   3.194
 2925SOL     OW 9358   2.264   0.751   3.460
 2925SOL    HW1 9359   2.332   0.806   3.413
 2925SOL    HW2 9360   2.304   0.663   3.487
 2926SOL     OW 9361   3.449   0.779   3.532
 2926SOL    HW1 9362   3.357   0.817   3.527
 2926SOL    HW2 9363   3.509   0.826   3.467
 2927SOL     OW 9364   2.875   0.105   3.632
 2927SOL    HW1 9365   2.881   0.190   3.580
 2927SOL    HW2 9366   2.907   0.029   3.575
 2928SOL     OW 9367   2.366   0.050   3.602
 2928SOL    HW1 9368   2.324  -0.007   3.532
 2928SOL    HW2 9369   2.300   0.119   3.634
 2929SOL     OW 9370   2.435   0.870   2.891
 2929SOL    HW1 9371   2.479   0.959   2.882
 2929SOL    HW2 9372   2.372   0.870   2.968
 2930SOL     OW 9373   3.222   0.862   2.907
 2930SOL    HW1 9374   3.147   0.862   2.841
 2930SOL    HW2 9375   3.259   0.770   2.916
 2931SOL     OW 9376   3.071   0.525   2.137
 2931SOL    HW1 9377   3.084   0.441   2.191
 2931SOL    HW2 9378   3.042   0.599   2.197
 2932SOL     OW 9379   2.169   0.213   3.093
 2932SOL    HW1 9380   2.146   0.250   3.183
 2932SOL    HW2 9381   2.139   0.118   3.087
 2933SOL     OW 9382   1.899   1.310   3.144
 2933SOL    HW1 9383   1.952   1.261   3.212
 2933SOL    HW2 9384   1.921   1.408   3.149
 2934SOL     OW 9385   2.594   0.634   2.926
 2934SOL    HW1 9386   2.653   0.608   2.850
 2934SOL    HW2 9387   2.566   0.730   2.915
 2935SOL     OW 9388   3.590   0.935   3.716
 2935SOL    HW1 9389   3.544   0.928   3.627
 2935SOL    HW2 9390   3.528   0.979   3.782
 2936SOL     OW 9391   2.169   0.063   2.480
 2936SOL    HW1 9392   2.158   0.157   2.513
 2936SOL    HW2 9393   2.164   0.000   2.557
 2937SOL     OW 9394   3.484   0.367   2.236
 2937SOL    HW1 9395   3.486   0.291   2.300
 2937SOL    HW2 9396   3.436   0.444   2.276
 2938SOL     OW 9397   2.885   0.766   2.828
 2938SOL    HW1 9398   2.900   0.787   2.924
 2938SOL    HW2 9399   2.855   0.671   2.819
 2939SOL     OW 9400   2.842   1.573   3.562
 2939SOL    HW1 9401   2.822   1.617   3.474
 2939SOL    HW2 9402   2.881   1.482   3.546
 2940SOL     OW 9403   3.721   1.518   3.467
 2940SOL    HW1 9404   3.735   1.545   3.372
 2940SOL    HW2 9405   3.804   1.540   3.520
 2941SOL     OW 9406   2.212   0.898   3.666
 2941SOL    HW1 9407   2.288   0.942   3.714
 2941SOL    HW2 9408   2.247   0.851   3.584
 2942SOL     OW 9409   3.402   0.274   1.987
 2942SOL    HW1 9410   3.341   0.199   2.010
 2942SOL    HW2 9411   3.424   0.326   2.070
 2943SOL     OW 9412   3.165   0.838   1.904
 2943SOL    HW1 9413   3.199   0.745   1.919
 2943SOL    HW2 9414   3.183   0.865   1.809
 2944SOL     OW 9415   2.930   1.333   2.711
 2944SOL    HW1 9416   2.937   1.249   2.656
 2944SOL    HW2 9417   2.992   1.402   2.675
 2945SOL     OW 9418   2.181   0.810   2.811
 2945SOL    HW1 9419   2.274   0.846   2.816
 2945SOL    HW2 9420   2.175   0.725   2.863
 2946SOL     OW 9421   2.201   0.509   2.868
 2946SOL    HW1 9422   2.149   0.426   2.851
 2946SOL    HW2 9423   2.278   0.514   2.804
 2947SOL     OW 9424   3.000   0.380   3.540
 2947SOL    HW1 9425   2.955   0.443   3.604
 2947SOL    HW2 9426   3.093   0.411   3.523
 2948SOL     OW 9427   3.022   0.207   3.339
 2948SOL    HW1 9428   3.022   0.271   3.416
 2948SOL    HW2 9429   3.050   0.255   3.256
 2949SOL     OW 9430   1.870   1.326   2.062
 2949SOL    HW1 9431   1.777   1.347   2.031
 2949SOL    HW2 9432   1.880   1.227   2.075
 2950SOL     OW 9433   1.950   1.801   2.789
 2950SOL    HW1 9434   1.908   1.715   2.762
 2950SOL    HW2 9435   2.044   1.804   2.755
 2951SOL     OW 9436   2.366   1.568   2.772
 2951SOL    HW1 9437   2.432   1.642   2.781
 2951SOL    HW2 9438   2.410   1.489   2.730
 2952SOL     OW 9439   2.864   0.796   3.100
 2952SOL    HW1 9440   2.905   0.764   3.186
 2952SOL    HW2 9441   2.768   0.769   3.097
 2953SOL     OW 9442   1.902   0.544   2.976
 2953SOL    HW1 9443   1.987   0.511   2.935
 2953SOL    HW2 9444   1.915   0.559   3.074
 2954SOL     OW 9445   2.051   0.520   3.584
 2954SOL    HW1 9446   2.110   0.480   3.514
 2954SOL    HW2 9447   1.993   0.591   3.543
 2955SOL     OW 9448   3.231   0.950   3.522
 2955SOL    HW1 9449   3.270   1.039   3.542
 2955SOL    HW2 9450   3.241   0.930   3.425
 2956SOL     OW 9451   2.677   0.572   2.187
 2956SOL    HW1 9452   2.684   0.483   2.141
 2956SOL    HW2 9453   2.583   0.606   2.179
 2957SOL     OW 9454   3.519   0.604   3.068
 2957SOL    HW1 9455   3.481   0.535   3.130
 2957SOL    HW2 9456   3.601   0.568   3.024
 2958SOL     OW 9457   2.114   1.564   3.606
 2958SOL    HW1 9458   2.084   1.621   3.682
 2958SOL    HW2 9459   2.107   1.467   3.632
 2959SOL     OW 9460   2.533   0.464   3.131
 2959SOL    HW1 9461   2.499   0.375   3.101
 2959SOL    HW2 9462   2.559   0.518   3.051
 2960SOL     OW 9463   2.792   1.678   3.327
 2960SOL    HW1 9464   2.768   1.660   3.232
 2960SOL    HW2 9465   2.822   1.772   3.337
 2961SOL     OW 9466   2.335   0.500   2.053
 2961SOL    HW1 9467   2.396   0.580   2.057
 2961SOL    HW2 9468   2.240   0.531   2.060
 2962SOL     OW 9469   2.021   1.137   3.328
 2962SOL    HW1 9470   2.043   1.076   3.404
 2962SOL    HW2 9471   2.031   1.088   3.242
 2963SOL     OW 9472   3.209   1.059   3.096
 2963SOL    HW1 9473   3.233   0.996   3.022
 2963SOL    HW2 9474   3.119   1.099   3.078
 2964SOL     OW 9475   3.164   0.855   2.171
 2964SOL    HW1 9476   3.078   0.824   2.213
 2964SOL    HW2 9477   3.160   0.841   2.072
 2965SOL     OW 9478   3.621   1.747   3.016
 2965SOL    HW1 9479   3.682   1.777   2.943
 2965SOL    HW2 9480   3.583   1.658   2.994
 2966SOL     OW 9481   3.114   1.731   2.990
 2966SOL    HW1 9482   3.198   1.736   2.936
 2966SOL    HW2 9483   3.091   1.635   3.008
 2967SOL     OW 9484   1.945   1.258   2.884
 2967SOL    HW1 9485   1.940   1.257   2.984
 2967SOL    HW2 9486   1.862   1.217   2.846
 2968SOL     OW 9487   2.550   1.662   3.578
 2968SOL    HW1 9488   2.494   1.743   3.587
 2968SOL    HW2 9489   2.602   1.666   3.492
 2969SOL     OW 9490   3.588   0.135   2.385
 2969SOL    HW1 9491   3.661   0.118   2.318
 2969SOL    HW2 9492   3.557   0.048   2.423
 2970SOL     OW 9493   3.250   1.573   2.339
 2970SOL    HW1 9494   3.317   1.585   2.265
 2970SOL    HW2 9495   3.210   1.662   2.362
 2971SOL     OW 9496   1.992   1.794   3.713
 2971SOL    HW1 9497   1.951   1.720   3.766
 2971SOL    HW2 9498   2.056   1.845   3.771
 2972SOL     OW 9499   3.142   0.927   2.534
 2972SOL    HW1 9500   3.202   0.846   2.536
 2972SOL    HW2 9501   3.182   0.996   2.474
 2973SOL     OW 9502   2.692   1.273   3.284
 2973SOL    HW1 9503   2.687   1.306   3.379
 2973SOL    HW2 9504   2.606   1.292   3.238
 2974SOL     OW 9505   2.534   1.616   2.016
 2974SOL    HW1 9506   2.543   1.626   1.917
 2974SOL    HW2 9507   2.494   1.527   2.037
 2975SOL     OW 9508   3.512   1.720   3.256
 2975SOL    HW1 9509   3.565   1.730   3.172
 2975SOL    HW2 9510   3.485   1.810   3.290
 2976SOL     OW 9511   3.703   0.175   2.825
 2976SOL    HW1 9512   3.742   0.090   2.789
 2976SOL    HW2 9513   3.605   0.177   2.806
 2977SOL     OW 9514   2.125   0.326   2.582
 2977SOL    HW1 9515   2.046   0.377   2.548
 2977SOL    HW2 9516   2.116   0.311   2.680
 2978SOL     OW 9517   3.056   1.612   1.893
 2978SOL    HW1 9518   3.062   1.519   1.930
 2978SOL    HW2 9519   2.997   1.612   1.813
 2979SOL     OW 9520   2.684   1.002   3.234
 2979SOL    HW1 9521   2.724   1.001   3.142
 2979SOL    HW2 9522   2.694   1.094   3.274
 2980SOL     OW 9523   2.778   0.910   2.153
 2980SOL    HW1 9524   2.841   0.948   2.085
 2980SOL    HW2 9525   2.818   0.827   2.192
 2981SOL     OW 9526   3.366   1.607   1.906
 2981SOL    HW1 9527   3.274   1.644   1.913
 2981SOL    HW2 9528   3.404   1.627   1.816
 2982SOL     OW 9529   2.234   1.288   3.352
 2982SOL    HW1 9530   2.221   1.381   3.318
 2982SOL    HW2 9531   2.150   1.236   3.339
 2983SOL     OW 9532   3.476   1.292   3.151
 2983SOL    HW1 9533   3.536   1.295   3.231
 2983SOL    HW2 9534   3.401   1.356   3.164
 2984SOL     OW 9535   2.901   1.098   2.558
 2984SOL    HW1 9536   2.831   1.051   2.612
 2984SOL    HW2 9537   2.960   1.030   2.515
 2985SOL     OW 9538   2.876   0.236   2.833
 2985SOL    HW1 9539   2.868   0.200   2.740
 2985SOL    HW2 9540   2.874   0.160   2.898
 2986SOL     OW 9541   2.452   1.487   2.353
 2986SOL    HW1 9542   2.494   1.429   2.283
 2986SOL    HW2 9543   2.408   1.566   2.309
 2987SOL     OW 9544   3.571   0.385   3.243
 2987SOL    HW1 9545   3.644   0.454   3.247
 2987SOL    HW2 9546   3.599   0.310   3.184
 2988SOL     OW 9547   2.117   1.348   2.152
 2988SOL    HW1 9548   2.021   1.349   2.125
 2988SOL    HW2 9549   2.129   1.401   2.236
 2989SOL     OW 9550   1.967   1.013   3.588
 2989SOL    HW1 9551   1.890   0.980   3.642
 2989SOL    HW2 9552   2.052   0.983   3.630
 2990SOL     OW 9553   2.534   0.203   3.351
 2990SOL    HW1 9554   2.624   0.187   3.311
 2990SOL    HW2 9555   2.542   0.208   3.450
 2991SOL     OW 9556   1.937   0.345   1.895
 2991SOL    HW1 9557   1.845   0.317   1.866
 2991SOL    HW2 9558   1.968   0.422   1.839
 2992SOL     OW 9559   3.302   0.856   3.260
 2992SOL    HW1 9560   3.245   0.908   3.197
 2992SOL    HW2 9561   3.398   0.868   3.236
 2993SOL     OW 9562   1.934   0.166   2.180
 2993SOL    HW1 9563   1.917   0.249   2.126
 2993SOL    HW2 9564   2.024   0.129   2.158
 2994SOL     OW 9565   3.045   1.335   1.981
 2994SOL    HW1 9566   2.946   1.324   1.983
 2994SOL    HW2 9567   3.079   1.350   2.074
 2995SOL     OW 9568   2.475   0.842   3.293
 2995SOL    HW1 9569   2.531   0.923   3.276
 2995SOL    HW2 9570   2.534   0.762   3.296
 2996SOL     OW 9571   3.355   1.767   2.821
 2996SOL    HW1 9572   3.388   1.831   2.752
 2996SOL    HW2 9573   3.421   1.761   2.896
 2997SOL     OW 9574   2.578   0.565   3.570
 2997SOL    HW1 9575   2.597   0.630   3.644
 2997SOL    HW2 9576   2.638   0.485   3.579
 2998SOL     OW 9577   3.312   1.220   3.495
 2998SOL    HW1 9578   3.303   1.210   3.594
 2998SOL    HW2 9579   3.408   1.213   3.469
 2999SOL     OW 9580   2.252   1.741   3.422
 2999SOL    HW1 9581   2.161   1.782   3.420
 2999SOL    HW2 9582   2.245   1.647   3.454
 3000SOL     OW 9583   3.536   0.883   3.116
 3000SOL    HW1 9584   3.509   0.794   3.079
 3000SOL    HW2 9585   3.537   0.951   3.043
 3001SOL     OW 9586   3.087   0.325   2.311
 3001SOL    HW1 9587   3.152   0.251   2.300
 3001SOL    HW2 9588   3.107   0.375   2.395
 3002SOL     OW 9589   2.456   0.745   2.514
 3002SOL    HW1 9590   2.506   0.830   2.495
 3002SOL    HW2 9591   2.368   0.747   2.466
 3003SOL     OW 9592   3.639   0.342   3.504
 3003SOL    HW1 9593   3.622   0.373   3.410
 3003SOL    HW2 9594   3.555   0.305   3.542
 3004SOL     OW 9595   3.592   0.934   3.379
 3004SOL    HW1 9596   3.630   1.025   3.394
 3004SOL    HW2 9597   3.584   0.917   3.280
 3005SOL     OW 9598   2.721   1.374   1.878
 3005SOL    HW1 9599   2.675   1.389   1.966
 3005SOL    HW2 9600   2.765   1.459   1.848
 3006SOL     OW 9601   2.523   1.790   2.815
 3006SOL    HW1 9602   2.477   1.878   2.802
 3006SOL    HW2 9603   2.622   1.802   2.808
 3007SOL     OW 9604   2.721   0.956   2.723
 3007SOL    HW1 9605   2.775   0.887   2.771
 3007SOL    HW2 9606   2.689   1.025   2.789
 3008SOL     OW 9607   2.945   0.984   1.949
 3008SOL    HW1 9608   2.922   1.037   1.867
 3008SOL    HW2 9609   3.026   0.928   1.930
 3009SOL     OW 9610   3.723   1.569   2.713
 3009SOL    HW1 9611   3.652   1.557   2.643
 3009SOL    HW2 9612   3.724   1.490   2.773
 3010SOL     OW 9613   2.083   1.314   3.706
 3010SOL    HW1 9614   2.018   1.241   3.685
 3010SOL    HW2 9615   2.087   1.328   3.804
 3011SOL     OW 9616   1.941   1.240   2.515
 3011SOL    HW1 9617   1.940   1.193   2.603
 3011SOL    HW2 9618   2.023   1.212   2.464
 3012SOL     OW 9619   2.534   1.391   3.486
 3012SOL    HW1 9620   2.456   1.341   3.524
 3012SOL    HW2 9621   2.531   1.486   3.517
 3013SOL     OW 9622   3.686   0.192   3.089
 3013SOL    HW1 9623   3.682   0.102   3.133
 3013SOL    HW2 9624   3.689   0.181   2.990
 3014SOL     OW 9625   2.290   0.424   2.382
 3014SOL    HW1 9626   2.320   0.352   2.320
 3014SOL    HW2 9627   2.251   0.384   2.465
 3015SOL     OW 9628   3.567   1.487   2.966
 3015SOL    HW1 9629   3.474   1.462   2.939
 3015SOL    HW2 9630   3.593   1.437   3.048
 3016SOL     OW 9631   2.179   0.547   3.142
 3016SOL    HW1 9632   2.217   0.488   3.214
 3016SOL    HW2 9633   2.219   0.521   3.054
 3017SOL     OW 9634   2.674   1.586   2.549
 3017SOL    HW1 9635   2.706   1.596   2.455
 3017SOL    HW2 9636   2.595   1.524   2.551
 3018SOL     OW 9637   3.286   0.214   2.974
 3018SOL    HW1 9638   3.338   0.149   3.029
 3018SOL    HW2 9639   3.237   0.277   3.035
 3019SOL     OW 9640   2.863   0.034   3.016
 3019SOL    HW1 9641   2.800  -0.038   2.985
 3019SOL    HW2 9642   2.956  -0.002   3.016
 3020SOL     OW 9643   2.632   1.330   2.163
 3020SOL    HW1 9644   2.586   1.243   2.180
 3020SOL    HW2 9645   2.723   1.327   2.204
 3021SOL     OW 9646   2.480   1.567   3.146
 3021SOL    HW1 9647   2.475   1.649   3.203
 3021SOL    HW2 9648   2.569   1.564   3.101
 3022SOL     OW 9649   3.214   0.052   2.030
 3022SOL    HW1 9650   3.249   0.011   1.946
 3022SOL    HW2 9651   3.124   0.014   2.050
 3023SOL     OW 9652   3.162   0.453   2.553
 3023SOL    HW1 9653   3.103   0.533   2.557
 3023SOL    HW2 9654   3.177   0.418   2.646
 3024SOL     OW 9655   3.455   0.221   2.744
 3024SOL    HW1 9656   3.371   0.220   2.798
 3024SOL    HW2 9657   3.457   0.304   2.688
 3025SOL     OW 9658   1.901   1.077   2.162
 3025SOL    HW1 9659   2.000   1.066   2.153
 3025SOL    HW2 9660   1.861   0.991   2.194
 3026SOL     OW 9661   2.737   1.646   2.199
 3026SOL    HW1 9662   2.660   1.611   2.145
 3026SOL    HW2 9663   2.705   1.717   2.261
 3027SOL     OW 9664   2.092   0.628   3.837
 3027SOL    HW1 9665   1.999   0.626   3.874
 3027SOL    HW2 9666   2.093   0.589   3.745
 3028SOL     OW 9667   2.087   0.275   4.720
 3028SOL    HW1 9668   2.122   0.258   4.812
 3028SOL    HW2 9669   1.999   0.230   4.708
 3029SOL     OW 9670   1.881   0.368   4.371
 3029SOL    HW1 9671   1.799   0.411   4.410
 3029SOL    HW2 9672   1.853   0.295   4.308
 3030SOL     OW 9673   2.431   1.275   4.889
 3030SOL    HW1 9674   2.338   1.268   4.852
 3030SOL    HW2 9675   2.442   1.364   4.933
 3031SOL     OW 9676   3.417   1.511   4.427
 3031SOL    HW1 9677   3.360   1.495   4.508
 3031SOL    HW2 9678   3.358   1.521   4.347
 3032SOL     OW 9679   2.997   0.703   4.441
 3032SOL    HW1 9680   3.054   0.781   4.416
 3032SOL    HW2 9681   2.937   0.729   4.517
 3033SOL     OW 9682   3.617   0.607   3.955
 3033SOL    HW1 9683   3.605   0.594   3.856
 3033SOL    HW2 9684   3.587   0.526   4.004
 3034SOL     OW 9685   2.630   1.144   4.747
 3034SOL    HW1 9686   2.552   1.161   4.807
 3034SOL    HW2 9687   2.664   1.231   4.711
 3035SOL     OW 9688   2.712   0.798   5.547
 3035SOL    HW1 9689   2.708   0.874   5.612
 3035SOL    HW2 9690   2.734   0.834   5.456
 3036SOL     OW 9691   2.547   1.012   4.389
 3036SOL    HW1 9692   2.616   0.996   4.459
 3036SOL    HW2 9693   2.474   1.069   4.427
 3037SOL     OW 9694   2.548   1.161   5.527
 3037SOL    HW1 9695   2.608   1.240   5.541
 3037SOL    HW2 9696   2.462   1.192   5.486
 3038SOL     OW 9697   2.197   1.435   4.785
 3038SOL    HW1 9698   2.119   1.404   4.732
 3038SOL    HW2 9699   2.255   1.493   4.728
 3039SOL     OW 9700   3.322   1.505   5.063
 3039SOL    HW1 9701   3.346   1.599   5.089
 3039SOL    HW2 9702   3.306   1.451   5.145
 3040SOL     OW 9703   2.300   0.392   5.223
 3040SOL    HW1 9704   2.382   0.336   5.232
 3040SOL    HW2 9705   2.219   0.334   5.227
 3041SOL     OW 9706   3.465   0.447   4.461
 3041SOL    HW1 9707   3.391   0.493   4.411
 3041SOL    HW2 9708   3.516   0.515   4.514
 3042SOL     OW 9709   2.093   1.713   4.207
 3042SOL    HW1 9710   2.127   1.790   4.261
 3042SOL    HW2 9711   2.137   1.713   4.117
 3043SOL     OW 9712   2.989   1.341   5.414
 3043SOL    HW1 9713   3.036   1.341   5.502
 3043SOL    HW2 9714   2.941   1.254   5.403
 3044SOL     OW 9715   2.092   1.434   4.262
 3044SOL    HW1 9716   2.066   1.530   4.262
 3044SOL    HW2 9717   2.021   1.380   4.307
 3045SOL     OW 9718   2.102   1.091   4.610
 3045SOL    HW1 9719   2.116   1.007   4.662
 3045SOL    HW2 9720   2.047   1.155   4.665
 3046SOL     OW 9721   2.482   1.786   5.163
 3046SOL    HW1 9722   2.390   1.769   5.198
 3046SOL    HW2 9723   2.510   1.878   5.189
 3047SOL     OW 9724   2.468   0.964   3.847
 3047SOL    HW1 9725   2.475   1.048   3.793
 3047SOL    HW2 9726   2.514   0.977   3.935
 3048SOL     OW 9727   3.456   0.114   5.204
 3048SOL    HW1 9728   3.438   0.181   5.132
 3048SOL    HW2 9729   3.453   0.160   5.293
 3049SOL     OW 9730   1.984   0.643   4.287
 3049SOL    HW1 9731   1.939   0.555   4.304
 3049SOL    HW2 9732   1.983   0.697   4.371
 3050SOL     OW 9733   3.704   1.767   4.083
 3050SOL    HW1 9734   3.758   1.738   4.163
 3050SOL    HW2 9735   3.734   1.857   4.054
 3051SOL     OW 9736   1.889   1.596   3.841
 3051SOL    HW1 9737   1.870   1.500   3.862
 3051SOL    HW2 9738   1.856   1.654   3.916
 3052SOL     OW 9739   3.551   0.922   4.336
 3052SOL    HW1 9740   3.646   0.893   4.344
 3052SOL    HW2 9741   3.543   0.987   4.261
 3053SOL     OW 9742   3.503   1.108   4.156
 3053SOL    HW1 9743   3.589   1.110   4.104
 3053SOL    HW2 9744   3.517   1.155   4.244
 3054SOL     OW 9745   1.975   0.737   5.321
 3054SOL    HW1 9746   2.063   0.724   5.366
 3054SOL    HW2 9747   1.962   0.834   5.299
 3055SOL     OW 9748   2.475   1.365   4.450
 3055SOL    HW1 9749   2.426   1.278   4.459
 3055SOL    HW2 9750   2.452   1.408   4.363
 3056SOL     OW 9751   3.155   1.228   5.147
 3056SOL    HW1 9752   3.192   1.155   5.089
 3056SOL    HW2 9753   3.207   1.233   5.232
 3057SOL     OW 9754   2.671   0.004   4.226
 3057SOL    HW1 9755   2.711   0.095   4.217
 3057SOL    HW2 9756   2.571   0.012   4.232
 3058SOL     OW 9757   2.059   0.976   4.988
 3058SOL    HW1 9758   2.148   0.931   4.974
 3058SOL    HW2 9759   1.986   0.911   4.969
 3059SOL     OW 9760   3.387   0.999   3.914
 3059SOL    HW1 9761   3.324   0.923   3.927
 3059SOL    HW2 9762   3.435   1.017   4.000
 3060SOL     OW 9763   3.049   1.792   5.340
 3060SOL    HW1 9764   3.073   1.852   5.264
 3060SOL    HW2 9765   3.056   1.697   5.310
 3061SOL     OW 9766   2.179   0.251   5.525
 3061SOL    HW1 9767   2.250   0.322   5.531
 3061SOL    HW2 9768   2.091   0.290   5.553
 3062SOL     OW 9769   3.328   1.417   4.677
 3062SOL    HW1 9770   3.269   1.423   4.757
 3062SOL    HW2 9771   3.313   1.329   4.631
 3063SOL     OW 9772   3.529   1.714   4.296
 3063SOL    HW1 9773   3.488   1.691   4.208
 3063SOL    HW2 9774   3.511   1.640   4.361
 3064SOL     OW 9775   2.460   0.729   3.994
 3064SOL    HW1 9776   2.484   0.798   3.926
 3064SOL    HW2 9777   2.382   0.762   4.048
 3065SOL     OW 9778   3.143   0.345   4.668
 3065SOL    HW1 9779   3.057   0.295   4.655
 3065SOL    HW2 9780   3.205   0.291   4.724
 3066SOL     OW 9781   3.438   1.662   4.031
 3066SOL    HW1 9782   3.527   1.708   4.034
 3066SOL    HW2 9783   3.417   1.638   3.936
 3067SOL     OW 9784   2.669   0.605   5.189
 3067SOL    HW1 9785   2.622   0.602   5.278
 3067SOL    HW2 9786   2.618   0.550   5.123
 3068SOL     OW 9787   3.256   0.469   5.398
 3068SOL    HW1 9788   3.236   0.512   5.486
 3068SOL    HW2 9789   3.334   0.407   5.407
 3069SOL     OW 9790   2.835   0.890   5.296
 3069SOL    HW1 9791   2.881   0.806   5.267
 3069SOL    HW2 9792   2.779   0.924   5.221
 3070SOL     OW 9793   2.853   0.410   4.966
 3070SOL    HW1 9794   2.776   0.444   5.020
 3070SOL    HW2 9795   2.819   0.359   4.887
 3071SOL     OW 9796   2.903   0.701   4.153
 3071SOL    HW1 9797   2.929   0.697   4.249
 3071SOL    HW2 9798   2.818   0.650   4.139
 3072SOL     OW 9799   1.938   0.811   4.513
 3072SOL    HW1 9800   2.037   0.799   4.522
 3072SOL    HW2 9801   1.914   0.906   4.534
 3073SOL     OW 9802   1.992   1.821   5.295
 3073SOL    HW1 9803   1.982   1.806   5.394
 3073SOL    HW2 9804   1.906   1.857   5.259
 3074SOL     OW 9805   2.727   0.348   3.919
 3074SOL    HW1 9806   2.786   0.411   3.870
 3074SOL    HW2 9807   2.746   0.254   3.890
 3075SOL     OW 9808   3.581   0.585   5.555
 3075SOL    HW1 9809   3.555   0.674   5.519
 3075SOL    HW2 9810   3.579   0.517   5.482
 3076SOL     OW 9811   3.224   1.144   4.269
 3076SOL    HW1 9812   3.307   1.115   4.221
 3076SOL    HW2 9813   3.175   1.211   4.213
 3077SOL     OW 9814   2.412   0.196   4.609
 3077SOL    HW1 9815   2.407   0.191   4.709
 3077SOL    HW2 9816   2.414   0.292   4.580
 3078SOL     OW 9817   2.870   1.456   4.201
 3078SOL    HW1 9818   2.824   1.528   4.149
 3078SOL    HW2 9819   2.866   1.476   4.299
 3079SOL     OW 9820   2.213   1.801   4.577
 3079SOL    HW1 9821   2.263   1.715   4.583
 3079SOL    HW2 9822   2.278   1.878   4.574
 3080SOL     OW 9823   3.657   1.066   4.597
 3080SOL    HW1 9824   3.595   1.051   4.521
 3080SOL    HW2 9825   3.605   1.077   4.682
 3081SOL     OW 9826   3.089   1.550   5.230
 3081SOL    HW1 9827   3.095   1.473   5.294
 3081SOL    HW2 9828   3.037   1.524   5.150
 3082SOL     OW 9829   2.183   0.943   3.966
 3082SOL    HW1 9830   2.265   0.982   3.924
 3082SOL    HW2 9831   2.156   0.861   3.917
 3083SOL     OW 9832   3.320   0.735   4.452
 3083SOL    HW1 9833   3.315   0.670   4.527
 3083SOL    HW2 9834   3.400   0.794   4.465
 3084SOL     OW 9835   2.323   1.266   5.451
 3084SOL    HW1 9836   2.273   1.267   5.365
 3084SOL    HW2 9837   2.260   1.248   5.527
 3085SOL     OW 9838   2.973   1.776   3.961
 3085SOL    HW1 9839   2.913   1.714   4.011
 3085SOL    HW2 9840   3.004   1.732   3.876
 3086SOL     OW 9841   2.064   0.285   5.222
 3086SOL    HW1 9842   1.984   0.345   5.209
 3086SOL    HW2 9843   2.054   0.236   5.308
 3087SOL     OW 9844   3.494   1.377   3.805
 3087SOL    HW1 9845   3.462   1.471   3.795
 3087SOL    HW2 9846   3.418   1.314   3.793
 3088SOL     OW 9847   2.326   1.743   4.047
 3088SOL    HW1 9848   2.359   1.782   4.133
 3088SOL    HW2 9849   2.402   1.736   3.982
 3089SOL     OW 9850   3.262   0.107   4.150
 3089SOL    HW1 9851   3.238   0.070   4.060
 3089SOL    HW2 9852   3.361   0.123   4.154
 3090SOL     OW 9853   2.111   1.785   4.965
 3090SOL    HW1 9854   2.168   1.720   5.015
 3090SOL    HW2 9855   2.095   1.752   4.872
 3091SOL     OW 9856   2.802   1.698   4.628
 3091SOL    HW1 9857   2.882   1.641   4.649
 3091SOL    HW2 9858   2.753   1.658   4.551
 3092SOL     OW 9859   2.244   0.700   4.204
 3092SOL    HW1 9860   2.289   0.610   4.201
 3092SOL    HW2 9861   2.150   0.689   4.237
 3093SOL     OW 9862   3.409   0.222   5.453
 3093SOL    HW1 9863   3.404   0.259   5.545
 3093SOL    HW2 9864   3.337   0.153   5.441
 3094SOL     OW 9865   2.476   0.122   3.841
 3094SOL    HW1 9866   2.574   0.100   3.848
 3094SOL    HW2 9867   2.445   0.105   3.748
 3095SOL     OW 9868   2.643   0.264   5.473
 3095SOL    HW1 9869   2.710   0.203   5.516
 3095SOL    HW2 9870   2.570   0.283   5.538
 3096SOL     OW 9871   2.750   1.514   4.919
 3096SOL    HW1 9872   2.727   1.489   4.825
 3096SOL    HW2 9873   2.811   1.445   4.958
 3097SOL     OW 9874   3.213   0.590   5.157
 3097SOL    HW1 9875   3.241   0.547   5.242
 3097SOL    HW2 9876   3.238   0.686   5.158
 3098SOL     OW 9877   2.665   1.402   4.648
 3098SOL    HW1 9878   2.755   1.416   4.606
 3098SOL    HW2 9879   2.594   1.404   4.577
 3099SOL     OW 9880   2.784   0.503   4.623
 3099SOL    HW1 9881   2.759   0.494   4.527
 3099SOL    HW2 9882   2.832   0.421   4.654
 3100SOL     OW 9883   2.401   0.064   4.236
 3100SOL    HW1 9884   2.320   0.065   4.294
 3100SOL    HW2 9885   2.404   0.147   4.181
 3101SOL     OW 9886   3.296   1.188   3.765
 3101SOL    HW1 9887   3.328   1.112   3.822
 3101SOL    HW2 9888   3.204   1.215   3.795
 3102SOL     OW 9889   2.159   0.035   3.895
 3102SOL    HW1 9890   2.208   0.119   3.874
 3102SOL    HW2 9891   2.221  -0.030   3.940
 3103SOL     OW 9892   2.797   0.236   4.204
 3103SOL    HW1 9893   2.749   0.277   4.126
 3103SOL    HW2 9894   2.896   0.234   4.185
 3104SOL     OW 9895   2.938   0.683   5.188
 3104SOL    HW1 9896   2.858   0.622   5.191
 3104SOL    HW2 9897   3.019   0.630   5.164
 3105SOL     OW 9898   3.089   1.570   4.517
 3105SOL    HW1 9899   3.110   1.644   4.452
 3105SOL    HW2 9900   3.157   1.570   4.590
 3106SOL     OW 9901   2.321   1.152   4.465
 3106SOL    HW1 9902   2.250   1.125   4.530
 3106SOL    HW2 9903   2.295   1.124   4.372
 3107SOL     OW 9904   3.133   1.797   4.315
 3107SOL    HW1 9905   3.177   1.861   4.251
 3107SOL    HW2 9906   3.083   1.849   4.385
 3108SOL     OW 9907   2.894   0.549   3.740
 3108SOL    HW1 9908   2.853   0.631   3.701
 3108SOL    HW2 9909   2.958   0.575   3.813
 3109SOL     OW 9910   1.940   0.556   5.110
 3109SOL    HW1 9911   2.032   0.555   5.069
 3109SOL    HW2 9912   1.934   0.630   5.177
 3110SOL     OW 9913   2.423   0.222   4.871
 3110SOL    HW1 9914   2.461   0.138   4.908
 3110SOL    HW2 9915   2.335   0.241   4.915
 3111SOL     OW 9916   2.728   0.454   4.366
 3111SOL    HW1 9917   2.696   0.526   4.304
 3111SOL    HW2 9918   2.752   0.373   4.313
 3112SOL     OW 9919   2.879   0.039   4.477
 3112SOL    HW1 9920   2.807   0.044   4.408
 3112SOL    HW2 9921   2.855  -0.030   4.546
 3113SOL     OW 9922   3.291   1.173   4.591
 3113SOL    HW1 9923   3.236   1.089   4.584
 3113SOL    HW2 9924   3.317   1.202   4.499
 3114SOL     OW 9925   3.328   0.590   4.716
 3114SOL    HW1 9926   3.298   0.495   4.723
 3114SOL    HW2 9927   3.401   0.606   4.782
 3115SOL     OW 9928   3.719   0.833   4.101
 3115SOL    HW1 9929   3.761   0.769   4.165
 3115SOL    HW2 9930   3.681   0.782   4.023
 3116SOL     OW 9931   2.350   1.385   3.898
 3116SOL    HW1 9932   2.263   1.370   3.945
 3116SOL    HW2 9933   2.333   1.411   3.803
 3117SOL     OW 9934   3.526   1.280   4.381
 3117SOL    HW1 9935   3.625   1.288   4.395
 3117SOL    HW2 9936   3.481   1.364   4.412
 3118SOL     OW 9937   3.252   0.575   3.802
 3118SOL    HW1 9938   3.198   0.554   3.883
 3118SOL    HW2 9939   3.343   0.534   3.811
 3119SOL     OW 9940   2.389   0.256   4.052
 3119SOL    HW1 9941   2.416   0.197   3.977
 3119SOL    HW2 9942   2.389   0.351   4.021
 3120SOL     OW 9943   3.616   1.223   5.312
 3120SOL    HW1 9944   3.707   1.184   5.299
 3120SOL    HW2 9945   3.624   1.319   5.336
 3121SOL     OW 9946   2.926   1.347   5.064
 3121SOL    HW1 9947   2.846   1.324   5.119
 3121SOL    HW2 9948   3.009   1.321   5.113
 3122SOL     OW 9949   3.454   1.629   5.349
 3122SOL    HW1 9950   3.481   1.663   5.259
 3122SOL    HW2 9951   3.533   1.591   5.395
 3123SOL     OW 9952   2.973   1.195   4.824
 3123SOL    HW1 9953   2.933   1.239   4.905
 3123SOL    HW2 9954   2.932   1.232   4.741
 3124SOL     OW 9955   3.500   1.099   4.803
 3124SOL    HW1 9956   3.505   1.180   4.862
 3124SOL    HW2 9957   3.414   1.101   4.752
 3125SOL     OW 9958   2.777   0.089   5.126
 3125SOL    HW1 9959   2.802   0.069   5.031
 3125SOL    HW2 9960   2.849   0.145   5.168
 3126SOL     OW 9961   2.842   1.116   5.443
 3126SOL    HW1 9962   2.743   1.122   5.453
 3126SOL    HW2 9963   2.865   1.036   5.387
 3127SOL     OW 9964   2.567   1.050   4.092
 3127SOL    HW1 9965   2.553   1.057   4.191
 3127SOL    HW2 9966   2.651   0.999   4.074
 3128SOL     OW 9967   2.272   0.813   4.975
 3128SOL    HW1 9968   2.358   0.825   5.025
 3128SOL    HW2 9969   2.230   0.726   5.002
 3129SOL     OW 9970   3.136   0.386   4.986
 3129SOL    HW1 9971   3.157   0.460   5.050
 3129SOL    HW2 9972   3.047   0.403   4.943
 3130SOL     OW 9973   1.926   1.564   5.055
 3130SOL    HW1 9974   1.880   1.646   5.021
 3130SOL    HW2 9975   2.024   1.583   5.064
 3131SOL     OW 9976   2.229   1.100   4.225
 3131SOL    HW1 9977   2.222   1.183   4.169
 3131SOL    HW2 9978   2.233   1.020   4.165
 3132SOL     OW 9979   2.428   0.537   4.589
 3132SOL    HW1 9980   2.440   0.603   4.515
 3132SOL    HW2 9981   2.474   0.571   4.672
 3133SOL     OW 9982   3.114   1.348   4.112
 3133SOL    HW1 9983   3.164   1.425   4.152
 3133SOL    HW2 9984   3.019   1.350   4.144
 3134SOL     OW 9985   3.134   1.445   4.866
 3134SOL    HW1 9986   3.181   1.458   4.953
 3134SOL    HW2 9987   3.068   1.371   4.875
 3135SOL     OW 9988   3.444   0.639   4.196
 3135SOL    HW1 9989   3.413   0.700   4.269
 3135SOL    HW2 9990   3.494   0.691   4.127
 3136SOL     OW 9991   2.216   1.510   5.053
 3136SOL    HW1 9992   2.195   1.466   4.966
 3136SOL    HW2 9993   2.313   1.536   5.056
 3137SOL     OW 9994   2.264   0.751   5.322
 3137SOL    HW1 9995   2.332   0.806   5.275
 3137SOL    HW2 9996   2.304   0.663   5.349
 3138SOL     OW 9997   3.449   0.779   5.394
 3138SOL    HW1 9998   3.357   0.817   5.389
 3138SOL    HW2 9999   3.509   0.826   5.329
 3139SOL     OW10000   2.875   0.105   5.494
 3139SOL    HW110001   2.881   0.190   5.442
 3139SOL    HW210002   2.907   0.029   5.437
 3140SOL     OW10003   2.366   0.050   5.464
 3140SOL    HW110004   2.324  -0.007   5.394
 3140SOL    HW210005   2.300   0.119   5.496
 3141SOL     OW10006   2.435   0.870   4.753
 3141SOL    HW110007   2.479   0.959   4.744
 3141SOL    HW210008   2.372   0.870   4.830
 3142SOL     OW10009   3.222   0.862   4.769
 3142SOL    HW110010   3.147   0.862   4.703
 3142SOL    HW210011   3.259   0.770   4.778
 3143SOL     OW10012   3.071   0.525   3.999
 3143SOL    HW110013   3.084   0.441   4.053
 3143SOL    HW210014   3.042   0.599   4.059
 3144SOL     OW10015   2.169   0.213   4.955
 3144SOL    HW110016   2.146   0.250   5.045
 3144SOL    HW210017   2.139   0.118   4.949
 3145SOL     OW10018   1.899   1.310   5.006
 3145SOL    HW110019   1.952   1.261   5.074
 3145SOL    HW210020   1.921   1.408   5.011
 3146SOL     OW10021   2.594   0.634   4.788
 3146SOL    HW110022   2.653   0.608   4.712
 3146SOL    HW210023   2.566   0.730   4.777
 3147SOL     OW10024   3.590   0.935   5.578
 3147SOL    HW110025   3.544   0.928   5.489
 3147SOL    HW210026   3.528   0.979   5.644
 3148SOL     OW10027   2.169   0.063   4.342
 3148SOL    HW110028   2.158   0.157   4.375
 3148SOL    HW210029   2.164   0.000   4.419
 3149SOL     OW10030   3.484   0.367   4.098
 3149SOL    HW110031   3.486   0.291   4.162
 3149SOL    HW210032   3.436   0.444   4.138
 3150SOL     OW10033   2.885   0.766   4.690
 3150SOL    HW110034   2.900   0.787   4.786
 3150SOL    HW210035   2.855   0.671   4.681
 3151SOL     OW10036   2.842   1.573   5.424
 3151SOL    HW110037   2.822   1.617   5.336
 3151SOL    HW210038   2.881   1.482   5.408
 3152SOL     OW10039   3.721   1.518   5.329
 3152SOL    HW110040   3.735   1.545   5.234
 3152SOL    HW210041   3.804   1.540   5.382
 3153SOL     OW10042   2.212   0.898   5.528
 3153SOL    HW110043   2.288   0.942   5.576
 3153SOL    HW210044   2.247   0.851   5.446
 3154SOL     OW10045   3.402   0.274   3.849
 3154SOL    HW110046   3.341   0.199   3.872
 3154SOL    HW210047   3.424   0.326   3.932
 3155SOL     OW10048   3.165   0.838   3.766
 3155SOL    HW110049   3.199   0.745   3.781
 3155SOL    HW210050   3.183   0.865   3.671
 3156SOL     OW10051   2.930   1.333   4.573
 3156SOL    HW110052   2.937   1.249   4.518
 3156SOL    HW210053   2.992   1.402   4.537
 3157SOL     OW10054   2.181   0.810   4.673
 3157SOL    HW110055   2.274   0.846   4.678
 3157SOL    HW210056   2.175   0.725   4.725
 3158SOL     OW10057   2.201   0.509   4.730
 3158SOL    HW110058   2.149   0.426   4.713
 3158SOL    HW210059   2.278   0.514   4.666
 3159SOL     OW10060   3.000   0.380   5.402
 3159SOL    HW110061   2.955   0.443   5.466
 3159SOL    HW210062   3.093   0.411   5.385
 3160SOL     OW10063   3.022   0.207   5.201
 3160SOL    HW110064   3.022   0.271   5.278
 3160SOL    HW210065   3.050   0.255   5.118
 3161SOL     OW10066   1.870   1.326   3.924
 3161SOL    HW110067   1.777   1.347   3.893
 3161SOL    HW210068   1.880   1.227   3.937
 3162SOL     OW10069   1.950   1.801   4.651
 3162SOL    HW110070   1.908   1.715   4.624
 3162SOL    HW210071   2.044   1.804   4.617
 3163SOL     OW10072   2.366   1.568   4.634
 3163SOL    HW110073   2.432   1.642   4.643
 3163SOL    HW210074   2.410   1.489   4.592
 3164SOL     OW10075   2.864   0.796   4.962
 3164SOL    HW110076   2.905   0.764   5.048
 3164SOL    HW210077   2.768   0.769   4.959
 3165SOL     OW10078   1.902   0.544   4.838
 3165SOL    HW110079   1.987   0.511   4.797
 3165SOL    HW210080   1.915   0.559   4.936
 3166SOL     OW10081   2.051   0.520   5.446
 3166SOL    HW110082   2.110   0.480   5.376
 3166SOL    HW210083   1.993   0.591   5.405
 3167SOL     OW10084   3.231   0.950   5.384
 3167SOL    HW110085   3.270   1.039   5.404
 3167SOL    HW210086   3.241   0.930   5.287
 3168SOL     OW10087   2.677   0.572   4.049
 3168SOL    HW110088   2.684   0.483   4.003
 3168SOL    HW210089   2.583   0.606   4.041
 3169SOL     OW10090   3.519   0.604   4.930
 3169SOL    HW110091   3.481   0.535   4.992
 3169SOL    HW210092   3.601   0.568   4.886
 3170SOL     OW10093   2.114   1.564   5.468
 3170SOL    HW110094   2.084   1.621   5.544
 3170SOL    HW210095   2.107   1.467   5.494
 3171SOL     OW10096   2.533   0.464   4.993
 3171SOL    HW110097   2.499   0.375   4.963
 3171SOL    HW210098   2.559   0.518   4.913
 3172SOL     OW10099   2.792   1.678   5.189
 3172SOL    HW110100   2.768   1.660   5.094
 3172SOL    HW210101   2.822   1.772   5.199
 3173SOL     OW10102   2.335   0.500   3.915
 3173SOL    HW110103   2.396   0.580   3.919
 3173SOL    HW210104   2.240   0.531   3.922
 3174SOL     OW10105   2.021   1.137   5.190
 3174SOL    HW110106   2.043   1.076   5.266
 3174SOL    HW210107   2.031   1.088   5.104
 3175SOL     OW10108   3.209   1.059   4.958
 3175SOL    HW110109   3.233   0.996   4.884
 3175SOL    HW210110   3.119   1.099   4.940
 3176SOL     OW10111   3.164   0.855   4.033
 3176SOL    HW110112   3.078   0.824   4.075
 3176SOL    HW210113   3.160   0.841   3.934
 3177SOL     OW10114   3.621   1.747   4.878
 3177SOL    HW110115   3.682   1.777   4.805
 3177SOL    HW210116   3.583   1.658   4.856
 3178SOL     OW10117   3.114   1.731   4.852
 3178SOL    HW110118   3.198   1.736   4.798
 3178SOL    HW210119   3.091   1.635   4.870
 3179SOL     OW10120   1.945   1.258   4.746
 3179SOL    HW110121   1.940   1.257   4.846
 3179SOL    HW210122   1.862   1.217   4.708
 3180SOL     OW10123   2.550   1.662   5.440
 3180SOL    HW110124   2.494   1.743   5.449
 3180SOL    HW210125   2.602   1.666   5.354
 3181SOL     OW10126   3.588   0.135   4.247
 3181SOL    HW110127   3.661   0.118   4.180
 3181SOL    HW210128   3.557   0.048   4.285
 3182SOL     OW10129   3.250   1.573   4.201
 3182SOL    HW110130   3.317   1.585   4.127
 3182SOL    HW210131   3.210   1.662   4.224
 3183SOL     OW10132   1.992   1.794   5.575
 3183SOL    HW110133   1.951   1.720   5.628
 3183SOL    HW210134   2.056   1.845   5.633
 3184SOL     OW10135   3.142   0.927   4.396
 3184SOL    HW110136   3.202   0.846   4.398
 3184SOL    HW210137   3.182   0.996   4.336
 3185SOL     OW10138   2.692   1.273   5.146
 3185SOL    HW110139   2.687   1.306   5.241
 3185SOL    HW210140   2.606   1.292   5.100
 3186SOL     OW10141   2.534   1.616   3.878
 3186SOL    HW110142   2.543   1.626   3.779
 3186SOL    HW210143   2.494   1.527   3.899
 3187SOL     OW10144   3.512   1.720   5.118
 3187SOL    HW110145   3.565   1.730   5.034
 3187SOL    HW210146   3.485   1.810   5.152
 3188SOL     OW10147   3.703   0.175   4.687
 3188SOL    HW110148   3.742   0.090   4.651
 3188SOL    HW210149   3.605   0.177   4.668
 3189SOL     OW10150   2.125   0.326   4.444
 3189SOL    HW110151   2.046   0.377   4.410
 3189SOL    HW210152   2.116   0.311   4.542
 3190SOL     OW10153   3.056   1.612   3.755
 3190SOL    HW110154   3.062   1.519   3.792
 3190SOL    HW210155   2.997   1.612   3.675
 3191SOL     OW10156   2.684   1.002   5.096
 3191SOL    HW110157   2.724   1.001   5.004
 3191SOL    HW210158   2.694   1.094   5.136
 3192SOL     OW10159   2.778   0.910   4.015
 3192SOL    HW110160   2.841   0.948   3.947
 3192SOL    HW210161   2.818   0.827   4.054
 3193SOL     OW10162   3.366   1.607   3.768
 3193SOL    HW110163   3.274   1.644   3.775
 3193SOL    HW210164   3.404   1.627   3.678
 3194SOL     OW10165   2.234   1.288   5.214
 3194SOL    HW110166   2.221   1.381   5.180
 3194SOL    HW210167   2.150   1.236   5.201
 3195SOL     OW10168   3.476   1.292   5.013
 3195SOL    HW110169   3.536   1.295   5.093
 3195SOL    HW210170   3.401   1.356   5.026
 3196SOL     OW10171   2.901   1.098   4.420
 3196SOL    HW110172   2.831   1.051   4.474
 3196SOL    HW210173   2.960   1.030   4.377
 3197SOL     OW10174   2.876   0.236   4.695
 3197SOL    HW110175   2.868   0.200   4.602
 3197SOL    HW210176   2.874   0.160   4.760
 3198SOL     OW10177   2.452   1.487   4.215
 3198SOL    HW110178   2.494   1.429   4.145
 3198SOL    HW210179   2.408   1.566   4.171
 3199SOL     OW10180   3.571   0.385   5.105
 3199SOL    HW110181   3.644   0.454   5.109
 3199SOL    HW210182   3.599   0.310   5.046
 3200SOL     OW10183   2.117   1.348   4.014
 3200SOL    HW110184   2.021   1.349   3.987
 3200SOL    HW210185   2.129   1.401   4.098
 3201SOL     OW10186   1.967   1.013   5.450
 3201SOL    HW110187   1.890   0.980   5.504
 3201SOL    HW210188   2.052   0.983   5.492
 3202SOL     OW10189   2.534   0.203   5.213
 3202SOL    HW110190   2.624   0.187   5.173
 3202SOL    HW210191   2.542   0.208   5.312
 3203SOL     OW10192   1.937   0.345   3.757
 3203SOL    HW110193   1.845   0.317   3.728
 3203SOL    HW210194   1.968   0.422   3.701
 3204SOL     OW10195   3.302   0.856   5.122
 3204SOL    HW110196   3.245   0.908   5.059
 3204SOL    HW210197   3.398   0.868   5.098
 3205SOL     OW10198   1.934   0.166   4.042
 3205SOL    HW110199   1.917   0.249   3.988
 3205SOL    HW210200   2.024   0.129   4.020
 3206SOL     OW10201   3.045   1.335   3.843
 3206SOL    HW110202   2.946   1.324   3.845
 3206SOL    HW210203   3.079   1.350   3.936
 3207SOL     OW10204   2.475   0.842   5.155
 3207SOL    HW110205   2.531   0.923   5.138
 3207SOL    HW210206   2.534   0.762   5.158
 3208SOL     OW10207   3.355   1.767   4.683
 3208SOL    HW110208   3.388   1.831   4.614
 3208SOL    HW210209   3.421   1.761   4.758
 3209SOL     OW10210   2.578   0.565   5.432
 3209SOL    HW110211   2.597   0.630   5.506
 3209SOL    HW210212   2.638   0.485   5.441
 3210SOL     OW10213   3.312   1.220   5.357
 3210SOL    HW110214   3.303   1.210   5.456
 3210SOL    HW210215   3.408   1.213   5.331
 3211SOL     OW10216   2.252   1.741   5.284
 3211SOL    HW110217   2.161   1.782   5.282
 3211SOL    HW210218   2.245   1.647   5.316
 3212SOL     OW10219   3.536   0.883   4.978
 3212SOL    HW110220   3.509   0.794   4.941
 3212SOL    HW210221   3.537   0.951   4.905
 3213SOL     OW10222   3.087   0.325   4.173
 3213SOL    HW110223   3.152   0.251   4.162
 3213SOL    HW210224   3.107   0.375   4.257
 3214SOL     OW10225   2.456   0.745   4.376
 3214SOL    HW110226   2.506   0.830   4.357
 3214SOL    HW210227   2.368   0.747   4.328
 3215SOL     OW10228   3.639   0.342   5.366
 3215SOL    HW110229   3.622   0.373   5.272
 3215SOL    HW210230   3.555   0.305   5.404
 3216SOL     OW10231   3.592   0.934   5.241
 3216SOL    HW110232   3.630   1.025   5.256
 3216SOL    HW210233   3.584   0.917   5.142
 3217SOL     OW10234   2.721   1.374   3.740
 3217SOL    HW110235   2.675   1.389   3.828
 3217SOL    HW210236   2.765   1.459   3.710
 3218SOL     OW10237   2.523   1.790   4.677
 3218SOL    HW110238   2.477   1.878   4.664
 3218SOL    HW210239   2.622   1.802   4.670
 3219SOL     OW10240   2.721   0.956   4.585
 3219SOL    HW110241   2.775   0.887   4.633
 3219SOL    HW210242   2.689   1.025   4.651
 3220SOL     OW10243   2.945   0.984   3.811
 3220SOL    HW110244   2.922   1.037   3.729
 3220SOL    HW210245   3.026   0.928   3.792
 3221SOL     OW10246   3.723   1.569   4.575
 3221SOL    HW110247   3.652   1.557   4.505
 3221SOL    HW210248   3.724   1.490   4.635
 3222SOL     OW10249   2.083   1.314   5.568
 3222SOL    HW110250   2.018   1.241   5.547
 3222SOL    HW210251   2.087   1.328   5.666
 3223SOL     OW10252   1.941   1.240   4.377
 3223SOL    HW110253   1.940   1.193   4.465
 3223SOL    HW210254   2.023   1.212   4.326
 3224SOL     OW10255   2.534   1.391   5.348
 3224SOL    HW110256   2.456   1.341   5.386
 3224SOL    HW210257   2.531   1.486   5.379
 3225SOL     OW10258   3.686   0.192   4.951
 3225SOL    HW110259   3.682   0.102   4.995
 3225SOL    HW210260   3.689   0.181   4.852
 3226SOL     OW10261   2.290   0.424   4.244
 3226SOL    HW110262   2.320   0.352   4.182
 3226SOL    HW210263   2.251   0.384   4.327
 3227SOL     OW10264   3.567   1.487   4.828
 3227SOL    HW110265   3.474   1.462   4.801
 3227SOL    HW210266   3.593   1.437   4.910
 3228SOL     OW10267   2.179   0.547   5.004
 3228SOL    HW110268   2.217   0.488   5.076
 3228SOL    HW210269   2.219   0.521   4.916
 3229SOL     OW10270   2.674   1.586   4.411
 3229SOL    HW110271   2.706   1.596   4.317
 3229SOL    HW210272   2.595   1.524   4.413
 3230SOL     OW10273   3.286   0.214   4.836
 3230SOL    HW110274   3.338   0.149   4.891
 3230SOL    HW210275   3.237   0.277   4.897
 3231SOL     OW10276   2.863   0.034   4.878
 3231SOL    HW110277   2.800  -0.038   4.847
 3231SOL    HW210278   2.956  -0.002   4.878
 3232SOL     OW10279   2.632   1.330   4.025
 3232SOL    HW110280   2.586   1.243   4.042
 3232SOL    HW210281   2.723   1.327   4.066
 3233SOL     OW10282   2.480   1.567   5.008
 3233SOL    HW110283   2.475   1.649   5.065
 3233SOL    HW210284   2.569   1.564   4.963
 3234SOL     OW10285   3.214   0.052   3.892
 3234SOL    HW110286   3.249   0.011   3.808
 3234SOL    HW210287   3.124   0.014   3.912
 3235SOL     OW10288   3.162   0.453   4.415
 3235SOL    HW110289   3.103   0.533   4.419
 3235SOL    HW210290   3.177   0.418   4.508
 3236SOL     OW10291   3.455   0.221   4.606
 3236SOL    HW110292   3.371   0.220   4.660
 3236SOL    HW210293   3.457   0.304   4.550
 3237SOL     OW10294   1.901   1.077   4.024
 3237SOL    HW110295   2.000   1.066   4.015
 3237SOL    HW210296   1.861   0.991   4.056
 3238SOL     OW10297   2.737   1.646   4.061
 3238SOL    HW110298   2.660   1.611   4.007
 3238SOL    HW210299   2.705   1.717   4.123
 3239SOL     OW10300   2.092   0.628   5.699
 3239SOL    HW110301   1.999   0.626   5.736
 3239SOL    HW210302   2.093   0.589   5.607
 3240SOL     OW10303   2.087   0.275   6.582
 3240SOL    HW110304   2.122   0.258   6.674
 3240SOL    HW210305   1.999   0.230   6.570
 3241SOL     OW10306   1.881   0.368   6.233
 3241SOL    HW110307   1.799   0.411   6.272
 3241SOL    HW210308   1.853   0.295   6.170
 3242SOL     OW10309   2.431   1.275   6.751
 3242SOL    HW110310   2.338   1.268   6.714
 3242SOL    HW210311   2.442   1.364   6.795
 3243SOL     OW10312   3.417   1.511   6.289
 3243SOL    HW110313   3.360   1.495   6.370
 3243SOL    HW210314   3.358   1.521   6.209
 3244SOL     OW10315   2.997   0.703   6.303
 3244SOL    HW110316   3.054   0.781   6.278
 3244SOL    HW210317   2.937   0.729   6.379
 3245SOL     OW10318   3.617   0.607   5.817
 3245SOL    HW110319   3.605   0.594   5.718
 3245SOL    HW210320   3.587   0.526   5.866
 3246SOL     OW10321   2.630   1.144   6.609
 3246SOL    HW110322   2.552   1.161   6.669
 3246SOL    HW210323   2.664   1.231   6.573
 3247SOL     OW10324   2.712   0.798   7.409
 3247SOL    HW110325   2.708   0.874   7.474
 3247SOL    HW210326   2.734   0.834   7.318
 3248SOL     OW10327   2.547   1.012   6.251
 3248SOL    HW110328   2.616   0.996   6.321
 3248SOL    HW210329   2.474   1.069   6.289
 3249SOL     OW10330   2.548   1.161   7.389
 3249SOL    HW110331   2.608   1.240   7.403
 3249SOL    HW210332   2.462   1.192   7.348
 3250SOL     OW10333   2.197   1.435   6.647
 3250SOL    HW110334   2.119   1.404   6.594
 3250SOL    HW210335   2.255   1.493   6.590
 3251SOL     OW10336   3.322   1.505   6.925
 3251SOL    HW110337   3.346   1.599   6.951
 3251SOL    HW210338   3.306   1.451   7.007
 3252SOL     OW10339   2.300   0.392   7.085
 3252SOL    HW110340   2.382   0.336   7.094
 3252SOL    HW210341   2.219   0.334   7.089
 3253SOL     OW10342   3.465   0.447   6.323
 3253SOL    HW110343   3.391   0.493   6.273
 3253SOL    HW210344   3.516   0.515   6.376
 3254SOL     OW10345   2.093   1.713   6.069
 3254SOL    HW110346   2.127   1.790   6.123
 3254SOL    HW210347   2.137   1.713   5.979
 3255SOL     OW10348   2.989   1.341   7.276
 3255SOL    HW110349   3.036   1.341   7.364
 3255SOL    HW210350   2.941   1.254   7.265
 3256SOL     OW10351   2.092   1.434   6.124
 3256SOL    HW110352   2.066   1.530   6.124
 3256SOL    HW210353   2.021   1.380   6.169
 3257SOL     OW10354   2.102   1.091   6.472
 3257SOL    HW110355   2.116   1.007   6.524
 3257SOL    HW210356   2.047   1.155   6.527
 3258SOL     OW10357   2.482   1.786   7.025
 3258SOL    HW110358   2.390   1.769   7.060
 3258SOL    HW210359   2.510   1.878   7.051
 3259SOL     OW10360   2.468   0.964   5.709
 3259SOL    HW110361   2.475   1.048   5.655
 3259SOL    HW210362   2.514   0.977   5.797
 3260SOL     OW10363   3.456   0.114   7.066
 3260SOL    HW110364   3.438   0.181   6.994
 3260SOL    HW210365   3.453   0.160   7.155
 3261SOL     OW10366   1.984   0.643   6.149
 3261SOL    HW110367   1.939   0.555   6.166
 3261SOL    HW210368   1.983   0.697   6.233
 3262SOL     OW10369   3.704   1.767   5.945
 3262SOL    HW110370   3.758   1.738   6.025
 3262SOL    HW210371   3.734   1.857   5.916
 3263SOL     OW10372   1.889   1.596   5.703
 3263SOL    HW110373   1.870   1.500   5.724
 3263SOL    HW210374   1.856   1.654   5.778
 3264SOL     OW10375   3.551   0.922   6.198
 3264SOL    HW110376   3.646   0.893   6.206
 3264SOL    HW210377   3.543   0.987   6.123
 3265SOL     OW10378   3.503   1.108   6.018
 3265SOL    HW110379   3.589   1.110   5.966
 3265SOL    HW210380   3.517   1.155   6.106
 3266SOL     OW10381   1.975   0.737   7.183
 3266SOL    HW110382   2.063   0.724   7.228
 3266SOL    HW210383   1.962   0.834   7.161
 3267SOL     OW10384   2.475   1.365   6.312
 3267SOL    HW110385   2.426   1.278   6.321
 3267SOL    HW210386   2.452   1.408   6.225
 3268SOL     OW10387   3.155   1.228   7.009
 3268SOL    HW110388   3.192   1.155   6.951
 3268SOL    HW210389   3.207   1.233   7.094
 3269SOL     OW10390   2.671   0.004   6.088
 3269SOL    HW110391   2.711   0.095   6.079
 3269SOL    HW210392   2.571   0.012   6.094
 3270SOL     OW10393   2.059   0.976   6.850
 3270SOL    HW110394   2.148   0.931   6.836
 3270SOL    HW210395   1.986   0.911   6.831
 3271SOL     OW10396   3.387   0.999   5.776
 3271SOL    HW110397   3.324   0.923   5.789
 3271SOL    HW210398   3.435   1.017   5.862
 3272SOL     OW10399   3.049   1.792   7.202
 3272SOL    HW110400   3.073   1.852   7.126
 3272SOL    HW210401   3.056   1.697   7.172
 3273SOL     OW10402   2.179   0.251   7.387
 3273SOL    HW110403   2.250   0.322   7.393
 3273SOL    HW210404   2.091   0.290   7.415
 3274SOL     OW10405   3.328   1.417   6.539
 3274SOL    HW110406   3.269   1.423   6.619
 3274SOL    HW210407   3.313   1.329   6.493
 3275SOL     OW10408   3.529   1.714   6.158
 3275SOL    HW110409   3.488   1.691   6.070
 3275SOL    HW210410   3.511   1.640   6.223
 3276SOL     OW10411   2.460   0.729   5.856
 3276SOL    HW110412   2.484   0.798   5.788
 3276SOL    HW210413   2.382   0.762   5.910
 3277SOL     OW10414   3.143   0.345   6.530
 3277SOL    HW110415   3.057   0.295   6.517
 3277SOL    HW210416   3.205   0.291   6.586
 3278SOL     OW10417   3.438   1.662   5.893
 3278SOL    HW110418   3.527   1.708   5.896
 3278SOL    HW210419   3.417   1.638   5.798
 3279SOL     OW10420   2.669   0.605   7.051
 3279SOL    HW110421   2.622   0.602   7.140
 3279SOL    HW210422   2.618   0.550   6.985
 3280SOL     OW10423   3.256   0.469   7.260
 3280SOL    HW110424   3.236   0.512   7.348
 3280SOL    HW210425   3.334   0.407   7.269
 3281SOL     OW10426   2.835   0.890   7.158
 3281SOL    HW110427   2.881   0.806   7.129
 3281SOL    HW210428   2.779   0.924   7.083
 3282SOL     OW10429   2.853   0.410   6.828
 3282SOL    HW110430   2.776   0.444   6.882
 3282SOL    HW210431   2.819   0.359   6.749
 3283SOL     OW10432   2.903   0.701   6.015
 3283SOL    HW110433   2.929   0.697   6.111
 3283SOL    HW210434   2.818   0.650   6.001
 3284SOL     OW10435   1.938   0.811   6.375
 3284SOL    HW110436   2.037   0.799   6.384
 3284SOL    HW210437   1.914   0.906   6.396
 3285SOL     OW10438   1.992   1.821   7.157
 3285SOL    HW110439   1.982   1.806   7.256
 3285SOL    HW210440   1.906   1.857   7.121
 3286SOL     OW10441   2.727   0.348   5.781
 3286SOL    HW110442   2.786   0.411   5.732
 3286SOL    HW210443   2.746   0.254   5.752
 3287SOL     OW10444   3.581   0.585   7.417
 3287SOL    HW110445   3.555   0.674   7.381
 3287SOL    HW210446   3.579   0.517   7.344
 3288SOL     OW10447   3.224   1.144   6.131
 3288SOL    HW110448   3.307   1.115   6.083
 3288SOL    HW210449   3.175   1.211   6.075
 3289SOL     OW10450   2.412   0.196   6.471
 3289SOL    HW110451   2.407   0.191   6.571
 3289SOL    HW210452   2.414   0.292   6.442
 3290SOL     OW10453   2.870   1.456   6.063
 3290SOL    HW110454   2.824   1.528   6.011
 3290SOL    HW210455   2.866   1.476   6.161
 3291SOL     OW10456   2.213   1.801   6.439
 3291SOL    HW110457   2.263   1.715   6.445
 3291SOL    HW210458   2.278   1.878   6.436
 3292SOL     OW10459   3.657   1.066   6.459
 3292SOL    HW110460   3.595   1.051   6.383
 3292SOL    HW210461   3.605   1.077   6.544
 3293SOL     OW10462   3.089   1.550   7.092
 3293SOL    HW110463   3.095   1.473   7.156
 3293SOL    HW210464   3.037   1.524   7.012
 3294SOL     OW10465   2.183   0.943   5.828
 3294SOL    HW110466   2.265   0.982   5.786
 3294SOL    HW210467   2.156   0.861   5.779
 3295SOL     OW10468   3.320   0.735   6.314
 3295SOL    HW110469   3.315   0.670   6.389
 3295SOL    HW210470   3.400   0.794   6.327
 3296SOL     OW10471   2.323   1.266   7.313
 3296SOL    HW110472   2.273   1.267   7.227
 3296SOL    HW210473   2.260   1.248   7.389
 3297SOL     OW10474   2.973   1.776   5.823
 3297SOL    HW110475   2.913   1.714   5.873
 3297SOL    HW210476   3.004   1.732   5.738
 3298SOL     OW10477   2.064   0.285   7.084
 3298SOL    HW110478   1.984   0.345   7.071
 3298SOL    HW210479   2.054   0.236   7.170
 3299SOL     OW10480   3.494   1.377   5.667
 3299SOL    HW110481   3.462   1.471   5.657
 3299SOL    HW210482   3.418   1.314   5.655
 3300SOL     OW10483   2.326   1.743   5.909
 3300SOL    HW110484   2.359   1.782   5.995
 3300SOL    HW210485   2.402   1.736   5.844
 3301SOL     OW10486   3.262   0.107   6.012
 3301SOL    HW110487   3.238   0.070   5.922
 3301SOL    HW210488   3.361   0.123   6.016
 3302SOL     OW10489   2.111   1.785   6.827
 3302SOL    HW110490   2.168   1.720   6.877
 3302SOL    HW210491   2.095   1.752   6.734
 3303SOL     OW10492   2.802   1.698   6.490
 3303SOL    HW110493   2.882   1.641   6.511
 3303SOL    HW210494   2.753   1.658   6.413
 3304SOL     OW10495   2.244   0.700   6.066
 3304SOL    HW110496   2.289   0.610   6.063
 3304SOL    HW210497   2.150   0.689   6.099
 3305SOL     OW10498   3.409   0.222   7.315
 3305SOL    HW110499   3.404   0.259   7.407
 3305SOL    HW210500   3.337   0.153   7.303
 3306SOL     OW10501   2.476   0.122   5.703
 3306SOL    HW110502   2.574   0.100   5.710
 3306SOL    HW210503   2.445   0.105   5.610
 3307SOL     OW10504   2.643   0.264   7.335
 3307SOL    HW110505   2.710   0.203   7.378
 3307SOL    HW210506   2.570   0.283   7.400
 3308SOL     OW10507   2.750   1.514   6.781
 3308SOL    HW110508   2.727   1.489   6.687
 3308SOL    HW210509   2.811   1.445   6.820
 3309SOL     OW10510   3.213   0.590   7.019
 3309SOL    HW110511   3.241   0.547   7.104
 3309SOL    HW210512   3.238   0.686   7.020
 3310SOL     OW10513   2.665   1.402   6.510
 3310SOL    HW110514   2.755   1.416   6.468
 3310SOL    HW210515   2.594   1.404   6.439
 3311SOL     OW10516   2.784   0.503   6.485
 3311SOL    HW110517   2.759   0.494   6.389
 3311SOL    HW210518   2.832   0.421   6.516
 3312SOL     OW10519   2.401   0.064   6.098
 3312SOL    HW110520   2.320   0.065   6.156
 3312SOL    HW210521   2.404   0.147   6.043
 3313SOL     OW10522   3.296   1.188   5.627
 3313SOL    HW110523   3.328   1.112   5.684
 3313SOL    HW210524   3.204   1.215   5.657
 3314SOL     OW10525   2.159   0.035   5.757
 3314SOL    HW110526   2.208   0.119   5.736
 3314SOL    HW210527   2.221  -0.030   5.802
 3315SOL     OW10528   2.797   0.236   6.066
 3315SOL    HW110529   2.749   0.277   5.988
 3315SOL    HW210530   2.896   0.234   6.047
 3316SOL     OW10531   2.938   0.683   7.050
 3316SOL    HW110532   2.858   0.622   7.053
 3316SOL    HW210533   3.019   0.630   7.026
 3317SOL     OW10534   3.089   1.570   6.379
 3317SOL    HW110535   3.110   1.644   6.314
 3317SOL    HW210536   3.157   1.570   6.452
 3318SOL     OW10537   2.321   1.152   6.327
 3318SOL    HW110538   2.250   1.125   6.392
 3318SOL    HW210539   2.295   1.124   6.234
 3319SOL     OW10540   3.133   1.797   6.177
 3319SOL    HW110541   3.177   1.861   6.113
 3319SOL    HW210542   3.083   1.849   6.247
 3320SOL     OW10543   2.894   0.549   5.602
 3320SOL    HW110544   2.853   0.631   5.563
 3320SOL    HW210545   2.958   0.575   5.675
 3321SOL     OW10546   1.940   0.556   6.972
 3321SOL    HW110547   2.032   0.555   6.931
 3321SOL    HW210548   1.934   0.630   7.039
 3322SOL     OW10549   2.423   0.222   6.733
 3322SOL    HW110550   2.461   0.138   6.770
 3322SOL    HW210551   2.335   0.241   6.777
 3323SOL     OW10552   2.728   0.454   6.228
 3323SOL    HW110553   2.696   0.526   6.166
 3323SOL    HW210554   2.752   0.373   6.175
 3324SOL     OW10555   2.879   0.039   6.339
 3324SOL    HW110556   2.807   0.044   6.270
 3324SOL    HW210557   2.855  -0.030   6.408
 3325SOL     OW10558   3.291   1.173   6.453
 3325SOL    HW110559   3.236   1.089   6.446
 3325SOL    HW210560   3.317   1.202   6.361
 3326SOL     OW10561   3.328   0.590   6.578
 3326SOL    HW110562   3.298   0.495   6.585
 3326SOL    HW210563   3.401   0.606   6.644
 3327SOL     OW10564   3.719   0.833   5.963
 3327SOL    HW110565   3.761   0.769   6.027
 3327SOL    HW210566   3.681   0.782   5.885
 3328SOL     OW10567   2.350   1.385   5.760
 3328SOL    HW110568   2.263   1.370   5.807
 3328SOL    HW210569   2.333   1.411   5.665
 3329SOL     OW10570   3.526   1.280   6.243
 3329SOL    HW110571   3.625   1.288   6.257
 3329SOL    HW210572   3.481   1.364   6.274
 3330SOL     OW10573   3.252   0.575   5.664
 3330SOL    HW110574   3.198   0.554   5.745
 3330SOL    HW210575   3.343   0.534   5.673
 3331SOL     OW10576   2.389   0.256   5.914
 3331SOL    HW110577   2.416   0.197   5.839
 3331SOL    HW210578   2.389   0.351   5.883
 3332SOL     OW10579   3.616   1.223   7.174
 3332SOL    HW110580   3.707   1.184   7.161
 3332SOL    HW210581   3.624   1.319   7.198
 3333SOL     OW10582   2.926   1.347   6.926
 3333SOL    HW110583   2.846   1.324   6.981
 3333SOL    HW210584   3.009   1.321   6.975
 3334SOL     OW10585   3.454   1.629   7.211
 3334SOL    HW110586   3.481   1.663   7.121
 3334SOL    HW210587   3.533   1.591   7.257
 3335SOL     OW10588   2.973   1.195   6.686
 3335SOL    HW110589   2.933   1.239   6.767
 3335SOL    HW210590   2.932   1.232   6.603
 3336SOL     OW10591   3.500   1.099   6.665
 3336SOL    HW110592   3.505   1.180   6.724
 3336SOL    HW210593   3.414   1.101   6.614
 3337SOL     OW10594   2.777   0.089   6.988
 3337SOL    HW110595   2.802   0.069   6.893
 3337SOL    HW210596   2.849   0.145   7.030
 3338SOL     OW10597   2.842   1.116   7.305
 3338SOL    HW110598   2.743   1.122   7.315
 3338SOL    HW210599   2.865   1.036   7.249
 3339SOL     OW10600   2.567   1.050   5.954
 3339SOL    HW110601   2.553   1.057   6.053
 3339SOL    HW210602   2.651   0.999   5.936
 3340SOL     OW10603   2.272   0.813   6.837
 3340SOL    HW110604   2.358   0.825   6.887
 3340SOL    HW210605   2.230   0.726   6.864
 3341SOL     OW10606   3.136   0.386   6.848
 3341SOL    HW110607   3.157   0.460   6.912
 3341SOL    HW210608   3.047   0.403   6.805
 3342SOL     OW10609   1.926   1.564   6.917
 3342SOL    HW110610   1.880   1.646   6.883
 3342SOL    HW210611   2.024   1.583   6.926
 3343SOL     OW10612   2.229   1.100   6.087
 3343SOL    HW110613   2.222   1.183   6.031
 3343SOL    HW210614   2.233   1.020   6.027
 3344SOL     OW10615   2.428   0.537   6.451
 3344SOL    HW110616   2.440   0.603   6.377
 3344SOL    HW210617   2.474   0.571   6.534
 3345SOL     OW10618   3.114   1.348   5.974
 3345SOL    HW110619   3.164   1.425   6.014
 3345SOL    HW210620   3.019   1.350   6.006
 3346SOL     OW10621   3.134   1.445   6.728
 3346SOL    HW110622   3.181   1.458   6.815
 3346SOL    HW210623   3.068   1.371   6.737
 3347SOL     OW10624   3.444   0.639   6.058
 3347SOL    HW110625   3.413   0.700   6.131
 3347SOL    HW210626   3.494   0.691   5.989
 3348SOL     OW10627   2.216   1.510   6.915
 3348SOL    HW110628   2.195   1.466   6.828
 3348SOL    HW210629   2.313   1.536   6.918
 3349SOL     OW10630   2.264   0.751   7.184
 3349SOL    HW110631   2.332   0.806   7.137
 3349SOL    HW210632   2.304   0.663   7.211
 3350SOL     OW10633   3.449   0.779   7.256
 3350SOL    HW110634   3.357   0.817   7.251
 3350SOL    HW210635   3.509   0.826   7.191
 3351SOL     OW10636   2.875   0.105   7.356
 3351SOL    HW110637   2.881   0.190   7.304
 3351SOL    HW210638   2.907   0.029   7.299
 3352SOL     OW10639   2.366   0.050   7.326
 3352SOL    HW110640   2.324  -0.007   7.256
 3352SOL    HW210641   2.300   0.119   7.358
 3353SOL     OW10642   2.435   0.870   6.615
 3353SOL    HW110643   2.479   0.959   6.606
 3353SOL    HW210644   2.372   0.870   6.692
 3354SOL     OW10645   3.222   0.862   6.631
 3354SOL    HW110646   3.147   0.862   6.565
 3354SOL    HW210647   3.259   0.770   6.640
 3355SOL     OW10648   3.071   0.525   5.861
 3355SOL    HW110649   3.084   0.441   5.915
 3355SOL    HW210650   3.042   0.599   5.921
 3356SOL     OW10651   2.169   0.213   6.817
 3356SOL    HW110652   2.146   0.250   6.907
 3356SOL    HW210653   2.139   0.118   6.811
 3357SOL     OW10654   1.899   1.310   6.868
 3357SOL    HW110655   1.952   1.261   6.936
 3357SOL    HW210656   1.921   1.408   6.873
 3358SOL     OW10657   2.594   0.634   6.650
 3358SOL    HW110658   2.653   0.608   6.574
 3358SOL    HW210659   2.566   0.730   6.639
 3359SOL     OW10660   3.590   0.935   7.440
 3359SOL    HW110661   3.544   0.928   7.351
 3359SOL    HW210662   3.528   0.979   7.506
 3360SOL     OW10663   2.169   0.063   6.204
 3360SOL    HW110664   2.158   0.157   6.237
 3360SOL    HW210665   2.164   0.000   6.281
 3361SOL     OW10666   3.484   0.367   5.960
 3361SOL    HW110667   3.486   0.291   6.024
 3361SOL    HW210668   3.436   0.444   6.000
 3362SOL     OW10669   2.885   0.766   6.552
 3362SOL    HW110670   2.900   0.787   6.648
 3362SOL    HW210671   2.855   0.671   6.543
 3363SOL     OW10672   2.842   1.573   7.286
 3363SOL    HW110673   2.822   1.617   7.198
 3363SOL    HW210674   2.881   1.482   7.270
 3364SOL     OW10675   3.721   1.518   7.191
 3364SOL    HW110676   3.735   1.545   7.096
 3364SOL    HW210677   3.804   1.540   7.244
 3365SOL     OW10678   2.212   0.898   7.390
 3365SOL    HW110679   2.288   0.942   7.438
 3365SOL    HW210680   2.247   0.851   7.308
 3366SOL     OW10681   3.402   0.274   5.711
 3366SOL    HW110682   3.341   0.199   5.734
 3366SOL    HW210683   3.424   0.326   5.794
 3367SOL     OW10684   3.165   0.838   5.628
 3367SOL    HW110685   3.199   0.745   5.643
 3367SOL    HW210686   3.183   0.865   5.533
 3368SOL     OW10687   2.930   1.333   6.435
 3368SOL    HW110688   2.937   1.249   6.380
 3368SOL    HW210689   2.992   1.402   6.399
 3369SOL     OW10690   2.181   0.810   6.535
 3369SOL    HW110691   2.274   0.846   6.540
 3369SOL    HW210692   2.175   0.725   6.587
 3370SOL     OW10693   2.201   0.509   6.592
 3370SOL    HW110694   2.149   0.426   6.575
 3370SOL    HW210695   2.278   0.514   6.528
 3371SOL     OW10696   3.000   0.380   7.264
 3371SOL    HW110697   2.955   0.443   7.328
 3371SOL    HW210698   3.093   0.411   7.247
 3372SOL     OW10699   3.022   0.207   7.063
 3372SOL    HW110700   3.022   0.271   7.140
 3372SOL    HW210701   3.050   0.255   6.980
 3373SOL     OW10702   1.870   1.326   5.786
 3373SOL    HW110703   1.777   1.347   5.755
 3373SOL    HW210704   1.880   1.227   5.799
 3374SOL     OW10705   1.950   1.801   6.513
 3374SOL    HW110706   1.908   1.715   6.486
 3374SOL    HW210707   2.044   1.804   6.479
 3375SOL     OW10708   2.366   1.568   6.496
 3375SOL    HW110709   2.432   1.642   6.505
 3375SOL    HW210710   2.410   1.489   6.454
 3376SOL     OW10711   2.864   0.796   6.824
 3376SOL    HW110712   2.905   0.764   6.910
 3376SOL    HW210713   2.768   0.769   6.821
 3377SOL     OW10714   1.902   0.544   6.700
 3377SOL    HW110715   1.987   0.511   6.659
 3377SOL    HW210716   1.915   0.559   6.798
 3378SOL     OW10717   2.051   0.520   7.308
 3378SOL    HW110718   2.110   0.480   7.238
 3378SOL    HW210719   1.993   0.591   7.267
 3379SOL     OW10720   3.231   0.950   7.246
 3379SOL    HW110721   3.270   1.039   7.266
 3379SOL    HW210722   3.241   0.930   7.149
 3380SOL     OW10723   2.677   0.572   5.911
 3380SOL    HW110724   2.684   0.483   5.865
 3380SOL    HW210725   2.583   0.606   5.903
 3381SOL     OW10726   3.519   0.604   6.792
 3381SOL    HW110727   3.481   0.535   6.854
 3381SOL    HW210728   3.601   0.568   6.748
 3382SOL     OW10729   2.114   1.564   7.330
 3382SOL    HW110730   2.084   1.621   7.406
 3382SOL    HW210731   2.107   1.467   7.356
 3383SOL     OW10732   2.533   0.464   6.855
 3383SOL    HW110733   2.499   0.375   6.825
 3383SOL    HW210734   2.559   0.518   6.775
 3384SOL     OW10735   2.792   1.678   7.051
 3384SOL    HW110736   2.768   1.660   6.956
 3384SOL    HW210737   2.822   1.772   7.061
 3385SOL     OW10738   2.335   0.500   5.777
 3385SOL    HW110739   2.396   0.580   5.781
 3385SOL    HW210740   2.240   0.531   5.784
 3386SOL     OW10741   2.021   1.137   7.052
 3386SOL    HW110742   2.043   1.076   7.128
 3386SOL    HW210743   2.031   1.088   6.966
 3387SOL     OW10744   3.209   1.059   6.820
 3387SOL    HW110745   3.233   0.996   6.746
 3387SOL    HW210746   3.119   1.099   6.802
 3388SOL     OW10747   3.164   0.855   5.895
 3388SOL    HW110748   3.078   0.824   5.937
 3388SOL    HW210749   3.160   0.841   5.796
 3389SOL     OW10750   3.621   1.747   6.740
 3389SOL    HW110751   3.682   1.777   6.667
 3389SOL    HW210752   3.583   1.658   6.718
 3390SOL     OW10753   3.114   1.731   6.714
 3390SOL    HW110754   3.198   1.736   6.660
 3390SOL    HW210755   3.091   1.635   6.732
 3391SOL     OW10756   1.945   1.258   6.608
 3391SOL    HW110757   1.940   1.257   6.708
 3391SOL    HW210758   1.862   1.217   6.570
 3392SOL     OW10759   2.550   1.662   7.302
 3392SOL    HW110760   2.494   1.743   7.311
 3392SOL    HW210761   2.602   1.666   7.216
 3393SOL     OW10762   3.588   0.135   6.109
 3393SOL    HW110763   3.661   0.118   6.042
 3393SOL    HW210764   3.557   0.048   6.147
 3394SOL     OW10765   3.250   1.573   6.063
 3394SOL    HW110766   3.317   1.585   5.989
 3394SOL    HW210767   3.210   1.662   6.086
 3395SOL     OW10768   1.992   1.794   7.437
 3395SOL    HW110769   1.951   1.720   7.490
 3395SOL    HW210770   2.056   1.845   7.495
 3396SOL     OW10771   3.142   0.927   6.258
 3396SOL    HW110772   3.202   0.846   6.260
 3396SOL    HW210773   3.182   0.996   6.198
 3397SOL     OW10774   2.692   1.273   7.008
 3397SOL    HW110775   2.687   1.306   7.103
 3397SOL    HW210776   2.606   1.292   6.962
 3398SOL     OW10777   2.534   1.616   5.740
 3398SOL    HW110778   2.543   1.626   5.641
 3398SOL    HW210779   2.494   1.527   5.761
 3399SOL     OW10780   3.512   1.720   6.980
 3399SOL    HW110781   3.565   1.730   6.896
 3399SOL    HW210782   3.485   1.810   7.014
 3400SOL     OW10783   3.703   0.175   6.549
 3400SOL    HW110784   3.742   0.090   6.513
 3400SOL    HW210785   3.605   0.177   6.530
 3401SOL     OW10786   2.125   0.326   6.306
 3401SOL    HW110787   2.046   0.377   6.272
 3401SOL    HW210788   2.116   0.311   6.404
 3402SOL     OW10789   3.056   1.612   5.617
 3402SOL    HW110790   3.062   1.519   5.654
 3402SOL    HW210791   2.997   1.612   5.537
 3403SOL     OW10792   2.684   1.002   6.958
 3403SOL    HW110793   2.724   1.001   6.866
 3403SOL    HW210794   2.694   1.094   6.998
 3404SOL     OW10795   2.778   0.910   5.877
 3404SOL    HW110796   2.841   0.948   5.809
 3404SOL    HW210797   2.818   0.827   5.916
 3405SOL     OW10798   3.366   1.607   5.630
 3405SOL    HW110799   3.274   1.644   5.637
 3405SOL    HW210800   3.404   1.627   5.540
 3406SOL     OW10801   2.234   1.288   7.076
 3406SOL    HW110802   2.221   1.381   7.042
 3406SOL    HW210803   2.150   1.236   7.063
 3407SOL     OW10804   3.476   1.292   6.875
 3407SOL    HW110805   3.536   1.295   6.955
 3407SOL    HW210806   3.401   1.356   6.888
 3408SOL     OW10807   2.901   1.098   6.282
 3408SOL    HW110808   2.831   1.051   6.336
 3408SOL    HW210809   2.960   1.030   6.239
 3409SOL     OW10810   2.876   0.236   6.557
 3409SOL    HW110811   2.868   0.200   6.464
 3409SOL    HW210812   2.874   0.160   6.622
 3410SOL     OW10813   2.452   1.487   6.077
 3410SOL    HW110814   2.494   1.429   6.007
 3410SOL    HW210815   2.408   1.566   6.033
 3411SOL     OW10816   3.571   0.385   6.967
 3411SOL    HW110817   3.644   0.454   6.971
 3411SOL    HW210818   3.599   0.310   6.908
 3412SOL     OW10819   2.117   1.348   5.876
 3412SOL    HW110820   2.021   1.349   5.849
 3412SOL    HW210821   2.129   1.401   5.960
 3413SOL     OW10822   1.967   1.013   7.312
 3413SOL    HW110823   1.890   0.980   7.366
 3413SOL    HW210824   2.052   0.983   7.354
 3414SOL     OW10825   2.534   0.203   7.075
 3414SOL    HW110826   2.624   0.187   7.035
 3414SOL    HW210827   2.542   0.208   7.174
 3415SOL     OW10828   1.937   0.345   5.619
 3415SOL    HW110829   1.845   0.317   5.590
 3415SOL    HW210830   1.968   0.422   5.563
 3416SOL     OW10831   3.302   0.856   6.984
 3416SOL    HW110832   3.245   0.908   6.921
 3416SOL    HW210833   3.398   0.868   6.960
 3417SOL     OW10834   1.934   0.166   5.904
 3417SOL    HW110835   1.917   0.249   5.850
 3417SOL    HW210836   2.024   0.129   5.882
 3418SOL     OW10837   3.045   1.335   5.705
 3418SOL    HW110838   2.946   1.324   5.707
 3418SOL    HW210839   3.079   1.350   5.798
 3419SOL     OW10840   2.475   0.842   7.017
 3419SOL    HW110841   2.531   0.923   7.000
 3419SOL    HW210842   2.534   0.762   7.020
 3420SOL     OW10843   3.355   1.767   6.545
 3420SOL    HW110844   3.388   1.831   6.476
 3420SOL    HW210845   3.421   1.761   6.620
 3421SOL     OW10846   2.578   0.565   7.294
 3421SOL    HW110847   2.597   0.630   7.368
 3421SOL    HW210848   2.638   0.485   7.303
 3422SOL     OW10849   3.312   1.220   7.219
 3422SOL    HW110850   3.303   1.210   7.318
 3422SOL    HW210851   3.408   1.213   7.193
 3423SOL     OW10852   2.252   1.741   7.146
 3423SOL    HW110853   2.161   1.782   7.144
 3423SOL    HW210854   2.245   1.647   7.178
 3424SOL     OW10855   3.536   0.883   6.840
 3424SOL    HW110856   3.509   0.794   6.803
 3424SOL    HW210857   3.537   0.951   6.767
 3425SOL     OW10858   3.087   0.325   6.035
 3425SOL    HW110859   3.152   0.251   6.024
 3425SOL    HW210860   3.107   0.375   6.119
 3426SOL     OW10861   2.456   0.745   6.238
 3426SOL    HW110862   2.506   0.830   6.219
 3426SOL    HW210863   2.368   0.747   6.190
 3427SOL     OW10864   3.639   0.342   7.228
 3427SOL    HW110865   3.622   0.373   7.134
 3427SOL    HW210866   3.555   0.305   7.266
 3428SOL     OW10867   3.592   0.934   7.103
 3428SOL    HW110868   3.630   1.025   7.118
 3428SOL    HW210869   3.584   0.917   7.004
 3429SOL     OW10870   2.721   1.374   5.602
 3429SOL    HW110871   2.675   1.389   5.690
 3429SOL    HW210872   2.765   1.459   5.572
 3430SOL     OW10873   2.523   1.790   6.539
 3430SOL    HW110874   2.477   1.878   6.526
 3430SOL    HW210875   2.622   1.802   6.532
 3431SOL     OW10876   2.721   0.956   6.447
 3431SOL    HW110877   2.775   0.887   6.495
 3431SOL    HW210878   2.689   1.025   6.513
 3432SOL     OW10879   2.945   0.984   5.673
 3432SOL    HW110880   2.922   1.037   5.591
 3432SOL    HW210881   3.026   0.928   5.654
 3433SOL     OW10882   3.723   1.569   6.437
 3433SOL    HW110883   3.652   1.557   6.367
 3433SOL    HW210884   3.724   1.490   6.497
 3434SOL     OW10885   2.083   1.314   7.430
 3434SOL    HW110886   2.018   1.241   7.409
 3434SOL    HW210887   2.087   1.328   7.528
 3435SOL     OW10888   1.941   1.240   6.239
 3435SOL    HW110889   1.940   1.193   6.327
 3435SOL    HW210890   2.023   1.212   6.188
 3436SOL     OW10891   2.534   1.391   7.210
 3436SOL    HW110892   2.456   1.341   7.248
 3436SOL    HW210893   2.531   1.486   7.241
 3437SOL     OW10894   3.686   0.192   6.813
 3437SOL    HW110895   3.682   0.102   6.857
 3437SOL    HW210896   3.689   0.181   6.714
 3438SOL     OW10897   2.290   0.424   6.106
 3438SOL    HW110898   2.320   0.352   6.044
 3438SOL    HW210899   2.251   0.384   6.189
 3439SOL     OW10900   3.567   1.487   6.690
 3439SOL    HW110901   3.474   1.462   6.663
 3439SOL    HW210902   3.593   1.437   6.772
 3440SOL     OW10903   2.179   0.547   6.866
 3440SOL    HW110904   2.217   0.488   6.938
 3440SOL    HW210905   2.219   0.521   6.778
 3441SOL     OW10906   2.674   1.586   6.273
 3441SOL    HW110907   2.706   1.596   6.179
 3441SOL    HW210908   2.595   1.524   6.275
 3442SOL     OW10909   3.286   0.214   6.698
 3442SOL    HW110910   3.338   0.149   6.753
 3442SOL    HW210911   3.237   0.277   6.759
 3443SOL     OW10912   2.863   0.034   6.740
 3443SOL    HW110913   2.800  -0.038   6.709
 3443SOL    HW210914   2.956  -0.002   6.740
 3444SOL     OW10915   2.632   1.330   5.887
 3444SOL    HW110916   2.586   1.243   5.904
 3444SOL    HW210917   2.723   1.327   5.928
 3445SOL     OW10918   2.480   1.567   6.870
 3445SOL    HW110919   2.475   1.649   6.927
 3445SOL    HW210920   2.569   1.564   6.825
 3446SOL     OW10921   3.214   0.052   5.754
 3446SOL    HW110922   3.249   0.011   5.670
 3446SOL    HW210923   3.124   0.014   5.774
 3447SOL     OW10924   3.162   0.453   6.277
 3447SOL    HW110925   3.103   0.533   6.281
 3447SOL    HW210926   3.177   0.418   6.370
 3448SOL     OW10927   3.455   0.221   6.468
 3448SOL    HW110928   3.371   0.220   6.522
 3448SOL    HW210929   3.457   0.304   6.412
 3449SOL     OW10930   1.901   1.077   5.886
 3449SOL    HW110931   2.000   1.066   5.877
 3449SOL    HW210932   1.861   0.991   5.918
 3450SOL     OW10933   2.737   1.646   5.923
 3450SOL    HW110934   2.660   1.611   5.869
 3450SOL    HW210935   2.705   1.717   5.985
 3451SOL     OW10936   2.092   0.628   7.561
 3451SOL    HW110937   1.999   0.626   7.598
 3451SOL    HW210938   2.093   0.589   7.469
 3452SOL     OW10939   3.617   0.607   7.679
 3452SOL    HW110940   3.605   0.594   7.580
 3452SOL    HW210941   3.587   0.526   7.728
 3453SOL     OW10942   2.093   1.713   7.931
 3453SOL    HW110943   2.127   1.790   7.985
 3453SOL    HW210944   2.137   1.713   7.841
 3454SOL     OW10945   2.092   1.434   7.986
 3454SOL    HW110946   2.066   1.530   7.986
 3454SOL    HW210947   2.021   1.380   8.031
 3455SOL     OW10948   2.468   0.964   7.571
 3455SOL    HW110949   2.475   1.048   7.517
 3455SOL    HW210950   2.514   0.977   7.659
 3456SOL     OW10951   3.704   1.767   7.807
 3456SOL    HW110952   3.758   1.738   7.887
 3456SOL    HW210953   3.734   1.857   7.778
 3457SOL     OW10954   1.889   1.596   7.565
 3457SOL    HW110955   1.870   1.500   7.586
 3457SOL    HW210956   1.856   1.654   7.640
 3458SOL     OW10957   3.551   0.922   8.060
 3458SOL    HW110958   3.646   0.893   8.068
 3458SOL    HW210959   3.543   0.987   7.985
 3459SOL     OW10960   3.503   1.108   7.880
 3459SOL    HW110961   3.589   1.110   7.828
 3459SOL    HW210962   3.517   1.155   7.968
 3460SOL     OW10963   2.671   0.004   7.950
 3460SOL    HW110964   2.711   0.095   7.941
 3460SOL    HW210965   2.571   0.012   7.956
 3461SOL     OW10966   3.387   0.999   7.638
 3461SOL    HW110967   3.324   0.923   7.651
 3461SOL    HW210968   3.435   1.017   7.724
 3462SOL     OW10969   2.460   0.729   7.718
 3462SOL    HW110970   2.484   0.798   7.650
 3462SOL    HW210971   2.382   0.762   7.772
 3463SOL     OW10972   3.438   1.662   7.755
 3463SOL    HW110973   3.527   1.708   7.758
 3463SOL    HW210974   3.417   1.638   7.660
 3464SOL     OW10975   1.938   0.811   8.237
 3464SOL    HW110976   2.037   0.799   8.246
 3464SOL    HW210977   1.914   0.906   8.258
 3465SOL     OW10978   2.727   0.348   7.643
 3465SOL    HW110979   2.786   0.411   7.594
 3465SOL    HW210980   2.746   0.254   7.614
 3466SOL     OW10981   2.183   0.943   7.690
 3466SOL    HW110982   2.265   0.982   7.648
 3466SOL    HW210983   2.156   0.861   7.641
 3467SOL     OW10984   2.973   1.776   7.685
 3467SOL    HW110985   2.913   1.714   7.735
 3467SOL    HW210986   3.004   1.732   7.600
 3468SOL     OW10987   3.494   1.377   7.529
 3468SOL    HW110988   3.462   1.471   7.519
 3468SOL    HW210989   3.418   1.314   7.517
 3469SOL     OW10990   2.326   1.743   7.771
 3469SOL    HW110991   2.359   1.782   7.857
 3469SOL    HW210992   2.402   1.736   7.706
 3470SOL     OW10993   3.262   0.107   7.874
 3470SOL    HW110994   3.238   0.070   7.784
 3470SOL    HW210995   3.361   0.123   7.878
 3471SOL     OW10996   2.244   0.700   7.928
 3471SOL    HW110997   2.289   0.610   7.925
 3471SOL    HW210998   2.150   0.689   7.961
 3472SOL     OW10999   2.476   0.122   7.565
 3472SOL    HW111000   2.574   0.100   7.572
 3472SOL    HW211001   2.445   0.105   7.472
 3473SOL     OW11002   2.401   0.064   7.960
 3473SOL    HW111003   2.320   0.065   8.018
 3473SOL    HW211004   2.404   0.147   7.905
 3474SOL     OW11005   3.296   1.188   7.489
 3474SOL    HW111006   3.328   1.112   7.546
 3474SOL    HW211007   3.204   1.215   7.519
 3475SOL     OW11008   2.159   0.035   7.619
 3475SOL    HW111009   2.208   0.119   7.598
 3475SOL    HW211010   2.221  -0.030   7.664
 3476SOL     OW11011   2.797   0.236   7.928
 3476SOL    HW111012   2.749   0.277   7.850
 3476SOL    HW211013   2.896   0.234   7.909
 3477SOL     OW11014   2.321   1.152   8.189
 3477SOL    HW111015   2.250   1.125   8.254
 3477SOL    HW211016   2.295   1.124   8.096
 3478SOL     OW11017   3.133   1.797   8.039
 3478SOL    HW111018   3.177   1.861   7.975
 3478SOL    HW211019   3.083   1.849   8.109
 3479SOL     OW11020   2.894   0.549   7.464
 3479SOL    HW111021   2.853   0.631   7.425
 3479SOL    HW211022   2.958   0.575   7.537
 3480SOL     OW11023   3.719   0.833   7.825
 3480SOL    HW111024   3.761   0.769   7.889
 3480SOL    HW211025   3.681   0.782   7.747
 3481SOL     OW11026   2.350   1.385   7.622
 3481SOL    HW111027   2.263   1.370   7.669
 3481SOL    HW211028   2.333   1.411   7.527
 3482SOL     OW11029   3.252   0.575   7.526
 3482SOL    HW111030   3.198   0.554   7.607
 3482SOL    HW211031   3.343   0.534   7.535
 3483SOL     OW11032   2.389   0.256   7.776
 3483SOL    HW111033   2.416   0.197   7.701
 3483SOL    HW211034   2.389   0.351   7.745
 3484SOL     OW11035   2.567   1.050   7.816
 3484SOL    HW111036   2.553   1.057   7.915
 3484SOL    HW211037   2.651   0.999   7.798
 3485SOL     OW11038   2.229   1.100   7.949
 3485SOL    HW111039   2.222   1.183   7.893
 3485SOL    HW211040   2.233   1.020   7.889
 3486SOL     OW11041   3.114   1.348   7.836
 3486SOL    HW111042   3.164   1.425   7.876
 3486SOL    HW211043   3.019   1.350   7.868
 3487SOL     OW11044   3.444   0.639   7.920
 3487SOL    HW111045   3.413   0.700   7.993
 3487SOL    HW211046   3.494   0.691   7.851
 3488SOL     OW11047   3.071   0.525   7.723
 3488SOL    HW111048   3.084   0.441   7.777
 3488SOL    HW211049   3.042   0.599   7.783
 3489SOL     OW11050   3.484   0.367   7.822
 3489SOL    HW111051   3.486   0.291   7.886
 3489SOL    HW211052   3.436   0.444   7.862
 3490SOL     OW11053   3.402   0.274   7.573
 3490SOL    HW111054   3.341   0.199   7.596
 3490SOL    HW211055   3.424   0.326   7.656
 3491SOL     OW11056   3.165   0.838   7.490
 3491SOL    HW111057   3.199   0.745   7.505
 3491SOL    HW211058   3.183   0.865   7.395
 3492SOL     OW11059   1.870   1.326   7.648
 3492SOL    HW111060   1.777   1.347   7.617
 3492SOL    HW211061   1.880   1.227   7.661
 3493SOL     OW11062   2.677   0.572   7.773
 3493SOL    HW111063   2.684   0.483   7.727
 3493SOL    HW211064   2.583   0.606   7.765
 3494SOL     OW11065   2.335   0.500   7.639
 3494SOL    HW111066   2.396   0.580   7.643
 3494SOL    HW211067   2.240   0.531   7.646
 3495SOL     OW11068   3.164   0.855   7.757
 3495SOL    HW111069   3.078   0.824   7.799
 3495SOL    HW211070   3.160   0.841   7.658
 3496SOL     OW11071   3.588   0.135   7.971
 3496SOL    HW111072   3.661   0.118   7.904
 3496SOL    HW211073   3.557   0.048   8.009
 3497SOL     OW11074   3.250   1.573   7.925
 3497SOL    HW111075   3.317   1.585   7.851
 3497SOL    HW211076   3.210   1.662   7.948
 3498SOL     OW11077   2.534   1.616   7.602
 3498SOL    HW111078   2.543   1.626   7.503
 3498SOL    HW211079   2.494   1.527   7.623
 3499SOL     OW11080   3.056   1.612   7.479
 3499SOL    HW111081   3.062   1.519   7.516
 3499SOL    HW211082   2.997   1.612   7.399
 3500SOL     OW11083   2.778   0.910   7.739
 3500SOL    HW111084   2.841   0.948   7.671
 3500SOL    HW211085   2.818   0.827   7.778
 3501SOL     OW11086   3.366   1.607   7.492
 3501SOL    HW111087   3.274   1.644   7.499
 3501SOL    HW211088   3.404   1.627   7.402
 3502SOL     OW11089   2.452   1.487   7.939
 3502SOL    HW111090   2.494   1.429   7.869
 3502SOL    HW211091   2.408   1.566   7.895
 3503SOL     OW11092   2.117   1.348   7.738
 3503SOL    HW111093   2.021   1.349   7.711
 3503SOL    HW211094   2.129   1.401   7.822
 3504SOL     OW11095   1.937   0.345   7.481
 3504SOL    HW111096   1.845   0.317   7.452
 3504SOL    HW211097   1.968   0.422   7.425
 3505SOL     OW11098   1.934   0.166   7.766
 3505SOL    HW111099   1.917   0.249   7.712
 3505SOL    HW211100   2.024   0.129   7.744
 3506SOL     OW11101   3.045   1.335   7.567
 3506SOL    HW111102   2.946   1.324   7.569
 3506SOL    HW211103   3.079   1.350   7.660
 3507SOL     OW11104   3.087   0.325   7.897
 3507SOL    HW111105   3.152   0.251   7.886
 3507SOL    HW211106   3.107   0.375   7.981
 3508SOL     OW11107   2.456   0.745   8.100
 3508SOL    HW111108   2.506   0.830   8.081
 3508SOL    HW211109   2.368   0.747   8.052
 3509SOL     OW11110   2.721   1.374   7.464
 3509SOL    HW111111   2.675   1.389   7.552
 3509SOL    HW211112   2.765   1.459   7.434
 3510SOL     OW11113   2.945   0.984   7.535
 3510SOL    HW111114   2.922   1.037   7.453
 3510SOL    HW211115   3.026   0.928   7.516
 3511SOL     OW11116   2.290   0.424   7.968
 3511SOL    HW111117   2.320   0.352   7.906
 3511SOL    HW211118   2.251   0.384   8.051
 3512SOL     OW11119   2.632   1.330   7.749
 3512SOL    HW111120   2.586   1.243   7.766
 3512SOL    HW211121   2.723   1.327   7.790
 3513SOL     OW11122   3.214   0.052   7.616
 3513SOL    HW111123   3.249   0.011   7.532
 3513SOL    HW211124   3.124   0.014   7.636
 3514SOL     OW11125   1.901   1.077   7.748
 3514SOL    HW111126   2.000   1.066   7.739
 3514SOL    HW211127   1.861   0.991   7.780
 3515SOL     OW11128   2.737   1.646   7.785
 3515SOL    HW111129   2.660   1.611   7.731
 3515SOL    HW211130   2.705   1.717   7.847
 3516SOL     OW11131   2.092   2.490   0.113
 3516SOL    HW111132   1.999   2.488   0.150
 3516SOL    HW211133   2.093   2.451   0.021
 3517SOL     OW11134   2.087   2.137   0.996
 3517SOL    HW111135   2.122   2.120   1.088
 3517SOL    HW211136   1.999   2.092   0.984
 3518SOL     OW11137   1.881   2.230   0.647
 3518SOL    HW111138   1.799   2.273   0.686
 3518SOL    HW211139   1.853   2.157   0.584
 3519SOL     OW11140   2.431   3.137   1.165
 3519SOL    HW111141   2.338   3.130   1.128
 3519SOL    HW211142   2.442   3.226   1.209
 3520SOL     OW11143   3.417   3.373   0.703
 3520SOL    HW111144   3.360   3.357   0.784
 3520SOL    HW211145   3.358   3.383   0.623
 3521SOL     OW11146   2.997   2.565   0.717
 3521SOL    HW111147   3.054   2.643   0.692
 3521SOL    HW211148   2.937   2.591   0.793
 3522SOL     OW11149   3.617   2.469   0.231
 3522SOL    HW111150   3.605   2.456   0.132
 3522SOL    HW211151   3.587   2.388   0.280
 3523SOL     OW11152   2.548   3.023   1.803
 3523SOL    HW111153   2.608   3.102   1.817
 3523SOL    HW211154   2.462   3.054   1.762
 3524SOL     OW11155   2.197   3.297   1.061
 3524SOL    HW111156   2.119   3.266   1.008
 3524SOL    HW211157   2.255   3.355   1.004
 3525SOL     OW11158   3.322   3.367   1.339
 3525SOL    HW111159   3.346   3.461   1.365
 3525SOL    HW211160   3.306   3.313   1.421
 3526SOL     OW11161   2.300   2.254   1.499
 3526SOL    HW111162   2.382   2.198   1.508
 3526SOL    HW211163   2.219   2.196   1.503
 3527SOL     OW11164   3.465   2.309   0.737
 3527SOL    HW111165   3.391   2.355   0.687
 3527SOL    HW211166   3.516   2.377   0.790
 3528SOL     OW11167   2.093   3.575   0.483
 3528SOL    HW111168   2.127   3.652   0.537
 3528SOL    HW211169   2.137   3.575   0.393
 3529SOL     OW11170   2.989   3.203   1.690
 3529SOL    HW111171   3.036   3.203   1.778
 3529SOL    HW211172   2.941   3.116   1.679
 3530SOL     OW11173   2.092   3.296   0.538
 3530SOL    HW111174   2.066   3.392   0.538
 3530SOL    HW211175   2.021   3.242   0.583
 3531SOL     OW11176   2.102   2.953   0.886
 3531SOL    HW111177   2.116   2.869   0.938
 3531SOL    HW211178   2.047   3.017   0.941
 3532SOL     OW11179   2.482   3.648   1.439
 3532SOL    HW111180   2.390   3.631   1.474
 3532SOL    HW211181   2.510   3.740   1.465
 3533SOL     OW11182   3.456   1.976   1.480
 3533SOL    HW111183   3.438   2.043   1.408
 3533SOL    HW211184   3.453   2.022   1.569
 3534SOL     OW11185   1.984   2.505   0.563
 3534SOL    HW111186   1.939   2.417   0.580
 3534SOL    HW211187   1.983   2.559   0.647
 3535SOL     OW11188   3.704   3.629   0.359
 3535SOL    HW111189   3.758   3.600   0.439
 3535SOL    HW211190   3.734   3.719   0.330
 3536SOL     OW11191   1.889   3.458   0.117
 3536SOL    HW111192   1.870   3.362   0.138
 3536SOL    HW211193   1.856   3.516   0.192
 3537SOL     OW11194   3.551   2.784   0.612
 3537SOL    HW111195   3.646   2.755   0.620
 3537SOL    HW211196   3.543   2.849   0.537
 3538SOL     OW11197   3.503   2.970   0.432
 3538SOL    HW111198   3.589   2.972   0.380
 3538SOL    HW211199   3.517   3.017   0.520
 3539SOL     OW11200   1.975   2.599   1.597
 3539SOL    HW111201   2.063   2.586   1.642
 3539SOL    HW211202   1.962   2.696   1.575
 3540SOL     OW11203   2.475   3.227   0.726
 3540SOL    HW111204   2.426   3.140   0.735
 3540SOL    HW211205   2.452   3.270   0.639
 3541SOL     OW11206   3.155   3.090   1.423
 3541SOL    HW111207   3.192   3.017   1.365
 3541SOL    HW211208   3.207   3.095   1.508
 3542SOL     OW11209   2.671   1.866   0.502
 3542SOL    HW111210   2.711   1.957   0.493
 3542SOL    HW211211   2.571   1.874   0.508
 3543SOL     OW11212   2.059   2.838   1.264
 3543SOL    HW111213   2.148   2.793   1.250
 3543SOL    HW211214   1.986   2.773   1.245
 3544SOL     OW11215   3.387   2.861   0.190
 3544SOL    HW111216   3.324   2.785   0.203
 3544SOL    HW211217   3.435   2.879   0.276
 3545SOL     OW11218   3.049   3.654   1.616
 3545SOL    HW111219   3.073   3.714   1.540
 3545SOL    HW211220   3.056   3.559   1.586
 3546SOL     OW11221   2.179   2.113   1.801
 3546SOL    HW111222   2.250   2.184   1.807
 3546SOL    HW211223   2.091   2.152   1.829
 3547SOL     OW11224   3.328   3.279   0.953
 3547SOL    HW111225   3.269   3.285   1.033
 3547SOL    HW211226   3.313   3.191   0.907
 3548SOL     OW11227   3.529   3.576   0.572
 3548SOL    HW111228   3.488   3.553   0.484
 3548SOL    HW211229   3.511   3.502   0.637
 3549SOL     OW11230   3.143   2.207   0.944
 3549SOL    HW111231   3.057   2.157   0.931
 3549SOL    HW211232   3.205   2.153   1.000
 3550SOL     OW11233   3.438   3.524   0.307
 3550SOL    HW111234   3.527   3.570   0.310
 3550SOL    HW211235   3.417   3.500   0.212
 3551SOL     OW11236   3.256   2.331   1.674
 3551SOL    HW111237   3.236   2.374   1.762
 3551SOL    HW211238   3.334   2.269   1.683
 3552SOL     OW11239   2.853   2.272   1.242
 3552SOL    HW111240   2.776   2.306   1.296
 3552SOL    HW211241   2.819   2.221   1.163
 3553SOL     OW11242   1.938   2.673   0.789
 3553SOL    HW111243   2.037   2.661   0.798
 3553SOL    HW211244   1.914   2.768   0.810
 3554SOL     OW11245   1.992   3.683   1.571
 3554SOL    HW111246   1.982   3.668   1.670
 3554SOL    HW211247   1.906   3.719   1.535
 3555SOL     OW11248   2.727   2.210   0.195
 3555SOL    HW111249   2.786   2.273   0.146
 3555SOL    HW211250   2.746   2.116   0.166
 3556SOL     OW11251   3.581   2.447   1.831
 3556SOL    HW111252   3.555   2.536   1.795
 3556SOL    HW211253   3.579   2.379   1.758
 3557SOL     OW11254   3.224   3.006   0.545
 3557SOL    HW111255   3.307   2.977   0.497
 3557SOL    HW211256   3.175   3.073   0.489
 3558SOL     OW11257   2.412   2.058   0.885
 3558SOL    HW111258   2.407   2.053   0.985
 3558SOL    HW211259   2.414   2.154   0.856
 3559SOL     OW11260   2.870   3.318   0.477
 3559SOL    HW111261   2.824   3.390   0.425
 3559SOL    HW211262   2.866   3.338   0.575
 3560SOL     OW11263   2.213   3.663   0.853
 3560SOL    HW111264   2.263   3.577   0.859
 3560SOL    HW211265   2.278   3.740   0.850
 3561SOL     OW11266   3.657   2.928   0.873
 3561SOL    HW111267   3.595   2.913   0.797
 3561SOL    HW211268   3.605   2.939   0.958
 3562SOL     OW11269   3.089   3.412   1.506
 3562SOL    HW111270   3.095   3.335   1.570
 3562SOL    HW211271   3.037   3.386   1.426
 3563SOL     OW11272   2.183   2.805   0.242
 3563SOL    HW111273   2.265   2.844   0.200
 3563SOL    HW211274   2.156   2.723   0.193
 3564SOL     OW11275   3.320   2.597   0.728
 3564SOL    HW111276   3.315   2.532   0.803
 3564SOL    HW211277   3.400   2.656   0.741
 3565SOL     OW11278   2.323   3.128   1.727
 3565SOL    HW111279   2.273   3.129   1.641
 3565SOL    HW211280   2.260   3.110   1.803
 3566SOL     OW11281   2.973   3.638   0.237
 3566SOL    HW111282   2.913   3.576   0.287
 3566SOL    HW211283   3.004   3.594   0.152
 3567SOL     OW11284   2.064   2.147   1.498
 3567SOL    HW111285   1.984   2.207   1.485
 3567SOL    HW211286   2.054   2.098   1.584
 3568SOL     OW11287   3.494   3.239   0.081
 3568SOL    HW111288   3.462   3.333   0.071
 3568SOL    HW211289   3.418   3.176   0.069
 3569SOL     OW11290   2.326   3.605   0.323
 3569SOL    HW111291   2.359   3.644   0.409
 3569SOL    HW211292   2.402   3.598   0.258
 3570SOL     OW11293   3.262   1.969   0.426
 3570SOL    HW111294   3.238   1.932   0.336
 3570SOL    HW211295   3.361   1.985   0.430
 3571SOL     OW11296   2.111   3.647   1.241
 3571SOL    HW111297   2.168   3.582   1.291
 3571SOL    HW211298   2.095   3.614   1.148
 3572SOL     OW11299   2.802   3.560   0.904
 3572SOL    HW111300   2.882   3.503   0.925
 3572SOL    HW211301   2.753   3.520   0.827
 3573SOL     OW11302   2.244   2.562   0.480
 3573SOL    HW111303   2.289   2.472   0.477
 3573SOL    HW211304   2.150   2.551   0.513
 3574SOL     OW11305   3.409   2.084   1.729
 3574SOL    HW111306   3.404   2.121   1.821
 3574SOL    HW211307   3.337   2.015   1.717
 3575SOL     OW11308   2.476   1.984   0.117
 3575SOL    HW111309   2.574   1.962   0.124
 3575SOL    HW211310   2.445   1.967   0.024
 3576SOL     OW11311   2.643   2.126   1.749
 3576SOL    HW111312   2.710   2.065   1.792
 3576SOL    HW211313   2.570   2.145   1.814
 3577SOL     OW11314   2.750   3.376   1.195
 3577SOL    HW111315   2.727   3.351   1.101
 3577SOL    HW211316   2.811   3.307   1.234
 3578SOL     OW11317   3.213   2.452   1.433
 3578SOL    HW111318   3.241   2.409   1.518
 3578SOL    HW211319   3.238   2.548   1.434
 3579SOL     OW11320   2.665   3.264   0.924
 3579SOL    HW111321   2.755   3.278   0.882
 3579SOL    HW211322   2.594   3.266   0.853
 3580SOL     OW11323   2.784   2.365   0.899
 3580SOL    HW111324   2.759   2.356   0.803
 3580SOL    HW211325   2.832   2.283   0.930
 3581SOL     OW11326   2.401   1.926   0.512
 3581SOL    HW111327   2.320   1.927   0.570
 3581SOL    HW211328   2.404   2.009   0.457
 3582SOL     OW11329   3.296   3.050   0.041
 3582SOL    HW111330   3.328   2.974   0.098
 3582SOL    HW211331   3.204   3.077   0.071
 3583SOL     OW11332   2.159   1.897   0.171
 3583SOL    HW111333   2.208   1.981   0.150
 3583SOL    HW211334   2.221   1.832   0.216
 3584SOL     OW11335   2.797   2.098   0.480
 3584SOL    HW111336   2.749   2.139   0.402
 3584SOL    HW211337   2.896   2.096   0.461
 3585SOL     OW11338   3.089   3.432   0.793
 3585SOL    HW111339   3.110   3.506   0.728
 3585SOL    HW211340   3.157   3.432   0.866
 3586SOL     OW11341   2.321   3.014   0.741
 3586SOL    HW111342   2.250   2.987   0.806
 3586SOL    HW211343   2.295   2.986   0.648
 3587SOL     OW11344   3.133   3.659   0.591
 3587SOL    HW111345   3.177   3.723   0.527
 3587SOL    HW211346   3.083   3.711   0.661
 3588SOL     OW11347   1.940   2.418   1.386
 3588SOL    HW111348   2.032   2.417   1.345
 3588SOL    HW211349   1.934   2.492   1.453
 3589SOL     OW11350   2.423   2.084   1.147
 3589SOL    HW111351   2.461   2.000   1.184
 3589SOL    HW211352   2.335   2.103   1.191
 3590SOL     OW11353   2.879   1.901   0.753
 3590SOL    HW111354   2.807   1.906   0.684
 3590SOL    HW211355   2.855   1.832   0.822
 3591SOL     OW11356   3.291   3.035   0.867
 3591SOL    HW111357   3.236   2.951   0.860
 3591SOL    HW211358   3.317   3.064   0.775
 3592SOL     OW11359   3.328   2.452   0.992
 3592SOL    HW111360   3.298   2.357   0.999
 3592SOL    HW211361   3.401   2.468   1.058
 3593SOL     OW11362   3.719   2.695   0.377
 3593SOL    HW111363   3.761   2.631   0.441
 3593SOL    HW211364   3.681   2.644   0.299
 3594SOL     OW11365   2.350   3.247   0.174
 3594SOL    HW111366   2.263   3.232   0.221
 3594SOL    HW211367   2.333   3.273   0.079
 3595SOL     OW11368   3.526   3.142   0.657
 3595SOL    HW111369   3.625   3.150   0.671
 3595SOL    HW211370   3.481   3.226   0.688
 3596SOL     OW11371   3.252   2.437   0.078
 3596SOL    HW111372   3.198   2.416   0.159
 3596SOL    HW211373   3.343   2.396   0.087
 3597SOL     OW11374   2.389   2.118   0.328
 3597SOL    HW111375   2.416   2.059   0.253
 3597SOL    HW211376   2.389   2.213   0.297
 3598SOL     OW11377   3.616   3.085   1.588
 3598SOL    HW111378   3.707   3.046   1.575
 3598SOL    HW211379   3.624   3.181   1.612
 3599SOL     OW11380   2.926   3.209   1.340
 3599SOL    HW111381   2.846   3.186   1.395
 3599SOL    HW211382   3.009   3.183   1.389
 3600SOL     OW11383   3.454   3.491   1.625
 3600SOL    HW111384   3.481   3.525   1.535
 3600SOL    HW211385   3.533   3.453   1.671
 3601SOL     OW11386   2.973   3.057   1.100
 3601SOL    HW111387   2.933   3.101   1.181
 3601SOL    HW211388   2.932   3.094   1.017
 3602SOL     OW11389   3.500   2.961   1.079
 3602SOL    HW111390   3.505   3.042   1.138
 3602SOL    HW211391   3.414   2.963   1.028
 3603SOL     OW11392   2.777   1.951   1.402
 3603SOL    HW111393   2.802   1.931   1.307
 3603SOL    HW211394   2.849   2.007   1.444
 3604SOL     OW11395   2.272   2.675   1.251
 3604SOL    HW111396   2.358   2.687   1.301
 3604SOL    HW211397   2.230   2.588   1.278
 3605SOL     OW11398   3.136   2.248   1.262
 3605SOL    HW111399   3.157   2.322   1.326
 3605SOL    HW211400   3.047   2.265   1.219
 3606SOL     OW11401   1.926   3.426   1.331
 3606SOL    HW111402   1.880   3.508   1.297
 3606SOL    HW211403   2.024   3.445   1.340
 3607SOL     OW11404   2.229   2.962   0.501
 3607SOL    HW111405   2.222   3.045   0.445
 3607SOL    HW211406   2.233   2.882   0.441
 3608SOL     OW11407   3.114   3.210   0.388
 3608SOL    HW111408   3.164   3.287   0.428
 3608SOL    HW211409   3.019   3.212   0.420
 3609SOL     OW11410   3.134   3.307   1.142
 3609SOL    HW111411   3.181   3.320   1.229
 3609SOL    HW211412   3.068   3.233   1.151
 3610SOL     OW11413   3.444   2.501   0.472
 3610SOL    HW111414   3.413   2.562   0.545
 3610SOL    HW211415   3.494   2.553   0.403
 3611SOL     OW11416   2.216   3.372   1.329
 3611SOL    HW111417   2.195   3.328   1.242
 3611SOL    HW211418   2.313   3.398   1.332
 3612SOL     OW11419   2.264   2.613   1.598
 3612SOL    HW111420   2.332   2.668   1.551
 3612SOL    HW211421   2.304   2.525   1.625
 3613SOL     OW11422   3.449   2.641   1.670
 3613SOL    HW111423   3.357   2.679   1.665
 3613SOL    HW211424   3.509   2.688   1.605
 3614SOL     OW11425   2.875   1.967   1.770
 3614SOL    HW111426   2.881   2.052   1.718
 3614SOL    HW211427   2.907   1.891   1.713
 3615SOL     OW11428   2.366   1.912   1.740
 3615SOL    HW111429   2.324   1.855   1.670
 3615SOL    HW211430   2.300   1.981   1.772
 3616SOL     OW11431   3.222   2.724   1.045
 3616SOL    HW111432   3.147   2.724   0.979
 3616SOL    HW211433   3.259   2.632   1.054
 3617SOL     OW11434   3.071   2.387   0.275
 3617SOL    HW111435   3.084   2.303   0.329
 3617SOL    HW211436   3.042   2.461   0.335
 3618SOL     OW11437   2.169   2.075   1.231
 3618SOL    HW111438   2.146   2.112   1.321
 3618SOL    HW211439   2.139   1.980   1.225
 3619SOL     OW11440   1.899   3.172   1.282
 3619SOL    HW111441   1.952   3.123   1.350
 3619SOL    HW211442   1.921   3.270   1.287
 3620SOL     OW11443   3.590   2.797   1.854
 3620SOL    HW111444   3.544   2.790   1.765
 3620SOL    HW211445   3.528   2.841   1.920
 3621SOL     OW11446   2.169   1.925   0.618
 3621SOL    HW111447   2.158   2.019   0.651
 3621SOL    HW211448   2.164   1.862   0.695
 3622SOL     OW11449   3.484   2.229   0.374
 3622SOL    HW111450   3.486   2.153   0.438
 3622SOL    HW211451   3.436   2.306   0.414
 3623SOL     OW11452   2.842   3.435   1.700
 3623SOL    HW111453   2.822   3.479   1.612
 3623SOL    HW211454   2.881   3.344   1.684
 3624SOL     OW11455   3.721   3.380   1.605
 3624SOL    HW111456   3.735   3.407   1.510
 3624SOL    HW211457   3.804   3.402   1.658
 3625SOL     OW11458   2.212   2.760   1.804
 3625SOL    HW111459   2.288   2.804   1.852
 3625SOL    HW211460   2.247   2.713   1.722
 3626SOL     OW11461   3.402   2.136   0.125
 3626SOL    HW111462   3.341   2.061   0.148
 3626SOL    HW211463   3.424   2.188   0.208
 3627SOL     OW11464   3.165   2.700   0.042
 3627SOL    HW111465   3.199   2.607   0.057
 3627SOL    HW211466   3.183   2.727  -0.053
 3628SOL     OW11467   2.930   3.195   0.849
 3628SOL    HW111468   2.937   3.111   0.794
 3628SOL    HW211469   2.992   3.264   0.813
 3629SOL     OW11470   2.181   2.672   0.949
 3629SOL    HW111471   2.274   2.708   0.954
 3629SOL    HW211472   2.175   2.587   1.001
 3630SOL     OW11473   2.201   2.371   1.006
 3630SOL    HW111474   2.149   2.288   0.989
 3630SOL    HW211475   2.278   2.376   0.942
 3631SOL     OW11476   3.000   2.242   1.678
 3631SOL    HW111477   2.955   2.305   1.742
 3631SOL    HW211478   3.093   2.273   1.661
 3632SOL     OW11479   3.022   2.069   1.477
 3632SOL    HW111480   3.022   2.133   1.554
 3632SOL    HW211481   3.050   2.117   1.394
 3633SOL     OW11482   1.870   3.188   0.200
 3633SOL    HW111483   1.777   3.209   0.169
 3633SOL    HW211484   1.880   3.089   0.213
 3634SOL     OW11485   1.950   3.663   0.927
 3634SOL    HW111486   1.908   3.577   0.900
 3634SOL    HW211487   2.044   3.666   0.893
 3635SOL     OW11488   2.366   3.430   0.910
 3635SOL    HW111489   2.432   3.504   0.919
 3635SOL    HW211490   2.410   3.351   0.868
 3636SOL     OW11491   1.902   2.406   1.114
 3636SOL    HW111492   1.987   2.373   1.073
 3636SOL    HW211493   1.915   2.421   1.212
 3637SOL     OW11494   2.051   2.382   1.722
 3637SOL    HW111495   2.110   2.342   1.652
 3637SOL    HW211496   1.993   2.453   1.681
 3638SOL     OW11497   3.231   2.812   1.660
 3638SOL    HW111498   3.270   2.901   1.680
 3638SOL    HW211499   3.241   2.792   1.563
 3639SOL     OW11500   3.519   2.466   1.206
 3639SOL    HW111501   3.481   2.397   1.268
 3639SOL    HW211502   3.601   2.430   1.162
 3640SOL     OW11503   2.114   3.426   1.744
 3640SOL    HW111504   2.084   3.483   1.820
 3640SOL    HW211505   2.107   3.329   1.770
 3641SOL     OW11506   2.792   3.540   1.465
 3641SOL    HW111507   2.768   3.522   1.370
 3641SOL    HW211508   2.822   3.634   1.475
 3642SOL     OW11509   2.021   2.999   1.466
 3642SOL    HW111510   2.043   2.938   1.542
 3642SOL    HW211511   2.031   2.950   1.380
 3643SOL     OW11512   3.209   2.921   1.234
 3643SOL    HW111513   3.233   2.858   1.160
 3643SOL    HW211514   3.119   2.961   1.216
 3644SOL     OW11515   3.164   2.717   0.309
 3644SOL    HW111516   3.078   2.686   0.351
 3644SOL    HW211517   3.160   2.703   0.210
 3645SOL     OW11518   3.621   3.609   1.154
 3645SOL    HW111519   3.682   3.639   1.081
 3645SOL    HW211520   3.583   3.520   1.132
 3646SOL     OW11521   3.114   3.593   1.128
 3646SOL    HW111522   3.198   3.598   1.074
 3646SOL    HW211523   3.091   3.497   1.146
 3647SOL     OW11524   1.945   3.120   1.022
 3647SOL    HW111525   1.940   3.119   1.122
 3647SOL    HW211526   1.862   3.079   0.984
 3648SOL     OW11527   2.550   3.524   1.716
 3648SOL    HW111528   2.494   3.605   1.725
 3648SOL    HW211529   2.602   3.528   1.630
 3649SOL     OW11530   2.765   1.948   0.133
 3649SOL    HW111531   2.816   1.949   0.047
 3649SOL    HW211532   2.821   1.906   0.204
 3650SOL     OW11533   3.588   1.997   0.523
 3650SOL    HW111534   3.661   1.980   0.456
 3650SOL    HW211535   3.557   1.910   0.561
 3651SOL     OW11536   3.250   3.435   0.477
 3651SOL    HW111537   3.317   3.447   0.403
 3651SOL    HW211538   3.210   3.524   0.500
 3652SOL     OW11539   1.992   3.656   1.851
 3652SOL    HW111540   1.951   3.582   1.904
 3652SOL    HW211541   2.056   3.707   1.909
 3653SOL     OW11542   3.142   2.789   0.672
 3653SOL    HW111543   3.202   2.708   0.674
 3653SOL    HW211544   3.182   2.858   0.612
 3654SOL     OW11545   2.692   3.135   1.422
 3654SOL    HW111546   2.687   3.168   1.517
 3654SOL    HW211547   2.606   3.154   1.376
 3655SOL     OW11548   2.534   3.478   0.154
 3655SOL    HW111549   2.543   3.488   0.055
 3655SOL    HW211550   2.494   3.389   0.175
 3656SOL     OW11551   3.512   3.582   1.394
 3656SOL    HW111552   3.565   3.592   1.310
 3656SOL    HW211553   3.485   3.672   1.428
 3657SOL     OW11554   3.703   2.037   0.963
 3657SOL    HW111555   3.742   1.952   0.927
 3657SOL    HW211556   3.605   2.039   0.944
 3658SOL     OW11557   2.125   2.188   0.720
 3658SOL    HW111558   2.046   2.239   0.686
 3658SOL    HW211559   2.116   2.173   0.818
 3659SOL     OW11560   3.056   3.474   0.031
 3659SOL    HW111561   3.062   3.381   0.068
 3659SOL    HW211562   2.997   3.474  -0.049
 3660SOL     OW11563   3.366   3.469   0.044
 3660SOL    HW111564   3.274   3.506   0.051
 3660SOL    HW211565   3.404   3.489  -0.046
 3661SOL     OW11566   2.234   3.150   1.490
 3661SOL    HW111567   2.221   3.243   1.456
 3661SOL    HW211568   2.150   3.098   1.477
 3662SOL     OW11569   3.476   3.154   1.289
 3662SOL    HW111570   3.536   3.157   1.369
 3662SOL    HW211571   3.401   3.218   1.302
 3663SOL     OW11572   2.901   2.960   0.696
 3663SOL    HW111573   2.831   2.913   0.750
 3663SOL    HW211574   2.960   2.892   0.653
 3664SOL     OW11575   2.876   2.098   0.971
 3664SOL    HW111576   2.868   2.062   0.878
 3664SOL    HW211577   2.874   2.022   1.036
 3665SOL     OW11578   2.452   3.349   0.491
 3665SOL    HW111579   2.494   3.291   0.421
 3665SOL    HW211580   2.408   3.428   0.447
 3666SOL     OW11581   3.571   2.247   1.381
 3666SOL    HW111582   3.644   2.316   1.385
 3666SOL    HW211583   3.599   2.172   1.322
 3667SOL     OW11584   2.117   3.210   0.290
 3667SOL    HW111585   2.021   3.211   0.263
 3667SOL    HW211586   2.129   3.263   0.374
 3668SOL     OW11587   1.967   2.875   1.726
 3668SOL    HW111588   1.890   2.842   1.780
 3668SOL    HW211589   2.052   2.845   1.768
 3669SOL     OW11590   2.534   2.065   1.489
 3669SOL    HW111591   2.624   2.049   1.449
 3669SOL    HW211592   2.542   2.070   1.588
 3670SOL     OW11593   1.937   2.207   0.033
 3670SOL    HW111594   1.845   2.179   0.004
 3670SOL    HW211595   1.968   2.284  -0.023
 3671SOL     OW11596   3.302   2.718   1.398
 3671SOL    HW111597   3.245   2.770   1.335
 3671SOL    HW211598   3.398   2.730   1.374
 3672SOL     OW11599   1.934   2.028   0.318
 3672SOL    HW111600   1.917   2.111   0.264
 3672SOL    HW211601   2.024   1.991   0.296
 3673SOL     OW11602   3.045   3.197   0.119
 3673SOL    HW111603   2.946   3.186   0.121
 3673SOL    HW211604   3.079   3.212   0.212
 3674SOL     OW11605   3.355   3.629   0.959
 3674SOL    HW111606   3.388   3.693   0.890
 3674SOL    HW211607   3.421   3.623   1.034
 3675SOL     OW11608   3.312   3.082   1.633
 3675SOL    HW111609   3.303   3.072   1.732
 3675SOL    HW211610   3.408   3.075   1.607
 3676SOL     OW11611   2.252   3.603   1.560
 3676SOL    HW111612   2.161   3.644   1.558
 3676SOL    HW211613   2.245   3.509   1.592
 3677SOL     OW11614   3.536   2.745   1.254
 3677SOL    HW111615   3.509   2.656   1.217
 3677SOL    HW211616   3.537   2.813   1.181
 3678SOL     OW11617   3.087   2.187   0.449
 3678SOL    HW111618   3.152   2.113   0.438
 3678SOL    HW211619   3.107   2.237   0.533
 3679SOL     OW11620   2.456   2.607   0.652
 3679SOL    HW111621   2.506   2.692   0.633
 3679SOL    HW211622   2.368   2.609   0.604
 3680SOL     OW11623   3.639   2.204   1.642
 3680SOL    HW111624   3.622   2.235   1.548
 3680SOL    HW211625   3.555   2.167   1.680
 3681SOL     OW11626   3.592   2.796   1.517
 3681SOL    HW111627   3.630   2.887   1.532
 3681SOL    HW211628   3.584   2.779   1.418
 3682SOL     OW11629   2.721   3.236   0.016
 3682SOL    HW111630   2.675   3.251   0.104
 3682SOL    HW211631   2.765   3.321  -0.014
 3683SOL     OW11632   2.523   3.652   0.953
 3683SOL    HW111633   2.477   3.740   0.940
 3683SOL    HW211634   2.622   3.664   0.946
 3684SOL     OW11635   2.945   2.846   0.087
 3684SOL    HW111636   2.922   2.899   0.005
 3684SOL    HW211637   3.026   2.790   0.068
 3685SOL     OW11638   3.723   3.431   0.851
 3685SOL    HW111639   3.652   3.419   0.781
 3685SOL    HW211640   3.724   3.352   0.911
 3686SOL     OW11641   2.083   3.176   1.844
 3686SOL    HW111642   2.018   3.103   1.823
 3686SOL    HW211643   2.087   3.190   1.942
 3687SOL     OW11644   1.941   3.102   0.653
 3687SOL    HW111645   1.940   3.055   0.741
 3687SOL    HW211646   2.023   3.074   0.602
 3688SOL     OW11647   2.534   3.253   1.624
 3688SOL    HW111648   2.456   3.203   1.662
 3688SOL    HW211649   2.531   3.348   1.655
 3689SOL     OW11650   3.686   2.054   1.227
 3689SOL    HW111651   3.682   1.964   1.271
 3689SOL    HW211652   3.689   2.043   1.128
 3690SOL     OW11653   2.290   2.286   0.520
 3690SOL    HW111654   2.320   2.214   0.458
 3690SOL    HW211655   2.251   2.246   0.603
 3691SOL     OW11656   3.567   3.349   1.104
 3691SOL    HW111657   3.474   3.324   1.077
 3691SOL    HW211658   3.593   3.299   1.186
 3692SOL     OW11659   2.179   2.409   1.280
 3692SOL    HW111660   2.217   2.350   1.352
 3692SOL    HW211661   2.219   2.383   1.192
 3693SOL     OW11662   2.674   3.448   0.687
 3693SOL    HW111663   2.706   3.458   0.593
 3693SOL    HW211664   2.595   3.386   0.689
 3694SOL     OW11665   3.286   2.076   1.112
 3694SOL    HW111666   3.338   2.011   1.167
 3694SOL    HW211667   3.237   2.139   1.173
 3695SOL     OW11668   2.863   1.896   1.154
 3695SOL    HW111669   2.800   1.824   1.123
 3695SOL    HW211670   2.956   1.860   1.154
 3696SOL     OW11671   2.632   3.192   0.301
 3696SOL    HW111672   2.586   3.105   0.318
 3696SOL    HW211673   2.723   3.189   0.342
 3697SOL     OW11674   2.480   3.429   1.284
 3697SOL    HW111675   2.475   3.511   1.341
 3697SOL    HW211676   2.569   3.426   1.239
 3698SOL     OW11677   3.214   1.914   0.168
 3698SOL    HW111678   3.249   1.873   0.084
 3698SOL    HW211679   3.124   1.876   0.188
 3699SOL     OW11680   3.162   2.315   0.691
 3699SOL    HW111681   3.103   2.395   0.695
 3699SOL    HW211682   3.177   2.280   0.784
 3700SOL     OW11683   3.455   2.083   0.882
 3700SOL    HW111684   3.371   2.082   0.936
 3700SOL    HW211685   3.457   2.166   0.826
 3701SOL     OW11686   1.901   2.939   0.300
 3701SOL    HW111687   2.000   2.928   0.291
 3701SOL    HW211688   1.861   2.853   0.332
 3702SOL     OW11689   2.737   3.508   0.337
 3702SOL    HW111690   2.660   3.473   0.283
 3702SOL    HW211691   2.705   3.579   0.399
 3703SOL     OW11692   2.092   2.490   1.975
 3703SOL    HW111693   1.999   2.488   2.012
 3703SOL    HW211694   2.093   2.451   1.883
 3704SOL     OW11695   2.087   2.137   2.858
 3704SOL    HW111696   2.122   2.120   2.950
 3704SOL    HW211697   1.999   2.092   2.846
 3705SOL     OW11698   1.881   2.230   2.509
 3705SOL    HW111699   1.799   2.273   2.548
 3705SOL    HW211700   1.853   2.157   2.446
 3706SOL     OW11701   2.431   3.137   3.027
 3706SOL    HW111702   2.338   3.130   2.990
 3706SOL    HW211703   2.442   3.226   3.071
 3707SOL     OW11704   3.417   3.373   2.565
 3707SOL    HW111705   3.360   3.357   2.646
 3707SOL    HW211706   3.358   3.383   2.485
 3708SOL     OW11707   2.997   2.565   2.579
 3708SOL    HW111708   3.054   2.643   2.554
 3708SOL    HW211709   2.937   2.591   2.655
 3709SOL     OW11710   3.617   2.469   2.093
 3709SOL    HW111711   3.605   2.456   1.994
 3709SOL    HW211712   3.587   2.388   2.142
 3710SOL     OW11713   2.548   3.023   3.665
 3710SOL    HW111714   2.608   3.102   3.679
 3710SOL    HW211715   2.462   3.054   3.624
 3711SOL     OW11716   2.197   3.297   2.923
 3711SOL    HW111717   2.119   3.266   2.870
 3711SOL    HW211718   2.255   3.355   2.866
 3712SOL     OW11719   3.322   3.367   3.201
 3712SOL    HW111720   3.346   3.461   3.227
 3712SOL    HW211721   3.306   3.313   3.283
 3713SOL     OW11722   2.300   2.254   3.361
 3713SOL    HW111723   2.382   2.198   3.370
 3713SOL    HW211724   2.219   2.196   3.365
 3714SOL     OW11725   3.465   2.309   2.599
 3714SOL    HW111726   3.391   2.355   2.549
 3714SOL    HW211727   3.516   2.377   2.652
 3715SOL     OW11728   2.093   3.575   2.345
 3715SOL    HW111729   2.127   3.652   2.399
 3715SOL    HW211730   2.137   3.575   2.255
 3716SOL     OW11731   2.092   3.296   2.400
 3716SOL    HW111732   2.066   3.392   2.400
 3716SOL    HW211733   2.021   3.242   2.445
 3717SOL     OW11734   2.102   2.953   2.748
 3717SOL    HW111735   2.116   2.869   2.800
 3717SOL    HW211736   2.047   3.017   2.803
 3718SOL     OW11737   2.482   3.648   3.301
 3718SOL    HW111738   2.390   3.631   3.336
 3718SOL    HW211739   2.510   3.740   3.327
 3719SOL     OW11740   3.456   1.976   3.342
 3719SOL    HW111741   3.438   2.043   3.270
 3719SOL    HW211742   3.453   2.022   3.431
 3720SOL     OW11743   1.984   2.505   2.425
 3720SOL    HW111744   1.939   2.417   2.442
 3720SOL    HW211745   1.983   2.559   2.509
 3721SOL     OW11746   3.704   3.629   2.221
 3721SOL    HW111747   3.758   3.600   2.301
 3721SOL    HW211748   3.734   3.719   2.192
 3722SOL     OW11749   1.889   3.458   1.979
 3722SOL    HW111750   1.870   3.362   2.000
 3722SOL    HW211751   1.856   3.516   2.054
 3723SOL     OW11752   3.551   2.784   2.474
 3723SOL    HW111753   3.646   2.755   2.482
 3723SOL    HW211754   3.543   2.849   2.399
 3724SOL     OW11755   3.503   2.970   2.294
 3724SOL    HW111756   3.589   2.972   2.242
 3724SOL    HW211757   3.517   3.017   2.382
 3725SOL     OW11758   1.975   2.599   3.459
 3725SOL    HW111759   2.063   2.586   3.504
 3725SOL    HW211760   1.962   2.696   3.437
 3726SOL     OW11761   2.475   3.227   2.588
 3726SOL    HW111762   2.426   3.140   2.597
 3726SOL    HW211763   2.452   3.270   2.501
 3727SOL     OW11764   3.155   3.090   3.285
 3727SOL    HW111765   3.192   3.017   3.227
 3727SOL    HW211766   3.207   3.095   3.370
 3728SOL     OW11767   2.671   1.866   2.364
 3728SOL    HW111768   2.711   1.957   2.355
 3728SOL    HW211769   2.571   1.874   2.370
 3729SOL     OW11770   2.059   2.838   3.126
 3729SOL    HW111771   2.148   2.793   3.112
 3729SOL    HW211772   1.986   2.773   3.107
 3730SOL     OW11773   3.387   2.861   2.052
 3730SOL    HW111774   3.324   2.785   2.065
 3730SOL    HW211775   3.435   2.879   2.138
 3731SOL     OW11776   3.049   3.654   3.478
 3731SOL    HW111777   3.073   3.714   3.402
 3731SOL    HW211778   3.056   3.559   3.448
 3732SOL     OW11779   3.328   3.279   2.815
 3732SOL    HW111780   3.269   3.285   2.895
 3732SOL    HW211781   3.313   3.191   2.769
 3733SOL     OW11782   3.529   3.576   2.434
 3733SOL    HW111783   3.488   3.553   2.346
 3733SOL    HW211784   3.511   3.502   2.499
 3734SOL     OW11785   2.460   2.591   2.132
 3734SOL    HW111786   2.484   2.660   2.064
 3734SOL    HW211787   2.382   2.624   2.186
 3735SOL     OW11788   3.143   2.207   2.806
 3735SOL    HW111789   3.057   2.157   2.793
 3735SOL    HW211790   3.205   2.153   2.862
 3736SOL     OW11791   3.438   3.524   2.169
 3736SOL    HW111792   3.527   3.570   2.172
 3736SOL    HW211793   3.417   3.500   2.074
 3737SOL     OW11794   3.256   2.331   3.536
 3737SOL    HW111795   3.236   2.374   3.624
 3737SOL    HW211796   3.334   2.269   3.545
 3738SOL     OW11797   2.853   2.272   3.104
 3738SOL    HW111798   2.776   2.306   3.158
 3738SOL    HW211799   2.819   2.221   3.025
 3739SOL     OW11800   1.938   2.673   2.651
 3739SOL    HW111801   2.037   2.661   2.660
 3739SOL    HW211802   1.914   2.768   2.672
 3740SOL     OW11803   1.992   3.683   3.433
 3740SOL    HW111804   1.982   3.668   3.532
 3740SOL    HW211805   1.906   3.719   3.397
 3741SOL     OW11806   2.727   2.210   2.057
 3741SOL    HW111807   2.786   2.273   2.008
 3741SOL    HW211808   2.746   2.116   2.028
 3742SOL     OW11809   3.581   2.447   3.693
 3742SOL    HW111810   3.555   2.536   3.657
 3742SOL    HW211811   3.579   2.379   3.620
 3743SOL     OW11812   3.224   3.006   2.407
 3743SOL    HW111813   3.307   2.977   2.359
 3743SOL    HW211814   3.175   3.073   2.351
 3744SOL     OW11815   2.412   2.058   2.747
 3744SOL    HW111816   2.407   2.053   2.847
 3744SOL    HW211817   2.414   2.154   2.718
 3745SOL     OW11818   2.870   3.318   2.339
 3745SOL    HW111819   2.824   3.390   2.287
 3745SOL    HW211820   2.866   3.338   2.437
 3746SOL     OW11821   2.213   3.663   2.715
 3746SOL    HW111822   2.263   3.577   2.721
 3746SOL    HW211823   2.278   3.740   2.712
 3747SOL     OW11824   3.657   2.928   2.735
 3747SOL    HW111825   3.595   2.913   2.659
 3747SOL    HW211826   3.605   2.939   2.820
 3748SOL     OW11827   3.089   3.412   3.368
 3748SOL    HW111828   3.095   3.335   3.432
 3748SOL    HW211829   3.037   3.386   3.288
 3749SOL     OW11830   2.183   2.805   2.104
 3749SOL    HW111831   2.265   2.844   2.062
 3749SOL    HW211832   2.156   2.723   2.055
 3750SOL     OW11833   3.320   2.597   2.590
 3750SOL    HW111834   3.315   2.532   2.665
 3750SOL    HW211835   3.400   2.656   2.603
 3751SOL     OW11836   2.323   3.128   3.589
 3751SOL    HW111837   2.273   3.129   3.503
 3751SOL    HW211838   2.260   3.110   3.665
 3752SOL     OW11839   2.973   3.638   2.099
 3752SOL    HW111840   2.913   3.576   2.149
 3752SOL    HW211841   3.004   3.594   2.014
 3753SOL     OW11842   2.064   2.147   3.360
 3753SOL    HW111843   1.984   2.207   3.347
 3753SOL    HW211844   2.054   2.098   3.446
 3754SOL     OW11845   3.494   3.239   1.943
 3754SOL    HW111846   3.462   3.333   1.933
 3754SOL    HW211847   3.418   3.176   1.931
 3755SOL     OW11848   2.326   3.605   2.185
 3755SOL    HW111849   2.359   3.644   2.271
 3755SOL    HW211850   2.402   3.598   2.120
 3756SOL     OW11851   3.262   1.969   2.288
 3756SOL    HW111852   3.238   1.932   2.198
 3756SOL    HW211853   3.361   1.985   2.292
 3757SOL     OW11854   2.111   3.647   3.103
 3757SOL    HW111855   2.168   3.582   3.153
 3757SOL    HW211856   2.095   3.614   3.010
 3758SOL     OW11857   2.802   3.560   2.766
 3758SOL    HW111858   2.882   3.503   2.787
 3758SOL    HW211859   2.753   3.520   2.689
 3759SOL     OW11860   2.244   2.562   2.342
 3759SOL    HW111861   2.289   2.472   2.339
 3759SOL    HW211862   2.150   2.551   2.375
 3760SOL     OW11863   3.409   2.084   3.591
 3760SOL    HW111864   3.404   2.121   3.683
 3760SOL    HW211865   3.337   2.015   3.579
 3761SOL     OW11866   2.476   1.984   1.979
 3761SOL    HW111867   2.574   1.962   1.986
 3761SOL    HW211868   2.445   1.967   1.886
 3762SOL     OW11869   2.643   2.126   3.611
 3762SOL    HW111870   2.710   2.065   3.654
 3762SOL    HW211871   2.570   2.145   3.676
 3763SOL     OW11872   2.750   3.376   3.057
 3763SOL    HW111873   2.727   3.351   2.963
 3763SOL    HW211874   2.811   3.307   3.096
 3764SOL     OW11875   3.213   2.452   3.295
 3764SOL    HW111876   3.241   2.409   3.380
 3764SOL    HW211877   3.238   2.548   3.296
 3765SOL     OW11878   2.665   3.264   2.786
 3765SOL    HW111879   2.755   3.278   2.744
 3765SOL    HW211880   2.594   3.266   2.715
 3766SOL     OW11881   2.401   1.926   2.374
 3766SOL    HW111882   2.320   1.927   2.432
 3766SOL    HW211883   2.404   2.009   2.319
 3767SOL     OW11884   3.296   3.050   1.903
 3767SOL    HW111885   3.328   2.974   1.960
 3767SOL    HW211886   3.204   3.077   1.933
 3768SOL     OW11887   2.159   1.897   2.033
 3768SOL    HW111888   2.208   1.981   2.012
 3768SOL    HW211889   2.221   1.832   2.078
 3769SOL     OW11890   2.797   2.098   2.342
 3769SOL    HW111891   2.749   2.139   2.264
 3769SOL    HW211892   2.896   2.096   2.323
 3770SOL     OW11893   3.089   3.432   2.655
 3770SOL    HW111894   3.110   3.506   2.590
 3770SOL    HW211895   3.157   3.432   2.728
 3771SOL     OW11896   2.321   3.014   2.603
 3771SOL    HW111897   2.250   2.987   2.668
 3771SOL    HW211898   2.295   2.986   2.510
 3772SOL     OW11899   3.133   3.659   2.453
 3772SOL    HW111900   3.177   3.723   2.389
 3772SOL    HW211901   3.083   3.711   2.523
 3773SOL     OW11902   1.940   2.418   3.248
 3773SOL    HW111903   2.032   2.417   3.207
 3773SOL    HW211904   1.934   2.492   3.315
 3774SOL     OW11905   2.423   2.084   3.009
 3774SOL    HW111906   2.461   2.000   3.046
 3774SOL    HW211907   2.335   2.103   3.053
 3775SOL     OW11908   2.879   1.901   2.615
 3775SOL    HW111909   2.807   1.906   2.546
 3775SOL    HW211910   2.855   1.832   2.684
 3776SOL     OW11911   3.291   3.035   2.729
 3776SOL    HW111912   3.236   2.951   2.722
 3776SOL    HW211913   3.317   3.064   2.637
 3777SOL     OW11914   3.328   2.452   2.854
 3777SOL    HW111915   3.298   2.357   2.861
 3777SOL    HW211916   3.401   2.468   2.920
 3778SOL     OW11917   3.719   2.695   2.239
 3778SOL    HW111918   3.761   2.631   2.303
 3778SOL    HW211919   3.681   2.644   2.161
 3779SOL     OW11920   2.350   3.247   2.036
 3779SOL    HW111921   2.263   3.232   2.083
 3779SOL    HW211922   2.333   3.273   1.941
 3780SOL     OW11923   3.526   3.142   2.519
 3780SOL    HW111924   3.625   3.150   2.533
 3780SOL    HW211925   3.481   3.226   2.550
 3781SOL     OW11926   3.252   2.437   1.940
 3781SOL    HW111927   3.198   2.416   2.021
 3781SOL    HW211928   3.343   2.396   1.949
 3782SOL     OW11929   2.389   2.118   2.190
 3782SOL    HW111930   2.416   2.059   2.115
 3782SOL    HW211931   2.389   2.213   2.159
 3783SOL     OW11932   3.616   3.085   3.450
 3783SOL    HW111933   3.707   3.046   3.437
 3783SOL    HW211934   3.624   3.181   3.474
 3784SOL     OW11935   2.926   3.209   3.202
 3784SOL    HW111936   2.846   3.186   3.257
 3784SOL    HW211937   3.009   3.183   3.251
 3785SOL     OW11938   3.454   3.491   3.487
 3785SOL    HW111939   3.481   3.525   3.397
 3785SOL    HW211940   3.533   3.453   3.533
 3786SOL     OW11941   2.973   3.057   2.962
 3786SOL    HW111942   2.933   3.101   3.043
 3786SOL    HW211943   2.932   3.094   2.879
 3787SOL     OW11944   3.500   2.961   2.941
 3787SOL    HW111945   3.505   3.042   3.000
 3787SOL    HW211946   3.414   2.963   2.890
 3788SOL     OW11947   2.777   1.951   3.264
 3788SOL    HW111948   2.802   1.931   3.169
 3788SOL    HW211949   2.849   2.007   3.306
 3789SOL     OW11950   2.272   2.675   3.113
 3789SOL    HW111951   2.358   2.687   3.163
 3789SOL    HW211952   2.230   2.588   3.140
 3790SOL     OW11953   3.136   2.248   3.124
 3790SOL    HW111954   3.157   2.322   3.188
 3790SOL    HW211955   3.047   2.265   3.081
 3791SOL     OW11956   1.926   3.426   3.193
 3791SOL    HW111957   1.880   3.508   3.159
 3791SOL    HW211958   2.024   3.445   3.202
 3792SOL     OW11959   2.229   2.962   2.363
 3792SOL    HW111960   2.222   3.045   2.307
 3792SOL    HW211961   2.233   2.882   2.303
 3793SOL     OW11962   3.114   3.210   2.250
 3793SOL    HW111963   3.164   3.287   2.290
 3793SOL    HW211964   3.019   3.212   2.282
 3794SOL     OW11965   3.134   3.307   3.004
 3794SOL    HW111966   3.181   3.320   3.091
 3794SOL    HW211967   3.068   3.233   3.013
 3795SOL     OW11968   3.444   2.501   2.334
 3795SOL    HW111969   3.413   2.562   2.407
 3795SOL    HW211970   3.494   2.553   2.265
 3796SOL     OW11971   2.216   3.372   3.191
 3796SOL    HW111972   2.195   3.328   3.104
 3796SOL    HW211973   2.313   3.398   3.194
 3797SOL     OW11974   2.264   2.613   3.460
 3797SOL    HW111975   2.332   2.668   3.413
 3797SOL    HW211976   2.304   2.525   3.487
 3798SOL     OW11977   3.449   2.641   3.532
 3798SOL    HW111978   3.357   2.679   3.527
 3798SOL    HW211979   3.509   2.688   3.467
 3799SOL     OW11980   2.875   1.967   3.632
 3799SOL    HW111981   2.881   2.052   3.580
 3799SOL    HW211982   2.907   1.891   3.575
 3800SOL     OW11983   2.366   1.912   3.602
 3800SOL    HW111984   2.324   1.855   3.532
 3800SOL    HW211985   2.300   1.981   3.634
 3801SOL     OW11986   3.222   2.724   2.907
 3801SOL    HW111987   3.147   2.724   2.841
 3801SOL    HW211988   3.259   2.632   2.916
 3802SOL     OW11989   3.071   2.387   2.137
 3802SOL    HW111990   3.084   2.303   2.191
 3802SOL    HW211991   3.042   2.461   2.197
 3803SOL     OW11992   2.169   2.075   3.093
 3803SOL    HW111993   2.146   2.112   3.183
 3803SOL    HW211994   2.139   1.980   3.087
 3804SOL     OW11995   1.899   3.172   3.144
 3804SOL    HW111996   1.952   3.123   3.212
 3804SOL    HW211997   1.921   3.270   3.149
 3805SOL     OW11998   3.590   2.797   3.716
 3805SOL    HW111999   3.544   2.790   3.627
 3805SOL    HW212000   3.528   2.841   3.782
 3806SOL     OW12001   2.169   1.925   2.480
 3806SOL    HW112002   2.158   2.019   2.513
 3806SOL    HW212003   2.164   1.862   2.557
 3807SOL     OW12004   3.484   2.229   2.236
 3807SOL    HW112005   3.486   2.153   2.300
 3807SOL    HW212006   3.436   2.306   2.276
 3808SOL     OW12007   2.842   3.435   3.562
 3808SOL    HW112008   2.822   3.479   3.474
 3808SOL    HW212009   2.881   3.344   3.546
 3809SOL     OW12010   3.721   3.380   3.467
 3809SOL    HW112011   3.735   3.407   3.372
 3809SOL    HW212012   3.804   3.402   3.520
 3810SOL     OW12013   2.212   2.760   3.666
 3810SOL    HW112014   2.288   2.804   3.714
 3810SOL    HW212015   2.247   2.713   3.584
 3811SOL     OW12016   3.402   2.136   1.987
 3811SOL    HW112017   3.341   2.061   2.010
 3811SOL    HW212018   3.424   2.188   2.070
 3812SOL     OW12019   3.165   2.700   1.904
 3812SOL    HW112020   3.199   2.607   1.919
 3812SOL    HW212021   3.183   2.727   1.809
 3813SOL     OW12022   2.930   3.195   2.711
 3813SOL    HW112023   2.937   3.111   2.656
 3813SOL    HW212024   2.992   3.264   2.675
 3814SOL     OW12025   2.181   2.672   2.811
 3814SOL    HW112026   2.274   2.708   2.816
 3814SOL    HW212027   2.175   2.587   2.863
 3815SOL     OW12028   2.201   2.371   2.868
 3815SOL    HW112029   2.149   2.288   2.851
 3815SOL    HW212030   2.278   2.376   2.804
 3816SOL     OW12031   3.000   2.242   3.540
 3816SOL    HW112032   2.955   2.305   3.604
 3816SOL    HW212033   3.093   2.273   3.523
 3817SOL     OW12034   3.022   2.069   3.339
 3817SOL    HW112035   3.022   2.133   3.416
 3817SOL    HW212036   3.050   2.117   3.256
 3818SOL     OW12037   1.870   3.188   2.062
 3818SOL    HW112038   1.777   3.209   2.031
 3818SOL    HW212039   1.880   3.089   2.075
 3819SOL     OW12040   1.950   3.663   2.789
 3819SOL    HW112041   1.908   3.577   2.762
 3819SOL    HW212042   2.044   3.666   2.755
 3820SOL     OW12043   2.366   3.430   2.772
 3820SOL    HW112044   2.432   3.504   2.781
 3820SOL    HW212045   2.410   3.351   2.730
 3821SOL     OW12046   1.902   2.406   2.976
 3821SOL    HW112047   1.987   2.373   2.935
 3821SOL    HW212048   1.915   2.421   3.074
 3822SOL     OW12049   3.231   2.812   3.522
 3822SOL    HW112050   3.270   2.901   3.542
 3822SOL    HW212051   3.241   2.792   3.425
 3823SOL     OW12052   3.519   2.466   3.068
 3823SOL    HW112053   3.481   2.397   3.130
 3823SOL    HW212054   3.601   2.430   3.024
 3824SOL     OW12055   2.114   3.426   3.606
 3824SOL    HW112056   2.084   3.483   3.682
 3824SOL    HW212057   2.107   3.329   3.632
 3825SOL     OW12058   2.792   3.540   3.327
 3825SOL    HW112059   2.768   3.522   3.232
 3825SOL    HW212060   2.822   3.634   3.337
 3826SOL     OW12061   2.335   2.362   2.053
 3826SOL    HW112062   2.396   2.442   2.057
 3826SOL    HW212063   2.240   2.393   2.060
 3827SOL     OW12064   2.021   2.999   3.328
 3827SOL    HW112065   2.043   2.938   3.404
 3827SOL    HW212066   2.031   2.950   3.242
 3828SOL     OW12067   3.209   2.921   3.096
 3828SOL    HW112068   3.233   2.858   3.022
 3828SOL    HW212069   3.119   2.961   3.078
 3829SOL     OW12070   3.164   2.717   2.171
 3829SOL    HW112071   3.078   2.686   2.213
 3829SOL    HW212072   3.160   2.703   2.072
 3830SOL     OW12073   3.621   3.609   3.016
 3830SOL    HW112074   3.682   3.639   2.943
 3830SOL    HW212075   3.583   3.520   2.994
 3831SOL     OW12076   3.114   3.593   2.990
 3831SOL    HW112077   3.198   3.598   2.936
 3831SOL    HW212078   3.091   3.497   3.008
 3832SOL     OW12079   1.945   3.120   2.884
 3832SOL    HW112080   1.940   3.119   2.984
 3832SOL    HW212081   1.862   3.079   2.846
 3833SOL     OW12082   2.550   3.524   3.578
 3833SOL    HW112083   2.494   3.605   3.587
 3833SOL    HW212084   2.602   3.528   3.492
 3834SOL     OW12085   3.588   1.997   2.385
 3834SOL    HW112086   3.661   1.980   2.318
 3834SOL    HW212087   3.557   1.910   2.423
 3835SOL     OW12088   3.250   3.435   2.339
 3835SOL    HW112089   3.317   3.447   2.265
 3835SOL    HW212090   3.210   3.524   2.362
 3836SOL     OW12091   1.992   3.656   3.713
 3836SOL    HW112092   1.951   3.582   3.766
 3836SOL    HW212093   2.056   3.707   3.771
 3837SOL     OW12094   3.142   2.789   2.534
 3837SOL    HW112095   3.202   2.708   2.536
 3837SOL    HW212096   3.182   2.858   2.474
 3838SOL     OW12097   2.692   3.135   3.284
 3838SOL    HW112098   2.687   3.168   3.379
 3838SOL    HW212099   2.606   3.154   3.238
 3839SOL     OW12100   2.534   3.478   2.016
 3839SOL    HW112101   2.543   3.488   1.917
 3839SOL    HW212102   2.494   3.389   2.037
 3840SOL     OW12103   3.512   3.582   3.256
 3840SOL    HW112104   3.565   3.592   3.172
 3840SOL    HW212105   3.485   3.672   3.290
 3841SOL     OW12106   3.703   2.037   2.825
 3841SOL    HW112107   3.742   1.952   2.789
 3841SOL    HW212108   3.605   2.039   2.806
 3842SOL     OW12109   2.125   2.188   2.582
 3842SOL    HW112110   2.046   2.239   2.548
 3842SOL    HW212111   2.116   2.173   2.680
 3843SOL     OW12112   3.056   3.474   1.893
 3843SOL    HW112113   3.062   3.381   1.930
 3843SOL    HW212114   2.997   3.474   1.813
 3844SOL     OW12115   3.366   3.469   1.906
 3844SOL    HW112116   3.274   3.506   1.913
 3844SOL    HW212117   3.404   3.489   1.816
 3845SOL     OW12118   2.234   3.150   3.352
 3845SOL    HW112119   2.221   3.243   3.318
 3845SOL    HW212120   2.150   3.098   3.339
 3846SOL     OW12121   3.476   3.154   3.151
 3846SOL    HW112122   3.536   3.157   3.231
 3846SOL    HW212123   3.401   3.218   3.164
 3847SOL     OW12124   2.876   2.098   2.833
 3847SOL    HW112125   2.868   2.062   2.740
 3847SOL    HW212126   2.874   2.022   2.898
 3848SOL     OW12127   2.452   3.349   2.353
 3848SOL    HW112128   2.494   3.291   2.283
 3848SOL    HW212129   2.408   3.428   2.309
 3849SOL     OW12130   3.571   2.247   3.243
 3849SOL    HW112131   3.644   2.316   3.247
 3849SOL    HW212132   3.599   2.172   3.184
 3850SOL     OW12133   2.117   3.210   2.152
 3850SOL    HW112134   2.021   3.211   2.125
 3850SOL    HW212135   2.129   3.263   2.236
 3851SOL     OW12136   1.967   2.875   3.588
 3851SOL    HW112137   1.890   2.842   3.642
 3851SOL    HW212138   2.052   2.845   3.630
 3852SOL     OW12139   2.534   2.065   3.351
 3852SOL    HW112140   2.624   2.049   3.311
 3852SOL    HW212141   2.542   2.070   3.450
 3853SOL     OW12142   1.937   2.207   1.895
 3853SOL    HW112143   1.845   2.179   1.866
 3853SOL    HW212144   1.968   2.284   1.839
 3854SOL     OW12145   3.302   2.718   3.260
 3854SOL    HW112146   3.245   2.770   3.197
 3854SOL    HW212147   3.398   2.730   3.236
 3855SOL     OW12148   1.934   2.028   2.180
 3855SOL    HW112149   1.917   2.111   2.126
 3855SOL    HW212150   2.024   1.991   2.158
 3856SOL     OW12151   3.045   3.197   1.981
 3856SOL    HW112152   2.946   3.186   1.983
 3856SOL    HW212153   3.079   3.212   2.074
 3857SOL     OW12154   3.355   3.629   2.821
 3857SOL    HW112155   3.388   3.693   2.752
 3857SOL    HW212156   3.421   3.623   2.896
 3858SOL     OW12157   3.312   3.082   3.495
 3858SOL    HW112158   3.303   3.072   3.594
 3858SOL    HW212159   3.408   3.075   3.469
 3859SOL     OW12160   2.252   3.603   3.422
 3859SOL    HW112161   2.161   3.644   3.420
 3859SOL    HW212162   2.245   3.509   3.454
 3860SOL     OW12163   3.536   2.745   3.116
 3860SOL    HW112164   3.509   2.656   3.079
 3860SOL    HW212165   3.537   2.813   3.043
 3861SOL     OW12166   3.087   2.187   2.311
 3861SOL    HW112167   3.152   2.113   2.300
 3861SOL    HW212168   3.107   2.237   2.395
 3862SOL     OW12169   3.639   2.204   3.504
 3862SOL    HW112170   3.622   2.235   3.410
 3862SOL    HW212171   3.555   2.167   3.542
 3863SOL     OW12172   3.592   2.796   3.379
 3863SOL    HW112173   3.630   2.887   3.394
 3863SOL    HW212174   3.584   2.779   3.280
 3864SOL     OW12175   2.721   3.236   1.878
 3864SOL    HW112176   2.675   3.251   1.966
 3864SOL    HW212177   2.765   3.321   1.848
 3865SOL     OW12178   2.523   3.652   2.815
 3865SOL    HW112179   2.477   3.740   2.802
 3865SOL    HW212180   2.622   3.664   2.808
 3866SOL     OW12181   2.945   2.846   1.949
 3866SOL    HW112182   2.922   2.899   1.867
 3866SOL    HW212183   3.026   2.790   1.930
 3867SOL     OW12184   3.723   3.431   2.713
 3867SOL    HW112185   3.652   3.419   2.643
 3867SOL    HW212186   3.724   3.352   2.773
 3868SOL     OW12187   1.941   3.102   2.515
 3868SOL    HW112188   1.940   3.055   2.603
 3868SOL    HW212189   2.023   3.074   2.464
 3869SOL     OW12190   2.534   3.253   3.486
 3869SOL    HW112191   2.456   3.203   3.524
 3869SOL    HW212192   2.531   3.348   3.517
 3870SOL     OW12193   3.686   2.054   3.089
 3870SOL    HW112194   3.682   1.964   3.133
 3870SOL    HW212195   3.689   2.043   2.990
 3871SOL     OW12196   2.290   2.286   2.382
 3871SOL    HW112197   2.320   2.214   2.320
 3871SOL    HW212198   2.251   2.246   2.465
 3872SOL     OW12199   3.567   3.349   2.966
 3872SOL    HW112200   3.474   3.324   2.939
 3872SOL    HW212201   3.593   3.299   3.048
 3873SOL     OW12202   2.179   2.409   3.142
 3873SOL    HW112203   2.217   2.350   3.214
 3873SOL    HW212204   2.219   2.383   3.054
 3874SOL     OW12205   2.674   3.448   2.549
 3874SOL    HW112206   2.706   3.458   2.455
 3874SOL    HW212207   2.595   3.386   2.551
 3875SOL     OW12208   3.286   2.076   2.974
 3875SOL    HW112209   3.338   2.011   3.029
 3875SOL    HW212210   3.237   2.139   3.035
 3876SOL     OW12211   2.863   1.896   3.016
 3876SOL    HW112212   2.800   1.824   2.985
 3876SOL    HW212213   2.956   1.860   3.016
 3877SOL     OW12214   2.632   3.192   2.163
 3877SOL    HW112215   2.586   3.105   2.180
 3877SOL    HW212216   2.723   3.189   2.204
 3878SOL     OW12217   2.480   3.429   3.146
 3878SOL    HW112218   2.475   3.511   3.203
 3878SOL    HW212219   2.569   3.426   3.101
 3879SOL     OW12220   3.214   1.914   2.030
 3879SOL    HW112221   3.249   1.873   1.946
 3879SOL    HW212222   3.124   1.876   2.050
 3880SOL     OW12223   3.162   2.315   2.553
 3880SOL    HW112224   3.103   2.395   2.557
 3880SOL    HW212225   3.177   2.280   2.646
 3881SOL     OW12226   3.455   2.083   2.744
 3881SOL    HW112227   3.371   2.082   2.798
 3881SOL    HW212228   3.457   2.166   2.688
 3882SOL     OW12229   1.901   2.939   2.162
 3882SOL    HW112230   2.000   2.928   2.153
 3882SOL    HW212231   1.861   2.853   2.194
 3883SOL     OW12232   2.737   3.508   2.199
 3883SOL    HW112233   2.660   3.473   2.145
 3883SOL    HW212234   2.705   3.579   2.261
 3884SOL     OW12235   2.087   2.137   4.720
 3884SOL    HW112236   2.122   2.120   4.812
 3884SOL    HW212237   1.999   2.092   4.708
 3885SOL     OW12238   1.881   2.230   4.371
 3885SOL    HW112239   1.799   2.273   4.410
 3885SOL    HW212240   1.853   2.157   4.308
 3886SOL     OW12241   2.431   3.137   4.889
 3886SOL    HW112242   2.338   3.130   4.852
 3886SOL    HW212243   2.442   3.226   4.933
 3887SOL     OW12244   3.417   3.373   4.427
 3887SOL    HW112245   3.360   3.357   4.508
 3887SOL    HW212246   3.358   3.383   4.347
 3888SOL     OW12247   2.997   2.565   4.441
 3888SOL    HW112248   3.054   2.643   4.416
 3888SOL    HW212249   2.937   2.591   4.517
 3889SOL     OW12250   3.617   2.469   3.955
 3889SOL    HW112251   3.605   2.456   3.856
 3889SOL    HW212252   3.587   2.388   4.004
 3890SOL     OW12253   2.548   3.023   5.527
 3890SOL    HW112254   2.608   3.102   5.541
 3890SOL    HW212255   2.462   3.054   5.486
 3891SOL     OW12256   2.197   3.297   4.785
 3891SOL    HW112257   2.119   3.266   4.732
 3891SOL    HW212258   2.255   3.355   4.728
 3892SOL     OW12259   3.322   3.367   5.063
 3892SOL    HW112260   3.346   3.461   5.089
 3892SOL    HW212261   3.306   3.313   5.145
 3893SOL     OW12262   2.300   2.254   5.223
 3893SOL    HW112263   2.382   2.198   5.232
 3893SOL    HW212264   2.219   2.196   5.227
 3894SOL     OW12265   3.465   2.309   4.461
 3894SOL    HW112266   3.391   2.355   4.411
 3894SOL    HW212267   3.516   2.377   4.514
 3895SOL     OW12268   2.093   3.575   4.207
 3895SOL    HW112269   2.127   3.652   4.261
 3895SOL    HW212270   2.137   3.575   4.117
 3896SOL     OW12271   2.989   3.203   5.414
 3896SOL    HW112272   3.036   3.203   5.502
 3896SOL    HW212273   2.941   3.116   5.403
 3897SOL     OW12274   2.102   2.953   4.610
 3897SOL    HW112275   2.116   2.869   4.662
 3897SOL    HW212276   2.047   3.017   4.665
 3898SOL     OW12277   2.482   3.648   5.163
 3898SOL    HW112278   2.390   3.631   5.198
 3898SOL    HW212279   2.510   3.740   5.189
 3899SOL     OW12280   3.456   1.976   5.204
 3899SOL    HW112281   3.438   2.043   5.132
 3899SOL    HW212282   3.453   2.022   5.293
 3900SOL     OW12283   3.704   3.629   4.083
 3900SOL    HW112284   3.758   3.600   4.163
 3900SOL    HW212285   3.734   3.719   4.054
 3901SOL     OW12286   1.889   3.458   3.841
 3901SOL    HW112287   1.870   3.362   3.862
 3901SOL    HW212288   1.856   3.516   3.916
 3902SOL     OW12289   3.551   2.784   4.336
 3902SOL    HW112290   3.646   2.755   4.344
 3902SOL    HW212291   3.543   2.849   4.261
 3903SOL     OW12292   3.503   2.970   4.156
 3903SOL    HW112293   3.589   2.972   4.104
 3903SOL    HW212294   3.517   3.017   4.244
 3904SOL     OW12295   1.975   2.599   5.321
 3904SOL    HW112296   2.063   2.586   5.366
 3904SOL    HW212297   1.962   2.696   5.299
 3905SOL     OW12298   2.475   3.227   4.450
 3905SOL    HW112299   2.426   3.140   4.459
 3905SOL    HW212300   2.452   3.270   4.363
 3906SOL     OW12301   3.155   3.090   5.147
 3906SOL    HW112302   3.192   3.017   5.089
 3906SOL    HW212303   3.207   3.095   5.232
 3907SOL     OW12304   2.059   2.838   4.988
 3907SOL    HW112305   2.148   2.793   4.974
 3907SOL    HW212306   1.986   2.773   4.969
 3908SOL     OW12307   3.049   3.654   5.340
 3908SOL    HW112308   3.073   3.714   5.264
 3908SOL    HW212309   3.056   3.559   5.310
 3909SOL     OW12310   2.179   2.113   5.525
 3909SOL    HW112311   2.250   2.184   5.531
 3909SOL    HW212312   2.091   2.152   5.553
 3910SOL     OW12313   3.328   3.279   4.677
 3910SOL    HW112314   3.269   3.285   4.757
 3910SOL    HW212315   3.313   3.191   4.631
 3911SOL     OW12316   3.529   3.576   4.296
 3911SOL    HW112317   3.488   3.553   4.208
 3911SOL    HW212318   3.511   3.502   4.361
 3912SOL     OW12319   3.143   2.207   4.668
 3912SOL    HW112320   3.057   2.157   4.655
 3912SOL    HW212321   3.205   2.153   4.724
 3913SOL     OW12322   3.438   3.524   4.031
 3913SOL    HW112323   3.527   3.570   4.034
 3913SOL    HW212324   3.417   3.500   3.936
 3914SOL     OW12325   3.256   2.331   5.398
 3914SOL    HW112326   3.236   2.374   5.486
 3914SOL    HW212327   3.334   2.269   5.407
 3915SOL     OW12328   2.853   2.272   4.966
 3915SOL    HW112329   2.776   2.306   5.020
 3915SOL    HW212330   2.819   2.221   4.887
 3916SOL     OW12331   1.938   2.673   4.513
 3916SOL    HW112332   2.037   2.661   4.522
 3916SOL    HW212333   1.914   2.768   4.534
 3917SOL     OW12334   1.992   3.683   5.295
 3917SOL    HW112335   1.982   3.668   5.394
 3917SOL    HW212336   1.906   3.719   5.259
 3918SOL     OW12337   3.581   2.447   5.555
 3918SOL    HW112338   3.555   2.536   5.519
 3918SOL    HW212339   3.579   2.379   5.482
 3919SOL     OW12340   2.412   2.058   4.609
 3919SOL    HW112341   2.407   2.053   4.709
 3919SOL    HW212342   2.414   2.154   4.580
 3920SOL     OW12343   2.213   3.663   4.577
 3920SOL    HW112344   2.263   3.577   4.583
 3920SOL    HW212345   2.278   3.740   4.574
 3921SOL     OW12346   3.657   2.928   4.597
 3921SOL    HW112347   3.595   2.913   4.521
 3921SOL    HW212348   3.605   2.939   4.682
 3922SOL     OW12349   3.089   3.412   5.230
 3922SOL    HW112350   3.095   3.335   5.294
 3922SOL    HW212351   3.037   3.386   5.150
 3923SOL     OW12352   3.320   2.597   4.452
 3923SOL    HW112353   3.315   2.532   4.527
 3923SOL    HW212354   3.400   2.656   4.465
 3924SOL     OW12355   2.323   3.128   5.451
 3924SOL    HW112356   2.273   3.129   5.365
 3924SOL    HW212357   2.260   3.110   5.527
 3925SOL     OW12358   2.973   3.638   3.961
 3925SOL    HW112359   2.913   3.576   4.011
 3925SOL    HW212360   3.004   3.594   3.876
 3926SOL     OW12361   2.064   2.147   5.222
 3926SOL    HW112362   1.984   2.207   5.209
 3926SOL    HW212363   2.054   2.098   5.308
 3927SOL     OW12364   3.494   3.239   3.805
 3927SOL    HW112365   3.462   3.333   3.795
 3927SOL    HW212366   3.418   3.176   3.793
 3928SOL     OW12367   2.326   3.605   4.047
 3928SOL    HW112368   2.359   3.644   4.133
 3928SOL    HW212369   2.402   3.598   3.982
 3929SOL     OW12370   3.262   1.969   4.150
 3929SOL    HW112371   3.238   1.932   4.060
 3929SOL    HW212372   3.361   1.985   4.154
 3930SOL     OW12373   2.111   3.647   4.965
 3930SOL    HW112374   2.168   3.582   5.015
 3930SOL    HW212375   2.095   3.614   4.872
 3931SOL     OW12376   2.802   3.560   4.628
 3931SOL    HW112377   2.882   3.503   4.649
 3931SOL    HW212378   2.753   3.520   4.551
 3932SOL     OW12379   3.409   2.084   5.453
 3932SOL    HW112380   3.404   2.121   5.545
 3932SOL    HW212381   3.337   2.015   5.441
 3933SOL     OW12382   2.643   2.126   5.473
 3933SOL    HW112383   2.710   2.065   5.516
 3933SOL    HW212384   2.570   2.145   5.538
 3934SOL     OW12385   2.750   3.376   4.919
 3934SOL    HW112386   2.727   3.351   4.825
 3934SOL    HW212387   2.811   3.307   4.958
 3935SOL     OW12388   3.213   2.452   5.157
 3935SOL    HW112389   3.241   2.409   5.242
 3935SOL    HW212390   3.238   2.548   5.158
 3936SOL     OW12391   2.665   3.264   4.648
 3936SOL    HW112392   2.755   3.278   4.606
 3936SOL    HW212393   2.594   3.266   4.577
 3937SOL     OW12394   2.784   2.365   4.623
 3937SOL    HW112395   2.759   2.356   4.527
 3937SOL    HW212396   2.832   2.283   4.654
 3938SOL     OW12397   2.938   2.545   5.188
 3938SOL    HW112398   2.858   2.484   5.191
 3938SOL    HW212399   3.019   2.492   5.164
 3939SOL     OW12400   3.089   3.432   4.517
 3939SOL    HW112401   3.110   3.506   4.452
 3939SOL    HW212402   3.157   3.432   4.590
 3940SOL     OW12403   3.133   3.659   4.315
 3940SOL    HW112404   3.177   3.723   4.251
 3940SOL    HW212405   3.083   3.711   4.385
 3941SOL     OW12406   1.940   2.418   5.110
 3941SOL    HW112407   2.032   2.417   5.069
 3941SOL    HW212408   1.934   2.492   5.177
 3942SOL     OW12409   2.423   2.084   4.871
 3942SOL    HW112410   2.461   2.000   4.908
 3942SOL    HW212411   2.335   2.103   4.915
 3943SOL     OW12412   2.879   1.901   4.477
 3943SOL    HW112413   2.807   1.906   4.408
 3943SOL    HW212414   2.855   1.832   4.546
 3944SOL     OW12415   3.291   3.035   4.591
 3944SOL    HW112416   3.236   2.951   4.584
 3944SOL    HW212417   3.317   3.064   4.499
 3945SOL     OW12418   3.328   2.452   4.716
 3945SOL    HW112419   3.298   2.357   4.723
 3945SOL    HW212420   3.401   2.468   4.782
 3946SOL     OW12421   3.719   2.695   4.101
 3946SOL    HW112422   3.761   2.631   4.165
 3946SOL    HW212423   3.681   2.644   4.023
 3947SOL     OW12424   3.526   3.142   4.381
 3947SOL    HW112425   3.625   3.150   4.395
 3947SOL    HW212426   3.481   3.226   4.412
 3948SOL     OW12427   3.616   3.085   5.312
 3948SOL    HW112428   3.707   3.046   5.299
 3948SOL    HW212429   3.624   3.181   5.336
 3949SOL     OW12430   2.926   3.209   5.064
 3949SOL    HW112431   2.846   3.186   5.119
 3949SOL    HW212432   3.009   3.183   5.113
 3950SOL     OW12433   3.454   3.491   5.349
 3950SOL    HW112434   3.481   3.525   5.259
 3950SOL    HW212435   3.533   3.453   5.395
 3951SOL     OW12436   2.973   3.057   4.824
 3951SOL    HW112437   2.933   3.101   4.905
 3951SOL    HW212438   2.932   3.094   4.741
 3952SOL     OW12439   3.500   2.961   4.803
 3952SOL    HW112440   3.505   3.042   4.862
 3952SOL    HW212441   3.414   2.963   4.752
 3953SOL     OW12442   2.777   1.951   5.126
 3953SOL    HW112443   2.802   1.931   5.031
 3953SOL    HW212444   2.849   2.007   5.168
 3954SOL     OW12445   2.272   2.675   4.975
 3954SOL    HW112446   2.358   2.687   5.025
 3954SOL    HW212447   2.230   2.588   5.002
 3955SOL     OW12448   3.136   2.248   4.986
 3955SOL    HW112449   3.157   2.322   5.050
 3955SOL    HW212450   3.047   2.265   4.943
 3956SOL     OW12451   1.926   3.426   5.055
 3956SOL    HW112452   1.880   3.508   5.021
 3956SOL    HW212453   2.024   3.445   5.064
 3957SOL     OW12454   3.134   3.307   4.866
 3957SOL    HW112455   3.181   3.320   4.953
 3957SOL    HW212456   3.068   3.233   4.875
 3958SOL     OW12457   2.216   3.372   5.053
 3958SOL    HW112458   2.195   3.328   4.966
 3958SOL    HW212459   2.313   3.398   5.056
 3959SOL     OW12460   2.264   2.613   5.322
 3959SOL    HW112461   2.332   2.668   5.275
 3959SOL    HW212462   2.304   2.525   5.349
 3960SOL     OW12463   3.449   2.641   5.394
 3960SOL    HW112464   3.357   2.679   5.389
 3960SOL    HW212465   3.509   2.688   5.329
 3961SOL     OW12466   2.875   1.967   5.494
 3961SOL    HW112467   2.881   2.052   5.442
 3961SOL    HW212468   2.907   1.891   5.437
 3962SOL     OW12469   2.366   1.912   5.464
 3962SOL    HW112470   2.324   1.855   5.394
 3962SOL    HW212471   2.300   1.981   5.496
 3963SOL     OW12472   3.222   2.724   4.769
 3963SOL    HW112473   3.147   2.724   4.703
 3963SOL    HW212474   3.259   2.632   4.778
 3964SOL     OW12475   2.169   2.075   4.955
 3964SOL    HW112476   2.146   2.112   5.045
 3964SOL    HW212477   2.139   1.980   4.949
 3965SOL     OW12478   1.899   3.172   5.006
 3965SOL    HW112479   1.952   3.123   5.074
 3965SOL    HW212480   1.921   3.270   5.011
 3966SOL     OW12481   3.590   2.797   5.578
 3966SOL    HW112482   3.544   2.790   5.489
 3966SOL    HW212483   3.528   2.841   5.644
 3967SOL     OW12484   3.484   2.229   4.098
 3967SOL    HW112485   3.486   2.153   4.162
 3967SOL    HW212486   3.436   2.306   4.138
 3968SOL     OW12487   2.842   3.435   5.424
 3968SOL    HW112488   2.822   3.479   5.336
 3968SOL    HW212489   2.881   3.344   5.408
 3969SOL     OW12490   3.721   3.380   5.329
 3969SOL    HW112491   3.735   3.407   5.234
 3969SOL    HW212492   3.804   3.402   5.382
 3970SOL     OW12493   2.212   2.760   5.528
 3970SOL    HW112494   2.288   2.804   5.576
 3970SOL    HW212495   2.247   2.713   5.446
 3971SOL     OW12496   2.930   3.195   4.573
 3971SOL    HW112497   2.937   3.111   4.518
 3971SOL    HW212498   2.992   3.264   4.537
 3972SOL     OW12499   2.181   2.672   4.673
 3972SOL    HW112500   2.274   2.708   4.678
 3972SOL    HW212501   2.175   2.587   4.725
 3973SOL     OW12502   2.201   2.371   4.730
 3973SOL    HW112503   2.149   2.288   4.713
 3973SOL    HW212504   2.278   2.376   4.666
 3974SOL     OW12505   3.000   2.242   5.402
 3974SOL    HW112506   2.955   2.305   5.466
 3974SOL    HW212507   3.093   2.273   5.385
 3975SOL     OW12508   3.022   2.069   5.201
 3975SOL    HW112509   3.022   2.133   5.278
 3975SOL    HW212510   3.050   2.117   5.118
 3976SOL     OW12511   1.950   3.663   4.651
 3976SOL    HW112512   1.908   3.577   4.624
 3976SOL    HW212513   2.044   3.666   4.617
 3977SOL     OW12514   2.366   3.430   4.634
 3977SOL    HW112515   2.432   3.504   4.643
 3977SOL    HW212516   2.410   3.351   4.592
 3978SOL     OW12517   1.902   2.406   4.838
 3978SOL    HW112518   1.987   2.373   4.797
 3978SOL    HW212519   1.915   2.421   4.936
 3979SOL     OW12520   2.051   2.382   5.446
 3979SOL    HW112521   2.110   2.342   5.376
 3979SOL    HW212522   1.993   2.453   5.405
 3980SOL     OW12523   3.231   2.812   5.384
 3980SOL    HW112524   3.270   2.901   5.404
 3980SOL    HW212525   3.241   2.792   5.287
 3981SOL     OW12526   3.519   2.466   4.930
 3981SOL    HW112527   3.481   2.397   4.992
 3981SOL    HW212528   3.601   2.430   4.886
 3982SOL     OW12529   2.114   3.426   5.468
 3982SOL    HW112530   2.084   3.483   5.544
 3982SOL    HW212531   2.107   3.329   5.494
 3983SOL     OW12532   2.792   3.540   5.189
 3983SOL    HW112533   2.768   3.522   5.094
 3983SOL    HW212534   2.822   3.634   5.199
 3984SOL     OW12535   2.021   2.999   5.190
 3984SOL    HW112536   2.043   2.938   5.266
 3984SOL    HW212537   2.031   2.950   5.104
 3985SOL     OW12538   3.209   2.921   4.958
 3985SOL    HW112539   3.233   2.858   4.884
 3985SOL    HW212540   3.119   2.961   4.940
 3986SOL     OW12541   3.621   3.609   4.878
 3986SOL    HW112542   3.682   3.639   4.805
 3986SOL    HW212543   3.583   3.520   4.856
 3987SOL     OW12544   3.114   3.593   4.852
 3987SOL    HW112545   3.198   3.598   4.798
 3987SOL    HW212546   3.091   3.497   4.870
 3988SOL     OW12547   1.945   3.120   4.746
 3988SOL    HW112548   1.940   3.119   4.846
 3988SOL    HW212549   1.862   3.079   4.708
 3989SOL     OW12550   2.550   3.524   5.440
 3989SOL    HW112551   2.494   3.605   5.449
 3989SOL    HW212552   2.602   3.528   5.354
 3990SOL     OW12553   3.588   1.997   4.247
 3990SOL    HW112554   3.661   1.980   4.180
 3990SOL    HW212555   3.557   1.910   4.285
 3991SOL     OW12556   3.250   3.435   4.201
 3991SOL    HW112557   3.317   3.447   4.127
 3991SOL    HW212558   3.210   3.524   4.224
 3992SOL     OW12559   1.992   3.656   5.575
 3992SOL    HW112560   1.951   3.582   5.628
 3992SOL    HW212561   2.056   3.707   5.633
 3993SOL     OW12562   2.692   3.135   5.146
 3993SOL    HW112563   2.687   3.168   5.241
 3993SOL    HW212564   2.606   3.154   5.100
 3994SOL     OW12565   3.512   3.582   5.118
 3994SOL    HW112566   3.565   3.592   5.034
 3994SOL    HW212567   3.485   3.672   5.152
 3995SOL     OW12568   3.703   2.037   4.687
 3995SOL    HW112569   3.742   1.952   4.651
 3995SOL    HW212570   3.605   2.039   4.668
 3996SOL     OW12571   2.125   2.188   4.444
 3996SOL    HW112572   2.046   2.239   4.410
 3996SOL    HW212573   2.116   2.173   4.542
 3997SOL     OW12574   3.056   3.474   3.755
 3997SOL    HW112575   3.062   3.381   3.792
 3997SOL    HW212576   2.997   3.474   3.675
 3998SOL     OW12577   3.366   3.469   3.768
 3998SOL    HW112578   3.274   3.506   3.775
 3998SOL    HW212579   3.404   3.489   3.678
 3999SOL     OW12580   2.234   3.150   5.214
 3999SOL    HW112581   2.221   3.243   5.180
 3999SOL    HW212582   2.150   3.098   5.201
 4000SOL     OW12583   3.476   3.154   5.013
 4000SOL    HW112584   3.536   3.157   5.093
 4000SOL    HW212585   3.401   3.218   5.026
 4001SOL     OW12586   2.876   2.098   4.695
 4001SOL    HW112587   2.868   2.062   4.602
 4001SOL    HW212588   2.874   2.022   4.760
 4002SOL     OW12589   3.571   2.247   5.105
 4002SOL    HW112590   3.644   2.316   5.109
 4002SOL    HW212591   3.599   2.172   5.046
 4003SOL     OW12592   1.967   2.875   5.450
 4003SOL    HW112593   1.890   2.842   5.504
 4003SOL    HW212594   2.052   2.845   5.492
 4004SOL     OW12595   2.534   2.065   5.213
 4004SOL    HW112596   2.624   2.049   5.173
 4004SOL    HW212597   2.542   2.070   5.312
 4005SOL     OW12598   3.302   2.718   5.122
 4005SOL    HW112599   3.245   2.770   5.059
 4005SOL    HW212600   3.398   2.730   5.098
 4006SOL     OW12601   3.355   3.629   4.683
 4006SOL    HW112602   3.388   3.693   4.614
 4006SOL    HW212603   3.421   3.623   4.758
 4007SOL     OW12604   3.312   3.082   5.357
 4007SOL    HW112605   3.303   3.072   5.456
 4007SOL    HW212606   3.408   3.075   5.331
 4008SOL     OW12607   2.252   3.603   5.284
 4008SOL    HW112608   2.161   3.644   5.282
 4008SOL    HW212609   2.245   3.509   5.316
 4009SOL     OW12610   3.536   2.745   4.978
 4009SOL    HW112611   3.509   2.656   4.941
 4009SOL    HW212612   3.537   2.813   4.905
 4010SOL     OW12613   3.639   2.204   5.366
 4010SOL    HW112614   3.622   2.235   5.272
 4010SOL    HW212615   3.555   2.167   5.404
 4011SOL     OW12616   3.592   2.796   5.241
 4011SOL    HW112617   3.630   2.887   5.256
 4011SOL    HW212618   3.584   2.779   5.142
 4012SOL     OW12619   2.523   3.652   4.677
 4012SOL    HW112620   2.477   3.740   4.664
 4012SOL    HW212621   2.622   3.664   4.670
 4013SOL     OW12622   2.945   2.846   3.811
 4013SOL    HW112623   2.922   2.899   3.729
 4013SOL    HW212624   3.026   2.790   3.792
 4014SOL     OW12625   3.723   3.431   4.575
 4014SOL    HW112626   3.652   3.419   4.505
 4014SOL    HW212627   3.724   3.352   4.635
 4015SOL     OW12628   2.083   3.176   5.568
 4015SOL    HW112629   2.018   3.103   5.547
 4015SOL    HW212630   2.087   3.190   5.666
 4016SOL     OW12631   2.534   3.253   5.348
 4016SOL    HW112632   2.456   3.203   5.386
 4016SOL    HW212633   2.531   3.348   5.379
 4017SOL     OW12634   3.686   2.054   4.951
 4017SOL    HW112635   3.682   1.964   4.995
 4017SOL    HW212636   3.689   2.043   4.852
 4018SOL     OW12637   3.567   3.349   4.828
 4018SOL    HW112638   3.474   3.324   4.801
 4018SOL    HW212639   3.593   3.299   4.910
 4019SOL     OW12640   2.179   2.409   5.004
 4019SOL    HW112641   2.217   2.350   5.076
 4019SOL    HW212642   2.219   2.383   4.916
 4020SOL     OW12643   2.674   3.448   4.411
 4020SOL    HW112644   2.706   3.458   4.317
 4020SOL    HW212645   2.595   3.386   4.413
 4021SOL     OW12646   3.286   2.076   4.836
 4021SOL    HW112647   3.338   2.011   4.891
 4021SOL    HW212648   3.237   2.139   4.897
 4022SOL     OW12649   2.863   1.896   4.878
 4022SOL    HW112650   2.800   1.824   4.847
 4022SOL    HW212651   2.956   1.860   4.878
 4023SOL     OW12652   2.480   3.429   5.008
 4023SOL    HW112653   2.475   3.511   5.065
 4023SOL    HW212654   2.569   3.426   4.963
 4024SOL     OW12655   3.455   2.083   4.606
 4024SOL    HW112656   3.371   2.082   4.660
 4024SOL    HW212657   3.457   2.166   4.550
 4025SOL     OW12658   2.092   2.490   5.699
 4025SOL    HW112659   1.999   2.488   5.736
 4025SOL    HW212660   2.093   2.451   5.607
 4026SOL     OW12661   2.087   2.137   6.582
 4026SOL    HW112662   2.122   2.120   6.674
 4026SOL    HW212663   1.999   2.092   6.570
 4027SOL     OW12664   1.881   2.230   6.233
 4027SOL    HW112665   1.799   2.273   6.272
 4027SOL    HW212666   1.853   2.157   6.170
 4028SOL     OW12667   2.431   3.137   6.751
 4028SOL    HW112668   2.338   3.130   6.714
 4028SOL    HW212669   2.442   3.226   6.795
 4029SOL     OW12670   3.417   3.373   6.289
 4029SOL    HW112671   3.360   3.357   6.370
 4029SOL    HW212672   3.358   3.383   6.209
 4030SOL     OW12673   2.997   2.565   6.303
 4030SOL    HW112674   3.054   2.643   6.278
 4030SOL    HW212675   2.937   2.591   6.379
 4031SOL     OW12676   3.617   2.469   5.817
 4031SOL    HW112677   3.605   2.456   5.718
 4031SOL    HW212678   3.587   2.388   5.866
 4032SOL     OW12679   2.548   3.023   7.389
 4032SOL    HW112680   2.608   3.102   7.403
 4032SOL    HW212681   2.462   3.054   7.348
 4033SOL     OW12682   2.197   3.297   6.647
 4033SOL    HW112683   2.119   3.266   6.594
 4033SOL    HW212684   2.255   3.355   6.590
 4034SOL     OW12685   3.322   3.367   6.925
 4034SOL    HW112686   3.346   3.461   6.951
 4034SOL    HW212687   3.306   3.313   7.007
 4035SOL     OW12688   2.300   2.254   7.085
 4035SOL    HW112689   2.382   2.198   7.094
 4035SOL    HW212690   2.219   2.196   7.089
 4036SOL     OW12691   3.465   2.309   6.323
 4036SOL    HW112692   3.391   2.355   6.273
 4036SOL    HW212693   3.516   2.377   6.376
 4037SOL     OW12694   2.093   3.575   6.069
 4037SOL    HW112695   2.127   3.652   6.123
 4037SOL    HW212696   2.137   3.575   5.979
 4038SOL     OW12697   2.989   3.203   7.276
 4038SOL    HW112698   3.036   3.203   7.364
 4038SOL    HW212699   2.941   3.116   7.265
 4039SOL     OW12700   2.092   3.296   6.124
 4039SOL    HW112701   2.066   3.392   6.124
 4039SOL    HW212702   2.021   3.242   6.169
 4040SOL     OW12703   2.102   2.953   6.472
 4040SOL    HW112704   2.116   2.869   6.524
 4040SOL    HW212705   2.047   3.017   6.527
 4041SOL     OW12706   2.482   3.648   7.025
 4041SOL    HW112707   2.390   3.631   7.060
 4041SOL    HW212708   2.510   3.740   7.051
 4042SOL     OW12709   3.456   1.976   7.066
 4042SOL    HW112710   3.438   2.043   6.994
 4042SOL    HW212711   3.453   2.022   7.155
 4043SOL     OW12712   1.984   2.505   6.149
 4043SOL    HW112713   1.939   2.417   6.166
 4043SOL    HW212714   1.983   2.559   6.233
 4044SOL     OW12715   3.704   3.629   5.945
 4044SOL    HW112716   3.758   3.600   6.025
 4044SOL    HW212717   3.734   3.719   5.916
 4045SOL     OW12718   1.889   3.458   5.703
 4045SOL    HW112719   1.870   3.362   5.724
 4045SOL    HW212720   1.856   3.516   5.778
 4046SOL     OW12721   3.551   2.784   6.198
 4046SOL    HW112722   3.646   2.755   6.206
 4046SOL    HW212723   3.543   2.849   6.123
 4047SOL     OW12724   3.503   2.970   6.018
 4047SOL    HW112725   3.589   2.972   5.966
 4047SOL    HW212726   3.517   3.017   6.106
 4048SOL     OW12727   1.975   2.599   7.183
 4048SOL    HW112728   2.063   2.586   7.228
 4048SOL    HW212729   1.962   2.696   7.161
 4049SOL     OW12730   2.475   3.227   6.312
 4049SOL    HW112731   2.426   3.140   6.321
 4049SOL    HW212732   2.452   3.270   6.225
 4050SOL     OW12733   3.155   3.090   7.009
 4050SOL    HW112734   3.192   3.017   6.951
 4050SOL    HW212735   3.207   3.095   7.094
 4051SOL     OW12736   2.671   1.866   6.088
 4051SOL    HW112737   2.711   1.957   6.079
 4051SOL    HW212738   2.571   1.874   6.094
 4052SOL     OW12739   2.059   2.838   6.850
 4052SOL    HW112740   2.148   2.793   6.836
 4052SOL    HW212741   1.986   2.773   6.831
 4053SOL     OW12742   3.387   2.861   5.776
 4053SOL    HW112743   3.324   2.785   5.789
 4053SOL    HW212744   3.435   2.879   5.862
 4054SOL     OW12745   3.049   3.654   7.202
 4054SOL    HW112746   3.073   3.714   7.126
 4054SOL    HW212747   3.056   3.559   7.172
 4055SOL     OW12748   2.179   2.113   7.387
 4055SOL    HW112749   2.250   2.184   7.393
 4055SOL    HW212750   2.091   2.152   7.415
 4056SOL     OW12751   3.328   3.279   6.539
 4056SOL    HW112752   3.269   3.285   6.619
 4056SOL    HW212753   3.313   3.191   6.493
 4057SOL     OW12754   3.529   3.576   6.158
 4057SOL    HW112755   3.488   3.553   6.070
 4057SOL    HW212756   3.511   3.502   6.223
 4058SOL     OW12757   3.143   2.207   6.530
 4058SOL    HW112758   3.057   2.157   6.517
 4058SOL    HW212759   3.205   2.153   6.586
 4059SOL     OW12760   3.438   3.524   5.893
 4059SOL    HW112761   3.527   3.570   5.896
 4059SOL    HW212762   3.417   3.500   5.798
 4060SOL     OW12763   3.256   2.331   7.260
 4060SOL    HW112764   3.236   2.374   7.348
 4060SOL    HW212765   3.334   2.269   7.269
 4061SOL     OW12766   2.853   2.272   6.828
 4061SOL    HW112767   2.776   2.306   6.882
 4061SOL    HW212768   2.819   2.221   6.749
 4062SOL     OW12769   1.938   2.673   6.375
 4062SOL    HW112770   2.037   2.661   6.384
 4062SOL    HW212771   1.914   2.768   6.396
 4063SOL     OW12772   1.992   3.683   7.157
 4063SOL    HW112773   1.982   3.668   7.256
 4063SOL    HW212774   1.906   3.719   7.121
 4064SOL     OW12775   2.727   2.210   5.781
 4064SOL    HW112776   2.786   2.273   5.732
 4064SOL    HW212777   2.746   2.116   5.752
 4065SOL     OW12778   3.581   2.447   7.417
 4065SOL    HW112779   3.555   2.536   7.381
 4065SOL    HW212780   3.579   2.379   7.344
 4066SOL     OW12781   3.224   3.006   6.131
 4066SOL    HW112782   3.307   2.977   6.083
 4066SOL    HW212783   3.175   3.073   6.075
 4067SOL     OW12784   2.412   2.058   6.471
 4067SOL    HW112785   2.407   2.053   6.571
 4067SOL    HW212786   2.414   2.154   6.442
 4068SOL     OW12787   2.870   3.318   6.063
 4068SOL    HW112788   2.824   3.390   6.011
 4068SOL    HW212789   2.866   3.338   6.161
 4069SOL     OW12790   2.213   3.663   6.439
 4069SOL    HW112791   2.263   3.577   6.445
 4069SOL    HW212792   2.278   3.740   6.436
 4070SOL     OW12793   3.657   2.928   6.459
 4070SOL    HW112794   3.595   2.913   6.383
 4070SOL    HW212795   3.605   2.939   6.544
 4071SOL     OW12796   3.089   3.412   7.092
 4071SOL    HW112797   3.095   3.335   7.156
 4071SOL    HW212798   3.037   3.386   7.012
 4072SOL     OW12799   2.183   2.805   5.828
 4072SOL    HW112800   2.265   2.844   5.786
 4072SOL    HW212801   2.156   2.723   5.779
 4073SOL     OW12802   3.320   2.597   6.314
 4073SOL    HW112803   3.315   2.532   6.389
 4073SOL    HW212804   3.400   2.656   6.327
 4074SOL     OW12805   2.323   3.128   7.313
 4074SOL    HW112806   2.273   3.129   7.227
 4074SOL    HW212807   2.260   3.110   7.389
 4075SOL     OW12808   2.973   3.638   5.823
 4075SOL    HW112809   2.913   3.576   5.873
 4075SOL    HW212810   3.004   3.594   5.738
 4076SOL     OW12811   2.064   2.147   7.084
 4076SOL    HW112812   1.984   2.207   7.071
 4076SOL    HW212813   2.054   2.098   7.170
 4077SOL     OW12814   3.494   3.239   5.667
 4077SOL    HW112815   3.462   3.333   5.657
 4077SOL    HW212816   3.418   3.176   5.655
 4078SOL     OW12817   2.326   3.605   5.909
 4078SOL    HW112818   2.359   3.644   5.995
 4078SOL    HW212819   2.402   3.598   5.844
 4079SOL     OW12820   3.262   1.969   6.012
 4079SOL    HW112821   3.238   1.932   5.922
 4079SOL    HW212822   3.361   1.985   6.016
 4080SOL     OW12823   2.111   3.647   6.827
 4080SOL    HW112824   2.168   3.582   6.877
 4080SOL    HW212825   2.095   3.614   6.734
 4081SOL     OW12826   2.802   3.560   6.490
 4081SOL    HW112827   2.882   3.503   6.511
 4081SOL    HW212828   2.753   3.520   6.413
 4082SOL     OW12829   2.244   2.562   6.066
 4082SOL    HW112830   2.289   2.472   6.063
 4082SOL    HW212831   2.150   2.551   6.099
 4083SOL     OW12832   3.409   2.084   7.315
 4083SOL    HW112833   3.404   2.121   7.407
 4083SOL    HW212834   3.337   2.015   7.303
 4084SOL     OW12835   2.476   1.984   5.703
 4084SOL    HW112836   2.574   1.962   5.710
 4084SOL    HW212837   2.445   1.967   5.610
 4085SOL     OW12838   2.643   2.126   7.335
 4085SOL    HW112839   2.710   2.065   7.378
 4085SOL    HW212840   2.570   2.145   7.400
 4086SOL     OW12841   2.750   3.376   6.781
 4086SOL    HW112842   2.727   3.351   6.687
 4086SOL    HW212843   2.811   3.307   6.820
 4087SOL     OW12844   3.213   2.452   7.019
 4087SOL    HW112845   3.241   2.409   7.104
 4087SOL    HW212846   3.238   2.548   7.020
 4088SOL     OW12847   2.665   3.264   6.510
 4088SOL    HW112848   2.755   3.278   6.468
 4088SOL    HW212849   2.594   3.266   6.439
 4089SOL     OW12850   2.401   1.926   6.098
 4089SOL    HW112851   2.320   1.927   6.156
 4089SOL    HW212852   2.404   2.009   6.043
 4090SOL     OW12853   3.296   3.050   5.627
 4090SOL    HW112854   3.328   2.974   5.684
 4090SOL    HW212855   3.204   3.077   5.657
 4091SOL     OW12856   2.159   1.897   5.757
 4091SOL    HW112857   2.208   1.981   5.736
 4091SOL    HW212858   2.221   1.832   5.802
 4092SOL     OW12859   2.797   2.098   6.066
 4092SOL    HW112860   2.749   2.139   5.988
 4092SOL    HW212861   2.896   2.096   6.047
 4093SOL     OW12862   3.089   3.432   6.379
 4093SOL    HW112863   3.110   3.506   6.314
 4093SOL    HW212864   3.157   3.432   6.452
 4094SOL     OW12865   2.321   3.014   6.327
 4094SOL    HW112866   2.250   2.987   6.392
 4094SOL    HW212867   2.295   2.986   6.234
 4095SOL     OW12868   3.133   3.659   6.177
 4095SOL    HW112869   3.177   3.723   6.113
 4095SOL    HW212870   3.083   3.711   6.247
 4096SOL     OW12871   1.940   2.418   6.972
 4096SOL    HW112872   2.032   2.417   6.931
 4096SOL    HW212873   1.934   2.492   7.039
 4097SOL     OW12874   2.423   2.084   6.733
 4097SOL    HW112875   2.461   2.000   6.770
 4097SOL    HW212876   2.335   2.103   6.777
 4098SOL     OW12877   2.879   1.901   6.339
 4098SOL    HW112878   2.807   1.906   6.270
 4098SOL    HW212879   2.855   1.832   6.408
 4099SOL     OW12880   3.291   3.035   6.453
 4099SOL    HW112881   3.236   2.951   6.446
 4099SOL    HW212882   3.317   3.064   6.361
 4100SOL     OW12883   3.328   2.452   6.578
 4100SOL    HW112884   3.298   2.357   6.585
 4100SOL    HW212885   3.401   2.468   6.644
 4101SOL     OW12886   3.719   2.695   5.963
 4101SOL    HW112887   3.761   2.631   6.027
 4101SOL    HW212888   3.681   2.644   5.885
 4102SOL     OW12889   2.350   3.247   5.760
 4102SOL    HW112890   2.263   3.232   5.807
 4102SOL    HW212891   2.333   3.273   5.665
 4103SOL     OW12892   3.526   3.142   6.243
 4103SOL    HW112893   3.625   3.150   6.257
 4103SOL    HW212894   3.481   3.226   6.274
 4104SOL     OW12895   3.252   2.437   5.664
 4104SOL    HW112896   3.198   2.416   5.745
 4104SOL    HW212897   3.343   2.396   5.673
 4105SOL     OW12898   2.389   2.118   5.914
 4105SOL    HW112899   2.416   2.059   5.839
 4105SOL    HW212900   2.389   2.213   5.883
 4106SOL     OW12901   3.616   3.085   7.174
 4106SOL    HW112902   3.707   3.046   7.161
 4106SOL    HW212903   3.624   3.181   7.198
 4107SOL     OW12904   2.926   3.209   6.926
 4107SOL    HW112905   2.846   3.186   6.981
 4107SOL    HW212906   3.009   3.183   6.975
 4108SOL     OW12907   3.454   3.491   7.211
 4108SOL    HW112908   3.481   3.525   7.121
 4108SOL    HW212909   3.533   3.453   7.257
 4109SOL     OW12910   2.973   3.057   6.686
 4109SOL    HW112911   2.933   3.101   6.767
 4109SOL    HW212912   2.932   3.094   6.603
 4110SOL     OW12913   3.500   2.961   6.665
 4110SOL    HW112914   3.505   3.042   6.724
 4110SOL    HW212915   3.414   2.963   6.614
 4111SOL     OW12916   2.777   1.951   6.988
 4111SOL    HW112917   2.802   1.931   6.893
 4111SOL    HW212918   2.849   2.007   7.030
 4112SOL     OW12919   2.842   2.978   7.305
 4112SOL    HW112920   2.743   2.984   7.315
 4112SOL    HW212921   2.865   2.898   7.249
 4113SOL     OW12922   2.272   2.675   6.837
 4113SOL    HW112923   2.358   2.687   6.887
 4113SOL    HW212924   2.230   2.588   6.864
 4114SOL     OW12925   3.136   2.248   6.848
 4114SOL    HW112926   3.157   2.322   6.912
 4114SOL    HW212927   3.047   2.265   6.805
 4115SOL     OW12928   1.926   3.426   6.917
 4115SOL    HW112929   1.880   3.508   6.883
 4115SOL    HW212930   2.024   3.445   6.926
 4116SOL     OW12931   2.229   2.962   6.087
 4116SOL    HW112932   2.222   3.045   6.031
 4116SOL    HW212933   2.233   2.882   6.027
 4117SOL     OW12934   3.114   3.210   5.974
 4117SOL    HW112935   3.164   3.287   6.014
 4117SOL    HW212936   3.019   3.212   6.006
 4118SOL     OW12937   3.134   3.307   6.728
 4118SOL    HW112938   3.181   3.320   6.815
 4118SOL    HW212939   3.068   3.233   6.737
 4119SOL     OW12940   3.444   2.501   6.058
 4119SOL    HW112941   3.413   2.562   6.131
 4119SOL    HW212942   3.494   2.553   5.989
 4120SOL     OW12943   2.216   3.372   6.915
 4120SOL    HW112944   2.195   3.328   6.828
 4120SOL    HW212945   2.313   3.398   6.918
 4121SOL     OW12946   2.264   2.613   7.184
 4121SOL    HW112947   2.332   2.668   7.137
 4121SOL    HW212948   2.304   2.525   7.211
 4122SOL     OW12949   3.449   2.641   7.256
 4122SOL    HW112950   3.357   2.679   7.251
 4122SOL    HW212951   3.509   2.688   7.191
 4123SOL     OW12952   2.875   1.967   7.356
 4123SOL    HW112953   2.881   2.052   7.304
 4123SOL    HW212954   2.907   1.891   7.299
 4124SOL     OW12955   2.366   1.912   7.326
 4124SOL    HW112956   2.324   1.855   7.256
 4124SOL    HW212957   2.300   1.981   7.358
 4125SOL     OW12958   3.222   2.724   6.631
 4125SOL    HW112959   3.147   2.724   6.565
 4125SOL    HW212960   3.259   2.632   6.640
 4126SOL     OW12961   3.071   2.387   5.861
 4126SOL    HW112962   3.084   2.303   5.915
 4126SOL    HW212963   3.042   2.461   5.921
 4127SOL     OW12964   2.169   2.075   6.817
 4127SOL    HW112965   2.146   2.112   6.907
 4127SOL    HW212966   2.139   1.980   6.811
 4128SOL     OW12967   1.899   3.172   6.868
 4128SOL    HW112968   1.952   3.123   6.936
 4128SOL    HW212969   1.921   3.270   6.873
 4129SOL     OW12970   3.590   2.797   7.440
 4129SOL    HW112971   3.544   2.790   7.351
 4129SOL    HW212972   3.528   2.841   7.506
 4130SOL     OW12973   2.169   1.925   6.204
 4130SOL    HW112974   2.158   2.019   6.237
 4130SOL    HW212975   2.164   1.862   6.281
 4131SOL     OW12976   3.484   2.229   5.960
 4131SOL    HW112977   3.486   2.153   6.024
 4131SOL    HW212978   3.436   2.306   6.000
 4132SOL     OW12979   2.842   3.435   7.286
 4132SOL    HW112980   2.822   3.479   7.198
 4132SOL    HW212981   2.881   3.344   7.270
 4133SOL     OW12982   3.721   3.380   7.191
 4133SOL    HW112983   3.735   3.407   7.096
 4133SOL    HW212984   3.804   3.402   7.244
 4134SOL     OW12985   2.212   2.760   7.390
 4134SOL    HW112986   2.288   2.804   7.438
 4134SOL    HW212987   2.247   2.713   7.308
 4135SOL     OW12988   3.402   2.136   5.711
 4135SOL    HW112989   3.341   2.061   5.734
 4135SOL    HW212990   3.424   2.188   5.794
 4136SOL     OW12991   3.165   2.700   5.628
 4136SOL    HW112992   3.199   2.607   5.643
 4136SOL    HW212993   3.183   2.727   5.533
 4137SOL     OW12994   2.930   3.195   6.435
 4137SOL    HW112995   2.937   3.111   6.380
 4137SOL    HW212996   2.992   3.264   6.399
 4138SOL     OW12997   2.181   2.672   6.535
 4138SOL    HW112998   2.274   2.708   6.540
 4138SOL    HW212999   2.175   2.587   6.587
 4139SOL     OW13000   2.201   2.371   6.592
 4139SOL    HW113001   2.149   2.288   6.575
 4139SOL    HW213002   2.278   2.376   6.528
 4140SOL     OW13003   3.000   2.242   7.264
 4140SOL    HW113004   2.955   2.305   7.328
 4140SOL    HW213005   3.093   2.273   7.247
 4141SOL     OW13006   3.022   2.069   7.063
 4141SOL    HW113007   3.022   2.133   7.140
 4141SOL    HW213008   3.050   2.117   6.980
 4142SOL     OW13009   1.870   3.188   5.786
 4142SOL    HW113010   1.777   3.209   5.755
 4142SOL    HW213011   1.880   3.089   5.799
 4143SOL     OW13012   1.950   3.663   6.513
 4143SOL    HW113013   1.908   3.577   6.486
 4143SOL    HW213014   2.044   3.666   6.479
 4144SOL     OW13015   2.366   3.430   6.496
 4144SOL    HW113016   2.432   3.504   6.505
 4144SOL    HW213017   2.410   3.351   6.454
 4145SOL     OW13018   1.902   2.406   6.700
 4145SOL    HW113019   1.987   2.373   6.659
 4145SOL    HW213020   1.915   2.421   6.798
 4146SOL     OW13021   2.051   2.382   7.308
 4146SOL    HW113022   2.110   2.342   7.238
 4146SOL    HW213023   1.993   2.453   7.267
 4147SOL     OW13024   3.231   2.812   7.246
 4147SOL    HW113025   3.270   2.901   7.266
 4147SOL    HW213026   3.241   2.792   7.149
 4148SOL     OW13027   3.519   2.466   6.792
 4148SOL    HW113028   3.481   2.397   6.854
 4148SOL    HW213029   3.601   2.430   6.748
 4149SOL     OW13030   2.114   3.426   7.330
 4149SOL    HW113031   2.084   3.483   7.406
 4149SOL    HW213032   2.107   3.329   7.356
 4150SOL     OW13033   2.792   3.540   7.051
 4150SOL    HW113034   2.768   3.522   6.956
 4150SOL    HW213035   2.822   3.634   7.061
 4151SOL     OW13036   2.021   2.999   7.052
 4151SOL    HW113037   2.043   2.938   7.128
 4151SOL    HW213038   2.031   2.950   6.966
 4152SOL     OW13039   3.209   2.921   6.820
 4152SOL    HW113040   3.233   2.858   6.746
 4152SOL    HW213041   3.119   2.961   6.802
 4153SOL     OW13042   3.164   2.717   5.895
 4153SOL    HW113043   3.078   2.686   5.937
 4153SOL    HW213044   3.160   2.703   5.796
 4154SOL     OW13045   3.621   3.609   6.740
 4154SOL    HW113046   3.682   3.639   6.667
 4154SOL    HW213047   3.583   3.520   6.718
 4155SOL     OW13048   3.114   3.593   6.714
 4155SOL    HW113049   3.198   3.598   6.660
 4155SOL    HW213050   3.091   3.497   6.732
 4156SOL     OW13051   1.945   3.120   6.608
 4156SOL    HW113052   1.940   3.119   6.708
 4156SOL    HW213053   1.862   3.079   6.570
 4157SOL     OW13054   2.550   3.524   7.302
 4157SOL    HW113055   2.494   3.605   7.311
 4157SOL    HW213056   2.602   3.528   7.216
 4158SOL     OW13057   3.588   1.997   6.109
 4158SOL    HW113058   3.661   1.980   6.042
 4158SOL    HW213059   3.557   1.910   6.147
 4159SOL     OW13060   3.250   3.435   6.063
 4159SOL    HW113061   3.317   3.447   5.989
 4159SOL    HW213062   3.210   3.524   6.086
 4160SOL     OW13063   1.992   3.656   7.437
 4160SOL    HW113064   1.951   3.582   7.490
 4160SOL    HW213065   2.056   3.707   7.495
 4161SOL     OW13066   3.142   2.789   6.258
 4161SOL    HW113067   3.202   2.708   6.260
 4161SOL    HW213068   3.182   2.858   6.198
 4162SOL     OW13069   2.692   3.135   7.008
 4162SOL    HW113070   2.687   3.168   7.103
 4162SOL    HW213071   2.606   3.154   6.962
 4163SOL     OW13072   2.534   3.478   5.740
 4163SOL    HW113073   2.543   3.488   5.641
 4163SOL    HW213074   2.494   3.389   5.761
 4164SOL     OW13075   3.512   3.582   6.980
 4164SOL    HW113076   3.565   3.592   6.896
 4164SOL    HW213077   3.485   3.672   7.014
 4165SOL     OW13078   3.703   2.037   6.549
 4165SOL    HW113079   3.742   1.952   6.513
 4165SOL    HW213080   3.605   2.039   6.530
 4166SOL     OW13081   2.125   2.188   6.306
 4166SOL    HW113082   2.046   2.239   6.272
 4166SOL    HW213083   2.116   2.173   6.404
 4167SOL     OW13084   3.056   3.474   5.617
 4167SOL    HW113085   3.062   3.381   5.654
 4167SOL    HW213086   2.997   3.474   5.537
 4168SOL     OW13087   3.366   3.469   5.630
 4168SOL    HW113088   3.274   3.506   5.637
 4168SOL    HW213089   3.404   3.489   5.540
 4169SOL     OW13090   2.234   3.150   7.076
 4169SOL    HW113091   2.221   3.243   7.042
 4169SOL    HW213092   2.150   3.098   7.063
 4170SOL     OW13093   3.476   3.154   6.875
 4170SOL    HW113094   3.536   3.157   6.955
 4170SOL    HW213095   3.401   3.218   6.888
 4171SOL     OW13096   2.876   2.098   6.557
 4171SOL    HW113097   2.868   2.062   6.464
 4171SOL    HW213098   2.874   2.022   6.622
 4172SOL     OW13099   2.452   3.349   6.077
 4172SOL    HW113100   2.494   3.291   6.007
 4172SOL    HW213101   2.408   3.428   6.033
 4173SOL     OW13102   3.571   2.247   6.967
 4173SOL    HW113103   3.644   2.316   6.971
 4173SOL    HW213104   3.599   2.172   6.908
 4174SOL     OW13105   2.117   3.210   5.876
 4174SOL    HW113106   2.021   3.211   5.849
 4174SOL    HW213107   2.129   3.263   5.960
 4175SOL     OW13108   1.967   2.875   7.312
 4175SOL    HW113109   1.890   2.842   7.366
 4175SOL    HW213110   2.052   2.845   7.354
 4176SOL     OW13111   2.534   2.065   7.075
 4176SOL    HW113112   2.624   2.049   7.035
 4176SOL    HW213113   2.542   2.070   7.174
 4177SOL     OW13114   1.937   2.207   5.619
 4177SOL    HW113115   1.845   2.179   5.590
 4177SOL    HW213116   1.968   2.284   5.563
 4178SOL     OW13117   3.302   2.718   6.984
 4178SOL    HW113118   3.245   2.770   6.921
 4178SOL    HW213119   3.398   2.730   6.960
 4179SOL     OW13120   1.934   2.028   5.904
 4179SOL    HW113121   1.917   2.111   5.850
 4179SOL    HW213122   2.024   1.991   5.882
 4180SOL     OW13123   3.045   3.197   5.705
 4180SOL    HW113124   2.946   3.186   5.707
 4180SOL    HW213125   3.079   3.212   5.798
 4181SOL     OW13126   3.355   3.629   6.545
 4181SOL    HW113127   3.388   3.693   6.476
 4181SOL    HW213128   3.421   3.623   6.620
 4182SOL     OW13129   3.312   3.082   7.219
 4182SOL    HW113130   3.303   3.072   7.318
 4182SOL    HW213131   3.408   3.075   7.193
 4183SOL     OW13132   2.252   3.603   7.146
 4183SOL    HW113133   2.161   3.644   7.144
 4183SOL    HW213134   2.245   3.509   7.178
 4184SOL     OW13135   3.536   2.745   6.840
 4184SOL    HW113136   3.509   2.656   6.803
 4184SOL    HW213137   3.537   2.813   6.767
 4185SOL     OW13138   3.087   2.187   6.035
 4185SOL    HW113139   3.152   2.113   6.024
 4185SOL    HW213140   3.107   2.237   6.119
 4186SOL     OW13141   3.639   2.204   7.228
 4186SOL    HW113142   3.622   2.235   7.134
 4186SOL    HW213143   3.555   2.167   7.266
 4187SOL     OW13144   3.592   2.796   7.103
 4187SOL    HW113145   3.630   2.887   7.118
 4187SOL    HW213146   3.584   2.779   7.004
 4188SOL     OW13147   2.721   3.236   5.602
 4188SOL    HW113148   2.675   3.251   5.690
 4188SOL    HW213149   2.765   3.321   5.572
 4189SOL     OW13150   2.523   3.652   6.539
 4189SOL    HW113151   2.477   3.740   6.526
 4189SOL    HW213152   2.622   3.664   6.532
 4190SOL     OW13153   2.945   2.846   5.673
 4190SOL    HW113154   2.922   2.899   5.591
 4190SOL    HW213155   3.026   2.790   5.654
 4191SOL     OW13156   3.723   3.431   6.437
 4191SOL    HW113157   3.652   3.419   6.367
 4191SOL    HW213158   3.724   3.352   6.497
 4192SOL     OW13159   2.083   3.176   7.430
 4192SOL    HW113160   2.018   3.103   7.409
 4192SOL    HW213161   2.087   3.190   7.528
 4193SOL     OW13162   1.941   3.102   6.239
 4193SOL    HW113163   1.940   3.055   6.327
 4193SOL    HW213164   2.023   3.074   6.188
 4194SOL     OW13165   2.534   3.253   7.210
 4194SOL    HW113166   2.456   3.203   7.248
 4194SOL    HW213167   2.531   3.348   7.241
 4195SOL     OW13168   3.686   2.054   6.813
 4195SOL    HW113169   3.682   1.964   6.857
 4195SOL    HW213170   3.689   2.043   6.714
 4196SOL     OW13171   2.290   2.286   6.106
 4196SOL    HW113172   2.320   2.214   6.044
 4196SOL    HW213173   2.251   2.246   6.189
 4197SOL     OW13174   3.567   3.349   6.690
 4197SOL    HW113175   3.474   3.324   6.663
 4197SOL    HW213176   3.593   3.299   6.772
 4198SOL     OW13177   2.179   2.409   6.866
 4198SOL    HW113178   2.217   2.350   6.938
 4198SOL    HW213179   2.219   2.383   6.778
 4199SOL     OW13180   2.674   3.448   6.273
 4199SOL    HW113181   2.706   3.458   6.179
 4199SOL    HW213182   2.595   3.386   6.275
 4200SOL     OW13183   3.286   2.076   6.698
 4200SOL    HW113184   3.338   2.011   6.753
 4200SOL    HW213185   3.237   2.139   6.759
 4201SOL     OW13186   2.863   1.896   6.740
 4201SOL    HW113187   2.800   1.824   6.709
 4201SOL    HW213188   2.956   1.860   6.740
 4202SOL     OW13189   2.632   3.192   5.887
 4202SOL    HW113190   2.586   3.105   5.904
 4202SOL    HW213191   2.723   3.189   5.928
 4203SOL     OW13192   2.480   3.429   6.870
 4203SOL    HW113193   2.475   3.511   6.927
 4203SOL    HW213194   2.569   3.426   6.825
 4204SOL     OW13195   3.214   1.914   5.754
 4204SOL    HW113196   3.249   1.873   5.670
 4204SOL    HW213197   3.124   1.876   5.774
 4205SOL     OW13198   3.162   2.315   6.277
 4205SOL    HW113199   3.103   2.395   6.281
 4205SOL    HW213200   3.177   2.280   6.370
 4206SOL     OW13201   3.455   2.083   6.468
 4206SOL    HW113202   3.371   2.082   6.522
 4206SOL    HW213203   3.457   2.166   6.412
 4207SOL     OW13204   1.901   2.939   5.886
 4207SOL    HW113205   2.000   2.928   5.877
 4207SOL    HW213206   1.861   2.853   5.918
 4208SOL     OW13207   2.737   3.508   5.923
 4208SOL    HW113208   2.660   3.473   5.869
 4208SOL    HW213209   2.705   3.579   5.985
 4209SOL     OW13210   2.092   2.490   7.561
 4209SOL    HW113211   1.999   2.488   7.598
 4209SOL    HW213212   2.093   2.451   7.469
 4210SOL     OW13213   3.617   2.469   7.679
 4210SOL    HW113214   3.605   2.456   7.580
 4210SOL    HW213215   3.587   2.388   7.728
 4211SOL     OW13216   2.093   3.575   7.931
 4211SOL    HW113217   2.127   3.652   7.985
 4211SOL    HW213218   2.137   3.575   7.841
 4212SOL     OW13219   2.092   3.296   7.986
 4212SOL    HW113220   2.066   3.392   7.986
 4212SOL    HW213221   2.021   3.242   8.031
 4213SOL     OW13222   3.704   3.629   7.807
 4213SOL    HW113223   3.758   3.600   7.887
 4213SOL    HW213224   3.734   3.719   7.778
 4214SOL     OW13225   1.889   3.458   7.565
 4214SOL    HW113226   1.870   3.362   7.586
 4214SOL    HW213227   1.856   3.516   7.640
 4215SOL     OW13228   3.551   2.784   8.060
 4215SOL    HW113229   3.646   2.755   8.068
 4215SOL    HW213230   3.543   2.849   7.985
 4216SOL     OW13231   3.503   2.970   7.880
 4216SOL    HW113232   3.589   2.972   7.828
 4216SOL    HW213233   3.517   3.017   7.968
 4217SOL     OW13234   2.671   1.866   7.950
 4217SOL    HW113235   2.711   1.957   7.941
 4217SOL    HW213236   2.571   1.874   7.956
 4218SOL     OW13237   3.387   2.861   7.638
 4218SOL    HW113238   3.324   2.785   7.651
 4218SOL    HW213239   3.435   2.879   7.724
 4219SOL     OW13240   3.438   3.524   7.755
 4219SOL    HW113241   3.527   3.570   7.758
 4219SOL    HW213242   3.417   3.500   7.660
 4220SOL     OW13243   1.938   2.673   8.237
 4220SOL    HW113244   2.037   2.661   8.246
 4220SOL    HW213245   1.914   2.768   8.258
 4221SOL     OW13246   2.727   2.210   7.643
 4221SOL    HW113247   2.786   2.273   7.594
 4221SOL    HW213248   2.746   2.116   7.614
 4222SOL     OW13249   2.183   2.805   7.690
 4222SOL    HW113250   2.265   2.844   7.648
 4222SOL    HW213251   2.156   2.723   7.641
 4223SOL     OW13252   2.973   3.638   7.685
 4223SOL    HW113253   2.913   3.576   7.735
 4223SOL    HW213254   3.004   3.594   7.600
 4224SOL     OW13255   3.494   3.239   7.529
 4224SOL    HW113256   3.462   3.333   7.519
 4224SOL    HW213257   3.418   3.176   7.517
 4225SOL     OW13258   2.326   3.605   7.771
 4225SOL    HW113259   2.359   3.644   7.857
 4225SOL    HW213260   2.402   3.598   7.706
 4226SOL     OW13261   3.262   1.969   7.874
 4226SOL    HW113262   3.238   1.932   7.784
 4226SOL    HW213263   3.361   1.985   7.878
 4227SOL     OW13264   2.244   2.562   7.928
 4227SOL    HW113265   2.289   2.472   7.925
 4227SOL    HW213266   2.150   2.551   7.961
 4228SOL     OW13267   2.476   1.984   7.565
 4228SOL    HW113268   2.574   1.962   7.572
 4228SOL    HW213269   2.445   1.967   7.472
 4229SOL     OW13270   2.401   1.926   7.960
 4229SOL    HW113271   2.320   1.927   8.018
 4229SOL    HW213272   2.404   2.009   7.905
 4230SOL     OW13273   3.296   3.050   7.489
 4230SOL    HW113274   3.328   2.974   7.546
 4230SOL    HW213275   3.204   3.077   7.519
 4231SOL     OW13276   2.159   1.897   7.619
 4231SOL    HW113277   2.208   1.981   7.598
 4231SOL    HW213278   2.221   1.832   7.664
 4232SOL     OW13279   2.797   2.098   7.928
 4232SOL    HW113280   2.749   2.139   7.850
 4232SOL    HW213281   2.896   2.096   7.909
 4233SOL     OW13282   2.321   3.014   8.189
 4233SOL    HW113283   2.250   2.987   8.254
 4233SOL    HW213284   2.295   2.986   8.096
 4234SOL     OW13285   3.133   3.659   8.039
 4234SOL    HW113286   3.177   3.723   7.975
 4234SOL    HW213287   3.083   3.711   8.109
 4235SOL     OW13288   3.719   2.695   7.825
 4235SOL    HW113289   3.761   2.631   7.889
 4235SOL    HW213290   3.681   2.644   7.747
 4236SOL     OW13291   2.350   3.247   7.622
 4236SOL    HW113292   2.263   3.232   7.669
 4236SOL    HW213293   2.333   3.273   7.527
 4237SOL     OW13294   3.252   2.437   7.526
 4237SOL    HW113295   3.198   2.416   7.607
 4237SOL    HW213296   3.343   2.396   7.535
 4238SOL     OW13297   2.389   2.118   7.776
 4238SOL    HW113298   2.416   2.059   7.701
 4238SOL    HW213299   2.389   2.213   7.745
 4239SOL     OW13300   2.229   2.962   7.949
 4239SOL    HW113301   2.222   3.045   7.893
 4239SOL    HW213302   2.233   2.882   7.889
 4240SOL     OW13303   3.114   3.210   7.836
 4240SOL    HW113304   3.164   3.287   7.876
 4240SOL    HW213305   3.019   3.212   7.868
 4241SOL     OW13306   3.444   2.501   7.920
 4241SOL    HW113307   3.413   2.562   7.993
 4241SOL    HW213308   3.494   2.553   7.851
 4242SOL     OW13309   3.071   2.387   7.723
 4242SOL    HW113310   3.084   2.303   7.777
 4242SOL    HW213311   3.042   2.461   7.783
 4243SOL     OW13312   3.484   2.229   7.822
 4243SOL    HW113313   3.486   2.153   7.886
 4243SOL    HW213314   3.436   2.306   7.862
 4244SOL     OW13315   3.402   2.136   7.573
 4244SOL    HW113316   3.341   2.061   7.596
 4244SOL    HW213317   3.424   2.188   7.656
 4245SOL     OW13318   3.165   2.700   7.490
 4245SOL    HW113319   3.199   2.607   7.505
 4245SOL    HW213320   3.183   2.727   7.395
 4246SOL     OW13321   1.870   3.188   7.648
 4246SOL    HW113322   1.777   3.209   7.617
 4246SOL    HW213323   1.880   3.089   7.661
 4247SOL     OW13324   2.335   2.362   7.639
 4247SOL    HW113325   2.396   2.442   7.643
 4247SOL    HW213326   2.240   2.393   7.646
 4248SOL     OW13327   3.164   2.717   7.757
 4248SOL    HW113328   3.078   2.686   7.799
 4248SOL    HW213329   3.160   2.703   7.658
 4249SOL     OW13330   3.588   1.997   7.971
 4249SOL    HW113331   3.661   1.980   7.904
 4249SOL    HW213332   3.557   1.910   8.009
 4250SOL     OW13333   3.250   3.435   7.925
 4250SOL    HW113334   3.317   3.447   7.851
 4250SOL    HW213335   3.210   3.524   7.948
 4251SOL     OW13336   2.534   3.478   7.602
 4251SOL    HW113337   2.543   3.488   7.503
 4251SOL    HW213338   2.494   3.389   7.623
 4252SOL     OW13339   3.056   3.474   7.479
 4252SOL    HW113340   3.062   3.381   7.516
 4252SOL    HW213341   2.997   3.474   7.399
 4253SOL     OW13342   3.366   3.469   7.492
 4253SOL    HW113343   3.274   3.506   7.499
 4253SOL    HW213344   3.404   3.489   7.402
 4254SOL     OW13345   2.452   3.349   7.939
 4254SOL    HW113346   2.494   3.291   7.869
 4254SOL    HW213347   2.408   3.428   7.895
 4255SOL     OW13348   2.117   3.210   7.738
 4255SOL    HW113349   2.021   3.211   7.711
 4255SOL    HW213350   2.129   3.263   7.822
 4256SOL     OW13351   1.937   2.207   7.481
 4256SOL    HW113352   1.845   2.179   7.452
 4256SOL    HW213353   1.968   2.284   7.425
 4257SOL     OW13354   1.934   2.028   7.766
 4257SOL    HW113355   1.917   2.111   7.712
 4257SOL    HW213356   2.024   1.991   7.744
 4258SOL     OW13357   3.045   3.197   7.567
 4258SOL    HW113358   2.946   3.186   7.569
 4258SOL    HW213359   3.079   3.212   7.660
 4259SOL     OW13360   3.087   2.187   7.897
 4259SOL    HW113361   3.152   2.113   7.886
 4259SOL    HW213362   3.107   2.237   7.981
 4260SOL     OW13363   2.721   3.236   7.464
 4260SOL    HW113364   2.675   3.251   7.552
 4260SOL    HW213365   2.765   3.321   7.434
 4261SOL     OW13366   2.945   2.846   7.535
 4261SOL    HW113367   2.922   2.899   7.453
 4261SOL    HW213368   3.026   2.790   7.516
 4262SOL     OW13369   2.290   2.286   7.968
 4262SOL    HW113370   2.320   2.214   7.906
 4262SOL    HW213371   2.251   2.246   8.051
 4263SOL     OW13372   2.632   3.192   7.749
 4263SOL    HW113373   2.586   3.105   7.766
 4263SOL    HW213374   2.723   3.189   7.790
 4264SOL     OW13375   3.214   1.914   7.616
 4264SOL    HW113376   3.249   1.873   7.532
 4264SOL    HW213377   3.124   1.876   7.636
 4265SOL     OW13378   1.901   2.939   7.748
 4265SOL    HW113379   2.000   2.928   7.739
 4265SOL    HW213380   1.861   2.853   7.780
 4266SOL     OW13381   2.737   3.508   7.785
 4266SOL    HW113382   2.660   3.473   7.731
 4266SOL    HW213383   2.705   3.579   7.847
 4267SOL     OW13384   2.092   4.352   0.113
 4267SOL    HW113385   1.999   4.350   0.150
 4267SOL    HW213386   2.093   4.313   0.021
 4268SOL     OW13387   2.087   3.999   0.996
 4268SOL    HW113388   2.122   3.982   1.088
 4268SOL    HW213389   1.999   3.954   0.984
 4269SOL     OW13390   1.881   4.092   0.647
 4269SOL    HW113391   1.799   4.135   0.686
 4269SOL    HW213392   1.853   4.019   0.584
 4270SOL     OW13393   2.431   4.999   1.165
 4270SOL    HW113394   2.338   4.992   1.128
 4270SOL    HW213395   2.442   5.088   1.209
 4271SOL     OW13396   3.417   5.235   0.703
 4271SOL    HW113397   3.360   5.219   0.784
 4271SOL    HW213398   3.358   5.245   0.623
 4272SOL     OW13399   2.997   4.427   0.717
 4272SOL    HW113400   3.054   4.505   0.692
 4272SOL    HW213401   2.937   4.453   0.793
 4273SOL     OW13402   3.617   4.331   0.231
 4273SOL    HW113403   3.605   4.318   0.132
 4273SOL    HW213404   3.587   4.250   0.280
 4274SOL     OW13405   2.630   4.868   1.023
 4274SOL    HW113406   2.552   4.885   1.083
 4274SOL    HW213407   2.664   4.955   0.987
 4275SOL     OW13408   2.712   4.522   1.823
 4275SOL    HW113409   2.708   4.598   1.888
 4275SOL    HW213410   2.734   4.558   1.732
 4276SOL     OW13411   2.547   4.736   0.665
 4276SOL    HW113412   2.616   4.720   0.735
 4276SOL    HW213413   2.474   4.793   0.703
 4277SOL     OW13414   2.548   4.885   1.803
 4277SOL    HW113415   2.608   4.964   1.817
 4277SOL    HW213416   2.462   4.916   1.762
 4278SOL     OW13417   2.197   5.159   1.061
 4278SOL    HW113418   2.119   5.128   1.008
 4278SOL    HW213419   2.255   5.217   1.004
 4279SOL     OW13420   3.322   5.229   1.339
 4279SOL    HW113421   3.346   5.323   1.365
 4279SOL    HW213422   3.306   5.175   1.421
 4280SOL     OW13423   2.300   4.116   1.499
 4280SOL    HW113424   2.382   4.060   1.508
 4280SOL    HW213425   2.219   4.058   1.503
 4281SOL     OW13426   3.465   4.171   0.737
 4281SOL    HW113427   3.391   4.217   0.687
 4281SOL    HW213428   3.516   4.239   0.790
 4282SOL     OW13429   2.989   5.065   1.690
 4282SOL    HW113430   3.036   5.065   1.778
 4282SOL    HW213431   2.941   4.978   1.679
 4283SOL     OW13432   2.092   5.158   0.538
 4283SOL    HW113433   2.066   5.254   0.538
 4283SOL    HW213434   2.021   5.104   0.583
 4284SOL     OW13435   2.102   4.815   0.886
 4284SOL    HW113436   2.116   4.731   0.938
 4284SOL    HW213437   2.047   4.879   0.941
 4285SOL     OW13438   2.468   4.688   0.123
 4285SOL    HW113439   2.475   4.772   0.069
 4285SOL    HW213440   2.514   4.701   0.211
 4286SOL     OW13441   3.456   3.838   1.480
 4286SOL    HW113442   3.438   3.905   1.408
 4286SOL    HW213443   3.453   3.884   1.569
 4287SOL     OW13444   1.984   4.367   0.563
 4287SOL    HW113445   1.939   4.279   0.580
 4287SOL    HW213446   1.983   4.421   0.647
 4288SOL     OW13447   1.889   5.320   0.117
 4288SOL    HW113448   1.870   5.224   0.138
 4288SOL    HW213449   1.856   5.378   0.192
 4289SOL     OW13450   3.551   4.646   0.612
 4289SOL    HW113451   3.646   4.617   0.620
 4289SOL    HW213452   3.543   4.711   0.537
 4290SOL     OW13453   3.503   4.832   0.432
 4290SOL    HW113454   3.589   4.834   0.380
 4290SOL    HW213455   3.517   4.879   0.520
 4291SOL     OW13456   1.975   4.461   1.597
 4291SOL    HW113457   2.063   4.448   1.642
 4291SOL    HW213458   1.962   4.558   1.575
 4292SOL     OW13459   2.475   5.089   0.726
 4292SOL    HW113460   2.426   5.002   0.735
 4292SOL    HW213461   2.452   5.132   0.639
 4293SOL     OW13462   3.155   4.952   1.423
 4293SOL    HW113463   3.192   4.879   1.365
 4293SOL    HW213464   3.207   4.957   1.508
 4294SOL     OW13465   2.671   3.728   0.502
 4294SOL    HW113466   2.711   3.819   0.493
 4294SOL    HW213467   2.571   3.736   0.508
 4295SOL     OW13468   2.059   4.700   1.264
 4295SOL    HW113469   2.148   4.655   1.250
 4295SOL    HW213470   1.986   4.635   1.245
 4296SOL     OW13471   3.387   4.723   0.190
 4296SOL    HW113472   3.324   4.647   0.203
 4296SOL    HW213473   3.435   4.741   0.276
 4297SOL     OW13474   2.179   3.975   1.801
 4297SOL    HW113475   2.250   4.046   1.807
 4297SOL    HW213476   2.091   4.014   1.829
 4298SOL     OW13477   3.328   5.141   0.953
 4298SOL    HW113478   3.269   5.147   1.033
 4298SOL    HW213479   3.313   5.053   0.907
 4299SOL     OW13480   2.460   4.453   0.270
 4299SOL    HW113481   2.484   4.522   0.202
 4299SOL    HW213482   2.382   4.486   0.324
 4300SOL     OW13483   3.143   4.069   0.944
 4300SOL    HW113484   3.057   4.019   0.931
 4300SOL    HW213485   3.205   4.015   1.000
 4301SOL     OW13486   2.669   4.329   1.465
 4301SOL    HW113487   2.622   4.326   1.554
 4301SOL    HW213488   2.618   4.274   1.399
 4302SOL     OW13489   3.256   4.193   1.674
 4302SOL    HW113490   3.236   4.236   1.762
 4302SOL    HW213491   3.334   4.131   1.683
 4303SOL     OW13492   2.835   4.614   1.572
 4303SOL    HW113493   2.881   4.530   1.543
 4303SOL    HW213494   2.779   4.648   1.497
 4304SOL     OW13495   2.853   4.134   1.242
 4304SOL    HW113496   2.776   4.168   1.296
 4304SOL    HW213497   2.819   4.083   1.163
 4305SOL     OW13498   2.903   4.425   0.429
 4305SOL    HW113499   2.929   4.421   0.525
 4305SOL    HW213500   2.818   4.374   0.415
 4306SOL     OW13501   1.938   4.535   0.789
 4306SOL    HW113502   2.037   4.523   0.798
 4306SOL    HW213503   1.914   4.630   0.810
 4307SOL     OW13504   2.727   4.072   0.195
 4307SOL    HW113505   2.786   4.135   0.146
 4307SOL    HW213506   2.746   3.978   0.166
 4308SOL     OW13507   3.581   4.309   1.831
 4308SOL    HW113508   3.555   4.398   1.795
 4308SOL    HW213509   3.579   4.241   1.758
 4309SOL     OW13510   3.224   4.868   0.545
 4309SOL    HW113511   3.307   4.839   0.497
 4309SOL    HW213512   3.175   4.935   0.489
 4310SOL     OW13513   2.412   3.920   0.885
 4310SOL    HW113514   2.407   3.915   0.985
 4310SOL    HW213515   2.414   4.016   0.856
 4311SOL     OW13516   2.870   5.180   0.477
 4311SOL    HW113517   2.824   5.252   0.425
 4311SOL    HW213518   2.866   5.200   0.575
 4312SOL     OW13519   3.657   4.790   0.873
 4312SOL    HW113520   3.595   4.775   0.797
 4312SOL    HW213521   3.605   4.801   0.958
 4313SOL     OW13522   3.089   5.274   1.506
 4313SOL    HW113523   3.095   5.197   1.570
 4313SOL    HW213524   3.037   5.248   1.426
 4314SOL     OW13525   2.183   4.667   0.242
 4314SOL    HW113526   2.265   4.706   0.200
 4314SOL    HW213527   2.156   4.585   0.193
 4315SOL     OW13528   3.320   4.459   0.728
 4315SOL    HW113529   3.315   4.394   0.803
 4315SOL    HW213530   3.400   4.518   0.741
 4316SOL     OW13531   2.323   4.990   1.727
 4316SOL    HW113532   2.273   4.991   1.641
 4316SOL    HW213533   2.260   4.972   1.803
 4317SOL     OW13534   2.973   5.500   0.237
 4317SOL    HW113535   2.913   5.438   0.287
 4317SOL    HW213536   3.004   5.456   0.152
 4318SOL     OW13537   2.064   4.009   1.498
 4318SOL    HW113538   1.984   4.069   1.485
 4318SOL    HW213539   2.054   3.960   1.584
 4319SOL     OW13540   3.494   5.101   0.081
 4319SOL    HW113541   3.462   5.195   0.071
 4319SOL    HW213542   3.418   5.038   0.069
 4320SOL     OW13543   3.262   3.831   0.426
 4320SOL    HW113544   3.238   3.794   0.336
 4320SOL    HW213545   3.361   3.847   0.430
 4321SOL     OW13546   2.244   4.424   0.480
 4321SOL    HW113547   2.289   4.334   0.477
 4321SOL    HW213548   2.150   4.413   0.513
 4322SOL     OW13549   3.409   3.946   1.729
 4322SOL    HW113550   3.404   3.983   1.821
 4322SOL    HW213551   3.337   3.877   1.717
 4323SOL     OW13552   2.476   3.846   0.117
 4323SOL    HW113553   2.574   3.824   0.124
 4323SOL    HW213554   2.445   3.829   0.024
 4324SOL     OW13555   2.643   3.988   1.749
 4324SOL    HW113556   2.710   3.927   1.792
 4324SOL    HW213557   2.570   4.007   1.814
 4325SOL     OW13558   3.213   4.314   1.433
 4325SOL    HW113559   3.241   4.271   1.518
 4325SOL    HW213560   3.238   4.410   1.434
 4326SOL     OW13561   2.665   5.126   0.924
 4326SOL    HW113562   2.755   5.140   0.882
 4326SOL    HW213563   2.594   5.128   0.853
 4327SOL     OW13564   2.784   4.227   0.899
 4327SOL    HW113565   2.759   4.218   0.803
 4327SOL    HW213566   2.832   4.145   0.930
 4328SOL     OW13567   2.401   3.788   0.512
 4328SOL    HW113568   2.320   3.789   0.570
 4328SOL    HW213569   2.404   3.871   0.457
 4329SOL     OW13570   3.296   4.912   0.041
 4329SOL    HW113571   3.328   4.836   0.098
 4329SOL    HW213572   3.204   4.939   0.071
 4330SOL     OW13573   2.159   3.759   0.171
 4330SOL    HW113574   2.208   3.843   0.150
 4330SOL    HW213575   2.221   3.694   0.216
 4331SOL     OW13576   2.797   3.960   0.480
 4331SOL    HW113577   2.749   4.001   0.402
 4331SOL    HW213578   2.896   3.958   0.461
 4332SOL     OW13579   2.938   4.407   1.464
 4332SOL    HW113580   2.858   4.346   1.467
 4332SOL    HW213581   3.019   4.354   1.440
 4333SOL     OW13582   3.089   5.294   0.793
 4333SOL    HW113583   3.110   5.368   0.728
 4333SOL    HW213584   3.157   5.294   0.866
 4334SOL     OW13585   2.321   4.876   0.741
 4334SOL    HW113586   2.250   4.849   0.806
 4334SOL    HW213587   2.295   4.848   0.648
 4335SOL     OW13588   2.894   4.273   0.016
 4335SOL    HW113589   2.853   4.355  -0.023
 4335SOL    HW213590   2.958   4.299   0.089
 4336SOL     OW13591   1.940   4.280   1.386
 4336SOL    HW113592   2.032   4.279   1.345
 4336SOL    HW213593   1.934   4.354   1.453
 4337SOL     OW13594   2.423   3.946   1.147
 4337SOL    HW113595   2.461   3.862   1.184
 4337SOL    HW213596   2.335   3.965   1.191
 4338SOL     OW13597   2.728   4.178   0.642
 4338SOL    HW113598   2.696   4.250   0.580
 4338SOL    HW213599   2.752   4.097   0.589
 4339SOL     OW13600   2.879   3.763   0.753
 4339SOL    HW113601   2.807   3.768   0.684
 4339SOL    HW213602   2.855   3.694   0.822
 4340SOL     OW13603   3.291   4.897   0.867
 4340SOL    HW113604   3.236   4.813   0.860
 4340SOL    HW213605   3.317   4.926   0.775
 4341SOL     OW13606   3.328   4.314   0.992
 4341SOL    HW113607   3.298   4.219   0.999
 4341SOL    HW213608   3.401   4.330   1.058
 4342SOL     OW13609   3.719   4.557   0.377
 4342SOL    HW113610   3.761   4.493   0.441
 4342SOL    HW213611   3.681   4.506   0.299
 4343SOL     OW13612   2.350   5.109   0.174
 4343SOL    HW113613   2.263   5.094   0.221
 4343SOL    HW213614   2.333   5.135   0.079
 4344SOL     OW13615   3.526   5.004   0.657
 4344SOL    HW113616   3.625   5.012   0.671
 4344SOL    HW213617   3.481   5.088   0.688
 4345SOL     OW13618   3.252   4.299   0.078
 4345SOL    HW113619   3.198   4.278   0.159
 4345SOL    HW213620   3.343   4.258   0.087
 4346SOL     OW13621   2.389   3.980   0.328
 4346SOL    HW113622   2.416   3.921   0.253
 4346SOL    HW213623   2.389   4.075   0.297
 4347SOL     OW13624   3.616   4.947   1.588
 4347SOL    HW113625   3.707   4.908   1.575
 4347SOL    HW213626   3.624   5.043   1.612
 4348SOL     OW13627   2.926   5.071   1.340
 4348SOL    HW113628   2.846   5.048   1.395
 4348SOL    HW213629   3.009   5.045   1.389
 4349SOL     OW13630   2.973   4.919   1.100
 4349SOL    HW113631   2.933   4.963   1.181
 4349SOL    HW213632   2.932   4.956   1.017
 4350SOL     OW13633   3.500   4.823   1.079
 4350SOL    HW113634   3.505   4.904   1.138
 4350SOL    HW213635   3.414   4.825   1.028
 4351SOL     OW13636   2.777   3.813   1.402
 4351SOL    HW113637   2.802   3.793   1.307
 4351SOL    HW213638   2.849   3.869   1.444
 4352SOL     OW13639   2.842   4.840   1.719
 4352SOL    HW113640   2.743   4.846   1.729
 4352SOL    HW213641   2.865   4.760   1.663
 4353SOL     OW13642   2.567   4.774   0.368
 4353SOL    HW113643   2.553   4.781   0.467
 4353SOL    HW213644   2.651   4.723   0.350
 4354SOL     OW13645   2.272   4.537   1.251
 4354SOL    HW113646   2.358   4.549   1.301
 4354SOL    HW213647   2.230   4.450   1.278
 4355SOL     OW13648   3.136   4.110   1.262
 4355SOL    HW113649   3.157   4.184   1.326
 4355SOL    HW213650   3.047   4.127   1.219
 4356SOL     OW13651   2.229   4.824   0.501
 4356SOL    HW113652   2.222   4.907   0.445
 4356SOL    HW213653   2.233   4.744   0.441
 4357SOL     OW13654   2.428   4.261   0.865
 4357SOL    HW113655   2.440   4.327   0.791
 4357SOL    HW213656   2.474   4.295   0.948
 4358SOL     OW13657   3.114   5.072   0.388
 4358SOL    HW113658   3.164   5.149   0.428
 4358SOL    HW213659   3.019   5.074   0.420
 4359SOL     OW13660   3.134   5.169   1.142
 4359SOL    HW113661   3.181   5.182   1.229
 4359SOL    HW213662   3.068   5.095   1.151
 4360SOL     OW13663   3.444   4.363   0.472
 4360SOL    HW113664   3.413   4.424   0.545
 4360SOL    HW213665   3.494   4.415   0.403
 4361SOL     OW13666   2.216   5.234   1.329
 4361SOL    HW113667   2.195   5.190   1.242
 4361SOL    HW213668   2.313   5.260   1.332
 4362SOL     OW13669   2.264   4.475   1.598
 4362SOL    HW113670   2.332   4.530   1.551
 4362SOL    HW213671   2.304   4.387   1.625
 4363SOL     OW13672   3.449   4.503   1.670
 4363SOL    HW113673   3.357   4.541   1.665
 4363SOL    HW213674   3.509   4.550   1.605
 4364SOL     OW13675   2.875   3.829   1.770
 4364SOL    HW113676   2.881   3.914   1.718
 4364SOL    HW213677   2.907   3.753   1.713
 4365SOL     OW13678   2.366   3.774   1.740
 4365SOL    HW113679   2.324   3.717   1.670
 4365SOL    HW213680   2.300   3.843   1.772
 4366SOL     OW13681   2.435   4.594   1.029
 4366SOL    HW113682   2.479   4.683   1.020
 4366SOL    HW213683   2.372   4.594   1.106
 4367SOL     OW13684   3.222   4.586   1.045
 4367SOL    HW113685   3.147   4.586   0.979
 4367SOL    HW213686   3.259   4.494   1.054
 4368SOL     OW13687   3.071   4.249   0.275
 4368SOL    HW113688   3.084   4.165   0.329
 4368SOL    HW213689   3.042   4.323   0.335
 4369SOL     OW13690   2.169   3.937   1.231
 4369SOL    HW113691   2.146   3.974   1.321
 4369SOL    HW213692   2.139   3.842   1.225
 4370SOL     OW13693   1.899   5.034   1.282
 4370SOL    HW113694   1.952   4.985   1.350
 4370SOL    HW213695   1.921   5.132   1.287
 4371SOL     OW13696   2.594   4.358   1.064
 4371SOL    HW113697   2.653   4.332   0.988
 4371SOL    HW213698   2.566   4.454   1.053
 4372SOL     OW13699   3.590   4.659   1.854
 4372SOL    HW113700   3.544   4.652   1.765
 4372SOL    HW213701   3.528   4.703   1.920
 4373SOL     OW13702   2.169   3.787   0.618
 4373SOL    HW113703   2.158   3.881   0.651
 4373SOL    HW213704   2.164   3.724   0.695
 4374SOL     OW13705   3.484   4.091   0.374
 4374SOL    HW113706   3.486   4.015   0.438
 4374SOL    HW213707   3.436   4.168   0.414
 4375SOL     OW13708   2.885   4.490   0.966
 4375SOL    HW113709   2.900   4.511   1.062
 4375SOL    HW213710   2.855   4.395   0.957
 4376SOL     OW13711   3.721   5.242   1.605
 4376SOL    HW113712   3.735   5.269   1.510
 4376SOL    HW213713   3.804   5.264   1.658
 4377SOL     OW13714   2.212   4.622   1.804
 4377SOL    HW113715   2.288   4.666   1.852
 4377SOL    HW213716   2.247   4.575   1.722
 4378SOL     OW13717   3.402   3.998   0.125
 4378SOL    HW113718   3.341   3.923   0.148
 4378SOL    HW213719   3.424   4.050   0.208
 4379SOL     OW13720   3.165   4.562   0.042
 4379SOL    HW113721   3.199   4.469   0.057
 4379SOL    HW213722   3.183   4.589  -0.053
 4380SOL     OW13723   2.930   5.057   0.849
 4380SOL    HW113724   2.937   4.973   0.794
 4380SOL    HW213725   2.992   5.126   0.813
 4381SOL     OW13726   2.181   4.534   0.949
 4381SOL    HW113727   2.274   4.570   0.954
 4381SOL    HW213728   2.175   4.449   1.001
 4382SOL     OW13729   2.201   4.233   1.006
 4382SOL    HW113730   2.149   4.150   0.989
 4382SOL    HW213731   2.278   4.238   0.942
 4383SOL     OW13732   3.000   4.104   1.678
 4383SOL    HW113733   2.955   4.167   1.742
 4383SOL    HW213734   3.093   4.135   1.661
 4384SOL     OW13735   3.022   3.931   1.477
 4384SOL    HW113736   3.022   3.995   1.554
 4384SOL    HW213737   3.050   3.979   1.394
 4385SOL     OW13738   1.870   5.050   0.200
 4385SOL    HW113739   1.777   5.071   0.169
 4385SOL    HW213740   1.880   4.951   0.213
 4386SOL     OW13741   2.864   4.520   1.238
 4386SOL    HW113742   2.905   4.488   1.324
 4386SOL    HW213743   2.768   4.493   1.235
 4387SOL     OW13744   1.902   4.268   1.114
 4387SOL    HW113745   1.987   4.235   1.073
 4387SOL    HW213746   1.915   4.283   1.212
 4388SOL     OW13747   2.051   4.244   1.722
 4388SOL    HW113748   2.110   4.204   1.652
 4388SOL    HW213749   1.993   4.315   1.681
 4389SOL     OW13750   3.231   4.674   1.660
 4389SOL    HW113751   3.270   4.763   1.680
 4389SOL    HW213752   3.241   4.654   1.563
 4390SOL     OW13753   2.677   4.296   0.325
 4390SOL    HW113754   2.684   4.207   0.279
 4390SOL    HW213755   2.583   4.330   0.317
 4391SOL     OW13756   3.519   4.328   1.206
 4391SOL    HW113757   3.481   4.259   1.268
 4391SOL    HW213758   3.601   4.292   1.162
 4392SOL     OW13759   2.114   5.288   1.744
 4392SOL    HW113760   2.084   5.345   1.820
 4392SOL    HW213761   2.107   5.191   1.770
 4393SOL     OW13762   2.533   4.188   1.269
 4393SOL    HW113763   2.499   4.099   1.239
 4393SOL    HW213764   2.559   4.242   1.189
 4394SOL     OW13765   2.335   4.224   0.191
 4394SOL    HW113766   2.396   4.304   0.195
 4394SOL    HW213767   2.240   4.255   0.198
 4395SOL     OW13768   2.021   4.861   1.466
 4395SOL    HW113769   2.043   4.800   1.542
 4395SOL    HW213770   2.031   4.812   1.380
 4396SOL     OW13771   3.209   4.783   1.234
 4396SOL    HW113772   3.233   4.720   1.160
 4396SOL    HW213773   3.119   4.823   1.216
 4397SOL     OW13774   3.164   4.579   0.309
 4397SOL    HW113775   3.078   4.548   0.351
 4397SOL    HW213776   3.160   4.565   0.210
 4398SOL     OW13777   1.945   4.982   1.022
 4398SOL    HW113778   1.940   4.981   1.122
 4398SOL    HW213779   1.862   4.941   0.984
 4399SOL     OW13780   2.550   5.386   1.716
 4399SOL    HW113781   2.494   5.467   1.725
 4399SOL    HW213782   2.602   5.390   1.630
 4400SOL     OW13783   2.765   3.810   0.133
 4400SOL    HW113784   2.816   3.811   0.047
 4400SOL    HW213785   2.821   3.768   0.204
 4401SOL     OW13786   3.588   3.859   0.523
 4401SOL    HW113787   3.661   3.842   0.456
 4401SOL    HW213788   3.557   3.772   0.561
 4402SOL     OW13789   3.142   4.651   0.672
 4402SOL    HW113790   3.202   4.570   0.674
 4402SOL    HW213791   3.182   4.720   0.612
 4403SOL     OW13792   2.692   4.997   1.422
 4403SOL    HW113793   2.687   5.030   1.517
 4403SOL    HW213794   2.606   5.016   1.376
 4404SOL     OW13795   3.703   3.899   0.963
 4404SOL    HW113796   3.742   3.814   0.927
 4404SOL    HW213797   3.605   3.901   0.944
 4405SOL     OW13798   2.125   4.050   0.720
 4405SOL    HW113799   2.046   4.101   0.686
 4405SOL    HW213800   2.116   4.035   0.818
 4406SOL     OW13801   3.056   5.336   0.031
 4406SOL    HW113802   3.062   5.243   0.068
 4406SOL    HW213803   2.997   5.336  -0.049
 4407SOL     OW13804   2.684   4.726   1.372
 4407SOL    HW113805   2.724   4.725   1.280
 4407SOL    HW213806   2.694   4.818   1.412
 4408SOL     OW13807   2.778   4.634   0.291
 4408SOL    HW113808   2.841   4.672   0.223
 4408SOL    HW213809   2.818   4.551   0.330
 4409SOL     OW13810   2.234   5.012   1.490
 4409SOL    HW113811   2.221   5.105   1.456
 4409SOL    HW213812   2.150   4.960   1.477
 4410SOL     OW13813   3.476   5.016   1.289
 4410SOL    HW113814   3.536   5.019   1.369
 4410SOL    HW213815   3.401   5.080   1.302
 4411SOL     OW13816   2.901   4.822   0.696
 4411SOL    HW113817   2.831   4.775   0.750
 4411SOL    HW213818   2.960   4.754   0.653
 4412SOL     OW13819   2.876   3.960   0.971
 4412SOL    HW113820   2.868   3.924   0.878
 4412SOL    HW213821   2.874   3.884   1.036
 4413SOL     OW13822   3.571   4.109   1.381
 4413SOL    HW113823   3.644   4.178   1.385
 4413SOL    HW213824   3.599   4.034   1.322
 4414SOL     OW13825   2.117   5.072   0.290
 4414SOL    HW113826   2.021   5.073   0.263
 4414SOL    HW213827   2.129   5.125   0.374
 4415SOL     OW13828   1.967   4.737   1.726
 4415SOL    HW113829   1.890   4.704   1.780
 4415SOL    HW213830   2.052   4.707   1.768
 4416SOL     OW13831   2.534   3.927   1.489
 4416SOL    HW113832   2.624   3.911   1.449
 4416SOL    HW213833   2.542   3.932   1.588
 4417SOL     OW13834   1.937   4.069   0.033
 4417SOL    HW113835   1.845   4.041   0.004
 4417SOL    HW213836   1.968   4.146  -0.023
 4418SOL     OW13837   3.302   4.580   1.398
 4418SOL    HW113838   3.245   4.632   1.335
 4418SOL    HW213839   3.398   4.592   1.374
 4419SOL     OW13840   1.934   3.890   0.318
 4419SOL    HW113841   1.917   3.973   0.264
 4419SOL    HW213842   2.024   3.853   0.296
 4420SOL     OW13843   3.045   5.059   0.119
 4420SOL    HW113844   2.946   5.048   0.121
 4420SOL    HW213845   3.079   5.074   0.212
 4421SOL     OW13846   2.475   4.566   1.431
 4421SOL    HW113847   2.531   4.647   1.414
 4421SOL    HW213848   2.534   4.486   1.434
 4422SOL     OW13849   2.578   4.289   1.708
 4422SOL    HW113850   2.597   4.354   1.782
 4422SOL    HW213851   2.638   4.209   1.717
 4423SOL     OW13852   3.312   4.944   1.633
 4423SOL    HW113853   3.303   4.934   1.732
 4423SOL    HW213854   3.408   4.937   1.607
 4424SOL     OW13855   3.536   4.607   1.254
 4424SOL    HW113856   3.509   4.518   1.217
 4424SOL    HW213857   3.537   4.675   1.181
 4425SOL     OW13858   3.087   4.049   0.449
 4425SOL    HW113859   3.152   3.975   0.438
 4425SOL    HW213860   3.107   4.099   0.533
 4426SOL     OW13861   2.456   4.469   0.652
 4426SOL    HW113862   2.506   4.554   0.633
 4426SOL    HW213863   2.368   4.471   0.604
 4427SOL     OW13864   3.639   4.066   1.642
 4427SOL    HW113865   3.622   4.097   1.548
 4427SOL    HW213866   3.555   4.029   1.680
 4428SOL     OW13867   3.592   4.658   1.517
 4428SOL    HW113868   3.630   4.749   1.532
 4428SOL    HW213869   3.584   4.641   1.418
 4429SOL     OW13870   2.721   5.098   0.016
 4429SOL    HW113871   2.675   5.113   0.104
 4429SOL    HW213872   2.765   5.183  -0.014
 4430SOL     OW13873   2.721   4.680   0.861
 4430SOL    HW113874   2.775   4.611   0.909
 4430SOL    HW213875   2.689   4.749   0.927
 4431SOL     OW13876   2.945   4.708   0.087
 4431SOL    HW113877   2.922   4.761   0.005
 4431SOL    HW213878   3.026   4.652   0.068
 4432SOL     OW13879   2.083   5.038   1.844
 4432SOL    HW113880   2.018   4.965   1.823
 4432SOL    HW213881   2.087   5.052   1.942
 4433SOL     OW13882   1.941   4.964   0.653
 4433SOL    HW113883   1.940   4.917   0.741
 4433SOL    HW213884   2.023   4.936   0.602
 4434SOL     OW13885   2.534   5.115   1.624
 4434SOL    HW113886   2.456   5.065   1.662
 4434SOL    HW213887   2.531   5.210   1.655
 4435SOL     OW13888   3.686   3.916   1.227
 4435SOL    HW113889   3.682   3.826   1.271
 4435SOL    HW213890   3.689   3.905   1.128
 4436SOL     OW13891   2.290   4.148   0.520
 4436SOL    HW113892   2.320   4.076   0.458
 4436SOL    HW213893   2.251   4.108   0.603
 4437SOL     OW13894   3.567   5.211   1.104
 4437SOL    HW113895   3.474   5.186   1.077
 4437SOL    HW213896   3.593   5.161   1.186
 4438SOL     OW13897   2.179   4.271   1.280
 4438SOL    HW113898   2.217   4.212   1.352
 4438SOL    HW213899   2.219   4.245   1.192
 4439SOL     OW13900   3.286   3.938   1.112
 4439SOL    HW113901   3.338   3.873   1.167
 4439SOL    HW213902   3.237   4.001   1.173
 4440SOL     OW13903   2.863   3.758   1.154
 4440SOL    HW113904   2.800   3.686   1.123
 4440SOL    HW213905   2.956   3.722   1.154
 4441SOL     OW13906   2.632   5.054   0.301
 4441SOL    HW113907   2.586   4.967   0.318
 4441SOL    HW213908   2.723   5.051   0.342
 4442SOL     OW13909   2.480   5.291   1.284
 4442SOL    HW113910   2.475   5.373   1.341
 4442SOL    HW213911   2.569   5.288   1.239
 4443SOL     OW13912   3.214   3.776   0.168
 4443SOL    HW113913   3.249   3.735   0.084
 4443SOL    HW213914   3.124   3.738   0.188
 4444SOL     OW13915   3.162   4.177   0.691
 4444SOL    HW113916   3.103   4.257   0.695
 4444SOL    HW213917   3.177   4.142   0.784
 4445SOL     OW13918   3.455   3.945   0.882
 4445SOL    HW113919   3.371   3.944   0.936
 4445SOL    HW213920   3.457   4.028   0.826
 4446SOL     OW13921   1.901   4.801   0.300
 4446SOL    HW113922   2.000   4.790   0.291
 4446SOL    HW213923   1.861   4.715   0.332
 4447SOL     OW13924   2.092   4.352   1.975
 4447SOL    HW113925   1.999   4.350   2.012
 4447SOL    HW213926   2.093   4.313   1.883
 4448SOL     OW13927   2.087   3.999   2.858
 4448SOL    HW113928   2.122   3.982   2.950
 4448SOL    HW213929   1.999   3.954   2.846
 4449SOL     OW13930   1.881   4.092   2.509
 4449SOL    HW113931   1.799   4.135   2.548
 4449SOL    HW213932   1.853   4.019   2.446
 4450SOL     OW13933   2.431   4.999   3.027
 4450SOL    HW113934   2.338   4.992   2.990
 4450SOL    HW213935   2.442   5.088   3.071
 4451SOL     OW13936   3.417   5.235   2.565
 4451SOL    HW113937   3.360   5.219   2.646
 4451SOL    HW213938   3.358   5.245   2.485
 4452SOL     OW13939   2.997   4.427   2.579
 4452SOL    HW113940   3.054   4.505   2.554
 4452SOL    HW213941   2.937   4.453   2.655
 4453SOL     OW13942   3.617   4.331   2.093
 4453SOL    HW113943   3.605   4.318   1.994
 4453SOL    HW213944   3.587   4.250   2.142
 4454SOL     OW13945   2.630   4.868   2.885
 4454SOL    HW113946   2.552   4.885   2.945
 4454SOL    HW213947   2.664   4.955   2.849
 4455SOL     OW13948   2.712   4.522   3.685
 4455SOL    HW113949   2.708   4.598   3.750
 4455SOL    HW213950   2.734   4.558   3.594
 4456SOL     OW13951   2.547   4.736   2.527
 4456SOL    HW113952   2.616   4.720   2.597
 4456SOL    HW213953   2.474   4.793   2.565
 4457SOL     OW13954   2.548   4.885   3.665
 4457SOL    HW113955   2.608   4.964   3.679
 4457SOL    HW213956   2.462   4.916   3.624
 4458SOL     OW13957   2.197   5.159   2.923
 4458SOL    HW113958   2.119   5.128   2.870
 4458SOL    HW213959   2.255   5.217   2.866
 4459SOL     OW13960   3.322   5.229   3.201
 4459SOL    HW113961   3.346   5.323   3.227
 4459SOL    HW213962   3.306   5.175   3.283
 4460SOL     OW13963   2.300   4.116   3.361
 4460SOL    HW113964   2.382   4.060   3.370
 4460SOL    HW213965   2.219   4.058   3.365
 4461SOL     OW13966   3.465   4.171   2.599
 4461SOL    HW113967   3.391   4.217   2.549
 4461SOL    HW213968   3.516   4.239   2.652
 4462SOL     OW13969   2.989   5.065   3.552
 4462SOL    HW113970   3.036   5.065   3.640
 4462SOL    HW213971   2.941   4.978   3.541
 4463SOL     OW13972   2.092   5.158   2.400
 4463SOL    HW113973   2.066   5.254   2.400
 4463SOL    HW213974   2.021   5.104   2.445
 4464SOL     OW13975   2.102   4.815   2.748
 4464SOL    HW113976   2.116   4.731   2.800
 4464SOL    HW213977   2.047   4.879   2.803
 4465SOL     OW13978   2.468   4.688   1.985
 4465SOL    HW113979   2.475   4.772   1.931
 4465SOL    HW213980   2.514   4.701   2.073
 4466SOL     OW13981   3.456   3.838   3.342
 4466SOL    HW113982   3.438   3.905   3.270
 4466SOL    HW213983   3.453   3.884   3.431
 4467SOL     OW13984   1.984   4.367   2.425
 4467SOL    HW113985   1.939   4.279   2.442
 4467SOL    HW213986   1.983   4.421   2.509
 4468SOL     OW13987   1.889   5.320   1.979
 4468SOL    HW113988   1.870   5.224   2.000
 4468SOL    HW213989   1.856   5.378   2.054
 4469SOL     OW13990   3.551   4.646   2.474
 4469SOL    HW113991   3.646   4.617   2.482
 4469SOL    HW213992   3.543   4.711   2.399
 4470SOL     OW13993   3.503   4.832   2.294
 4470SOL    HW113994   3.589   4.834   2.242
 4470SOL    HW213995   3.517   4.879   2.382
 4471SOL     OW13996   1.975   4.461   3.459
 4471SOL    HW113997   2.063   4.448   3.504
 4471SOL    HW213998   1.962   4.558   3.437
 4472SOL     OW13999   2.475   5.089   2.588
 4472SOL    HW114000   2.426   5.002   2.597
 4472SOL    HW214001   2.452   5.132   2.501
 4473SOL     OW14002   3.155   4.952   3.285
 4473SOL    HW114003   3.192   4.879   3.227
 4473SOL    HW214004   3.207   4.957   3.370
 4474SOL     OW14005   2.671   3.728   2.364
 4474SOL    HW114006   2.711   3.819   2.355
 4474SOL    HW214007   2.571   3.736   2.370
 4475SOL     OW14008   2.059   4.700   3.126
 4475SOL    HW114009   2.148   4.655   3.112
 4475SOL    HW214010   1.986   4.635   3.107
 4476SOL     OW14011   3.387   4.723   2.052
 4476SOL    HW114012   3.324   4.647   2.065
 4476SOL    HW214013   3.435   4.741   2.138
 4477SOL     OW14014   2.179   3.975   3.663
 4477SOL    HW114015   2.250   4.046   3.669
 4477SOL    HW214016   2.091   4.014   3.691
 4478SOL     OW14017   3.328   5.141   2.815
 4478SOL    HW114018   3.269   5.147   2.895
 4478SOL    HW214019   3.313   5.053   2.769
 4479SOL     OW14020   2.460   4.453   2.132
 4479SOL    HW114021   2.484   4.522   2.064
 4479SOL    HW214022   2.382   4.486   2.186
 4480SOL     OW14023   3.143   4.069   2.806
 4480SOL    HW114024   3.057   4.019   2.793
 4480SOL    HW214025   3.205   4.015   2.862
 4481SOL     OW14026   2.669   4.329   3.327
 4481SOL    HW114027   2.622   4.326   3.416
 4481SOL    HW214028   2.618   4.274   3.261
 4482SOL     OW14029   3.256   4.193   3.536
 4482SOL    HW114030   3.236   4.236   3.624
 4482SOL    HW214031   3.334   4.131   3.545
 4483SOL     OW14032   2.835   4.614   3.434
 4483SOL    HW114033   2.881   4.530   3.405
 4483SOL    HW214034   2.779   4.648   3.359
 4484SOL     OW14035   2.853   4.134   3.104
 4484SOL    HW114036   2.776   4.168   3.158
 4484SOL    HW214037   2.819   4.083   3.025
 4485SOL     OW14038   2.903   4.425   2.291
 4485SOL    HW114039   2.929   4.421   2.387
 4485SOL    HW214040   2.818   4.374   2.277
 4486SOL     OW14041   1.938   4.535   2.651
 4486SOL    HW114042   2.037   4.523   2.660
 4486SOL    HW214043   1.914   4.630   2.672
 4487SOL     OW14044   2.727   4.072   2.057
 4487SOL    HW114045   2.786   4.135   2.008
 4487SOL    HW214046   2.746   3.978   2.028
 4488SOL     OW14047   3.581   4.309   3.693
 4488SOL    HW114048   3.555   4.398   3.657
 4488SOL    HW214049   3.579   4.241   3.620
 4489SOL     OW14050   3.224   4.868   2.407
 4489SOL    HW114051   3.307   4.839   2.359
 4489SOL    HW214052   3.175   4.935   2.351
 4490SOL     OW14053   2.412   3.920   2.747
 4490SOL    HW114054   2.407   3.915   2.847
 4490SOL    HW214055   2.414   4.016   2.718
 4491SOL     OW14056   2.870   5.180   2.339
 4491SOL    HW114057   2.824   5.252   2.287
 4491SOL    HW214058   2.866   5.200   2.437
 4492SOL     OW14059   3.657   4.790   2.735
 4492SOL    HW114060   3.595   4.775   2.659
 4492SOL    HW214061   3.605   4.801   2.820
 4493SOL     OW14062   3.089   5.274   3.368
 4493SOL    HW114063   3.095   5.197   3.432
 4493SOL    HW214064   3.037   5.248   3.288
 4494SOL     OW14065   2.183   4.667   2.104
 4494SOL    HW114066   2.265   4.706   2.062
 4494SOL    HW214067   2.156   4.585   2.055
 4495SOL     OW14068   3.320   4.459   2.590
 4495SOL    HW114069   3.315   4.394   2.665
 4495SOL    HW214070   3.400   4.518   2.603
 4496SOL     OW14071   2.323   4.990   3.589
 4496SOL    HW114072   2.273   4.991   3.503
 4496SOL    HW214073   2.260   4.972   3.665
 4497SOL     OW14074   2.973   5.500   2.099
 4497SOL    HW114075   2.913   5.438   2.149
 4497SOL    HW214076   3.004   5.456   2.014
 4498SOL     OW14077   2.064   4.009   3.360
 4498SOL    HW114078   1.984   4.069   3.347
 4498SOL    HW214079   2.054   3.960   3.446
 4499SOL     OW14080   3.494   5.101   1.943
 4499SOL    HW114081   3.462   5.195   1.933
 4499SOL    HW214082   3.418   5.038   1.931
 4500SOL     OW14083   3.262   3.831   2.288
 4500SOL    HW114084   3.238   3.794   2.198
 4500SOL    HW214085   3.361   3.847   2.292
 4501SOL     OW14086   2.244   4.424   2.342
 4501SOL    HW114087   2.289   4.334   2.339
 4501SOL    HW214088   2.150   4.413   2.375
 4502SOL     OW14089   3.409   3.946   3.591
 4502SOL    HW114090   3.404   3.983   3.683
 4502SOL    HW214091   3.337   3.877   3.579
 4503SOL     OW14092   2.476   3.846   1.979
 4503SOL    HW114093   2.574   3.824   1.986
 4503SOL    HW214094   2.445   3.829   1.886
 4504SOL     OW14095   2.643   3.988   3.611
 4504SOL    HW114096   2.710   3.927   3.654
 4504SOL    HW214097   2.570   4.007   3.676
 4505SOL     OW14098   3.213   4.314   3.295
 4505SOL    HW114099   3.241   4.271   3.380
 4505SOL    HW214100   3.238   4.410   3.296
 4506SOL     OW14101   2.665   5.126   2.786
 4506SOL    HW114102   2.755   5.140   2.744
 4506SOL    HW214103   2.594   5.128   2.715
 4507SOL     OW14104   2.784   4.227   2.761
 4507SOL    HW114105   2.759   4.218   2.665
 4507SOL    HW214106   2.832   4.145   2.792
 4508SOL     OW14107   2.401   3.788   2.374
 4508SOL    HW114108   2.320   3.789   2.432
 4508SOL    HW214109   2.404   3.871   2.319
 4509SOL     OW14110   3.296   4.912   1.903
 4509SOL    HW114111   3.328   4.836   1.960
 4509SOL    HW214112   3.204   4.939   1.933
 4510SOL     OW14113   2.159   3.759   2.033
 4510SOL    HW114114   2.208   3.843   2.012
 4510SOL    HW214115   2.221   3.694   2.078
 4511SOL     OW14116   2.797   3.960   2.342
 4511SOL    HW114117   2.749   4.001   2.264
 4511SOL    HW214118   2.896   3.958   2.323
 4512SOL     OW14119   2.938   4.407   3.326
 4512SOL    HW114120   2.858   4.346   3.329
 4512SOL    HW214121   3.019   4.354   3.302
 4513SOL     OW14122   3.089   5.294   2.655
 4513SOL    HW114123   3.110   5.368   2.590
 4513SOL    HW214124   3.157   5.294   2.728
 4514SOL     OW14125   2.321   4.876   2.603
 4514SOL    HW114126   2.250   4.849   2.668
 4514SOL    HW214127   2.295   4.848   2.510
 4515SOL     OW14128   2.894   4.273   1.878
 4515SOL    HW114129   2.853   4.355   1.839
 4515SOL    HW214130   2.958   4.299   1.951
 4516SOL     OW14131   1.940   4.280   3.248
 4516SOL    HW114132   2.032   4.279   3.207
 4516SOL    HW214133   1.934   4.354   3.315
 4517SOL     OW14134   2.423   3.946   3.009
 4517SOL    HW114135   2.461   3.862   3.046
 4517SOL    HW214136   2.335   3.965   3.053
 4518SOL     OW14137   2.728   4.178   2.504
 4518SOL    HW114138   2.696   4.250   2.442
 4518SOL    HW214139   2.752   4.097   2.451
 4519SOL     OW14140   2.879   3.763   2.615
 4519SOL    HW114141   2.807   3.768   2.546
 4519SOL    HW214142   2.855   3.694   2.684
 4520SOL     OW14143   3.291   4.897   2.729
 4520SOL    HW114144   3.236   4.813   2.722
 4520SOL    HW214145   3.317   4.926   2.637
 4521SOL     OW14146   3.328   4.314   2.854
 4521SOL    HW114147   3.298   4.219   2.861
 4521SOL    HW214148   3.401   4.330   2.920
 4522SOL     OW14149   3.719   4.557   2.239
 4522SOL    HW114150   3.761   4.493   2.303
 4522SOL    HW214151   3.681   4.506   2.161
 4523SOL     OW14152   2.350   5.109   2.036
 4523SOL    HW114153   2.263   5.094   2.083
 4523SOL    HW214154   2.333   5.135   1.941
 4524SOL     OW14155   3.526   5.004   2.519
 4524SOL    HW114156   3.625   5.012   2.533
 4524SOL    HW214157   3.481   5.088   2.550
 4525SOL     OW14158   3.252   4.299   1.940
 4525SOL    HW114159   3.198   4.278   2.021
 4525SOL    HW214160   3.343   4.258   1.949
 4526SOL     OW14161   2.389   3.980   2.190
 4526SOL    HW114162   2.416   3.921   2.115
 4526SOL    HW214163   2.389   4.075   2.159
 4527SOL     OW14164   3.616   4.947   3.450
 4527SOL    HW114165   3.707   4.908   3.437
 4527SOL    HW214166   3.624   5.043   3.474
 4528SOL     OW14167   2.926   5.071   3.202
 4528SOL    HW114168   2.846   5.048   3.257
 4528SOL    HW214169   3.009   5.045   3.251
 4529SOL     OW14170   2.973   4.919   2.962
 4529SOL    HW114171   2.933   4.963   3.043
 4529SOL    HW214172   2.932   4.956   2.879
 4530SOL     OW14173   3.500   4.823   2.941
 4530SOL    HW114174   3.505   4.904   3.000
 4530SOL    HW214175   3.414   4.825   2.890
 4531SOL     OW14176   2.777   3.813   3.264
 4531SOL    HW114177   2.802   3.793   3.169
 4531SOL    HW214178   2.849   3.869   3.306
 4532SOL     OW14179   2.842   4.840   3.581
 4532SOL    HW114180   2.743   4.846   3.591
 4532SOL    HW214181   2.865   4.760   3.525
 4533SOL     OW14182   2.567   4.774   2.230
 4533SOL    HW114183   2.553   4.781   2.329
 4533SOL    HW214184   2.651   4.723   2.212
 4534SOL     OW14185   2.272   4.537   3.113
 4534SOL    HW114186   2.358   4.549   3.163
 4534SOL    HW214187   2.230   4.450   3.140
 4535SOL     OW14188   3.136   4.110   3.124
 4535SOL    HW114189   3.157   4.184   3.188
 4535SOL    HW214190   3.047   4.127   3.081
 4536SOL     OW14191   2.229   4.824   2.363
 4536SOL    HW114192   2.222   4.907   2.307
 4536SOL    HW214193   2.233   4.744   2.303
 4537SOL     OW14194   2.428   4.261   2.727
 4537SOL    HW114195   2.440   4.327   2.653
 4537SOL    HW214196   2.474   4.295   2.810
 4538SOL     OW14197   3.114   5.072   2.250
 4538SOL    HW114198   3.164   5.149   2.290
 4538SOL    HW214199   3.019   5.074   2.282
 4539SOL     OW14200   3.134   5.169   3.004
 4539SOL    HW114201   3.181   5.182   3.091
 4539SOL    HW214202   3.068   5.095   3.013
 4540SOL     OW14203   3.444   4.363   2.334
 4540SOL    HW114204   3.413   4.424   2.407
 4540SOL    HW214205   3.494   4.415   2.265
 4541SOL     OW14206   2.216   5.234   3.191
 4541SOL    HW114207   2.195   5.190   3.104
 4541SOL    HW214208   2.313   5.260   3.194
 4542SOL     OW14209   2.264   4.475   3.460
 4542SOL    HW114210   2.332   4.530   3.413
 4542SOL    HW214211   2.304   4.387   3.487
 4543SOL     OW14212   3.449   4.503   3.532
 4543SOL    HW114213   3.357   4.541   3.527
 4543SOL    HW214214   3.509   4.550   3.467
 4544SOL     OW14215   2.875   3.829   3.632
 4544SOL    HW114216   2.881   3.914   3.580
 4544SOL    HW214217   2.907   3.753   3.575
 4545SOL     OW14218   2.366   3.774   3.602
 4545SOL    HW114219   2.324   3.717   3.532
 4545SOL    HW214220   2.300   3.843   3.634
 4546SOL     OW14221   2.435   4.594   2.891
 4546SOL    HW114222   2.479   4.683   2.882
 4546SOL    HW214223   2.372   4.594   2.968
 4547SOL     OW14224   3.222   4.586   2.907
 4547SOL    HW114225   3.147   4.586   2.841
 4547SOL    HW214226   3.259   4.494   2.916
 4548SOL     OW14227   3.071   4.249   2.137
 4548SOL    HW114228   3.084   4.165   2.191
 4548SOL    HW214229   3.042   4.323   2.197
 4549SOL     OW14230   2.169   3.937   3.093
 4549SOL    HW114231   2.146   3.974   3.183
 4549SOL    HW214232   2.139   3.842   3.087
 4550SOL     OW14233   1.899   5.034   3.144
 4550SOL    HW114234   1.952   4.985   3.212
 4550SOL    HW214235   1.921   5.132   3.149
 4551SOL     OW14236   2.594   4.358   2.926
 4551SOL    HW114237   2.653   4.332   2.850
 4551SOL    HW214238   2.566   4.454   2.915
 4552SOL     OW14239   3.590   4.659   3.716
 4552SOL    HW114240   3.544   4.652   3.627
 4552SOL    HW214241   3.528   4.703   3.782
 4553SOL     OW14242   2.169   3.787   2.480
 4553SOL    HW114243   2.158   3.881   2.513
 4553SOL    HW214244   2.164   3.724   2.557
 4554SOL     OW14245   3.484   4.091   2.236
 4554SOL    HW114246   3.486   4.015   2.300
 4554SOL    HW214247   3.436   4.168   2.276
 4555SOL     OW14248   2.885   4.490   2.828
 4555SOL    HW114249   2.900   4.511   2.924
 4555SOL    HW214250   2.855   4.395   2.819
 4556SOL     OW14251   3.721   5.242   3.467
 4556SOL    HW114252   3.735   5.269   3.372
 4556SOL    HW214253   3.804   5.264   3.520
 4557SOL     OW14254   2.212   4.622   3.666
 4557SOL    HW114255   2.288   4.666   3.714
 4557SOL    HW214256   2.247   4.575   3.584
 4558SOL     OW14257   3.402   3.998   1.987
 4558SOL    HW114258   3.341   3.923   2.010
 4558SOL    HW214259   3.424   4.050   2.070
 4559SOL     OW14260   3.165   4.562   1.904
 4559SOL    HW114261   3.199   4.469   1.919
 4559SOL    HW214262   3.183   4.589   1.809
 4560SOL     OW14263   2.930   5.057   2.711
 4560SOL    HW114264   2.937   4.973   2.656
 4560SOL    HW214265   2.992   5.126   2.675
 4561SOL     OW14266   2.181   4.534   2.811
 4561SOL    HW114267   2.274   4.570   2.816
 4561SOL    HW214268   2.175   4.449   2.863
 4562SOL     OW14269   2.201   4.233   2.868
 4562SOL    HW114270   2.149   4.150   2.851
 4562SOL    HW214271   2.278   4.238   2.804
 4563SOL     OW14272   3.000   4.104   3.540
 4563SOL    HW114273   2.955   4.167   3.604
 4563SOL    HW214274   3.093   4.135   3.523
 4564SOL     OW14275   3.022   3.931   3.339
 4564SOL    HW114276   3.022   3.995   3.416
 4564SOL    HW214277   3.050   3.979   3.256
 4565SOL     OW14278   1.870   5.050   2.062
 4565SOL    HW114279   1.777   5.071   2.031
 4565SOL    HW214280   1.880   4.951   2.075
 4566SOL     OW14281   2.864   4.520   3.100
 4566SOL    HW114282   2.905   4.488   3.186
 4566SOL    HW214283   2.768   4.493   3.097
 4567SOL     OW14284   1.902   4.268   2.976
 4567SOL    HW114285   1.987   4.235   2.935
 4567SOL    HW214286   1.915   4.283   3.074
 4568SOL     OW14287   2.051   4.244   3.584
 4568SOL    HW114288   2.110   4.204   3.514
 4568SOL    HW214289   1.993   4.315   3.543
 4569SOL     OW14290   3.231   4.674   3.522
 4569SOL    HW114291   3.270   4.763   3.542
 4569SOL    HW214292   3.241   4.654   3.425
 4570SOL     OW14293   2.677   4.296   2.187
 4570SOL    HW114294   2.684   4.207   2.141
 4570SOL    HW214295   2.583   4.330   2.179
 4571SOL     OW14296   3.519   4.328   3.068
 4571SOL    HW114297   3.481   4.259   3.130
 4571SOL    HW214298   3.601   4.292   3.024
 4572SOL     OW14299   2.114   5.288   3.606
 4572SOL    HW114300   2.084   5.345   3.682
 4572SOL    HW214301   2.107   5.191   3.632
 4573SOL     OW14302   2.533   4.188   3.131
 4573SOL    HW114303   2.499   4.099   3.101
 4573SOL    HW214304   2.559   4.242   3.051
 4574SOL     OW14305   2.335   4.224   2.053
 4574SOL    HW114306   2.396   4.304   2.057
 4574SOL    HW214307   2.240   4.255   2.060
 4575SOL     OW14308   2.021   4.861   3.328
 4575SOL    HW114309   2.043   4.800   3.404
 4575SOL    HW214310   2.031   4.812   3.242
 4576SOL     OW14311   3.209   4.783   3.096
 4576SOL    HW114312   3.233   4.720   3.022
 4576SOL    HW214313   3.119   4.823   3.078
 4577SOL     OW14314   3.164   4.579   2.171
 4577SOL    HW114315   3.078   4.548   2.213
 4577SOL    HW214316   3.160   4.565   2.072
 4578SOL     OW14317   1.945   4.982   2.884
 4578SOL    HW114318   1.940   4.981   2.984
 4578SOL    HW214319   1.862   4.941   2.846
 4579SOL     OW14320   2.550   5.386   3.578
 4579SOL    HW114321   2.494   5.467   3.587
 4579SOL    HW214322   2.602   5.390   3.492
 4580SOL     OW14323   3.588   3.859   2.385
 4580SOL    HW114324   3.661   3.842   2.318
 4580SOL    HW214325   3.557   3.772   2.423
 4581SOL     OW14326   3.142   4.651   2.534
 4581SOL    HW114327   3.202   4.570   2.536
 4581SOL    HW214328   3.182   4.720   2.474
 4582SOL     OW14329   2.692   4.997   3.284
 4582SOL    HW114330   2.687   5.030   3.379
 4582SOL    HW214331   2.606   5.016   3.238
 4583SOL     OW14332   3.703   3.899   2.825
 4583SOL    HW114333   3.742   3.814   2.789
 4583SOL    HW214334   3.605   3.901   2.806
 4584SOL     OW14335   2.125   4.050   2.582
 4584SOL    HW114336   2.046   4.101   2.548
 4584SOL    HW214337   2.116   4.035   2.680
 4585SOL     OW14338   2.684   4.726   3.234
 4585SOL    HW114339   2.724   4.725   3.142
 4585SOL    HW214340   2.694   4.818   3.274
 4586SOL     OW14341   2.778   4.634   2.153
 4586SOL    HW114342   2.841   4.672   2.085
 4586SOL    HW214343   2.818   4.551   2.192
 4587SOL     OW14344   2.234   5.012   3.352
 4587SOL    HW114345   2.221   5.105   3.318
 4587SOL    HW214346   2.150   4.960   3.339
 4588SOL     OW14347   3.476   5.016   3.151
 4588SOL    HW114348   3.536   5.019   3.231
 4588SOL    HW214349   3.401   5.080   3.164
 4589SOL     OW14350   2.901   4.822   2.558
 4589SOL    HW114351   2.831   4.775   2.612
 4589SOL    HW214352   2.960   4.754   2.515
 4590SOL     OW14353   2.876   3.960   2.833
 4590SOL    HW114354   2.868   3.924   2.740
 4590SOL    HW214355   2.874   3.884   2.898
 4591SOL     OW14356   3.571   4.109   3.243
 4591SOL    HW114357   3.644   4.178   3.247
 4591SOL    HW214358   3.599   4.034   3.184
 4592SOL     OW14359   2.117   5.072   2.152
 4592SOL    HW114360   2.021   5.073   2.125
 4592SOL    HW214361   2.129   5.125   2.236
 4593SOL     OW14362   1.967   4.737   3.588
 4593SOL    HW114363   1.890   4.704   3.642
 4593SOL    HW214364   2.052   4.707   3.630
 4594SOL     OW14365   2.534   3.927   3.351
 4594SOL    HW114366   2.624   3.911   3.311
 4594SOL    HW214367   2.542   3.932   3.450
 4595SOL     OW14368   1.937   4.069   1.895
 4595SOL    HW114369   1.845   4.041   1.866
 4595SOL    HW214370   1.968   4.146   1.839
 4596SOL     OW14371   3.302   4.580   3.260
 4596SOL    HW114372   3.245   4.632   3.197
 4596SOL    HW214373   3.398   4.592   3.236
 4597SOL     OW14374   1.934   3.890   2.180
 4597SOL    HW114375   1.917   3.973   2.126
 4597SOL    HW214376   2.024   3.853   2.158
 4598SOL     OW14377   3.045   5.059   1.981
 4598SOL    HW114378   2.946   5.048   1.983
 4598SOL    HW214379   3.079   5.074   2.074
 4599SOL     OW14380   2.475   4.566   3.293
 4599SOL    HW114381   2.531   4.647   3.276
 4599SOL    HW214382   2.534   4.486   3.296
 4600SOL     OW14383   2.578   4.289   3.570
 4600SOL    HW114384   2.597   4.354   3.644
 4600SOL    HW214385   2.638   4.209   3.579
 4601SOL     OW14386   3.312   4.944   3.495
 4601SOL    HW114387   3.303   4.934   3.594
 4601SOL    HW214388   3.408   4.937   3.469
 4602SOL     OW14389   3.536   4.607   3.116
 4602SOL    HW114390   3.509   4.518   3.079
 4602SOL    HW214391   3.537   4.675   3.043
 4603SOL     OW14392   3.087   4.049   2.311
 4603SOL    HW114393   3.152   3.975   2.300
 4603SOL    HW214394   3.107   4.099   2.395
 4604SOL     OW14395   2.456   4.469   2.514
 4604SOL    HW114396   2.506   4.554   2.495
 4604SOL    HW214397   2.368   4.471   2.466
 4605SOL     OW14398   3.639   4.066   3.504
 4605SOL    HW114399   3.622   4.097   3.410
 4605SOL    HW214400   3.555   4.029   3.542
 4606SOL     OW14401   3.592   4.658   3.379
 4606SOL    HW114402   3.630   4.749   3.394
 4606SOL    HW214403   3.584   4.641   3.280
 4607SOL     OW14404   2.721   5.098   1.878
 4607SOL    HW114405   2.675   5.113   1.966
 4607SOL    HW214406   2.765   5.183   1.848
 4608SOL     OW14407   2.721   4.680   2.723
 4608SOL    HW114408   2.775   4.611   2.771
 4608SOL    HW214409   2.689   4.749   2.789
 4609SOL     OW14410   2.945   4.708   1.949
 4609SOL    HW114411   2.922   4.761   1.867
 4609SOL    HW214412   3.026   4.652   1.930
 4610SOL     OW14413   2.083   5.038   3.706
 4610SOL    HW114414   2.018   4.965   3.685
 4610SOL    HW214415   2.087   5.052   3.804
 4611SOL     OW14416   1.941   4.964   2.515
 4611SOL    HW114417   1.940   4.917   2.603
 4611SOL    HW214418   2.023   4.936   2.464
 4612SOL     OW14419   2.534   5.115   3.486
 4612SOL    HW114420   2.456   5.065   3.524
 4612SOL    HW214421   2.531   5.210   3.517
 4613SOL     OW14422   3.686   3.916   3.089
 4613SOL    HW114423   3.682   3.826   3.133
 4613SOL    HW214424   3.689   3.905   2.990
 4614SOL     OW14425   2.290   4.148   2.382
 4614SOL    HW114426   2.320   4.076   2.320
 4614SOL    HW214427   2.251   4.108   2.465
 4615SOL     OW14428   3.567   5.211   2.966
 4615SOL    HW114429   3.474   5.186   2.939
 4615SOL    HW214430   3.593   5.161   3.048
 4616SOL     OW14431   2.179   4.271   3.142
 4616SOL    HW114432   2.217   4.212   3.214
 4616SOL    HW214433   2.219   4.245   3.054
 4617SOL     OW14434   3.286   3.938   2.974
 4617SOL    HW114435   3.338   3.873   3.029
 4617SOL    HW214436   3.237   4.001   3.035
 4618SOL     OW14437   2.863   3.758   3.016
 4618SOL    HW114438   2.800   3.686   2.985
 4618SOL    HW214439   2.956   3.722   3.016
 4619SOL     OW14440   2.632   5.054   2.163
 4619SOL    HW114441   2.586   4.967   2.180
 4619SOL    HW214442   2.723   5.051   2.204
 4620SOL     OW14443   2.480   5.291   3.146
 4620SOL    HW114444   2.475   5.373   3.203
 4620SOL    HW214445   2.569   5.288   3.101
 4621SOL     OW14446   3.214   3.776   2.030
 4621SOL    HW114447   3.249   3.735   1.946
 4621SOL    HW214448   3.124   3.738   2.050
 4622SOL     OW14449   3.162   4.177   2.553
 4622SOL    HW114450   3.103   4.257   2.557
 4622SOL    HW214451   3.177   4.142   2.646
 4623SOL     OW14452   3.455   3.945   2.744
 4623SOL    HW114453   3.371   3.944   2.798
 4623SOL    HW214454   3.457   4.028   2.688
 4624SOL     OW14455   1.901   4.801   2.162
 4624SOL    HW114456   2.000   4.790   2.153
 4624SOL    HW214457   1.861   4.715   2.194
 4625SOL     OW14458   2.092   4.352   3.837
 4625SOL    HW114459   1.999   4.350   3.874
 4625SOL    HW214460   2.093   4.313   3.745
 4626SOL     OW14461   2.087   3.999   4.720
 4626SOL    HW114462   2.122   3.982   4.812
 4626SOL    HW214463   1.999   3.954   4.708
 4627SOL     OW14464   1.881   4.092   4.371
 4627SOL    HW114465   1.799   4.135   4.410
 4627SOL    HW214466   1.853   4.019   4.308
 4628SOL     OW14467   2.431   4.999   4.889
 4628SOL    HW114468   2.338   4.992   4.852
 4628SOL    HW214469   2.442   5.088   4.933
 4629SOL     OW14470   3.417   5.235   4.427
 4629SOL    HW114471   3.360   5.219   4.508
 4629SOL    HW214472   3.358   5.245   4.347
 4630SOL     OW14473   2.997   4.427   4.441
 4630SOL    HW114474   3.054   4.505   4.416
 4630SOL    HW214475   2.937   4.453   4.517
 4631SOL     OW14476   3.617   4.331   3.955
 4631SOL    HW114477   3.605   4.318   3.856
 4631SOL    HW214478   3.587   4.250   4.004
 4632SOL     OW14479   2.630   4.868   4.747
 4632SOL    HW114480   2.552   4.885   4.807
 4632SOL    HW214481   2.664   4.955   4.711
 4633SOL     OW14482   2.712   4.522   5.547
 4633SOL    HW114483   2.708   4.598   5.612
 4633SOL    HW214484   2.734   4.558   5.456
 4634SOL     OW14485   2.547   4.736   4.389
 4634SOL    HW114486   2.616   4.720   4.459
 4634SOL    HW214487   2.474   4.793   4.427
 4635SOL     OW14488   2.548   4.885   5.527
 4635SOL    HW114489   2.608   4.964   5.541
 4635SOL    HW214490   2.462   4.916   5.486
 4636SOL     OW14491   2.197   5.159   4.785
 4636SOL    HW114492   2.119   5.128   4.732
 4636SOL    HW214493   2.255   5.217   4.728
 4637SOL     OW14494   3.322   5.229   5.063
 4637SOL    HW114495   3.346   5.323   5.089
 4637SOL    HW214496   3.306   5.175   5.145
 4638SOL     OW14497   2.300   4.116   5.223
 4638SOL    HW114498   2.382   4.060   5.232
 4638SOL    HW214499   2.219   4.058   5.227
 4639SOL     OW14500   3.465   4.171   4.461
 4639SOL    HW114501   3.391   4.217   4.411
 4639SOL    HW214502   3.516   4.239   4.514
 4640SOL     OW14503   2.989   5.065   5.414
 4640SOL    HW114504   3.036   5.065   5.502
 4640SOL    HW214505   2.941   4.978   5.403
 4641SOL     OW14506   2.092   5.158   4.262
 4641SOL    HW114507   2.066   5.254   4.262
 4641SOL    HW214508   2.021   5.104   4.307
 4642SOL     OW14509   2.102   4.815   4.610
 4642SOL    HW114510   2.116   4.731   4.662
 4642SOL    HW214511   2.047   4.879   4.665
 4643SOL     OW14512   2.468   4.688   3.847
 4643SOL    HW114513   2.475   4.772   3.793
 4643SOL    HW214514   2.514   4.701   3.935
 4644SOL     OW14515   3.456   3.838   5.204
 4644SOL    HW114516   3.438   3.905   5.132
 4644SOL    HW214517   3.453   3.884   5.293
 4645SOL     OW14518   1.984   4.367   4.287
 4645SOL    HW114519   1.939   4.279   4.304
 4645SOL    HW214520   1.983   4.421   4.371
 4646SOL     OW14521   1.889   5.320   3.841
 4646SOL    HW114522   1.870   5.224   3.862
 4646SOL    HW214523   1.856   5.378   3.916
 4647SOL     OW14524   3.551   4.646   4.336
 4647SOL    HW114525   3.646   4.617   4.344
 4647SOL    HW214526   3.543   4.711   4.261
 4648SOL     OW14527   3.503   4.832   4.156
 4648SOL    HW114528   3.589   4.834   4.104
 4648SOL    HW214529   3.517   4.879   4.244
 4649SOL     OW14530   1.975   4.461   5.321
 4649SOL    HW114531   2.063   4.448   5.366
 4649SOL    HW214532   1.962   4.558   5.299
 4650SOL     OW14533   2.475   5.089   4.450
 4650SOL    HW114534   2.426   5.002   4.459
 4650SOL    HW214535   2.452   5.132   4.363
 4651SOL     OW14536   3.155   4.952   5.147
 4651SOL    HW114537   3.192   4.879   5.089
 4651SOL    HW214538   3.207   4.957   5.232
 4652SOL     OW14539   2.671   3.728   4.226
 4652SOL    HW114540   2.711   3.819   4.217
 4652SOL    HW214541   2.571   3.736   4.232
 4653SOL     OW14542   2.059   4.700   4.988
 4653SOL    HW114543   2.148   4.655   4.974
 4653SOL    HW214544   1.986   4.635   4.969
 4654SOL     OW14545   3.387   4.723   3.914
 4654SOL    HW114546   3.324   4.647   3.927
 4654SOL    HW214547   3.435   4.741   4.000
 4655SOL     OW14548   2.179   3.975   5.525
 4655SOL    HW114549   2.250   4.046   5.531
 4655SOL    HW214550   2.091   4.014   5.553
 4656SOL     OW14551   3.328   5.141   4.677
 4656SOL    HW114552   3.269   5.147   4.757
 4656SOL    HW214553   3.313   5.053   4.631
 4657SOL     OW14554   2.460   4.453   3.994
 4657SOL    HW114555   2.484   4.522   3.926
 4657SOL    HW214556   2.382   4.486   4.048
 4658SOL     OW14557   3.143   4.069   4.668
 4658SOL    HW114558   3.057   4.019   4.655
 4658SOL    HW214559   3.205   4.015   4.724
 4659SOL     OW14560   2.669   4.329   5.189
 4659SOL    HW114561   2.622   4.326   5.278
 4659SOL    HW214562   2.618   4.274   5.123
 4660SOL     OW14563   3.256   4.193   5.398
 4660SOL    HW114564   3.236   4.236   5.486
 4660SOL    HW214565   3.334   4.131   5.407
 4661SOL     OW14566   2.835   4.614   5.296
 4661SOL    HW114567   2.881   4.530   5.267
 4661SOL    HW214568   2.779   4.648   5.221
 4662SOL     OW14569   2.853   4.134   4.966
 4662SOL    HW114570   2.776   4.168   5.020
 4662SOL    HW214571   2.819   4.083   4.887
 4663SOL     OW14572   2.903   4.425   4.153
 4663SOL    HW114573   2.929   4.421   4.249
 4663SOL    HW214574   2.818   4.374   4.139
 4664SOL     OW14575   1.938   4.535   4.513
 4664SOL    HW114576   2.037   4.523   4.522
 4664SOL    HW214577   1.914   4.630   4.534
 4665SOL     OW14578   2.727   4.072   3.919
 4665SOL    HW114579   2.786   4.135   3.870
 4665SOL    HW214580   2.746   3.978   3.890
 4666SOL     OW14581   3.581   4.309   5.555
 4666SOL    HW114582   3.555   4.398   5.519
 4666SOL    HW214583   3.579   4.241   5.482
 4667SOL     OW14584   3.224   4.868   4.269
 4667SOL    HW114585   3.307   4.839   4.221
 4667SOL    HW214586   3.175   4.935   4.213
 4668SOL     OW14587   2.412   3.920   4.609
 4668SOL    HW114588   2.407   3.915   4.709
 4668SOL    HW214589   2.414   4.016   4.580
 4669SOL     OW14590   2.870   5.180   4.201
 4669SOL    HW114591   2.824   5.252   4.149
 4669SOL    HW214592   2.866   5.200   4.299
 4670SOL     OW14593   3.657   4.790   4.597
 4670SOL    HW114594   3.595   4.775   4.521
 4670SOL    HW214595   3.605   4.801   4.682
 4671SOL     OW14596   3.089   5.274   5.230
 4671SOL    HW114597   3.095   5.197   5.294
 4671SOL    HW214598   3.037   5.248   5.150
 4672SOL     OW14599   2.183   4.667   3.966
 4672SOL    HW114600   2.265   4.706   3.924
 4672SOL    HW214601   2.156   4.585   3.917
 4673SOL     OW14602   3.320   4.459   4.452
 4673SOL    HW114603   3.315   4.394   4.527
 4673SOL    HW214604   3.400   4.518   4.465
 4674SOL     OW14605   2.323   4.990   5.451
 4674SOL    HW114606   2.273   4.991   5.365
 4674SOL    HW214607   2.260   4.972   5.527
 4675SOL     OW14608   2.973   5.500   3.961
 4675SOL    HW114609   2.913   5.438   4.011
 4675SOL    HW214610   3.004   5.456   3.876
 4676SOL     OW14611   2.064   4.009   5.222
 4676SOL    HW114612   1.984   4.069   5.209
 4676SOL    HW214613   2.054   3.960   5.308
 4677SOL     OW14614   3.494   5.101   3.805
 4677SOL    HW114615   3.462   5.195   3.795
 4677SOL    HW214616   3.418   5.038   3.793
 4678SOL     OW14617   3.262   3.831   4.150
 4678SOL    HW114618   3.238   3.794   4.060
 4678SOL    HW214619   3.361   3.847   4.154
 4679SOL     OW14620   2.244   4.424   4.204
 4679SOL    HW114621   2.289   4.334   4.201
 4679SOL    HW214622   2.150   4.413   4.237
 4680SOL     OW14623   3.409   3.946   5.453
 4680SOL    HW114624   3.404   3.983   5.545
 4680SOL    HW214625   3.337   3.877   5.441
 4681SOL     OW14626   2.476   3.846   3.841
 4681SOL    HW114627   2.574   3.824   3.848
 4681SOL    HW214628   2.445   3.829   3.748
 4682SOL     OW14629   2.643   3.988   5.473
 4682SOL    HW114630   2.710   3.927   5.516
 4682SOL    HW214631   2.570   4.007   5.538
 4683SOL     OW14632   3.213   4.314   5.157
 4683SOL    HW114633   3.241   4.271   5.242
 4683SOL    HW214634   3.238   4.410   5.158
 4684SOL     OW14635   2.665   5.126   4.648
 4684SOL    HW114636   2.755   5.140   4.606
 4684SOL    HW214637   2.594   5.128   4.577
 4685SOL     OW14638   2.784   4.227   4.623
 4685SOL    HW114639   2.759   4.218   4.527
 4685SOL    HW214640   2.832   4.145   4.654
 4686SOL     OW14641   2.401   3.788   4.236
 4686SOL    HW114642   2.320   3.789   4.294
 4686SOL    HW214643   2.404   3.871   4.181
 4687SOL     OW14644   3.296   4.912   3.765
 4687SOL    HW114645   3.328   4.836   3.822
 4687SOL    HW214646   3.204   4.939   3.795
 4688SOL     OW14647   2.159   3.759   3.895
 4688SOL    HW114648   2.208   3.843   3.874
 4688SOL    HW214649   2.221   3.694   3.940
 4689SOL     OW14650   2.797   3.960   4.204
 4689SOL    HW114651   2.749   4.001   4.126
 4689SOL    HW214652   2.896   3.958   4.185
 4690SOL     OW14653   2.938   4.407   5.188
 4690SOL    HW114654   2.858   4.346   5.191
 4690SOL    HW214655   3.019   4.354   5.164
 4691SOL     OW14656   3.089   5.294   4.517
 4691SOL    HW114657   3.110   5.368   4.452
 4691SOL    HW214658   3.157   5.294   4.590
 4692SOL     OW14659   2.321   4.876   4.465
 4692SOL    HW114660   2.250   4.849   4.530
 4692SOL    HW214661   2.295   4.848   4.372
 4693SOL     OW14662   2.894   4.273   3.740
 4693SOL    HW114663   2.853   4.355   3.701
 4693SOL    HW214664   2.958   4.299   3.813
 4694SOL     OW14665   1.940   4.280   5.110
 4694SOL    HW114666   2.032   4.279   5.069
 4694SOL    HW214667   1.934   4.354   5.177
 4695SOL     OW14668   2.423   3.946   4.871
 4695SOL    HW114669   2.461   3.862   4.908
 4695SOL    HW214670   2.335   3.965   4.915
 4696SOL     OW14671   2.728   4.178   4.366
 4696SOL    HW114672   2.696   4.250   4.304
 4696SOL    HW214673   2.752   4.097   4.313
 4697SOL     OW14674   2.879   3.763   4.477
 4697SOL    HW114675   2.807   3.768   4.408
 4697SOL    HW214676   2.855   3.694   4.546
 4698SOL     OW14677   3.291   4.897   4.591
 4698SOL    HW114678   3.236   4.813   4.584
 4698SOL    HW214679   3.317   4.926   4.499
 4699SOL     OW14680   3.328   4.314   4.716
 4699SOL    HW114681   3.298   4.219   4.723
 4699SOL    HW214682   3.401   4.330   4.782
 4700SOL     OW14683   3.719   4.557   4.101
 4700SOL    HW114684   3.761   4.493   4.165
 4700SOL    HW214685   3.681   4.506   4.023
 4701SOL     OW14686   2.350   5.109   3.898
 4701SOL    HW114687   2.263   5.094   3.945
 4701SOL    HW214688   2.333   5.135   3.803
 4702SOL     OW14689   3.526   5.004   4.381
 4702SOL    HW114690   3.625   5.012   4.395
 4702SOL    HW214691   3.481   5.088   4.412
 4703SOL     OW14692   3.252   4.299   3.802
 4703SOL    HW114693   3.198   4.278   3.883
 4703SOL    HW214694   3.343   4.258   3.811
 4704SOL     OW14695   2.389   3.980   4.052
 4704SOL    HW114696   2.416   3.921   3.977
 4704SOL    HW214697   2.389   4.075   4.021
 4705SOL     OW14698   3.616   4.947   5.312
 4705SOL    HW114699   3.707   4.908   5.299
 4705SOL    HW214700   3.624   5.043   5.336
 4706SOL     OW14701   2.926   5.071   5.064
 4706SOL    HW114702   2.846   5.048   5.119
 4706SOL    HW214703   3.009   5.045   5.113
 4707SOL     OW14704   2.973   4.919   4.824
 4707SOL    HW114705   2.933   4.963   4.905
 4707SOL    HW214706   2.932   4.956   4.741
 4708SOL     OW14707   3.500   4.823   4.803
 4708SOL    HW114708   3.505   4.904   4.862
 4708SOL    HW214709   3.414   4.825   4.752
 4709SOL     OW14710   2.777   3.813   5.126
 4709SOL    HW114711   2.802   3.793   5.031
 4709SOL    HW214712   2.849   3.869   5.168
 4710SOL     OW14713   2.842   4.840   5.443
 4710SOL    HW114714   2.743   4.846   5.453
 4710SOL    HW214715   2.865   4.760   5.387
 4711SOL     OW14716   2.567   4.774   4.092
 4711SOL    HW114717   2.553   4.781   4.191
 4711SOL    HW214718   2.651   4.723   4.074
 4712SOL     OW14719   2.272   4.537   4.975
 4712SOL    HW114720   2.358   4.549   5.025
 4712SOL    HW214721   2.230   4.450   5.002
 4713SOL     OW14722   3.136   4.110   4.986
 4713SOL    HW114723   3.157   4.184   5.050
 4713SOL    HW214724   3.047   4.127   4.943
 4714SOL     OW14725   2.229   4.824   4.225
 4714SOL    HW114726   2.222   4.907   4.169
 4714SOL    HW214727   2.233   4.744   4.165
 4715SOL     OW14728   2.428   4.261   4.589
 4715SOL    HW114729   2.440   4.327   4.515
 4715SOL    HW214730   2.474   4.295   4.672
 4716SOL     OW14731   3.114   5.072   4.112
 4716SOL    HW114732   3.164   5.149   4.152
 4716SOL    HW214733   3.019   5.074   4.144
 4717SOL     OW14734   3.134   5.169   4.866
 4717SOL    HW114735   3.181   5.182   4.953
 4717SOL    HW214736   3.068   5.095   4.875
 4718SOL     OW14737   3.444   4.363   4.196
 4718SOL    HW114738   3.413   4.424   4.269
 4718SOL    HW214739   3.494   4.415   4.127
 4719SOL     OW14740   2.216   5.234   5.053
 4719SOL    HW114741   2.195   5.190   4.966
 4719SOL    HW214742   2.313   5.260   5.056
 4720SOL     OW14743   2.264   4.475   5.322
 4720SOL    HW114744   2.332   4.530   5.275
 4720SOL    HW214745   2.304   4.387   5.349
 4721SOL     OW14746   3.449   4.503   5.394
 4721SOL    HW114747   3.357   4.541   5.389
 4721SOL    HW214748   3.509   4.550   5.329
 4722SOL     OW14749   2.875   3.829   5.494
 4722SOL    HW114750   2.881   3.914   5.442
 4722SOL    HW214751   2.907   3.753   5.437
 4723SOL     OW14752   2.366   3.774   5.464
 4723SOL    HW114753   2.324   3.717   5.394
 4723SOL    HW214754   2.300   3.843   5.496
 4724SOL     OW14755   2.435   4.594   4.753
 4724SOL    HW114756   2.479   4.683   4.744
 4724SOL    HW214757   2.372   4.594   4.830
 4725SOL     OW14758   3.222   4.586   4.769
 4725SOL    HW114759   3.147   4.586   4.703
 4725SOL    HW214760   3.259   4.494   4.778
 4726SOL     OW14761   3.071   4.249   3.999
 4726SOL    HW114762   3.084   4.165   4.053
 4726SOL    HW214763   3.042   4.323   4.059
 4727SOL     OW14764   2.169   3.937   4.955
 4727SOL    HW114765   2.146   3.974   5.045
 4727SOL    HW214766   2.139   3.842   4.949
 4728SOL     OW14767   1.899   5.034   5.006
 4728SOL    HW114768   1.952   4.985   5.074
 4728SOL    HW214769   1.921   5.132   5.011
 4729SOL     OW14770   2.594   4.358   4.788
 4729SOL    HW114771   2.653   4.332   4.712
 4729SOL    HW214772   2.566   4.454   4.777
 4730SOL     OW14773   3.590   4.659   5.578
 4730SOL    HW114774   3.544   4.652   5.489
 4730SOL    HW214775   3.528   4.703   5.644
 4731SOL     OW14776   2.169   3.787   4.342
 4731SOL    HW114777   2.158   3.881   4.375
 4731SOL    HW214778   2.164   3.724   4.419
 4732SOL     OW14779   3.484   4.091   4.098
 4732SOL    HW114780   3.486   4.015   4.162
 4732SOL    HW214781   3.436   4.168   4.138
 4733SOL     OW14782   2.885   4.490   4.690
 4733SOL    HW114783   2.900   4.511   4.786
 4733SOL    HW214784   2.855   4.395   4.681
 4734SOL     OW14785   3.721   5.242   5.329
 4734SOL    HW114786   3.735   5.269   5.234
 4734SOL    HW214787   3.804   5.264   5.382
 4735SOL     OW14788   2.212   4.622   5.528
 4735SOL    HW114789   2.288   4.666   5.576
 4735SOL    HW214790   2.247   4.575   5.446
 4736SOL     OW14791   3.402   3.998   3.849
 4736SOL    HW114792   3.341   3.923   3.872
 4736SOL    HW214793   3.424   4.050   3.932
 4737SOL     OW14794   3.165   4.562   3.766
 4737SOL    HW114795   3.199   4.469   3.781
 4737SOL    HW214796   3.183   4.589   3.671
 4738SOL     OW14797   2.930   5.057   4.573
 4738SOL    HW114798   2.937   4.973   4.518
 4738SOL    HW214799   2.992   5.126   4.537
 4739SOL     OW14800   2.181   4.534   4.673
 4739SOL    HW114801   2.274   4.570   4.678
 4739SOL    HW214802   2.175   4.449   4.725
 4740SOL     OW14803   2.201   4.233   4.730
 4740SOL    HW114804   2.149   4.150   4.713
 4740SOL    HW214805   2.278   4.238   4.666
 4741SOL     OW14806   3.000   4.104   5.402
 4741SOL    HW114807   2.955   4.167   5.466
 4741SOL    HW214808   3.093   4.135   5.385
 4742SOL     OW14809   3.022   3.931   5.201
 4742SOL    HW114810   3.022   3.995   5.278
 4742SOL    HW214811   3.050   3.979   5.118
 4743SOL     OW14812   1.870   5.050   3.924
 4743SOL    HW114813   1.777   5.071   3.893
 4743SOL    HW214814   1.880   4.951   3.937
 4744SOL     OW14815   2.864   4.520   4.962
 4744SOL    HW114816   2.905   4.488   5.048
 4744SOL    HW214817   2.768   4.493   4.959
 4745SOL     OW14818   1.902   4.268   4.838
 4745SOL    HW114819   1.987   4.235   4.797
 4745SOL    HW214820   1.915   4.283   4.936
 4746SOL     OW14821   2.051   4.244   5.446
 4746SOL    HW114822   2.110   4.204   5.376
 4746SOL    HW214823   1.993   4.315   5.405
 4747SOL     OW14824   3.231   4.674   5.384
 4747SOL    HW114825   3.270   4.763   5.404
 4747SOL    HW214826   3.241   4.654   5.287
 4748SOL     OW14827   2.677   4.296   4.049
 4748SOL    HW114828   2.684   4.207   4.003
 4748SOL    HW214829   2.583   4.330   4.041
 4749SOL     OW14830   3.519   4.328   4.930
 4749SOL    HW114831   3.481   4.259   4.992
 4749SOL    HW214832   3.601   4.292   4.886
 4750SOL     OW14833   2.114   5.288   5.468
 4750SOL    HW114834   2.084   5.345   5.544
 4750SOL    HW214835   2.107   5.191   5.494
 4751SOL     OW14836   2.533   4.188   4.993
 4751SOL    HW114837   2.499   4.099   4.963
 4751SOL    HW214838   2.559   4.242   4.913
 4752SOL     OW14839   2.335   4.224   3.915
 4752SOL    HW114840   2.396   4.304   3.919
 4752SOL    HW214841   2.240   4.255   3.922
 4753SOL     OW14842   2.021   4.861   5.190
 4753SOL    HW114843   2.043   4.800   5.266
 4753SOL    HW214844   2.031   4.812   5.104
 4754SOL     OW14845   3.209   4.783   4.958
 4754SOL    HW114846   3.233   4.720   4.884
 4754SOL    HW214847   3.119   4.823   4.940
 4755SOL     OW14848   3.164   4.579   4.033
 4755SOL    HW114849   3.078   4.548   4.075
 4755SOL    HW214850   3.160   4.565   3.934
 4756SOL     OW14851   1.945   4.982   4.746
 4756SOL    HW114852   1.940   4.981   4.846
 4756SOL    HW214853   1.862   4.941   4.708
 4757SOL     OW14854   2.550   5.386   5.440
 4757SOL    HW114855   2.494   5.467   5.449
 4757SOL    HW214856   2.602   5.390   5.354
 4758SOL     OW14857   3.588   3.859   4.247
 4758SOL    HW114858   3.661   3.842   4.180
 4758SOL    HW214859   3.557   3.772   4.285
 4759SOL     OW14860   3.142   4.651   4.396
 4759SOL    HW114861   3.202   4.570   4.398
 4759SOL    HW214862   3.182   4.720   4.336
 4760SOL     OW14863   2.692   4.997   5.146
 4760SOL    HW114864   2.687   5.030   5.241
 4760SOL    HW214865   2.606   5.016   5.100
 4761SOL     OW14866   3.703   3.899   4.687
 4761SOL    HW114867   3.742   3.814   4.651
 4761SOL    HW214868   3.605   3.901   4.668
 4762SOL     OW14869   2.125   4.050   4.444
 4762SOL    HW114870   2.046   4.101   4.410
 4762SOL    HW214871   2.116   4.035   4.542
 4763SOL     OW14872   2.684   4.726   5.096
 4763SOL    HW114873   2.724   4.725   5.004
 4763SOL    HW214874   2.694   4.818   5.136
 4764SOL     OW14875   2.778   4.634   4.015
 4764SOL    HW114876   2.841   4.672   3.947
 4764SOL    HW214877   2.818   4.551   4.054
 4765SOL     OW14878   2.234   5.012   5.214
 4765SOL    HW114879   2.221   5.105   5.180
 4765SOL    HW214880   2.150   4.960   5.201
 4766SOL     OW14881   3.476   5.016   5.013
 4766SOL    HW114882   3.536   5.019   5.093
 4766SOL    HW214883   3.401   5.080   5.026
 4767SOL     OW14884   2.901   4.822   4.420
 4767SOL    HW114885   2.831   4.775   4.474
 4767SOL    HW214886   2.960   4.754   4.377
 4768SOL     OW14887   2.876   3.960   4.695
 4768SOL    HW114888   2.868   3.924   4.602
 4768SOL    HW214889   2.874   3.884   4.760
 4769SOL     OW14890   3.571   4.109   5.105
 4769SOL    HW114891   3.644   4.178   5.109
 4769SOL    HW214892   3.599   4.034   5.046
 4770SOL     OW14893   2.117   5.072   4.014
 4770SOL    HW114894   2.021   5.073   3.987
 4770SOL    HW214895   2.129   5.125   4.098
 4771SOL     OW14896   1.967   4.737   5.450
 4771SOL    HW114897   1.890   4.704   5.504
 4771SOL    HW214898   2.052   4.707   5.492
 4772SOL     OW14899   2.534   3.927   5.213
 4772SOL    HW114900   2.624   3.911   5.173
 4772SOL    HW214901   2.542   3.932   5.312
 4773SOL     OW14902   1.937   4.069   3.757
 4773SOL    HW114903   1.845   4.041   3.728
 4773SOL    HW214904   1.968   4.146   3.701
 4774SOL     OW14905   3.302   4.580   5.122
 4774SOL    HW114906   3.245   4.632   5.059
 4774SOL    HW214907   3.398   4.592   5.098
 4775SOL     OW14908   1.934   3.890   4.042
 4775SOL    HW114909   1.917   3.973   3.988
 4775SOL    HW214910   2.024   3.853   4.020
 4776SOL     OW14911   3.045   5.059   3.843
 4776SOL    HW114912   2.946   5.048   3.845
 4776SOL    HW214913   3.079   5.074   3.936
 4777SOL     OW14914   2.475   4.566   5.155
 4777SOL    HW114915   2.531   4.647   5.138
 4777SOL    HW214916   2.534   4.486   5.158
 4778SOL     OW14917   2.578   4.289   5.432
 4778SOL    HW114918   2.597   4.354   5.506
 4778SOL    HW214919   2.638   4.209   5.441
 4779SOL     OW14920   3.312   4.944   5.357
 4779SOL    HW114921   3.303   4.934   5.456
 4779SOL    HW214922   3.408   4.937   5.331
 4780SOL     OW14923   3.536   4.607   4.978
 4780SOL    HW114924   3.509   4.518   4.941
 4780SOL    HW214925   3.537   4.675   4.905
 4781SOL     OW14926   3.087   4.049   4.173
 4781SOL    HW114927   3.152   3.975   4.162
 4781SOL    HW214928   3.107   4.099   4.257
 4782SOL     OW14929   2.456   4.469   4.376
 4782SOL    HW114930   2.506   4.554   4.357
 4782SOL    HW214931   2.368   4.471   4.328
 4783SOL     OW14932   3.639   4.066   5.366
 4783SOL    HW114933   3.622   4.097   5.272
 4783SOL    HW214934   3.555   4.029   5.404
 4784SOL     OW14935   3.592   4.658   5.241
 4784SOL    HW114936   3.630   4.749   5.256
 4784SOL    HW214937   3.584   4.641   5.142
 4785SOL     OW14938   2.721   5.098   3.740
 4785SOL    HW114939   2.675   5.113   3.828
 4785SOL    HW214940   2.765   5.183   3.710
 4786SOL     OW14941   2.721   4.680   4.585
 4786SOL    HW114942   2.775   4.611   4.633
 4786SOL    HW214943   2.689   4.749   4.651
 4787SOL     OW14944   2.945   4.708   3.811
 4787SOL    HW114945   2.922   4.761   3.729
 4787SOL    HW214946   3.026   4.652   3.792
 4788SOL     OW14947   2.083   5.038   5.568
 4788SOL    HW114948   2.018   4.965   5.547
 4788SOL    HW214949   2.087   5.052   5.666
 4789SOL     OW14950   1.941   4.964   4.377
 4789SOL    HW114951   1.940   4.917   4.465
 4789SOL    HW214952   2.023   4.936   4.326
 4790SOL     OW14953   2.534   5.115   5.348
 4790SOL    HW114954   2.456   5.065   5.386
 4790SOL    HW214955   2.531   5.210   5.379
 4791SOL     OW14956   3.686   3.916   4.951
 4791SOL    HW114957   3.682   3.826   4.995
 4791SOL    HW214958   3.689   3.905   4.852
 4792SOL     OW14959   2.290   4.148   4.244
 4792SOL    HW114960   2.320   4.076   4.182
 4792SOL    HW214961   2.251   4.108   4.327
 4793SOL     OW14962   3.567   5.211   4.828
 4793SOL    HW114963   3.474   5.186   4.801
 4793SOL    HW214964   3.593   5.161   4.910
 4794SOL     OW14965   2.179   4.271   5.004
 4794SOL    HW114966   2.217   4.212   5.076
 4794SOL    HW214967   2.219   4.245   4.916
 4795SOL     OW14968   3.286   3.938   4.836
 4795SOL    HW114969   3.338   3.873   4.891
 4795SOL    HW214970   3.237   4.001   4.897
 4796SOL     OW14971   2.863   3.758   4.878
 4796SOL    HW114972   2.800   3.686   4.847
 4796SOL    HW214973   2.956   3.722   4.878
 4797SOL     OW14974   2.632   5.054   4.025
 4797SOL    HW114975   2.586   4.967   4.042
 4797SOL    HW214976   2.723   5.051   4.066
 4798SOL     OW14977   2.480   5.291   5.008
 4798SOL    HW114978   2.475   5.373   5.065
 4798SOL    HW214979   2.569   5.288   4.963
 4799SOL     OW14980   3.214   3.776   3.892
 4799SOL    HW114981   3.249   3.735   3.808
 4799SOL    HW214982   3.124   3.738   3.912
 4800SOL     OW14983   3.162   4.177   4.415
 4800SOL    HW114984   3.103   4.257   4.419
 4800SOL    HW214985   3.177   4.142   4.508
 4801SOL     OW14986   3.455   3.945   4.606
 4801SOL    HW114987   3.371   3.944   4.660
 4801SOL    HW214988   3.457   4.028   4.550
 4802SOL     OW14989   1.901   4.801   4.024
 4802SOL    HW114990   2.000   4.790   4.015
 4802SOL    HW214991   1.861   4.715   4.056
 4803SOL     OW14992   2.092   4.352   5.699
 4803SOL    HW114993   1.999   4.350   5.736
 4803SOL    HW214994   2.093   4.313   5.607
 4804SOL     OW14995   2.087   3.999   6.582
 4804SOL    HW114996   2.122   3.982   6.674
 4804SOL    HW214997   1.999   3.954   6.570
 4805SOL     OW14998   1.881   4.092   6.233
 4805SOL    HW114999   1.799   4.135   6.272
 4805SOL    HW215000   1.853   4.019   6.170
 4806SOL     OW15001   2.431   4.999   6.751
 4806SOL    HW115002   2.338   4.992   6.714
 4806SOL    HW215003   2.442   5.088   6.795
 4807SOL     OW15004   3.417   5.235   6.289
 4807SOL    HW115005   3.360   5.219   6.370
 4807SOL    HW215006   3.358   5.245   6.209
 4808SOL     OW15007   2.997   4.427   6.303
 4808SOL    HW115008   3.054   4.505   6.278
 4808SOL    HW215009   2.937   4.453   6.379
 4809SOL     OW15010   3.617   4.331   5.817
 4809SOL    HW115011   3.605   4.318   5.718
 4809SOL    HW215012   3.587   4.250   5.866
 4810SOL     OW15013   2.630   4.868   6.609
 4810SOL    HW115014   2.552   4.885   6.669
 4810SOL    HW215015   2.664   4.955   6.573
 4811SOL     OW15016   2.712   4.522   7.409
 4811SOL    HW115017   2.708   4.598   7.474
 4811SOL    HW215018   2.734   4.558   7.318
 4812SOL     OW15019   2.547   4.736   6.251
 4812SOL    HW115020   2.616   4.720   6.321
 4812SOL    HW215021   2.474   4.793   6.289
 4813SOL     OW15022   2.548   4.885   7.389
 4813SOL    HW115023   2.608   4.964   7.403
 4813SOL    HW215024   2.462   4.916   7.348
 4814SOL     OW15025   2.197   5.159   6.647
 4814SOL    HW115026   2.119   5.128   6.594
 4814SOL    HW215027   2.255   5.217   6.590
 4815SOL     OW15028   3.322   5.229   6.925
 4815SOL    HW115029   3.346   5.323   6.951
 4815SOL    HW215030   3.306   5.175   7.007
 4816SOL     OW15031   2.300   4.116   7.085
 4816SOL    HW115032   2.382   4.060   7.094
 4816SOL    HW215033   2.219   4.058   7.089
 4817SOL     OW15034   3.465   4.171   6.323
 4817SOL    HW115035   3.391   4.217   6.273
 4817SOL    HW215036   3.516   4.239   6.376
 4818SOL     OW15037   2.989   5.065   7.276
 4818SOL    HW115038   3.036   5.065   7.364
 4818SOL    HW215039   2.941   4.978   7.265
 4819SOL     OW15040   2.092   5.158   6.124
 4819SOL    HW115041   2.066   5.254   6.124
 4819SOL    HW215042   2.021   5.104   6.169
 4820SOL     OW15043   2.102   4.815   6.472
 4820SOL    HW115044   2.116   4.731   6.524
 4820SOL    HW215045   2.047   4.879   6.527
 4821SOL     OW15046   2.468   4.688   5.709
 4821SOL    HW115047   2.475   4.772   5.655
 4821SOL    HW215048   2.514   4.701   5.797
 4822SOL     OW15049   3.456   3.838   7.066
 4822SOL    HW115050   3.438   3.905   6.994
 4822SOL    HW215051   3.453   3.884   7.155
 4823SOL     OW15052   1.984   4.367   6.149
 4823SOL    HW115053   1.939   4.279   6.166
 4823SOL    HW215054   1.983   4.421   6.233
 4824SOL     OW15055   1.889   5.320   5.703
 4824SOL    HW115056   1.870   5.224   5.724
 4824SOL    HW215057   1.856   5.378   5.778
 4825SOL     OW15058   3.551   4.646   6.198
 4825SOL    HW115059   3.646   4.617   6.206
 4825SOL    HW215060   3.543   4.711   6.123
 4826SOL     OW15061   3.503   4.832   6.018
 4826SOL    HW115062   3.589   4.834   5.966
 4826SOL    HW215063   3.517   4.879   6.106
 4827SOL     OW15064   1.975   4.461   7.183
 4827SOL    HW115065   2.063   4.448   7.228
 4827SOL    HW215066   1.962   4.558   7.161
 4828SOL     OW15067   2.475   5.089   6.312
 4828SOL    HW115068   2.426   5.002   6.321
 4828SOL    HW215069   2.452   5.132   6.225
 4829SOL     OW15070   3.155   4.952   7.009
 4829SOL    HW115071   3.192   4.879   6.951
 4829SOL    HW215072   3.207   4.957   7.094
 4830SOL     OW15073   2.671   3.728   6.088
 4830SOL    HW115074   2.711   3.819   6.079
 4830SOL    HW215075   2.571   3.736   6.094
 4831SOL     OW15076   2.059   4.700   6.850
 4831SOL    HW115077   2.148   4.655   6.836
 4831SOL    HW215078   1.986   4.635   6.831
 4832SOL     OW15079   3.387   4.723   5.776
 4832SOL    HW115080   3.324   4.647   5.789
 4832SOL    HW215081   3.435   4.741   5.862
 4833SOL     OW15082   2.179   3.975   7.387
 4833SOL    HW115083   2.250   4.046   7.393
 4833SOL    HW215084   2.091   4.014   7.415
 4834SOL     OW15085   3.328   5.141   6.539
 4834SOL    HW115086   3.269   5.147   6.619
 4834SOL    HW215087   3.313   5.053   6.493
 4835SOL     OW15088   2.460   4.453   5.856
 4835SOL    HW115089   2.484   4.522   5.788
 4835SOL    HW215090   2.382   4.486   5.910
 4836SOL     OW15091   3.143   4.069   6.530
 4836SOL    HW115092   3.057   4.019   6.517
 4836SOL    HW215093   3.205   4.015   6.586
 4837SOL     OW15094   2.669   4.329   7.051
 4837SOL    HW115095   2.622   4.326   7.140
 4837SOL    HW215096   2.618   4.274   6.985
 4838SOL     OW15097   3.256   4.193   7.260
 4838SOL    HW115098   3.236   4.236   7.348
 4838SOL    HW215099   3.334   4.131   7.269
 4839SOL     OW15100   2.835   4.614   7.158
 4839SOL    HW115101   2.881   4.530   7.129
 4839SOL    HW215102   2.779   4.648   7.083
 4840SOL     OW15103   2.853   4.134   6.828
 4840SOL    HW115104   2.776   4.168   6.882
 4840SOL    HW215105   2.819   4.083   6.749
 4841SOL     OW15106   2.903   4.425   6.015
 4841SOL    HW115107   2.929   4.421   6.111
 4841SOL    HW215108   2.818   4.374   6.001
 4842SOL     OW15109   1.938   4.535   6.375
 4842SOL    HW115110   2.037   4.523   6.384
 4842SOL    HW215111   1.914   4.630   6.396
 4843SOL     OW15112   2.727   4.072   5.781
 4843SOL    HW115113   2.786   4.135   5.732
 4843SOL    HW215114   2.746   3.978   5.752
 4844SOL     OW15115   3.581   4.309   7.417
 4844SOL    HW115116   3.555   4.398   7.381
 4844SOL    HW215117   3.579   4.241   7.344
 4845SOL     OW15118   3.224   4.868   6.131
 4845SOL    HW115119   3.307   4.839   6.083
 4845SOL    HW215120   3.175   4.935   6.075
 4846SOL     OW15121   2.412   3.920   6.471
 4846SOL    HW115122   2.407   3.915   6.571
 4846SOL    HW215123   2.414   4.016   6.442
 4847SOL     OW15124   2.870   5.180   6.063
 4847SOL    HW115125   2.824   5.252   6.011
 4847SOL    HW215126   2.866   5.200   6.161
 4848SOL     OW15127   3.657   4.790   6.459
 4848SOL    HW115128   3.595   4.775   6.383
 4848SOL    HW215129   3.605   4.801   6.544
 4849SOL     OW15130   3.089   5.274   7.092
 4849SOL    HW115131   3.095   5.197   7.156
 4849SOL    HW215132   3.037   5.248   7.012
 4850SOL     OW15133   2.183   4.667   5.828
 4850SOL    HW115134   2.265   4.706   5.786
 4850SOL    HW215135   2.156   4.585   5.779
 4851SOL     OW15136   3.320   4.459   6.314
 4851SOL    HW115137   3.315   4.394   6.389
 4851SOL    HW215138   3.400   4.518   6.327
 4852SOL     OW15139   2.323   4.990   7.313
 4852SOL    HW115140   2.273   4.991   7.227
 4852SOL    HW215141   2.260   4.972   7.389
 4853SOL     OW15142   2.973   5.500   5.823
 4853SOL    HW115143   2.913   5.438   5.873
 4853SOL    HW215144   3.004   5.456   5.738
 4854SOL     OW15145   2.064   4.009   7.084
 4854SOL    HW115146   1.984   4.069   7.071
 4854SOL    HW215147   2.054   3.960   7.170
 4855SOL     OW15148   3.494   5.101   5.667
 4855SOL    HW115149   3.462   5.195   5.657
 4855SOL    HW215150   3.418   5.038   5.655
 4856SOL     OW15151   3.262   3.831   6.012
 4856SOL    HW115152   3.238   3.794   5.922
 4856SOL    HW215153   3.361   3.847   6.016
 4857SOL     OW15154   2.244   4.424   6.066
 4857SOL    HW115155   2.289   4.334   6.063
 4857SOL    HW215156   2.150   4.413   6.099
 4858SOL     OW15157   3.409   3.946   7.315
 4858SOL    HW115158   3.404   3.983   7.407
 4858SOL    HW215159   3.337   3.877   7.303
 4859SOL     OW15160   2.476   3.846   5.703
 4859SOL    HW115161   2.574   3.824   5.710
 4859SOL    HW215162   2.445   3.829   5.610
 4860SOL     OW15163   2.643   3.988   7.335
 4860SOL    HW115164   2.710   3.927   7.378
 4860SOL    HW215165   2.570   4.007   7.400
 4861SOL     OW15166   3.213   4.314   7.019
 4861SOL    HW115167   3.241   4.271   7.104
 4861SOL    HW215168   3.238   4.410   7.020
 4862SOL     OW15169   2.665   5.126   6.510
 4862SOL    HW115170   2.755   5.140   6.468
 4862SOL    HW215171   2.594   5.128   6.439
 4863SOL     OW15172   2.784   4.227   6.485
 4863SOL    HW115173   2.759   4.218   6.389
 4863SOL    HW215174   2.832   4.145   6.516
 4864SOL     OW15175   2.401   3.788   6.098
 4864SOL    HW115176   2.320   3.789   6.156
 4864SOL    HW215177   2.404   3.871   6.043
 4865SOL     OW15178   3.296   4.912   5.627
 4865SOL    HW115179   3.328   4.836   5.684
 4865SOL    HW215180   3.204   4.939   5.657
 4866SOL     OW15181   2.159   3.759   5.757
 4866SOL    HW115182   2.208   3.843   5.736
 4866SOL    HW215183   2.221   3.694   5.802
 4867SOL     OW15184   2.797   3.960   6.066
 4867SOL    HW115185   2.749   4.001   5.988
 4867SOL    HW215186   2.896   3.958   6.047
 4868SOL     OW15187   2.938   4.407   7.050
 4868SOL    HW115188   2.858   4.346   7.053
 4868SOL    HW215189   3.019   4.354   7.026
 4869SOL     OW15190   3.089   5.294   6.379
 4869SOL    HW115191   3.110   5.368   6.314
 4869SOL    HW215192   3.157   5.294   6.452
 4870SOL     OW15193   2.321   4.876   6.327
 4870SOL    HW115194   2.250   4.849   6.392
 4870SOL    HW215195   2.295   4.848   6.234
 4871SOL     OW15196   2.894   4.273   5.602
 4871SOL    HW115197   2.853   4.355   5.563
 4871SOL    HW215198   2.958   4.299   5.675
 4872SOL     OW15199   1.940   4.280   6.972
 4872SOL    HW115200   2.032   4.279   6.931
 4872SOL    HW215201   1.934   4.354   7.039
 4873SOL     OW15202   2.423   3.946   6.733
 4873SOL    HW115203   2.461   3.862   6.770
 4873SOL    HW215204   2.335   3.965   6.777
 4874SOL     OW15205   2.728   4.178   6.228
 4874SOL    HW115206   2.696   4.250   6.166
 4874SOL    HW215207   2.752   4.097   6.175
 4875SOL     OW15208   2.879   3.763   6.339
 4875SOL    HW115209   2.807   3.768   6.270
 4875SOL    HW215210   2.855   3.694   6.408
 4876SOL     OW15211   3.291   4.897   6.453
 4876SOL    HW115212   3.236   4.813   6.446
 4876SOL    HW215213   3.317   4.926   6.361
 4877SOL     OW15214   3.328   4.314   6.578
 4877SOL    HW115215   3.298   4.219   6.585
 4877SOL    HW215216   3.401   4.330   6.644
 4878SOL     OW15217   3.719   4.557   5.963
 4878SOL    HW115218   3.761   4.493   6.027
 4878SOL    HW215219   3.681   4.506   5.885
 4879SOL     OW15220   2.350   5.109   5.760
 4879SOL    HW115221   2.263   5.094   5.807
 4879SOL    HW215222   2.333   5.135   5.665
 4880SOL     OW15223   3.526   5.004   6.243
 4880SOL    HW115224   3.625   5.012   6.257
 4880SOL    HW215225   3.481   5.088   6.274
 4881SOL     OW15226   3.252   4.299   5.664
 4881SOL    HW115227   3.198   4.278   5.745
 4881SOL    HW215228   3.343   4.258   5.673
 4882SOL     OW15229   2.389   3.980   5.914
 4882SOL    HW115230   2.416   3.921   5.839
 4882SOL    HW215231   2.389   4.075   5.883
 4883SOL     OW15232   3.616   4.947   7.174
 4883SOL    HW115233   3.707   4.908   7.161
 4883SOL    HW215234   3.624   5.043   7.198
 4884SOL     OW15235   2.926   5.071   6.926
 4884SOL    HW115236   2.846   5.048   6.981
 4884SOL    HW215237   3.009   5.045   6.975
 4885SOL     OW15238   2.973   4.919   6.686
 4885SOL    HW115239   2.933   4.963   6.767
 4885SOL    HW215240   2.932   4.956   6.603
 4886SOL     OW15241   3.500   4.823   6.665
 4886SOL    HW115242   3.505   4.904   6.724
 4886SOL    HW215243   3.414   4.825   6.614
 4887SOL     OW15244   2.777   3.813   6.988
 4887SOL    HW115245   2.802   3.793   6.893
 4887SOL    HW215246   2.849   3.869   7.030
 4888SOL     OW15247   2.842   4.840   7.305
 4888SOL    HW115248   2.743   4.846   7.315
 4888SOL    HW215249   2.865   4.760   7.249
 4889SOL     OW15250   2.567   4.774   5.954
 4889SOL    HW115251   2.553   4.781   6.053
 4889SOL    HW215252   2.651   4.723   5.936
 4890SOL     OW15253   2.272   4.537   6.837
 4890SOL    HW115254   2.358   4.549   6.887
 4890SOL    HW215255   2.230   4.450   6.864
 4891SOL     OW15256   3.136   4.110   6.848
 4891SOL    HW115257   3.157   4.184   6.912
 4891SOL    HW215258   3.047   4.127   6.805
 4892SOL     OW15259   2.229   4.824   6.087
 4892SOL    HW115260   2.222   4.907   6.031
 4892SOL    HW215261   2.233   4.744   6.027
 4893SOL     OW15262   2.428   4.261   6.451
 4893SOL    HW115263   2.440   4.327   6.377
 4893SOL    HW215264   2.474   4.295   6.534
 4894SOL     OW15265   3.114   5.072   5.974
 4894SOL    HW115266   3.164   5.149   6.014
 4894SOL    HW215267   3.019   5.074   6.006
 4895SOL     OW15268   3.134   5.169   6.728
 4895SOL    HW115269   3.181   5.182   6.815
 4895SOL    HW215270   3.068   5.095   6.737
 4896SOL     OW15271   3.444   4.363   6.058
 4896SOL    HW115272   3.413   4.424   6.131
 4896SOL    HW215273   3.494   4.415   5.989
 4897SOL     OW15274   2.216   5.234   6.915
 4897SOL    HW115275   2.195   5.190   6.828
 4897SOL    HW215276   2.313   5.260   6.918
 4898SOL     OW15277   2.264   4.475   7.184
 4898SOL    HW115278   2.332   4.530   7.137
 4898SOL    HW215279   2.304   4.387   7.211
 4899SOL     OW15280   3.449   4.503   7.256
 4899SOL    HW115281   3.357   4.541   7.251
 4899SOL    HW215282   3.509   4.550   7.191
 4900SOL     OW15283   2.875   3.829   7.356
 4900SOL    HW115284   2.881   3.914   7.304
 4900SOL    HW215285   2.907   3.753   7.299
 4901SOL     OW15286   2.366   3.774   7.326
 4901SOL    HW115287   2.324   3.717   7.256
 4901SOL    HW215288   2.300   3.843   7.358
 4902SOL     OW15289   2.435   4.594   6.615
 4902SOL    HW115290   2.479   4.683   6.606
 4902SOL    HW215291   2.372   4.594   6.692
 4903SOL     OW15292   3.222   4.586   6.631
 4903SOL    HW115293   3.147   4.586   6.565
 4903SOL    HW215294   3.259   4.494   6.640
 4904SOL     OW15295   3.071   4.249   5.861
 4904SOL    HW115296   3.084   4.165   5.915
 4904SOL    HW215297   3.042   4.323   5.921
 4905SOL     OW15298   2.169   3.937   6.817
 4905SOL    HW115299   2.146   3.974   6.907
 4905SOL    HW215300   2.139   3.842   6.811
 4906SOL     OW15301   1.899   5.034   6.868
 4906SOL    HW115302   1.952   4.985   6.936
 4906SOL    HW215303   1.921   5.132   6.873
 4907SOL     OW15304   2.594   4.358   6.650
 4907SOL    HW115305   2.653   4.332   6.574
 4907SOL    HW215306   2.566   4.454   6.639
 4908SOL     OW15307   3.590   4.659   7.440
 4908SOL    HW115308   3.544   4.652   7.351
 4908SOL    HW215309   3.528   4.703   7.506
 4909SOL     OW15310   2.169   3.787   6.204
 4909SOL    HW115311   2.158   3.881   6.237
 4909SOL    HW215312   2.164   3.724   6.281
 4910SOL     OW15313   3.484   4.091   5.960
 4910SOL    HW115314   3.486   4.015   6.024
 4910SOL    HW215315   3.436   4.168   6.000
 4911SOL     OW15316   2.885   4.490   6.552
 4911SOL    HW115317   2.900   4.511   6.648
 4911SOL    HW215318   2.855   4.395   6.543
 4912SOL     OW15319   3.721   5.242   7.191
 4912SOL    HW115320   3.735   5.269   7.096
 4912SOL    HW215321   3.804   5.264   7.244
 4913SOL     OW15322   2.212   4.622   7.390
 4913SOL    HW115323   2.288   4.666   7.438
 4913SOL    HW215324   2.247   4.575   7.308
 4914SOL     OW15325   3.402   3.998   5.711
 4914SOL    HW115326   3.341   3.923   5.734
 4914SOL    HW215327   3.424   4.050   5.794
 4915SOL     OW15328   3.165   4.562   5.628
 4915SOL    HW115329   3.199   4.469   5.643
 4915SOL    HW215330   3.183   4.589   5.533
 4916SOL     OW15331   2.930   5.057   6.435
 4916SOL    HW115332   2.937   4.973   6.380
 4916SOL    HW215333   2.992   5.126   6.399
 4917SOL     OW15334   2.181   4.534   6.535
 4917SOL    HW115335   2.274   4.570   6.540
 4917SOL    HW215336   2.175   4.449   6.587
 4918SOL     OW15337   2.201   4.233   6.592
 4918SOL    HW115338   2.149   4.150   6.575
 4918SOL    HW215339   2.278   4.238   6.528
 4919SOL     OW15340   3.000   4.104   7.264
 4919SOL    HW115341   2.955   4.167   7.328
 4919SOL    HW215342   3.093   4.135   7.247
 4920SOL     OW15343   3.022   3.931   7.063
 4920SOL    HW115344   3.022   3.995   7.140
 4920SOL    HW215345   3.050   3.979   6.980
 4921SOL     OW15346   1.870   5.050   5.786
 4921SOL    HW115347   1.777   5.071   5.755
 4921SOL    HW215348   1.880   4.951   5.799
 4922SOL     OW15349   2.864   4.520   6.824
 4922SOL    HW115350   2.905   4.488   6.910
 4922SOL    HW215351   2.768   4.493   6.821
 4923SOL     OW15352   1.902   4.268   6.700
 4923SOL    HW115353   1.987   4.235   6.659
 4923SOL    HW215354   1.915   4.283   6.798
 4924SOL     OW15355   2.051   4.244   7.308
 4924SOL    HW115356   2.110   4.204   7.238
 4924SOL    HW215357   1.993   4.315   7.267
 4925SOL     OW15358   3.231   4.674   7.246
 4925SOL    HW115359   3.270   4.763   7.266
 4925SOL    HW215360   3.241   4.654   7.149
 4926SOL     OW15361   2.677   4.296   5.911
 4926SOL    HW115362   2.684   4.207   5.865
 4926SOL    HW215363   2.583   4.330   5.903
 4927SOL     OW15364   3.519   4.328   6.792
 4927SOL    HW115365   3.481   4.259   6.854
 4927SOL    HW215366   3.601   4.292   6.748
 4928SOL     OW15367   2.114   5.288   7.330
 4928SOL    HW115368   2.084   5.345   7.406
 4928SOL    HW215369   2.107   5.191   7.356
 4929SOL     OW15370   2.533   4.188   6.855
 4929SOL    HW115371   2.499   4.099   6.825
 4929SOL    HW215372   2.559   4.242   6.775
 4930SOL     OW15373   2.335   4.224   5.777
 4930SOL    HW115374   2.396   4.304   5.781
 4930SOL    HW215375   2.240   4.255   5.784
 4931SOL     OW15376   2.021   4.861   7.052
 4931SOL    HW115377   2.043   4.800   7.128
 4931SOL    HW215378   2.031   4.812   6.966
 4932SOL     OW15379   3.209   4.783   6.820
 4932SOL    HW115380   3.233   4.720   6.746
 4932SOL    HW215381   3.119   4.823   6.802
 4933SOL     OW15382   3.164   4.579   5.895
 4933SOL    HW115383   3.078   4.548   5.937
 4933SOL    HW215384   3.160   4.565   5.796
 4934SOL     OW15385   1.945   4.982   6.608
 4934SOL    HW115386   1.940   4.981   6.708
 4934SOL    HW215387   1.862   4.941   6.570
 4935SOL     OW15388   2.550   5.386   7.302
 4935SOL    HW115389   2.494   5.467   7.311
 4935SOL    HW215390   2.602   5.390   7.216
 4936SOL     OW15391   3.588   3.859   6.109
 4936SOL    HW115392   3.661   3.842   6.042
 4936SOL    HW215393   3.557   3.772   6.147
 4937SOL     OW15394   3.142   4.651   6.258
 4937SOL    HW115395   3.202   4.570   6.260
 4937SOL    HW215396   3.182   4.720   6.198
 4938SOL     OW15397   2.692   4.997   7.008
 4938SOL    HW115398   2.687   5.030   7.103
 4938SOL    HW215399   2.606   5.016   6.962
 4939SOL     OW15400   3.703   3.899   6.549
 4939SOL    HW115401   3.742   3.814   6.513
 4939SOL    HW215402   3.605   3.901   6.530
 4940SOL     OW15403   2.125   4.050   6.306
 4940SOL    HW115404   2.046   4.101   6.272
 4940SOL    HW215405   2.116   4.035   6.404
 4941SOL     OW15406   2.684   4.726   6.958
 4941SOL    HW115407   2.724   4.725   6.866
 4941SOL    HW215408   2.694   4.818   6.998
 4942SOL     OW15409   2.778   4.634   5.877
 4942SOL    HW115410   2.841   4.672   5.809
 4942SOL    HW215411   2.818   4.551   5.916
 4943SOL     OW15412   2.234   5.012   7.076
 4943SOL    HW115413   2.221   5.105   7.042
 4943SOL    HW215414   2.150   4.960   7.063
 4944SOL     OW15415   3.476   5.016   6.875
 4944SOL    HW115416   3.536   5.019   6.955
 4944SOL    HW215417   3.401   5.080   6.888
 4945SOL     OW15418   2.901   4.822   6.282
 4945SOL    HW115419   2.831   4.775   6.336
 4945SOL    HW215420   2.960   4.754   6.239
 4946SOL     OW15421   2.876   3.960   6.557
 4946SOL    HW115422   2.868   3.924   6.464
 4946SOL    HW215423   2.874   3.884   6.622
 4947SOL     OW15424   3.571   4.109   6.967
 4947SOL    HW115425   3.644   4.178   6.971
 4947SOL    HW215426   3.599   4.034   6.908
 4948SOL     OW15427   2.117   5.072   5.876
 4948SOL    HW115428   2.021   5.073   5.849
 4948SOL    HW215429   2.129   5.125   5.960
 4949SOL     OW15430   1.967   4.737   7.312
 4949SOL    HW115431   1.890   4.704   7.366
 4949SOL    HW215432   2.052   4.707   7.354
 4950SOL     OW15433   2.534   3.927   7.075
 4950SOL    HW115434   2.624   3.911   7.035
 4950SOL    HW215435   2.542   3.932   7.174
 4951SOL     OW15436   1.937   4.069   5.619
 4951SOL    HW115437   1.845   4.041   5.590
 4951SOL    HW215438   1.968   4.146   5.563
 4952SOL     OW15439   3.302   4.580   6.984
 4952SOL    HW115440   3.245   4.632   6.921
 4952SOL    HW215441   3.398   4.592   6.960
 4953SOL     OW15442   1.934   3.890   5.904
 4953SOL    HW115443   1.917   3.973   5.850
 4953SOL    HW215444   2.024   3.853   5.882
 4954SOL     OW15445   3.045   5.059   5.705
 4954SOL    HW115446   2.946   5.048   5.707
 4954SOL    HW215447   3.079   5.074   5.798
 4955SOL     OW15448   2.475   4.566   7.017
 4955SOL    HW115449   2.531   4.647   7.000
 4955SOL    HW215450   2.534   4.486   7.020
 4956SOL     OW15451   2.578   4.289   7.294
 4956SOL    HW115452   2.597   4.354   7.368
 4956SOL    HW215453   2.638   4.209   7.303
 4957SOL     OW15454   3.312   4.944   7.219
 4957SOL    HW115455   3.303   4.934   7.318
 4957SOL    HW215456   3.408   4.937   7.193
 4958SOL     OW15457   3.536   4.607   6.840
 4958SOL    HW115458   3.509   4.518   6.803
 4958SOL    HW215459   3.537   4.675   6.767
 4959SOL     OW15460   3.087   4.049   6.035
 4959SOL    HW115461   3.152   3.975   6.024
 4959SOL    HW215462   3.107   4.099   6.119
 4960SOL     OW15463   2.456   4.469   6.238
 4960SOL    HW115464   2.506   4.554   6.219
 4960SOL    HW215465   2.368   4.471   6.190
 4961SOL     OW15466   3.639   4.066   7.228
 4961SOL    HW115467   3.622   4.097   7.134
 4961SOL    HW215468   3.555   4.029   7.266
 4962SOL     OW15469   3.592   4.658   7.103
 4962SOL    HW115470   3.630   4.749   7.118
 4962SOL    HW215471   3.584   4.641   7.004
 4963SOL     OW15472   2.721   5.098   5.602
 4963SOL    HW115473   2.675   5.113   5.690
 4963SOL    HW215474   2.765   5.183   5.572
 4964SOL     OW15475   2.721   4.680   6.447
 4964SOL    HW115476   2.775   4.611   6.495
 4964SOL    HW215477   2.689   4.749   6.513
 4965SOL     OW15478   2.945   4.708   5.673
 4965SOL    HW115479   2.922   4.761   5.591
 4965SOL    HW215480   3.026   4.652   5.654
 4966SOL     OW15481   2.083   5.038   7.430
 4966SOL    HW115482   2.018   4.965   7.409
 4966SOL    HW215483   2.087   5.052   7.528
 4967SOL     OW15484   1.941   4.964   6.239
 4967SOL    HW115485   1.940   4.917   6.327
 4967SOL    HW215486   2.023   4.936   6.188
 4968SOL     OW15487   2.534   5.115   7.210
 4968SOL    HW115488   2.456   5.065   7.248
 4968SOL    HW215489   2.531   5.210   7.241
 4969SOL     OW15490   3.686   3.916   6.813
 4969SOL    HW115491   3.682   3.826   6.857
 4969SOL    HW215492   3.689   3.905   6.714
 4970SOL     OW15493   2.290   4.148   6.106
 4970SOL    HW115494   2.320   4.076   6.044
 4970SOL    HW215495   2.251   4.108   6.189
 4971SOL     OW15496   3.567   5.211   6.690
 4971SOL    HW115497   3.474   5.186   6.663
 4971SOL    HW215498   3.593   5.161   6.772
 4972SOL     OW15499   2.179   4.271   6.866
 4972SOL    HW115500   2.217   4.212   6.938
 4972SOL    HW215501   2.219   4.245   6.778
 4973SOL     OW15502   3.286   3.938   6.698
 4973SOL    HW115503   3.338   3.873   6.753
 4973SOL    HW215504   3.237   4.001   6.759
 4974SOL     OW15505   2.863   3.758   6.740
 4974SOL    HW115506   2.800   3.686   6.709
 4974SOL    HW215507   2.956   3.722   6.740
 4975SOL     OW15508   2.632   5.054   5.887
 4975SOL    HW115509   2.586   4.967   5.904
 4975SOL    HW215510   2.723   5.051   5.928
 4976SOL     OW15511   2.480   5.291   6.870
 4976SOL    HW115512   2.475   5.373   6.927
 4976SOL    HW215513   2.569   5.288   6.825
 4977SOL     OW15514   3.214   3.776   5.754
 4977SOL    HW115515   3.249   3.735   5.670
 4977SOL    HW215516   3.124   3.738   5.774
 4978SOL     OW15517   3.162   4.177   6.277
 4978SOL    HW115518   3.103   4.257   6.281
 4978SOL    HW215519   3.177   4.142   6.370
 4979SOL     OW15520   3.455   3.945   6.468
 4979SOL    HW115521   3.371   3.944   6.522
 4979SOL    HW215522   3.457   4.028   6.412
 4980SOL     OW15523   1.901   4.801   5.886
 4980SOL    HW115524   2.000   4.790   5.877
 4980SOL    HW215525   1.861   4.715   5.918
 4981SOL     OW15526   2.092   4.352   7.561
 4981SOL    HW115527   1.999   4.350   7.598
 4981SOL    HW215528   2.093   4.313   7.469
 4982SOL     OW15529   3.617   4.331   7.679
 4982SOL    HW115530   3.605   4.318   7.580
 4982SOL    HW215531   3.587   4.250   7.728
 4983SOL     OW15532   2.093   5.437   7.931
 4983SOL    HW115533   2.127   5.514   7.985
 4983SOL    HW215534   2.137   5.437   7.841
 4984SOL     OW15535   2.092   5.158   7.986
 4984SOL    HW115536   2.066   5.254   7.986
 4984SOL    HW215537   2.021   5.104   8.031
 4985SOL     OW15538   2.468   4.688   7.571
 4985SOL    HW115539   2.475   4.772   7.517
 4985SOL    HW215540   2.514   4.701   7.659
 4986SOL     OW15541   1.889   5.320   7.565
 4986SOL    HW115542   1.870   5.224   7.586
 4986SOL    HW215543   1.856   5.378   7.640
 4987SOL     OW15544   3.551   4.646   8.060
 4987SOL    HW115545   3.646   4.617   8.068
 4987SOL    HW215546   3.543   4.711   7.985
 4988SOL     OW15547   3.503   4.832   7.880
 4988SOL    HW115548   3.589   4.834   7.828
 4988SOL    HW215549   3.517   4.879   7.968
 4989SOL     OW15550   2.671   3.728   7.950
 4989SOL    HW115551   2.711   3.819   7.941
 4989SOL    HW215552   2.571   3.736   7.956
 4990SOL     OW15553   3.387   4.723   7.638
 4990SOL    HW115554   3.324   4.647   7.651
 4990SOL    HW215555   3.435   4.741   7.724
 4991SOL     OW15556   2.460   4.453   7.718
 4991SOL    HW115557   2.484   4.522   7.650
 4991SOL    HW215558   2.382   4.486   7.772
 4992SOL     OW15559   1.938   4.535   8.237
 4992SOL    HW115560   2.037   4.523   8.246
 4992SOL    HW215561   1.914   4.630   8.258
 4993SOL     OW15562   2.727   4.072   7.643
 4993SOL    HW115563   2.786   4.135   7.594
 4993SOL    HW215564   2.746   3.978   7.614
 4994SOL     OW15565   2.183   4.667   7.690
 4994SOL    HW115566   2.265   4.706   7.648
 4994SOL    HW215567   2.156   4.585   7.641
 4995SOL     OW15568   2.973   5.500   7.685
 4995SOL    HW115569   2.913   5.438   7.735
 4995SOL    HW215570   3.004   5.456   7.600
 4996SOL     OW15571   3.494   5.101   7.529
 4996SOL    HW115572   3.462   5.195   7.519
 4996SOL    HW215573   3.418   5.038   7.517
 4997SOL     OW15574   3.262   3.831   7.874
 4997SOL    HW115575   3.238   3.794   7.784
 4997SOL    HW215576   3.361   3.847   7.878
 4998SOL     OW15577   2.244   4.424   7.928
 4998SOL    HW115578   2.289   4.334   7.925
 4998SOL    HW215579   2.150   4.413   7.961
 4999SOL     OW15580   2.476   3.846   7.565
 4999SOL    HW115581   2.574   3.824   7.572
 4999SOL    HW215582   2.445   3.829   7.472
 5000SOL     OW15583   2.401   3.788   7.960
 5000SOL    HW115584   2.320   3.789   8.018
 5000SOL    HW215585   2.404   3.871   7.905
 5001SOL     OW15586   3.296   4.912   7.489
 5001SOL    HW115587   3.328   4.836   7.546
 5001SOL    HW215588   3.204   4.939   7.519
 5002SOL     OW15589   2.159   3.759   7.619
 5002SOL    HW115590   2.208   3.843   7.598
 5002SOL    HW215591   2.221   3.694   7.664
 5003SOL     OW15592   2.797   3.960   7.928
 5003SOL    HW115593   2.749   4.001   7.850
 5003SOL    HW215594   2.896   3.958   7.909
 5004SOL     OW15595   2.321   4.876   8.189
 5004SOL    HW115596   2.250   4.849   8.254
 5004SOL    HW215597   2.295   4.848   8.096
 5005SOL     OW15598   2.894   4.273   7.464
 5005SOL    HW115599   2.853   4.355   7.425
 5005SOL    HW215600   2.958   4.299   7.537
 5006SOL     OW15601   3.719   4.557   7.825
 5006SOL    HW115602   3.761   4.493   7.889
 5006SOL    HW215603   3.681   4.506   7.747
 5007SOL     OW15604   2.350   5.109   7.622
 5007SOL    HW115605   2.263   5.094   7.669
 5007SOL    HW215606   2.333   5.135   7.527
 5008SOL     OW15607   3.252   4.299   7.526
 5008SOL    HW115608   3.198   4.278   7.607
 5008SOL    HW215609   3.343   4.258   7.535
 5009SOL     OW15610   2.389   3.980   7.776
 5009SOL    HW115611   2.416   3.921   7.701
 5009SOL    HW215612   2.389   4.075   7.745
 5010SOL     OW15613   2.567   4.774   7.816
 5010SOL    HW115614   2.553   4.781   7.915
 5010SOL    HW215615   2.651   4.723   7.798
 5011SOL     OW15616   2.229   4.824   7.949
 5011SOL    HW115617   2.222   4.907   7.893
 5011SOL    HW215618   2.233   4.744   7.889
 5012SOL     OW15619   3.114   5.072   7.836
 5012SOL    HW115620   3.164   5.149   7.876
 5012SOL    HW215621   3.019   5.074   7.868
 5013SOL     OW15622   3.444   4.363   7.920
 5013SOL    HW115623   3.413   4.424   7.993
 5013SOL    HW215624   3.494   4.415   7.851
 5014SOL     OW15625   3.071   4.249   7.723
 5014SOL    HW115626   3.084   4.165   7.777
 5014SOL    HW215627   3.042   4.323   7.783
 5015SOL     OW15628   3.484   4.091   7.822
 5015SOL    HW115629   3.486   4.015   7.886
 5015SOL    HW215630   3.436   4.168   7.862
 5016SOL     OW15631   3.402   3.998   7.573
 5016SOL    HW115632   3.341   3.923   7.596
 5016SOL    HW215633   3.424   4.050   7.656
 5017SOL     OW15634   3.165   4.562   7.490
 5017SOL    HW115635   3.199   4.469   7.505
 5017SOL    HW215636   3.183   4.589   7.395
 5018SOL     OW15637   1.870   5.050   7.648
 5018SOL    HW115638   1.777   5.071   7.617
 5018SOL    HW215639   1.880   4.951   7.661
 5019SOL     OW15640   2.677   4.296   7.773
 5019SOL    HW115641   2.684   4.207   7.727
 5019SOL    HW215642   2.583   4.330   7.765
 5020SOL     OW15643   2.335   4.224   7.639
 5020SOL    HW115644   2.396   4.304   7.643
 5020SOL    HW215645   2.240   4.255   7.646
 5021SOL     OW15646   3.164   4.579   7.757
 5021SOL    HW115647   3.078   4.548   7.799
 5021SOL    HW215648   3.160   4.565   7.658
 5022SOL     OW15649   3.588   3.859   7.971
 5022SOL    HW115650   3.661   3.842   7.904
 5022SOL    HW215651   3.557   3.772   8.009
 5023SOL     OW15652   2.778   4.634   7.739
 5023SOL    HW115653   2.841   4.672   7.671
 5023SOL    HW215654   2.818   4.551   7.778
 5024SOL     OW15655   2.117   5.072   7.738
 5024SOL    HW115656   2.021   5.073   7.711
 5024SOL    HW215657   2.129   5.125   7.822
 5025SOL     OW15658   1.937   4.069   7.481
 5025SOL    HW115659   1.845   4.041   7.452
 5025SOL    HW215660   1.968   4.146   7.425
 5026SOL     OW15661   1.934   3.890   7.766
 5026SOL    HW115662   1.917   3.973   7.712
 5026SOL    HW215663   2.024   3.853   7.744
 5027SOL     OW15664   3.045   5.059   7.567
 5027SOL    HW115665   2.946   5.048   7.569
 5027SOL    HW215666   3.079   5.074   7.660
 5028SOL     OW15667   3.087   4.049   7.897
 5028SOL    HW115668   3.152   3.975   7.886
 5028SOL    HW215669   3.107   4.099   7.981
 5029SOL     OW15670   2.456   4.469   8.100
 5029SOL    HW115671   2.506   4.554   8.081
 5029SOL    HW215672   2.368   4.471   8.052
 5030SOL     OW15673   2.721   5.098   7.464
 5030SOL    HW115674   2.675   5.113   7.552
 5030SOL    HW215675   2.765   5.183   7.434
 5031SOL     OW15676   2.945   4.708   7.535
 5031SOL    HW115677   2.922   4.761   7.453
 5031SOL    HW215678   3.026   4.652   7.516
 5032SOL     OW15679   2.290   4.148   7.968
 5032SOL    HW115680   2.320   4.076   7.906
 5032SOL    HW215681   2.251   4.108   8.051
 5033SOL     OW15682   2.632   5.054   7.749
 5033SOL    HW115683   2.586   4.967   7.766
 5033SOL    HW215684   2.723   5.051   7.790
 5034SOL     OW15685   3.214   3.776   7.616
 5034SOL    HW115686   3.249   3.735   7.532
 5034SOL    HW215687   3.124   3.738   7.636
 5035SOL     OW15688   1.901   4.801   7.748
 5035SOL    HW115689   2.000   4.790   7.739
 5035SOL    HW215690   1.861   4.715   7.780
 5036SOL     OW15691   3.954   0.628   0.113
 5036SOL    HW115692   3.861   0.626   0.150
 5036SOL    HW215693   3.955   0.589   0.021
 5037SOL     OW15694   3.949   0.275   0.996
 5037SOL    HW115695   3.984   0.258   1.088
 5037SOL    HW215696   3.861   0.230   0.984
 5038SOL     OW15697   3.743   0.368   0.647
 5038SOL    HW115698   3.661   0.411   0.686
 5038SOL    HW215699   3.715   0.295   0.584
 5039SOL     OW15700   4.293   1.275   1.165
 5039SOL    HW115701   4.200   1.268   1.128
 5039SOL    HW215702   4.304   1.364   1.209
 5040SOL     OW15703   5.279   1.511   0.703
 5040SOL    HW115704   5.222   1.495   0.784
 5040SOL    HW215705   5.220   1.521   0.623
 5041SOL     OW15706   4.859   0.703   0.717
 5041SOL    HW115707   4.916   0.781   0.692
 5041SOL    HW215708   4.799   0.729   0.793
 5042SOL     OW15709   4.492   1.144   1.023
 5042SOL    HW115710   4.414   1.161   1.083
 5042SOL    HW215711   4.526   1.231   0.987
 5043SOL     OW15712   4.574   0.798   1.823
 5043SOL    HW115713   4.570   0.874   1.888
 5043SOL    HW215714   4.596   0.834   1.732
 5044SOL     OW15715   4.409   1.012   0.665
 5044SOL    HW115716   4.478   0.996   0.735
 5044SOL    HW215717   4.336   1.069   0.703
 5045SOL     OW15718   4.410   1.161   1.803
 5045SOL    HW115719   4.470   1.240   1.817
 5045SOL    HW215720   4.324   1.192   1.762
 5046SOL     OW15721   4.059   1.435   1.061
 5046SOL    HW115722   3.981   1.404   1.008
 5046SOL    HW215723   4.117   1.493   1.004
 5047SOL     OW15724   5.184   1.505   1.339
 5047SOL    HW115725   5.208   1.599   1.365
 5047SOL    HW215726   5.168   1.451   1.421
 5048SOL     OW15727   4.162   0.392   1.499
 5048SOL    HW115728   4.244   0.336   1.508
 5048SOL    HW215729   4.081   0.334   1.503
 5049SOL     OW15730   3.955   1.713   0.483
 5049SOL    HW115731   3.989   1.790   0.537
 5049SOL    HW215732   3.999   1.713   0.393
 5050SOL     OW15733   4.851   1.341   1.690
 5050SOL    HW115734   4.898   1.341   1.778
 5050SOL    HW215735   4.803   1.254   1.679
 5051SOL     OW15736   3.954   1.434   0.538
 5051SOL    HW115737   3.928   1.530   0.538
 5051SOL    HW215738   3.883   1.380   0.583
 5052SOL     OW15739   3.964   1.091   0.886
 5052SOL    HW115740   3.978   1.007   0.938
 5052SOL    HW215741   3.909   1.155   0.941
 5053SOL     OW15742   4.344   1.786   1.439
 5053SOL    HW115743   4.252   1.769   1.474
 5053SOL    HW215744   4.372   1.878   1.465
 5054SOL     OW15745   4.330   0.964   0.123
 5054SOL    HW115746   4.337   1.048   0.069
 5054SOL    HW215747   4.376   0.977   0.211
 5055SOL     OW15748   5.318   0.114   1.480
 5055SOL    HW115749   5.300   0.181   1.408
 5055SOL    HW215750   5.315   0.160   1.569
 5056SOL     OW15751   3.846   0.643   0.563
 5056SOL    HW115752   3.801   0.555   0.580
 5056SOL    HW215753   3.845   0.697   0.647
 5057SOL     OW15754   3.751   1.596   0.117
 5057SOL    HW115755   3.732   1.500   0.138
 5057SOL    HW215756   3.718   1.654   0.192
 5058SOL     OW15757   5.413   0.922   0.612
 5058SOL    HW115758   5.508   0.893   0.620
 5058SOL    HW215759   5.405   0.987   0.537
 5059SOL     OW15760   3.837   0.737   1.597
 5059SOL    HW115761   3.925   0.724   1.642
 5059SOL    HW215762   3.824   0.834   1.575
 5060SOL     OW15763   4.337   1.365   0.726
 5060SOL    HW115764   4.288   1.278   0.735
 5060SOL    HW215765   4.314   1.408   0.639
 5061SOL     OW15766   5.017   1.228   1.423
 5061SOL    HW115767   5.054   1.155   1.365
 5061SOL    HW215768   5.069   1.233   1.508
 5062SOL     OW15769   4.533   0.004   0.502
 5062SOL    HW115770   4.573   0.095   0.493
 5062SOL    HW215771   4.433   0.012   0.508
 5063SOL     OW15772   3.921   0.976   1.264
 5063SOL    HW115773   4.010   0.931   1.250
 5063SOL    HW215774   3.848   0.911   1.245
 5064SOL     OW15775   4.911   1.792   1.616
 5064SOL    HW115776   4.935   1.852   1.540
 5064SOL    HW215777   4.918   1.697   1.586
 5065SOL     OW15778   4.041   0.251   1.801
 5065SOL    HW115779   4.112   0.322   1.807
 5065SOL    HW215780   3.953   0.290   1.829
 5066SOL     OW15781   5.190   1.417   0.953
 5066SOL    HW115782   5.131   1.423   1.033
 5066SOL    HW215783   5.175   1.329   0.907
 5067SOL     OW15784   4.322   0.729   0.270
 5067SOL    HW115785   4.346   0.798   0.202
 5067SOL    HW215786   4.244   0.762   0.324
 5068SOL     OW15787   5.005   0.345   0.944
 5068SOL    HW115788   4.919   0.295   0.931
 5068SOL    HW215789   5.067   0.291   1.000
 5069SOL     OW15790   4.531   0.605   1.465
 5069SOL    HW115791   4.484   0.602   1.554
 5069SOL    HW215792   4.480   0.550   1.399
 5070SOL     OW15793   5.118   0.469   1.674
 5070SOL    HW115794   5.098   0.512   1.762
 5070SOL    HW215795   5.196   0.407   1.683
 5071SOL     OW15796   4.697   0.890   1.572
 5071SOL    HW115797   4.743   0.806   1.543
 5071SOL    HW215798   4.641   0.924   1.497
 5072SOL     OW15799   4.715   0.410   1.242
 5072SOL    HW115800   4.638   0.444   1.296
 5072SOL    HW215801   4.681   0.359   1.163
 5073SOL     OW15802   4.765   0.701   0.429
 5073SOL    HW115803   4.791   0.697   0.525
 5073SOL    HW215804   4.680   0.650   0.415
 5074SOL     OW15805   3.800   0.811   0.789
 5074SOL    HW115806   3.899   0.799   0.798
 5074SOL    HW215807   3.776   0.906   0.810
 5075SOL     OW15808   3.854   1.821   1.571
 5075SOL    HW115809   3.844   1.806   1.670
 5075SOL    HW215810   3.768   1.857   1.535
 5076SOL     OW15811   4.589   0.348   0.195
 5076SOL    HW115812   4.648   0.411   0.146
 5076SOL    HW215813   4.608   0.254   0.166
 5077SOL     OW15814   5.086   1.144   0.545
 5077SOL    HW115815   5.169   1.115   0.497
 5077SOL    HW215816   5.037   1.211   0.489
 5078SOL     OW15817   4.274   0.196   0.885
 5078SOL    HW115818   4.269   0.191   0.985
 5078SOL    HW215819   4.276   0.292   0.856
 5079SOL     OW15820   4.732   1.456   0.477
 5079SOL    HW115821   4.686   1.528   0.425
 5079SOL    HW215822   4.728   1.476   0.575
 5080SOL     OW15823   4.075   1.801   0.853
 5080SOL    HW115824   4.125   1.715   0.859
 5080SOL    HW215825   4.140   1.878   0.850
 5081SOL     OW15826   4.951   1.550   1.506
 5081SOL    HW115827   4.957   1.473   1.570
 5081SOL    HW215828   4.899   1.524   1.426
 5082SOL     OW15829   4.045   0.943   0.242
 5082SOL    HW115830   4.127   0.982   0.200
 5082SOL    HW215831   4.018   0.861   0.193
 5083SOL     OW15832   4.185   1.266   1.727
 5083SOL    HW115833   4.135   1.267   1.641
 5083SOL    HW215834   4.122   1.248   1.803
 5084SOL     OW15835   4.835   1.776   0.237
 5084SOL    HW115836   4.775   1.714   0.287
 5084SOL    HW215837   4.866   1.732   0.152
 5085SOL     OW15838   3.926   0.285   1.498
 5085SOL    HW115839   3.846   0.345   1.485
 5085SOL    HW215840   3.916   0.236   1.584
 5086SOL     OW15841   4.188   1.743   0.323
 5086SOL    HW115842   4.221   1.782   0.409
 5086SOL    HW215843   4.264   1.736   0.258
 5087SOL     OW15844   5.124   0.107   0.426
 5087SOL    HW115845   5.100   0.070   0.336
 5087SOL    HW215846   5.223   0.123   0.430
 5088SOL     OW15847   3.973   1.785   1.241
 5088SOL    HW115848   4.030   1.720   1.291
 5088SOL    HW215849   3.957   1.752   1.148
 5089SOL     OW15850   4.664   1.698   0.904
 5089SOL    HW115851   4.744   1.641   0.925
 5089SOL    HW215852   4.615   1.658   0.827
 5090SOL     OW15853   4.106   0.700   0.480
 5090SOL    HW115854   4.151   0.610   0.477
 5090SOL    HW215855   4.012   0.689   0.513
 5091SOL     OW15856   4.338   0.122   0.117
 5091SOL    HW115857   4.436   0.100   0.124
 5091SOL    HW215858   4.307   0.105   0.024
 5092SOL     OW15859   4.505   0.264   1.749
 5092SOL    HW115860   4.572   0.203   1.792
 5092SOL    HW215861   4.432   0.283   1.814
 5093SOL     OW15862   4.612   1.514   1.195
 5093SOL    HW115863   4.589   1.489   1.101
 5093SOL    HW215864   4.673   1.445   1.234
 5094SOL     OW15865   5.075   0.590   1.433
 5094SOL    HW115866   5.103   0.547   1.518
 5094SOL    HW215867   5.100   0.686   1.434
 5095SOL     OW15868   4.527   1.402   0.924
 5095SOL    HW115869   4.617   1.416   0.882
 5095SOL    HW215870   4.456   1.404   0.853
 5096SOL     OW15871   4.646   0.503   0.899
 5096SOL    HW115872   4.621   0.494   0.803
 5096SOL    HW215873   4.694   0.421   0.930
 5097SOL     OW15874   4.263   0.064   0.512
 5097SOL    HW115875   4.182   0.065   0.570
 5097SOL    HW215876   4.266   0.147   0.457
 5098SOL     OW15877   5.158   1.188   0.041
 5098SOL    HW115878   5.190   1.112   0.098
 5098SOL    HW215879   5.066   1.215   0.071
 5099SOL     OW15880   4.021   0.035   0.171
 5099SOL    HW115881   4.070   0.119   0.150
 5099SOL    HW215882   4.083  -0.030   0.216
 5100SOL     OW15883   4.659   0.236   0.480
 5100SOL    HW115884   4.611   0.277   0.402
 5100SOL    HW215885   4.758   0.234   0.461
 5101SOL     OW15886   4.800   0.683   1.464
 5101SOL    HW115887   4.720   0.622   1.467
 5101SOL    HW215888   4.881   0.630   1.440
 5102SOL     OW15889   4.951   1.570   0.793
 5102SOL    HW115890   4.972   1.644   0.728
 5102SOL    HW215891   5.019   1.570   0.866
 5103SOL     OW15892   4.183   1.152   0.741
 5103SOL    HW115893   4.112   1.125   0.806
 5103SOL    HW215894   4.157   1.124   0.648
 5104SOL     OW15895   4.995   1.797   0.591
 5104SOL    HW115896   5.039   1.861   0.527
 5104SOL    HW215897   4.945   1.849   0.661
 5105SOL     OW15898   4.756   0.549   0.016
 5105SOL    HW115899   4.715   0.631  -0.023
 5105SOL    HW215900   4.820   0.575   0.089
 5106SOL     OW15901   3.802   0.556   1.386
 5106SOL    HW115902   3.894   0.555   1.345
 5106SOL    HW215903   3.796   0.630   1.453
 5107SOL     OW15904   4.285   0.222   1.147
 5107SOL    HW115905   4.323   0.138   1.184
 5107SOL    HW215906   4.197   0.241   1.191
 5108SOL     OW15907   4.590   0.454   0.642
 5108SOL    HW115908   4.558   0.526   0.580
 5108SOL    HW215909   4.614   0.373   0.589
 5109SOL     OW15910   4.741   0.039   0.753
 5109SOL    HW115911   4.669   0.044   0.684
 5109SOL    HW215912   4.717  -0.030   0.822
 5110SOL     OW15913   5.153   1.173   0.867
 5110SOL    HW115914   5.098   1.089   0.860
 5110SOL    HW215915   5.179   1.202   0.775
 5111SOL     OW15916   4.212   1.385   0.174
 5111SOL    HW115917   4.125   1.370   0.221
 5111SOL    HW215918   4.195   1.411   0.079
 5112SOL     OW15919   5.114   0.575   0.078
 5112SOL    HW115920   5.060   0.554   0.159
 5112SOL    HW215921   5.205   0.534   0.087
 5113SOL     OW15922   4.251   0.256   0.328
 5113SOL    HW115923   4.278   0.197   0.253
 5113SOL    HW215924   4.251   0.351   0.297
 5114SOL     OW15925   4.788   1.347   1.340
 5114SOL    HW115926   4.708   1.324   1.395
 5114SOL    HW215927   4.871   1.321   1.389
 5115SOL     OW15928   5.316   1.629   1.625
 5115SOL    HW115929   5.343   1.663   1.535
 5115SOL    HW215930   5.395   1.591   1.671
 5116SOL     OW15931   4.835   1.195   1.100
 5116SOL    HW115932   4.795   1.239   1.181
 5116SOL    HW215933   4.794   1.232   1.017
 5117SOL     OW15934   4.639   0.089   1.402
 5117SOL    HW115935   4.664   0.069   1.307
 5117SOL    HW215936   4.711   0.145   1.444
 5118SOL     OW15937   4.704   1.116   1.719
 5118SOL    HW115938   4.605   1.122   1.729
 5118SOL    HW215939   4.727   1.036   1.663
 5119SOL     OW15940   4.429   1.050   0.368
 5119SOL    HW115941   4.415   1.057   0.467
 5119SOL    HW215942   4.513   0.999   0.350
 5120SOL     OW15943   4.134   0.813   1.251
 5120SOL    HW115944   4.220   0.825   1.301
 5120SOL    HW215945   4.092   0.726   1.278
 5121SOL     OW15946   4.998   0.386   1.262
 5121SOL    HW115947   5.019   0.460   1.326
 5121SOL    HW215948   4.909   0.403   1.219
 5122SOL     OW15949   3.788   1.564   1.331
 5122SOL    HW115950   3.742   1.646   1.297
 5122SOL    HW215951   3.886   1.583   1.340
 5123SOL     OW15952   4.091   1.100   0.501
 5123SOL    HW115953   4.084   1.183   0.445
 5123SOL    HW215954   4.095   1.020   0.441
 5124SOL     OW15955   4.290   0.537   0.865
 5124SOL    HW115956   4.302   0.603   0.791
 5124SOL    HW215957   4.336   0.571   0.948
 5125SOL     OW15958   4.976   1.348   0.388
 5125SOL    HW115959   5.026   1.425   0.428
 5125SOL    HW215960   4.881   1.350   0.420
 5126SOL     OW15961   4.996   1.445   1.142
 5126SOL    HW115962   5.043   1.458   1.229
 5126SOL    HW215963   4.930   1.371   1.151
 5127SOL     OW15964   4.078   1.510   1.329
 5127SOL    HW115965   4.057   1.466   1.242
 5127SOL    HW215966   4.175   1.536   1.332
 5128SOL     OW15967   4.126   0.751   1.598
 5128SOL    HW115968   4.194   0.806   1.551
 5128SOL    HW215969   4.166   0.663   1.625
 5129SOL     OW15970   4.737   0.105   1.770
 5129SOL    HW115971   4.743   0.190   1.718
 5129SOL    HW215972   4.769   0.029   1.713
 5130SOL     OW15973   4.228   0.050   1.740
 5130SOL    HW115974   4.186  -0.007   1.670
 5130SOL    HW215975   4.162   0.119   1.772
 5131SOL     OW15976   4.297   0.870   1.029
 5131SOL    HW115977   4.341   0.959   1.020
 5131SOL    HW215978   4.234   0.870   1.106
 5132SOL     OW15979   5.084   0.862   1.045
 5132SOL    HW115980   5.009   0.862   0.979
 5132SOL    HW215981   5.121   0.770   1.054
 5133SOL     OW15982   4.933   0.525   0.275
 5133SOL    HW115983   4.946   0.441   0.329
 5133SOL    HW215984   4.904   0.599   0.335
 5134SOL     OW15985   4.031   0.213   1.231
 5134SOL    HW115986   4.008   0.250   1.321
 5134SOL    HW215987   4.001   0.118   1.225
 5135SOL     OW15988   3.761   1.310   1.282
 5135SOL    HW115989   3.814   1.261   1.350
 5135SOL    HW215990   3.783   1.408   1.287
 5136SOL     OW15991   4.456   0.634   1.064
 5136SOL    HW115992   4.515   0.608   0.988
 5136SOL    HW215993   4.428   0.730   1.053
 5137SOL     OW15994   4.031   0.063   0.618
 5137SOL    HW115995   4.020   0.157   0.651
 5137SOL    HW215996   4.026   0.000   0.695
 5138SOL     OW15997   5.346   0.367   0.374
 5138SOL    HW115998   5.348   0.291   0.438
 5138SOL    HW215999   5.298   0.444   0.414
 5139SOL     OW16000   4.747   0.766   0.966
 5139SOL    HW116001   4.762   0.787   1.062
 5139SOL    HW216002   4.717   0.671   0.957
 5140SOL     OW16003   4.704   1.573   1.700
 5140SOL    HW116004   4.684   1.617   1.612
 5140SOL    HW216005   4.743   1.482   1.684
 5141SOL     OW16006   4.074   0.898   1.804
 5141SOL    HW116007   4.150   0.942   1.852
 5141SOL    HW216008   4.109   0.851   1.722
 5142SOL     OW16009   5.027   0.838   0.042
 5142SOL    HW116010   5.061   0.745   0.057
 5142SOL    HW216011   5.045   0.865  -0.053
 5143SOL     OW16012   4.792   1.333   0.849
 5143SOL    HW116013   4.799   1.249   0.794
 5143SOL    HW216014   4.854   1.402   0.813
 5144SOL     OW16015   4.043   0.810   0.949
 5144SOL    HW116016   4.136   0.846   0.954
 5144SOL    HW216017   4.037   0.725   1.001
 5145SOL     OW16018   4.063   0.509   1.006
 5145SOL    HW116019   4.011   0.426   0.989
 5145SOL    HW216020   4.140   0.514   0.942
 5146SOL     OW16021   4.862   0.380   1.678
 5146SOL    HW116022   4.817   0.443   1.742
 5146SOL    HW216023   4.955   0.411   1.661
 5147SOL     OW16024   4.884   0.207   1.477
 5147SOL    HW116025   4.884   0.271   1.554
 5147SOL    HW216026   4.912   0.255   1.394
 5148SOL     OW16027   3.732   1.326   0.200
 5148SOL    HW116028   3.639   1.347   0.169
 5148SOL    HW216029   3.742   1.227   0.213
 5149SOL     OW16030   3.812   1.801   0.927
 5149SOL    HW116031   3.770   1.715   0.900
 5149SOL    HW216032   3.906   1.804   0.893
 5150SOL     OW16033   4.228   1.568   0.910
 5150SOL    HW116034   4.294   1.642   0.919
 5150SOL    HW216035   4.272   1.489   0.868
 5151SOL     OW16036   4.726   0.796   1.238
 5151SOL    HW116037   4.767   0.764   1.324
 5151SOL    HW216038   4.630   0.769   1.235
 5152SOL     OW16039   3.764   0.544   1.114
 5152SOL    HW116040   3.849   0.511   1.073
 5152SOL    HW216041   3.777   0.559   1.212
 5153SOL     OW16042   3.913   0.520   1.722
 5153SOL    HW116043   3.972   0.480   1.652
 5153SOL    HW216044   3.855   0.591   1.681
 5154SOL     OW16045   5.093   0.950   1.660
 5154SOL    HW116046   5.132   1.039   1.680
 5154SOL    HW216047   5.103   0.930   1.563
 5155SOL     OW16048   4.539   0.572   0.325
 5155SOL    HW116049   4.546   0.483   0.279
 5155SOL    HW216050   4.445   0.606   0.317
 5156SOL     OW16051   3.976   1.564   1.744
 5156SOL    HW116052   3.946   1.621   1.820
 5156SOL    HW216053   3.969   1.467   1.770
 5157SOL     OW16054   4.395   0.464   1.269
 5157SOL    HW116055   4.361   0.375   1.239
 5157SOL    HW216056   4.421   0.518   1.189
 5158SOL     OW16057   4.654   1.678   1.465
 5158SOL    HW116058   4.630   1.660   1.370
 5158SOL    HW216059   4.684   1.772   1.475
 5159SOL     OW16060   4.197   0.500   0.191
 5159SOL    HW116061   4.258   0.580   0.195
 5159SOL    HW216062   4.102   0.531   0.198
 5160SOL     OW16063   3.883   1.137   1.466
 5160SOL    HW116064   3.905   1.076   1.542
 5160SOL    HW216065   3.893   1.088   1.380
 5161SOL     OW16066   5.071   1.059   1.234
 5161SOL    HW116067   5.095   0.996   1.160
 5161SOL    HW216068   4.981   1.099   1.216
 5162SOL     OW16069   5.026   0.855   0.309
 5162SOL    HW116070   4.940   0.824   0.351
 5162SOL    HW216071   5.022   0.841   0.210
 5163SOL     OW16072   4.976   1.731   1.128
 5163SOL    HW116073   5.060   1.736   1.074
 5163SOL    HW216074   4.953   1.635   1.146
 5164SOL     OW16075   3.807   1.258   1.022
 5164SOL    HW116076   3.802   1.257   1.122
 5164SOL    HW216077   3.724   1.217   0.984
 5165SOL     OW16078   4.412   1.662   1.716
 5165SOL    HW116079   4.356   1.743   1.725
 5165SOL    HW216080   4.464   1.666   1.630
 5166SOL     OW16081   4.627   0.086   0.133
 5166SOL    HW116082   4.678   0.087   0.047
 5166SOL    HW216083   4.683   0.044   0.204
 5167SOL     OW16084   5.112   1.573   0.477
 5167SOL    HW116085   5.179   1.585   0.403
 5167SOL    HW216086   5.072   1.662   0.500
 5168SOL     OW16087   3.854   1.794   1.851
 5168SOL    HW116088   3.813   1.720   1.904
 5168SOL    HW216089   3.918   1.845   1.909
 5169SOL     OW16090   5.004   0.927   0.672
 5169SOL    HW116091   5.064   0.846   0.674
 5169SOL    HW216092   5.044   0.996   0.612
 5170SOL     OW16093   4.554   1.273   1.422
 5170SOL    HW116094   4.549   1.306   1.517
 5170SOL    HW216095   4.468   1.292   1.376
 5171SOL     OW16096   4.396   1.616   0.154
 5171SOL    HW116097   4.405   1.626   0.055
 5171SOL    HW216098   4.356   1.527   0.175
 5172SOL     OW16099   3.987   0.326   0.720
 5172SOL    HW116100   3.908   0.377   0.686
 5172SOL    HW216101   3.978   0.311   0.818
 5173SOL     OW16102   4.918   1.612   0.031
 5173SOL    HW116103   4.924   1.519   0.068
 5173SOL    HW216104   4.859   1.612  -0.049
 5174SOL     OW16105   4.546   1.002   1.372
 5174SOL    HW116106   4.586   1.001   1.280
 5174SOL    HW216107   4.556   1.094   1.412
 5175SOL     OW16108   4.640   0.910   0.291
 5175SOL    HW116109   4.703   0.948   0.223
 5175SOL    HW216110   4.680   0.827   0.330
 5176SOL     OW16111   4.096   1.288   1.490
 5176SOL    HW116112   4.083   1.381   1.456
 5176SOL    HW216113   4.012   1.236   1.477
 5177SOL     OW16114   4.763   1.098   0.696
 5177SOL    HW116115   4.693   1.051   0.750
 5177SOL    HW216116   4.822   1.030   0.653
 5178SOL     OW16117   4.738   0.236   0.971
 5178SOL    HW116118   4.730   0.200   0.878
 5178SOL    HW216119   4.736   0.160   1.036
 5179SOL     OW16120   4.314   1.487   0.491
 5179SOL    HW116121   4.356   1.429   0.421
 5179SOL    HW216122   4.270   1.566   0.447
 5180SOL     OW16123   3.979   1.348   0.290
 5180SOL    HW116124   3.883   1.349   0.263
 5180SOL    HW216125   3.991   1.401   0.374
 5181SOL     OW16126   3.829   1.013   1.726
 5181SOL    HW116127   3.752   0.980   1.780
 5181SOL    HW216128   3.914   0.983   1.768
 5182SOL     OW16129   4.396   0.203   1.489
 5182SOL    HW116130   4.486   0.187   1.449
 5182SOL    HW216131   4.404   0.208   1.588
 5183SOL     OW16132   3.799   0.345   0.033
 5183SOL    HW116133   3.707   0.317   0.004
 5183SOL    HW216134   3.830   0.422  -0.023
 5184SOL     OW16135   5.164   0.856   1.398
 5184SOL    HW116136   5.107   0.908   1.335
 5184SOL    HW216137   5.260   0.868   1.374
 5185SOL     OW16138   3.796   0.166   0.318
 5185SOL    HW116139   3.779   0.249   0.264
 5185SOL    HW216140   3.886   0.129   0.296
 5186SOL     OW16141   4.907   1.335   0.119
 5186SOL    HW116142   4.808   1.324   0.121
 5186SOL    HW216143   4.941   1.350   0.212
 5187SOL     OW16144   4.337   0.842   1.431
 5187SOL    HW116145   4.393   0.923   1.414
 5187SOL    HW216146   4.396   0.762   1.434
 5188SOL     OW16147   4.440   0.565   1.708
 5188SOL    HW116148   4.459   0.630   1.782
 5188SOL    HW216149   4.500   0.485   1.717
 5189SOL     OW16150   5.174   1.220   1.633
 5189SOL    HW116151   5.165   1.210   1.732
 5189SOL    HW216152   5.270   1.213   1.607
 5190SOL     OW16153   4.114   1.741   1.560
 5190SOL    HW116154   4.023   1.782   1.558
 5190SOL    HW216155   4.107   1.647   1.592
 5191SOL     OW16156   4.949   0.325   0.449
 5191SOL    HW116157   5.014   0.251   0.438
 5191SOL    HW216158   4.969   0.375   0.533
 5192SOL     OW16159   4.318   0.745   0.652
 5192SOL    HW116160   4.368   0.830   0.633
 5192SOL    HW216161   4.230   0.747   0.604
 5193SOL     OW16162   4.583   1.374   0.016
 5193SOL    HW116163   4.537   1.389   0.104
 5193SOL    HW216164   4.627   1.459  -0.014
 5194SOL     OW16165   4.385   1.790   0.953
 5194SOL    HW116166   4.339   1.878   0.940
 5194SOL    HW216167   4.484   1.802   0.946
 5195SOL     OW16168   4.583   0.956   0.861
 5195SOL    HW116169   4.637   0.887   0.909
 5195SOL    HW216170   4.551   1.025   0.927
 5196SOL     OW16171   4.807   0.984   0.087
 5196SOL    HW116172   4.784   1.037   0.005
 5196SOL    HW216173   4.888   0.928   0.068
 5197SOL     OW16174   3.945   1.314   1.844
 5197SOL    HW116175   3.880   1.241   1.823
 5197SOL    HW216176   3.949   1.328   1.942
 5198SOL     OW16177   3.803   1.240   0.653
 5198SOL    HW116178   3.802   1.193   0.741
 5198SOL    HW216179   3.885   1.212   0.602
 5199SOL     OW16180   4.396   1.391   1.624
 5199SOL    HW116181   4.318   1.341   1.662
 5199SOL    HW216182   4.393   1.486   1.655
 5200SOL     OW16183   4.152   0.424   0.520
 5200SOL    HW116184   4.182   0.352   0.458
 5200SOL    HW216185   4.113   0.384   0.603
 5201SOL     OW16186   5.429   1.487   1.104
 5201SOL    HW116187   5.336   1.462   1.077
 5201SOL    HW216188   5.455   1.437   1.186
 5202SOL     OW16189   4.041   0.547   1.280
 5202SOL    HW116190   4.079   0.488   1.352
 5202SOL    HW216191   4.081   0.521   1.192
 5203SOL     OW16192   4.536   1.586   0.687
 5203SOL    HW116193   4.568   1.596   0.593
 5203SOL    HW216194   4.457   1.524   0.689
 5204SOL     OW16195   5.148   0.214   1.112
 5204SOL    HW116196   5.200   0.149   1.167
 5204SOL    HW216197   5.099   0.277   1.173
 5205SOL     OW16198   4.725   0.034   1.154
 5205SOL    HW116199   4.662  -0.038   1.123
 5205SOL    HW216200   4.818  -0.002   1.154
 5206SOL     OW16201   4.494   1.330   0.301
 5206SOL    HW116202   4.448   1.243   0.318
 5206SOL    HW216203   4.585   1.327   0.342
 5207SOL     OW16204   4.342   1.567   1.284
 5207SOL    HW116205   4.337   1.649   1.341
 5207SOL    HW216206   4.431   1.564   1.239
 5208SOL     OW16207   5.076   0.052   0.168
 5208SOL    HW116208   5.111   0.011   0.084
 5208SOL    HW216209   4.986   0.014   0.188
 5209SOL     OW16210   5.024   0.453   0.691
 5209SOL    HW116211   4.965   0.533   0.695
 5209SOL    HW216212   5.039   0.418   0.784
 5210SOL     OW16213   5.317   0.221   0.882
 5210SOL    HW116214   5.233   0.220   0.936
 5210SOL    HW216215   5.319   0.304   0.826
 5211SOL     OW16216   3.763   1.077   0.300
 5211SOL    HW116217   3.862   1.066   0.291
 5211SOL    HW216218   3.723   0.991   0.332
 5212SOL     OW16219   4.599   1.646   0.337
 5212SOL    HW116220   4.522   1.611   0.283
 5212SOL    HW216221   4.567   1.717   0.399
 5213SOL     OW16222   3.954   0.628   1.975
 5213SOL    HW116223   3.861   0.626   2.012
 5213SOL    HW216224   3.955   0.589   1.883
 5214SOL     OW16225   3.949   0.275   2.858
 5214SOL    HW116226   3.984   0.258   2.950
 5214SOL    HW216227   3.861   0.230   2.846
 5215SOL     OW16228   3.743   0.368   2.509
 5215SOL    HW116229   3.661   0.411   2.548
 5215SOL    HW216230   3.715   0.295   2.446
 5216SOL     OW16231   4.293   1.275   3.027
 5216SOL    HW116232   4.200   1.268   2.990
 5216SOL    HW216233   4.304   1.364   3.071
 5217SOL     OW16234   5.279   1.511   2.565
 5217SOL    HW116235   5.222   1.495   2.646
 5217SOL    HW216236   5.220   1.521   2.485
 5218SOL     OW16237   4.859   0.703   2.579
 5218SOL    HW116238   4.916   0.781   2.554
 5218SOL    HW216239   4.799   0.729   2.655
 5219SOL     OW16240   4.492   1.144   2.885
 5219SOL    HW116241   4.414   1.161   2.945
 5219SOL    HW216242   4.526   1.231   2.849
 5220SOL     OW16243   4.574   0.798   3.685
 5220SOL    HW116244   4.570   0.874   3.750
 5220SOL    HW216245   4.596   0.834   3.594
 5221SOL     OW16246   4.409   1.012   2.527
 5221SOL    HW116247   4.478   0.996   2.597
 5221SOL    HW216248   4.336   1.069   2.565
 5222SOL     OW16249   4.410   1.161   3.665
 5222SOL    HW116250   4.470   1.240   3.679
 5222SOL    HW216251   4.324   1.192   3.624
 5223SOL     OW16252   4.059   1.435   2.923
 5223SOL    HW116253   3.981   1.404   2.870
 5223SOL    HW216254   4.117   1.493   2.866
 5224SOL     OW16255   5.184   1.505   3.201
 5224SOL    HW116256   5.208   1.599   3.227
 5224SOL    HW216257   5.168   1.451   3.283
 5225SOL     OW16258   4.162   0.392   3.361
 5225SOL    HW116259   4.244   0.336   3.370
 5225SOL    HW216260   4.081   0.334   3.365
 5226SOL     OW16261   3.955   1.713   2.345
 5226SOL    HW116262   3.989   1.790   2.399
 5226SOL    HW216263   3.999   1.713   2.255
 5227SOL     OW16264   4.851   1.341   3.552
 5227SOL    HW116265   4.898   1.341   3.640
 5227SOL    HW216266   4.803   1.254   3.541
 5228SOL     OW16267   3.954   1.434   2.400
 5228SOL    HW116268   3.928   1.530   2.400
 5228SOL    HW216269   3.883   1.380   2.445
 5229SOL     OW16270   3.964   1.091   2.748
 5229SOL    HW116271   3.978   1.007   2.800
 5229SOL    HW216272   3.909   1.155   2.803
 5230SOL     OW16273   4.344   1.786   3.301
 5230SOL    HW116274   4.252   1.769   3.336
 5230SOL    HW216275   4.372   1.878   3.327
 5231SOL     OW16276   4.330   0.964   1.985
 5231SOL    HW116277   4.337   1.048   1.931
 5231SOL    HW216278   4.376   0.977   2.073
 5232SOL     OW16279   5.318   0.114   3.342
 5232SOL    HW116280   5.300   0.181   3.270
 5232SOL    HW216281   5.315   0.160   3.431
 5233SOL     OW16282   3.846   0.643   2.425
 5233SOL    HW116283   3.801   0.555   2.442
 5233SOL    HW216284   3.845   0.697   2.509
 5234SOL     OW16285   3.751   1.596   1.979
 5234SOL    HW116286   3.732   1.500   2.000
 5234SOL    HW216287   3.718   1.654   2.054
 5235SOL     OW16288   5.413   0.922   2.474
 5235SOL    HW116289   5.508   0.893   2.482
 5235SOL    HW216290   5.405   0.987   2.399
 5236SOL     OW16291   3.837   0.737   3.459
 5236SOL    HW116292   3.925   0.724   3.504
 5236SOL    HW216293   3.824   0.834   3.437
 5237SOL     OW16294   4.337   1.365   2.588
 5237SOL    HW116295   4.288   1.278   2.597
 5237SOL    HW216296   4.314   1.408   2.501
 5238SOL     OW16297   5.017   1.228   3.285
 5238SOL    HW116298   5.054   1.155   3.227
 5238SOL    HW216299   5.069   1.233   3.370
 5239SOL     OW16300   4.533   0.004   2.364
 5239SOL    HW116301   4.573   0.095   2.355
 5239SOL    HW216302   4.433   0.012   2.370
 5240SOL     OW16303   3.921   0.976   3.126
 5240SOL    HW116304   4.010   0.931   3.112
 5240SOL    HW216305   3.848   0.911   3.107
 5241SOL     OW16306   4.911   1.792   3.478
 5241SOL    HW116307   4.935   1.852   3.402
 5241SOL    HW216308   4.918   1.697   3.448
 5242SOL     OW16309   4.041   0.251   3.663
 5242SOL    HW116310   4.112   0.322   3.669
 5242SOL    HW216311   3.953   0.290   3.691
 5243SOL     OW16312   5.190   1.417   2.815
 5243SOL    HW116313   5.131   1.423   2.895
 5243SOL    HW216314   5.175   1.329   2.769
 5244SOL     OW16315   4.322   0.729   2.132
 5244SOL    HW116316   4.346   0.798   2.064
 5244SOL    HW216317   4.244   0.762   2.186
 5245SOL     OW16318   5.005   0.345   2.806
 5245SOL    HW116319   4.919   0.295   2.793
 5245SOL    HW216320   5.067   0.291   2.862
 5246SOL     OW16321   4.531   0.605   3.327
 5246SOL    HW116322   4.484   0.602   3.416
 5246SOL    HW216323   4.480   0.550   3.261
 5247SOL     OW16324   5.118   0.469   3.536
 5247SOL    HW116325   5.098   0.512   3.624
 5247SOL    HW216326   5.196   0.407   3.545
 5248SOL     OW16327   4.697   0.890   3.434
 5248SOL    HW116328   4.743   0.806   3.405
 5248SOL    HW216329   4.641   0.924   3.359
 5249SOL     OW16330   4.715   0.410   3.104
 5249SOL    HW116331   4.638   0.444   3.158
 5249SOL    HW216332   4.681   0.359   3.025
 5250SOL     OW16333   4.765   0.701   2.291
 5250SOL    HW116334   4.791   0.697   2.387
 5250SOL    HW216335   4.680   0.650   2.277
 5251SOL     OW16336   3.800   0.811   2.651
 5251SOL    HW116337   3.899   0.799   2.660
 5251SOL    HW216338   3.776   0.906   2.672
 5252SOL     OW16339   3.854   1.821   3.433
 5252SOL    HW116340   3.844   1.806   3.532
 5252SOL    HW216341   3.768   1.857   3.397
 5253SOL     OW16342   4.589   0.348   2.057
 5253SOL    HW116343   4.648   0.411   2.008
 5253SOL    HW216344   4.608   0.254   2.028
 5254SOL     OW16345   5.086   1.144   2.407
 5254SOL    HW116346   5.169   1.115   2.359
 5254SOL    HW216347   5.037   1.211   2.351
 5255SOL     OW16348   4.274   0.196   2.747
 5255SOL    HW116349   4.269   0.191   2.847
 5255SOL    HW216350   4.276   0.292   2.718
 5256SOL     OW16351   4.732   1.456   2.339
 5256SOL    HW116352   4.686   1.528   2.287
 5256SOL    HW216353   4.728   1.476   2.437
 5257SOL     OW16354   4.075   1.801   2.715
 5257SOL    HW116355   4.125   1.715   2.721
 5257SOL    HW216356   4.140   1.878   2.712
 5258SOL     OW16357   4.951   1.550   3.368
 5258SOL    HW116358   4.957   1.473   3.432
 5258SOL    HW216359   4.899   1.524   3.288
 5259SOL     OW16360   4.045   0.943   2.104
 5259SOL    HW116361   4.127   0.982   2.062
 5259SOL    HW216362   4.018   0.861   2.055
 5260SOL     OW16363   4.185   1.266   3.589
 5260SOL    HW116364   4.135   1.267   3.503
 5260SOL    HW216365   4.122   1.248   3.665
 5261SOL     OW16366   4.835   1.776   2.099
 5261SOL    HW116367   4.775   1.714   2.149
 5261SOL    HW216368   4.866   1.732   2.014
 5262SOL     OW16369   3.926   0.285   3.360
 5262SOL    HW116370   3.846   0.345   3.347
 5262SOL    HW216371   3.916   0.236   3.446
 5263SOL     OW16372   4.188   1.743   2.185
 5263SOL    HW116373   4.221   1.782   2.271
 5263SOL    HW216374   4.264   1.736   2.120
 5264SOL     OW16375   5.124   0.107   2.288
 5264SOL    HW116376   5.100   0.070   2.198
 5264SOL    HW216377   5.223   0.123   2.292
 5265SOL     OW16378   3.973   1.785   3.103
 5265SOL    HW116379   4.030   1.720   3.153
 5265SOL    HW216380   3.957   1.752   3.010
 5266SOL     OW16381   4.664   1.698   2.766
 5266SOL    HW116382   4.744   1.641   2.787
 5266SOL    HW216383   4.615   1.658   2.689
 5267SOL     OW16384   4.106   0.700   2.342
 5267SOL    HW116385   4.151   0.610   2.339
 5267SOL    HW216386   4.012   0.689   2.375
 5268SOL     OW16387   4.338   0.122   1.979
 5268SOL    HW116388   4.436   0.100   1.986
 5268SOL    HW216389   4.307   0.105   1.886
 5269SOL     OW16390   4.505   0.264   3.611
 5269SOL    HW116391   4.572   0.203   3.654
 5269SOL    HW216392   4.432   0.283   3.676
 5270SOL     OW16393   4.612   1.514   3.057
 5270SOL    HW116394   4.589   1.489   2.963
 5270SOL    HW216395   4.673   1.445   3.096
 5271SOL     OW16396   5.075   0.590   3.295
 5271SOL    HW116397   5.103   0.547   3.380
 5271SOL    HW216398   5.100   0.686   3.296
 5272SOL     OW16399   4.527   1.402   2.786
 5272SOL    HW116400   4.617   1.416   2.744
 5272SOL    HW216401   4.456   1.404   2.715
 5273SOL     OW16402   4.646   0.503   2.761
 5273SOL    HW116403   4.621   0.494   2.665
 5273SOL    HW216404   4.694   0.421   2.792
 5274SOL     OW16405   4.263   0.064   2.374
 5274SOL    HW116406   4.182   0.065   2.432
 5274SOL    HW216407   4.266   0.147   2.319
 5275SOL     OW16408   5.158   1.188   1.903
 5275SOL    HW116409   5.190   1.112   1.960
 5275SOL    HW216410   5.066   1.215   1.933
 5276SOL     OW16411   4.021   0.035   2.033
 5276SOL    HW116412   4.070   0.119   2.012
 5276SOL    HW216413   4.083  -0.030   2.078
 5277SOL     OW16414   4.659   0.236   2.342
 5277SOL    HW116415   4.611   0.277   2.264
 5277SOL    HW216416   4.758   0.234   2.323
 5278SOL     OW16417   4.800   0.683   3.326
 5278SOL    HW116418   4.720   0.622   3.329
 5278SOL    HW216419   4.881   0.630   3.302
 5279SOL     OW16420   4.951   1.570   2.655
 5279SOL    HW116421   4.972   1.644   2.590
 5279SOL    HW216422   5.019   1.570   2.728
 5280SOL     OW16423   4.183   1.152   2.603
 5280SOL    HW116424   4.112   1.125   2.668
 5280SOL    HW216425   4.157   1.124   2.510
 5281SOL     OW16426   4.995   1.797   2.453
 5281SOL    HW116427   5.039   1.861   2.389
 5281SOL    HW216428   4.945   1.849   2.523
 5282SOL     OW16429   4.756   0.549   1.878
 5282SOL    HW116430   4.715   0.631   1.839
 5282SOL    HW216431   4.820   0.575   1.951
 5283SOL     OW16432   3.802   0.556   3.248
 5283SOL    HW116433   3.894   0.555   3.207
 5283SOL    HW216434   3.796   0.630   3.315
 5284SOL     OW16435   4.285   0.222   3.009
 5284SOL    HW116436   4.323   0.138   3.046
 5284SOL    HW216437   4.197   0.241   3.053
 5285SOL     OW16438   4.590   0.454   2.504
 5285SOL    HW116439   4.558   0.526   2.442
 5285SOL    HW216440   4.614   0.373   2.451
 5286SOL     OW16441   4.741   0.039   2.615
 5286SOL    HW116442   4.669   0.044   2.546
 5286SOL    HW216443   4.717  -0.030   2.684
 5287SOL     OW16444   5.153   1.173   2.729
 5287SOL    HW116445   5.098   1.089   2.722
 5287SOL    HW216446   5.179   1.202   2.637
 5288SOL     OW16447   4.212   1.385   2.036
 5288SOL    HW116448   4.125   1.370   2.083
 5288SOL    HW216449   4.195   1.411   1.941
 5289SOL     OW16450   5.114   0.575   1.940
 5289SOL    HW116451   5.060   0.554   2.021
 5289SOL    HW216452   5.205   0.534   1.949
 5290SOL     OW16453   4.251   0.256   2.190
 5290SOL    HW116454   4.278   0.197   2.115
 5290SOL    HW216455   4.251   0.351   2.159
 5291SOL     OW16456   4.788   1.347   3.202
 5291SOL    HW116457   4.708   1.324   3.257
 5291SOL    HW216458   4.871   1.321   3.251
 5292SOL     OW16459   5.316   1.629   3.487
 5292SOL    HW116460   5.343   1.663   3.397
 5292SOL    HW216461   5.395   1.591   3.533
 5293SOL     OW16462   4.835   1.195   2.962
 5293SOL    HW116463   4.795   1.239   3.043
 5293SOL    HW216464   4.794   1.232   2.879
 5294SOL     OW16465   4.639   0.089   3.264
 5294SOL    HW116466   4.664   0.069   3.169
 5294SOL    HW216467   4.711   0.145   3.306
 5295SOL     OW16468   4.704   1.116   3.581
 5295SOL    HW116469   4.605   1.122   3.591
 5295SOL    HW216470   4.727   1.036   3.525
 5296SOL     OW16471   4.429   1.050   2.230
 5296SOL    HW116472   4.415   1.057   2.329
 5296SOL    HW216473   4.513   0.999   2.212
 5297SOL     OW16474   4.134   0.813   3.113
 5297SOL    HW116475   4.220   0.825   3.163
 5297SOL    HW216476   4.092   0.726   3.140
 5298SOL     OW16477   4.998   0.386   3.124
 5298SOL    HW116478   5.019   0.460   3.188
 5298SOL    HW216479   4.909   0.403   3.081
 5299SOL     OW16480   3.788   1.564   3.193
 5299SOL    HW116481   3.742   1.646   3.159
 5299SOL    HW216482   3.886   1.583   3.202
 5300SOL     OW16483   4.091   1.100   2.363
 5300SOL    HW116484   4.084   1.183   2.307
 5300SOL    HW216485   4.095   1.020   2.303
 5301SOL     OW16486   4.290   0.537   2.727
 5301SOL    HW116487   4.302   0.603   2.653
 5301SOL    HW216488   4.336   0.571   2.810
 5302SOL     OW16489   4.976   1.348   2.250
 5302SOL    HW116490   5.026   1.425   2.290
 5302SOL    HW216491   4.881   1.350   2.282
 5303SOL     OW16492   4.996   1.445   3.004
 5303SOL    HW116493   5.043   1.458   3.091
 5303SOL    HW216494   4.930   1.371   3.013
 5304SOL     OW16495   4.078   1.510   3.191
 5304SOL    HW116496   4.057   1.466   3.104
 5304SOL    HW216497   4.175   1.536   3.194
 5305SOL     OW16498   4.126   0.751   3.460
 5305SOL    HW116499   4.194   0.806   3.413
 5305SOL    HW216500   4.166   0.663   3.487
 5306SOL     OW16501   4.737   0.105   3.632
 5306SOL    HW116502   4.743   0.190   3.580
 5306SOL    HW216503   4.769   0.029   3.575
 5307SOL     OW16504   4.228   0.050   3.602
 5307SOL    HW116505   4.186  -0.007   3.532
 5307SOL    HW216506   4.162   0.119   3.634
 5308SOL     OW16507   4.297   0.870   2.891
 5308SOL    HW116508   4.341   0.959   2.882
 5308SOL    HW216509   4.234   0.870   2.968
 5309SOL     OW16510   5.084   0.862   2.907
 5309SOL    HW116511   5.009   0.862   2.841
 5309SOL    HW216512   5.121   0.770   2.916
 5310SOL     OW16513   4.933   0.525   2.137
 5310SOL    HW116514   4.946   0.441   2.191
 5310SOL    HW216515   4.904   0.599   2.197
 5311SOL     OW16516   4.031   0.213   3.093
 5311SOL    HW116517   4.008   0.250   3.183
 5311SOL    HW216518   4.001   0.118   3.087
 5312SOL     OW16519   3.761   1.310   3.144
 5312SOL    HW116520   3.814   1.261   3.212
 5312SOL    HW216521   3.783   1.408   3.149
 5313SOL     OW16522   4.456   0.634   2.926
 5313SOL    HW116523   4.515   0.608   2.850
 5313SOL    HW216524   4.428   0.730   2.915
 5314SOL     OW16525   4.031   0.063   2.480
 5314SOL    HW116526   4.020   0.157   2.513
 5314SOL    HW216527   4.026   0.000   2.557
 5315SOL     OW16528   5.346   0.367   2.236
 5315SOL    HW116529   5.348   0.291   2.300
 5315SOL    HW216530   5.298   0.444   2.276
 5316SOL     OW16531   4.747   0.766   2.828
 5316SOL    HW116532   4.762   0.787   2.924
 5316SOL    HW216533   4.717   0.671   2.819
 5317SOL     OW16534   4.704   1.573   3.562
 5317SOL    HW116535   4.684   1.617   3.474
 5317SOL    HW216536   4.743   1.482   3.546
 5318SOL     OW16537   4.074   0.898   3.666
 5318SOL    HW116538   4.150   0.942   3.714
 5318SOL    HW216539   4.109   0.851   3.584
 5319SOL     OW16540   5.027   0.838   1.904
 5319SOL    HW116541   5.061   0.745   1.919
 5319SOL    HW216542   5.045   0.865   1.809
 5320SOL     OW16543   4.792   1.333   2.711
 5320SOL    HW116544   4.799   1.249   2.656
 5320SOL    HW216545   4.854   1.402   2.675
 5321SOL     OW16546   4.043   0.810   2.811
 5321SOL    HW116547   4.136   0.846   2.816
 5321SOL    HW216548   4.037   0.725   2.863
 5322SOL     OW16549   4.063   0.509   2.868
 5322SOL    HW116550   4.011   0.426   2.851
 5322SOL    HW216551   4.140   0.514   2.804
 5323SOL     OW16552   4.862   0.380   3.540
 5323SOL    HW116553   4.817   0.443   3.604
 5323SOL    HW216554   4.955   0.411   3.523
 5324SOL     OW16555   4.884   0.207   3.339
 5324SOL    HW116556   4.884   0.271   3.416
 5324SOL    HW216557   4.912   0.255   3.256
 5325SOL     OW16558   3.732   1.326   2.062
 5325SOL    HW116559   3.639   1.347   2.031
 5325SOL    HW216560   3.742   1.227   2.075
 5326SOL     OW16561   3.812   1.801   2.789
 5326SOL    HW116562   3.770   1.715   2.762
 5326SOL    HW216563   3.906   1.804   2.755
 5327SOL     OW16564   4.228   1.568   2.772
 5327SOL    HW116565   4.294   1.642   2.781
 5327SOL    HW216566   4.272   1.489   2.730
 5328SOL     OW16567   4.726   0.796   3.100
 5328SOL    HW116568   4.767   0.764   3.186
 5328SOL    HW216569   4.630   0.769   3.097
 5329SOL     OW16570   3.764   0.544   2.976
 5329SOL    HW116571   3.849   0.511   2.935
 5329SOL    HW216572   3.777   0.559   3.074
 5330SOL     OW16573   3.913   0.520   3.584
 5330SOL    HW116574   3.972   0.480   3.514
 5330SOL    HW216575   3.855   0.591   3.543
 5331SOL     OW16576   5.093   0.950   3.522
 5331SOL    HW116577   5.132   1.039   3.542
 5331SOL    HW216578   5.103   0.930   3.425
 5332SOL     OW16579   4.539   0.572   2.187
 5332SOL    HW116580   4.546   0.483   2.141
 5332SOL    HW216581   4.445   0.606   2.179
 5333SOL     OW16582   3.976   1.564   3.606
 5333SOL    HW116583   3.946   1.621   3.682
 5333SOL    HW216584   3.969   1.467   3.632
 5334SOL     OW16585   4.395   0.464   3.131
 5334SOL    HW116586   4.361   0.375   3.101
 5334SOL    HW216587   4.421   0.518   3.051
 5335SOL     OW16588   4.654   1.678   3.327
 5335SOL    HW116589   4.630   1.660   3.232
 5335SOL    HW216590   4.684   1.772   3.337
 5336SOL     OW16591   4.197   0.500   2.053
 5336SOL    HW116592   4.258   0.580   2.057
 5336SOL    HW216593   4.102   0.531   2.060
 5337SOL     OW16594   3.883   1.137   3.328
 5337SOL    HW116595   3.905   1.076   3.404
 5337SOL    HW216596   3.893   1.088   3.242
 5338SOL     OW16597   5.071   1.059   3.096
 5338SOL    HW116598   5.095   0.996   3.022
 5338SOL    HW216599   4.981   1.099   3.078
 5339SOL     OW16600   5.026   0.855   2.171
 5339SOL    HW116601   4.940   0.824   2.213
 5339SOL    HW216602   5.022   0.841   2.072
 5340SOL     OW16603   4.976   1.731   2.990
 5340SOL    HW116604   5.060   1.736   2.936
 5340SOL    HW216605   4.953   1.635   3.008
 5341SOL     OW16606   3.807   1.258   2.884
 5341SOL    HW116607   3.802   1.257   2.984
 5341SOL    HW216608   3.724   1.217   2.846
 5342SOL     OW16609   4.412   1.662   3.578
 5342SOL    HW116610   4.356   1.743   3.587
 5342SOL    HW216611   4.464   1.666   3.492
 5343SOL     OW16612   5.112   1.573   2.339
 5343SOL    HW116613   5.179   1.585   2.265
 5343SOL    HW216614   5.072   1.662   2.362
 5344SOL     OW16615   3.854   1.794   3.713
 5344SOL    HW116616   3.813   1.720   3.766
 5344SOL    HW216617   3.918   1.845   3.771
 5345SOL     OW16618   5.004   0.927   2.534
 5345SOL    HW116619   5.064   0.846   2.536
 5345SOL    HW216620   5.044   0.996   2.474
 5346SOL     OW16621   4.554   1.273   3.284
 5346SOL    HW116622   4.549   1.306   3.379
 5346SOL    HW216623   4.468   1.292   3.238
 5347SOL     OW16624   4.396   1.616   2.016
 5347SOL    HW116625   4.405   1.626   1.917
 5347SOL    HW216626   4.356   1.527   2.037
 5348SOL     OW16627   3.987   0.326   2.582
 5348SOL    HW116628   3.908   0.377   2.548
 5348SOL    HW216629   3.978   0.311   2.680
 5349SOL     OW16630   4.918   1.612   1.893
 5349SOL    HW116631   4.924   1.519   1.930
 5349SOL    HW216632   4.859   1.612   1.813
 5350SOL     OW16633   4.546   1.002   3.234
 5350SOL    HW116634   4.586   1.001   3.142
 5350SOL    HW216635   4.556   1.094   3.274
 5351SOL     OW16636   4.640   0.910   2.153
 5351SOL    HW116637   4.703   0.948   2.085
 5351SOL    HW216638   4.680   0.827   2.192
 5352SOL     OW16639   4.096   1.288   3.352
 5352SOL    HW116640   4.083   1.381   3.318
 5352SOL    HW216641   4.012   1.236   3.339
 5353SOL     OW16642   4.763   1.098   2.558
 5353SOL    HW116643   4.693   1.051   2.612
 5353SOL    HW216644   4.822   1.030   2.515
 5354SOL     OW16645   4.738   0.236   2.833
 5354SOL    HW116646   4.730   0.200   2.740
 5354SOL    HW216647   4.736   0.160   2.898
 5355SOL     OW16648   4.314   1.487   2.353
 5355SOL    HW116649   4.356   1.429   2.283
 5355SOL    HW216650   4.270   1.566   2.309
 5356SOL     OW16651   3.979   1.348   2.152
 5356SOL    HW116652   3.883   1.349   2.125
 5356SOL    HW216653   3.991   1.401   2.236
 5357SOL     OW16654   3.829   1.013   3.588
 5357SOL    HW116655   3.752   0.980   3.642
 5357SOL    HW216656   3.914   0.983   3.630
 5358SOL     OW16657   4.396   0.203   3.351
 5358SOL    HW116658   4.486   0.187   3.311
 5358SOL    HW216659   4.404   0.208   3.450
 5359SOL     OW16660   3.799   0.345   1.895
 5359SOL    HW116661   3.707   0.317   1.866
 5359SOL    HW216662   3.830   0.422   1.839
 5360SOL     OW16663   5.164   0.856   3.260
 5360SOL    HW116664   5.107   0.908   3.197
 5360SOL    HW216665   5.260   0.868   3.236
 5361SOL     OW16666   3.796   0.166   2.180
 5361SOL    HW116667   3.779   0.249   2.126
 5361SOL    HW216668   3.886   0.129   2.158
 5362SOL     OW16669   4.907   1.335   1.981
 5362SOL    HW116670   4.808   1.324   1.983
 5362SOL    HW216671   4.941   1.350   2.074
 5363SOL     OW16672   4.337   0.842   3.293
 5363SOL    HW116673   4.393   0.923   3.276
 5363SOL    HW216674   4.396   0.762   3.296
 5364SOL     OW16675   4.440   0.565   3.570
 5364SOL    HW116676   4.459   0.630   3.644
 5364SOL    HW216677   4.500   0.485   3.579
 5365SOL     OW16678   5.174   1.220   3.495
 5365SOL    HW116679   5.165   1.210   3.594
 5365SOL    HW216680   5.270   1.213   3.469
 5366SOL     OW16681   4.114   1.741   3.422
 5366SOL    HW116682   4.023   1.782   3.420
 5366SOL    HW216683   4.107   1.647   3.454
 5367SOL     OW16684   4.949   0.325   2.311
 5367SOL    HW116685   5.014   0.251   2.300
 5367SOL    HW216686   4.969   0.375   2.395
 5368SOL     OW16687   4.318   0.745   2.514
 5368SOL    HW116688   4.368   0.830   2.495
 5368SOL    HW216689   4.230   0.747   2.466
 5369SOL     OW16690   4.583   1.374   1.878
 5369SOL    HW116691   4.537   1.389   1.966
 5369SOL    HW216692   4.627   1.459   1.848
 5370SOL     OW16693   4.385   1.790   2.815
 5370SOL    HW116694   4.339   1.878   2.802
 5370SOL    HW216695   4.484   1.802   2.808
 5371SOL     OW16696   4.583   0.956   2.723
 5371SOL    HW116697   4.637   0.887   2.771
 5371SOL    HW216698   4.551   1.025   2.789
 5372SOL     OW16699   4.807   0.984   1.949
 5372SOL    HW116700   4.784   1.037   1.867
 5372SOL    HW216701   4.888   0.928   1.930
 5373SOL     OW16702   3.945   1.314   3.706
 5373SOL    HW116703   3.880   1.241   3.685
 5373SOL    HW216704   3.949   1.328   3.804
 5374SOL     OW16705   3.803   1.240   2.515
 5374SOL    HW116706   3.802   1.193   2.603
 5374SOL    HW216707   3.885   1.212   2.464
 5375SOL     OW16708   4.396   1.391   3.486
 5375SOL    HW116709   4.318   1.341   3.524
 5375SOL    HW216710   4.393   1.486   3.517
 5376SOL     OW16711   4.152   0.424   2.382
 5376SOL    HW116712   4.182   0.352   2.320
 5376SOL    HW216713   4.113   0.384   2.465
 5377SOL     OW16714   5.429   1.487   2.966
 5377SOL    HW116715   5.336   1.462   2.939
 5377SOL    HW216716   5.455   1.437   3.048
 5378SOL     OW16717   4.041   0.547   3.142
 5378SOL    HW116718   4.079   0.488   3.214
 5378SOL    HW216719   4.081   0.521   3.054
 5379SOL     OW16720   4.536   1.586   2.549
 5379SOL    HW116721   4.568   1.596   2.455
 5379SOL    HW216722   4.457   1.524   2.551
 5380SOL     OW16723   5.148   0.214   2.974
 5380SOL    HW116724   5.200   0.149   3.029
 5380SOL    HW216725   5.099   0.277   3.035
 5381SOL     OW16726   4.725   0.034   3.016
 5381SOL    HW116727   4.662  -0.038   2.985
 5381SOL    HW216728   4.818  -0.002   3.016
 5382SOL     OW16729   4.494   1.330   2.163
 5382SOL    HW116730   4.448   1.243   2.180
 5382SOL    HW216731   4.585   1.327   2.204
 5383SOL     OW16732   4.342   1.567   3.146
 5383SOL    HW116733   4.337   1.649   3.203
 5383SOL    HW216734   4.431   1.564   3.101
 5384SOL     OW16735   5.076   0.052   2.030
 5384SOL    HW116736   5.111   0.011   1.946
 5384SOL    HW216737   4.986   0.014   2.050
 5385SOL     OW16738   5.024   0.453   2.553
 5385SOL    HW116739   4.965   0.533   2.557
 5385SOL    HW216740   5.039   0.418   2.646
 5386SOL     OW16741   5.317   0.221   2.744
 5386SOL    HW116742   5.233   0.220   2.798
 5386SOL    HW216743   5.319   0.304   2.688
 5387SOL     OW16744   3.763   1.077   2.162
 5387SOL    HW116745   3.862   1.066   2.153
 5387SOL    HW216746   3.723   0.991   2.194
 5388SOL     OW16747   4.599   1.646   2.199
 5388SOL    HW116748   4.522   1.611   2.145
 5388SOL    HW216749   4.567   1.717   2.261
 5389SOL     OW16750   3.954   0.628   3.837
 5389SOL    HW116751   3.861   0.626   3.874
 5389SOL    HW216752   3.955   0.589   3.745
 5390SOL     OW16753   3.949   0.275   4.720
 5390SOL    HW116754   3.984   0.258   4.812
 5390SOL    HW216755   3.861   0.230   4.708
 5391SOL     OW16756   3.743   0.368   4.371
 5391SOL    HW116757   3.661   0.411   4.410
 5391SOL    HW216758   3.715   0.295   4.308
 5392SOL     OW16759   4.293   1.275   4.889
 5392SOL    HW116760   4.200   1.268   4.852
 5392SOL    HW216761   4.304   1.364   4.933
 5393SOL     OW16762   5.279   1.511   4.427
 5393SOL    HW116763   5.222   1.495   4.508
 5393SOL    HW216764   5.220   1.521   4.347
 5394SOL     OW16765   4.859   0.703   4.441
 5394SOL    HW116766   4.916   0.781   4.416
 5394SOL    HW216767   4.799   0.729   4.517
 5395SOL     OW16768   4.492   1.144   4.747
 5395SOL    HW116769   4.414   1.161   4.807
 5395SOL    HW216770   4.526   1.231   4.711
 5396SOL     OW16771   4.574   0.798   5.547
 5396SOL    HW116772   4.570   0.874   5.612
 5396SOL    HW216773   4.596   0.834   5.456
 5397SOL     OW16774   4.409   1.012   4.389
 5397SOL    HW116775   4.478   0.996   4.459
 5397SOL    HW216776   4.336   1.069   4.427
 5398SOL     OW16777   4.410   1.161   5.527
 5398SOL    HW116778   4.470   1.240   5.541
 5398SOL    HW216779   4.324   1.192   5.486
 5399SOL     OW16780   4.059   1.435   4.785
 5399SOL    HW116781   3.981   1.404   4.732
 5399SOL    HW216782   4.117   1.493   4.728
 5400SOL     OW16783   5.184   1.505   5.063
 5400SOL    HW116784   5.208   1.599   5.089
 5400SOL    HW216785   5.168   1.451   5.145
 5401SOL     OW16786   4.162   0.392   5.223
 5401SOL    HW116787   4.244   0.336   5.232
 5401SOL    HW216788   4.081   0.334   5.227
 5402SOL     OW16789   3.955   1.713   4.207
 5402SOL    HW116790   3.989   1.790   4.261
 5402SOL    HW216791   3.999   1.713   4.117
 5403SOL     OW16792   4.851   1.341   5.414
 5403SOL    HW116793   4.898   1.341   5.502
 5403SOL    HW216794   4.803   1.254   5.403
 5404SOL     OW16795   3.954   1.434   4.262
 5404SOL    HW116796   3.928   1.530   4.262
 5404SOL    HW216797   3.883   1.380   4.307
 5405SOL     OW16798   3.964   1.091   4.610
 5405SOL    HW116799   3.978   1.007   4.662
 5405SOL    HW216800   3.909   1.155   4.665
 5406SOL     OW16801   4.344   1.786   5.163
 5406SOL    HW116802   4.252   1.769   5.198
 5406SOL    HW216803   4.372   1.878   5.189
 5407SOL     OW16804   4.330   0.964   3.847
 5407SOL    HW116805   4.337   1.048   3.793
 5407SOL    HW216806   4.376   0.977   3.935
 5408SOL     OW16807   5.318   0.114   5.204
 5408SOL    HW116808   5.300   0.181   5.132
 5408SOL    HW216809   5.315   0.160   5.293
 5409SOL     OW16810   3.846   0.643   4.287
 5409SOL    HW116811   3.801   0.555   4.304
 5409SOL    HW216812   3.845   0.697   4.371
 5410SOL     OW16813   3.751   1.596   3.841
 5410SOL    HW116814   3.732   1.500   3.862
 5410SOL    HW216815   3.718   1.654   3.916
 5411SOL     OW16816   5.413   0.922   4.336
 5411SOL    HW116817   5.508   0.893   4.344
 5411SOL    HW216818   5.405   0.987   4.261
 5412SOL     OW16819   3.837   0.737   5.321
 5412SOL    HW116820   3.925   0.724   5.366
 5412SOL    HW216821   3.824   0.834   5.299
 5413SOL     OW16822   4.337   1.365   4.450
 5413SOL    HW116823   4.288   1.278   4.459
 5413SOL    HW216824   4.314   1.408   4.363
 5414SOL     OW16825   5.017   1.228   5.147
 5414SOL    HW116826   5.054   1.155   5.089
 5414SOL    HW216827   5.069   1.233   5.232
 5415SOL     OW16828   4.533   0.004   4.226
 5415SOL    HW116829   4.573   0.095   4.217
 5415SOL    HW216830   4.433   0.012   4.232
 5416SOL     OW16831   3.921   0.976   4.988
 5416SOL    HW116832   4.010   0.931   4.974
 5416SOL    HW216833   3.848   0.911   4.969
 5417SOL     OW16834   4.911   1.792   5.340
 5417SOL    HW116835   4.935   1.852   5.264
 5417SOL    HW216836   4.918   1.697   5.310
 5418SOL     OW16837   4.041   0.251   5.525
 5418SOL    HW116838   4.112   0.322   5.531
 5418SOL    HW216839   3.953   0.290   5.553
 5419SOL     OW16840   5.190   1.417   4.677
 5419SOL    HW116841   5.131   1.423   4.757
 5419SOL    HW216842   5.175   1.329   4.631
 5420SOL     OW16843   4.322   0.729   3.994
 5420SOL    HW116844   4.346   0.798   3.926
 5420SOL    HW216845   4.244   0.762   4.048
 5421SOL     OW16846   5.005   0.345   4.668
 5421SOL    HW116847   4.919   0.295   4.655
 5421SOL    HW216848   5.067   0.291   4.724
 5422SOL     OW16849   4.531   0.605   5.189
 5422SOL    HW116850   4.484   0.602   5.278
 5422SOL    HW216851   4.480   0.550   5.123
 5423SOL     OW16852   5.118   0.469   5.398
 5423SOL    HW116853   5.098   0.512   5.486
 5423SOL    HW216854   5.196   0.407   5.407
 5424SOL     OW16855   4.697   0.890   5.296
 5424SOL    HW116856   4.743   0.806   5.267
 5424SOL    HW216857   4.641   0.924   5.221
 5425SOL     OW16858   4.715   0.410   4.966
 5425SOL    HW116859   4.638   0.444   5.020
 5425SOL    HW216860   4.681   0.359   4.887
 5426SOL     OW16861   4.765   0.701   4.153
 5426SOL    HW116862   4.791   0.697   4.249
 5426SOL    HW216863   4.680   0.650   4.139
 5427SOL     OW16864   3.800   0.811   4.513
 5427SOL    HW116865   3.899   0.799   4.522
 5427SOL    HW216866   3.776   0.906   4.534
 5428SOL     OW16867   3.854   1.821   5.295
 5428SOL    HW116868   3.844   1.806   5.394
 5428SOL    HW216869   3.768   1.857   5.259
 5429SOL     OW16870   4.589   0.348   3.919
 5429SOL    HW116871   4.648   0.411   3.870
 5429SOL    HW216872   4.608   0.254   3.890
 5430SOL     OW16873   5.086   1.144   4.269
 5430SOL    HW116874   5.169   1.115   4.221
 5430SOL    HW216875   5.037   1.211   4.213
 5431SOL     OW16876   4.274   0.196   4.609
 5431SOL    HW116877   4.269   0.191   4.709
 5431SOL    HW216878   4.276   0.292   4.580
 5432SOL     OW16879   4.732   1.456   4.201
 5432SOL    HW116880   4.686   1.528   4.149
 5432SOL    HW216881   4.728   1.476   4.299
 5433SOL     OW16882   4.075   1.801   4.577
 5433SOL    HW116883   4.125   1.715   4.583
 5433SOL    HW216884   4.140   1.878   4.574
 5434SOL     OW16885   4.951   1.550   5.230
 5434SOL    HW116886   4.957   1.473   5.294
 5434SOL    HW216887   4.899   1.524   5.150
 5435SOL     OW16888   4.045   0.943   3.966
 5435SOL    HW116889   4.127   0.982   3.924
 5435SOL    HW216890   4.018   0.861   3.917
 5436SOL     OW16891   4.185   1.266   5.451
 5436SOL    HW116892   4.135   1.267   5.365
 5436SOL    HW216893   4.122   1.248   5.527
 5437SOL     OW16894   4.835   1.776   3.961
 5437SOL    HW116895   4.775   1.714   4.011
 5437SOL    HW216896   4.866   1.732   3.876
 5438SOL     OW16897   3.926   0.285   5.222
 5438SOL    HW116898   3.846   0.345   5.209
 5438SOL    HW216899   3.916   0.236   5.308
 5439SOL     OW16900   4.188   1.743   4.047
 5439SOL    HW116901   4.221   1.782   4.133
 5439SOL    HW216902   4.264   1.736   3.982
 5440SOL     OW16903   5.124   0.107   4.150
 5440SOL    HW116904   5.100   0.070   4.060
 5440SOL    HW216905   5.223   0.123   4.154
 5441SOL     OW16906   3.973   1.785   4.965
 5441SOL    HW116907   4.030   1.720   5.015
 5441SOL    HW216908   3.957   1.752   4.872
 5442SOL     OW16909   4.664   1.698   4.628
 5442SOL    HW116910   4.744   1.641   4.649
 5442SOL    HW216911   4.615   1.658   4.551
 5443SOL     OW16912   4.106   0.700   4.204
 5443SOL    HW116913   4.151   0.610   4.201
 5443SOL    HW216914   4.012   0.689   4.237
 5444SOL     OW16915   4.338   0.122   3.841
 5444SOL    HW116916   4.436   0.100   3.848
 5444SOL    HW216917   4.307   0.105   3.748
 5445SOL     OW16918   4.505   0.264   5.473
 5445SOL    HW116919   4.572   0.203   5.516
 5445SOL    HW216920   4.432   0.283   5.538
 5446SOL     OW16921   4.612   1.514   4.919
 5446SOL    HW116922   4.589   1.489   4.825
 5446SOL    HW216923   4.673   1.445   4.958
 5447SOL     OW16924   5.075   0.590   5.157
 5447SOL    HW116925   5.103   0.547   5.242
 5447SOL    HW216926   5.100   0.686   5.158
 5448SOL     OW16927   4.527   1.402   4.648
 5448SOL    HW116928   4.617   1.416   4.606
 5448SOL    HW216929   4.456   1.404   4.577
 5449SOL     OW16930   4.646   0.503   4.623
 5449SOL    HW116931   4.621   0.494   4.527
 5449SOL    HW216932   4.694   0.421   4.654
 5450SOL     OW16933   4.263   0.064   4.236
 5450SOL    HW116934   4.182   0.065   4.294
 5450SOL    HW216935   4.266   0.147   4.181
 5451SOL     OW16936   5.158   1.188   3.765
 5451SOL    HW116937   5.190   1.112   3.822
 5451SOL    HW216938   5.066   1.215   3.795
 5452SOL     OW16939   4.021   0.035   3.895
 5452SOL    HW116940   4.070   0.119   3.874
 5452SOL    HW216941   4.083  -0.030   3.940
 5453SOL     OW16942   4.659   0.236   4.204
 5453SOL    HW116943   4.611   0.277   4.126
 5453SOL    HW216944   4.758   0.234   4.185
 5454SOL     OW16945   4.800   0.683   5.188
 5454SOL    HW116946   4.720   0.622   5.191
 5454SOL    HW216947   4.881   0.630   5.164
 5455SOL     OW16948   4.951   1.570   4.517
 5455SOL    HW116949   4.972   1.644   4.452
 5455SOL    HW216950   5.019   1.570   4.590
 5456SOL     OW16951   4.183   1.152   4.465
 5456SOL    HW116952   4.112   1.125   4.530
 5456SOL    HW216953   4.157   1.124   4.372
 5457SOL     OW16954   4.995   1.797   4.315
 5457SOL    HW116955   5.039   1.861   4.251
 5457SOL    HW216956   4.945   1.849   4.385
 5458SOL     OW16957   4.756   0.549   3.740
 5458SOL    HW116958   4.715   0.631   3.701
 5458SOL    HW216959   4.820   0.575   3.813
 5459SOL     OW16960   3.802   0.556   5.110
 5459SOL    HW116961   3.894   0.555   5.069
 5459SOL    HW216962   3.796   0.630   5.177
 5460SOL     OW16963   4.285   0.222   4.871
 5460SOL    HW116964   4.323   0.138   4.908
 5460SOL    HW216965   4.197   0.241   4.915
 5461SOL     OW16966   4.590   0.454   4.366
 5461SOL    HW116967   4.558   0.526   4.304
 5461SOL    HW216968   4.614   0.373   4.313
 5462SOL     OW16969   4.741   0.039   4.477
 5462SOL    HW116970   4.669   0.044   4.408
 5462SOL    HW216971   4.717  -0.030   4.546
 5463SOL     OW16972   5.153   1.173   4.591
 5463SOL    HW116973   5.098   1.089   4.584
 5463SOL    HW216974   5.179   1.202   4.499
 5464SOL     OW16975   4.212   1.385   3.898
 5464SOL    HW116976   4.125   1.370   3.945
 5464SOL    HW216977   4.195   1.411   3.803
 5465SOL     OW16978   5.114   0.575   3.802
 5465SOL    HW116979   5.060   0.554   3.883
 5465SOL    HW216980   5.205   0.534   3.811
 5466SOL     OW16981   4.251   0.256   4.052
 5466SOL    HW116982   4.278   0.197   3.977
 5466SOL    HW216983   4.251   0.351   4.021
 5467SOL     OW16984   4.788   1.347   5.064
 5467SOL    HW116985   4.708   1.324   5.119
 5467SOL    HW216986   4.871   1.321   5.113
 5468SOL     OW16987   5.316   1.629   5.349
 5468SOL    HW116988   5.343   1.663   5.259
 5468SOL    HW216989   5.395   1.591   5.395
 5469SOL     OW16990   4.835   1.195   4.824
 5469SOL    HW116991   4.795   1.239   4.905
 5469SOL    HW216992   4.794   1.232   4.741
 5470SOL     OW16993   4.639   0.089   5.126
 5470SOL    HW116994   4.664   0.069   5.031
 5470SOL    HW216995   4.711   0.145   5.168
 5471SOL     OW16996   4.704   1.116   5.443
 5471SOL    HW116997   4.605   1.122   5.453
 5471SOL    HW216998   4.727   1.036   5.387
 5472SOL     OW16999   4.429   1.050   4.092
 5472SOL    HW117000   4.415   1.057   4.191
 5472SOL    HW217001   4.513   0.999   4.074
 5473SOL     OW17002   4.134   0.813   4.975
 5473SOL    HW117003   4.220   0.825   5.025
 5473SOL    HW217004   4.092   0.726   5.002
 5474SOL     OW17005   4.998   0.386   4.986
 5474SOL    HW117006   5.019   0.460   5.050
 5474SOL    HW217007   4.909   0.403   4.943
 5475SOL     OW17008   3.788   1.564   5.055
 5475SOL    HW117009   3.742   1.646   5.021
 5475SOL    HW217010   3.886   1.583   5.064
 5476SOL     OW17011   4.091   1.100   4.225
 5476SOL    HW117012   4.084   1.183   4.169
 5476SOL    HW217013   4.095   1.020   4.165
 5477SOL     OW17014   4.290   0.537   4.589
 5477SOL    HW117015   4.302   0.603   4.515
 5477SOL    HW217016   4.336   0.571   4.672
 5478SOL     OW17017   4.976   1.348   4.112
 5478SOL    HW117018   5.026   1.425   4.152
 5478SOL    HW217019   4.881   1.350   4.144
 5479SOL     OW17020   4.996   1.445   4.866
 5479SOL    HW117021   5.043   1.458   4.953
 5479SOL    HW217022   4.930   1.371   4.875
 5480SOL     OW17023   4.078   1.510   5.053
 5480SOL    HW117024   4.057   1.466   4.966
 5480SOL    HW217025   4.175   1.536   5.056
 5481SOL     OW17026   4.126   0.751   5.322
 5481SOL    HW117027   4.194   0.806   5.275
 5481SOL    HW217028   4.166   0.663   5.349
 5482SOL     OW17029   4.737   0.105   5.494
 5482SOL    HW117030   4.743   0.190   5.442
 5482SOL    HW217031   4.769   0.029   5.437
 5483SOL     OW17032   4.228   0.050   5.464
 5483SOL    HW117033   4.186  -0.007   5.394
 5483SOL    HW217034   4.162   0.119   5.496
 5484SOL     OW17035   4.297   0.870   4.753
 5484SOL    HW117036   4.341   0.959   4.744
 5484SOL    HW217037   4.234   0.870   4.830
 5485SOL     OW17038   5.084   0.862   4.769
 5485SOL    HW117039   5.009   0.862   4.703
 5485SOL    HW217040   5.121   0.770   4.778
 5486SOL     OW17041   4.933   0.525   3.999
 5486SOL    HW117042   4.946   0.441   4.053
 5486SOL    HW217043   4.904   0.599   4.059
 5487SOL     OW17044   4.031   0.213   4.955
 5487SOL    HW117045   4.008   0.250   5.045
 5487SOL    HW217046   4.001   0.118   4.949
 5488SOL     OW17047   3.761   1.310   5.006
 5488SOL    HW117048   3.814   1.261   5.074
 5488SOL    HW217049   3.783   1.408   5.011
 5489SOL     OW17050   4.456   0.634   4.788
 5489SOL    HW117051   4.515   0.608   4.712
 5489SOL    HW217052   4.428   0.730   4.777
 5490SOL     OW17053   4.031   0.063   4.342
 5490SOL    HW117054   4.020   0.157   4.375
 5490SOL    HW217055   4.026   0.000   4.419
 5491SOL     OW17056   5.346   0.367   4.098
 5491SOL    HW117057   5.348   0.291   4.162
 5491SOL    HW217058   5.298   0.444   4.138
 5492SOL     OW17059   4.747   0.766   4.690
 5492SOL    HW117060   4.762   0.787   4.786
 5492SOL    HW217061   4.717   0.671   4.681
 5493SOL     OW17062   4.704   1.573   5.424
 5493SOL    HW117063   4.684   1.617   5.336
 5493SOL    HW217064   4.743   1.482   5.408
 5494SOL     OW17065   4.074   0.898   5.528
 5494SOL    HW117066   4.150   0.942   5.576
 5494SOL    HW217067   4.109   0.851   5.446
 5495SOL     OW17068   5.027   0.838   3.766
 5495SOL    HW117069   5.061   0.745   3.781
 5495SOL    HW217070   5.045   0.865   3.671
 5496SOL     OW17071   4.792   1.333   4.573
 5496SOL    HW117072   4.799   1.249   4.518
 5496SOL    HW217073   4.854   1.402   4.537
 5497SOL     OW17074   4.043   0.810   4.673
 5497SOL    HW117075   4.136   0.846   4.678
 5497SOL    HW217076   4.037   0.725   4.725
 5498SOL     OW17077   4.063   0.509   4.730
 5498SOL    HW117078   4.011   0.426   4.713
 5498SOL    HW217079   4.140   0.514   4.666
 5499SOL     OW17080   4.862   0.380   5.402
 5499SOL    HW117081   4.817   0.443   5.466
 5499SOL    HW217082   4.955   0.411   5.385
 5500SOL     OW17083   4.884   0.207   5.201
 5500SOL    HW117084   4.884   0.271   5.278
 5500SOL    HW217085   4.912   0.255   5.118
 5501SOL     OW17086   3.732   1.326   3.924
 5501SOL    HW117087   3.639   1.347   3.893
 5501SOL    HW217088   3.742   1.227   3.937
 5502SOL     OW17089   3.812   1.801   4.651
 5502SOL    HW117090   3.770   1.715   4.624
 5502SOL    HW217091   3.906   1.804   4.617
 5503SOL     OW17092   4.228   1.568   4.634
 5503SOL    HW117093   4.294   1.642   4.643
 5503SOL    HW217094   4.272   1.489   4.592
 5504SOL     OW17095   4.726   0.796   4.962
 5504SOL    HW117096   4.767   0.764   5.048
 5504SOL    HW217097   4.630   0.769   4.959
 5505SOL     OW17098   3.764   0.544   4.838
 5505SOL    HW117099   3.849   0.511   4.797
 5505SOL    HW217100   3.777   0.559   4.936
 5506SOL     OW17101   3.913   0.520   5.446
 5506SOL    HW117102   3.972   0.480   5.376
 5506SOL    HW217103   3.855   0.591   5.405
 5507SOL     OW17104   5.093   0.950   5.384
 5507SOL    HW117105   5.132   1.039   5.404
 5507SOL    HW217106   5.103   0.930   5.287
 5508SOL     OW17107   4.539   0.572   4.049
 5508SOL    HW117108   4.546   0.483   4.003
 5508SOL    HW217109   4.445   0.606   4.041
 5509SOL     OW17110   3.976   1.564   5.468
 5509SOL    HW117111   3.946   1.621   5.544
 5509SOL    HW217112   3.969   1.467   5.494
 5510SOL     OW17113   4.395   0.464   4.993
 5510SOL    HW117114   4.361   0.375   4.963
 5510SOL    HW217115   4.421   0.518   4.913
 5511SOL     OW17116   4.654   1.678   5.189
 5511SOL    HW117117   4.630   1.660   5.094
 5511SOL    HW217118   4.684   1.772   5.199
 5512SOL     OW17119   4.197   0.500   3.915
 5512SOL    HW117120   4.258   0.580   3.919
 5512SOL    HW217121   4.102   0.531   3.922
 5513SOL     OW17122   3.883   1.137   5.190
 5513SOL    HW117123   3.905   1.076   5.266
 5513SOL    HW217124   3.893   1.088   5.104
 5514SOL     OW17125   5.071   1.059   4.958
 5514SOL    HW117126   5.095   0.996   4.884
 5514SOL    HW217127   4.981   1.099   4.940
 5515SOL     OW17128   5.026   0.855   4.033
 5515SOL    HW117129   4.940   0.824   4.075
 5515SOL    HW217130   5.022   0.841   3.934
 5516SOL     OW17131   4.976   1.731   4.852
 5516SOL    HW117132   5.060   1.736   4.798
 5516SOL    HW217133   4.953   1.635   4.870
 5517SOL     OW17134   3.807   1.258   4.746
 5517SOL    HW117135   3.802   1.257   4.846
 5517SOL    HW217136   3.724   1.217   4.708
 5518SOL     OW17137   4.412   1.662   5.440
 5518SOL    HW117138   4.356   1.743   5.449
 5518SOL    HW217139   4.464   1.666   5.354
 5519SOL     OW17140   5.112   1.573   4.201
 5519SOL    HW117141   5.179   1.585   4.127
 5519SOL    HW217142   5.072   1.662   4.224
 5520SOL     OW17143   3.854   1.794   5.575
 5520SOL    HW117144   3.813   1.720   5.628
 5520SOL    HW217145   3.918   1.845   5.633
 5521SOL     OW17146   5.004   0.927   4.396
 5521SOL    HW117147   5.064   0.846   4.398
 5521SOL    HW217148   5.044   0.996   4.336
 5522SOL     OW17149   4.554   1.273   5.146
 5522SOL    HW117150   4.549   1.306   5.241
 5522SOL    HW217151   4.468   1.292   5.100
 5523SOL     OW17152   4.396   1.616   3.878
 5523SOL    HW117153   4.405   1.626   3.779
 5523SOL    HW217154   4.356   1.527   3.899
 5524SOL     OW17155   3.987   0.326   4.444
 5524SOL    HW117156   3.908   0.377   4.410
 5524SOL    HW217157   3.978   0.311   4.542
 5525SOL     OW17158   4.918   1.612   3.755
 5525SOL    HW117159   4.924   1.519   3.792
 5525SOL    HW217160   4.859   1.612   3.675
 5526SOL     OW17161   4.546   1.002   5.096
 5526SOL    HW117162   4.586   1.001   5.004
 5526SOL    HW217163   4.556   1.094   5.136
 5527SOL     OW17164   4.640   0.910   4.015
 5527SOL    HW117165   4.703   0.948   3.947
 5527SOL    HW217166   4.680   0.827   4.054
 5528SOL     OW17167   4.096   1.288   5.214
 5528SOL    HW117168   4.083   1.381   5.180
 5528SOL    HW217169   4.012   1.236   5.201
 5529SOL     OW17170   4.763   1.098   4.420
 5529SOL    HW117171   4.693   1.051   4.474
 5529SOL    HW217172   4.822   1.030   4.377
 5530SOL     OW17173   4.738   0.236   4.695
 5530SOL    HW117174   4.730   0.200   4.602
 5530SOL    HW217175   4.736   0.160   4.760
 5531SOL     OW17176   4.314   1.487   4.215
 5531SOL    HW117177   4.356   1.429   4.145
 5531SOL    HW217178   4.270   1.566   4.171
 5532SOL     OW17179   3.979   1.348   4.014
 5532SOL    HW117180   3.883   1.349   3.987
 5532SOL    HW217181   3.991   1.401   4.098
 5533SOL     OW17182   3.829   1.013   5.450
 5533SOL    HW117183   3.752   0.980   5.504
 5533SOL    HW217184   3.914   0.983   5.492
 5534SOL     OW17185   4.396   0.203   5.213
 5534SOL    HW117186   4.486   0.187   5.173
 5534SOL    HW217187   4.404   0.208   5.312
 5535SOL     OW17188   3.799   0.345   3.757
 5535SOL    HW117189   3.707   0.317   3.728
 5535SOL    HW217190   3.830   0.422   3.701
 5536SOL     OW17191   5.164   0.856   5.122
 5536SOL    HW117192   5.107   0.908   5.059
 5536SOL    HW217193   5.260   0.868   5.098
 5537SOL     OW17194   3.796   0.166   4.042
 5537SOL    HW117195   3.779   0.249   3.988
 5537SOL    HW217196   3.886   0.129   4.020
 5538SOL     OW17197   4.907   1.335   3.843
 5538SOL    HW117198   4.808   1.324   3.845
 5538SOL    HW217199   4.941   1.350   3.936
 5539SOL     OW17200   4.337   0.842   5.155
 5539SOL    HW117201   4.393   0.923   5.138
 5539SOL    HW217202   4.396   0.762   5.158
 5540SOL     OW17203   4.440   0.565   5.432
 5540SOL    HW117204   4.459   0.630   5.506
 5540SOL    HW217205   4.500   0.485   5.441
 5541SOL     OW17206   5.174   1.220   5.357
 5541SOL    HW117207   5.165   1.210   5.456
 5541SOL    HW217208   5.270   1.213   5.331
 5542SOL     OW17209   4.114   1.741   5.284
 5542SOL    HW117210   4.023   1.782   5.282
 5542SOL    HW217211   4.107   1.647   5.316
 5543SOL     OW17212   4.949   0.325   4.173
 5543SOL    HW117213   5.014   0.251   4.162
 5543SOL    HW217214   4.969   0.375   4.257
 5544SOL     OW17215   4.318   0.745   4.376
 5544SOL    HW117216   4.368   0.830   4.357
 5544SOL    HW217217   4.230   0.747   4.328
 5545SOL     OW17218   4.583   1.374   3.740
 5545SOL    HW117219   4.537   1.389   3.828
 5545SOL    HW217220   4.627   1.459   3.710
 5546SOL     OW17221   4.385   1.790   4.677
 5546SOL    HW117222   4.339   1.878   4.664
 5546SOL    HW217223   4.484   1.802   4.670
 5547SOL     OW17224   4.583   0.956   4.585
 5547SOL    HW117225   4.637   0.887   4.633
 5547SOL    HW217226   4.551   1.025   4.651
 5548SOL     OW17227   4.807   0.984   3.811
 5548SOL    HW117228   4.784   1.037   3.729
 5548SOL    HW217229   4.888   0.928   3.792
 5549SOL     OW17230   3.945   1.314   5.568
 5549SOL    HW117231   3.880   1.241   5.547
 5549SOL    HW217232   3.949   1.328   5.666
 5550SOL     OW17233   3.803   1.240   4.377
 5550SOL    HW117234   3.802   1.193   4.465
 5550SOL    HW217235   3.885   1.212   4.326
 5551SOL     OW17236   4.396   1.391   5.348
 5551SOL    HW117237   4.318   1.341   5.386
 5551SOL    HW217238   4.393   1.486   5.379
 5552SOL     OW17239   4.152   0.424   4.244
 5552SOL    HW117240   4.182   0.352   4.182
 5552SOL    HW217241   4.113   0.384   4.327
 5553SOL     OW17242   5.429   1.487   4.828
 5553SOL    HW117243   5.336   1.462   4.801
 5553SOL    HW217244   5.455   1.437   4.910
 5554SOL     OW17245   4.041   0.547   5.004
 5554SOL    HW117246   4.079   0.488   5.076
 5554SOL    HW217247   4.081   0.521   4.916
 5555SOL     OW17248   4.536   1.586   4.411
 5555SOL    HW117249   4.568   1.596   4.317
 5555SOL    HW217250   4.457   1.524   4.413
 5556SOL     OW17251   5.148   0.214   4.836
 5556SOL    HW117252   5.200   0.149   4.891
 5556SOL    HW217253   5.099   0.277   4.897
 5557SOL     OW17254   4.725   0.034   4.878
 5557SOL    HW117255   4.662  -0.038   4.847
 5557SOL    HW217256   4.818  -0.002   4.878
 5558SOL     OW17257   4.494   1.330   4.025
 5558SOL    HW117258   4.448   1.243   4.042
 5558SOL    HW217259   4.585   1.327   4.066
 5559SOL     OW17260   4.342   1.567   5.008
 5559SOL    HW117261   4.337   1.649   5.065
 5559SOL    HW217262   4.431   1.564   4.963
 5560SOL     OW17263   5.076   0.052   3.892
 5560SOL    HW117264   5.111   0.011   3.808
 5560SOL    HW217265   4.986   0.014   3.912
 5561SOL     OW17266   5.024   0.453   4.415
 5561SOL    HW117267   4.965   0.533   4.419
 5561SOL    HW217268   5.039   0.418   4.508
 5562SOL     OW17269   5.317   0.221   4.606
 5562SOL    HW117270   5.233   0.220   4.660
 5562SOL    HW217271   5.319   0.304   4.550
 5563SOL     OW17272   3.763   1.077   4.024
 5563SOL    HW117273   3.862   1.066   4.015
 5563SOL    HW217274   3.723   0.991   4.056
 5564SOL     OW17275   4.599   1.646   4.061
 5564SOL    HW117276   4.522   1.611   4.007
 5564SOL    HW217277   4.567   1.717   4.123
 5565SOL     OW17278   3.954   0.628   5.699
 5565SOL    HW117279   3.861   0.626   5.736
 5565SOL    HW217280   3.955   0.589   5.607
 5566SOL     OW17281   3.949   0.275   6.582
 5566SOL    HW117282   3.984   0.258   6.674
 5566SOL    HW217283   3.861   0.230   6.570
 5567SOL     OW17284   3.743   0.368   6.233
 5567SOL    HW117285   3.661   0.411   6.272
 5567SOL    HW217286   3.715   0.295   6.170
 5568SOL     OW17287   4.293   1.275   6.751
 5568SOL    HW117288   4.200   1.268   6.714
 5568SOL    HW217289   4.304   1.364   6.795
 5569SOL     OW17290   5.279   1.511   6.289
 5569SOL    HW117291   5.222   1.495   6.370
 5569SOL    HW217292   5.220   1.521   6.209
 5570SOL     OW17293   4.859   0.703   6.303
 5570SOL    HW117294   4.916   0.781   6.278
 5570SOL    HW217295   4.799   0.729   6.379
 5571SOL     OW17296   4.492   1.144   6.609
 5571SOL    HW117297   4.414   1.161   6.669
 5571SOL    HW217298   4.526   1.231   6.573
 5572SOL     OW17299   4.574   0.798   7.409
 5572SOL    HW117300   4.570   0.874   7.474
 5572SOL    HW217301   4.596   0.834   7.318
 5573SOL     OW17302   4.409   1.012   6.251
 5573SOL    HW117303   4.478   0.996   6.321
 5573SOL    HW217304   4.336   1.069   6.289
 5574SOL     OW17305   4.410   1.161   7.389
 5574SOL    HW117306   4.470   1.240   7.403
 5574SOL    HW217307   4.324   1.192   7.348
 5575SOL     OW17308   4.059   1.435   6.647
 5575SOL    HW117309   3.981   1.404   6.594
 5575SOL    HW217310   4.117   1.493   6.590
 5576SOL     OW17311   5.184   1.505   6.925
 5576SOL    HW117312   5.208   1.599   6.951
 5576SOL    HW217313   5.168   1.451   7.007
 5577SOL     OW17314   4.162   0.392   7.085
 5577SOL    HW117315   4.244   0.336   7.094
 5577SOL    HW217316   4.081   0.334   7.089
 5578SOL     OW17317   3.955   1.713   6.069
 5578SOL    HW117318   3.989   1.790   6.123
 5578SOL    HW217319   3.999   1.713   5.979
 5579SOL     OW17320   4.851   1.341   7.276
 5579SOL    HW117321   4.898   1.341   7.364
 5579SOL    HW217322   4.803   1.254   7.265
 5580SOL     OW17323   3.954   1.434   6.124
 5580SOL    HW117324   3.928   1.530   6.124
 5580SOL    HW217325   3.883   1.380   6.169
 5581SOL     OW17326   3.964   1.091   6.472
 5581SOL    HW117327   3.978   1.007   6.524
 5581SOL    HW217328   3.909   1.155   6.527
 5582SOL     OW17329   4.344   1.786   7.025
 5582SOL    HW117330   4.252   1.769   7.060
 5582SOL    HW217331   4.372   1.878   7.051
 5583SOL     OW17332   4.330   0.964   5.709
 5583SOL    HW117333   4.337   1.048   5.655
 5583SOL    HW217334   4.376   0.977   5.797
 5584SOL     OW17335   5.318   0.114   7.066
 5584SOL    HW117336   5.300   0.181   6.994
 5584SOL    HW217337   5.315   0.160   7.155
 5585SOL     OW17338   3.846   0.643   6.149
 5585SOL    HW117339   3.801   0.555   6.166
 5585SOL    HW217340   3.845   0.697   6.233
 5586SOL     OW17341   3.751   1.596   5.703
 5586SOL    HW117342   3.732   1.500   5.724
 5586SOL    HW217343   3.718   1.654   5.778
 5587SOL     OW17344   5.413   0.922   6.198
 5587SOL    HW117345   5.508   0.893   6.206
 5587SOL    HW217346   5.405   0.987   6.123
 5588SOL     OW17347   3.837   0.737   7.183
 5588SOL    HW117348   3.925   0.724   7.228
 5588SOL    HW217349   3.824   0.834   7.161
 5589SOL     OW17350   4.337   1.365   6.312
 5589SOL    HW117351   4.288   1.278   6.321
 5589SOL    HW217352   4.314   1.408   6.225
 5590SOL     OW17353   5.017   1.228   7.009
 5590SOL    HW117354   5.054   1.155   6.951
 5590SOL    HW217355   5.069   1.233   7.094
 5591SOL     OW17356   4.533   0.004   6.088
 5591SOL    HW117357   4.573   0.095   6.079
 5591SOL    HW217358   4.433   0.012   6.094
 5592SOL     OW17359   3.921   0.976   6.850
 5592SOL    HW117360   4.010   0.931   6.836
 5592SOL    HW217361   3.848   0.911   6.831
 5593SOL     OW17362   4.911   1.792   7.202
 5593SOL    HW117363   4.935   1.852   7.126
 5593SOL    HW217364   4.918   1.697   7.172
 5594SOL     OW17365   4.041   0.251   7.387
 5594SOL    HW117366   4.112   0.322   7.393
 5594SOL    HW217367   3.953   0.290   7.415
 5595SOL     OW17368   5.190   1.417   6.539
 5595SOL    HW117369   5.131   1.423   6.619
 5595SOL    HW217370   5.175   1.329   6.493
 5596SOL     OW17371   4.322   0.729   5.856
 5596SOL    HW117372   4.346   0.798   5.788
 5596SOL    HW217373   4.244   0.762   5.910
 5597SOL     OW17374   5.005   0.345   6.530
 5597SOL    HW117375   4.919   0.295   6.517
 5597SOL    HW217376   5.067   0.291   6.586
 5598SOL     OW17377   4.531   0.605   7.051
 5598SOL    HW117378   4.484   0.602   7.140
 5598SOL    HW217379   4.480   0.550   6.985
 5599SOL     OW17380   5.118   0.469   7.260
 5599SOL    HW117381   5.098   0.512   7.348
 5599SOL    HW217382   5.196   0.407   7.269
 5600SOL     OW17383   4.697   0.890   7.158
 5600SOL    HW117384   4.743   0.806   7.129
 5600SOL    HW217385   4.641   0.924   7.083
 5601SOL     OW17386   4.715   0.410   6.828
 5601SOL    HW117387   4.638   0.444   6.882
 5601SOL    HW217388   4.681   0.359   6.749
 5602SOL     OW17389   4.765   0.701   6.015
 5602SOL    HW117390   4.791   0.697   6.111
 5602SOL    HW217391   4.680   0.650   6.001
 5603SOL     OW17392   3.800   0.811   6.375
 5603SOL    HW117393   3.899   0.799   6.384
 5603SOL    HW217394   3.776   0.906   6.396
 5604SOL     OW17395   3.854   1.821   7.157
 5604SOL    HW117396   3.844   1.806   7.256
 5604SOL    HW217397   3.768   1.857   7.121
 5605SOL     OW17398   4.589   0.348   5.781
 5605SOL    HW117399   4.648   0.411   5.732
 5605SOL    HW217400   4.608   0.254   5.752
 5606SOL     OW17401   5.086   1.144   6.131
 5606SOL    HW117402   5.169   1.115   6.083
 5606SOL    HW217403   5.037   1.211   6.075
 5607SOL     OW17404   4.274   0.196   6.471
 5607SOL    HW117405   4.269   0.191   6.571
 5607SOL    HW217406   4.276   0.292   6.442
 5608SOL     OW17407   4.732   1.456   6.063
 5608SOL    HW117408   4.686   1.528   6.011
 5608SOL    HW217409   4.728   1.476   6.161
 5609SOL     OW17410   4.075   1.801   6.439
 5609SOL    HW117411   4.125   1.715   6.445
 5609SOL    HW217412   4.140   1.878   6.436
 5610SOL     OW17413   4.951   1.550   7.092
 5610SOL    HW117414   4.957   1.473   7.156
 5610SOL    HW217415   4.899   1.524   7.012
 5611SOL     OW17416   4.045   0.943   5.828
 5611SOL    HW117417   4.127   0.982   5.786
 5611SOL    HW217418   4.018   0.861   5.779
 5612SOL     OW17419   4.185   1.266   7.313
 5612SOL    HW117420   4.135   1.267   7.227
 5612SOL    HW217421   4.122   1.248   7.389
 5613SOL     OW17422   4.835   1.776   5.823
 5613SOL    HW117423   4.775   1.714   5.873
 5613SOL    HW217424   4.866   1.732   5.738
 5614SOL     OW17425   3.926   0.285   7.084
 5614SOL    HW117426   3.846   0.345   7.071
 5614SOL    HW217427   3.916   0.236   7.170
 5615SOL     OW17428   4.188   1.743   5.909
 5615SOL    HW117429   4.221   1.782   5.995
 5615SOL    HW217430   4.264   1.736   5.844
 5616SOL     OW17431   5.124   0.107   6.012
 5616SOL    HW117432   5.100   0.070   5.922
 5616SOL    HW217433   5.223   0.123   6.016
 5617SOL     OW17434   3.973   1.785   6.827
 5617SOL    HW117435   4.030   1.720   6.877
 5617SOL    HW217436   3.957   1.752   6.734
 5618SOL     OW17437   4.664   1.698   6.490
 5618SOL    HW117438   4.744   1.641   6.511
 5618SOL    HW217439   4.615   1.658   6.413
 5619SOL     OW17440   4.106   0.700   6.066
 5619SOL    HW117441   4.151   0.610   6.063
 5619SOL    HW217442   4.012   0.689   6.099
 5620SOL     OW17443   4.338   0.122   5.703
 5620SOL    HW117444   4.436   0.100   5.710
 5620SOL    HW217445   4.307   0.105   5.610
 5621SOL     OW17446   4.505   0.264   7.335
 5621SOL    HW117447   4.572   0.203   7.378
 5621SOL    HW217448   4.432   0.283   7.400
 5622SOL     OW17449   4.612   1.514   6.781
 5622SOL    HW117450   4.589   1.489   6.687
 5622SOL    HW217451   4.673   1.445   6.820
 5623SOL     OW17452   5.075   0.590   7.019
 5623SOL    HW117453   5.103   0.547   7.104
 5623SOL    HW217454   5.100   0.686   7.020
 5624SOL     OW17455   4.527   1.402   6.510
 5624SOL    HW117456   4.617   1.416   6.468
 5624SOL    HW217457   4.456   1.404   6.439
 5625SOL     OW17458   4.646   0.503   6.485
 5625SOL    HW117459   4.621   0.494   6.389
 5625SOL    HW217460   4.694   0.421   6.516
 5626SOL     OW17461   4.263   0.064   6.098
 5626SOL    HW117462   4.182   0.065   6.156
 5626SOL    HW217463   4.266   0.147   6.043
 5627SOL     OW17464   5.158   1.188   5.627
 5627SOL    HW117465   5.190   1.112   5.684
 5627SOL    HW217466   5.066   1.215   5.657
 5628SOL     OW17467   4.021   0.035   5.757
 5628SOL    HW117468   4.070   0.119   5.736
 5628SOL    HW217469   4.083  -0.030   5.802
 5629SOL     OW17470   4.659   0.236   6.066
 5629SOL    HW117471   4.611   0.277   5.988
 5629SOL    HW217472   4.758   0.234   6.047
 5630SOL     OW17473   4.800   0.683   7.050
 5630SOL    HW117474   4.720   0.622   7.053
 5630SOL    HW217475   4.881   0.630   7.026
 5631SOL     OW17476   4.951   1.570   6.379
 5631SOL    HW117477   4.972   1.644   6.314
 5631SOL    HW217478   5.019   1.570   6.452
 5632SOL     OW17479   4.183   1.152   6.327
 5632SOL    HW117480   4.112   1.125   6.392
 5632SOL    HW217481   4.157   1.124   6.234
 5633SOL     OW17482   4.995   1.797   6.177
 5633SOL    HW117483   5.039   1.861   6.113
 5633SOL    HW217484   4.945   1.849   6.247
 5634SOL     OW17485   4.756   0.549   5.602
 5634SOL    HW117486   4.715   0.631   5.563
 5634SOL    HW217487   4.820   0.575   5.675
 5635SOL     OW17488   3.802   0.556   6.972
 5635SOL    HW117489   3.894   0.555   6.931
 5635SOL    HW217490   3.796   0.630   7.039
 5636SOL     OW17491   4.285   0.222   6.733
 5636SOL    HW117492   4.323   0.138   6.770
 5636SOL    HW217493   4.197   0.241   6.777
 5637SOL     OW17494   4.590   0.454   6.228
 5637SOL    HW117495   4.558   0.526   6.166
 5637SOL    HW217496   4.614   0.373   6.175
 5638SOL     OW17497   4.741   0.039   6.339
 5638SOL    HW117498   4.669   0.044   6.270
 5638SOL    HW217499   4.717  -0.030   6.408
 5639SOL     OW17500   5.153   1.173   6.453
 5639SOL    HW117501   5.098   1.089   6.446
 5639SOL    HW217502   5.179   1.202   6.361
 5640SOL     OW17503   4.212   1.385   5.760
 5640SOL    HW117504   4.125   1.370   5.807
 5640SOL    HW217505   4.195   1.411   5.665
 5641SOL     OW17506   5.114   0.575   5.664
 5641SOL    HW117507   5.060   0.554   5.745
 5641SOL    HW217508   5.205   0.534   5.673
 5642SOL     OW17509   4.251   0.256   5.914
 5642SOL    HW117510   4.278   0.197   5.839
 5642SOL    HW217511   4.251   0.351   5.883
 5643SOL     OW17512   4.788   1.347   6.926
 5643SOL    HW117513   4.708   1.324   6.981
 5643SOL    HW217514   4.871   1.321   6.975
 5644SOL     OW17515   5.316   1.629   7.211
 5644SOL    HW117516   5.343   1.663   7.121
 5644SOL    HW217517   5.395   1.591   7.257
 5645SOL     OW17518   4.835   1.195   6.686
 5645SOL    HW117519   4.795   1.239   6.767
 5645SOL    HW217520   4.794   1.232   6.603
 5646SOL     OW17521   4.639   0.089   6.988
 5646SOL    HW117522   4.664   0.069   6.893
 5646SOL    HW217523   4.711   0.145   7.030
 5647SOL     OW17524   4.704   1.116   7.305
 5647SOL    HW117525   4.605   1.122   7.315
 5647SOL    HW217526   4.727   1.036   7.249
 5648SOL     OW17527   4.429   1.050   5.954
 5648SOL    HW117528   4.415   1.057   6.053
 5648SOL    HW217529   4.513   0.999   5.936
 5649SOL     OW17530   4.134   0.813   6.837
 5649SOL    HW117531   4.220   0.825   6.887
 5649SOL    HW217532   4.092   0.726   6.864
 5650SOL     OW17533   4.998   0.386   6.848
 5650SOL    HW117534   5.019   0.460   6.912
 5650SOL    HW217535   4.909   0.403   6.805
 5651SOL     OW17536   3.788   1.564   6.917
 5651SOL    HW117537   3.742   1.646   6.883
 5651SOL    HW217538   3.886   1.583   6.926
 5652SOL     OW17539   4.091   1.100   6.087
 5652SOL    HW117540   4.084   1.183   6.031
 5652SOL    HW217541   4.095   1.020   6.027
 5653SOL     OW17542   4.290   0.537   6.451
 5653SOL    HW117543   4.302   0.603   6.377
 5653SOL    HW217544   4.336   0.571   6.534
 5654SOL     OW17545   4.976   1.348   5.974
 5654SOL    HW117546   5.026   1.425   6.014
 5654SOL    HW217547   4.881   1.350   6.006
 5655SOL     OW17548   4.996   1.445   6.728
 5655SOL    HW117549   5.043   1.458   6.815
 5655SOL    HW217550   4.930   1.371   6.737
 5656SOL     OW17551   4.078   1.510   6.915
 5656SOL    HW117552   4.057   1.466   6.828
 5656SOL    HW217553   4.175   1.536   6.918
 5657SOL     OW17554   4.126   0.751   7.184
 5657SOL    HW117555   4.194   0.806   7.137
 5657SOL    HW217556   4.166   0.663   7.211
 5658SOL     OW17557   4.737   0.105   7.356
 5658SOL    HW117558   4.743   0.190   7.304
 5658SOL    HW217559   4.769   0.029   7.299
 5659SOL     OW17560   4.228   0.050   7.326
 5659SOL    HW117561   4.186  -0.007   7.256
 5659SOL    HW217562   4.162   0.119   7.358
 5660SOL     OW17563   4.297   0.870   6.615
 5660SOL    HW117564   4.341   0.959   6.606
 5660SOL    HW217565   4.234   0.870   6.692
 5661SOL     OW17566   5.084   0.862   6.631
 5661SOL    HW117567   5.009   0.862   6.565
 5661SOL    HW217568   5.121   0.770   6.640
 5662SOL     OW17569   4.933   0.525   5.861
 5662SOL    HW117570   4.946   0.441   5.915
 5662SOL    HW217571   4.904   0.599   5.921
 5663SOL     OW17572   4.031   0.213   6.817
 5663SOL    HW117573   4.008   0.250   6.907
 5663SOL    HW217574   4.001   0.118   6.811
 5664SOL     OW17575   3.761   1.310   6.868
 5664SOL    HW117576   3.814   1.261   6.936
 5664SOL    HW217577   3.783   1.408   6.873
 5665SOL     OW17578   4.456   0.634   6.650
 5665SOL    HW117579   4.515   0.608   6.574
 5665SOL    HW217580   4.428   0.730   6.639
 5666SOL     OW17581   4.031   0.063   6.204
 5666SOL    HW117582   4.020   0.157   6.237
 5666SOL    HW217583   4.026   0.000   6.281
 5667SOL     OW17584   5.346   0.367   5.960
 5667SOL    HW117585   5.348   0.291   6.024
 5667SOL    HW217586   5.298   0.444   6.000
 5668SOL     OW17587   4.747   0.766   6.552
 5668SOL    HW117588   4.762   0.787   6.648
 5668SOL    HW217589   4.717   0.671   6.543
 5669SOL     OW17590   4.704   1.573   7.286
 5669SOL    HW117591   4.684   1.617   7.198
 5669SOL    HW217592   4.743   1.482   7.270
 5670SOL     OW17593   4.074   0.898   7.390
 5670SOL    HW117594   4.150   0.942   7.438
 5670SOL    HW217595   4.109   0.851   7.308
 5671SOL     OW17596   5.027   0.838   5.628
 5671SOL    HW117597   5.061   0.745   5.643
 5671SOL    HW217598   5.045   0.865   5.533
 5672SOL     OW17599   4.792   1.333   6.435
 5672SOL    HW117600   4.799   1.249   6.380
 5672SOL    HW217601   4.854   1.402   6.399
 5673SOL     OW17602   4.043   0.810   6.535
 5673SOL    HW117603   4.136   0.846   6.540
 5673SOL    HW217604   4.037   0.725   6.587
 5674SOL     OW17605   4.063   0.509   6.592
 5674SOL    HW117606   4.011   0.426   6.575
 5674SOL    HW217607   4.140   0.514   6.528
 5675SOL     OW17608   4.862   0.380   7.264
 5675SOL    HW117609   4.817   0.443   7.328
 5675SOL    HW217610   4.955   0.411   7.247
 5676SOL     OW17611   4.884   0.207   7.063
 5676SOL    HW117612   4.884   0.271   7.140
 5676SOL    HW217613   4.912   0.255   6.980
 5677SOL     OW17614   3.732   1.326   5.786
 5677SOL    HW117615   3.639   1.347   5.755
 5677SOL    HW217616   3.742   1.227   5.799
 5678SOL     OW17617   3.812   1.801   6.513
 5678SOL    HW117618   3.770   1.715   6.486
 5678SOL    HW217619   3.906   1.804   6.479
 5679SOL     OW17620   4.228   1.568   6.496
 5679SOL    HW117621   4.294   1.642   6.505
 5679SOL    HW217622   4.272   1.489   6.454
 5680SOL     OW17623   4.726   0.796   6.824
 5680SOL    HW117624   4.767   0.764   6.910
 5680SOL    HW217625   4.630   0.769   6.821
 5681SOL     OW17626   3.764   0.544   6.700
 5681SOL    HW117627   3.849   0.511   6.659
 5681SOL    HW217628   3.777   0.559   6.798
 5682SOL     OW17629   3.913   0.520   7.308
 5682SOL    HW117630   3.972   0.480   7.238
 5682SOL    HW217631   3.855   0.591   7.267
 5683SOL     OW17632   5.093   0.950   7.246
 5683SOL    HW117633   5.132   1.039   7.266
 5683SOL    HW217634   5.103   0.930   7.149
 5684SOL     OW17635   4.539   0.572   5.911
 5684SOL    HW117636   4.546   0.483   5.865
 5684SOL    HW217637   4.445   0.606   5.903
 5685SOL     OW17638   3.976   1.564   7.330
 5685SOL    HW117639   3.946   1.621   7.406
 5685SOL    HW217640   3.969   1.467   7.356
 5686SOL     OW17641   4.395   0.464   6.855
 5686SOL    HW117642   4.361   0.375   6.825
 5686SOL    HW217643   4.421   0.518   6.775
 5687SOL     OW17644   4.654   1.678   7.051
 5687SOL    HW117645   4.630   1.660   6.956
 5687SOL    HW217646   4.684   1.772   7.061
 5688SOL     OW17647   4.197   0.500   5.777
 5688SOL    HW117648   4.258   0.580   5.781
 5688SOL    HW217649   4.102   0.531   5.784
 5689SOL     OW17650   3.883   1.137   7.052
 5689SOL    HW117651   3.905   1.076   7.128
 5689SOL    HW217652   3.893   1.088   6.966
 5690SOL     OW17653   5.071   1.059   6.820
 5690SOL    HW117654   5.095   0.996   6.746
 5690SOL    HW217655   4.981   1.099   6.802
 5691SOL     OW17656   5.026   0.855   5.895
 5691SOL    HW117657   4.940   0.824   5.937
 5691SOL    HW217658   5.022   0.841   5.796
 5692SOL     OW17659   4.976   1.731   6.714
 5692SOL    HW117660   5.060   1.736   6.660
 5692SOL    HW217661   4.953   1.635   6.732
 5693SOL     OW17662   3.807   1.258   6.608
 5693SOL    HW117663   3.802   1.257   6.708
 5693SOL    HW217664   3.724   1.217   6.570
 5694SOL     OW17665   4.412   1.662   7.302
 5694SOL    HW117666   4.356   1.743   7.311
 5694SOL    HW217667   4.464   1.666   7.216
 5695SOL     OW17668   5.112   1.573   6.063
 5695SOL    HW117669   5.179   1.585   5.989
 5695SOL    HW217670   5.072   1.662   6.086
 5696SOL     OW17671   3.854   1.794   7.437
 5696SOL    HW117672   3.813   1.720   7.490
 5696SOL    HW217673   3.918   1.845   7.495
 5697SOL     OW17674   5.004   0.927   6.258
 5697SOL    HW117675   5.064   0.846   6.260
 5697SOL    HW217676   5.044   0.996   6.198
 5698SOL     OW17677   4.554   1.273   7.008
 5698SOL    HW117678   4.549   1.306   7.103
 5698SOL    HW217679   4.468   1.292   6.962
 5699SOL     OW17680   4.396   1.616   5.740
 5699SOL    HW117681   4.405   1.626   5.641
 5699SOL    HW217682   4.356   1.527   5.761
 5700SOL     OW17683   3.987   0.326   6.306
 5700SOL    HW117684   3.908   0.377   6.272
 5700SOL    HW217685   3.978   0.311   6.404
 5701SOL     OW17686   4.918   1.612   5.617
 5701SOL    HW117687   4.924   1.519   5.654
 5701SOL    HW217688   4.859   1.612   5.537
 5702SOL     OW17689   4.546   1.002   6.958
 5702SOL    HW117690   4.586   1.001   6.866
 5702SOL    HW217691   4.556   1.094   6.998
 5703SOL     OW17692   4.640   0.910   5.877
 5703SOL    HW117693   4.703   0.948   5.809
 5703SOL    HW217694   4.680   0.827   5.916
 5704SOL     OW17695   4.096   1.288   7.076
 5704SOL    HW117696   4.083   1.381   7.042
 5704SOL    HW217697   4.012   1.236   7.063
 5705SOL     OW17698   4.763   1.098   6.282
 5705SOL    HW117699   4.693   1.051   6.336
 5705SOL    HW217700   4.822   1.030   6.239
 5706SOL     OW17701   4.738   0.236   6.557
 5706SOL    HW117702   4.730   0.200   6.464
 5706SOL    HW217703   4.736   0.160   6.622
 5707SOL     OW17704   4.314   1.487   6.077
 5707SOL    HW117705   4.356   1.429   6.007
 5707SOL    HW217706   4.270   1.566   6.033
 5708SOL     OW17707   3.979   1.348   5.876
 5708SOL    HW117708   3.883   1.349   5.849
 5708SOL    HW217709   3.991   1.401   5.960
 5709SOL     OW17710   3.829   1.013   7.312
 5709SOL    HW117711   3.752   0.980   7.366
 5709SOL    HW217712   3.914   0.983   7.354
 5710SOL     OW17713   4.396   0.203   7.075
 5710SOL    HW117714   4.486   0.187   7.035
 5710SOL    HW217715   4.404   0.208   7.174
 5711SOL     OW17716   3.799   0.345   5.619
 5711SOL    HW117717   3.707   0.317   5.590
 5711SOL    HW217718   3.830   0.422   5.563
 5712SOL     OW17719   5.164   0.856   6.984
 5712SOL    HW117720   5.107   0.908   6.921
 5712SOL    HW217721   5.260   0.868   6.960
 5713SOL     OW17722   3.796   0.166   5.904
 5713SOL    HW117723   3.779   0.249   5.850
 5713SOL    HW217724   3.886   0.129   5.882
 5714SOL     OW17725   4.907   1.335   5.705
 5714SOL    HW117726   4.808   1.324   5.707
 5714SOL    HW217727   4.941   1.350   5.798
 5715SOL     OW17728   4.337   0.842   7.017
 5715SOL    HW117729   4.393   0.923   7.000
 5715SOL    HW217730   4.396   0.762   7.020
 5716SOL     OW17731   4.440   0.565   7.294
 5716SOL    HW117732   4.459   0.630   7.368
 5716SOL    HW217733   4.500   0.485   7.303
 5717SOL     OW17734   5.174   1.220   7.219
 5717SOL    HW117735   5.165   1.210   7.318
 5717SOL    HW217736   5.270   1.213   7.193
 5718SOL     OW17737   4.114   1.741   7.146
 5718SOL    HW117738   4.023   1.782   7.144
 5718SOL    HW217739   4.107   1.647   7.178
 5719SOL     OW17740   4.949   0.325   6.035
 5719SOL    HW117741   5.014   0.251   6.024
 5719SOL    HW217742   4.969   0.375   6.119
 5720SOL     OW17743   4.318   0.745   6.238
 5720SOL    HW117744   4.368   0.830   6.219
 5720SOL    HW217745   4.230   0.747   6.190
 5721SOL     OW17746   4.583   1.374   5.602
 5721SOL    HW117747   4.537   1.389   5.690
 5721SOL    HW217748   4.627   1.459   5.572
 5722SOL     OW17749   4.385   1.790   6.539
 5722SOL    HW117750   4.339   1.878   6.526
 5722SOL    HW217751   4.484   1.802   6.532
 5723SOL     OW17752   4.583   0.956   6.447
 5723SOL    HW117753   4.637   0.887   6.495
 5723SOL    HW217754   4.551   1.025   6.513
 5724SOL     OW17755   4.807   0.984   5.673
 5724SOL    HW117756   4.784   1.037   5.591
 5724SOL    HW217757   4.888   0.928   5.654
 5725SOL     OW17758   3.945   1.314   7.430
 5725SOL    HW117759   3.880   1.241   7.409
 5725SOL    HW217760   3.949   1.328   7.528
 5726SOL     OW17761   3.803   1.240   6.239
 5726SOL    HW117762   3.802   1.193   6.327
 5726SOL    HW217763   3.885   1.212   6.188
 5727SOL     OW17764   4.396   1.391   7.210
 5727SOL    HW117765   4.318   1.341   7.248
 5727SOL    HW217766   4.393   1.486   7.241
 5728SOL     OW17767   4.152   0.424   6.106
 5728SOL    HW117768   4.182   0.352   6.044
 5728SOL    HW217769   4.113   0.384   6.189
 5729SOL     OW17770   5.429   1.487   6.690
 5729SOL    HW117771   5.336   1.462   6.663
 5729SOL    HW217772   5.455   1.437   6.772
 5730SOL     OW17773   4.041   0.547   6.866
 5730SOL    HW117774   4.079   0.488   6.938
 5730SOL    HW217775   4.081   0.521   6.778
 5731SOL     OW17776   4.536   1.586   6.273
 5731SOL    HW117777   4.568   1.596   6.179
 5731SOL    HW217778   4.457   1.524   6.275
 5732SOL     OW17779   5.148   0.214   6.698
 5732SOL    HW117780   5.200   0.149   6.753
 5732SOL    HW217781   5.099   0.277   6.759
 5733SOL     OW17782   4.725   0.034   6.740
 5733SOL    HW117783   4.662  -0.038   6.709
 5733SOL    HW217784   4.818  -0.002   6.740
 5734SOL     OW17785   4.494   1.330   5.887
 5734SOL    HW117786   4.448   1.243   5.904
 5734SOL    HW217787   4.585   1.327   5.928
 5735SOL     OW17788   4.342   1.567   6.870
 5735SOL    HW117789   4.337   1.649   6.927
 5735SOL    HW217790   4.431   1.564   6.825
 5736SOL     OW17791   5.076   0.052   5.754
 5736SOL    HW117792   5.111   0.011   5.670
 5736SOL    HW217793   4.986   0.014   5.774
 5737SOL     OW17794   5.024   0.453   6.277
 5737SOL    HW117795   4.965   0.533   6.281
 5737SOL    HW217796   5.039   0.418   6.370
 5738SOL     OW17797   5.317   0.221   6.468
 5738SOL    HW117798   5.233   0.220   6.522
 5738SOL    HW217799   5.319   0.304   6.412
 5739SOL     OW17800   3.763   1.077   5.886
 5739SOL    HW117801   3.862   1.066   5.877
 5739SOL    HW217802   3.723   0.991   5.918
 5740SOL     OW17803   4.599   1.646   5.923
 5740SOL    HW117804   4.522   1.611   5.869
 5740SOL    HW217805   4.567   1.717   5.985
 5741SOL     OW17806   3.954   0.628   7.561
 5741SOL    HW117807   3.861   0.626   7.598
 5741SOL    HW217808   3.955   0.589   7.469
 5742SOL     OW17809   3.955   1.713   7.931
 5742SOL    HW117810   3.989   1.790   7.985
 5742SOL    HW217811   3.999   1.713   7.841
 5743SOL     OW17812   3.954   1.434   7.986
 5743SOL    HW117813   3.928   1.530   7.986
 5743SOL    HW217814   3.883   1.380   8.031
 5744SOL     OW17815   4.330   0.964   7.571
 5744SOL    HW117816   4.337   1.048   7.517
 5744SOL    HW217817   4.376   0.977   7.659
 5745SOL     OW17818   3.751   1.596   7.565
 5745SOL    HW117819   3.732   1.500   7.586
 5745SOL    HW217820   3.718   1.654   7.640
 5746SOL     OW17821   5.413   0.922   8.060
 5746SOL    HW117822   5.508   0.893   8.068
 5746SOL    HW217823   5.405   0.987   7.985
 5747SOL     OW17824   4.533   0.004   7.950
 5747SOL    HW117825   4.573   0.095   7.941
 5747SOL    HW217826   4.433   0.012   7.956
 5748SOL     OW17827   4.322   0.729   7.718
 5748SOL    HW117828   4.346   0.798   7.650
 5748SOL    HW217829   4.244   0.762   7.772
 5749SOL     OW17830   3.800   0.811   8.237
 5749SOL    HW117831   3.899   0.799   8.246
 5749SOL    HW217832   3.776   0.906   8.258
 5750SOL     OW17833   4.589   0.348   7.643
 5750SOL    HW117834   4.648   0.411   7.594
 5750SOL    HW217835   4.608   0.254   7.614
 5751SOL     OW17836   4.045   0.943   7.690
 5751SOL    HW117837   4.127   0.982   7.648
 5751SOL    HW217838   4.018   0.861   7.641
 5752SOL     OW17839   4.835   1.776   7.685
 5752SOL    HW117840   4.775   1.714   7.735
 5752SOL    HW217841   4.866   1.732   7.600
 5753SOL     OW17842   4.188   1.743   7.771
 5753SOL    HW117843   4.221   1.782   7.857
 5753SOL    HW217844   4.264   1.736   7.706
 5754SOL     OW17845   5.124   0.107   7.874
 5754SOL    HW117846   5.100   0.070   7.784
 5754SOL    HW217847   5.223   0.123   7.878
 5755SOL     OW17848   4.106   0.700   7.928
 5755SOL    HW117849   4.151   0.610   7.925
 5755SOL    HW217850   4.012   0.689   7.961
 5756SOL     OW17851   4.338   0.122   7.565
 5756SOL    HW117852   4.436   0.100   7.572
 5756SOL    HW217853   4.307   0.105   7.472
 5757SOL     OW17854   4.263   0.064   7.960
 5757SOL    HW117855   4.182   0.065   8.018
 5757SOL    HW217856   4.266   0.147   7.905
 5758SOL     OW17857   5.158   1.188   7.489
 5758SOL    HW117858   5.190   1.112   7.546
 5758SOL    HW217859   5.066   1.215   7.519
 5759SOL     OW17860   4.021   0.035   7.619
 5759SOL    HW117861   4.070   0.119   7.598
 5759SOL    HW217862   4.083  -0.030   7.664
 5760SOL     OW17863   4.659   0.236   7.928
 5760SOL    HW117864   4.611   0.277   7.850
 5760SOL    HW217865   4.758   0.234   7.909
 5761SOL     OW17866   4.183   1.152   8.189
 5761SOL    HW117867   4.112   1.125   8.254
 5761SOL    HW217868   4.157   1.124   8.096
 5762SOL     OW17869   4.995   1.797   8.039
 5762SOL    HW117870   5.039   1.861   7.975
 5762SOL    HW217871   4.945   1.849   8.109
 5763SOL     OW17872   4.756   0.549   7.464
 5763SOL    HW117873   4.715   0.631   7.425
 5763SOL    HW217874   4.820   0.575   7.537
 5764SOL     OW17875   4.212   1.385   7.622
 5764SOL    HW117876   4.125   1.370   7.669
 5764SOL    HW217877   4.195   1.411   7.527
 5765SOL     OW17878   5.114   0.575   7.526
 5765SOL    HW117879   5.060   0.554   7.607
 5765SOL    HW217880   5.205   0.534   7.535
 5766SOL     OW17881   4.251   0.256   7.776
 5766SOL    HW117882   4.278   0.197   7.701
 5766SOL    HW217883   4.251   0.351   7.745
 5767SOL     OW17884   4.429   1.050   7.816
 5767SOL    HW117885   4.415   1.057   7.915
 5767SOL    HW217886   4.513   0.999   7.798
 5768SOL     OW17887   4.091   1.100   7.949
 5768SOL    HW117888   4.084   1.183   7.893
 5768SOL    HW217889   4.095   1.020   7.889
 5769SOL     OW17890   4.976   1.348   7.836
 5769SOL    HW117891   5.026   1.425   7.876
 5769SOL    HW217892   4.881   1.350   7.868
 5770SOL     OW17893   5.306   0.639   7.920
 5770SOL    HW117894   5.275   0.700   7.993
 5770SOL    HW217895   5.356   0.691   7.851
 5771SOL     OW17896   4.933   0.525   7.723
 5771SOL    HW117897   4.946   0.441   7.777
 5771SOL    HW217898   4.904   0.599   7.783
 5772SOL     OW17899   5.346   0.367   7.822
 5772SOL    HW117900   5.348   0.291   7.886
 5772SOL    HW217901   5.298   0.444   7.862
 5773SOL     OW17902   5.027   0.838   7.490
 5773SOL    HW117903   5.061   0.745   7.505
 5773SOL    HW217904   5.045   0.865   7.395
 5774SOL     OW17905   3.732   1.326   7.648
 5774SOL    HW117906   3.639   1.347   7.617
 5774SOL    HW217907   3.742   1.227   7.661
 5775SOL     OW17908   4.539   0.572   7.773
 5775SOL    HW117909   4.546   0.483   7.727
 5775SOL    HW217910   4.445   0.606   7.765
 5776SOL     OW17911   4.197   0.500   7.639
 5776SOL    HW117912   4.258   0.580   7.643
 5776SOL    HW217913   4.102   0.531   7.646
 5777SOL     OW17914   5.026   0.855   7.757
 5777SOL    HW117915   4.940   0.824   7.799
 5777SOL    HW217916   5.022   0.841   7.658
 5778SOL     OW17917   5.112   1.573   7.925
 5778SOL    HW117918   5.179   1.585   7.851
 5778SOL    HW217919   5.072   1.662   7.948
 5779SOL     OW17920   4.396   1.616   7.602
 5779SOL    HW117921   4.405   1.626   7.503
 5779SOL    HW217922   4.356   1.527   7.623
 5780SOL     OW17923   4.918   1.612   7.479
 5780SOL    HW117924   4.924   1.519   7.516
 5780SOL    HW217925   4.859   1.612   7.399
 5781SOL     OW17926   4.640   0.910   7.739
 5781SOL    HW117927   4.703   0.948   7.671
 5781SOL    HW217928   4.680   0.827   7.778
 5782SOL     OW17929   4.314   1.487   7.939
 5782SOL    HW117930   4.356   1.429   7.869
 5782SOL    HW217931   4.270   1.566   7.895
 5783SOL     OW17932   3.979   1.348   7.738
 5783SOL    HW117933   3.883   1.349   7.711
 5783SOL    HW217934   3.991   1.401   7.822
 5784SOL     OW17935   3.799   0.345   7.481
 5784SOL    HW117936   3.707   0.317   7.452
 5784SOL    HW217937   3.830   0.422   7.425
 5785SOL     OW17938   3.796   0.166   7.766
 5785SOL    HW117939   3.779   0.249   7.712
 5785SOL    HW217940   3.886   0.129   7.744
 5786SOL     OW17941   4.907   1.335   7.567
 5786SOL    HW117942   4.808   1.324   7.569
 5786SOL    HW217943   4.941   1.350   7.660
 5787SOL     OW17944   5.217   1.767   8.407
 5787SOL    HW117945   5.250   1.831   8.338
 5787SOL    HW217946   5.283   1.761   8.482
 5788SOL     OW17947   4.949   0.325   7.897
 5788SOL    HW117948   5.014   0.251   7.886
 5788SOL    HW217949   4.969   0.375   7.981
 5789SOL     OW17950   4.318   0.745   8.100
 5789SOL    HW117951   4.368   0.830   8.081
 5789SOL    HW217952   4.230   0.747   8.052
 5790SOL     OW17953   4.583   1.374   7.464
 5790SOL    HW117954   4.537   1.389   7.552
 5790SOL    HW217955   4.627   1.459   7.434
 5791SOL     OW17956   4.807   0.984   7.535
 5791SOL    HW117957   4.784   1.037   7.453
 5791SOL    HW217958   4.888   0.928   7.516
 5792SOL     OW17959   4.152   0.424   7.968
 5792SOL    HW117960   4.182   0.352   7.906
 5792SOL    HW217961   4.113   0.384   8.051
 5793SOL     OW17962   4.494   1.330   7.749
 5793SOL    HW117963   4.448   1.243   7.766
 5793SOL    HW217964   4.585   1.327   7.790
 5794SOL     OW17965   5.076   0.052   7.616
 5794SOL    HW117966   5.111   0.011   7.532
 5794SOL    HW217967   4.986   0.014   7.636
 5795SOL     OW17968   3.763   1.077   7.748
 5795SOL    HW117969   3.862   1.066   7.739
 5795SOL    HW217970   3.723   0.991   7.780
 5796SOL     OW17971   4.599   1.646   7.785
 5796SOL    HW117972   4.522   1.611   7.731
 5796SOL    HW217973   4.567   1.717   7.847
 5797SOL     OW17974   3.954   2.490   0.113
 5797SOL    HW117975   3.861   2.488   0.150
 5797SOL    HW217976   3.955   2.451   0.021
 5798SOL     OW17977   3.949   2.137   0.996
 5798SOL    HW117978   3.984   2.120   1.088
 5798SOL    HW217979   3.861   2.092   0.984
 5799SOL     OW17980   3.743   2.230   0.647
 5799SOL    HW117981   3.661   2.273   0.686
 5799SOL    HW217982   3.715   2.157   0.584
 5800SOL     OW17983   4.293   3.137   1.165
 5800SOL    HW117984   4.200   3.130   1.128
 5800SOL    HW217985   4.304   3.226   1.209
 5801SOL     OW17986   5.279   3.373   0.703
 5801SOL    HW117987   5.222   3.357   0.784
 5801SOL    HW217988   5.220   3.383   0.623
 5802SOL     OW17989   4.859   2.565   0.717
 5802SOL    HW117990   4.916   2.643   0.692
 5802SOL    HW217991   4.799   2.591   0.793
 5803SOL     OW17992   4.492   3.006   1.023
 5803SOL    HW117993   4.414   3.023   1.083
 5803SOL    HW217994   4.526   3.093   0.987
 5804SOL     OW17995   4.574   2.660   1.823
 5804SOL    HW117996   4.570   2.736   1.888
 5804SOL    HW217997   4.596   2.696   1.732
 5805SOL     OW17998   4.409   2.874   0.665
 5805SOL    HW117999   4.478   2.858   0.735
 5805SOL    HW218000   4.336   2.931   0.703
 5806SOL     OW18001   4.410   3.023   1.803
 5806SOL    HW118002   4.470   3.102   1.817
 5806SOL    HW218003   4.324   3.054   1.762
 5807SOL     OW18004   4.059   3.297   1.061
 5807SOL    HW118005   3.981   3.266   1.008
 5807SOL    HW218006   4.117   3.355   1.004
 5808SOL     OW18007   5.184   3.367   1.339
 5808SOL    HW118008   5.208   3.461   1.365
 5808SOL    HW218009   5.168   3.313   1.421
 5809SOL     OW18010   4.162   2.254   1.499
 5809SOL    HW118011   4.244   2.198   1.508
 5809SOL    HW218012   4.081   2.196   1.503
 5810SOL     OW18013   3.955   3.575   0.483
 5810SOL    HW118014   3.989   3.652   0.537
 5810SOL    HW218015   3.999   3.575   0.393
 5811SOL     OW18016   4.851   3.203   1.690
 5811SOL    HW118017   4.898   3.203   1.778
 5811SOL    HW218018   4.803   3.116   1.679
 5812SOL     OW18019   3.954   3.296   0.538
 5812SOL    HW118020   3.928   3.392   0.538
 5812SOL    HW218021   3.883   3.242   0.583
 5813SOL     OW18022   3.964   2.953   0.886
 5813SOL    HW118023   3.978   2.869   0.938
 5813SOL    HW218024   3.909   3.017   0.941
 5814SOL     OW18025   4.344   3.648   1.439
 5814SOL    HW118026   4.252   3.631   1.474
 5814SOL    HW218027   4.372   3.740   1.465
 5815SOL     OW18028   4.330   2.826   0.123
 5815SOL    HW118029   4.337   2.910   0.069
 5815SOL    HW218030   4.376   2.839   0.211
 5816SOL     OW18031   3.846   2.505   0.563
 5816SOL    HW118032   3.801   2.417   0.580
 5816SOL    HW218033   3.845   2.559   0.647
 5817SOL     OW18034   3.751   3.458   0.117
 5817SOL    HW118035   3.732   3.362   0.138
 5817SOL    HW218036   3.718   3.516   0.192
 5818SOL     OW18037   5.413   2.784   0.612
 5818SOL    HW118038   5.508   2.755   0.620
 5818SOL    HW218039   5.405   2.849   0.537
 5819SOL     OW18040   3.837   2.599   1.597
 5819SOL    HW118041   3.925   2.586   1.642
 5819SOL    HW218042   3.824   2.696   1.575
 5820SOL     OW18043   4.337   3.227   0.726
 5820SOL    HW118044   4.288   3.140   0.735
 5820SOL    HW218045   4.314   3.270   0.639
 5821SOL     OW18046   5.017   3.090   1.423
 5821SOL    HW118047   5.054   3.017   1.365
 5821SOL    HW218048   5.069   3.095   1.508
 5822SOL     OW18049   4.533   1.866   0.502
 5822SOL    HW118050   4.573   1.957   0.493
 5822SOL    HW218051   4.433   1.874   0.508
 5823SOL     OW18052   3.921   2.838   1.264
 5823SOL    HW118053   4.010   2.793   1.250
 5823SOL    HW218054   3.848   2.773   1.245
 5824SOL     OW18055   4.911   3.654   1.616
 5824SOL    HW118056   4.935   3.714   1.540
 5824SOL    HW218057   4.918   3.559   1.586
 5825SOL     OW18058   4.041   2.113   1.801
 5825SOL    HW118059   4.112   2.184   1.807
 5825SOL    HW218060   3.953   2.152   1.829
 5826SOL     OW18061   5.190   3.279   0.953
 5826SOL    HW118062   5.131   3.285   1.033
 5826SOL    HW218063   5.175   3.191   0.907
 5827SOL     OW18064   4.322   2.591   0.270
 5827SOL    HW118065   4.346   2.660   0.202
 5827SOL    HW218066   4.244   2.624   0.324
 5828SOL     OW18067   5.005   2.207   0.944
 5828SOL    HW118068   4.919   2.157   0.931
 5828SOL    HW218069   5.067   2.153   1.000
 5829SOL     OW18070   4.531   2.467   1.465
 5829SOL    HW118071   4.484   2.464   1.554
 5829SOL    HW218072   4.480   2.412   1.399
 5830SOL     OW18073   5.118   2.331   1.674
 5830SOL    HW118074   5.098   2.374   1.762
 5830SOL    HW218075   5.196   2.269   1.683
 5831SOL     OW18076   4.697   2.752   1.572
 5831SOL    HW118077   4.743   2.668   1.543
 5831SOL    HW218078   4.641   2.786   1.497
 5832SOL     OW18079   4.715   2.272   1.242
 5832SOL    HW118080   4.638   2.306   1.296
 5832SOL    HW218081   4.681   2.221   1.163
 5833SOL     OW18082   4.765   2.563   0.429
 5833SOL    HW118083   4.791   2.559   0.525
 5833SOL    HW218084   4.680   2.512   0.415
 5834SOL     OW18085   3.800   2.673   0.789
 5834SOL    HW118086   3.899   2.661   0.798
 5834SOL    HW218087   3.776   2.768   0.810
 5835SOL     OW18088   3.854   3.683   1.571
 5835SOL    HW118089   3.844   3.668   1.670
 5835SOL    HW218090   3.768   3.719   1.535
 5836SOL     OW18091   4.589   2.210   0.195
 5836SOL    HW118092   4.648   2.273   0.146
 5836SOL    HW218093   4.608   2.116   0.166
 5837SOL     OW18094   5.086   3.006   0.545
 5837SOL    HW118095   5.169   2.977   0.497
 5837SOL    HW218096   5.037   3.073   0.489
 5838SOL     OW18097   4.274   2.058   0.885
 5838SOL    HW118098   4.269   2.053   0.985
 5838SOL    HW218099   4.276   2.154   0.856
 5839SOL     OW18100   4.732   3.318   0.477
 5839SOL    HW118101   4.686   3.390   0.425
 5839SOL    HW218102   4.728   3.338   0.575
 5840SOL     OW18103   4.075   3.663   0.853
 5840SOL    HW118104   4.125   3.577   0.859
 5840SOL    HW218105   4.140   3.740   0.850
 5841SOL     OW18106   4.951   3.412   1.506
 5841SOL    HW118107   4.957   3.335   1.570
 5841SOL    HW218108   4.899   3.386   1.426
 5842SOL     OW18109   4.045   2.805   0.242
 5842SOL    HW118110   4.127   2.844   0.200
 5842SOL    HW218111   4.018   2.723   0.193
 5843SOL     OW18112   4.185   3.128   1.727
 5843SOL    HW118113   4.135   3.129   1.641
 5843SOL    HW218114   4.122   3.110   1.803
 5844SOL     OW18115   4.835   3.638   0.237
 5844SOL    HW118116   4.775   3.576   0.287
 5844SOL    HW218117   4.866   3.594   0.152
 5845SOL     OW18118   3.926   2.147   1.498
 5845SOL    HW118119   3.846   2.207   1.485
 5845SOL    HW218120   3.916   2.098   1.584
 5846SOL     OW18121   4.188   3.605   0.323
 5846SOL    HW118122   4.221   3.644   0.409
 5846SOL    HW218123   4.264   3.598   0.258
 5847SOL     OW18124   5.124   1.969   0.426
 5847SOL    HW118125   5.100   1.932   0.336
 5847SOL    HW218126   5.223   1.985   0.430
 5848SOL     OW18127   3.973   3.647   1.241
 5848SOL    HW118128   4.030   3.582   1.291
 5848SOL    HW218129   3.957   3.614   1.148
 5849SOL     OW18130   4.664   3.560   0.904
 5849SOL    HW118131   4.744   3.503   0.925
 5849SOL    HW218132   4.615   3.520   0.827
 5850SOL     OW18133   4.106   2.562   0.480
 5850SOL    HW118134   4.151   2.472   0.477
 5850SOL    HW218135   4.012   2.551   0.513
 5851SOL     OW18136   4.338   1.984   0.117
 5851SOL    HW118137   4.436   1.962   0.124
 5851SOL    HW218138   4.307   1.967   0.024
 5852SOL     OW18139   4.505   2.126   1.749
 5852SOL    HW118140   4.572   2.065   1.792
 5852SOL    HW218141   4.432   2.145   1.814
 5853SOL     OW18142   4.612   3.376   1.195
 5853SOL    HW118143   4.589   3.351   1.101
 5853SOL    HW218144   4.673   3.307   1.234
 5854SOL     OW18145   5.075   2.452   1.433
 5854SOL    HW118146   5.103   2.409   1.518
 5854SOL    HW218147   5.100   2.548   1.434
 5855SOL     OW18148   4.527   3.264   0.924
 5855SOL    HW118149   4.617   3.278   0.882
 5855SOL    HW218150   4.456   3.266   0.853
 5856SOL     OW18151   4.646   2.365   0.899
 5856SOL    HW118152   4.621   2.356   0.803
 5856SOL    HW218153   4.694   2.283   0.930
 5857SOL     OW18154   4.263   1.926   0.512
 5857SOL    HW118155   4.182   1.927   0.570
 5857SOL    HW218156   4.266   2.009   0.457
 5858SOL     OW18157   5.158   3.050   0.041
 5858SOL    HW118158   5.190   2.974   0.098
 5858SOL    HW218159   5.066   3.077   0.071
 5859SOL     OW18160   4.021   1.897   0.171
 5859SOL    HW118161   4.070   1.981   0.150
 5859SOL    HW218162   4.083   1.832   0.216
 5860SOL     OW18163   4.659   2.098   0.480
 5860SOL    HW118164   4.611   2.139   0.402
 5860SOL    HW218165   4.758   2.096   0.461
 5861SOL     OW18166   4.800   2.545   1.464
 5861SOL    HW118167   4.720   2.484   1.467
 5861SOL    HW218168   4.881   2.492   1.440
 5862SOL     OW18169   4.951   3.432   0.793
 5862SOL    HW118170   4.972   3.506   0.728
 5862SOL    HW218171   5.019   3.432   0.866
 5863SOL     OW18172   4.183   3.014   0.741
 5863SOL    HW118173   4.112   2.987   0.806
 5863SOL    HW218174   4.157   2.986   0.648
 5864SOL     OW18175   4.995   3.659   0.591
 5864SOL    HW118176   5.039   3.723   0.527
 5864SOL    HW218177   4.945   3.711   0.661
 5865SOL     OW18178   4.756   2.411   0.016
 5865SOL    HW118179   4.715   2.493  -0.023
 5865SOL    HW218180   4.820   2.437   0.089
 5866SOL     OW18181   3.802   2.418   1.386
 5866SOL    HW118182   3.894   2.417   1.345
 5866SOL    HW218183   3.796   2.492   1.453
 5867SOL     OW18184   4.285   2.084   1.147
 5867SOL    HW118185   4.323   2.000   1.184
 5867SOL    HW218186   4.197   2.103   1.191
 5868SOL     OW18187   4.590   2.316   0.642
 5868SOL    HW118188   4.558   2.388   0.580
 5868SOL    HW218189   4.614   2.235   0.589
 5869SOL     OW18190   4.741   1.901   0.753
 5869SOL    HW118191   4.669   1.906   0.684
 5869SOL    HW218192   4.717   1.832   0.822
 5870SOL     OW18193   5.153   3.035   0.867
 5870SOL    HW118194   5.098   2.951   0.860
 5870SOL    HW218195   5.179   3.064   0.775
 5871SOL     OW18196   4.212   3.247   0.174
 5871SOL    HW118197   4.125   3.232   0.221
 5871SOL    HW218198   4.195   3.273   0.079
 5872SOL     OW18199   5.114   2.437   0.078
 5872SOL    HW118200   5.060   2.416   0.159
 5872SOL    HW218201   5.205   2.396   0.087
 5873SOL     OW18202   4.251   2.118   0.328
 5873SOL    HW118203   4.278   2.059   0.253
 5873SOL    HW218204   4.251   2.213   0.297
 5874SOL     OW18205   4.788   3.209   1.340
 5874SOL    HW118206   4.708   3.186   1.395
 5874SOL    HW218207   4.871   3.183   1.389
 5875SOL     OW18208   5.316   3.491   1.625
 5875SOL    HW118209   5.343   3.525   1.535
 5875SOL    HW218210   5.395   3.453   1.671
 5876SOL     OW18211   4.835   3.057   1.100
 5876SOL    HW118212   4.795   3.101   1.181
 5876SOL    HW218213   4.794   3.094   1.017
 5877SOL     OW18214   4.639   1.951   1.402
 5877SOL    HW118215   4.664   1.931   1.307
 5877SOL    HW218216   4.711   2.007   1.444
 5878SOL     OW18217   4.704   2.978   1.719
 5878SOL    HW118218   4.605   2.984   1.729
 5878SOL    HW218219   4.727   2.898   1.663
 5879SOL     OW18220   4.429   2.912   0.368
 5879SOL    HW118221   4.415   2.919   0.467
 5879SOL    HW218222   4.513   2.861   0.350
 5880SOL     OW18223   4.134   2.675   1.251
 5880SOL    HW118224   4.220   2.687   1.301
 5880SOL    HW218225   4.092   2.588   1.278
 5881SOL     OW18226   4.998   2.248   1.262
 5881SOL    HW118227   5.019   2.322   1.326
 5881SOL    HW218228   4.909   2.265   1.219
 5882SOL     OW18229   3.788   3.426   1.331
 5882SOL    HW118230   3.742   3.508   1.297
 5882SOL    HW218231   3.886   3.445   1.340
 5883SOL     OW18232   4.091   2.962   0.501
 5883SOL    HW118233   4.084   3.045   0.445
 5883SOL    HW218234   4.095   2.882   0.441
 5884SOL     OW18235   4.290   2.399   0.865
 5884SOL    HW118236   4.302   2.465   0.791
 5884SOL    HW218237   4.336   2.433   0.948
 5885SOL     OW18238   4.976   3.210   0.388
 5885SOL    HW118239   5.026   3.287   0.428
 5885SOL    HW218240   4.881   3.212   0.420
 5886SOL     OW18241   4.996   3.307   1.142
 5886SOL    HW118242   5.043   3.320   1.229
 5886SOL    HW218243   4.930   3.233   1.151
 5887SOL     OW18244   4.078   3.372   1.329
 5887SOL    HW118245   4.057   3.328   1.242
 5887SOL    HW218246   4.175   3.398   1.332
 5888SOL     OW18247   4.126   2.613   1.598
 5888SOL    HW118248   4.194   2.668   1.551
 5888SOL    HW218249   4.166   2.525   1.625
 5889SOL     OW18250   4.737   1.967   1.770
 5889SOL    HW118251   4.743   2.052   1.718
 5889SOL    HW218252   4.769   1.891   1.713
 5890SOL     OW18253   4.228   1.912   1.740
 5890SOL    HW118254   4.186   1.855   1.670
 5890SOL    HW218255   4.162   1.981   1.772
 5891SOL     OW18256   4.297   2.732   1.029
 5891SOL    HW118257   4.341   2.821   1.020
 5891SOL    HW218258   4.234   2.732   1.106
 5892SOL     OW18259   5.084   2.724   1.045
 5892SOL    HW118260   5.009   2.724   0.979
 5892SOL    HW218261   5.121   2.632   1.054
 5893SOL     OW18262   4.933   2.387   0.275
 5893SOL    HW118263   4.946   2.303   0.329
 5893SOL    HW218264   4.904   2.461   0.335
 5894SOL     OW18265   4.031   2.075   1.231
 5894SOL    HW118266   4.008   2.112   1.321
 5894SOL    HW218267   4.001   1.980   1.225
 5895SOL     OW18268   3.761   3.172   1.282
 5895SOL    HW118269   3.814   3.123   1.350
 5895SOL    HW218270   3.783   3.270   1.287
 5896SOL     OW18271   4.456   2.496   1.064
 5896SOL    HW118272   4.515   2.470   0.988
 5896SOL    HW218273   4.428   2.592   1.053
 5897SOL     OW18274   4.031   1.925   0.618
 5897SOL    HW118275   4.020   2.019   0.651
 5897SOL    HW218276   4.026   1.862   0.695
 5898SOL     OW18277   5.346   2.229   0.374
 5898SOL    HW118278   5.348   2.153   0.438
 5898SOL    HW218279   5.298   2.306   0.414
 5899SOL     OW18280   4.747   2.628   0.966
 5899SOL    HW118281   4.762   2.649   1.062
 5899SOL    HW218282   4.717   2.533   0.957
 5900SOL     OW18283   4.704   3.435   1.700
 5900SOL    HW118284   4.684   3.479   1.612
 5900SOL    HW218285   4.743   3.344   1.684
 5901SOL     OW18286   4.074   2.760   1.804
 5901SOL    HW118287   4.150   2.804   1.852
 5901SOL    HW218288   4.109   2.713   1.722
 5902SOL     OW18289   5.027   2.700   0.042
 5902SOL    HW118290   5.061   2.607   0.057
 5902SOL    HW218291   5.045   2.727  -0.053
 5903SOL     OW18292   4.792   3.195   0.849
 5903SOL    HW118293   4.799   3.111   0.794
 5903SOL    HW218294   4.854   3.264   0.813
 5904SOL     OW18295   4.043   2.672   0.949
 5904SOL    HW118296   4.136   2.708   0.954
 5904SOL    HW218297   4.037   2.587   1.001
 5905SOL     OW18298   4.063   2.371   1.006
 5905SOL    HW118299   4.011   2.288   0.989
 5905SOL    HW218300   4.140   2.376   0.942
 5906SOL     OW18301   4.862   2.242   1.678
 5906SOL    HW118302   4.817   2.305   1.742
 5906SOL    HW218303   4.955   2.273   1.661
 5907SOL     OW18304   4.884   2.069   1.477
 5907SOL    HW118305   4.884   2.133   1.554
 5907SOL    HW218306   4.912   2.117   1.394
 5908SOL     OW18307   3.732   3.188   0.200
 5908SOL    HW118308   3.639   3.209   0.169
 5908SOL    HW218309   3.742   3.089   0.213
 5909SOL     OW18310   3.812   3.663   0.927
 5909SOL    HW118311   3.770   3.577   0.900
 5909SOL    HW218312   3.906   3.666   0.893
 5910SOL     OW18313   4.228   3.430   0.910
 5910SOL    HW118314   4.294   3.504   0.919
 5910SOL    HW218315   4.272   3.351   0.868
 5911SOL     OW18316   4.726   2.658   1.238
 5911SOL    HW118317   4.767   2.626   1.324
 5911SOL    HW218318   4.630   2.631   1.235
 5912SOL     OW18319   3.764   2.406   1.114
 5912SOL    HW118320   3.849   2.373   1.073
 5912SOL    HW218321   3.777   2.421   1.212
 5913SOL     OW18322   3.913   2.382   1.722
 5913SOL    HW118323   3.972   2.342   1.652
 5913SOL    HW218324   3.855   2.453   1.681
 5914SOL     OW18325   5.093   2.812   1.660
 5914SOL    HW118326   5.132   2.901   1.680
 5914SOL    HW218327   5.103   2.792   1.563
 5915SOL     OW18328   4.539   2.434   0.325
 5915SOL    HW118329   4.546   2.345   0.279
 5915SOL    HW218330   4.445   2.468   0.317
 5916SOL     OW18331   3.976   3.426   1.744
 5916SOL    HW118332   3.946   3.483   1.820
 5916SOL    HW218333   3.969   3.329   1.770
 5917SOL     OW18334   4.395   2.326   1.269
 5917SOL    HW118335   4.361   2.237   1.239
 5917SOL    HW218336   4.421   2.380   1.189
 5918SOL     OW18337   4.654   3.540   1.465
 5918SOL    HW118338   4.630   3.522   1.370
 5918SOL    HW218339   4.684   3.634   1.475
 5919SOL     OW18340   4.197   2.362   0.191
 5919SOL    HW118341   4.258   2.442   0.195
 5919SOL    HW218342   4.102   2.393   0.198
 5920SOL     OW18343   3.883   2.999   1.466
 5920SOL    HW118344   3.905   2.938   1.542
 5920SOL    HW218345   3.893   2.950   1.380
 5921SOL     OW18346   5.071   2.921   1.234
 5921SOL    HW118347   5.095   2.858   1.160
 5921SOL    HW218348   4.981   2.961   1.216
 5922SOL     OW18349   5.026   2.717   0.309
 5922SOL    HW118350   4.940   2.686   0.351
 5922SOL    HW218351   5.022   2.703   0.210
 5923SOL     OW18352   4.976   3.593   1.128
 5923SOL    HW118353   5.060   3.598   1.074
 5923SOL    HW218354   4.953   3.497   1.146
 5924SOL     OW18355   3.807   3.120   1.022
 5924SOL    HW118356   3.802   3.119   1.122
 5924SOL    HW218357   3.724   3.079   0.984
 5925SOL     OW18358   4.412   3.524   1.716
 5925SOL    HW118359   4.356   3.605   1.725
 5925SOL    HW218360   4.464   3.528   1.630
 5926SOL     OW18361   4.627   1.948   0.133
 5926SOL    HW118362   4.678   1.949   0.047
 5926SOL    HW218363   4.683   1.906   0.204
 5927SOL     OW18364   5.450   1.997   0.523
 5927SOL    HW118365   5.523   1.980   0.456
 5927SOL    HW218366   5.419   1.910   0.561
 5928SOL     OW18367   5.112   3.435   0.477
 5928SOL    HW118368   5.179   3.447   0.403
 5928SOL    HW218369   5.072   3.524   0.500
 5929SOL     OW18370   3.854   3.656   1.851
 5929SOL    HW118371   3.813   3.582   1.904
 5929SOL    HW218372   3.918   3.707   1.909
 5930SOL     OW18373   5.004   2.789   0.672
 5930SOL    HW118374   5.064   2.708   0.674
 5930SOL    HW218375   5.044   2.858   0.612
 5931SOL     OW18376   4.554   3.135   1.422
 5931SOL    HW118377   4.549   3.168   1.517
 5931SOL    HW218378   4.468   3.154   1.376
 5932SOL     OW18379   4.396   3.478   0.154
 5932SOL    HW118380   4.405   3.488   0.055
 5932SOL    HW218381   4.356   3.389   0.175
 5933SOL     OW18382   3.987   2.188   0.720
 5933SOL    HW118383   3.908   2.239   0.686
 5933SOL    HW218384   3.978   2.173   0.818
 5934SOL     OW18385   4.918   3.474   0.031
 5934SOL    HW118386   4.924   3.381   0.068
 5934SOL    HW218387   4.859   3.474  -0.049
 5935SOL     OW18388   4.546   2.864   1.372
 5935SOL    HW118389   4.586   2.863   1.280
 5935SOL    HW218390   4.556   2.956   1.412
 5936SOL     OW18391   4.640   2.772   0.291
 5936SOL    HW118392   4.703   2.810   0.223
 5936SOL    HW218393   4.680   2.689   0.330
 5937SOL     OW18394   4.096   3.150   1.490
 5937SOL    HW118395   4.083   3.243   1.456
 5937SOL    HW218396   4.012   3.098   1.477
 5938SOL     OW18397   4.763   2.960   0.696
 5938SOL    HW118398   4.693   2.913   0.750
 5938SOL    HW218399   4.822   2.892   0.653
 5939SOL     OW18400   4.738   2.098   0.971
 5939SOL    HW118401   4.730   2.062   0.878
 5939SOL    HW218402   4.736   2.022   1.036
 5940SOL     OW18403   4.314   3.349   0.491
 5940SOL    HW118404   4.356   3.291   0.421
 5940SOL    HW218405   4.270   3.428   0.447
 5941SOL     OW18406   3.979   3.210   0.290
 5941SOL    HW118407   3.883   3.211   0.263
 5941SOL    HW218408   3.991   3.263   0.374
 5942SOL     OW18409   3.829   2.875   1.726
 5942SOL    HW118410   3.752   2.842   1.780
 5942SOL    HW218411   3.914   2.845   1.768
 5943SOL     OW18412   4.396   2.065   1.489
 5943SOL    HW118413   4.486   2.049   1.449
 5943SOL    HW218414   4.404   2.070   1.588
 5944SOL     OW18415   3.799   2.207   0.033
 5944SOL    HW118416   3.707   2.179   0.004
 5944SOL    HW218417   3.830   2.284  -0.023
 5945SOL     OW18418   5.164   2.718   1.398
 5945SOL    HW118419   5.107   2.770   1.335
 5945SOL    HW218420   5.260   2.730   1.374
 5946SOL     OW18421   3.796   2.028   0.318
 5946SOL    HW118422   3.779   2.111   0.264
 5946SOL    HW218423   3.886   1.991   0.296
 5947SOL     OW18424   4.907   3.197   0.119
 5947SOL    HW118425   4.808   3.186   0.121
 5947SOL    HW218426   4.941   3.212   0.212
 5948SOL     OW18427   4.337   2.704   1.431
 5948SOL    HW118428   4.393   2.785   1.414
 5948SOL    HW218429   4.396   2.624   1.434
 5949SOL     OW18430   4.440   2.427   1.708
 5949SOL    HW118431   4.459   2.492   1.782
 5949SOL    HW218432   4.500   2.347   1.717
 5950SOL     OW18433   5.174   3.082   1.633
 5950SOL    HW118434   5.165   3.072   1.732
 5950SOL    HW218435   5.270   3.075   1.607
 5951SOL     OW18436   4.114   3.603   1.560
 5951SOL    HW118437   4.023   3.644   1.558
 5951SOL    HW218438   4.107   3.509   1.592
 5952SOL     OW18439   4.949   2.187   0.449
 5952SOL    HW118440   5.014   2.113   0.438
 5952SOL    HW218441   4.969   2.237   0.533
 5953SOL     OW18442   4.318   2.607   0.652
 5953SOL    HW118443   4.368   2.692   0.633
 5953SOL    HW218444   4.230   2.609   0.604
 5954SOL     OW18445   4.583   3.236   0.016
 5954SOL    HW118446   4.537   3.251   0.104
 5954SOL    HW218447   4.627   3.321  -0.014
 5955SOL     OW18448   4.385   3.652   0.953
 5955SOL    HW118449   4.339   3.740   0.940
 5955SOL    HW218450   4.484   3.664   0.946
 5956SOL     OW18451   4.583   2.818   0.861
 5956SOL    HW118452   4.637   2.749   0.909
 5956SOL    HW218453   4.551   2.887   0.927
 5957SOL     OW18454   4.807   2.846   0.087
 5957SOL    HW118455   4.784   2.899   0.005
 5957SOL    HW218456   4.888   2.790   0.068
 5958SOL     OW18457   3.945   3.176   1.844
 5958SOL    HW118458   3.880   3.103   1.823
 5958SOL    HW218459   3.949   3.190   1.942
 5959SOL     OW18460   3.803   3.102   0.653
 5959SOL    HW118461   3.802   3.055   0.741
 5959SOL    HW218462   3.885   3.074   0.602
 5960SOL     OW18463   4.396   3.253   1.624
 5960SOL    HW118464   4.318   3.203   1.662
 5960SOL    HW218465   4.393   3.348   1.655
 5961SOL     OW18466   4.152   2.286   0.520
 5961SOL    HW118467   4.182   2.214   0.458
 5961SOL    HW218468   4.113   2.246   0.603
 5962SOL     OW18469   5.429   3.349   1.104
 5962SOL    HW118470   5.336   3.324   1.077
 5962SOL    HW218471   5.455   3.299   1.186
 5963SOL     OW18472   4.041   2.409   1.280
 5963SOL    HW118473   4.079   2.350   1.352
 5963SOL    HW218474   4.081   2.383   1.192
 5964SOL     OW18475   4.536   3.448   0.687
 5964SOL    HW118476   4.568   3.458   0.593
 5964SOL    HW218477   4.457   3.386   0.689
 5965SOL     OW18478   5.148   2.076   1.112
 5965SOL    HW118479   5.200   2.011   1.167
 5965SOL    HW218480   5.099   2.139   1.173
 5966SOL     OW18481   4.725   1.896   1.154
 5966SOL    HW118482   4.662   1.824   1.123
 5966SOL    HW218483   4.818   1.860   1.154
 5967SOL     OW18484   4.494   3.192   0.301
 5967SOL    HW118485   4.448   3.105   0.318
 5967SOL    HW218486   4.585   3.189   0.342
 5968SOL     OW18487   4.342   3.429   1.284
 5968SOL    HW118488   4.337   3.511   1.341
 5968SOL    HW218489   4.431   3.426   1.239
 5969SOL     OW18490   5.076   1.914   0.168
 5969SOL    HW118491   5.111   1.873   0.084
 5969SOL    HW218492   4.986   1.876   0.188
 5970SOL     OW18493   5.024   2.315   0.691
 5970SOL    HW118494   4.965   2.395   0.695
 5970SOL    HW218495   5.039   2.280   0.784
 5971SOL     OW18496   5.317   2.083   0.882
 5971SOL    HW118497   5.233   2.082   0.936
 5971SOL    HW218498   5.319   2.166   0.826
 5972SOL     OW18499   3.763   2.939   0.300
 5972SOL    HW118500   3.862   2.928   0.291
 5972SOL    HW218501   3.723   2.853   0.332
 5973SOL     OW18502   4.599   3.508   0.337
 5973SOL    HW118503   4.522   3.473   0.283
 5973SOL    HW218504   4.567   3.579   0.399
 5974SOL     OW18505   3.954   2.490   1.975
 5974SOL    HW118506   3.861   2.488   2.012
 5974SOL    HW218507   3.955   2.451   1.883
 5975SOL     OW18508   3.949   2.137   2.858
 5975SOL    HW118509   3.984   2.120   2.950
 5975SOL    HW218510   3.861   2.092   2.846
 5976SOL     OW18511   3.743   2.230   2.509
 5976SOL    HW118512   3.661   2.273   2.548
 5976SOL    HW218513   3.715   2.157   2.446
 5977SOL     OW18514   4.293   3.137   3.027
 5977SOL    HW118515   4.200   3.130   2.990
 5977SOL    HW218516   4.304   3.226   3.071
 5978SOL     OW18517   5.279   3.373   2.565
 5978SOL    HW118518   5.222   3.357   2.646
 5978SOL    HW218519   5.220   3.383   2.485
 5979SOL     OW18520   4.859   2.565   2.579
 5979SOL    HW118521   4.916   2.643   2.554
 5979SOL    HW218522   4.799   2.591   2.655
 5980SOL     OW18523   4.492   3.006   2.885
 5980SOL    HW118524   4.414   3.023   2.945
 5980SOL    HW218525   4.526   3.093   2.849
 5981SOL     OW18526   4.574   2.660   3.685
 5981SOL    HW118527   4.570   2.736   3.750
 5981SOL    HW218528   4.596   2.696   3.594
 5982SOL     OW18529   4.409   2.874   2.527
 5982SOL    HW118530   4.478   2.858   2.597
 5982SOL    HW218531   4.336   2.931   2.565
 5983SOL     OW18532   4.410   3.023   3.665
 5983SOL    HW118533   4.470   3.102   3.679
 5983SOL    HW218534   4.324   3.054   3.624
 5984SOL     OW18535   4.059   3.297   2.923
 5984SOL    HW118536   3.981   3.266   2.870
 5984SOL    HW218537   4.117   3.355   2.866
 5985SOL     OW18538   5.184   3.367   3.201
 5985SOL    HW118539   5.208   3.461   3.227
 5985SOL    HW218540   5.168   3.313   3.283
 5986SOL     OW18541   4.162   2.254   3.361
 5986SOL    HW118542   4.244   2.198   3.370
 5986SOL    HW218543   4.081   2.196   3.365
 5987SOL     OW18544   3.955   3.575   2.345
 5987SOL    HW118545   3.989   3.652   2.399
 5987SOL    HW218546   3.999   3.575   2.255
 5988SOL     OW18547   4.851   3.203   3.552
 5988SOL    HW118548   4.898   3.203   3.640
 5988SOL    HW218549   4.803   3.116   3.541
 5989SOL     OW18550   3.954   3.296   2.400
 5989SOL    HW118551   3.928   3.392   2.400
 5989SOL    HW218552   3.883   3.242   2.445
 5990SOL     OW18553   3.964   2.953   2.748
 5990SOL    HW118554   3.978   2.869   2.800
 5990SOL    HW218555   3.909   3.017   2.803
 5991SOL     OW18556   4.344   3.648   3.301
 5991SOL    HW118557   4.252   3.631   3.336
 5991SOL    HW218558   4.372   3.740   3.327
 5992SOL     OW18559   4.330   2.826   1.985
 5992SOL    HW118560   4.337   2.910   1.931
 5992SOL    HW218561   4.376   2.839   2.073
 5993SOL     OW18562   3.846   2.505   2.425
 5993SOL    HW118563   3.801   2.417   2.442
 5993SOL    HW218564   3.845   2.559   2.509
 5994SOL     OW18565   3.751   3.458   1.979
 5994SOL    HW118566   3.732   3.362   2.000
 5994SOL    HW218567   3.718   3.516   2.054
 5995SOL     OW18568   5.413   2.784   2.474
 5995SOL    HW118569   5.508   2.755   2.482
 5995SOL    HW218570   5.405   2.849   2.399
 5996SOL     OW18571   3.837   2.599   3.459
 5996SOL    HW118572   3.925   2.586   3.504
 5996SOL    HW218573   3.824   2.696   3.437
 5997SOL     OW18574   4.337   3.227   2.588
 5997SOL    HW118575   4.288   3.140   2.597
 5997SOL    HW218576   4.314   3.270   2.501
 5998SOL     OW18577   5.017   3.090   3.285
 5998SOL    HW118578   5.054   3.017   3.227
 5998SOL    HW218579   5.069   3.095   3.370
 5999SOL     OW18580   4.533   1.866   2.364
 5999SOL    HW118581   4.573   1.957   2.355
 5999SOL    HW218582   4.433   1.874   2.370
 6000SOL     OW18583   3.921   2.838   3.126
 6000SOL    HW118584   4.010   2.793   3.112
 6000SOL    HW218585   3.848   2.773   3.107
 6001SOL     OW18586   4.911   3.654   3.478
 6001SOL    HW118587   4.935   3.714   3.402
 6001SOL    HW218588   4.918   3.559   3.448
 6002SOL     OW18589   4.041   2.113   3.663
 6002SOL    HW118590   4.112   2.184   3.669
 6002SOL    HW218591   3.953   2.152   3.691
 6003SOL     OW18592   5.190   3.279   2.815
 6003SOL    HW118593   5.131   3.285   2.895
 6003SOL    HW218594   5.175   3.191   2.769
 6004SOL     OW18595   4.322   2.591   2.132
 6004SOL    HW118596   4.346   2.660   2.064
 6004SOL    HW218597   4.244   2.624   2.186
 6005SOL     OW18598   5.005   2.207   2.806
 6005SOL    HW118599   4.919   2.157   2.793
 6005SOL    HW218600   5.067   2.153   2.862
 6006SOL     OW18601   4.531   2.467   3.327
 6006SOL    HW118602   4.484   2.464   3.416
 6006SOL    HW218603   4.480   2.412   3.261
 6007SOL     OW18604   5.118   2.331   3.536
 6007SOL    HW118605   5.098   2.374   3.624
 6007SOL    HW218606   5.196   2.269   3.545
 6008SOL     OW18607   4.697   2.752   3.434
 6008SOL    HW118608   4.743   2.668   3.405
 6008SOL    HW218609   4.641   2.786   3.359
 6009SOL     OW18610   4.715   2.272   3.104
 6009SOL    HW118611   4.638   2.306   3.158
 6009SOL    HW218612   4.681   2.221   3.025
 6010SOL     OW18613   4.765   2.563   2.291
 6010SOL    HW118614   4.791   2.559   2.387
 6010SOL    HW218615   4.680   2.512   2.277
 6011SOL     OW18616   3.800   2.673   2.651
 6011SOL    HW118617   3.899   2.661   2.660
 6011SOL    HW218618   3.776   2.768   2.672
 6012SOL     OW18619   3.854   3.683   3.433
 6012SOL    HW118620   3.844   3.668   3.532
 6012SOL    HW218621   3.768   3.719   3.397
 6013SOL     OW18622   4.589   2.210   2.057
 6013SOL    HW118623   4.648   2.273   2.008
 6013SOL    HW218624   4.608   2.116   2.028
 6014SOL     OW18625   5.086   3.006   2.407
 6014SOL    HW118626   5.169   2.977   2.359
 6014SOL    HW218627   5.037   3.073   2.351
 6015SOL     OW18628   4.274   2.058   2.747
 6015SOL    HW118629   4.269   2.053   2.847
 6015SOL    HW218630   4.276   2.154   2.718
 6016SOL     OW18631   4.732   3.318   2.339
 6016SOL    HW118632   4.686   3.390   2.287
 6016SOL    HW218633   4.728   3.338   2.437
 6017SOL     OW18634   4.075   3.663   2.715
 6017SOL    HW118635   4.125   3.577   2.721
 6017SOL    HW218636   4.140   3.740   2.712
 6018SOL     OW18637   4.951   3.412   3.368
 6018SOL    HW118638   4.957   3.335   3.432
 6018SOL    HW218639   4.899   3.386   3.288
 6019SOL     OW18640   4.045   2.805   2.104
 6019SOL    HW118641   4.127   2.844   2.062
 6019SOL    HW218642   4.018   2.723   2.055
 6020SOL     OW18643   4.185   3.128   3.589
 6020SOL    HW118644   4.135   3.129   3.503
 6020SOL    HW218645   4.122   3.110   3.665
 6021SOL     OW18646   4.835   3.638   2.099
 6021SOL    HW118647   4.775   3.576   2.149
 6021SOL    HW218648   4.866   3.594   2.014
 6022SOL     OW18649   3.926   2.147   3.360
 6022SOL    HW118650   3.846   2.207   3.347
 6022SOL    HW218651   3.916   2.098   3.446
 6023SOL     OW18652   4.188   3.605   2.185
 6023SOL    HW118653   4.221   3.644   2.271
 6023SOL    HW218654   4.264   3.598   2.120
 6024SOL     OW18655   5.124   1.969   2.288
 6024SOL    HW118656   5.100   1.932   2.198
 6024SOL    HW218657   5.223   1.985   2.292
 6025SOL     OW18658   3.973   3.647   3.103
 6025SOL    HW118659   4.030   3.582   3.153
 6025SOL    HW218660   3.957   3.614   3.010
 6026SOL     OW18661   4.664   3.560   2.766
 6026SOL    HW118662   4.744   3.503   2.787
 6026SOL    HW218663   4.615   3.520   2.689
 6027SOL     OW18664   4.106   2.562   2.342
 6027SOL    HW118665   4.151   2.472   2.339
 6027SOL    HW218666   4.012   2.551   2.375
 6028SOL     OW18667   4.338   1.984   1.979
 6028SOL    HW118668   4.436   1.962   1.986
 6028SOL    HW218669   4.307   1.967   1.886
 6029SOL     OW18670   4.505   2.126   3.611
 6029SOL    HW118671   4.572   2.065   3.654
 6029SOL    HW218672   4.432   2.145   3.676
 6030SOL     OW18673   4.612   3.376   3.057
 6030SOL    HW118674   4.589   3.351   2.963
 6030SOL    HW218675   4.673   3.307   3.096
 6031SOL     OW18676   5.075   2.452   3.295
 6031SOL    HW118677   5.103   2.409   3.380
 6031SOL    HW218678   5.100   2.548   3.296
 6032SOL     OW18679   4.527   3.264   2.786
 6032SOL    HW118680   4.617   3.278   2.744
 6032SOL    HW218681   4.456   3.266   2.715
 6033SOL     OW18682   4.646   2.365   2.761
 6033SOL    HW118683   4.621   2.356   2.665
 6033SOL    HW218684   4.694   2.283   2.792
 6034SOL     OW18685   4.263   1.926   2.374
 6034SOL    HW118686   4.182   1.927   2.432
 6034SOL    HW218687   4.266   2.009   2.319
 6035SOL     OW18688   5.158   3.050   1.903
 6035SOL    HW118689   5.190   2.974   1.960
 6035SOL    HW218690   5.066   3.077   1.933
 6036SOL     OW18691   4.021   1.897   2.033
 6036SOL    HW118692   4.070   1.981   2.012
 6036SOL    HW218693   4.083   1.832   2.078
 6037SOL     OW18694   4.659   2.098   2.342
 6037SOL    HW118695   4.611   2.139   2.264
 6037SOL    HW218696   4.758   2.096   2.323
 6038SOL     OW18697   4.800   2.545   3.326
 6038SOL    HW118698   4.720   2.484   3.329
 6038SOL    HW218699   4.881   2.492   3.302
 6039SOL     OW18700   4.951   3.432   2.655
 6039SOL    HW118701   4.972   3.506   2.590
 6039SOL    HW218702   5.019   3.432   2.728
 6040SOL     OW18703   4.183   3.014   2.603
 6040SOL    HW118704   4.112   2.987   2.668
 6040SOL    HW218705   4.157   2.986   2.510
 6041SOL     OW18706   4.995   3.659   2.453
 6041SOL    HW118707   5.039   3.723   2.389
 6041SOL    HW218708   4.945   3.711   2.523
 6042SOL     OW18709   4.756   2.411   1.878
 6042SOL    HW118710   4.715   2.493   1.839
 6042SOL    HW218711   4.820   2.437   1.951
 6043SOL     OW18712   3.802   2.418   3.248
 6043SOL    HW118713   3.894   2.417   3.207
 6043SOL    HW218714   3.796   2.492   3.315
 6044SOL     OW18715   4.285   2.084   3.009
 6044SOL    HW118716   4.323   2.000   3.046
 6044SOL    HW218717   4.197   2.103   3.053
 6045SOL     OW18718   4.590   2.316   2.504
 6045SOL    HW118719   4.558   2.388   2.442
 6045SOL    HW218720   4.614   2.235   2.451
 6046SOL     OW18721   4.741   1.901   2.615
 6046SOL    HW118722   4.669   1.906   2.546
 6046SOL    HW218723   4.717   1.832   2.684
 6047SOL     OW18724   5.153   3.035   2.729
 6047SOL    HW118725   5.098   2.951   2.722
 6047SOL    HW218726   5.179   3.064   2.637
 6048SOL     OW18727   4.212   3.247   2.036
 6048SOL    HW118728   4.125   3.232   2.083
 6048SOL    HW218729   4.195   3.273   1.941
 6049SOL     OW18730   5.114   2.437   1.940
 6049SOL    HW118731   5.060   2.416   2.021
 6049SOL    HW218732   5.205   2.396   1.949
 6050SOL     OW18733   4.251   2.118   2.190
 6050SOL    HW118734   4.278   2.059   2.115
 6050SOL    HW218735   4.251   2.213   2.159
 6051SOL     OW18736   4.788   3.209   3.202
 6051SOL    HW118737   4.708   3.186   3.257
 6051SOL    HW218738   4.871   3.183   3.251
 6052SOL     OW18739   5.316   3.491   3.487
 6052SOL    HW118740   5.343   3.525   3.397
 6052SOL    HW218741   5.395   3.453   3.533
 6053SOL     OW18742   4.835   3.057   2.962
 6053SOL    HW118743   4.795   3.101   3.043
 6053SOL    HW218744   4.794   3.094   2.879
 6054SOL     OW18745   4.639   1.951   3.264
 6054SOL    HW118746   4.664   1.931   3.169
 6054SOL    HW218747   4.711   2.007   3.306
 6055SOL     OW18748   4.704   2.978   3.581
 6055SOL    HW118749   4.605   2.984   3.591
 6055SOL    HW218750   4.727   2.898   3.525
 6056SOL     OW18751   4.429   2.912   2.230
 6056SOL    HW118752   4.415   2.919   2.329
 6056SOL    HW218753   4.513   2.861   2.212
 6057SOL     OW18754   4.134   2.675   3.113
 6057SOL    HW118755   4.220   2.687   3.163
 6057SOL    HW218756   4.092   2.588   3.140
 6058SOL     OW18757   4.998   2.248   3.124
 6058SOL    HW118758   5.019   2.322   3.188
 6058SOL    HW218759   4.909   2.265   3.081
 6059SOL     OW18760   3.788   3.426   3.193
 6059SOL    HW118761   3.742   3.508   3.159
 6059SOL    HW218762   3.886   3.445   3.202
 6060SOL     OW18763   4.091   2.962   2.363
 6060SOL    HW118764   4.084   3.045   2.307
 6060SOL    HW218765   4.095   2.882   2.303
 6061SOL     OW18766   4.290   2.399   2.727
 6061SOL    HW118767   4.302   2.465   2.653
 6061SOL    HW218768   4.336   2.433   2.810
 6062SOL     OW18769   4.976   3.210   2.250
 6062SOL    HW118770   5.026   3.287   2.290
 6062SOL    HW218771   4.881   3.212   2.282
 6063SOL     OW18772   4.996   3.307   3.004
 6063SOL    HW118773   5.043   3.320   3.091
 6063SOL    HW218774   4.930   3.233   3.013
 6064SOL     OW18775   4.078   3.372   3.191
 6064SOL    HW118776   4.057   3.328   3.104
 6064SOL    HW218777   4.175   3.398   3.194
 6065SOL     OW18778   4.126   2.613   3.460
 6065SOL    HW118779   4.194   2.668   3.413
 6065SOL    HW218780   4.166   2.525   3.487
 6066SOL     OW18781   4.737   1.967   3.632
 6066SOL    HW118782   4.743   2.052   3.580
 6066SOL    HW218783   4.769   1.891   3.575
 6067SOL     OW18784   4.228   1.912   3.602
 6067SOL    HW118785   4.186   1.855   3.532
 6067SOL    HW218786   4.162   1.981   3.634
 6068SOL     OW18787   4.297   2.732   2.891
 6068SOL    HW118788   4.341   2.821   2.882
 6068SOL    HW218789   4.234   2.732   2.968
 6069SOL     OW18790   5.084   2.724   2.907
 6069SOL    HW118791   5.009   2.724   2.841
 6069SOL    HW218792   5.121   2.632   2.916
 6070SOL     OW18793   4.933   2.387   2.137
 6070SOL    HW118794   4.946   2.303   2.191
 6070SOL    HW218795   4.904   2.461   2.197
 6071SOL     OW18796   4.031   2.075   3.093
 6071SOL    HW118797   4.008   2.112   3.183
 6071SOL    HW218798   4.001   1.980   3.087
 6072SOL     OW18799   3.761   3.172   3.144
 6072SOL    HW118800   3.814   3.123   3.212
 6072SOL    HW218801   3.783   3.270   3.149
 6073SOL     OW18802   4.456   2.496   2.926
 6073SOL    HW118803   4.515   2.470   2.850
 6073SOL    HW218804   4.428   2.592   2.915
 6074SOL     OW18805   4.031   1.925   2.480
 6074SOL    HW118806   4.020   2.019   2.513
 6074SOL    HW218807   4.026   1.862   2.557
 6075SOL     OW18808   5.346   2.229   2.236
 6075SOL    HW118809   5.348   2.153   2.300
 6075SOL    HW218810   5.298   2.306   2.276
 6076SOL     OW18811   4.747   2.628   2.828
 6076SOL    HW118812   4.762   2.649   2.924
 6076SOL    HW218813   4.717   2.533   2.819
 6077SOL     OW18814   4.704   3.435   3.562
 6077SOL    HW118815   4.684   3.479   3.474
 6077SOL    HW218816   4.743   3.344   3.546
 6078SOL     OW18817   4.074   2.760   3.666
 6078SOL    HW118818   4.150   2.804   3.714
 6078SOL    HW218819   4.109   2.713   3.584
 6079SOL     OW18820   5.027   2.700   1.904
 6079SOL    HW118821   5.061   2.607   1.919
 6079SOL    HW218822   5.045   2.727   1.809
 6080SOL     OW18823   4.792   3.195   2.711
 6080SOL    HW118824   4.799   3.111   2.656
 6080SOL    HW218825   4.854   3.264   2.675
 6081SOL     OW18826   4.043   2.672   2.811
 6081SOL    HW118827   4.136   2.708   2.816
 6081SOL    HW218828   4.037   2.587   2.863
 6082SOL     OW18829   4.063   2.371   2.868
 6082SOL    HW118830   4.011   2.288   2.851
 6082SOL    HW218831   4.140   2.376   2.804
 6083SOL     OW18832   4.862   2.242   3.540
 6083SOL    HW118833   4.817   2.305   3.604
 6083SOL    HW218834   4.955   2.273   3.523
 6084SOL     OW18835   4.884   2.069   3.339
 6084SOL    HW118836   4.884   2.133   3.416
 6084SOL    HW218837   4.912   2.117   3.256
 6085SOL     OW18838   3.732   3.188   2.062
 6085SOL    HW118839   3.639   3.209   2.031
 6085SOL    HW218840   3.742   3.089   2.075
 6086SOL     OW18841   3.812   3.663   2.789
 6086SOL    HW118842   3.770   3.577   2.762
 6086SOL    HW218843   3.906   3.666   2.755
 6087SOL     OW18844   4.228   3.430   2.772
 6087SOL    HW118845   4.294   3.504   2.781
 6087SOL    HW218846   4.272   3.351   2.730
 6088SOL     OW18847   4.726   2.658   3.100
 6088SOL    HW118848   4.767   2.626   3.186
 6088SOL    HW218849   4.630   2.631   3.097
 6089SOL     OW18850   3.764   2.406   2.976
 6089SOL    HW118851   3.849   2.373   2.935
 6089SOL    HW218852   3.777   2.421   3.074
 6090SOL     OW18853   3.913   2.382   3.584
 6090SOL    HW118854   3.972   2.342   3.514
 6090SOL    HW218855   3.855   2.453   3.543
 6091SOL     OW18856   5.093   2.812   3.522
 6091SOL    HW118857   5.132   2.901   3.542
 6091SOL    HW218858   5.103   2.792   3.425
 6092SOL     OW18859   4.539   2.434   2.187
 6092SOL    HW118860   4.546   2.345   2.141
 6092SOL    HW218861   4.445   2.468   2.179
 6093SOL     OW18862   3.976   3.426   3.606
 6093SOL    HW118863   3.946   3.483   3.682
 6093SOL    HW218864   3.969   3.329   3.632
 6094SOL     OW18865   4.395   2.326   3.131
 6094SOL    HW118866   4.361   2.237   3.101
 6094SOL    HW218867   4.421   2.380   3.051
 6095SOL     OW18868   4.654   3.540   3.327
 6095SOL    HW118869   4.630   3.522   3.232
 6095SOL    HW218870   4.684   3.634   3.337
 6096SOL     OW18871   4.197   2.362   2.053
 6096SOL    HW118872   4.258   2.442   2.057
 6096SOL    HW218873   4.102   2.393   2.060
 6097SOL     OW18874   3.883   2.999   3.328
 6097SOL    HW118875   3.905   2.938   3.404
 6097SOL    HW218876   3.893   2.950   3.242
 6098SOL     OW18877   5.071   2.921   3.096
 6098SOL    HW118878   5.095   2.858   3.022
 6098SOL    HW218879   4.981   2.961   3.078
 6099SOL     OW18880   5.026   2.717   2.171
 6099SOL    HW118881   4.940   2.686   2.213
 6099SOL    HW218882   5.022   2.703   2.072
 6100SOL     OW18883   4.976   3.593   2.990
 6100SOL    HW118884   5.060   3.598   2.936
 6100SOL    HW218885   4.953   3.497   3.008
 6101SOL     OW18886   3.807   3.120   2.884
 6101SOL    HW118887   3.802   3.119   2.984
 6101SOL    HW218888   3.724   3.079   2.846
 6102SOL     OW18889   4.412   3.524   3.578
 6102SOL    HW118890   4.356   3.605   3.587
 6102SOL    HW218891   4.464   3.528   3.492
 6103SOL     OW18892   5.450   1.997   2.385
 6103SOL    HW118893   5.523   1.980   2.318
 6103SOL    HW218894   5.419   1.910   2.423
 6104SOL     OW18895   5.112   3.435   2.339
 6104SOL    HW118896   5.179   3.447   2.265
 6104SOL    HW218897   5.072   3.524   2.362
 6105SOL     OW18898   3.854   3.656   3.713
 6105SOL    HW118899   3.813   3.582   3.766
 6105SOL    HW218900   3.918   3.707   3.771
 6106SOL     OW18901   5.004   2.789   2.534
 6106SOL    HW118902   5.064   2.708   2.536
 6106SOL    HW218903   5.044   2.858   2.474
 6107SOL     OW18904   4.554   3.135   3.284
 6107SOL    HW118905   4.549   3.168   3.379
 6107SOL    HW218906   4.468   3.154   3.238
 6108SOL     OW18907   4.396   3.478   2.016
 6108SOL    HW118908   4.405   3.488   1.917
 6108SOL    HW218909   4.356   3.389   2.037
 6109SOL     OW18910   3.987   2.188   2.582
 6109SOL    HW118911   3.908   2.239   2.548
 6109SOL    HW218912   3.978   2.173   2.680
 6110SOL     OW18913   4.918   3.474   1.893
 6110SOL    HW118914   4.924   3.381   1.930
 6110SOL    HW218915   4.859   3.474   1.813
 6111SOL     OW18916   4.546   2.864   3.234
 6111SOL    HW118917   4.586   2.863   3.142
 6111SOL    HW218918   4.556   2.956   3.274
 6112SOL     OW18919   4.640   2.772   2.153
 6112SOL    HW118920   4.703   2.810   2.085
 6112SOL    HW218921   4.680   2.689   2.192
 6113SOL     OW18922   4.096   3.150   3.352
 6113SOL    HW118923   4.083   3.243   3.318
 6113SOL    HW218924   4.012   3.098   3.339
 6114SOL     OW18925   4.763   2.960   2.558
 6114SOL    HW118926   4.693   2.913   2.612
 6114SOL    HW218927   4.822   2.892   2.515
 6115SOL     OW18928   4.738   2.098   2.833
 6115SOL    HW118929   4.730   2.062   2.740
 6115SOL    HW218930   4.736   2.022   2.898
 6116SOL     OW18931   4.314   3.349   2.353
 6116SOL    HW118932   4.356   3.291   2.283
 6116SOL    HW218933   4.270   3.428   2.309
 6117SOL     OW18934   3.979   3.210   2.152
 6117SOL    HW118935   3.883   3.211   2.125
 6117SOL    HW218936   3.991   3.263   2.236
 6118SOL     OW18937   3.829   2.875   3.588
 6118SOL    HW118938   3.752   2.842   3.642
 6118SOL    HW218939   3.914   2.845   3.630
 6119SOL     OW18940   4.396   2.065   3.351
 6119SOL    HW118941   4.486   2.049   3.311
 6119SOL    HW218942   4.404   2.070   3.450
 6120SOL     OW18943   3.799   2.207   1.895
 6120SOL    HW118944   3.707   2.179   1.866
 6120SOL    HW218945   3.830   2.284   1.839
 6121SOL     OW18946   5.164   2.718   3.260
 6121SOL    HW118947   5.107   2.770   3.197
 6121SOL    HW218948   5.260   2.730   3.236
 6122SOL     OW18949   3.796   2.028   2.180
 6122SOL    HW118950   3.779   2.111   2.126
 6122SOL    HW218951   3.886   1.991   2.158
 6123SOL     OW18952   4.907   3.197   1.981
 6123SOL    HW118953   4.808   3.186   1.983
 6123SOL    HW218954   4.941   3.212   2.074
 6124SOL     OW18955   4.337   2.704   3.293
 6124SOL    HW118956   4.393   2.785   3.276
 6124SOL    HW218957   4.396   2.624   3.296
 6125SOL     OW18958   4.440   2.427   3.570
 6125SOL    HW118959   4.459   2.492   3.644
 6125SOL    HW218960   4.500   2.347   3.579
 6126SOL     OW18961   5.174   3.082   3.495
 6126SOL    HW118962   5.165   3.072   3.594
 6126SOL    HW218963   5.270   3.075   3.469
 6127SOL     OW18964   4.114   3.603   3.422
 6127SOL    HW118965   4.023   3.644   3.420
 6127SOL    HW218966   4.107   3.509   3.454
 6128SOL     OW18967   4.949   2.187   2.311
 6128SOL    HW118968   5.014   2.113   2.300
 6128SOL    HW218969   4.969   2.237   2.395
 6129SOL     OW18970   4.318   2.607   2.514
 6129SOL    HW118971   4.368   2.692   2.495
 6129SOL    HW218972   4.230   2.609   2.466
 6130SOL     OW18973   4.583   3.236   1.878
 6130SOL    HW118974   4.537   3.251   1.966
 6130SOL    HW218975   4.627   3.321   1.848
 6131SOL     OW18976   4.385   3.652   2.815
 6131SOL    HW118977   4.339   3.740   2.802
 6131SOL    HW218978   4.484   3.664   2.808
 6132SOL     OW18979   4.583   2.818   2.723
 6132SOL    HW118980   4.637   2.749   2.771
 6132SOL    HW218981   4.551   2.887   2.789
 6133SOL     OW18982   4.807   2.846   1.949
 6133SOL    HW118983   4.784   2.899   1.867
 6133SOL    HW218984   4.888   2.790   1.930
 6134SOL     OW18985   3.945   3.176   3.706
 6134SOL    HW118986   3.880   3.103   3.685
 6134SOL    HW218987   3.949   3.190   3.804
 6135SOL     OW18988   3.803   3.102   2.515
 6135SOL    HW118989   3.802   3.055   2.603
 6135SOL    HW218990   3.885   3.074   2.464
 6136SOL     OW18991   4.396   3.253   3.486
 6136SOL    HW118992   4.318   3.203   3.524
 6136SOL    HW218993   4.393   3.348   3.517
 6137SOL     OW18994   4.152   2.286   2.382
 6137SOL    HW118995   4.182   2.214   2.320
 6137SOL    HW218996   4.113   2.246   2.465
 6138SOL     OW18997   5.429   3.349   2.966
 6138SOL    HW118998   5.336   3.324   2.939
 6138SOL    HW218999   5.455   3.299   3.048
 6139SOL     OW19000   4.041   2.409   3.142
 6139SOL    HW119001   4.079   2.350   3.214
 6139SOL    HW219002   4.081   2.383   3.054
 6140SOL     OW19003   4.536   3.448   2.549
 6140SOL    HW119004   4.568   3.458   2.455
 6140SOL    HW219005   4.457   3.386   2.551
 6141SOL     OW19006   5.148   2.076   2.974
 6141SOL    HW119007   5.200   2.011   3.029
 6141SOL    HW219008   5.099   2.139   3.035
 6142SOL     OW19009   4.725   1.896   3.016
 6142SOL    HW119010   4.662   1.824   2.985
 6142SOL    HW219011   4.818   1.860   3.016
 6143SOL     OW19012   4.494   3.192   2.163
 6143SOL    HW119013   4.448   3.105   2.180
 6143SOL    HW219014   4.585   3.189   2.204
 6144SOL     OW19015   4.342   3.429   3.146
 6144SOL    HW119016   4.337   3.511   3.203
 6144SOL    HW219017   4.431   3.426   3.101
 6145SOL     OW19018   5.076   1.914   2.030
 6145SOL    HW119019   5.111   1.873   1.946
 6145SOL    HW219020   4.986   1.876   2.050
 6146SOL     OW19021   5.024   2.315   2.553
 6146SOL    HW119022   4.965   2.395   2.557
 6146SOL    HW219023   5.039   2.280   2.646
 6147SOL     OW19024   5.317   2.083   2.744
 6147SOL    HW119025   5.233   2.082   2.798
 6147SOL    HW219026   5.319   2.166   2.688
 6148SOL     OW19027   3.763   2.939   2.162
 6148SOL    HW119028   3.862   2.928   2.153
 6148SOL    HW219029   3.723   2.853   2.194
 6149SOL     OW19030   4.599   3.508   2.199
 6149SOL    HW119031   4.522   3.473   2.145
 6149SOL    HW219032   4.567   3.579   2.261
 6150SOL     OW19033   3.954   2.490   3.837
 6150SOL    HW119034   3.861   2.488   3.874
 6150SOL    HW219035   3.955   2.451   3.745
 6151SOL     OW19036   3.949   2.137   4.720
 6151SOL    HW119037   3.984   2.120   4.812
 6151SOL    HW219038   3.861   2.092   4.708
 6152SOL     OW19039   3.743   2.230   4.371
 6152SOL    HW119040   3.661   2.273   4.410
 6152SOL    HW219041   3.715   2.157   4.308
 6153SOL     OW19042   4.293   3.137   4.889
 6153SOL    HW119043   4.200   3.130   4.852
 6153SOL    HW219044   4.304   3.226   4.933
 6154SOL     OW19045   5.279   3.373   4.427
 6154SOL    HW119046   5.222   3.357   4.508
 6154SOL    HW219047   5.220   3.383   4.347
 6155SOL     OW19048   4.859   2.565   4.441
 6155SOL    HW119049   4.916   2.643   4.416
 6155SOL    HW219050   4.799   2.591   4.517
 6156SOL     OW19051   4.492   3.006   4.747
 6156SOL    HW119052   4.414   3.023   4.807
 6156SOL    HW219053   4.526   3.093   4.711
 6157SOL     OW19054   4.574   2.660   5.547
 6157SOL    HW119055   4.570   2.736   5.612
 6157SOL    HW219056   4.596   2.696   5.456
 6158SOL     OW19057   4.409   2.874   4.389
 6158SOL    HW119058   4.478   2.858   4.459
 6158SOL    HW219059   4.336   2.931   4.427
 6159SOL     OW19060   4.410   3.023   5.527
 6159SOL    HW119061   4.470   3.102   5.541
 6159SOL    HW219062   4.324   3.054   5.486
 6160SOL     OW19063   4.059   3.297   4.785
 6160SOL    HW119064   3.981   3.266   4.732
 6160SOL    HW219065   4.117   3.355   4.728
 6161SOL     OW19066   5.184   3.367   5.063
 6161SOL    HW119067   5.208   3.461   5.089
 6161SOL    HW219068   5.168   3.313   5.145
 6162SOL     OW19069   4.162   2.254   5.223
 6162SOL    HW119070   4.244   2.198   5.232
 6162SOL    HW219071   4.081   2.196   5.227
 6163SOL     OW19072   3.955   3.575   4.207
 6163SOL    HW119073   3.989   3.652   4.261
 6163SOL    HW219074   3.999   3.575   4.117
 6164SOL     OW19075   4.851   3.203   5.414
 6164SOL    HW119076   4.898   3.203   5.502
 6164SOL    HW219077   4.803   3.116   5.403
 6165SOL     OW19078   3.954   3.296   4.262
 6165SOL    HW119079   3.928   3.392   4.262
 6165SOL    HW219080   3.883   3.242   4.307
 6166SOL     OW19081   3.964   2.953   4.610
 6166SOL    HW119082   3.978   2.869   4.662
 6166SOL    HW219083   3.909   3.017   4.665
 6167SOL     OW19084   4.344   3.648   5.163
 6167SOL    HW119085   4.252   3.631   5.198
 6167SOL    HW219086   4.372   3.740   5.189
 6168SOL     OW19087   4.330   2.826   3.847
 6168SOL    HW119088   4.337   2.910   3.793
 6168SOL    HW219089   4.376   2.839   3.935
 6169SOL     OW19090   3.846   2.505   4.287
 6169SOL    HW119091   3.801   2.417   4.304
 6169SOL    HW219092   3.845   2.559   4.371
 6170SOL     OW19093   3.751   3.458   3.841
 6170SOL    HW119094   3.732   3.362   3.862
 6170SOL    HW219095   3.718   3.516   3.916
 6171SOL     OW19096   5.413   2.784   4.336
 6171SOL    HW119097   5.508   2.755   4.344
 6171SOL    HW219098   5.405   2.849   4.261
 6172SOL     OW19099   3.837   2.599   5.321
 6172SOL    HW119100   3.925   2.586   5.366
 6172SOL    HW219101   3.824   2.696   5.299
 6173SOL     OW19102   4.337   3.227   4.450
 6173SOL    HW119103   4.288   3.140   4.459
 6173SOL    HW219104   4.314   3.270   4.363
 6174SOL     OW19105   5.017   3.090   5.147
 6174SOL    HW119106   5.054   3.017   5.089
 6174SOL    HW219107   5.069   3.095   5.232
 6175SOL     OW19108   4.533   1.866   4.226
 6175SOL    HW119109   4.573   1.957   4.217
 6175SOL    HW219110   4.433   1.874   4.232
 6176SOL     OW19111   3.921   2.838   4.988
 6176SOL    HW119112   4.010   2.793   4.974
 6176SOL    HW219113   3.848   2.773   4.969
 6177SOL     OW19114   4.911   3.654   5.340
 6177SOL    HW119115   4.935   3.714   5.264
 6177SOL    HW219116   4.918   3.559   5.310
 6178SOL     OW19117   4.041   2.113   5.525
 6178SOL    HW119118   4.112   2.184   5.531
 6178SOL    HW219119   3.953   2.152   5.553
 6179SOL     OW19120   5.190   3.279   4.677
 6179SOL    HW119121   5.131   3.285   4.757
 6179SOL    HW219122   5.175   3.191   4.631
 6180SOL     OW19123   4.322   2.591   3.994
 6180SOL    HW119124   4.346   2.660   3.926
 6180SOL    HW219125   4.244   2.624   4.048
 6181SOL     OW19126   5.005   2.207   4.668
 6181SOL    HW119127   4.919   2.157   4.655
 6181SOL    HW219128   5.067   2.153   4.724
 6182SOL     OW19129   4.531   2.467   5.189
 6182SOL    HW119130   4.484   2.464   5.278
 6182SOL    HW219131   4.480   2.412   5.123
 6183SOL     OW19132   5.118   2.331   5.398
 6183SOL    HW119133   5.098   2.374   5.486
 6183SOL    HW219134   5.196   2.269   5.407
 6184SOL     OW19135   4.697   2.752   5.296
 6184SOL    HW119136   4.743   2.668   5.267
 6184SOL    HW219137   4.641   2.786   5.221
 6185SOL     OW19138   4.715   2.272   4.966
 6185SOL    HW119139   4.638   2.306   5.020
 6185SOL    HW219140   4.681   2.221   4.887
 6186SOL     OW19141   4.765   2.563   4.153
 6186SOL    HW119142   4.791   2.559   4.249
 6186SOL    HW219143   4.680   2.512   4.139
 6187SOL     OW19144   3.800   2.673   4.513
 6187SOL    HW119145   3.899   2.661   4.522
 6187SOL    HW219146   3.776   2.768   4.534
 6188SOL     OW19147   3.854   3.683   5.295
 6188SOL    HW119148   3.844   3.668   5.394
 6188SOL    HW219149   3.768   3.719   5.259
 6189SOL     OW19150   4.589   2.210   3.919
 6189SOL    HW119151   4.648   2.273   3.870
 6189SOL    HW219152   4.608   2.116   3.890
 6190SOL     OW19153   5.086   3.006   4.269
 6190SOL    HW119154   5.169   2.977   4.221
 6190SOL    HW219155   5.037   3.073   4.213
 6191SOL     OW19156   4.274   2.058   4.609
 6191SOL    HW119157   4.269   2.053   4.709
 6191SOL    HW219158   4.276   2.154   4.580
 6192SOL     OW19159   4.732   3.318   4.201
 6192SOL    HW119160   4.686   3.390   4.149
 6192SOL    HW219161   4.728   3.338   4.299
 6193SOL     OW19162   4.075   3.663   4.577
 6193SOL    HW119163   4.125   3.577   4.583
 6193SOL    HW219164   4.140   3.740   4.574
 6194SOL     OW19165   4.951   3.412   5.230
 6194SOL    HW119166   4.957   3.335   5.294
 6194SOL    HW219167   4.899   3.386   5.150
 6195SOL     OW19168   4.045   2.805   3.966
 6195SOL    HW119169   4.127   2.844   3.924
 6195SOL    HW219170   4.018   2.723   3.917
 6196SOL     OW19171   4.185   3.128   5.451
 6196SOL    HW119172   4.135   3.129   5.365
 6196SOL    HW219173   4.122   3.110   5.527
 6197SOL     OW19174   4.835   3.638   3.961
 6197SOL    HW119175   4.775   3.576   4.011
 6197SOL    HW219176   4.866   3.594   3.876
 6198SOL     OW19177   3.926   2.147   5.222
 6198SOL    HW119178   3.846   2.207   5.209
 6198SOL    HW219179   3.916   2.098   5.308
 6199SOL     OW19180   4.188   3.605   4.047
 6199SOL    HW119181   4.221   3.644   4.133
 6199SOL    HW219182   4.264   3.598   3.982
 6200SOL     OW19183   5.124   1.969   4.150
 6200SOL    HW119184   5.100   1.932   4.060
 6200SOL    HW219185   5.223   1.985   4.154
 6201SOL     OW19186   3.973   3.647   4.965
 6201SOL    HW119187   4.030   3.582   5.015
 6201SOL    HW219188   3.957   3.614   4.872
 6202SOL     OW19189   4.664   3.560   4.628
 6202SOL    HW119190   4.744   3.503   4.649
 6202SOL    HW219191   4.615   3.520   4.551
 6203SOL     OW19192   4.106   2.562   4.204
 6203SOL    HW119193   4.151   2.472   4.201
 6203SOL    HW219194   4.012   2.551   4.237
 6204SOL     OW19195   4.338   1.984   3.841
 6204SOL    HW119196   4.436   1.962   3.848
 6204SOL    HW219197   4.307   1.967   3.748
 6205SOL     OW19198   4.505   2.126   5.473
 6205SOL    HW119199   4.572   2.065   5.516
 6205SOL    HW219200   4.432   2.145   5.538
 6206SOL     OW19201   4.612   3.376   4.919
 6206SOL    HW119202   4.589   3.351   4.825
 6206SOL    HW219203   4.673   3.307   4.958
 6207SOL     OW19204   5.075   2.452   5.157
 6207SOL    HW119205   5.103   2.409   5.242
 6207SOL    HW219206   5.100   2.548   5.158
 6208SOL     OW19207   4.527   3.264   4.648
 6208SOL    HW119208   4.617   3.278   4.606
 6208SOL    HW219209   4.456   3.266   4.577
 6209SOL     OW19210   4.646   2.365   4.623
 6209SOL    HW119211   4.621   2.356   4.527
 6209SOL    HW219212   4.694   2.283   4.654
 6210SOL     OW19213   4.263   1.926   4.236
 6210SOL    HW119214   4.182   1.927   4.294
 6210SOL    HW219215   4.266   2.009   4.181
 6211SOL     OW19216   5.158   3.050   3.765
 6211SOL    HW119217   5.190   2.974   3.822
 6211SOL    HW219218   5.066   3.077   3.795
 6212SOL     OW19219   4.021   1.897   3.895
 6212SOL    HW119220   4.070   1.981   3.874
 6212SOL    HW219221   4.083   1.832   3.940
 6213SOL     OW19222   4.659   2.098   4.204
 6213SOL    HW119223   4.611   2.139   4.126
 6213SOL    HW219224   4.758   2.096   4.185
 6214SOL     OW19225   4.800   2.545   5.188
 6214SOL    HW119226   4.720   2.484   5.191
 6214SOL    HW219227   4.881   2.492   5.164
 6215SOL     OW19228   4.951   3.432   4.517
 6215SOL    HW119229   4.972   3.506   4.452
 6215SOL    HW219230   5.019   3.432   4.590
 6216SOL     OW19231   4.183   3.014   4.465
 6216SOL    HW119232   4.112   2.987   4.530
 6216SOL    HW219233   4.157   2.986   4.372
 6217SOL     OW19234   4.995   3.659   4.315
 6217SOL    HW119235   5.039   3.723   4.251
 6217SOL    HW219236   4.945   3.711   4.385
 6218SOL     OW19237   4.756   2.411   3.740
 6218SOL    HW119238   4.715   2.493   3.701
 6218SOL    HW219239   4.820   2.437   3.813
 6219SOL     OW19240   3.802   2.418   5.110
 6219SOL    HW119241   3.894   2.417   5.069
 6219SOL    HW219242   3.796   2.492   5.177
 6220SOL     OW19243   4.285   2.084   4.871
 6220SOL    HW119244   4.323   2.000   4.908
 6220SOL    HW219245   4.197   2.103   4.915
 6221SOL     OW19246   4.590   2.316   4.366
 6221SOL    HW119247   4.558   2.388   4.304
 6221SOL    HW219248   4.614   2.235   4.313
 6222SOL     OW19249   4.741   1.901   4.477
 6222SOL    HW119250   4.669   1.906   4.408
 6222SOL    HW219251   4.717   1.832   4.546
 6223SOL     OW19252   5.153   3.035   4.591
 6223SOL    HW119253   5.098   2.951   4.584
 6223SOL    HW219254   5.179   3.064   4.499
 6224SOL     OW19255   4.212   3.247   3.898
 6224SOL    HW119256   4.125   3.232   3.945
 6224SOL    HW219257   4.195   3.273   3.803
 6225SOL     OW19258   5.114   2.437   3.802
 6225SOL    HW119259   5.060   2.416   3.883
 6225SOL    HW219260   5.205   2.396   3.811
 6226SOL     OW19261   4.251   2.118   4.052
 6226SOL    HW119262   4.278   2.059   3.977
 6226SOL    HW219263   4.251   2.213   4.021
 6227SOL     OW19264   4.788   3.209   5.064
 6227SOL    HW119265   4.708   3.186   5.119
 6227SOL    HW219266   4.871   3.183   5.113
 6228SOL     OW19267   5.316   3.491   5.349
 6228SOL    HW119268   5.343   3.525   5.259
 6228SOL    HW219269   5.395   3.453   5.395
 6229SOL     OW19270   4.835   3.057   4.824
 6229SOL    HW119271   4.795   3.101   4.905
 6229SOL    HW219272   4.794   3.094   4.741
 6230SOL     OW19273   4.639   1.951   5.126
 6230SOL    HW119274   4.664   1.931   5.031
 6230SOL    HW219275   4.711   2.007   5.168
 6231SOL     OW19276   4.704   2.978   5.443
 6231SOL    HW119277   4.605   2.984   5.453
 6231SOL    HW219278   4.727   2.898   5.387
 6232SOL     OW19279   4.429   2.912   4.092
 6232SOL    HW119280   4.415   2.919   4.191
 6232SOL    HW219281   4.513   2.861   4.074
 6233SOL     OW19282   4.134   2.675   4.975
 6233SOL    HW119283   4.220   2.687   5.025
 6233SOL    HW219284   4.092   2.588   5.002
 6234SOL     OW19285   4.998   2.248   4.986
 6234SOL    HW119286   5.019   2.322   5.050
 6234SOL    HW219287   4.909   2.265   4.943
 6235SOL     OW19288   3.788   3.426   5.055
 6235SOL    HW119289   3.742   3.508   5.021
 6235SOL    HW219290   3.886   3.445   5.064
 6236SOL     OW19291   4.091   2.962   4.225
 6236SOL    HW119292   4.084   3.045   4.169
 6236SOL    HW219293   4.095   2.882   4.165
 6237SOL     OW19294   4.290   2.399   4.589
 6237SOL    HW119295   4.302   2.465   4.515
 6237SOL    HW219296   4.336   2.433   4.672
 6238SOL     OW19297   4.976   3.210   4.112
 6238SOL    HW119298   5.026   3.287   4.152
 6238SOL    HW219299   4.881   3.212   4.144
 6239SOL     OW19300   4.996   3.307   4.866
 6239SOL    HW119301   5.043   3.320   4.953
 6239SOL    HW219302   4.930   3.233   4.875
 6240SOL     OW19303   4.078   3.372   5.053
 6240SOL    HW119304   4.057   3.328   4.966
 6240SOL    HW219305   4.175   3.398   5.056
 6241SOL     OW19306   4.126   2.613   5.322
 6241SOL    HW119307   4.194   2.668   5.275
 6241SOL    HW219308   4.166   2.525   5.349
 6242SOL     OW19309   4.737   1.967   5.494
 6242SOL    HW119310   4.743   2.052   5.442
 6242SOL    HW219311   4.769   1.891   5.437
 6243SOL     OW19312   4.228   1.912   5.464
 6243SOL    HW119313   4.186   1.855   5.394
 6243SOL    HW219314   4.162   1.981   5.496
 6244SOL     OW19315   4.297   2.732   4.753
 6244SOL    HW119316   4.341   2.821   4.744
 6244SOL    HW219317   4.234   2.732   4.830
 6245SOL     OW19318   5.084   2.724   4.769
 6245SOL    HW119319   5.009   2.724   4.703
 6245SOL    HW219320   5.121   2.632   4.778
 6246SOL     OW19321   4.933   2.387   3.999
 6246SOL    HW119322   4.946   2.303   4.053
 6246SOL    HW219323   4.904   2.461   4.059
 6247SOL     OW19324   4.031   2.075   4.955
 6247SOL    HW119325   4.008   2.112   5.045
 6247SOL    HW219326   4.001   1.980   4.949
 6248SOL     OW19327   3.761   3.172   5.006
 6248SOL    HW119328   3.814   3.123   5.074
 6248SOL    HW219329   3.783   3.270   5.011
 6249SOL     OW19330   4.456   2.496   4.788
 6249SOL    HW119331   4.515   2.470   4.712
 6249SOL    HW219332   4.428   2.592   4.777
 6250SOL     OW19333   4.031   1.925   4.342
 6250SOL    HW119334   4.020   2.019   4.375
 6250SOL    HW219335   4.026   1.862   4.419
 6251SOL     OW19336   5.346   2.229   4.098
 6251SOL    HW119337   5.348   2.153   4.162
 6251SOL    HW219338   5.298   2.306   4.138
 6252SOL     OW19339   4.747   2.628   4.690
 6252SOL    HW119340   4.762   2.649   4.786
 6252SOL    HW219341   4.717   2.533   4.681
 6253SOL     OW19342   4.704   3.435   5.424
 6253SOL    HW119343   4.684   3.479   5.336
 6253SOL    HW219344   4.743   3.344   5.408
 6254SOL     OW19345   4.074   2.760   5.528
 6254SOL    HW119346   4.150   2.804   5.576
 6254SOL    HW219347   4.109   2.713   5.446
 6255SOL     OW19348   5.027   2.700   3.766
 6255SOL    HW119349   5.061   2.607   3.781
 6255SOL    HW219350   5.045   2.727   3.671
 6256SOL     OW19351   4.792   3.195   4.573
 6256SOL    HW119352   4.799   3.111   4.518
 6256SOL    HW219353   4.854   3.264   4.537
 6257SOL     OW19354   4.043   2.672   4.673
 6257SOL    HW119355   4.136   2.708   4.678
 6257SOL    HW219356   4.037   2.587   4.725
 6258SOL     OW19357   4.063   2.371   4.730
 6258SOL    HW119358   4.011   2.288   4.713
 6258SOL    HW219359   4.140   2.376   4.666
 6259SOL     OW19360   4.862   2.242   5.402
 6259SOL    HW119361   4.817   2.305   5.466
 6259SOL    HW219362   4.955   2.273   5.385
 6260SOL     OW19363   4.884   2.069   5.201
 6260SOL    HW119364   4.884   2.133   5.278
 6260SOL    HW219365   4.912   2.117   5.118
 6261SOL     OW19366   3.732   3.188   3.924
 6261SOL    HW119367   3.639   3.209   3.893
 6261SOL    HW219368   3.742   3.089   3.937
 6262SOL     OW19369   3.812   3.663   4.651
 6262SOL    HW119370   3.770   3.577   4.624
 6262SOL    HW219371   3.906   3.666   4.617
 6263SOL     OW19372   4.228   3.430   4.634
 6263SOL    HW119373   4.294   3.504   4.643
 6263SOL    HW219374   4.272   3.351   4.592
 6264SOL     OW19375   4.726   2.658   4.962
 6264SOL    HW119376   4.767   2.626   5.048
 6264SOL    HW219377   4.630   2.631   4.959
 6265SOL     OW19378   3.764   2.406   4.838
 6265SOL    HW119379   3.849   2.373   4.797
 6265SOL    HW219380   3.777   2.421   4.936
 6266SOL     OW19381   3.913   2.382   5.446
 6266SOL    HW119382   3.972   2.342   5.376
 6266SOL    HW219383   3.855   2.453   5.405
 6267SOL     OW19384   5.093   2.812   5.384
 6267SOL    HW119385   5.132   2.901   5.404
 6267SOL    HW219386   5.103   2.792   5.287
 6268SOL     OW19387   4.539   2.434   4.049
 6268SOL    HW119388   4.546   2.345   4.003
 6268SOL    HW219389   4.445   2.468   4.041
 6269SOL     OW19390   3.976   3.426   5.468
 6269SOL    HW119391   3.946   3.483   5.544
 6269SOL    HW219392   3.969   3.329   5.494
 6270SOL     OW19393   4.395   2.326   4.993
 6270SOL    HW119394   4.361   2.237   4.963
 6270SOL    HW219395   4.421   2.380   4.913
 6271SOL     OW19396   4.654   3.540   5.189
 6271SOL    HW119397   4.630   3.522   5.094
 6271SOL    HW219398   4.684   3.634   5.199
 6272SOL     OW19399   4.197   2.362   3.915
 6272SOL    HW119400   4.258   2.442   3.919
 6272SOL    HW219401   4.102   2.393   3.922
 6273SOL     OW19402   3.883   2.999   5.190
 6273SOL    HW119403   3.905   2.938   5.266
 6273SOL    HW219404   3.893   2.950   5.104
 6274SOL     OW19405   5.071   2.921   4.958
 6274SOL    HW119406   5.095   2.858   4.884
 6274SOL    HW219407   4.981   2.961   4.940
 6275SOL     OW19408   5.026   2.717   4.033
 6275SOL    HW119409   4.940   2.686   4.075
 6275SOL    HW219410   5.022   2.703   3.934
 6276SOL     OW19411   4.976   3.593   4.852
 6276SOL    HW119412   5.060   3.598   4.798
 6276SOL    HW219413   4.953   3.497   4.870
 6277SOL     OW19414   3.807   3.120   4.746
 6277SOL    HW119415   3.802   3.119   4.846
 6277SOL    HW219416   3.724   3.079   4.708
 6278SOL     OW19417   4.412   3.524   5.440
 6278SOL    HW119418   4.356   3.605   5.449
 6278SOL    HW219419   4.464   3.528   5.354
 6279SOL     OW19420   5.450   1.997   4.247
 6279SOL    HW119421   5.523   1.980   4.180
 6279SOL    HW219422   5.419   1.910   4.285
 6280SOL     OW19423   5.112   3.435   4.201
 6280SOL    HW119424   5.179   3.447   4.127
 6280SOL    HW219425   5.072   3.524   4.224
 6281SOL     OW19426   3.854   3.656   5.575
 6281SOL    HW119427   3.813   3.582   5.628
 6281SOL    HW219428   3.918   3.707   5.633
 6282SOL     OW19429   5.004   2.789   4.396
 6282SOL    HW119430   5.064   2.708   4.398
 6282SOL    HW219431   5.044   2.858   4.336
 6283SOL     OW19432   4.554   3.135   5.146
 6283SOL    HW119433   4.549   3.168   5.241
 6283SOL    HW219434   4.468   3.154   5.100
 6284SOL     OW19435   4.396   3.478   3.878
 6284SOL    HW119436   4.405   3.488   3.779
 6284SOL    HW219437   4.356   3.389   3.899
 6285SOL     OW19438   3.987   2.188   4.444
 6285SOL    HW119439   3.908   2.239   4.410
 6285SOL    HW219440   3.978   2.173   4.542
 6286SOL     OW19441   4.918   3.474   3.755
 6286SOL    HW119442   4.924   3.381   3.792
 6286SOL    HW219443   4.859   3.474   3.675
 6287SOL     OW19444   4.546   2.864   5.096
 6287SOL    HW119445   4.586   2.863   5.004
 6287SOL    HW219446   4.556   2.956   5.136
 6288SOL     OW19447   4.640   2.772   4.015
 6288SOL    HW119448   4.703   2.810   3.947
 6288SOL    HW219449   4.680   2.689   4.054
 6289SOL     OW19450   4.096   3.150   5.214
 6289SOL    HW119451   4.083   3.243   5.180
 6289SOL    HW219452   4.012   3.098   5.201
 6290SOL     OW19453   4.763   2.960   4.420
 6290SOL    HW119454   4.693   2.913   4.474
 6290SOL    HW219455   4.822   2.892   4.377
 6291SOL     OW19456   4.738   2.098   4.695
 6291SOL    HW119457   4.730   2.062   4.602
 6291SOL    HW219458   4.736   2.022   4.760
 6292SOL     OW19459   4.314   3.349   4.215
 6292SOL    HW119460   4.356   3.291   4.145
 6292SOL    HW219461   4.270   3.428   4.171
 6293SOL     OW19462   3.979   3.210   4.014
 6293SOL    HW119463   3.883   3.211   3.987
 6293SOL    HW219464   3.991   3.263   4.098
 6294SOL     OW19465   3.829   2.875   5.450
 6294SOL    HW119466   3.752   2.842   5.504
 6294SOL    HW219467   3.914   2.845   5.492
 6295SOL     OW19468   4.396   2.065   5.213
 6295SOL    HW119469   4.486   2.049   5.173
 6295SOL    HW219470   4.404   2.070   5.312
 6296SOL     OW19471   3.799   2.207   3.757
 6296SOL    HW119472   3.707   2.179   3.728
 6296SOL    HW219473   3.830   2.284   3.701
 6297SOL     OW19474   5.164   2.718   5.122
 6297SOL    HW119475   5.107   2.770   5.059
 6297SOL    HW219476   5.260   2.730   5.098
 6298SOL     OW19477   3.796   2.028   4.042
 6298SOL    HW119478   3.779   2.111   3.988
 6298SOL    HW219479   3.886   1.991   4.020
 6299SOL     OW19480   4.907   3.197   3.843
 6299SOL    HW119481   4.808   3.186   3.845
 6299SOL    HW219482   4.941   3.212   3.936
 6300SOL     OW19483   4.337   2.704   5.155
 6300SOL    HW119484   4.393   2.785   5.138
 6300SOL    HW219485   4.396   2.624   5.158
 6301SOL     OW19486   4.440   2.427   5.432
 6301SOL    HW119487   4.459   2.492   5.506
 6301SOL    HW219488   4.500   2.347   5.441
 6302SOL     OW19489   5.174   3.082   5.357
 6302SOL    HW119490   5.165   3.072   5.456
 6302SOL    HW219491   5.270   3.075   5.331
 6303SOL     OW19492   4.114   3.603   5.284
 6303SOL    HW119493   4.023   3.644   5.282
 6303SOL    HW219494   4.107   3.509   5.316
 6304SOL     OW19495   4.949   2.187   4.173
 6304SOL    HW119496   5.014   2.113   4.162
 6304SOL    HW219497   4.969   2.237   4.257
 6305SOL     OW19498   4.318   2.607   4.376
 6305SOL    HW119499   4.368   2.692   4.357
 6305SOL    HW219500   4.230   2.609   4.328
 6306SOL     OW19501   4.583   3.236   3.740
 6306SOL    HW119502   4.537   3.251   3.828
 6306SOL    HW219503   4.627   3.321   3.710
 6307SOL     OW19504   4.385   3.652   4.677
 6307SOL    HW119505   4.339   3.740   4.664
 6307SOL    HW219506   4.484   3.664   4.670
 6308SOL     OW19507   4.583   2.818   4.585
 6308SOL    HW119508   4.637   2.749   4.633
 6308SOL    HW219509   4.551   2.887   4.651
 6309SOL     OW19510   4.807   2.846   3.811
 6309SOL    HW119511   4.784   2.899   3.729
 6309SOL    HW219512   4.888   2.790   3.792
 6310SOL     OW19513   3.945   3.176   5.568
 6310SOL    HW119514   3.880   3.103   5.547
 6310SOL    HW219515   3.949   3.190   5.666
 6311SOL     OW19516   3.803   3.102   4.377
 6311SOL    HW119517   3.802   3.055   4.465
 6311SOL    HW219518   3.885   3.074   4.326
 6312SOL     OW19519   4.396   3.253   5.348
 6312SOL    HW119520   4.318   3.203   5.386
 6312SOL    HW219521   4.393   3.348   5.379
 6313SOL     OW19522   4.152   2.286   4.244
 6313SOL    HW119523   4.182   2.214   4.182
 6313SOL    HW219524   4.113   2.246   4.327
 6314SOL     OW19525   5.429   3.349   4.828
 6314SOL    HW119526   5.336   3.324   4.801
 6314SOL    HW219527   5.455   3.299   4.910
 6315SOL     OW19528   4.041   2.409   5.004
 6315SOL    HW119529   4.079   2.350   5.076
 6315SOL    HW219530   4.081   2.383   4.916
 6316SOL     OW19531   4.536   3.448   4.411
 6316SOL    HW119532   4.568   3.458   4.317
 6316SOL    HW219533   4.457   3.386   4.413
 6317SOL     OW19534   5.148   2.076   4.836
 6317SOL    HW119535   5.200   2.011   4.891
 6317SOL    HW219536   5.099   2.139   4.897
 6318SOL     OW19537   4.725   1.896   4.878
 6318SOL    HW119538   4.662   1.824   4.847
 6318SOL    HW219539   4.818   1.860   4.878
 6319SOL     OW19540   4.494   3.192   4.025
 6319SOL    HW119541   4.448   3.105   4.042
 6319SOL    HW219542   4.585   3.189   4.066
 6320SOL     OW19543   4.342   3.429   5.008
 6320SOL    HW119544   4.337   3.511   5.065
 6320SOL    HW219545   4.431   3.426   4.963
 6321SOL     OW19546   5.076   1.914   3.892
 6321SOL    HW119547   5.111   1.873   3.808
 6321SOL    HW219548   4.986   1.876   3.912
 6322SOL     OW19549   5.024   2.315   4.415
 6322SOL    HW119550   4.965   2.395   4.419
 6322SOL    HW219551   5.039   2.280   4.508
 6323SOL     OW19552   5.317   2.083   4.606
 6323SOL    HW119553   5.233   2.082   4.660
 6323SOL    HW219554   5.319   2.166   4.550
 6324SOL     OW19555   3.763   2.939   4.024
 6324SOL    HW119556   3.862   2.928   4.015
 6324SOL    HW219557   3.723   2.853   4.056
 6325SOL     OW19558   4.599   3.508   4.061
 6325SOL    HW119559   4.522   3.473   4.007
 6325SOL    HW219560   4.567   3.579   4.123
 6326SOL     OW19561   3.954   2.490   5.699
 6326SOL    HW119562   3.861   2.488   5.736
 6326SOL    HW219563   3.955   2.451   5.607
 6327SOL     OW19564   3.949   2.137   6.582
 6327SOL    HW119565   3.984   2.120   6.674
 6327SOL    HW219566   3.861   2.092   6.570
 6328SOL     OW19567   3.743   2.230   6.233
 6328SOL    HW119568   3.661   2.273   6.272
 6328SOL    HW219569   3.715   2.157   6.170
 6329SOL     OW19570   4.293   3.137   6.751
 6329SOL    HW119571   4.200   3.130   6.714
 6329SOL    HW219572   4.304   3.226   6.795
 6330SOL     OW19573   5.279   3.373   6.289
 6330SOL    HW119574   5.222   3.357   6.370
 6330SOL    HW219575   5.220   3.383   6.209
 6331SOL     OW19576   4.859   2.565   6.303
 6331SOL    HW119577   4.916   2.643   6.278
 6331SOL    HW219578   4.799   2.591   6.379
 6332SOL     OW19579   4.492   3.006   6.609
 6332SOL    HW119580   4.414   3.023   6.669
 6332SOL    HW219581   4.526   3.093   6.573
 6333SOL     OW19582   4.574   2.660   7.409
 6333SOL    HW119583   4.570   2.736   7.474
 6333SOL    HW219584   4.596   2.696   7.318
 6334SOL     OW19585   4.409   2.874   6.251
 6334SOL    HW119586   4.478   2.858   6.321
 6334SOL    HW219587   4.336   2.931   6.289
 6335SOL     OW19588   4.410   3.023   7.389
 6335SOL    HW119589   4.470   3.102   7.403
 6335SOL    HW219590   4.324   3.054   7.348
 6336SOL     OW19591   4.059   3.297   6.647
 6336SOL    HW119592   3.981   3.266   6.594
 6336SOL    HW219593   4.117   3.355   6.590
 6337SOL     OW19594   5.184   3.367   6.925
 6337SOL    HW119595   5.208   3.461   6.951
 6337SOL    HW219596   5.168   3.313   7.007
 6338SOL     OW19597   4.162   2.254   7.085
 6338SOL    HW119598   4.244   2.198   7.094
 6338SOL    HW219599   4.081   2.196   7.089
 6339SOL     OW19600   3.955   3.575   6.069
 6339SOL    HW119601   3.989   3.652   6.123
 6339SOL    HW219602   3.999   3.575   5.979
 6340SOL     OW19603   4.851   3.203   7.276
 6340SOL    HW119604   4.898   3.203   7.364
 6340SOL    HW219605   4.803   3.116   7.265
 6341SOL     OW19606   3.954   3.296   6.124
 6341SOL    HW119607   3.928   3.392   6.124
 6341SOL    HW219608   3.883   3.242   6.169
 6342SOL     OW19609   3.964   2.953   6.472
 6342SOL    HW119610   3.978   2.869   6.524
 6342SOL    HW219611   3.909   3.017   6.527
 6343SOL     OW19612   4.344   3.648   7.025
 6343SOL    HW119613   4.252   3.631   7.060
 6343SOL    HW219614   4.372   3.740   7.051
 6344SOL     OW19615   4.330   2.826   5.709
 6344SOL    HW119616   4.337   2.910   5.655
 6344SOL    HW219617   4.376   2.839   5.797
 6345SOL     OW19618   3.846   2.505   6.149
 6345SOL    HW119619   3.801   2.417   6.166
 6345SOL    HW219620   3.845   2.559   6.233
 6346SOL     OW19621   3.751   3.458   5.703
 6346SOL    HW119622   3.732   3.362   5.724
 6346SOL    HW219623   3.718   3.516   5.778
 6347SOL     OW19624   5.413   2.784   6.198
 6347SOL    HW119625   5.508   2.755   6.206
 6347SOL    HW219626   5.405   2.849   6.123
 6348SOL     OW19627   3.837   2.599   7.183
 6348SOL    HW119628   3.925   2.586   7.228
 6348SOL    HW219629   3.824   2.696   7.161
 6349SOL     OW19630   4.337   3.227   6.312
 6349SOL    HW119631   4.288   3.140   6.321
 6349SOL    HW219632   4.314   3.270   6.225
 6350SOL     OW19633   5.017   3.090   7.009
 6350SOL    HW119634   5.054   3.017   6.951
 6350SOL    HW219635   5.069   3.095   7.094
 6351SOL     OW19636   4.533   1.866   6.088
 6351SOL    HW119637   4.573   1.957   6.079
 6351SOL    HW219638   4.433   1.874   6.094
 6352SOL     OW19639   3.921   2.838   6.850
 6352SOL    HW119640   4.010   2.793   6.836
 6352SOL    HW219641   3.848   2.773   6.831
 6353SOL     OW19642   4.911   3.654   7.202
 6353SOL    HW119643   4.935   3.714   7.126
 6353SOL    HW219644   4.918   3.559   7.172
 6354SOL     OW19645   4.041   2.113   7.387
 6354SOL    HW119646   4.112   2.184   7.393
 6354SOL    HW219647   3.953   2.152   7.415
 6355SOL     OW19648   5.190   3.279   6.539
 6355SOL    HW119649   5.131   3.285   6.619
 6355SOL    HW219650   5.175   3.191   6.493
 6356SOL     OW19651   4.322   2.591   5.856
 6356SOL    HW119652   4.346   2.660   5.788
 6356SOL    HW219653   4.244   2.624   5.910
 6357SOL     OW19654   5.005   2.207   6.530
 6357SOL    HW119655   4.919   2.157   6.517
 6357SOL    HW219656   5.067   2.153   6.586
 6358SOL     OW19657   4.531   2.467   7.051
 6358SOL    HW119658   4.484   2.464   7.140
 6358SOL    HW219659   4.480   2.412   6.985
 6359SOL     OW19660   5.118   2.331   7.260
 6359SOL    HW119661   5.098   2.374   7.348
 6359SOL    HW219662   5.196   2.269   7.269
 6360SOL     OW19663   4.697   2.752   7.158
 6360SOL    HW119664   4.743   2.668   7.129
 6360SOL    HW219665   4.641   2.786   7.083
 6361SOL     OW19666   4.715   2.272   6.828
 6361SOL    HW119667   4.638   2.306   6.882
 6361SOL    HW219668   4.681   2.221   6.749
 6362SOL     OW19669   4.765   2.563   6.015
 6362SOL    HW119670   4.791   2.559   6.111
 6362SOL    HW219671   4.680   2.512   6.001
 6363SOL     OW19672   3.800   2.673   6.375
 6363SOL    HW119673   3.899   2.661   6.384
 6363SOL    HW219674   3.776   2.768   6.396
 6364SOL     OW19675   3.854   3.683   7.157
 6364SOL    HW119676   3.844   3.668   7.256
 6364SOL    HW219677   3.768   3.719   7.121
 6365SOL     OW19678   4.589   2.210   5.781
 6365SOL    HW119679   4.648   2.273   5.732
 6365SOL    HW219680   4.608   2.116   5.752
 6366SOL     OW19681   5.086   3.006   6.131
 6366SOL    HW119682   5.169   2.977   6.083
 6366SOL    HW219683   5.037   3.073   6.075
 6367SOL     OW19684   4.274   2.058   6.471
 6367SOL    HW119685   4.269   2.053   6.571
 6367SOL    HW219686   4.276   2.154   6.442
 6368SOL     OW19687   4.732   3.318   6.063
 6368SOL    HW119688   4.686   3.390   6.011
 6368SOL    HW219689   4.728   3.338   6.161
 6369SOL     OW19690   4.075   3.663   6.439
 6369SOL    HW119691   4.125   3.577   6.445
 6369SOL    HW219692   4.140   3.740   6.436
 6370SOL     OW19693   4.951   3.412   7.092
 6370SOL    HW119694   4.957   3.335   7.156
 6370SOL    HW219695   4.899   3.386   7.012
 6371SOL     OW19696   4.045   2.805   5.828
 6371SOL    HW119697   4.127   2.844   5.786
 6371SOL    HW219698   4.018   2.723   5.779
 6372SOL     OW19699   4.185   3.128   7.313
 6372SOL    HW119700   4.135   3.129   7.227
 6372SOL    HW219701   4.122   3.110   7.389
 6373SOL     OW19702   4.835   3.638   5.823
 6373SOL    HW119703   4.775   3.576   5.873
 6373SOL    HW219704   4.866   3.594   5.738
 6374SOL     OW19705   3.926   2.147   7.084
 6374SOL    HW119706   3.846   2.207   7.071
 6374SOL    HW219707   3.916   2.098   7.170
 6375SOL     OW19708   4.188   3.605   5.909
 6375SOL    HW119709   4.221   3.644   5.995
 6375SOL    HW219710   4.264   3.598   5.844
 6376SOL     OW19711   5.124   1.969   6.012
 6376SOL    HW119712   5.100   1.932   5.922
 6376SOL    HW219713   5.223   1.985   6.016
 6377SOL     OW19714   3.973   3.647   6.827
 6377SOL    HW119715   4.030   3.582   6.877
 6377SOL    HW219716   3.957   3.614   6.734
 6378SOL     OW19717   4.664   3.560   6.490
 6378SOL    HW119718   4.744   3.503   6.511
 6378SOL    HW219719   4.615   3.520   6.413
 6379SOL     OW19720   4.106   2.562   6.066
 6379SOL    HW119721   4.151   2.472   6.063
 6379SOL    HW219722   4.012   2.551   6.099
 6380SOL     OW19723   4.338   1.984   5.703
 6380SOL    HW119724   4.436   1.962   5.710
 6380SOL    HW219725   4.307   1.967   5.610
 6381SOL     OW19726   4.505   2.126   7.335
 6381SOL    HW119727   4.572   2.065   7.378
 6381SOL    HW219728   4.432   2.145   7.400
 6382SOL     OW19729   4.612   3.376   6.781
 6382SOL    HW119730   4.589   3.351   6.687
 6382SOL    HW219731   4.673   3.307   6.820
 6383SOL     OW19732   5.075   2.452   7.019
 6383SOL    HW119733   5.103   2.409   7.104
 6383SOL    HW219734   5.100   2.548   7.020
 6384SOL     OW19735   4.527   3.264   6.510
 6384SOL    HW119736   4.617   3.278   6.468
 6384SOL    HW219737   4.456   3.266   6.439
 6385SOL     OW19738   4.646   2.365   6.485
 6385SOL    HW119739   4.621   2.356   6.389
 6385SOL    HW219740   4.694   2.283   6.516
 6386SOL     OW19741   4.263   1.926   6.098
 6386SOL    HW119742   4.182   1.927   6.156
 6386SOL    HW219743   4.266   2.009   6.043
 6387SOL     OW19744   5.158   3.050   5.627
 6387SOL    HW119745   5.190   2.974   5.684
 6387SOL    HW219746   5.066   3.077   5.657
 6388SOL     OW19747   4.021   1.897   5.757
 6388SOL    HW119748   4.070   1.981   5.736
 6388SOL    HW219749   4.083   1.832   5.802
 6389SOL     OW19750   4.659   2.098   6.066
 6389SOL    HW119751   4.611   2.139   5.988
 6389SOL    HW219752   4.758   2.096   6.047
 6390SOL     OW19753   4.800   2.545   7.050
 6390SOL    HW119754   4.720   2.484   7.053
 6390SOL    HW219755   4.881   2.492   7.026
 6391SOL     OW19756   4.951   3.432   6.379
 6391SOL    HW119757   4.972   3.506   6.314
 6391SOL    HW219758   5.019   3.432   6.452
 6392SOL     OW19759   4.183   3.014   6.327
 6392SOL    HW119760   4.112   2.987   6.392
 6392SOL    HW219761   4.157   2.986   6.234
 6393SOL     OW19762   4.995   3.659   6.177
 6393SOL    HW119763   5.039   3.723   6.113
 6393SOL    HW219764   4.945   3.711   6.247
 6394SOL     OW19765   4.756   2.411   5.602
 6394SOL    HW119766   4.715   2.493   5.563
 6394SOL    HW219767   4.820   2.437   5.675
 6395SOL     OW19768   3.802   2.418   6.972
 6395SOL    HW119769   3.894   2.417   6.931
 6395SOL    HW219770   3.796   2.492   7.039
 6396SOL     OW19771   4.285   2.084   6.733
 6396SOL    HW119772   4.323   2.000   6.770
 6396SOL    HW219773   4.197   2.103   6.777
 6397SOL     OW19774   4.590   2.316   6.228
 6397SOL    HW119775   4.558   2.388   6.166
 6397SOL    HW219776   4.614   2.235   6.175
 6398SOL     OW19777   4.741   1.901   6.339
 6398SOL    HW119778   4.669   1.906   6.270
 6398SOL    HW219779   4.717   1.832   6.408
 6399SOL     OW19780   5.153   3.035   6.453
 6399SOL    HW119781   5.098   2.951   6.446
 6399SOL    HW219782   5.179   3.064   6.361
 6400SOL     OW19783   4.212   3.247   5.760
 6400SOL    HW119784   4.125   3.232   5.807
 6400SOL    HW219785   4.195   3.273   5.665
 6401SOL     OW19786   5.114   2.437   5.664
 6401SOL    HW119787   5.060   2.416   5.745
 6401SOL    HW219788   5.205   2.396   5.673
 6402SOL     OW19789   4.251   2.118   5.914
 6402SOL    HW119790   4.278   2.059   5.839
 6402SOL    HW219791   4.251   2.213   5.883
 6403SOL     OW19792   4.788   3.209   6.926
 6403SOL    HW119793   4.708   3.186   6.981
 6403SOL    HW219794   4.871   3.183   6.975
 6404SOL     OW19795   5.316   3.491   7.211
 6404SOL    HW119796   5.343   3.525   7.121
 6404SOL    HW219797   5.395   3.453   7.257
 6405SOL     OW19798   4.835   3.057   6.686
 6405SOL    HW119799   4.795   3.101   6.767
 6405SOL    HW219800   4.794   3.094   6.603
 6406SOL     OW19801   4.639   1.951   6.988
 6406SOL    HW119802   4.664   1.931   6.893
 6406SOL    HW219803   4.711   2.007   7.030
 6407SOL     OW19804   4.704   2.978   7.305
 6407SOL    HW119805   4.605   2.984   7.315
 6407SOL    HW219806   4.727   2.898   7.249
 6408SOL     OW19807   4.429   2.912   5.954
 6408SOL    HW119808   4.415   2.919   6.053
 6408SOL    HW219809   4.513   2.861   5.936
 6409SOL     OW19810   4.134   2.675   6.837
 6409SOL    HW119811   4.220   2.687   6.887
 6409SOL    HW219812   4.092   2.588   6.864
 6410SOL     OW19813   4.998   2.248   6.848
 6410SOL    HW119814   5.019   2.322   6.912
 6410SOL    HW219815   4.909   2.265   6.805
 6411SOL     OW19816   3.788   3.426   6.917
 6411SOL    HW119817   3.742   3.508   6.883
 6411SOL    HW219818   3.886   3.445   6.926
 6412SOL     OW19819   4.091   2.962   6.087
 6412SOL    HW119820   4.084   3.045   6.031
 6412SOL    HW219821   4.095   2.882   6.027
 6413SOL     OW19822   4.290   2.399   6.451
 6413SOL    HW119823   4.302   2.465   6.377
 6413SOL    HW219824   4.336   2.433   6.534
 6414SOL     OW19825   4.976   3.210   5.974
 6414SOL    HW119826   5.026   3.287   6.014
 6414SOL    HW219827   4.881   3.212   6.006
 6415SOL     OW19828   4.996   3.307   6.728
 6415SOL    HW119829   5.043   3.320   6.815
 6415SOL    HW219830   4.930   3.233   6.737
 6416SOL     OW19831   4.078   3.372   6.915
 6416SOL    HW119832   4.057   3.328   6.828
 6416SOL    HW219833   4.175   3.398   6.918
 6417SOL     OW19834   4.126   2.613   7.184
 6417SOL    HW119835   4.194   2.668   7.137
 6417SOL    HW219836   4.166   2.525   7.211
 6418SOL     OW19837   4.737   1.967   7.356
 6418SOL    HW119838   4.743   2.052   7.304
 6418SOL    HW219839   4.769   1.891   7.299
 6419SOL     OW19840   4.228   1.912   7.326
 6419SOL    HW119841   4.186   1.855   7.256
 6419SOL    HW219842   4.162   1.981   7.358
 6420SOL     OW19843   4.297   2.732   6.615
 6420SOL    HW119844   4.341   2.821   6.606
 6420SOL    HW219845   4.234   2.732   6.692
 6421SOL     OW19846   5.084   2.724   6.631
 6421SOL    HW119847   5.009   2.724   6.565
 6421SOL    HW219848   5.121   2.632   6.640
 6422SOL     OW19849   4.933   2.387   5.861
 6422SOL    HW119850   4.946   2.303   5.915
 6422SOL    HW219851   4.904   2.461   5.921
 6423SOL     OW19852   4.031   2.075   6.817
 6423SOL    HW119853   4.008   2.112   6.907
 6423SOL    HW219854   4.001   1.980   6.811
 6424SOL     OW19855   3.761   3.172   6.868
 6424SOL    HW119856   3.814   3.123   6.936
 6424SOL    HW219857   3.783   3.270   6.873
 6425SOL     OW19858   4.456   2.496   6.650
 6425SOL    HW119859   4.515   2.470   6.574
 6425SOL    HW219860   4.428   2.592   6.639
 6426SOL     OW19861   4.031   1.925   6.204
 6426SOL    HW119862   4.020   2.019   6.237
 6426SOL    HW219863   4.026   1.862   6.281
 6427SOL     OW19864   5.346   2.229   5.960
 6427SOL    HW119865   5.348   2.153   6.024
 6427SOL    HW219866   5.298   2.306   6.000
 6428SOL     OW19867   4.747   2.628   6.552
 6428SOL    HW119868   4.762   2.649   6.648
 6428SOL    HW219869   4.717   2.533   6.543
 6429SOL     OW19870   4.704   3.435   7.286
 6429SOL    HW119871   4.684   3.479   7.198
 6429SOL    HW219872   4.743   3.344   7.270
 6430SOL     OW19873   4.074   2.760   7.390
 6430SOL    HW119874   4.150   2.804   7.438
 6430SOL    HW219875   4.109   2.713   7.308
 6431SOL     OW19876   5.027   2.700   5.628
 6431SOL    HW119877   5.061   2.607   5.643
 6431SOL    HW219878   5.045   2.727   5.533
 6432SOL     OW19879   4.792   3.195   6.435
 6432SOL    HW119880   4.799   3.111   6.380
 6432SOL    HW219881   4.854   3.264   6.399
 6433SOL     OW19882   4.043   2.672   6.535
 6433SOL    HW119883   4.136   2.708   6.540
 6433SOL    HW219884   4.037   2.587   6.587
 6434SOL     OW19885   4.063   2.371   6.592
 6434SOL    HW119886   4.011   2.288   6.575
 6434SOL    HW219887   4.140   2.376   6.528
 6435SOL     OW19888   4.862   2.242   7.264
 6435SOL    HW119889   4.817   2.305   7.328
 6435SOL    HW219890   4.955   2.273   7.247
 6436SOL     OW19891   4.884   2.069   7.063
 6436SOL    HW119892   4.884   2.133   7.140
 6436SOL    HW219893   4.912   2.117   6.980
 6437SOL     OW19894   3.732   3.188   5.786
 6437SOL    HW119895   3.639   3.209   5.755
 6437SOL    HW219896   3.742   3.089   5.799
 6438SOL     OW19897   3.812   3.663   6.513
 6438SOL    HW119898   3.770   3.577   6.486
 6438SOL    HW219899   3.906   3.666   6.479
 6439SOL     OW19900   4.228   3.430   6.496
 6439SOL    HW119901   4.294   3.504   6.505
 6439SOL    HW219902   4.272   3.351   6.454
 6440SOL     OW19903   4.726   2.658   6.824
 6440SOL    HW119904   4.767   2.626   6.910
 6440SOL    HW219905   4.630   2.631   6.821
 6441SOL     OW19906   3.764   2.406   6.700
 6441SOL    HW119907   3.849   2.373   6.659
 6441SOL    HW219908   3.777   2.421   6.798
 6442SOL     OW19909   3.913   2.382   7.308
 6442SOL    HW119910   3.972   2.342   7.238
 6442SOL    HW219911   3.855   2.453   7.267
 6443SOL     OW19912   5.093   2.812   7.246
 6443SOL    HW119913   5.132   2.901   7.266
 6443SOL    HW219914   5.103   2.792   7.149
 6444SOL     OW19915   4.539   2.434   5.911
 6444SOL    HW119916   4.546   2.345   5.865
 6444SOL    HW219917   4.445   2.468   5.903
 6445SOL     OW19918   3.976   3.426   7.330
 6445SOL    HW119919   3.946   3.483   7.406
 6445SOL    HW219920   3.969   3.329   7.356
 6446SOL     OW19921   4.395   2.326   6.855
 6446SOL    HW119922   4.361   2.237   6.825
 6446SOL    HW219923   4.421   2.380   6.775
 6447SOL     OW19924   4.654   3.540   7.051
 6447SOL    HW119925   4.630   3.522   6.956
 6447SOL    HW219926   4.684   3.634   7.061
 6448SOL     OW19927   4.197   2.362   5.777
 6448SOL    HW119928   4.258   2.442   5.781
 6448SOL    HW219929   4.102   2.393   5.784
 6449SOL     OW19930   3.883   2.999   7.052
 6449SOL    HW119931   3.905   2.938   7.128
 6449SOL    HW219932   3.893   2.950   6.966
 6450SOL     OW19933   5.071   2.921   6.820
 6450SOL    HW119934   5.095   2.858   6.746
 6450SOL    HW219935   4.981   2.961   6.802
 6451SOL     OW19936   5.026   2.717   5.895
 6451SOL    HW119937   4.940   2.686   5.937
 6451SOL    HW219938   5.022   2.703   5.796
 6452SOL     OW19939   4.976   3.593   6.714
 6452SOL    HW119940   5.060   3.598   6.660
 6452SOL    HW219941   4.953   3.497   6.732
 6453SOL     OW19942   3.807   3.120   6.608
 6453SOL    HW119943   3.802   3.119   6.708
 6453SOL    HW219944   3.724   3.079   6.570
 6454SOL     OW19945   4.412   3.524   7.302
 6454SOL    HW119946   4.356   3.605   7.311
 6454SOL    HW219947   4.464   3.528   7.216
 6455SOL     OW19948   5.450   1.997   6.109
 6455SOL    HW119949   5.523   1.980   6.042
 6455SOL    HW219950   5.419   1.910   6.147
 6456SOL     OW19951   5.112   3.435   6.063
 6456SOL    HW119952   5.179   3.447   5.989
 6456SOL    HW219953   5.072   3.524   6.086
 6457SOL     OW19954   3.854   3.656   7.437
 6457SOL    HW119955   3.813   3.582   7.490
 6457SOL    HW219956   3.918   3.707   7.495
 6458SOL     OW19957   5.004   2.789   6.258
 6458SOL    HW119958   5.064   2.708   6.260
 6458SOL    HW219959   5.044   2.858   6.198
 6459SOL     OW19960   4.554   3.135   7.008
 6459SOL    HW119961   4.549   3.168   7.103
 6459SOL    HW219962   4.468   3.154   6.962
 6460SOL     OW19963   4.396   3.478   5.740
 6460SOL    HW119964   4.405   3.488   5.641
 6460SOL    HW219965   4.356   3.389   5.761
 6461SOL     OW19966   3.987   2.188   6.306
 6461SOL    HW119967   3.908   2.239   6.272
 6461SOL    HW219968   3.978   2.173   6.404
 6462SOL     OW19969   4.918   3.474   5.617
 6462SOL    HW119970   4.924   3.381   5.654
 6462SOL    HW219971   4.859   3.474   5.537
 6463SOL     OW19972   4.546   2.864   6.958
 6463SOL    HW119973   4.586   2.863   6.866
 6463SOL    HW219974   4.556   2.956   6.998
 6464SOL     OW19975   4.640   2.772   5.877
 6464SOL    HW119976   4.703   2.810   5.809
 6464SOL    HW219977   4.680   2.689   5.916
 6465SOL     OW19978   4.096   3.150   7.076
 6465SOL    HW119979   4.083   3.243   7.042
 6465SOL    HW219980   4.012   3.098   7.063
 6466SOL     OW19981   4.763   2.960   6.282
 6466SOL    HW119982   4.693   2.913   6.336
 6466SOL    HW219983   4.822   2.892   6.239
 6467SOL     OW19984   4.738   2.098   6.557
 6467SOL    HW119985   4.730   2.062   6.464
 6467SOL    HW219986   4.736   2.022   6.622
 6468SOL     OW19987   4.314   3.349   6.077
 6468SOL    HW119988   4.356   3.291   6.007
 6468SOL    HW219989   4.270   3.428   6.033
 6469SOL     OW19990   3.979   3.210   5.876
 6469SOL    HW119991   3.883   3.211   5.849
 6469SOL    HW219992   3.991   3.263   5.960
 6470SOL     OW19993   3.829   2.875   7.312
 6470SOL    HW119994   3.752   2.842   7.366
 6470SOL    HW219995   3.914   2.845   7.354
 6471SOL     OW19996   4.396   2.065   7.075
 6471SOL    HW119997   4.486   2.049   7.035
 6471SOL    HW219998   4.404   2.070   7.174
 6472SOL     OW19999   3.799   2.207   5.619
 6472SOL    HW120000   3.707   2.179   5.590
 6472SOL    HW220001   3.830   2.284   5.563
 6473SOL     OW20002   5.164   2.718   6.984
 6473SOL    HW120003   5.107   2.770   6.921
 6473SOL    HW220004   5.260   2.730   6.960
 6474SOL     OW20005   3.796   2.028   5.904
 6474SOL    HW120006   3.779   2.111   5.850
 6474SOL    HW220007   3.886   1.991   5.882
 6475SOL     OW20008   4.907   3.197   5.705
 6475SOL    HW120009   4.808   3.186   5.707
 6475SOL    HW220010   4.941   3.212   5.798
 6476SOL     OW20011   4.337   2.704   7.017
 6476SOL    HW120012   4.393   2.785   7.000
 6476SOL    HW220013   4.396   2.624   7.020
 6477SOL     OW20014   4.440   2.427   7.294
 6477SOL    HW120015   4.459   2.492   7.368
 6477SOL    HW220016   4.500   2.347   7.303
 6478SOL     OW20017   5.174   3.082   7.219
 6478SOL    HW120018   5.165   3.072   7.318
 6478SOL    HW220019   5.270   3.075   7.193
 6479SOL     OW20020   4.114   3.603   7.146
 6479SOL    HW120021   4.023   3.644   7.144
 6479SOL    HW220022   4.107   3.509   7.178
 6480SOL     OW20023   4.949   2.187   6.035
 6480SOL    HW120024   5.014   2.113   6.024
 6480SOL    HW220025   4.969   2.237   6.119
 6481SOL     OW20026   4.318   2.607   6.238
 6481SOL    HW120027   4.368   2.692   6.219
 6481SOL    HW220028   4.230   2.609   6.190
 6482SOL     OW20029   4.583   3.236   5.602
 6482SOL    HW120030   4.537   3.251   5.690
 6482SOL    HW220031   4.627   3.321   5.572
 6483SOL     OW20032   4.385   3.652   6.539
 6483SOL    HW120033   4.339   3.740   6.526
 6483SOL    HW220034   4.484   3.664   6.532
 6484SOL     OW20035   4.583   2.818   6.447
 6484SOL    HW120036   4.637   2.749   6.495
 6484SOL    HW220037   4.551   2.887   6.513
 6485SOL     OW20038   4.807   2.846   5.673
 6485SOL    HW120039   4.784   2.899   5.591
 6485SOL    HW220040   4.888   2.790   5.654
 6486SOL     OW20041   3.945   3.176   7.430
 6486SOL    HW120042   3.880   3.103   7.409
 6486SOL    HW220043   3.949   3.190   7.528
 6487SOL     OW20044   3.803   3.102   6.239
 6487SOL    HW120045   3.802   3.055   6.327
 6487SOL    HW220046   3.885   3.074   6.188
 6488SOL     OW20047   4.396   3.253   7.210
 6488SOL    HW120048   4.318   3.203   7.248
 6488SOL    HW220049   4.393   3.348   7.241
 6489SOL     OW20050   4.152   2.286   6.106
 6489SOL    HW120051   4.182   2.214   6.044
 6489SOL    HW220052   4.113   2.246   6.189
 6490SOL     OW20053   5.429   3.349   6.690
 6490SOL    HW120054   5.336   3.324   6.663
 6490SOL    HW220055   5.455   3.299   6.772
 6491SOL     OW20056   4.041   2.409   6.866
 6491SOL    HW120057   4.079   2.350   6.938
 6491SOL    HW220058   4.081   2.383   6.778
 6492SOL     OW20059   4.536   3.448   6.273
 6492SOL    HW120060   4.568   3.458   6.179
 6492SOL    HW220061   4.457   3.386   6.275
 6493SOL     OW20062   5.148   2.076   6.698
 6493SOL    HW120063   5.200   2.011   6.753
 6493SOL    HW220064   5.099   2.139   6.759
 6494SOL     OW20065   4.725   1.896   6.740
 6494SOL    HW120066   4.662   1.824   6.709
 6494SOL    HW220067   4.818   1.860   6.740
 6495SOL     OW20068   4.494   3.192   5.887
 6495SOL    HW120069   4.448   3.105   5.904
 6495SOL    HW220070   4.585   3.189   5.928
 6496SOL     OW20071   4.342   3.429   6.870
 6496SOL    HW120072   4.337   3.511   6.927
 6496SOL    HW220073   4.431   3.426   6.825
 6497SOL     OW20074   5.076   1.914   5.754
 6497SOL    HW120075   5.111   1.873   5.670
 6497SOL    HW220076   4.986   1.876   5.774
 6498SOL     OW20077   5.024   2.315   6.277
 6498SOL    HW120078   4.965   2.395   6.281
 6498SOL    HW220079   5.039   2.280   6.370
 6499SOL     OW20080   5.317   2.083   6.468
 6499SOL    HW120081   5.233   2.082   6.522
 6499SOL    HW220082   5.319   2.166   6.412
 6500SOL     OW20083   3.763   2.939   5.886
 6500SOL    HW120084   3.862   2.928   5.877
 6500SOL    HW220085   3.723   2.853   5.918
 6501SOL     OW20086   4.599   3.508   5.923
 6501SOL    HW120087   4.522   3.473   5.869
 6501SOL    HW220088   4.567   3.579   5.985
 6502SOL     OW20089   3.954   2.490   7.561
 6502SOL    HW120090   3.861   2.488   7.598
 6502SOL    HW220091   3.955   2.451   7.469
 6503SOL     OW20092   3.955   3.575   7.931
 6503SOL    HW120093   3.989   3.652   7.985
 6503SOL    HW220094   3.999   3.575   7.841
 6504SOL     OW20095   3.954   3.296   7.986
 6504SOL    HW120096   3.928   3.392   7.986
 6504SOL    HW220097   3.883   3.242   8.031
 6505SOL     OW20098   4.330   2.826   7.571
 6505SOL    HW120099   4.337   2.910   7.517
 6505SOL    HW220100   4.376   2.839   7.659
 6506SOL     OW20101   3.751   3.458   7.565
 6506SOL    HW120102   3.732   3.362   7.586
 6506SOL    HW220103   3.718   3.516   7.640
 6507SOL     OW20104   5.413   2.784   8.060
 6507SOL    HW120105   5.508   2.755   8.068
 6507SOL    HW220106   5.405   2.849   7.985
 6508SOL     OW20107   4.533   1.866   7.950
 6508SOL    HW120108   4.573   1.957   7.941
 6508SOL    HW220109   4.433   1.874   7.956
 6509SOL     OW20110   4.322   2.591   7.718
 6509SOL    HW120111   4.346   2.660   7.650
 6509SOL    HW220112   4.244   2.624   7.772
 6510SOL     OW20113   3.800   2.673   8.237
 6510SOL    HW120114   3.899   2.661   8.246
 6510SOL    HW220115   3.776   2.768   8.258
 6511SOL     OW20116   4.589   2.210   7.643
 6511SOL    HW120117   4.648   2.273   7.594
 6511SOL    HW220118   4.608   2.116   7.614
 6512SOL     OW20119   4.045   2.805   7.690
 6512SOL    HW120120   4.127   2.844   7.648
 6512SOL    HW220121   4.018   2.723   7.641
 6513SOL     OW20122   4.835   3.638   7.685
 6513SOL    HW120123   4.775   3.576   7.735
 6513SOL    HW220124   4.866   3.594   7.600
 6514SOL     OW20125   4.188   3.605   7.771
 6514SOL    HW120126   4.221   3.644   7.857
 6514SOL    HW220127   4.264   3.598   7.706
 6515SOL     OW20128   5.124   1.969   7.874
 6515SOL    HW120129   5.100   1.932   7.784
 6515SOL    HW220130   5.223   1.985   7.878
 6516SOL     OW20131   4.106   2.562   7.928
 6516SOL    HW120132   4.151   2.472   7.925
 6516SOL    HW220133   4.012   2.551   7.961
 6517SOL     OW20134   4.338   1.984   7.565
 6517SOL    HW120135   4.436   1.962   7.572
 6517SOL    HW220136   4.307   1.967   7.472
 6518SOL     OW20137   4.263   1.926   7.960
 6518SOL    HW120138   4.182   1.927   8.018
 6518SOL    HW220139   4.266   2.009   7.905
 6519SOL     OW20140   5.158   3.050   7.489
 6519SOL    HW120141   5.190   2.974   7.546
 6519SOL    HW220142   5.066   3.077   7.519
 6520SOL     OW20143   4.021   1.897   7.619
 6520SOL    HW120144   4.070   1.981   7.598
 6520SOL    HW220145   4.083   1.832   7.664
 6521SOL     OW20146   4.659   2.098   7.928
 6521SOL    HW120147   4.611   2.139   7.850
 6521SOL    HW220148   4.758   2.096   7.909
 6522SOL     OW20149   4.183   3.014   8.189
 6522SOL    HW120150   4.112   2.987   8.254
 6522SOL    HW220151   4.157   2.986   8.096
 6523SOL     OW20152   4.995   3.659   8.039
 6523SOL    HW120153   5.039   3.723   7.975
 6523SOL    HW220154   4.945   3.711   8.109
 6524SOL     OW20155   4.756   2.411   7.464
 6524SOL    HW120156   4.715   2.493   7.425
 6524SOL    HW220157   4.820   2.437   7.537
 6525SOL     OW20158   4.212   3.247   7.622
 6525SOL    HW120159   4.125   3.232   7.669
 6525SOL    HW220160   4.195   3.273   7.527
 6526SOL     OW20161   5.114   2.437   7.526
 6526SOL    HW120162   5.060   2.416   7.607
 6526SOL    HW220163   5.205   2.396   7.535
 6527SOL     OW20164   4.251   2.118   7.776
 6527SOL    HW120165   4.278   2.059   7.701
 6527SOL    HW220166   4.251   2.213   7.745
 6528SOL     OW20167   4.429   2.912   7.816
 6528SOL    HW120168   4.415   2.919   7.915
 6528SOL    HW220169   4.513   2.861   7.798
 6529SOL     OW20170   4.091   2.962   7.949
 6529SOL    HW120171   4.084   3.045   7.893
 6529SOL    HW220172   4.095   2.882   7.889
 6530SOL     OW20173   4.976   3.210   7.836
 6530SOL    HW120174   5.026   3.287   7.876
 6530SOL    HW220175   4.881   3.212   7.868
 6531SOL     OW20176   5.306   2.501   7.920
 6531SOL    HW120177   5.275   2.562   7.993
 6531SOL    HW220178   5.356   2.553   7.851
 6532SOL     OW20179   4.933   2.387   7.723
 6532SOL    HW120180   4.946   2.303   7.777
 6532SOL    HW220181   4.904   2.461   7.783
 6533SOL     OW20182   5.346   2.229   7.822
 6533SOL    HW120183   5.348   2.153   7.886
 6533SOL    HW220184   5.298   2.306   7.862
 6534SOL     OW20185   5.027   2.700   7.490
 6534SOL    HW120186   5.061   2.607   7.505
 6534SOL    HW220187   5.045   2.727   7.395
 6535SOL     OW20188   3.732   3.188   7.648
 6535SOL    HW120189   3.639   3.209   7.617
 6535SOL    HW220190   3.742   3.089   7.661
 6536SOL     OW20191   4.539   2.434   7.773
 6536SOL    HW120192   4.546   2.345   7.727
 6536SOL    HW220193   4.445   2.468   7.765
 6537SOL     OW20194   4.197   2.362   7.639
 6537SOL    HW120195   4.258   2.442   7.643
 6537SOL    HW220196   4.102   2.393   7.646
 6538SOL     OW20197   5.026   2.717   7.757
 6538SOL    HW120198   4.940   2.686   7.799
 6538SOL    HW220199   5.022   2.703   7.658
 6539SOL     OW20200   5.450   1.997   7.971
 6539SOL    HW120201   5.523   1.980   7.904
 6539SOL    HW220202   5.419   1.910   8.009
 6540SOL     OW20203   5.112   3.435   7.925
 6540SOL    HW120204   5.179   3.447   7.851
 6540SOL    HW220205   5.072   3.524   7.948
 6541SOL     OW20206   4.396   3.478   7.602
 6541SOL    HW120207   4.405   3.488   7.503
 6541SOL    HW220208   4.356   3.389   7.623
 6542SOL     OW20209   4.918   3.474   7.479
 6542SOL    HW120210   4.924   3.381   7.516
 6542SOL    HW220211   4.859   3.474   7.399
 6543SOL     OW20212   4.640   2.772   7.739
 6543SOL    HW120213   4.703   2.810   7.671
 6543SOL    HW220214   4.680   2.689   7.778
 6544SOL     OW20215   4.314   3.349   7.939
 6544SOL    HW120216   4.356   3.291   7.869
 6544SOL    HW220217   4.270   3.428   7.895
 6545SOL     OW20218   3.979   3.210   7.738
 6545SOL    HW120219   3.883   3.211   7.711
 6545SOL    HW220220   3.991   3.263   7.822
 6546SOL     OW20221   3.799   2.207   7.481
 6546SOL    HW120222   3.707   2.179   7.452
 6546SOL    HW220223   3.830   2.284   7.425
 6547SOL     OW20224   3.796   2.028   7.766
 6547SOL    HW120225   3.779   2.111   7.712
 6547SOL    HW220226   3.886   1.991   7.744
 6548SOL     OW20227   4.907   3.197   7.567
 6548SOL    HW120228   4.808   3.186   7.569
 6548SOL    HW220229   4.941   3.212   7.660
 6549SOL     OW20230   5.217   3.629   8.407
 6549SOL    HW120231   5.250   3.693   8.338
 6549SOL    HW220232   5.283   3.623   8.482
 6550SOL     OW20233   4.949   2.187   7.897
 6550SOL    HW120234   5.014   2.113   7.886
 6550SOL    HW220235   4.969   2.237   7.981
 6551SOL     OW20236   4.318   2.607   8.100
 6551SOL    HW120237   4.368   2.692   8.081
 6551SOL    HW220238   4.230   2.609   8.052
 6552SOL     OW20239   4.583   3.236   7.464
 6552SOL    HW120240   4.537   3.251   7.552
 6552SOL    HW220241   4.627   3.321   7.434
 6553SOL     OW20242   4.807   2.846   7.535
 6553SOL    HW120243   4.784   2.899   7.453
 6553SOL    HW220244   4.888   2.790   7.516
 6554SOL     OW20245   4.152   2.286   7.968
 6554SOL    HW120246   4.182   2.214   7.906
 6554SOL    HW220247   4.113   2.246   8.051
 6555SOL     OW20248   4.494   3.192   7.749
 6555SOL    HW120249   4.448   3.105   7.766
 6555SOL    HW220250   4.585   3.189   7.790
 6556SOL     OW20251   5.076   1.914   7.616
 6556SOL    HW120252   5.111   1.873   7.532
 6556SOL    HW220253   4.986   1.876   7.636
 6557SOL     OW20254   3.763   2.939   7.748
 6557SOL    HW120255   3.862   2.928   7.739
 6557SOL    HW220256   3.723   2.853   7.780
 6558SOL     OW20257   4.599   3.508   7.785
 6558SOL    HW120258   4.522   3.473   7.731
 6558SOL    HW220259   4.567   3.579   7.847
 6559SOL     OW20260   3.954   4.352   0.113
 6559SOL    HW120261   3.861   4.350   0.150
 6559SOL    HW220262   3.955   4.313   0.021
 6560SOL     OW20263   3.949   3.999   0.996
 6560SOL    HW120264   3.984   3.982   1.088
 6560SOL    HW220265   3.861   3.954   0.984
 6561SOL     OW20266   3.743   4.092   0.647
 6561SOL    HW120267   3.661   4.135   0.686
 6561SOL    HW220268   3.715   4.019   0.584
 6562SOL     OW20269   4.293   4.999   1.165
 6562SOL    HW120270   4.200   4.992   1.128
 6562SOL    HW220271   4.304   5.088   1.209
 6563SOL     OW20272   5.279   5.235   0.703
 6563SOL    HW120273   5.222   5.219   0.784
 6563SOL    HW220274   5.220   5.245   0.623
 6564SOL     OW20275   4.859   4.427   0.717
 6564SOL    HW120276   4.916   4.505   0.692
 6564SOL    HW220277   4.799   4.453   0.793
 6565SOL     OW20278   4.492   4.868   1.023
 6565SOL    HW120279   4.414   4.885   1.083
 6565SOL    HW220280   4.526   4.955   0.987
 6566SOL     OW20281   4.574   4.522   1.823
 6566SOL    HW120282   4.570   4.598   1.888
 6566SOL    HW220283   4.596   4.558   1.732
 6567SOL     OW20284   4.409   4.736   0.665
 6567SOL    HW120285   4.478   4.720   0.735
 6567SOL    HW220286   4.336   4.793   0.703
 6568SOL     OW20287   4.410   4.885   1.803
 6568SOL    HW120288   4.470   4.964   1.817
 6568SOL    HW220289   4.324   4.916   1.762
 6569SOL     OW20290   4.059   5.159   1.061
 6569SOL    HW120291   3.981   5.128   1.008
 6569SOL    HW220292   4.117   5.217   1.004
 6570SOL     OW20293   5.184   5.229   1.339
 6570SOL    HW120294   5.208   5.323   1.365
 6570SOL    HW220295   5.168   5.175   1.421
 6571SOL     OW20296   4.162   4.116   1.499
 6571SOL    HW120297   4.244   4.060   1.508
 6571SOL    HW220298   4.081   4.058   1.503
 6572SOL     OW20299   4.851   5.065   1.690
 6572SOL    HW120300   4.898   5.065   1.778
 6572SOL    HW220301   4.803   4.978   1.679
 6573SOL     OW20302   3.954   5.158   0.538
 6573SOL    HW120303   3.928   5.254   0.538
 6573SOL    HW220304   3.883   5.104   0.583
 6574SOL     OW20305   3.964   4.815   0.886
 6574SOL    HW120306   3.978   4.731   0.938
 6574SOL    HW220307   3.909   4.879   0.941
 6575SOL     OW20308   4.330   4.688   0.123
 6575SOL    HW120309   4.337   4.772   0.069
 6575SOL    HW220310   4.376   4.701   0.211
 6576SOL     OW20311   3.846   4.367   0.563
 6576SOL    HW120312   3.801   4.279   0.580
 6576SOL    HW220313   3.845   4.421   0.647
 6577SOL     OW20314   3.751   5.320   0.117
 6577SOL    HW120315   3.732   5.224   0.138
 6577SOL    HW220316   3.718   5.378   0.192
 6578SOL     OW20317   5.413   4.646   0.612
 6578SOL    HW120318   5.508   4.617   0.620
 6578SOL    HW220319   5.405   4.711   0.537
 6579SOL     OW20320   3.837   4.461   1.597
 6579SOL    HW120321   3.925   4.448   1.642
 6579SOL    HW220322   3.824   4.558   1.575
 6580SOL     OW20323   4.337   5.089   0.726
 6580SOL    HW120324   4.288   5.002   0.735
 6580SOL    HW220325   4.314   5.132   0.639
 6581SOL     OW20326   5.017   4.952   1.423
 6581SOL    HW120327   5.054   4.879   1.365
 6581SOL    HW220328   5.069   4.957   1.508
 6582SOL     OW20329   4.533   3.728   0.502
 6582SOL    HW120330   4.573   3.819   0.493
 6582SOL    HW220331   4.433   3.736   0.508
 6583SOL     OW20332   3.921   4.700   1.264
 6583SOL    HW120333   4.010   4.655   1.250
 6583SOL    HW220334   3.848   4.635   1.245
 6584SOL     OW20335   4.041   3.975   1.801
 6584SOL    HW120336   4.112   4.046   1.807
 6584SOL    HW220337   3.953   4.014   1.829
 6585SOL     OW20338   5.190   5.141   0.953
 6585SOL    HW120339   5.131   5.147   1.033
 6585SOL    HW220340   5.175   5.053   0.907
 6586SOL     OW20341   5.391   5.438   0.572
 6586SOL    HW120342   5.350   5.415   0.484
 6586SOL    HW220343   5.373   5.364   0.637
 6587SOL     OW20344   4.322   4.453   0.270
 6587SOL    HW120345   4.346   4.522   0.202
 6587SOL    HW220346   4.244   4.486   0.324
 6588SOL     OW20347   5.005   4.069   0.944
 6588SOL    HW120348   4.919   4.019   0.931
 6588SOL    HW220349   5.067   4.015   1.000
 6589SOL     OW20350   4.531   4.329   1.465
 6589SOL    HW120351   4.484   4.326   1.554
 6589SOL    HW220352   4.480   4.274   1.399
 6590SOL     OW20353   5.118   4.193   1.674
 6590SOL    HW120354   5.098   4.236   1.762
 6590SOL    HW220355   5.196   4.131   1.683
 6591SOL     OW20356   4.697   4.614   1.572
 6591SOL    HW120357   4.743   4.530   1.543
 6591SOL    HW220358   4.641   4.648   1.497
 6592SOL     OW20359   4.715   4.134   1.242
 6592SOL    HW120360   4.638   4.168   1.296
 6592SOL    HW220361   4.681   4.083   1.163
 6593SOL     OW20362   4.765   4.425   0.429
 6593SOL    HW120363   4.791   4.421   0.525
 6593SOL    HW220364   4.680   4.374   0.415
 6594SOL     OW20365   3.800   4.535   0.789
 6594SOL    HW120366   3.899   4.523   0.798
 6594SOL    HW220367   3.776   4.630   0.810
 6595SOL     OW20368   4.589   4.072   0.195
 6595SOL    HW120369   4.648   4.135   0.146
 6595SOL    HW220370   4.608   3.978   0.166
 6596SOL     OW20371   5.086   4.868   0.545
 6596SOL    HW120372   5.169   4.839   0.497
 6596SOL    HW220373   5.037   4.935   0.489
 6597SOL     OW20374   4.274   3.920   0.885
 6597SOL    HW120375   4.269   3.915   0.985
 6597SOL    HW220376   4.276   4.016   0.856
 6598SOL     OW20377   4.732   5.180   0.477
 6598SOL    HW120378   4.686   5.252   0.425
 6598SOL    HW220379   4.728   5.200   0.575
 6599SOL     OW20380   4.951   5.274   1.506
 6599SOL    HW120381   4.957   5.197   1.570
 6599SOL    HW220382   4.899   5.248   1.426
 6600SOL     OW20383   4.045   4.667   0.242
 6600SOL    HW120384   4.127   4.706   0.200
 6600SOL    HW220385   4.018   4.585   0.193
 6601SOL     OW20386   4.185   4.990   1.727
 6601SOL    HW120387   4.135   4.991   1.641
 6601SOL    HW220388   4.122   4.972   1.803
 6602SOL     OW20389   4.835   5.500   0.237
 6602SOL    HW120390   4.775   5.438   0.287
 6602SOL    HW220391   4.866   5.456   0.152
 6603SOL     OW20392   3.926   4.009   1.498
 6603SOL    HW120393   3.846   4.069   1.485
 6603SOL    HW220394   3.916   3.960   1.584
 6604SOL     OW20395   5.124   3.831   0.426
 6604SOL    HW120396   5.100   3.794   0.336
 6604SOL    HW220397   5.223   3.847   0.430
 6605SOL     OW20398   4.106   4.424   0.480
 6605SOL    HW120399   4.151   4.334   0.477
 6605SOL    HW220400   4.012   4.413   0.513
 6606SOL     OW20401   4.338   3.846   0.117
 6606SOL    HW120402   4.436   3.824   0.124
 6606SOL    HW220403   4.307   3.829   0.024
 6607SOL     OW20404   4.505   3.988   1.749
 6607SOL    HW120405   4.572   3.927   1.792
 6607SOL    HW220406   4.432   4.007   1.814
 6608SOL     OW20407   5.075   4.314   1.433
 6608SOL    HW120408   5.103   4.271   1.518
 6608SOL    HW220409   5.100   4.410   1.434
 6609SOL     OW20410   4.527   5.126   0.924
 6609SOL    HW120411   4.617   5.140   0.882
 6609SOL    HW220412   4.456   5.128   0.853
 6610SOL     OW20413   4.646   4.227   0.899
 6610SOL    HW120414   4.621   4.218   0.803
 6610SOL    HW220415   4.694   4.145   0.930
 6611SOL     OW20416   4.263   3.788   0.512
 6611SOL    HW120417   4.182   3.789   0.570
 6611SOL    HW220418   4.266   3.871   0.457
 6612SOL     OW20419   5.158   4.912   0.041
 6612SOL    HW120420   5.190   4.836   0.098
 6612SOL    HW220421   5.066   4.939   0.071
 6613SOL     OW20422   4.021   3.759   0.171
 6613SOL    HW120423   4.070   3.843   0.150
 6613SOL    HW220424   4.083   3.694   0.216
 6614SOL     OW20425   4.659   3.960   0.480
 6614SOL    HW120426   4.611   4.001   0.402
 6614SOL    HW220427   4.758   3.958   0.461
 6615SOL     OW20428   4.800   4.407   1.464
 6615SOL    HW120429   4.720   4.346   1.467
 6615SOL    HW220430   4.881   4.354   1.440
 6616SOL     OW20431   4.951   5.294   0.793
 6616SOL    HW120432   4.972   5.368   0.728
 6616SOL    HW220433   5.019   5.294   0.866
 6617SOL     OW20434   4.183   4.876   0.741
 6617SOL    HW120435   4.112   4.849   0.806
 6617SOL    HW220436   4.157   4.848   0.648
 6618SOL     OW20437   4.756   4.273   0.016
 6618SOL    HW120438   4.715   4.355  -0.023
 6618SOL    HW220439   4.820   4.299   0.089
 6619SOL     OW20440   3.802   4.280   1.386
 6619SOL    HW120441   3.894   4.279   1.345
 6619SOL    HW220442   3.796   4.354   1.453
 6620SOL     OW20443   4.285   3.946   1.147
 6620SOL    HW120444   4.323   3.862   1.184
 6620SOL    HW220445   4.197   3.965   1.191
 6621SOL     OW20446   4.590   4.178   0.642
 6621SOL    HW120447   4.558   4.250   0.580
 6621SOL    HW220448   4.614   4.097   0.589
 6622SOL     OW20449   4.741   3.763   0.753
 6622SOL    HW120450   4.669   3.768   0.684
 6622SOL    HW220451   4.717   3.694   0.822
 6623SOL     OW20452   5.153   4.897   0.867
 6623SOL    HW120453   5.098   4.813   0.860
 6623SOL    HW220454   5.179   4.926   0.775
 6624SOL     OW20455   4.212   5.109   0.174
 6624SOL    HW120456   4.125   5.094   0.221
 6624SOL    HW220457   4.195   5.135   0.079
 6625SOL     OW20458   5.114   4.299   0.078
 6625SOL    HW120459   5.060   4.278   0.159
 6625SOL    HW220460   5.205   4.258   0.087
 6626SOL     OW20461   4.251   3.980   0.328
 6626SOL    HW120462   4.278   3.921   0.253
 6626SOL    HW220463   4.251   4.075   0.297
 6627SOL     OW20464   4.788   5.071   1.340
 6627SOL    HW120465   4.708   5.048   1.395
 6627SOL    HW220466   4.871   5.045   1.389
 6628SOL     OW20467   4.835   4.919   1.100
 6628SOL    HW120468   4.795   4.963   1.181
 6628SOL    HW220469   4.794   4.956   1.017
 6629SOL     OW20470   4.639   3.813   1.402
 6629SOL    HW120471   4.664   3.793   1.307
 6629SOL    HW220472   4.711   3.869   1.444
 6630SOL     OW20473   4.704   4.840   1.719
 6630SOL    HW120474   4.605   4.846   1.729
 6630SOL    HW220475   4.727   4.760   1.663
 6631SOL     OW20476   4.429   4.774   0.368
 6631SOL    HW120477   4.415   4.781   0.467
 6631SOL    HW220478   4.513   4.723   0.350
 6632SOL     OW20479   4.134   4.537   1.251
 6632SOL    HW120480   4.220   4.549   1.301
 6632SOL    HW220481   4.092   4.450   1.278
 6633SOL     OW20482   4.998   4.110   1.262
 6633SOL    HW120483   5.019   4.184   1.326
 6633SOL    HW220484   4.909   4.127   1.219
 6634SOL     OW20485   4.091   4.824   0.501
 6634SOL    HW120486   4.084   4.907   0.445
 6634SOL    HW220487   4.095   4.744   0.441
 6635SOL     OW20488   4.290   4.261   0.865
 6635SOL    HW120489   4.302   4.327   0.791
 6635SOL    HW220490   4.336   4.295   0.948
 6636SOL     OW20491   4.976   5.072   0.388
 6636SOL    HW120492   5.026   5.149   0.428
 6636SOL    HW220493   4.881   5.074   0.420
 6637SOL     OW20494   4.996   5.169   1.142
 6637SOL    HW120495   5.043   5.182   1.229
 6637SOL    HW220496   4.930   5.095   1.151
 6638SOL     OW20497   4.078   5.234   1.329
 6638SOL    HW120498   4.057   5.190   1.242
 6638SOL    HW220499   4.175   5.260   1.332
 6639SOL     OW20500   4.126   4.475   1.598
 6639SOL    HW120501   4.194   4.530   1.551
 6639SOL    HW220502   4.166   4.387   1.625
 6640SOL     OW20503   4.737   3.829   1.770
 6640SOL    HW120504   4.743   3.914   1.718
 6640SOL    HW220505   4.769   3.753   1.713
 6641SOL     OW20506   4.228   3.774   1.740
 6641SOL    HW120507   4.186   3.717   1.670
 6641SOL    HW220508   4.162   3.843   1.772
 6642SOL     OW20509   4.297   4.594   1.029
 6642SOL    HW120510   4.341   4.683   1.020
 6642SOL    HW220511   4.234   4.594   1.106
 6643SOL     OW20512   5.084   4.586   1.045
 6643SOL    HW120513   5.009   4.586   0.979
 6643SOL    HW220514   5.121   4.494   1.054
 6644SOL     OW20515   4.933   4.249   0.275
 6644SOL    HW120516   4.946   4.165   0.329
 6644SOL    HW220517   4.904   4.323   0.335
 6645SOL     OW20518   4.031   3.937   1.231
 6645SOL    HW120519   4.008   3.974   1.321
 6645SOL    HW220520   4.001   3.842   1.225
 6646SOL     OW20521   3.761   5.034   1.282
 6646SOL    HW120522   3.814   4.985   1.350
 6646SOL    HW220523   3.783   5.132   1.287
 6647SOL     OW20524   4.456   4.358   1.064
 6647SOL    HW120525   4.515   4.332   0.988
 6647SOL    HW220526   4.428   4.454   1.053
 6648SOL     OW20527   4.031   3.787   0.618
 6648SOL    HW120528   4.020   3.881   0.651
 6648SOL    HW220529   4.026   3.724   0.695
 6649SOL     OW20530   5.346   4.091   0.374
 6649SOL    HW120531   5.348   4.015   0.438
 6649SOL    HW220532   5.298   4.168   0.414
 6650SOL     OW20533   4.747   4.490   0.966
 6650SOL    HW120534   4.762   4.511   1.062
 6650SOL    HW220535   4.717   4.395   0.957
 6651SOL     OW20536   4.074   4.622   1.804
 6651SOL    HW120537   4.150   4.666   1.852
 6651SOL    HW220538   4.109   4.575   1.722
 6652SOL     OW20539   5.027   4.562   0.042
 6652SOL    HW120540   5.061   4.469   0.057
 6652SOL    HW220541   5.045   4.589  -0.053
 6653SOL     OW20542   4.792   5.057   0.849
 6653SOL    HW120543   4.799   4.973   0.794
 6653SOL    HW220544   4.854   5.126   0.813
 6654SOL     OW20545   4.043   4.534   0.949
 6654SOL    HW120546   4.136   4.570   0.954
 6654SOL    HW220547   4.037   4.449   1.001
 6655SOL     OW20548   4.063   4.233   1.006
 6655SOL    HW120549   4.011   4.150   0.989
 6655SOL    HW220550   4.140   4.238   0.942
 6656SOL     OW20551   4.862   4.104   1.678
 6656SOL    HW120552   4.817   4.167   1.742
 6656SOL    HW220553   4.955   4.135   1.661
 6657SOL     OW20554   4.884   3.931   1.477
 6657SOL    HW120555   4.884   3.995   1.554
 6657SOL    HW220556   4.912   3.979   1.394
 6658SOL     OW20557   3.732   5.050   0.200
 6658SOL    HW120558   3.639   5.071   0.169
 6658SOL    HW220559   3.742   4.951   0.213
 6659SOL     OW20560   4.726   4.520   1.238
 6659SOL    HW120561   4.767   4.488   1.324
 6659SOL    HW220562   4.630   4.493   1.235
 6660SOL     OW20563   3.764   4.268   1.114
 6660SOL    HW120564   3.849   4.235   1.073
 6660SOL    HW220565   3.777   4.283   1.212
 6661SOL     OW20566   3.913   4.244   1.722
 6661SOL    HW120567   3.972   4.204   1.652
 6661SOL    HW220568   3.855   4.315   1.681
 6662SOL     OW20569   5.093   4.674   1.660
 6662SOL    HW120570   5.132   4.763   1.680
 6662SOL    HW220571   5.103   4.654   1.563
 6663SOL     OW20572   4.539   4.296   0.325
 6663SOL    HW120573   4.546   4.207   0.279
 6663SOL    HW220574   4.445   4.330   0.317
 6664SOL     OW20575   3.976   5.288   1.744
 6664SOL    HW120576   3.946   5.345   1.820
 6664SOL    HW220577   3.969   5.191   1.770
 6665SOL     OW20578   4.395   4.188   1.269
 6665SOL    HW120579   4.361   4.099   1.239
 6665SOL    HW220580   4.421   4.242   1.189
 6666SOL     OW20581   4.197   4.224   0.191
 6666SOL    HW120582   4.258   4.304   0.195
 6666SOL    HW220583   4.102   4.255   0.198
 6667SOL     OW20584   3.883   4.861   1.466
 6667SOL    HW120585   3.905   4.800   1.542
 6667SOL    HW220586   3.893   4.812   1.380
 6668SOL     OW20587   5.071   4.783   1.234
 6668SOL    HW120588   5.095   4.720   1.160
 6668SOL    HW220589   4.981   4.823   1.216
 6669SOL     OW20590   5.026   4.579   0.309
 6669SOL    HW120591   4.940   4.548   0.351
 6669SOL    HW220592   5.022   4.565   0.210
 6670SOL     OW20593   3.807   4.982   1.022
 6670SOL    HW120594   3.802   4.981   1.122
 6670SOL    HW220595   3.724   4.941   0.984
 6671SOL     OW20596   4.412   5.386   1.716
 6671SOL    HW120597   4.356   5.467   1.725
 6671SOL    HW220598   4.464   5.390   1.630
 6672SOL     OW20599   4.627   3.810   0.133
 6672SOL    HW120600   4.678   3.811   0.047
 6672SOL    HW220601   4.683   3.768   0.204
 6673SOL     OW20602   5.450   3.859   0.523
 6673SOL    HW120603   5.523   3.842   0.456
 6673SOL    HW220604   5.419   3.772   0.561
 6674SOL     OW20605   5.004   4.651   0.672
 6674SOL    HW120606   5.064   4.570   0.674
 6674SOL    HW220607   5.044   4.720   0.612
 6675SOL     OW20608   4.554   4.997   1.422
 6675SOL    HW120609   4.549   5.030   1.517
 6675SOL    HW220610   4.468   5.016   1.376
 6676SOL     OW20611   3.987   4.050   0.720
 6676SOL    HW120612   3.908   4.101   0.686
 6676SOL    HW220613   3.978   4.035   0.818
 6677SOL     OW20614   4.918   5.336   0.031
 6677SOL    HW120615   4.924   5.243   0.068
 6677SOL    HW220616   4.859   5.336  -0.049
 6678SOL     OW20617   4.546   4.726   1.372
 6678SOL    HW120618   4.586   4.725   1.280
 6678SOL    HW220619   4.556   4.818   1.412
 6679SOL     OW20620   4.640   4.634   0.291
 6679SOL    HW120621   4.703   4.672   0.223
 6679SOL    HW220622   4.680   4.551   0.330
 6680SOL     OW20623   4.096   5.012   1.490
 6680SOL    HW120624   4.083   5.105   1.456
 6680SOL    HW220625   4.012   4.960   1.477
 6681SOL     OW20626   4.763   4.822   0.696
 6681SOL    HW120627   4.693   4.775   0.750
 6681SOL    HW220628   4.822   4.754   0.653
 6682SOL     OW20629   4.738   3.960   0.971
 6682SOL    HW120630   4.730   3.924   0.878
 6682SOL    HW220631   4.736   3.884   1.036
 6683SOL     OW20632   3.979   5.072   0.290
 6683SOL    HW120633   3.883   5.073   0.263
 6683SOL    HW220634   3.991   5.125   0.374
 6684SOL     OW20635   3.829   4.737   1.726
 6684SOL    HW120636   3.752   4.704   1.780
 6684SOL    HW220637   3.914   4.707   1.768
 6685SOL     OW20638   4.396   3.927   1.489
 6685SOL    HW120639   4.486   3.911   1.449
 6685SOL    HW220640   4.404   3.932   1.588
 6686SOL     OW20641   3.799   4.069   0.033
 6686SOL    HW120642   3.707   4.041   0.004
 6686SOL    HW220643   3.830   4.146  -0.023
 6687SOL     OW20644   5.164   4.580   1.398
 6687SOL    HW120645   5.107   4.632   1.335
 6687SOL    HW220646   5.260   4.592   1.374
 6688SOL     OW20647   3.796   3.890   0.318
 6688SOL    HW120648   3.779   3.973   0.264
 6688SOL    HW220649   3.886   3.853   0.296
 6689SOL     OW20650   4.907   5.059   0.119
 6689SOL    HW120651   4.808   5.048   0.121
 6689SOL    HW220652   4.941   5.074   0.212
 6690SOL     OW20653   4.337   4.566   1.431
 6690SOL    HW120654   4.393   4.647   1.414
 6690SOL    HW220655   4.396   4.486   1.434
 6691SOL     OW20656   4.440   4.289   1.708
 6691SOL    HW120657   4.459   4.354   1.782
 6691SOL    HW220658   4.500   4.209   1.717
 6692SOL     OW20659   5.174   4.944   1.633
 6692SOL    HW120660   5.165   4.934   1.732
 6692SOL    HW220661   5.270   4.937   1.607
 6693SOL     OW20662   4.949   4.049   0.449
 6693SOL    HW120663   5.014   3.975   0.438
 6693SOL    HW220664   4.969   4.099   0.533
 6694SOL     OW20665   4.318   4.469   0.652
 6694SOL    HW120666   4.368   4.554   0.633
 6694SOL    HW220667   4.230   4.471   0.604
 6695SOL     OW20668   4.583   5.098   0.016
 6695SOL    HW120669   4.537   5.113   0.104
 6695SOL    HW220670   4.627   5.183  -0.014
 6696SOL     OW20671   4.583   4.680   0.861
 6696SOL    HW120672   4.637   4.611   0.909
 6696SOL    HW220673   4.551   4.749   0.927
 6697SOL     OW20674   4.807   4.708   0.087
 6697SOL    HW120675   4.784   4.761   0.005
 6697SOL    HW220676   4.888   4.652   0.068
 6698SOL     OW20677   3.945   5.038   1.844
 6698SOL    HW120678   3.880   4.965   1.823
 6698SOL    HW220679   3.949   5.052   1.942
 6699SOL     OW20680   3.803   4.964   0.653
 6699SOL    HW120681   3.802   4.917   0.741
 6699SOL    HW220682   3.885   4.936   0.602
 6700SOL     OW20683   4.396   5.115   1.624
 6700SOL    HW120684   4.318   5.065   1.662
 6700SOL    HW220685   4.393   5.210   1.655
 6701SOL     OW20686   4.152   4.148   0.520
 6701SOL    HW120687   4.182   4.076   0.458
 6701SOL    HW220688   4.113   4.108   0.603
 6702SOL     OW20689   5.429   5.211   1.104
 6702SOL    HW120690   5.336   5.186   1.077
 6702SOL    HW220691   5.455   5.161   1.186
 6703SOL     OW20692   4.041   4.271   1.280
 6703SOL    HW120693   4.079   4.212   1.352
 6703SOL    HW220694   4.081   4.245   1.192
 6704SOL     OW20695   5.148   3.938   1.112
 6704SOL    HW120696   5.200   3.873   1.167
 6704SOL    HW220697   5.099   4.001   1.173
 6705SOL     OW20698   4.725   3.758   1.154
 6705SOL    HW120699   4.662   3.686   1.123
 6705SOL    HW220700   4.818   3.722   1.154
 6706SOL     OW20701   4.494   5.054   0.301
 6706SOL    HW120702   4.448   4.967   0.318
 6706SOL    HW220703   4.585   5.051   0.342
 6707SOL     OW20704   4.342   5.291   1.284
 6707SOL    HW120705   4.337   5.373   1.341
 6707SOL    HW220706   4.431   5.288   1.239
 6708SOL     OW20707   5.076   3.776   0.168
 6708SOL    HW120708   5.111   3.735   0.084
 6708SOL    HW220709   4.986   3.738   0.188
 6709SOL     OW20710   5.024   4.177   0.691
 6709SOL    HW120711   4.965   4.257   0.695
 6709SOL    HW220712   5.039   4.142   0.784
 6710SOL     OW20713   5.317   3.945   0.882
 6710SOL    HW120714   5.233   3.944   0.936
 6710SOL    HW220715   5.319   4.028   0.826
 6711SOL     OW20716   3.763   4.801   0.300
 6711SOL    HW120717   3.862   4.790   0.291
 6711SOL    HW220718   3.723   4.715   0.332
 6712SOL     OW20719   3.954   4.352   1.975
 6712SOL    HW120720   3.861   4.350   2.012
 6712SOL    HW220721   3.955   4.313   1.883
 6713SOL     OW20722   3.949   3.999   2.858
 6713SOL    HW120723   3.984   3.982   2.950
 6713SOL    HW220724   3.861   3.954   2.846
 6714SOL     OW20725   3.743   4.092   2.509
 6714SOL    HW120726   3.661   4.135   2.548
 6714SOL    HW220727   3.715   4.019   2.446
 6715SOL     OW20728   4.293   4.999   3.027
 6715SOL    HW120729   4.200   4.992   2.990
 6715SOL    HW220730   4.304   5.088   3.071
 6716SOL     OW20731   5.279   5.235   2.565
 6716SOL    HW120732   5.222   5.219   2.646
 6716SOL    HW220733   5.220   5.245   2.485
 6717SOL     OW20734   4.859   4.427   2.579
 6717SOL    HW120735   4.916   4.505   2.554
 6717SOL    HW220736   4.799   4.453   2.655
 6718SOL     OW20737   4.492   4.868   2.885
 6718SOL    HW120738   4.414   4.885   2.945
 6718SOL    HW220739   4.526   4.955   2.849
 6719SOL     OW20740   4.574   4.522   3.685
 6719SOL    HW120741   4.570   4.598   3.750
 6719SOL    HW220742   4.596   4.558   3.594
 6720SOL     OW20743   4.409   4.736   2.527
 6720SOL    HW120744   4.478   4.720   2.597
 6720SOL    HW220745   4.336   4.793   2.565
 6721SOL     OW20746   4.410   4.885   3.665
 6721SOL    HW120747   4.470   4.964   3.679
 6721SOL    HW220748   4.324   4.916   3.624
 6722SOL     OW20749   4.059   5.159   2.923
 6722SOL    HW120750   3.981   5.128   2.870
 6722SOL    HW220751   4.117   5.217   2.866
 6723SOL     OW20752   5.184   5.229   3.201
 6723SOL    HW120753   5.208   5.323   3.227
 6723SOL    HW220754   5.168   5.175   3.283
 6724SOL     OW20755   4.162   4.116   3.361
 6724SOL    HW120756   4.244   4.060   3.370
 6724SOL    HW220757   4.081   4.058   3.365
 6725SOL     OW20758   4.851   5.065   3.552
 6725SOL    HW120759   4.898   5.065   3.640
 6725SOL    HW220760   4.803   4.978   3.541
 6726SOL     OW20761   3.954   5.158   2.400
 6726SOL    HW120762   3.928   5.254   2.400
 6726SOL    HW220763   3.883   5.104   2.445
 6727SOL     OW20764   3.964   4.815   2.748
 6727SOL    HW120765   3.978   4.731   2.800
 6727SOL    HW220766   3.909   4.879   2.803
 6728SOL     OW20767   4.330   4.688   1.985
 6728SOL    HW120768   4.337   4.772   1.931
 6728SOL    HW220769   4.376   4.701   2.073
 6729SOL     OW20770   3.846   4.367   2.425
 6729SOL    HW120771   3.801   4.279   2.442
 6729SOL    HW220772   3.845   4.421   2.509
 6730SOL     OW20773   3.751   5.320   1.979
 6730SOL    HW120774   3.732   5.224   2.000
 6730SOL    HW220775   3.718   5.378   2.054
 6731SOL     OW20776   5.413   4.646   2.474
 6731SOL    HW120777   5.508   4.617   2.482
 6731SOL    HW220778   5.405   4.711   2.399
 6732SOL     OW20779   3.837   4.461   3.459
 6732SOL    HW120780   3.925   4.448   3.504
 6732SOL    HW220781   3.824   4.558   3.437
 6733SOL     OW20782   4.337   5.089   2.588
 6733SOL    HW120783   4.288   5.002   2.597
 6733SOL    HW220784   4.314   5.132   2.501
 6734SOL     OW20785   5.017   4.952   3.285
 6734SOL    HW120786   5.054   4.879   3.227
 6734SOL    HW220787   5.069   4.957   3.370
 6735SOL     OW20788   4.533   3.728   2.364
 6735SOL    HW120789   4.573   3.819   2.355
 6735SOL    HW220790   4.433   3.736   2.370
 6736SOL     OW20791   3.921   4.700   3.126
 6736SOL    HW120792   4.010   4.655   3.112
 6736SOL    HW220793   3.848   4.635   3.107
 6737SOL     OW20794   4.041   3.975   3.663
 6737SOL    HW120795   4.112   4.046   3.669
 6737SOL    HW220796   3.953   4.014   3.691
 6738SOL     OW20797   5.190   5.141   2.815
 6738SOL    HW120798   5.131   5.147   2.895
 6738SOL    HW220799   5.175   5.053   2.769
 6739SOL     OW20800   5.391   5.438   2.434
 6739SOL    HW120801   5.350   5.415   2.346
 6739SOL    HW220802   5.373   5.364   2.499
 6740SOL     OW20803   4.322   4.453   2.132
 6740SOL    HW120804   4.346   4.522   2.064
 6740SOL    HW220805   4.244   4.486   2.186
 6741SOL     OW20806   5.005   4.069   2.806
 6741SOL    HW120807   4.919   4.019   2.793
 6741SOL    HW220808   5.067   4.015   2.862
 6742SOL     OW20809   4.531   4.329   3.327
 6742SOL    HW120810   4.484   4.326   3.416
 6742SOL    HW220811   4.480   4.274   3.261
 6743SOL     OW20812   5.118   4.193   3.536
 6743SOL    HW120813   5.098   4.236   3.624
 6743SOL    HW220814   5.196   4.131   3.545
 6744SOL     OW20815   4.697   4.614   3.434
 6744SOL    HW120816   4.743   4.530   3.405
 6744SOL    HW220817   4.641   4.648   3.359
 6745SOL     OW20818   4.715   4.134   3.104
 6745SOL    HW120819   4.638   4.168   3.158
 6745SOL    HW220820   4.681   4.083   3.025
 6746SOL     OW20821   4.765   4.425   2.291
 6746SOL    HW120822   4.791   4.421   2.387
 6746SOL    HW220823   4.680   4.374   2.277
 6747SOL     OW20824   3.800   4.535   2.651
 6747SOL    HW120825   3.899   4.523   2.660
 6747SOL    HW220826   3.776   4.630   2.672
 6748SOL     OW20827   4.589   4.072   2.057
 6748SOL    HW120828   4.648   4.135   2.008
 6748SOL    HW220829   4.608   3.978   2.028
 6749SOL     OW20830   5.086   4.868   2.407
 6749SOL    HW120831   5.169   4.839   2.359
 6749SOL    HW220832   5.037   4.935   2.351
 6750SOL     OW20833   4.274   3.920   2.747
 6750SOL    HW120834   4.269   3.915   2.847
 6750SOL    HW220835   4.276   4.016   2.718
 6751SOL     OW20836   4.732   5.180   2.339
 6751SOL    HW120837   4.686   5.252   2.287
 6751SOL    HW220838   4.728   5.200   2.437
 6752SOL     OW20839   4.951   5.274   3.368
 6752SOL    HW120840   4.957   5.197   3.432
 6752SOL    HW220841   4.899   5.248   3.288
 6753SOL     OW20842   4.045   4.667   2.104
 6753SOL    HW120843   4.127   4.706   2.062
 6753SOL    HW220844   4.018   4.585   2.055
 6754SOL     OW20845   4.185   4.990   3.589
 6754SOL    HW120846   4.135   4.991   3.503
 6754SOL    HW220847   4.122   4.972   3.665
 6755SOL     OW20848   4.835   5.500   2.099
 6755SOL    HW120849   4.775   5.438   2.149
 6755SOL    HW220850   4.866   5.456   2.014
 6756SOL     OW20851   3.926   4.009   3.360
 6756SOL    HW120852   3.846   4.069   3.347
 6756SOL    HW220853   3.916   3.960   3.446
 6757SOL     OW20854   5.124   3.831   2.288
 6757SOL    HW120855   5.100   3.794   2.198
 6757SOL    HW220856   5.223   3.847   2.292
 6758SOL     OW20857   4.106   4.424   2.342
 6758SOL    HW120858   4.151   4.334   2.339
 6758SOL    HW220859   4.012   4.413   2.375
 6759SOL     OW20860   4.338   3.846   1.979
 6759SOL    HW120861   4.436   3.824   1.986
 6759SOL    HW220862   4.307   3.829   1.886
 6760SOL     OW20863   4.505   3.988   3.611
 6760SOL    HW120864   4.572   3.927   3.654
 6760SOL    HW220865   4.432   4.007   3.676
 6761SOL     OW20866   5.075   4.314   3.295
 6761SOL    HW120867   5.103   4.271   3.380
 6761SOL    HW220868   5.100   4.410   3.296
 6762SOL     OW20869   4.527   5.126   2.786
 6762SOL    HW120870   4.617   5.140   2.744
 6762SOL    HW220871   4.456   5.128   2.715
 6763SOL     OW20872   4.646   4.227   2.761
 6763SOL    HW120873   4.621   4.218   2.665
 6763SOL    HW220874   4.694   4.145   2.792
 6764SOL     OW20875   4.263   3.788   2.374
 6764SOL    HW120876   4.182   3.789   2.432
 6764SOL    HW220877   4.266   3.871   2.319
 6765SOL     OW20878   5.158   4.912   1.903
 6765SOL    HW120879   5.190   4.836   1.960
 6765SOL    HW220880   5.066   4.939   1.933
 6766SOL     OW20881   4.021   3.759   2.033
 6766SOL    HW120882   4.070   3.843   2.012
 6766SOL    HW220883   4.083   3.694   2.078
 6767SOL     OW20884   4.659   3.960   2.342
 6767SOL    HW120885   4.611   4.001   2.264
 6767SOL    HW220886   4.758   3.958   2.323
 6768SOL     OW20887   4.800   4.407   3.326
 6768SOL    HW120888   4.720   4.346   3.329
 6768SOL    HW220889   4.881   4.354   3.302
 6769SOL     OW20890   4.951   5.294   2.655
 6769SOL    HW120891   4.972   5.368   2.590
 6769SOL    HW220892   5.019   5.294   2.728
 6770SOL     OW20893   4.183   4.876   2.603
 6770SOL    HW120894   4.112   4.849   2.668
 6770SOL    HW220895   4.157   4.848   2.510
 6771SOL     OW20896   4.756   4.273   1.878
 6771SOL    HW120897   4.715   4.355   1.839
 6771SOL    HW220898   4.820   4.299   1.951
 6772SOL     OW20899   3.802   4.280   3.248
 6772SOL    HW120900   3.894   4.279   3.207
 6772SOL    HW220901   3.796   4.354   3.315
 6773SOL     OW20902   4.285   3.946   3.009
 6773SOL    HW120903   4.323   3.862   3.046
 6773SOL    HW220904   4.197   3.965   3.053
 6774SOL     OW20905   4.590   4.178   2.504
 6774SOL    HW120906   4.558   4.250   2.442
 6774SOL    HW220907   4.614   4.097   2.451
 6775SOL     OW20908   4.741   3.763   2.615
 6775SOL    HW120909   4.669   3.768   2.546
 6775SOL    HW220910   4.717   3.694   2.684
 6776SOL     OW20911   5.153   4.897   2.729
 6776SOL    HW120912   5.098   4.813   2.722
 6776SOL    HW220913   5.179   4.926   2.637
 6777SOL     OW20914   4.212   5.109   2.036
 6777SOL    HW120915   4.125   5.094   2.083
 6777SOL    HW220916   4.195   5.135   1.941
 6778SOL     OW20917   5.114   4.299   1.940
 6778SOL    HW120918   5.060   4.278   2.021
 6778SOL    HW220919   5.205   4.258   1.949
 6779SOL     OW20920   4.251   3.980   2.190
 6779SOL    HW120921   4.278   3.921   2.115
 6779SOL    HW220922   4.251   4.075   2.159
 6780SOL     OW20923   4.788   5.071   3.202
 6780SOL    HW120924   4.708   5.048   3.257
 6780SOL    HW220925   4.871   5.045   3.251
 6781SOL     OW20926   4.835   4.919   2.962
 6781SOL    HW120927   4.795   4.963   3.043
 6781SOL    HW220928   4.794   4.956   2.879
 6782SOL     OW20929   4.639   3.813   3.264
 6782SOL    HW120930   4.664   3.793   3.169
 6782SOL    HW220931   4.711   3.869   3.306
 6783SOL     OW20932   4.704   4.840   3.581
 6783SOL    HW120933   4.605   4.846   3.591
 6783SOL    HW220934   4.727   4.760   3.525
 6784SOL     OW20935   4.429   4.774   2.230
 6784SOL    HW120936   4.415   4.781   2.329
 6784SOL    HW220937   4.513   4.723   2.212
 6785SOL     OW20938   4.134   4.537   3.113
 6785SOL    HW120939   4.220   4.549   3.163
 6785SOL    HW220940   4.092   4.450   3.140
 6786SOL     OW20941   4.998   4.110   3.124
 6786SOL    HW120942   5.019   4.184   3.188
 6786SOL    HW220943   4.909   4.127   3.081
 6787SOL     OW20944   4.091   4.824   2.363
 6787SOL    HW120945   4.084   4.907   2.307
 6787SOL    HW220946   4.095   4.744   2.303
 6788SOL     OW20947   4.290   4.261   2.727
 6788SOL    HW120948   4.302   4.327   2.653
 6788SOL    HW220949   4.336   4.295   2.810
 6789SOL     OW20950   4.976   5.072   2.250
 6789SOL    HW120951   5.026   5.149   2.290
 6789SOL    HW220952   4.881   5.074   2.282
 6790SOL     OW20953   4.996   5.169   3.004
 6790SOL    HW120954   5.043   5.182   3.091
 6790SOL    HW220955   4.930   5.095   3.013
 6791SOL     OW20956   4.078   5.234   3.191
 6791SOL    HW120957   4.057   5.190   3.104
 6791SOL    HW220958   4.175   5.260   3.194
 6792SOL     OW20959   4.126   4.475   3.460
 6792SOL    HW120960   4.194   4.530   3.413
 6792SOL    HW220961   4.166   4.387   3.487
 6793SOL     OW20962   4.737   3.829   3.632
 6793SOL    HW120963   4.743   3.914   3.580
 6793SOL    HW220964   4.769   3.753   3.575
 6794SOL     OW20965   4.228   3.774   3.602
 6794SOL    HW120966   4.186   3.717   3.532
 6794SOL    HW220967   4.162   3.843   3.634
 6795SOL     OW20968   4.297   4.594   2.891
 6795SOL    HW120969   4.341   4.683   2.882
 6795SOL    HW220970   4.234   4.594   2.968
 6796SOL     OW20971   5.084   4.586   2.907
 6796SOL    HW120972   5.009   4.586   2.841
 6796SOL    HW220973   5.121   4.494   2.916
 6797SOL     OW20974   4.933   4.249   2.137
 6797SOL    HW120975   4.946   4.165   2.191
 6797SOL    HW220976   4.904   4.323   2.197
 6798SOL     OW20977   4.031   3.937   3.093
 6798SOL    HW120978   4.008   3.974   3.183
 6798SOL    HW220979   4.001   3.842   3.087
 6799SOL     OW20980   3.761   5.034   3.144
 6799SOL    HW120981   3.814   4.985   3.212
 6799SOL    HW220982   3.783   5.132   3.149
 6800SOL     OW20983   4.456   4.358   2.926
 6800SOL    HW120984   4.515   4.332   2.850
 6800SOL    HW220985   4.428   4.454   2.915
 6801SOL     OW20986   4.031   3.787   2.480
 6801SOL    HW120987   4.020   3.881   2.513
 6801SOL    HW220988   4.026   3.724   2.557
 6802SOL     OW20989   5.346   4.091   2.236
 6802SOL    HW120990   5.348   4.015   2.300
 6802SOL    HW220991   5.298   4.168   2.276
 6803SOL     OW20992   4.747   4.490   2.828
 6803SOL    HW120993   4.762   4.511   2.924
 6803SOL    HW220994   4.717   4.395   2.819
 6804SOL     OW20995   4.074   4.622   3.666
 6804SOL    HW120996   4.150   4.666   3.714
 6804SOL    HW220997   4.109   4.575   3.584
 6805SOL     OW20998   5.027   4.562   1.904
 6805SOL    HW120999   5.061   4.469   1.919
 6805SOL    HW221000   5.045   4.589   1.809
 6806SOL     OW21001   4.792   5.057   2.711
 6806SOL    HW121002   4.799   4.973   2.656
 6806SOL    HW221003   4.854   5.126   2.675
 6807SOL     OW21004   4.043   4.534   2.811
 6807SOL    HW121005   4.136   4.570   2.816
 6807SOL    HW221006   4.037   4.449   2.863
 6808SOL     OW21007   4.063   4.233   2.868
 6808SOL    HW121008   4.011   4.150   2.851
 6808SOL    HW221009   4.140   4.238   2.804
 6809SOL     OW21010   4.862   4.104   3.540
 6809SOL    HW121011   4.817   4.167   3.604
 6809SOL    HW221012   4.955   4.135   3.523
 6810SOL     OW21013   4.884   3.931   3.339
 6810SOL    HW121014   4.884   3.995   3.416
 6810SOL    HW221015   4.912   3.979   3.256
 6811SOL     OW21016   3.732   5.050   2.062
 6811SOL    HW121017   3.639   5.071   2.031
 6811SOL    HW221018   3.742   4.951   2.075
 6812SOL     OW21019   4.726   4.520   3.100
 6812SOL    HW121020   4.767   4.488   3.186
 6812SOL    HW221021   4.630   4.493   3.097
 6813SOL     OW21022   3.764   4.268   2.976
 6813SOL    HW121023   3.849   4.235   2.935
 6813SOL    HW221024   3.777   4.283   3.074
 6814SOL     OW21025   3.913   4.244   3.584
 6814SOL    HW121026   3.972   4.204   3.514
 6814SOL    HW221027   3.855   4.315   3.543
 6815SOL     OW21028   5.093   4.674   3.522
 6815SOL    HW121029   5.132   4.763   3.542
 6815SOL    HW221030   5.103   4.654   3.425
 6816SOL     OW21031   4.539   4.296   2.187
 6816SOL    HW121032   4.546   4.207   2.141
 6816SOL    HW221033   4.445   4.330   2.179
 6817SOL     OW21034   3.976   5.288   3.606
 6817SOL    HW121035   3.946   5.345   3.682
 6817SOL    HW221036   3.969   5.191   3.632
 6818SOL     OW21037   4.395   4.188   3.131
 6818SOL    HW121038   4.361   4.099   3.101
 6818SOL    HW221039   4.421   4.242   3.051
 6819SOL     OW21040   4.197   4.224   2.053
 6819SOL    HW121041   4.258   4.304   2.057
 6819SOL    HW221042   4.102   4.255   2.060
 6820SOL     OW21043   3.883   4.861   3.328
 6820SOL    HW121044   3.905   4.800   3.404
 6820SOL    HW221045   3.893   4.812   3.242
 6821SOL     OW21046   5.071   4.783   3.096
 6821SOL    HW121047   5.095   4.720   3.022
 6821SOL    HW221048   4.981   4.823   3.078
 6822SOL     OW21049   5.026   4.579   2.171
 6822SOL    HW121050   4.940   4.548   2.213
 6822SOL    HW221051   5.022   4.565   2.072
 6823SOL     OW21052   3.807   4.982   2.884
 6823SOL    HW121053   3.802   4.981   2.984
 6823SOL    HW221054   3.724   4.941   2.846
 6824SOL     OW21055   4.412   5.386   3.578
 6824SOL    HW121056   4.356   5.467   3.587
 6824SOL    HW221057   4.464   5.390   3.492
 6825SOL     OW21058   5.450   3.859   2.385
 6825SOL    HW121059   5.523   3.842   2.318
 6825SOL    HW221060   5.419   3.772   2.423
 6826SOL     OW21061   5.004   4.651   2.534
 6826SOL    HW121062   5.064   4.570   2.536
 6826SOL    HW221063   5.044   4.720   2.474
 6827SOL     OW21064   4.554   4.997   3.284
 6827SOL    HW121065   4.549   5.030   3.379
 6827SOL    HW221066   4.468   5.016   3.238
 6828SOL     OW21067   3.987   4.050   2.582
 6828SOL    HW121068   3.908   4.101   2.548
 6828SOL    HW221069   3.978   4.035   2.680
 6829SOL     OW21070   4.546   4.726   3.234
 6829SOL    HW121071   4.586   4.725   3.142
 6829SOL    HW221072   4.556   4.818   3.274
 6830SOL     OW21073   4.640   4.634   2.153
 6830SOL    HW121074   4.703   4.672   2.085
 6830SOL    HW221075   4.680   4.551   2.192
 6831SOL     OW21076   4.096   5.012   3.352
 6831SOL    HW121077   4.083   5.105   3.318
 6831SOL    HW221078   4.012   4.960   3.339
 6832SOL     OW21079   4.763   4.822   2.558
 6832SOL    HW121080   4.693   4.775   2.612
 6832SOL    HW221081   4.822   4.754   2.515
 6833SOL     OW21082   4.738   3.960   2.833
 6833SOL    HW121083   4.730   3.924   2.740
 6833SOL    HW221084   4.736   3.884   2.898
 6834SOL     OW21085   3.979   5.072   2.152
 6834SOL    HW121086   3.883   5.073   2.125
 6834SOL    HW221087   3.991   5.125   2.236
 6835SOL     OW21088   3.829   4.737   3.588
 6835SOL    HW121089   3.752   4.704   3.642
 6835SOL    HW221090   3.914   4.707   3.630
 6836SOL     OW21091   4.396   3.927   3.351
 6836SOL    HW121092   4.486   3.911   3.311
 6836SOL    HW221093   4.404   3.932   3.450
 6837SOL     OW21094   3.799   4.069   1.895
 6837SOL    HW121095   3.707   4.041   1.866
 6837SOL    HW221096   3.830   4.146   1.839
 6838SOL     OW21097   5.164   4.580   3.260
 6838SOL    HW121098   5.107   4.632   3.197
 6838SOL    HW221099   5.260   4.592   3.236
 6839SOL     OW21100   3.796   3.890   2.180
 6839SOL    HW121101   3.779   3.973   2.126
 6839SOL    HW221102   3.886   3.853   2.158
 6840SOL     OW21103   4.907   5.059   1.981
 6840SOL    HW121104   4.808   5.048   1.983
 6840SOL    HW221105   4.941   5.074   2.074
 6841SOL     OW21106   4.337   4.566   3.293
 6841SOL    HW121107   4.393   4.647   3.276
 6841SOL    HW221108   4.396   4.486   3.296
 6842SOL     OW21109   4.440   4.289   3.570
 6842SOL    HW121110   4.459   4.354   3.644
 6842SOL    HW221111   4.500   4.209   3.579
 6843SOL     OW21112   5.174   4.944   3.495
 6843SOL    HW121113   5.165   4.934   3.594
 6843SOL    HW221114   5.270   4.937   3.469
 6844SOL     OW21115   4.949   4.049   2.311
 6844SOL    HW121116   5.014   3.975   2.300
 6844SOL    HW221117   4.969   4.099   2.395
 6845SOL     OW21118   4.318   4.469   2.514
 6845SOL    HW121119   4.368   4.554   2.495
 6845SOL    HW221120   4.230   4.471   2.466
 6846SOL     OW21121   4.583   5.098   1.878
 6846SOL    HW121122   4.537   5.113   1.966
 6846SOL    HW221123   4.627   5.183   1.848
 6847SOL     OW21124   4.583   4.680   2.723
 6847SOL    HW121125   4.637   4.611   2.771
 6847SOL    HW221126   4.551   4.749   2.789
 6848SOL     OW21127   4.807   4.708   1.949
 6848SOL    HW121128   4.784   4.761   1.867
 6848SOL    HW221129   4.888   4.652   1.930
 6849SOL     OW21130   3.945   5.038   3.706
 6849SOL    HW121131   3.880   4.965   3.685
 6849SOL    HW221132   3.949   5.052   3.804
 6850SOL     OW21133   3.803   4.964   2.515
 6850SOL    HW121134   3.802   4.917   2.603
 6850SOL    HW221135   3.885   4.936   2.464
 6851SOL     OW21136   4.396   5.115   3.486
 6851SOL    HW121137   4.318   5.065   3.524
 6851SOL    HW221138   4.393   5.210   3.517
 6852SOL     OW21139   4.152   4.148   2.382
 6852SOL    HW121140   4.182   4.076   2.320
 6852SOL    HW221141   4.113   4.108   2.465
 6853SOL     OW21142   5.429   5.211   2.966
 6853SOL    HW121143   5.336   5.186   2.939
 6853SOL    HW221144   5.455   5.161   3.048
 6854SOL     OW21145   4.041   4.271   3.142
 6854SOL    HW121146   4.079   4.212   3.214
 6854SOL    HW221147   4.081   4.245   3.054
 6855SOL     OW21148   5.148   3.938   2.974
 6855SOL    HW121149   5.200   3.873   3.029
 6855SOL    HW221150   5.099   4.001   3.035
 6856SOL     OW21151   4.725   3.758   3.016
 6856SOL    HW121152   4.662   3.686   2.985
 6856SOL    HW221153   4.818   3.722   3.016
 6857SOL     OW21154   4.494   5.054   2.163
 6857SOL    HW121155   4.448   4.967   2.180
 6857SOL    HW221156   4.585   5.051   2.204
 6858SOL     OW21157   4.342   5.291   3.146
 6858SOL    HW121158   4.337   5.373   3.203
 6858SOL    HW221159   4.431   5.288   3.101
 6859SOL     OW21160   5.076   3.776   2.030
 6859SOL    HW121161   5.111   3.735   1.946
 6859SOL    HW221162   4.986   3.738   2.050
 6860SOL     OW21163   5.024   4.177   2.553
 6860SOL    HW121164   4.965   4.257   2.557
 6860SOL    HW221165   5.039   4.142   2.646
 6861SOL     OW21166   5.317   3.945   2.744
 6861SOL    HW121167   5.233   3.944   2.798
 6861SOL    HW221168   5.319   4.028   2.688
 6862SOL     OW21169   3.763   4.801   2.162
 6862SOL    HW121170   3.862   4.790   2.153
 6862SOL    HW221171   3.723   4.715   2.194
 6863SOL     OW21172   3.954   4.352   3.837
 6863SOL    HW121173   3.861   4.350   3.874
 6863SOL    HW221174   3.955   4.313   3.745
 6864SOL     OW21175   3.949   3.999   4.720
 6864SOL    HW121176   3.984   3.982   4.812
 6864SOL    HW221177   3.861   3.954   4.708
 6865SOL     OW21178   3.743   4.092   4.371
 6865SOL    HW121179   3.661   4.135   4.410
 6865SOL    HW221180   3.715   4.019   4.308
 6866SOL     OW21181   4.293   4.999   4.889
 6866SOL    HW121182   4.200   4.992   4.852
 6866SOL    HW221183   4.304   5.088   4.933
 6867SOL     OW21184   5.279   5.235   4.427
 6867SOL    HW121185   5.222   5.219   4.508
 6867SOL    HW221186   5.220   5.245   4.347
 6868SOL     OW21187   4.859   4.427   4.441
 6868SOL    HW121188   4.916   4.505   4.416
 6868SOL    HW221189   4.799   4.453   4.517
 6869SOL     OW21190   4.492   4.868   4.747
 6869SOL    HW121191   4.414   4.885   4.807
 6869SOL    HW221192   4.526   4.955   4.711
 6870SOL     OW21193   4.574   4.522   5.547
 6870SOL    HW121194   4.570   4.598   5.612
 6870SOL    HW221195   4.596   4.558   5.456
 6871SOL     OW21196   4.409   4.736   4.389
 6871SOL    HW121197   4.478   4.720   4.459
 6871SOL    HW221198   4.336   4.793   4.427
 6872SOL     OW21199   4.410   4.885   5.527
 6872SOL    HW121200   4.470   4.964   5.541
 6872SOL    HW221201   4.324   4.916   5.486
 6873SOL     OW21202   4.059   5.159   4.785
 6873SOL    HW121203   3.981   5.128   4.732
 6873SOL    HW221204   4.117   5.217   4.728
 6874SOL     OW21205   5.184   5.229   5.063
 6874SOL    HW121206   5.208   5.323   5.089
 6874SOL    HW221207   5.168   5.175   5.145
 6875SOL     OW21208   4.162   4.116   5.223
 6875SOL    HW121209   4.244   4.060   5.232
 6875SOL    HW221210   4.081   4.058   5.227
 6876SOL     OW21211   4.851   5.065   5.414
 6876SOL    HW121212   4.898   5.065   5.502
 6876SOL    HW221213   4.803   4.978   5.403
 6877SOL     OW21214   3.954   5.158   4.262
 6877SOL    HW121215   3.928   5.254   4.262
 6877SOL    HW221216   3.883   5.104   4.307
 6878SOL     OW21217   3.964   4.815   4.610
 6878SOL    HW121218   3.978   4.731   4.662
 6878SOL    HW221219   3.909   4.879   4.665
 6879SOL     OW21220   4.330   4.688   3.847
 6879SOL    HW121221   4.337   4.772   3.793
 6879SOL    HW221222   4.376   4.701   3.935
 6880SOL     OW21223   3.846   4.367   4.287
 6880SOL    HW121224   3.801   4.279   4.304
 6880SOL    HW221225   3.845   4.421   4.371
 6881SOL     OW21226   3.751   5.320   3.841
 6881SOL    HW121227   3.732   5.224   3.862
 6881SOL    HW221228   3.718   5.378   3.916
 6882SOL     OW21229   5.413   4.646   4.336
 6882SOL    HW121230   5.508   4.617   4.344
 6882SOL    HW221231   5.405   4.711   4.261
 6883SOL     OW21232   3.837   4.461   5.321
 6883SOL    HW121233   3.925   4.448   5.366
 6883SOL    HW221234   3.824   4.558   5.299
 6884SOL     OW21235   4.337   5.089   4.450
 6884SOL    HW121236   4.288   5.002   4.459
 6884SOL    HW221237   4.314   5.132   4.363
 6885SOL     OW21238   5.017   4.952   5.147
 6885SOL    HW121239   5.054   4.879   5.089
 6885SOL    HW221240   5.069   4.957   5.232
 6886SOL     OW21241   4.533   3.728   4.226
 6886SOL    HW121242   4.573   3.819   4.217
 6886SOL    HW221243   4.433   3.736   4.232
 6887SOL     OW21244   3.921   4.700   4.988
 6887SOL    HW121245   4.010   4.655   4.974
 6887SOL    HW221246   3.848   4.635   4.969
 6888SOL     OW21247   4.041   3.975   5.525
 6888SOL    HW121248   4.112   4.046   5.531
 6888SOL    HW221249   3.953   4.014   5.553
 6889SOL     OW21250   5.190   5.141   4.677
 6889SOL    HW121251   5.131   5.147   4.757
 6889SOL    HW221252   5.175   5.053   4.631
 6890SOL     OW21253   5.391   5.438   4.296
 6890SOL    HW121254   5.350   5.415   4.208
 6890SOL    HW221255   5.373   5.364   4.361
 6891SOL     OW21256   4.322   4.453   3.994
 6891SOL    HW121257   4.346   4.522   3.926
 6891SOL    HW221258   4.244   4.486   4.048
 6892SOL     OW21259   5.005   4.069   4.668
 6892SOL    HW121260   4.919   4.019   4.655
 6892SOL    HW221261   5.067   4.015   4.724
 6893SOL     OW21262   4.531   4.329   5.189
 6893SOL    HW121263   4.484   4.326   5.278
 6893SOL    HW221264   4.480   4.274   5.123
 6894SOL     OW21265   5.118   4.193   5.398
 6894SOL    HW121266   5.098   4.236   5.486
 6894SOL    HW221267   5.196   4.131   5.407
 6895SOL     OW21268   4.697   4.614   5.296
 6895SOL    HW121269   4.743   4.530   5.267
 6895SOL    HW221270   4.641   4.648   5.221
 6896SOL     OW21271   4.715   4.134   4.966
 6896SOL    HW121272   4.638   4.168   5.020
 6896SOL    HW221273   4.681   4.083   4.887
 6897SOL     OW21274   4.765   4.425   4.153
 6897SOL    HW121275   4.791   4.421   4.249
 6897SOL    HW221276   4.680   4.374   4.139
 6898SOL     OW21277   3.800   4.535   4.513
 6898SOL    HW121278   3.899   4.523   4.522
 6898SOL    HW221279   3.776   4.630   4.534
 6899SOL     OW21280   4.589   4.072   3.919
 6899SOL    HW121281   4.648   4.135   3.870
 6899SOL    HW221282   4.608   3.978   3.890
 6900SOL     OW21283   5.086   4.868   4.269
 6900SOL    HW121284   5.169   4.839   4.221
 6900SOL    HW221285   5.037   4.935   4.213
 6901SOL     OW21286   4.274   3.920   4.609
 6901SOL    HW121287   4.269   3.915   4.709
 6901SOL    HW221288   4.276   4.016   4.580
 6902SOL     OW21289   4.732   5.180   4.201
 6902SOL    HW121290   4.686   5.252   4.149
 6902SOL    HW221291   4.728   5.200   4.299
 6903SOL     OW21292   4.951   5.274   5.230
 6903SOL    HW121293   4.957   5.197   5.294
 6903SOL    HW221294   4.899   5.248   5.150
 6904SOL     OW21295   4.045   4.667   3.966
 6904SOL    HW121296   4.127   4.706   3.924
 6904SOL    HW221297   4.018   4.585   3.917
 6905SOL     OW21298   4.185   4.990   5.451
 6905SOL    HW121299   4.135   4.991   5.365
 6905SOL    HW221300   4.122   4.972   5.527
 6906SOL     OW21301   4.835   5.500   3.961
 6906SOL    HW121302   4.775   5.438   4.011
 6906SOL    HW221303   4.866   5.456   3.876
 6907SOL     OW21304   3.926   4.009   5.222
 6907SOL    HW121305   3.846   4.069   5.209
 6907SOL    HW221306   3.916   3.960   5.308
 6908SOL     OW21307   5.124   3.831   4.150
 6908SOL    HW121308   5.100   3.794   4.060
 6908SOL    HW221309   5.223   3.847   4.154
 6909SOL     OW21310   4.106   4.424   4.204
 6909SOL    HW121311   4.151   4.334   4.201
 6909SOL    HW221312   4.012   4.413   4.237
 6910SOL     OW21313   4.338   3.846   3.841
 6910SOL    HW121314   4.436   3.824   3.848
 6910SOL    HW221315   4.307   3.829   3.748
 6911SOL     OW21316   4.505   3.988   5.473
 6911SOL    HW121317   4.572   3.927   5.516
 6911SOL    HW221318   4.432   4.007   5.538
 6912SOL     OW21319   5.075   4.314   5.157
 6912SOL    HW121320   5.103   4.271   5.242
 6912SOL    HW221321   5.100   4.410   5.158
 6913SOL     OW21322   4.527   5.126   4.648
 6913SOL    HW121323   4.617   5.140   4.606
 6913SOL    HW221324   4.456   5.128   4.577
 6914SOL     OW21325   4.646   4.227   4.623
 6914SOL    HW121326   4.621   4.218   4.527
 6914SOL    HW221327   4.694   4.145   4.654
 6915SOL     OW21328   4.263   3.788   4.236
 6915SOL    HW121329   4.182   3.789   4.294
 6915SOL    HW221330   4.266   3.871   4.181
 6916SOL     OW21331   5.158   4.912   3.765
 6916SOL    HW121332   5.190   4.836   3.822
 6916SOL    HW221333   5.066   4.939   3.795
 6917SOL     OW21334   4.021   3.759   3.895
 6917SOL    HW121335   4.070   3.843   3.874
 6917SOL    HW221336   4.083   3.694   3.940
 6918SOL     OW21337   4.659   3.960   4.204
 6918SOL    HW121338   4.611   4.001   4.126
 6918SOL    HW221339   4.758   3.958   4.185
 6919SOL     OW21340   4.800   4.407   5.188
 6919SOL    HW121341   4.720   4.346   5.191
 6919SOL    HW221342   4.881   4.354   5.164
 6920SOL     OW21343   4.951   5.294   4.517
 6920SOL    HW121344   4.972   5.368   4.452
 6920SOL    HW221345   5.019   5.294   4.590
 6921SOL     OW21346   4.183   4.876   4.465
 6921SOL    HW121347   4.112   4.849   4.530
 6921SOL    HW221348   4.157   4.848   4.372
 6922SOL     OW21349   4.756   4.273   3.740
 6922SOL    HW121350   4.715   4.355   3.701
 6922SOL    HW221351   4.820   4.299   3.813
 6923SOL     OW21352   3.802   4.280   5.110
 6923SOL    HW121353   3.894   4.279   5.069
 6923SOL    HW221354   3.796   4.354   5.177
 6924SOL     OW21355   4.285   3.946   4.871
 6924SOL    HW121356   4.323   3.862   4.908
 6924SOL    HW221357   4.197   3.965   4.915
 6925SOL     OW21358   4.590   4.178   4.366
 6925SOL    HW121359   4.558   4.250   4.304
 6925SOL    HW221360   4.614   4.097   4.313
 6926SOL     OW21361   4.741   3.763   4.477
 6926SOL    HW121362   4.669   3.768   4.408
 6926SOL    HW221363   4.717   3.694   4.546
 6927SOL     OW21364   5.153   4.897   4.591
 6927SOL    HW121365   5.098   4.813   4.584
 6927SOL    HW221366   5.179   4.926   4.499
 6928SOL     OW21367   4.212   5.109   3.898
 6928SOL    HW121368   4.125   5.094   3.945
 6928SOL    HW221369   4.195   5.135   3.803
 6929SOL     OW21370   5.114   4.299   3.802
 6929SOL    HW121371   5.060   4.278   3.883
 6929SOL    HW221372   5.205   4.258   3.811
 6930SOL     OW21373   4.251   3.980   4.052
 6930SOL    HW121374   4.278   3.921   3.977
 6930SOL    HW221375   4.251   4.075   4.021
 6931SOL     OW21376   4.788   5.071   5.064
 6931SOL    HW121377   4.708   5.048   5.119
 6931SOL    HW221378   4.871   5.045   5.113
 6932SOL     OW21379   4.835   4.919   4.824
 6932SOL    HW121380   4.795   4.963   4.905
 6932SOL    HW221381   4.794   4.956   4.741
 6933SOL     OW21382   4.639   3.813   5.126
 6933SOL    HW121383   4.664   3.793   5.031
 6933SOL    HW221384   4.711   3.869   5.168
 6934SOL     OW21385   4.704   4.840   5.443
 6934SOL    HW121386   4.605   4.846   5.453
 6934SOL    HW221387   4.727   4.760   5.387
 6935SOL     OW21388   4.429   4.774   4.092
 6935SOL    HW121389   4.415   4.781   4.191
 6935SOL    HW221390   4.513   4.723   4.074
 6936SOL     OW21391   4.134   4.537   4.975
 6936SOL    HW121392   4.220   4.549   5.025
 6936SOL    HW221393   4.092   4.450   5.002
 6937SOL     OW21394   4.998   4.110   4.986
 6937SOL    HW121395   5.019   4.184   5.050
 6937SOL    HW221396   4.909   4.127   4.943
 6938SOL     OW21397   4.091   4.824   4.225
 6938SOL    HW121398   4.084   4.907   4.169
 6938SOL    HW221399   4.095   4.744   4.165
 6939SOL     OW21400   4.290   4.261   4.589
 6939SOL    HW121401   4.302   4.327   4.515
 6939SOL    HW221402   4.336   4.295   4.672
 6940SOL     OW21403   4.976   5.072   4.112
 6940SOL    HW121404   5.026   5.149   4.152
 6940SOL    HW221405   4.881   5.074   4.144
 6941SOL     OW21406   4.996   5.169   4.866
 6941SOL    HW121407   5.043   5.182   4.953
 6941SOL    HW221408   4.930   5.095   4.875
 6942SOL     OW21409   4.078   5.234   5.053
 6942SOL    HW121410   4.057   5.190   4.966
 6942SOL    HW221411   4.175   5.260   5.056
 6943SOL     OW21412   4.126   4.475   5.322
 6943SOL    HW121413   4.194   4.530   5.275
 6943SOL    HW221414   4.166   4.387   5.349
 6944SOL     OW21415   4.737   3.829   5.494
 6944SOL    HW121416   4.743   3.914   5.442
 6944SOL    HW221417   4.769   3.753   5.437
 6945SOL     OW21418   4.228   3.774   5.464
 6945SOL    HW121419   4.186   3.717   5.394
 6945SOL    HW221420   4.162   3.843   5.496
 6946SOL     OW21421   4.297   4.594   4.753
 6946SOL    HW121422   4.341   4.683   4.744
 6946SOL    HW221423   4.234   4.594   4.830
 6947SOL     OW21424   5.084   4.586   4.769
 6947SOL    HW121425   5.009   4.586   4.703
 6947SOL    HW221426   5.121   4.494   4.778
 6948SOL     OW21427   4.933   4.249   3.999
 6948SOL    HW121428   4.946   4.165   4.053
 6948SOL    HW221429   4.904   4.323   4.059
 6949SOL     OW21430   4.031   3.937   4.955
 6949SOL    HW121431   4.008   3.974   5.045
 6949SOL    HW221432   4.001   3.842   4.949
 6950SOL     OW21433   3.761   5.034   5.006
 6950SOL    HW121434   3.814   4.985   5.074
 6950SOL    HW221435   3.783   5.132   5.011
 6951SOL     OW21436   4.456   4.358   4.788
 6951SOL    HW121437   4.515   4.332   4.712
 6951SOL    HW221438   4.428   4.454   4.777
 6952SOL     OW21439   4.031   3.787   4.342
 6952SOL    HW121440   4.020   3.881   4.375
 6952SOL    HW221441   4.026   3.724   4.419
 6953SOL     OW21442   5.346   4.091   4.098
 6953SOL    HW121443   5.348   4.015   4.162
 6953SOL    HW221444   5.298   4.168   4.138
 6954SOL     OW21445   4.747   4.490   4.690
 6954SOL    HW121446   4.762   4.511   4.786
 6954SOL    HW221447   4.717   4.395   4.681
 6955SOL     OW21448   4.074   4.622   5.528
 6955SOL    HW121449   4.150   4.666   5.576
 6955SOL    HW221450   4.109   4.575   5.446
 6956SOL     OW21451   5.027   4.562   3.766
 6956SOL    HW121452   5.061   4.469   3.781
 6956SOL    HW221453   5.045   4.589   3.671
 6957SOL     OW21454   4.792   5.057   4.573
 6957SOL    HW121455   4.799   4.973   4.518
 6957SOL    HW221456   4.854   5.126   4.537
 6958SOL     OW21457   4.043   4.534   4.673
 6958SOL    HW121458   4.136   4.570   4.678
 6958SOL    HW221459   4.037   4.449   4.725
 6959SOL     OW21460   4.063   4.233   4.730
 6959SOL    HW121461   4.011   4.150   4.713
 6959SOL    HW221462   4.140   4.238   4.666
 6960SOL     OW21463   4.862   4.104   5.402
 6960SOL    HW121464   4.817   4.167   5.466
 6960SOL    HW221465   4.955   4.135   5.385
 6961SOL     OW21466   4.884   3.931   5.201
 6961SOL    HW121467   4.884   3.995   5.278
 6961SOL    HW221468   4.912   3.979   5.118
 6962SOL     OW21469   3.732   5.050   3.924
 6962SOL    HW121470   3.639   5.071   3.893
 6962SOL    HW221471   3.742   4.951   3.937
 6963SOL     OW21472   4.726   4.520   4.962
 6963SOL    HW121473   4.767   4.488   5.048
 6963SOL    HW221474   4.630   4.493   4.959
 6964SOL     OW21475   3.764   4.268   4.838
 6964SOL    HW121476   3.849   4.235   4.797
 6964SOL    HW221477   3.777   4.283   4.936
 6965SOL     OW21478   3.913   4.244   5.446
 6965SOL    HW121479   3.972   4.204   5.376
 6965SOL    HW221480   3.855   4.315   5.405
 6966SOL     OW21481   5.093   4.674   5.384
 6966SOL    HW121482   5.132   4.763   5.404
 6966SOL    HW221483   5.103   4.654   5.287
 6967SOL     OW21484   4.539   4.296   4.049
 6967SOL    HW121485   4.546   4.207   4.003
 6967SOL    HW221486   4.445   4.330   4.041
 6968SOL     OW21487   3.976   5.288   5.468
 6968SOL    HW121488   3.946   5.345   5.544
 6968SOL    HW221489   3.969   5.191   5.494
 6969SOL     OW21490   4.395   4.188   4.993
 6969SOL    HW121491   4.361   4.099   4.963
 6969SOL    HW221492   4.421   4.242   4.913
 6970SOL     OW21493   4.197   4.224   3.915
 6970SOL    HW121494   4.258   4.304   3.919
 6970SOL    HW221495   4.102   4.255   3.922
 6971SOL     OW21496   3.883   4.861   5.190
 6971SOL    HW121497   3.905   4.800   5.266
 6971SOL    HW221498   3.893   4.812   5.104
 6972SOL     OW21499   5.071   4.783   4.958
 6972SOL    HW121500   5.095   4.720   4.884
 6972SOL    HW221501   4.981   4.823   4.940
 6973SOL     OW21502   5.026   4.579   4.033
 6973SOL    HW121503   4.940   4.548   4.075
 6973SOL    HW221504   5.022   4.565   3.934
 6974SOL     OW21505   3.807   4.982   4.746
 6974SOL    HW121506   3.802   4.981   4.846
 6974SOL    HW221507   3.724   4.941   4.708
 6975SOL     OW21508   4.412   5.386   5.440
 6975SOL    HW121509   4.356   5.467   5.449
 6975SOL    HW221510   4.464   5.390   5.354
 6976SOL     OW21511   5.450   3.859   4.247
 6976SOL    HW121512   5.523   3.842   4.180
 6976SOL    HW221513   5.419   3.772   4.285
 6977SOL     OW21514   5.004   4.651   4.396
 6977SOL    HW121515   5.064   4.570   4.398
 6977SOL    HW221516   5.044   4.720   4.336
 6978SOL     OW21517   4.554   4.997   5.146
 6978SOL    HW121518   4.549   5.030   5.241
 6978SOL    HW221519   4.468   5.016   5.100
 6979SOL     OW21520   3.987   4.050   4.444
 6979SOL    HW121521   3.908   4.101   4.410
 6979SOL    HW221522   3.978   4.035   4.542
 6980SOL     OW21523   4.546   4.726   5.096
 6980SOL    HW121524   4.586   4.725   5.004
 6980SOL    HW221525   4.556   4.818   5.136
 6981SOL     OW21526   4.640   4.634   4.015
 6981SOL    HW121527   4.703   4.672   3.947
 6981SOL    HW221528   4.680   4.551   4.054
 6982SOL     OW21529   4.096   5.012   5.214
 6982SOL    HW121530   4.083   5.105   5.180
 6982SOL    HW221531   4.012   4.960   5.201
 6983SOL     OW21532   4.763   4.822   4.420
 6983SOL    HW121533   4.693   4.775   4.474
 6983SOL    HW221534   4.822   4.754   4.377
 6984SOL     OW21535   4.738   3.960   4.695
 6984SOL    HW121536   4.730   3.924   4.602
 6984SOL    HW221537   4.736   3.884   4.760
 6985SOL     OW21538   3.979   5.072   4.014
 6985SOL    HW121539   3.883   5.073   3.987
 6985SOL    HW221540   3.991   5.125   4.098
 6986SOL     OW21541   3.829   4.737   5.450
 6986SOL    HW121542   3.752   4.704   5.504
 6986SOL    HW221543   3.914   4.707   5.492
 6987SOL     OW21544   4.396   3.927   5.213
 6987SOL    HW121545   4.486   3.911   5.173
 6987SOL    HW221546   4.404   3.932   5.312
 6988SOL     OW21547   3.799   4.069   3.757
 6988SOL    HW121548   3.707   4.041   3.728
 6988SOL    HW221549   3.830   4.146   3.701
 6989SOL     OW21550   5.164   4.580   5.122
 6989SOL    HW121551   5.107   4.632   5.059
 6989SOL    HW221552   5.260   4.592   5.098
 6990SOL     OW21553   3.796   3.890   4.042
 6990SOL    HW121554   3.779   3.973   3.988
 6990SOL    HW221555   3.886   3.853   4.020
 6991SOL     OW21556   4.907   5.059   3.843
 6991SOL    HW121557   4.808   5.048   3.845
 6991SOL    HW221558   4.941   5.074   3.936
 6992SOL     OW21559   4.337   4.566   5.155
 6992SOL    HW121560   4.393   4.647   5.138
 6992SOL    HW221561   4.396   4.486   5.158
 6993SOL     OW21562   4.440   4.289   5.432
 6993SOL    HW121563   4.459   4.354   5.506
 6993SOL    HW221564   4.500   4.209   5.441
 6994SOL     OW21565   5.174   4.944   5.357
 6994SOL    HW121566   5.165   4.934   5.456
 6994SOL    HW221567   5.270   4.937   5.331
 6995SOL     OW21568   4.949   4.049   4.173
 6995SOL    HW121569   5.014   3.975   4.162
 6995SOL    HW221570   4.969   4.099   4.257
 6996SOL     OW21571   4.318   4.469   4.376
 6996SOL    HW121572   4.368   4.554   4.357
 6996SOL    HW221573   4.230   4.471   4.328
 6997SOL     OW21574   4.583   5.098   3.740
 6997SOL    HW121575   4.537   5.113   3.828
 6997SOL    HW221576   4.627   5.183   3.710
 6998SOL     OW21577   4.583   4.680   4.585
 6998SOL    HW121578   4.637   4.611   4.633
 6998SOL    HW221579   4.551   4.749   4.651
 6999SOL     OW21580   4.807   4.708   3.811
 6999SOL    HW121581   4.784   4.761   3.729
 6999SOL    HW221582   4.888   4.652   3.792
 7000SOL     OW21583   3.945   5.038   5.568
 7000SOL    HW121584   3.880   4.965   5.547
 7000SOL    HW221585   3.949   5.052   5.666
 7001SOL     OW21586   3.803   4.964   4.377
 7001SOL    HW121587   3.802   4.917   4.465
 7001SOL    HW221588   3.885   4.936   4.326
 7002SOL     OW21589   4.396   5.115   5.348
 7002SOL    HW121590   4.318   5.065   5.386
 7002SOL    HW221591   4.393   5.210   5.379
 7003SOL     OW21592   4.152   4.148   4.244
 7003SOL    HW121593   4.182   4.076   4.182
 7003SOL    HW221594   4.113   4.108   4.327
 7004SOL     OW21595   5.429   5.211   4.828
 7004SOL    HW121596   5.336   5.186   4.801
 7004SOL    HW221597   5.455   5.161   4.910
 7005SOL     OW21598   4.041   4.271   5.004
 7005SOL    HW121599   4.079   4.212   5.076
 7005SOL    HW221600   4.081   4.245   4.916
 7006SOL     OW21601   5.148   3.938   4.836
 7006SOL    HW121602   5.200   3.873   4.891
 7006SOL    HW221603   5.099   4.001   4.897
 7007SOL     OW21604   4.725   3.758   4.878
 7007SOL    HW121605   4.662   3.686   4.847
 7007SOL    HW221606   4.818   3.722   4.878
 7008SOL     OW21607   4.494   5.054   4.025
 7008SOL    HW121608   4.448   4.967   4.042
 7008SOL    HW221609   4.585   5.051   4.066
 7009SOL     OW21610   4.342   5.291   5.008
 7009SOL    HW121611   4.337   5.373   5.065
 7009SOL    HW221612   4.431   5.288   4.963
 7010SOL     OW21613   5.076   3.776   3.892
 7010SOL    HW121614   5.111   3.735   3.808
 7010SOL    HW221615   4.986   3.738   3.912
 7011SOL     OW21616   5.024   4.177   4.415
 7011SOL    HW121617   4.965   4.257   4.419
 7011SOL    HW221618   5.039   4.142   4.508
 7012SOL     OW21619   5.317   3.945   4.606
 7012SOL    HW121620   5.233   3.944   4.660
 7012SOL    HW221621   5.319   4.028   4.550
 7013SOL     OW21622   3.763   4.801   4.024
 7013SOL    HW121623   3.862   4.790   4.015
 7013SOL    HW221624   3.723   4.715   4.056
 7014SOL     OW21625   3.954   4.352   5.699
 7014SOL    HW121626   3.861   4.350   5.736
 7014SOL    HW221627   3.955   4.313   5.607
 7015SOL     OW21628   3.949   3.999   6.582
 7015SOL    HW121629   3.984   3.982   6.674
 7015SOL    HW221630   3.861   3.954   6.570
 7016SOL     OW21631   3.743   4.092   6.233
 7016SOL    HW121632   3.661   4.135   6.272
 7016SOL    HW221633   3.715   4.019   6.170
 7017SOL     OW21634   4.293   4.999   6.751
 7017SOL    HW121635   4.200   4.992   6.714
 7017SOL    HW221636   4.304   5.088   6.795
 7018SOL     OW21637   5.279   5.235   6.289
 7018SOL    HW121638   5.222   5.219   6.370
 7018SOL    HW221639   5.220   5.245   6.209
 7019SOL     OW21640   4.859   4.427   6.303
 7019SOL    HW121641   4.916   4.505   6.278
 7019SOL    HW221642   4.799   4.453   6.379
 7020SOL     OW21643   4.492   4.868   6.609
 7020SOL    HW121644   4.414   4.885   6.669
 7020SOL    HW221645   4.526   4.955   6.573
 7021SOL     OW21646   4.574   4.522   7.409
 7021SOL    HW121647   4.570   4.598   7.474
 7021SOL    HW221648   4.596   4.558   7.318
 7022SOL     OW21649   4.409   4.736   6.251
 7022SOL    HW121650   4.478   4.720   6.321
 7022SOL    HW221651   4.336   4.793   6.289
 7023SOL     OW21652   4.410   4.885   7.389
 7023SOL    HW121653   4.470   4.964   7.403
 7023SOL    HW221654   4.324   4.916   7.348
 7024SOL     OW21655   4.059   5.159   6.647
 7024SOL    HW121656   3.981   5.128   6.594
 7024SOL    HW221657   4.117   5.217   6.590
 7025SOL     OW21658   5.184   5.229   6.925
 7025SOL    HW121659   5.208   5.323   6.951
 7025SOL    HW221660   5.168   5.175   7.007
 7026SOL     OW21661   4.162   4.116   7.085
 7026SOL    HW121662   4.244   4.060   7.094
 7026SOL    HW221663   4.081   4.058   7.089
 7027SOL     OW21664   4.851   5.065   7.276
 7027SOL    HW121665   4.898   5.065   7.364
 7027SOL    HW221666   4.803   4.978   7.265
 7028SOL     OW21667   3.954   5.158   6.124
 7028SOL    HW121668   3.928   5.254   6.124
 7028SOL    HW221669   3.883   5.104   6.169
 7029SOL     OW21670   3.964   4.815   6.472
 7029SOL    HW121671   3.978   4.731   6.524
 7029SOL    HW221672   3.909   4.879   6.527
 7030SOL     OW21673   4.330   4.688   5.709
 7030SOL    HW121674   4.337   4.772   5.655
 7030SOL    HW221675   4.376   4.701   5.797
 7031SOL     OW21676   3.846   4.367   6.149
 7031SOL    HW121677   3.801   4.279   6.166
 7031SOL    HW221678   3.845   4.421   6.233
 7032SOL     OW21679   3.751   5.320   5.703
 7032SOL    HW121680   3.732   5.224   5.724
 7032SOL    HW221681   3.718   5.378   5.778
 7033SOL     OW21682   5.413   4.646   6.198
 7033SOL    HW121683   5.508   4.617   6.206
 7033SOL    HW221684   5.405   4.711   6.123
 7034SOL     OW21685   3.837   4.461   7.183
 7034SOL    HW121686   3.925   4.448   7.228
 7034SOL    HW221687   3.824   4.558   7.161
 7035SOL     OW21688   4.337   5.089   6.312
 7035SOL    HW121689   4.288   5.002   6.321
 7035SOL    HW221690   4.314   5.132   6.225
 7036SOL     OW21691   5.017   4.952   7.009
 7036SOL    HW121692   5.054   4.879   6.951
 7036SOL    HW221693   5.069   4.957   7.094
 7037SOL     OW21694   4.533   3.728   6.088
 7037SOL    HW121695   4.573   3.819   6.079
 7037SOL    HW221696   4.433   3.736   6.094
 7038SOL     OW21697   3.921   4.700   6.850
 7038SOL    HW121698   4.010   4.655   6.836
 7038SOL    HW221699   3.848   4.635   6.831
 7039SOL     OW21700   4.041   3.975   7.387
 7039SOL    HW121701   4.112   4.046   7.393
 7039SOL    HW221702   3.953   4.014   7.415
 7040SOL     OW21703   5.190   5.141   6.539
 7040SOL    HW121704   5.131   5.147   6.619
 7040SOL    HW221705   5.175   5.053   6.493
 7041SOL     OW21706   5.391   5.438   6.158
 7041SOL    HW121707   5.350   5.415   6.070
 7041SOL    HW221708   5.373   5.364   6.223
 7042SOL     OW21709   4.322   4.453   5.856
 7042SOL    HW121710   4.346   4.522   5.788
 7042SOL    HW221711   4.244   4.486   5.910
 7043SOL     OW21712   5.005   4.069   6.530
 7043SOL    HW121713   4.919   4.019   6.517
 7043SOL    HW221714   5.067   4.015   6.586
 7044SOL     OW21715   4.531   4.329   7.051
 7044SOL    HW121716   4.484   4.326   7.140
 7044SOL    HW221717   4.480   4.274   6.985
 7045SOL     OW21718   5.118   4.193   7.260
 7045SOL    HW121719   5.098   4.236   7.348
 7045SOL    HW221720   5.196   4.131   7.269
 7046SOL     OW21721   4.697   4.614   7.158
 7046SOL    HW121722   4.743   4.530   7.129
 7046SOL    HW221723   4.641   4.648   7.083
 7047SOL     OW21724   4.715   4.134   6.828
 7047SOL    HW121725   4.638   4.168   6.882
 7047SOL    HW221726   4.681   4.083   6.749
 7048SOL     OW21727   4.765   4.425   6.015
 7048SOL    HW121728   4.791   4.421   6.111
 7048SOL    HW221729   4.680   4.374   6.001
 7049SOL     OW21730   3.800   4.535   6.375
 7049SOL    HW121731   3.899   4.523   6.384
 7049SOL    HW221732   3.776   4.630   6.396
 7050SOL     OW21733   4.589   4.072   5.781
 7050SOL    HW121734   4.648   4.135   5.732
 7050SOL    HW221735   4.608   3.978   5.752
 7051SOL     OW21736   5.086   4.868   6.131
 7051SOL    HW121737   5.169   4.839   6.083
 7051SOL    HW221738   5.037   4.935   6.075
 7052SOL     OW21739   4.274   3.920   6.471
 7052SOL    HW121740   4.269   3.915   6.571
 7052SOL    HW221741   4.276   4.016   6.442
 7053SOL     OW21742   4.732   5.180   6.063
 7053SOL    HW121743   4.686   5.252   6.011
 7053SOL    HW221744   4.728   5.200   6.161
 7054SOL     OW21745   4.951   5.274   7.092
 7054SOL    HW121746   4.957   5.197   7.156
 7054SOL    HW221747   4.899   5.248   7.012
 7055SOL     OW21748   4.045   4.667   5.828
 7055SOL    HW121749   4.127   4.706   5.786
 7055SOL    HW221750   4.018   4.585   5.779
 7056SOL     OW21751   4.185   4.990   7.313
 7056SOL    HW121752   4.135   4.991   7.227
 7056SOL    HW221753   4.122   4.972   7.389
 7057SOL     OW21754   4.835   5.500   5.823
 7057SOL    HW121755   4.775   5.438   5.873
 7057SOL    HW221756   4.866   5.456   5.738
 7058SOL     OW21757   3.926   4.009   7.084
 7058SOL    HW121758   3.846   4.069   7.071
 7058SOL    HW221759   3.916   3.960   7.170
 7059SOL     OW21760   5.124   3.831   6.012
 7059SOL    HW121761   5.100   3.794   5.922
 7059SOL    HW221762   5.223   3.847   6.016
 7060SOL     OW21763   4.106   4.424   6.066
 7060SOL    HW121764   4.151   4.334   6.063
 7060SOL    HW221765   4.012   4.413   6.099
 7061SOL     OW21766   4.338   3.846   5.703
 7061SOL    HW121767   4.436   3.824   5.710
 7061SOL    HW221768   4.307   3.829   5.610
 7062SOL     OW21769   4.505   3.988   7.335
 7062SOL    HW121770   4.572   3.927   7.378
 7062SOL    HW221771   4.432   4.007   7.400
 7063SOL     OW21772   5.075   4.314   7.019
 7063SOL    HW121773   5.103   4.271   7.104
 7063SOL    HW221774   5.100   4.410   7.020
 7064SOL     OW21775   4.527   5.126   6.510
 7064SOL    HW121776   4.617   5.140   6.468
 7064SOL    HW221777   4.456   5.128   6.439
 7065SOL     OW21778   4.646   4.227   6.485
 7065SOL    HW121779   4.621   4.218   6.389
 7065SOL    HW221780   4.694   4.145   6.516
 7066SOL     OW21781   4.263   3.788   6.098
 7066SOL    HW121782   4.182   3.789   6.156
 7066SOL    HW221783   4.266   3.871   6.043
 7067SOL     OW21784   5.158   4.912   5.627
 7067SOL    HW121785   5.190   4.836   5.684
 7067SOL    HW221786   5.066   4.939   5.657
 7068SOL     OW21787   4.021   3.759   5.757
 7068SOL    HW121788   4.070   3.843   5.736
 7068SOL    HW221789   4.083   3.694   5.802
 7069SOL     OW21790   4.659   3.960   6.066
 7069SOL    HW121791   4.611   4.001   5.988
 7069SOL    HW221792   4.758   3.958   6.047
 7070SOL     OW21793   4.800   4.407   7.050
 7070SOL    HW121794   4.720   4.346   7.053
 7070SOL    HW221795   4.881   4.354   7.026
 7071SOL     OW21796   4.951   5.294   6.379
 7071SOL    HW121797   4.972   5.368   6.314
 7071SOL    HW221798   5.019   5.294   6.452
 7072SOL     OW21799   4.183   4.876   6.327
 7072SOL    HW121800   4.112   4.849   6.392
 7072SOL    HW221801   4.157   4.848   6.234
 7073SOL     OW21802   4.756   4.273   5.602
 7073SOL    HW121803   4.715   4.355   5.563
 7073SOL    HW221804   4.820   4.299   5.675
 7074SOL     OW21805   3.802   4.280   6.972
 7074SOL    HW121806   3.894   4.279   6.931
 7074SOL    HW221807   3.796   4.354   7.039
 7075SOL     OW21808   4.285   3.946   6.733
 7075SOL    HW121809   4.323   3.862   6.770
 7075SOL    HW221810   4.197   3.965   6.777
 7076SOL     OW21811   4.590   4.178   6.228
 7076SOL    HW121812   4.558   4.250   6.166
 7076SOL    HW221813   4.614   4.097   6.175
 7077SOL     OW21814   4.741   3.763   6.339
 7077SOL    HW121815   4.669   3.768   6.270
 7077SOL    HW221816   4.717   3.694   6.408
 7078SOL     OW21817   5.153   4.897   6.453
 7078SOL    HW121818   5.098   4.813   6.446
 7078SOL    HW221819   5.179   4.926   6.361
 7079SOL     OW21820   4.212   5.109   5.760
 7079SOL    HW121821   4.125   5.094   5.807
 7079SOL    HW221822   4.195   5.135   5.665
 7080SOL     OW21823   5.114   4.299   5.664
 7080SOL    HW121824   5.060   4.278   5.745
 7080SOL    HW221825   5.205   4.258   5.673
 7081SOL     OW21826   4.251   3.980   5.914
 7081SOL    HW121827   4.278   3.921   5.839
 7081SOL    HW221828   4.251   4.075   5.883
 7082SOL     OW21829   4.788   5.071   6.926
 7082SOL    HW121830   4.708   5.048   6.981
 7082SOL    HW221831   4.871   5.045   6.975
 7083SOL     OW21832   4.835   4.919   6.686
 7083SOL    HW121833   4.795   4.963   6.767
 7083SOL    HW221834   4.794   4.956   6.603
 7084SOL     OW21835   4.639   3.813   6.988
 7084SOL    HW121836   4.664   3.793   6.893
 7084SOL    HW221837   4.711   3.869   7.030
 7085SOL     OW21838   4.704   4.840   7.305
 7085SOL    HW121839   4.605   4.846   7.315
 7085SOL    HW221840   4.727   4.760   7.249
 7086SOL     OW21841   4.429   4.774   5.954
 7086SOL    HW121842   4.415   4.781   6.053
 7086SOL    HW221843   4.513   4.723   5.936
 7087SOL     OW21844   4.134   4.537   6.837
 7087SOL    HW121845   4.220   4.549   6.887
 7087SOL    HW221846   4.092   4.450   6.864
 7088SOL     OW21847   4.998   4.110   6.848
 7088SOL    HW121848   5.019   4.184   6.912
 7088SOL    HW221849   4.909   4.127   6.805
 7089SOL     OW21850   4.091   4.824   6.087
 7089SOL    HW121851   4.084   4.907   6.031
 7089SOL    HW221852   4.095   4.744   6.027
 7090SOL     OW21853   4.290   4.261   6.451
 7090SOL    HW121854   4.302   4.327   6.377
 7090SOL    HW221855   4.336   4.295   6.534
 7091SOL     OW21856   4.976   5.072   5.974
 7091SOL    HW121857   5.026   5.149   6.014
 7091SOL    HW221858   4.881   5.074   6.006
 7092SOL     OW21859   4.996   5.169   6.728
 7092SOL    HW121860   5.043   5.182   6.815
 7092SOL    HW221861   4.930   5.095   6.737
 7093SOL     OW21862   4.078   5.234   6.915
 7093SOL    HW121863   4.057   5.190   6.828
 7093SOL    HW221864   4.175   5.260   6.918
 7094SOL     OW21865   4.126   4.475   7.184
 7094SOL    HW121866   4.194   4.530   7.137
 7094SOL    HW221867   4.166   4.387   7.211
 7095SOL     OW21868   4.737   3.829   7.356
 7095SOL    HW121869   4.743   3.914   7.304
 7095SOL    HW221870   4.769   3.753   7.299
 7096SOL     OW21871   4.228   3.774   7.326
 7096SOL    HW121872   4.186   3.717   7.256
 7096SOL    HW221873   4.162   3.843   7.358
 7097SOL     OW21874   4.297   4.594   6.615
 7097SOL    HW121875   4.341   4.683   6.606
 7097SOL    HW221876   4.234   4.594   6.692
 7098SOL     OW21877   5.084   4.586   6.631
 7098SOL    HW121878   5.009   4.586   6.565
 7098SOL    HW221879   5.121   4.494   6.640
 7099SOL     OW21880   4.933   4.249   5.861
 7099SOL    HW121881   4.946   4.165   5.915
 7099SOL    HW221882   4.904   4.323   5.921
 7100SOL     OW21883   4.031   3.937   6.817
 7100SOL    HW121884   4.008   3.974   6.907
 7100SOL    HW221885   4.001   3.842   6.811
 7101SOL     OW21886   3.761   5.034   6.868
 7101SOL    HW121887   3.814   4.985   6.936
 7101SOL    HW221888   3.783   5.132   6.873
 7102SOL     OW21889   4.456   4.358   6.650
 7102SOL    HW121890   4.515   4.332   6.574
 7102SOL    HW221891   4.428   4.454   6.639
 7103SOL     OW21892   4.031   3.787   6.204
 7103SOL    HW121893   4.020   3.881   6.237
 7103SOL    HW221894   4.026   3.724   6.281
 7104SOL     OW21895   5.346   4.091   5.960
 7104SOL    HW121896   5.348   4.015   6.024
 7104SOL    HW221897   5.298   4.168   6.000
 7105SOL     OW21898   4.747   4.490   6.552
 7105SOL    HW121899   4.762   4.511   6.648
 7105SOL    HW221900   4.717   4.395   6.543
 7106SOL     OW21901   4.074   4.622   7.390
 7106SOL    HW121902   4.150   4.666   7.438
 7106SOL    HW221903   4.109   4.575   7.308
 7107SOL     OW21904   5.027   4.562   5.628
 7107SOL    HW121905   5.061   4.469   5.643
 7107SOL    HW221906   5.045   4.589   5.533
 7108SOL     OW21907   4.792   5.057   6.435
 7108SOL    HW121908   4.799   4.973   6.380
 7108SOL    HW221909   4.854   5.126   6.399
 7109SOL     OW21910   4.043   4.534   6.535
 7109SOL    HW121911   4.136   4.570   6.540
 7109SOL    HW221912   4.037   4.449   6.587
 7110SOL     OW21913   4.063   4.233   6.592
 7110SOL    HW121914   4.011   4.150   6.575
 7110SOL    HW221915   4.140   4.238   6.528
 7111SOL     OW21916   4.862   4.104   7.264
 7111SOL    HW121917   4.817   4.167   7.328
 7111SOL    HW221918   4.955   4.135   7.247
 7112SOL     OW21919   4.884   3.931   7.063
 7112SOL    HW121920   4.884   3.995   7.140
 7112SOL    HW221921   4.912   3.979   6.980
 7113SOL     OW21922   3.732   5.050   5.786
 7113SOL    HW121923   3.639   5.071   5.755
 7113SOL    HW221924   3.742   4.951   5.799
 7114SOL     OW21925   4.726   4.520   6.824
 7114SOL    HW121926   4.767   4.488   6.910
 7114SOL    HW221927   4.630   4.493   6.821
 7115SOL     OW21928   3.764   4.268   6.700
 7115SOL    HW121929   3.849   4.235   6.659
 7115SOL    HW221930   3.777   4.283   6.798
 7116SOL     OW21931   3.913   4.244   7.308
 7116SOL    HW121932   3.972   4.204   7.238
 7116SOL    HW221933   3.855   4.315   7.267
 7117SOL     OW21934   5.093   4.674   7.246
 7117SOL    HW121935   5.132   4.763   7.266
 7117SOL    HW221936   5.103   4.654   7.149
 7118SOL     OW21937   4.539   4.296   5.911
 7118SOL    HW121938   4.546   4.207   5.865
 7118SOL    HW221939   4.445   4.330   5.903
 7119SOL     OW21940   3.976   5.288   7.330
 7119SOL    HW121941   3.946   5.345   7.406
 7119SOL    HW221942   3.969   5.191   7.356
 7120SOL     OW21943   4.395   4.188   6.855
 7120SOL    HW121944   4.361   4.099   6.825
 7120SOL    HW221945   4.421   4.242   6.775
 7121SOL     OW21946   4.197   4.224   5.777
 7121SOL    HW121947   4.258   4.304   5.781
 7121SOL    HW221948   4.102   4.255   5.784
 7122SOL     OW21949   3.883   4.861   7.052
 7122SOL    HW121950   3.905   4.800   7.128
 7122SOL    HW221951   3.893   4.812   6.966
 7123SOL     OW21952   5.071   4.783   6.820
 7123SOL    HW121953   5.095   4.720   6.746
 7123SOL    HW221954   4.981   4.823   6.802
 7124SOL     OW21955   5.026   4.579   5.895
 7124SOL    HW121956   4.940   4.548   5.937
 7124SOL    HW221957   5.022   4.565   5.796
 7125SOL     OW21958   3.807   4.982   6.608
 7125SOL    HW121959   3.802   4.981   6.708
 7125SOL    HW221960   3.724   4.941   6.570
 7126SOL     OW21961   4.412   5.386   7.302
 7126SOL    HW121962   4.356   5.467   7.311
 7126SOL    HW221963   4.464   5.390   7.216
 7127SOL     OW21964   5.450   3.859   6.109
 7127SOL    HW121965   5.523   3.842   6.042
 7127SOL    HW221966   5.419   3.772   6.147
 7128SOL     OW21967   5.004   4.651   6.258
 7128SOL    HW121968   5.064   4.570   6.260
 7128SOL    HW221969   5.044   4.720   6.198
 7129SOL     OW21970   4.554   4.997   7.008
 7129SOL    HW121971   4.549   5.030   7.103
 7129SOL    HW221972   4.468   5.016   6.962
 7130SOL     OW21973   3.987   4.050   6.306
 7130SOL    HW121974   3.908   4.101   6.272
 7130SOL    HW221975   3.978   4.035   6.404
 7131SOL     OW21976   4.546   4.726   6.958
 7131SOL    HW121977   4.586   4.725   6.866
 7131SOL    HW221978   4.556   4.818   6.998
 7132SOL     OW21979   4.640   4.634   5.877
 7132SOL    HW121980   4.703   4.672   5.809
 7132SOL    HW221981   4.680   4.551   5.916
 7133SOL     OW21982   4.096   5.012   7.076
 7133SOL    HW121983   4.083   5.105   7.042
 7133SOL    HW221984   4.012   4.960   7.063
 7134SOL     OW21985   4.763   4.822   6.282
 7134SOL    HW121986   4.693   4.775   6.336
 7134SOL    HW221987   4.822   4.754   6.239
 7135SOL     OW21988   4.738   3.960   6.557
 7135SOL    HW121989   4.730   3.924   6.464
 7135SOL    HW221990   4.736   3.884   6.622
 7136SOL     OW21991   3.979   5.072   5.876
 7136SOL    HW121992   3.883   5.073   5.849
 7136SOL    HW221993   3.991   5.125   5.960
 7137SOL     OW21994   3.829   4.737   7.312
 7137SOL    HW121995   3.752   4.704   7.366
 7137SOL    HW221996   3.914   4.707   7.354
 7138SOL     OW21997   4.396   3.927   7.075
 7138SOL    HW121998   4.486   3.911   7.035
 7138SOL    HW221999   4.404   3.932   7.174
 7139SOL     OW22000   3.799   4.069   5.619
 7139SOL    HW122001   3.707   4.041   5.590
 7139SOL    HW222002   3.830   4.146   5.563
 7140SOL     OW22003   5.164   4.580   6.984
 7140SOL    HW122004   5.107   4.632   6.921
 7140SOL    HW222005   5.260   4.592   6.960
 7141SOL     OW22006   3.796   3.890   5.904
 7141SOL    HW122007   3.779   3.973   5.850
 7141SOL    HW222008   3.886   3.853   5.882
 7142SOL     OW22009   4.907   5.059   5.705
 7142SOL    HW122010   4.808   5.048   5.707
 7142SOL    HW222011   4.941   5.074   5.798
 7143SOL     OW22012   4.337   4.566   7.017
 7143SOL    HW122013   4.393   4.647   7.000
 7143SOL    HW222014   4.396   4.486   7.020
 7144SOL     OW22015   4.440   4.289   7.294
 7144SOL    HW122016   4.459   4.354   7.368
 7144SOL    HW222017   4.500   4.209   7.303
 7145SOL     OW22018   5.174   4.944   7.219
 7145SOL    HW122019   5.165   4.934   7.318
 7145SOL    HW222020   5.270   4.937   7.193
 7146SOL     OW22021   4.949   4.049   6.035
 7146SOL    HW122022   5.014   3.975   6.024
 7146SOL    HW222023   4.969   4.099   6.119
 7147SOL     OW22024   4.318   4.469   6.238
 7147SOL    HW122025   4.368   4.554   6.219
 7147SOL    HW222026   4.230   4.471   6.190
 7148SOL     OW22027   4.583   5.098   5.602
 7148SOL    HW122028   4.537   5.113   5.690
 7148SOL    HW222029   4.627   5.183   5.572
 7149SOL     OW22030   4.583   4.680   6.447
 7149SOL    HW122031   4.637   4.611   6.495
 7149SOL    HW222032   4.551   4.749   6.513
 7150SOL     OW22033   4.807   4.708   5.673
 7150SOL    HW122034   4.784   4.761   5.591
 7150SOL    HW222035   4.888   4.652   5.654
 7151SOL     OW22036   3.945   5.038   7.430
 7151SOL    HW122037   3.880   4.965   7.409
 7151SOL    HW222038   3.949   5.052   7.528
 7152SOL     OW22039   3.803   4.964   6.239
 7152SOL    HW122040   3.802   4.917   6.327
 7152SOL    HW222041   3.885   4.936   6.188
 7153SOL     OW22042   4.396   5.115   7.210
 7153SOL    HW122043   4.318   5.065   7.248
 7153SOL    HW222044   4.393   5.210   7.241
 7154SOL     OW22045   4.152   4.148   6.106
 7154SOL    HW122046   4.182   4.076   6.044
 7154SOL    HW222047   4.113   4.108   6.189
 7155SOL     OW22048   5.429   5.211   6.690
 7155SOL    HW122049   5.336   5.186   6.663
 7155SOL    HW222050   5.455   5.161   6.772
 7156SOL     OW22051   4.041   4.271   6.866
 7156SOL    HW122052   4.079   4.212   6.938
 7156SOL    HW222053   4.081   4.245   6.778
 7157SOL     OW22054   5.148   3.938   6.698
 7157SOL    HW122055   5.200   3.873   6.753
 7157SOL    HW222056   5.099   4.001   6.759
 7158SOL     OW22057   4.725   3.758   6.740
 7158SOL    HW122058   4.662   3.686   6.709
 7158SOL    HW222059   4.818   3.722   6.740
 7159SOL     OW22060   4.494   5.054   5.887
 7159SOL    HW122061   4.448   4.967   5.904
 7159SOL    HW222062   4.585   5.051   5.928
 7160SOL     OW22063   4.342   5.291   6.870
 7160SOL    HW122064   4.337   5.373   6.927
 7160SOL    HW222065   4.431   5.288   6.825
 7161SOL     OW22066   5.076   3.776   5.754
 7161SOL    HW122067   5.111   3.735   5.670
 7161SOL    HW222068   4.986   3.738   5.774
 7162SOL     OW22069   5.024   4.177   6.277
 7162SOL    HW122070   4.965   4.257   6.281
 7162SOL    HW222071   5.039   4.142   6.370
 7163SOL     OW22072   5.317   3.945   6.468
 7163SOL    HW122073   5.233   3.944   6.522
 7163SOL    HW222074   5.319   4.028   6.412
 7164SOL     OW22075   3.763   4.801   5.886
 7164SOL    HW122076   3.862   4.790   5.877
 7164SOL    HW222077   3.723   4.715   5.918
 7165SOL     OW22078   3.954   4.352   7.561
 7165SOL    HW122079   3.861   4.350   7.598
 7165SOL    HW222080   3.955   4.313   7.469
 7166SOL     OW22081   3.955   5.437   7.931
 7166SOL    HW122082   3.989   5.514   7.985
 7166SOL    HW222083   3.999   5.437   7.841
 7167SOL     OW22084   3.954   5.158   7.986
 7167SOL    HW122085   3.928   5.254   7.986
 7167SOL    HW222086   3.883   5.104   8.031
 7168SOL     OW22087   4.330   4.688   7.571
 7168SOL    HW122088   4.337   4.772   7.517
 7168SOL    HW222089   4.376   4.701   7.659
 7169SOL     OW22090   3.751   5.320   7.565
 7169SOL    HW122091   3.732   5.224   7.586
 7169SOL    HW222092   3.718   5.378   7.640
 7170SOL     OW22093   5.413   4.646   8.060
 7170SOL    HW122094   5.508   4.617   8.068
 7170SOL    HW222095   5.405   4.711   7.985
 7171SOL     OW22096   4.533   3.728   7.950
 7171SOL    HW122097   4.573   3.819   7.941
 7171SOL    HW222098   4.433   3.736   7.956
 7172SOL     OW22099   4.322   4.453   7.718
 7172SOL    HW122100   4.346   4.522   7.650
 7172SOL    HW222101   4.244   4.486   7.772
 7173SOL     OW22102   3.800   4.535   8.237
 7173SOL    HW122103   3.899   4.523   8.246
 7173SOL    HW222104   3.776   4.630   8.258
 7174SOL     OW22105   4.589   4.072   7.643
 7174SOL    HW122106   4.648   4.135   7.594
 7174SOL    HW222107   4.608   3.978   7.614
 7175SOL     OW22108   4.045   4.667   7.690
 7175SOL    HW122109   4.127   4.706   7.648
 7175SOL    HW222110   4.018   4.585   7.641
 7176SOL     OW22111   4.835   5.500   7.685
 7176SOL    HW122112   4.775   5.438   7.735
 7176SOL    HW222113   4.866   5.456   7.600
 7177SOL     OW22114   5.124   3.831   7.874
 7177SOL    HW122115   5.100   3.794   7.784
 7177SOL    HW222116   5.223   3.847   7.878
 7178SOL     OW22117   4.106   4.424   7.928
 7178SOL    HW122118   4.151   4.334   7.925
 7178SOL    HW222119   4.012   4.413   7.961
 7179SOL     OW22120   4.338   3.846   7.565
 7179SOL    HW122121   4.436   3.824   7.572
 7179SOL    HW222122   4.307   3.829   7.472
 7180SOL     OW22123   4.263   3.788   7.960
 7180SOL    HW122124   4.182   3.789   8.018
 7180SOL    HW222125   4.266   3.871   7.905
 7181SOL     OW22126   5.158   4.912   7.489
 7181SOL    HW122127   5.190   4.836   7.546
 7181SOL    HW222128   5.066   4.939   7.519
 7182SOL     OW22129   4.021   3.759   7.619
 7182SOL    HW122130   4.070   3.843   7.598
 7182SOL    HW222131   4.083   3.694   7.664
 7183SOL     OW22132   4.659   3.960   7.928
 7183SOL    HW122133   4.611   4.001   7.850
 7183SOL    HW222134   4.758   3.958   7.909
 7184SOL     OW22135   4.183   4.876   8.189
 7184SOL    HW122136   4.112   4.849   8.254
 7184SOL    HW222137   4.157   4.848   8.096
 7185SOL     OW22138   4.756   4.273   7.464
 7185SOL    HW122139   4.715   4.355   7.425
 7185SOL    HW222140   4.820   4.299   7.537
 7186SOL     OW22141   4.212   5.109   7.622
 7186SOL    HW122142   4.125   5.094   7.669
 7186SOL    HW222143   4.195   5.135   7.527
 7187SOL     OW22144   5.114   4.299   7.526
 7187SOL    HW122145   5.060   4.278   7.607
 7187SOL    HW222146   5.205   4.258   7.535
 7188SOL     OW22147   4.251   3.980   7.776
 7188SOL    HW122148   4.278   3.921   7.701
 7188SOL    HW222149   4.251   4.075   7.745
 7189SOL     OW22150   4.429   4.774   7.816
 7189SOL    HW122151   4.415   4.781   7.915
 7189SOL    HW222152   4.513   4.723   7.798
 7190SOL     OW22153   4.091   4.824   7.949
 7190SOL    HW122154   4.084   4.907   7.893
 7190SOL    HW222155   4.095   4.744   7.889
 7191SOL     OW22156   4.976   5.072   7.836
 7191SOL    HW122157   5.026   5.149   7.876
 7191SOL    HW222158   4.881   5.074   7.868
 7192SOL     OW22159   5.306   4.363   7.920
 7192SOL    HW122160   5.275   4.424   7.993
 7192SOL    HW222161   5.356   4.415   7.851
 7193SOL     OW22162   4.933   4.249   7.723
 7193SOL    HW122163   4.946   4.165   7.777
 7193SOL    HW222164   4.904   4.323   7.783
 7194SOL     OW22165   5.346   4.091   7.822
 7194SOL    HW122166   5.348   4.015   7.886
 7194SOL    HW222167   5.298   4.168   7.862
 7195SOL     OW22168   5.027   4.562   7.490
 7195SOL    HW122169   5.061   4.469   7.505
 7195SOL    HW222170   5.045   4.589   7.395
 7196SOL     OW22171   3.732   5.050   7.648
 7196SOL    HW122172   3.639   5.071   7.617
 7196SOL    HW222173   3.742   4.951   7.661
 7197SOL     OW22174   4.539   4.296   7.773
 7197SOL    HW122175   4.546   4.207   7.727
 7197SOL    HW222176   4.445   4.330   7.765
 7198SOL     OW22177   4.197   4.224   7.639
 7198SOL    HW122178   4.258   4.304   7.643
 7198SOL    HW222179   4.102   4.255   7.646
 7199SOL     OW22180   5.026   4.579   7.757
 7199SOL    HW122181   4.940   4.548   7.799
 7199SOL    HW222182   5.022   4.565   7.658
 7200SOL     OW22183   5.450   3.859   7.971
 7200SOL    HW122184   5.523   3.842   7.904
 7200SOL    HW222185   5.419   3.772   8.009
 7201SOL     OW22186   4.640   4.634   7.739
 7201SOL    HW122187   4.703   4.672   7.671
 7201SOL    HW222188   4.680   4.551   7.778
 7202SOL     OW22189   3.979   5.072   7.738
 7202SOL    HW122190   3.883   5.073   7.711
 7202SOL    HW222191   3.991   5.125   7.822
 7203SOL     OW22192   3.799   4.069   7.481
 7203SOL    HW122193   3.707   4.041   7.452
 7203SOL    HW222194   3.830   4.146   7.425
 7204SOL     OW22195   3.796   3.890   7.766
 7204SOL    HW122196   3.779   3.973   7.712
 7204SOL    HW222197   3.886   3.853   7.744
 7205SOL     OW22198   4.907   5.059   7.567
 7205SOL    HW122199   4.808   5.048   7.569
 7205SOL    HW222200   4.941   5.074   7.660
 7206SOL     OW22201   4.949   4.049   7.897
 7206SOL    HW122202   5.014   3.975   7.886
 7206SOL    HW222203   4.969   4.099   7.981
 7207SOL     OW22204   4.318   4.469   8.100
 7207SOL    HW122205   4.368   4.554   8.081
 7207SOL    HW222206   4.230   4.471   8.052
 7208SOL     OW22207   4.583   5.098   7.464
 7208SOL    HW122208   4.537   5.113   7.552
 7208SOL    HW222209   4.627   5.183   7.434
 7209SOL     OW22210   4.807   4.708   7.535
 7209SOL    HW122211   4.784   4.761   7.453
 7209SOL    HW222212   4.888   4.652   7.516
 7210SOL     OW22213   4.152   4.148   7.968
 7210SOL    HW122214   4.182   4.076   7.906
 7210SOL    HW222215   4.113   4.108   8.051
 7211SOL     OW22216   4.494   5.054   7.749
 7211SOL    HW122217   4.448   4.967   7.766
 7211SOL    HW222218   4.585   5.051   7.790
 7212SOL     OW22219   5.076   3.776   7.616
 7212SOL    HW122220   5.111   3.735   7.532
 7212SOL    HW222221   4.986   3.738   7.636
 7213SOL     OW22222   3.763   4.801   7.748
 7213SOL    HW122223   3.862   4.790   7.739
 7213SOL    HW222224   3.723   4.715   7.780
   5.30000   5.30000   8.08000
