2aCDOC_1PEG_l14
22227
    1LIG      O    1   1.946   2.005   0.044
    1LIG      C    2   2.017   2.020   0.198
    1LIG     C1    3   1.943   1.986   0.364
    1LIG     O1    4   2.000   2.029   0.518
    1LIG     C2    5   1.945   1.989   0.673
    1LIG     C3    6   2.012   2.048   0.834
    1LIG     O2    7   1.962   2.006   0.987
    1LIG     C4    8   2.025   2.043   1.138
    1LIG     C5    9   1.958   1.995   1.301
    1LIG     O3   10   2.020   2.032   1.452
    1LIG     C6   11   1.964   1.985   1.603
    1LIG     C7   12   2.031   2.035   1.765
    1LIG     O4   13   1.971   1.995   1.917
    1LIG     C8   14   2.029   2.032   2.070
    1LIG     C9   15   1.952   1.991   2.231
    1LIG     O5   16   2.005   2.034   2.384
    1LIG    C10   17   1.945   1.993   2.534
    1LIG    C11   18   2.012   2.051   2.694
    1LIG     O6   19   1.960   2.007   2.845
    1LIG    C12   20   2.023   2.044   2.993
    1LIG    C13   21   1.954   1.997   3.155
    1LIG     O7   22   2.017   2.034   3.304
    1LIG    C14   23   1.961   1.986   3.453
    1LIG    C15   24   2.028   2.036   3.615
    1LIG     O8   25   1.968   1.997   3.766
    1LIG    C16   26   2.029   2.032   3.918
    1LIG    C17   27   1.951   1.991   4.078
    1LIG     O9   28   2.006   2.033   4.230
    1LIG    C18   29   1.944   1.993   4.380
    1LIG    C19   30   2.011   2.050   4.538
    1LIG    O10   31   1.959   2.007   4.688
    1LIG    C20   32   2.022   2.043   4.836
    1LIG    C21   33   1.952   1.997   4.997
    1LIG    O11   34   2.016   2.033   5.145
    1LIG    C22   35   1.960   1.985   5.293
    1LIG    C23   36   2.029   2.034   5.453
    1LIG    O12   37   1.971   1.992   5.603
    1LIG    C24   38   2.037   2.018   5.753
    1LIG    C25   39   1.959   1.979   5.911
    1LIG    O13   40   2.024   2.004   6.060
    1LIG    C26   41   1.975   1.948   6.209
    1LIG    C27   42   2.031   2.008   6.372
    1LIG    O14   43   1.968   1.968   6.520
    1LIG    C28   44   2.021   2.017   6.669
    1LIG    C29   45   1.948   1.972   6.830
    1LIG    O15   46   2.010   2.009   6.981
    1LIG    C30   47   1.953   1.973   7.133
    1LIG    C31   48   2.024   2.026   7.292
    1LIG    O16   49   1.968   1.987   7.444
    1LIG    C32   50   2.027   2.030   7.593
    1LIG    C33   51   1.959   1.984   7.755
    1LIG    O17   52   2.016   2.030   7.904
    1LIG    C34   53   1.960   1.987   8.055
    1LIG    C35   54   2.018   2.048   8.215
    1LIG    O18   55   1.957   2.004   8.363
    1LIG    C36   56   2.012   2.042   8.515
    1LIG    C37   57   1.935   1.995   8.674
    1LIG    O19   58   1.990   2.035   8.827
    1LIG    C38   59   1.938   1.985   8.977
    1LIG    C39   60   2.009   2.032   9.137
    1LIG    O20   61   1.955   1.992   9.290
    1LIG    C40   62   2.017   2.034   9.440
    1LIG    C41   63   1.952   1.984   9.603
    1LIG    O21   64   2.010   2.030   9.753
    1LIG    C42   65   1.956   1.986   9.904
    1LIG    C43   66   2.025   2.040  10.063
    1LIG    O22   67   1.969   2.000  10.214
    1LIG    C44   68   2.027   2.039  10.365
    1LIG    C45   69   1.951   1.995  10.524
    1LIG    O23   70   2.009   2.032  10.676
    1LIG    C46   71   1.951   1.985  10.824
    1LIG    C47   72   2.020   2.031  10.986
    1LIG    O24   73   1.964   1.990  11.137
    1LIG    C48   74   2.022   2.033  11.288
    1LIG    C49   75   1.956   1.983  11.450
    1LIG    O25   76   2.013   2.027  11.601
    1LIG    C50   77   1.957   1.985  11.752
    1LIG    C51   78   2.027   2.037  11.913
    1LIG    O26   79   1.970   1.999  12.065
    1LIG    C52   80   2.028   2.038  12.216
    1LIG    C53   81   1.953   1.995  12.378
    1LIG    O27   82   2.010   2.032  12.531
    1LIG    C54   83   1.953   1.984  12.681
    1LIG    C55   84   2.020   2.029  12.846
    1LIG    O28   85   1.964   1.986  12.999
    1LIG    C56   86   2.019   2.027  13.154
    1LIG    C57   87   1.950   1.973  13.317
    1LIG    O29   88   2.004   2.007  13.474
    1LIG    C58   89   1.936   1.972  13.624
    1LIG    C59   90   2.013   1.974  13.792
    1LIG      H   91   2.052   2.124   0.204
    1LIG     H1   92   2.110   1.961   0.194
    1LIG     H2   93   1.933   1.876   0.367
    1LIG     H3   94   1.840   2.023   0.359
    1LIG     H4   95   1.948   1.880   0.679
    1LIG     H5   96   1.838   2.014   0.675
    1LIG     H6   97   2.008   2.157   0.829
    1LIG     H7   98   2.120   2.026   0.830
    1LIG     H8   99   2.034   2.152   1.141
    1LIG     H9  100   2.129   2.008   1.137
    1LIG    H10  101   1.945   1.886   1.299
    1LIG    H11  102   1.855   2.034   1.301
    1LIG    H12  103   1.968   1.875   1.603
    1LIG    H13  104   1.857   2.008   1.605
    1LIG    H14  105   2.038   2.144   1.762
    1LIG    H15  106   2.135   2.001   1.765
    1LIG    H16  107   2.046   2.141   2.073
    1LIG    H17  108   2.130   1.990   2.075
    1LIG    H18  109   1.943   1.881   2.230
    1LIG    H19  110   1.848   2.027   2.223
    1LIG    H20  111   1.948   1.883   2.540
    1LIG    H21  112   1.839   2.019   2.534
    1LIG    H22  113   2.008   2.160   2.690
    1LIG    H23  114   2.119   2.029   2.690
    1LIG    H24  115   2.033   2.154   2.997
    1LIG    H25  116   2.127   2.008   2.993
    1LIG    H26  117   1.941   1.888   3.152
    1LIG    H27  118   1.852   2.037   3.154
    1LIG    H28  119   1.965   1.876   3.453
    1LIG    H29  120   1.854   2.010   3.456
    1LIG    H30  121   2.034   2.145   3.611
    1LIG    H31  122   2.133   2.003   3.614
    1LIG    H32  123   2.048   2.140   3.921
    1LIG    H33  124   2.129   1.987   3.922
    1LIG    H34  125   1.942   1.881   4.077
    1LIG    H35  126   1.848   2.027   4.071
    1LIG    H36  127   1.946   1.883   4.385
    1LIG    H37  128   1.838   2.020   4.379
    1LIG    H38  129   2.007   2.160   4.535
    1LIG    H39  130   2.118   2.028   4.535
    1LIG    H40  131   2.033   2.152   4.839
    1LIG    H41  132   2.125   2.006   4.836
    1LIG    H42  133   1.937   1.889   4.994
    1LIG    H43  134   1.851   2.039   4.996
    1LIG    H44  135   1.963   1.876   5.293
    1LIG    H45  136   1.854   2.010   5.297
    1LIG    H46  137   2.035   2.143   5.451
    1LIG    H47  138   2.134   2.001   5.451
    1LIG    H48  139   2.064   2.125   5.758
    1LIG    H49  140   2.133   1.966   5.753
    1LIG    H50  141   1.929   1.874   5.905
    1LIG    H51  142   1.864   2.034   5.910
    1LIG    H52  143   1.997   1.841   6.209
    1LIG    H53  144   1.866   1.953   6.211
    1LIG    H54  145   2.033   2.118   6.367
    1LIG    H55  146   2.137   1.980   6.376
    1LIG    H56  147   2.021   2.126   6.667
    1LIG    H57  148   2.127   1.989   6.673
    1LIG    H58  149   1.934   1.863   6.828
    1LIG    H59  150   1.846   2.012   6.828
    1LIG    H60  151   1.950   1.863   7.139
    1LIG    H61  152   1.848   2.004   7.135
    1LIG    H62  153   2.026   2.136   7.288
    1LIG    H63  154   2.129   1.996   7.289
    1LIG    H64  155   2.034   2.139   7.594
    1LIG    H65  156   2.131   1.996   7.596
    1LIG    H66  157   1.957   1.875   7.755
    1LIG    H67  158   1.853   2.014   7.752
    1LIG    H68  159   1.971   1.879   8.062
    1LIG    H69  160   1.852   2.004   8.054
    1LIG    H70  161   2.011   2.158   8.210
    1LIG    H71  162   2.125   2.028   8.217
    1LIG    H72  163   2.023   2.150   8.518
    1LIG    H73  164   2.114   2.002   8.519
    1LIG    H74  165   1.927   1.886   8.672
    1LIG    H75  166   1.831   2.032   8.669
    1LIG    H76  167   1.941   1.875   8.975
    1LIG    H77  168   1.831   2.010   8.983
    1LIG    H78  169   2.017   2.141   9.134
    1LIG    H79  170   2.113   1.996   9.131
    1LIG    H80  171   2.021   2.144   9.442
    1LIG    H81  172   2.121   2.002   9.440
    1LIG    H82  173   1.952   1.875   9.601
    1LIG    H83  174   1.846   2.012   9.602
    1LIG    H84  175   1.958   1.876   9.907
    1LIG    H85  176   1.850   2.012   9.908
    1LIG    H86  177   2.029   2.149  10.059
    1LIG    H87  178   2.131   2.012  10.060
    1LIG    H88  179   2.038   2.148  10.366
    1LIG    H89  180   2.130   2.000  10.369
    1LIG    H90  181   1.937   1.887  10.522
    1LIG    H91  182   1.850   2.036  10.520
    1LIG    H92  183   1.950   1.875  10.823
    1LIG    H93  184   1.846   2.014  10.827
    1LIG    H94  185   2.027   2.140  10.983
    1LIG    H95  186   2.124   1.996  10.981
    1LIG    H96  187   2.025   2.143  11.290
    1LIG    H97  188   2.128   2.002  11.289
    1LIG    H98  189   1.956   1.873  11.448
    1LIG    H99  190   1.850   2.011  11.448
    1LIG   H100  191   1.954   1.876  11.755
    1LIG   H101  192   1.852   2.016  11.755
    1LIG   H102  193   2.035   2.146  11.908
    1LIG   H103  194   2.132   2.005  11.909
    1LIG   H104  195   2.039   2.147  12.217
    1LIG   H105  196   2.131   1.999  12.220
    1LIG   H106  197   1.939   1.886  12.375
    1LIG   H107  198   1.851   2.035  12.372
    1LIG   H108  199   1.953   1.874  12.679
    1LIG   H109  200   1.847   2.012  12.683
    1LIG   H110  201   2.026   2.138  12.844
    1LIG   H111  202   2.124   1.995  12.841
    1LIG   H112  203   2.022   2.137  13.157
    1LIG   H113  204   2.125   1.997  13.156
    1LIG   H114  205   1.946   1.864  13.310
    1LIG   H115  206   1.845   2.005  13.314
    1LIG   H116  207   1.901   1.869  13.614
    1LIG   H117  208   1.842   2.030  13.630
    1LIG   H118  209   2.107   2.031  13.784
    1LIG   H119  210   2.045   1.870  13.800
    2MOL     C1  211   2.348   1.584   6.452
    2MOL     H1  212   2.352   1.476   6.437
    2MOL     O1  213   2.397   1.652   6.335
    2MOL     C2  214   2.395   1.797   6.337
    2MOL     H2  215   2.292   1.832   6.343
    2MOL     C3  216   2.457   1.846   6.204
    2MOL     H3  217   2.562   1.816   6.199
    2MOL     H4  218   2.453   1.956   6.200
    2MOL     O2  219   2.384   1.791   6.094
    2MOL     C4  220   2.427   1.839   5.965
    2MOL     C5  221   2.440   1.621   6.570
    2MOL     H5  222   2.542   1.588   6.548
    2MOL     O3  223   2.392   1.558   6.691
    2MOL     C6  224   2.420   1.417   6.702
    2MOL     C7  225   2.443   1.774   6.592
    2MOL     H6  226   2.344   1.806   6.627
    2MOL     O4  227   2.546   1.803   6.689
    2MOL     C8  228   2.496   1.853   6.814
    2MOL     C9  229   2.473   1.852   6.462
    2MOL     H7  230   2.581   1.846   6.442
    2MOL     O5  231   2.431   1.988   6.489
    2MOL    C10  232   2.526   2.092   6.457
    2MOL     H8  233   2.627   2.050   6.447
    2MOL     O6  234   2.486   2.152   6.333
    2MOL    C11  235   2.356   2.217   6.333
    2MOL     H9  236   2.278   2.145   6.357
    2MOL    C12  237   2.332   2.271   6.191
    2MOL    H10  238   2.417   2.332   6.159
    2MOL    H11  239   2.241   2.332   6.189
    2MOL     O7  240   2.315   2.159   6.102
    2MOL    C13  241   2.294   2.196   5.965
    2MOL    C14  242   2.529   2.202   6.568
    2MOL    H12  243   2.608   2.273   6.543
    2MOL     O8  244   2.554   2.144   6.697
    2MOL    C15  245   2.690   2.107   6.721
    2MOL    C16  246   2.397   2.281   6.577
    2MOL    H13  247   2.318   2.216   6.616
    2MOL     O9  248   2.417   2.397   6.661
    2MOL    C17  249   2.378   2.380   6.798
    2MOL    C18  250   2.355   2.332   6.438
    2MOL    H14  251   2.424   2.410   6.406
    2MOL    O10  252   2.221   2.382   6.454
    2MOL    C19  253   2.200   2.521   6.422
    2MOL    H15  254   2.295   2.572   6.403
    2MOL    O11  255   2.117   2.529   6.306
    2MOL    C20  256   1.991   2.456   6.315
    2MOL    H16  257   2.012   2.349   6.325
    2MOL    C21  258   1.921   2.482   6.180
    2MOL    H17  259   1.915   2.590   6.163
    2MOL    H18  260   1.820   2.442   6.182
    2MOL    O12  261   2.002   2.418   6.078
    2MOL    C22  262   1.934   2.375   5.959
    2MOL    C23  263   2.123   2.596   6.534
    2MOL    H19  264   2.098   2.696   6.496
    2MOL    O13  265   2.203   2.609   6.654
    2MOL    C24  266   2.317   2.697   6.643
    2MOL    C25  267   1.991   2.523   6.567
    2MOL    H20  268   2.015   2.425   6.609
    2MOL    O14  269   1.916   2.606   6.660
    2MOL    C26  270   1.910   2.553   6.793
    2MOL    C27  271   1.905   2.501   6.439
    2MOL    H21  272   1.855   2.595   6.414
    2MOL    O15  273   1.809   2.396   6.472
    2MOL    C28  274   1.669   2.423   6.443
    2MOL    H22  275   1.657   2.530   6.420
    2MOL    O16  276   1.628   2.344   6.329
    2MOL    C29  277   1.624   2.199   6.345
    2MOL    H23  278   1.724   2.162   6.371
    2MOL    C30  279   1.581   2.137   6.208
    2MOL    H24  280   1.624   2.037   6.197
    2MOL    H25  281   1.620   2.199   6.127
    2MOL    O17  282   1.438   2.129   6.197
    2MOL    C31  283   1.391   2.087   6.068
    2MOL    C32  284   1.576   2.388   6.562
    2MOL    H26  285   1.474   2.417   6.537
    2MOL    O18  286   1.618   2.458   6.682
    2MOL    C33  287   1.581   2.597   6.687
    2MOL    C34  288   1.575   2.236   6.590
    2MOL    H27  289   1.676   2.205   6.621
    2MOL    O19  290   1.477   2.206   6.692
    2MOL    C35  291   1.532   2.170   6.819
    2MOL    C36  292   1.538   2.156   6.464
    2MOL    H28  293   1.432   2.169   6.441
    2MOL    O20  294   1.570   2.018   6.495
    2MOL    C37  295   1.473   1.919   6.455
    2MOL    H29  296   1.375   1.965   6.437
    2MOL    O21  297   1.520   1.853   6.334
    2MOL    C38  298   1.651   1.790   6.343
    2MOL    H30  299   1.726   1.865   6.371
    2MOL    C39  300   1.689   1.734   6.205
    2MOL    H31  301   1.796   1.711   6.204
    2MOL    H32  302   1.671   1.810   6.128
    2MOL    O22  303   1.612   1.615   6.175
    2MOL    C40  304   1.658   1.543   6.059
    2MOL    C41  305   1.462   1.813   6.568
    2MOL    H33  306   1.385   1.740   6.541
    2MOL    O23  307   1.428   1.878   6.692
    2MOL    C42  308   1.292   1.922   6.703
    2MOL    C43  309   1.595   1.738   6.588
    2MOL    H34  310   1.670   1.808   6.628
    2MOL    O24  311   1.573   1.628   6.679
    2MOL    C44  312   1.618   1.650   6.812
    2MOL    C45  313   1.650   1.683   6.455
    2MOL    H35  314   1.587   1.598   6.424
    2MOL    O25  315   1.786   1.641   6.480
    2MOL    C46  316   1.817   1.505   6.443
    2MOL    H36  317   1.725   1.448   6.427
    2MOL    O26  318   1.897   1.508   6.324
    2MOL    C47  319   2.021   1.584   6.333
    2MOL    H37  320   1.998   1.689   6.355
    2MOL    C48  321   2.096   1.575   6.199
    2MOL    H38  322   2.128   1.472   6.180
    2MOL    H39  323   2.185   1.639   6.203
    2MOL    O27  324   2.011   1.620   6.091
    2MOL    C49  325   2.083   1.655   5.972
    2MOL    C50  326   1.899   1.437   6.555
    2MOL    H40  327   1.918   1.333   6.526
    2MOL    O28  328   1.825   1.442   6.679
    2MOL    C51  329   1.723   1.342   6.692
    2MOL    C52  330   2.034   1.506   6.580
    2MOL    H41  331   2.016   1.603   6.626
    2MOL    O29  332   2.115   1.418   6.663
    2MOL    C53  333   2.107   1.441   6.805
    2MOL    C54  334   2.110   1.529   6.447
    2MOL    H42  335   2.154   1.433   6.415
    2MOL    O30  336   2.212   1.627   6.477
    2MOL    H43  337   2.279   2.107   5.904
    2MOL    H44  338   2.205   2.260   5.956
    2MOL    H45  339   2.381   2.250   5.927
    2MOL    H46  340   2.358   1.805   5.887
    2MOL    H47  341   2.428   1.949   5.965
    2MOL    H48  342   2.527   1.803   5.943
    2MOL    H49  343   2.014   1.687   5.894
    2MOL    H50  344   2.153   1.737   5.991
    2MOL    H51  345   2.139   1.569   5.933
    2MOL    H52  346   1.598   1.452   6.046
    2MOL    H53  347   1.648   1.605   5.969
    2MOL    H54  348   1.763   1.514   6.071
    2MOL    H55  349   1.281   2.095   6.064
    2MOL    H56  350   1.432   2.151   5.989
    2MOL    H57  351   1.420   1.983   6.049
    2MOL    H58  352   1.991   2.296   5.910
    2MOL    H59  353   1.834   2.336   5.982
    2MOL    H60  354   1.924   2.458   5.889
    2MOL    H61  355   1.272   1.957   6.805
    2MOL    H62  356   1.274   2.006   6.634
    2MOL    H63  357   1.224   1.840   6.678
    2MOL    H64  358   1.453   2.136   6.886
    2MOL    H65  359   1.604   2.088   6.807
    2MOL    H66  360   1.581   2.257   6.863
    2MOL    H67  361   1.605   2.638   6.785
    2MOL    H68  362   1.636   2.654   6.611
    2MOL    H69  363   1.473   2.608   6.669
    2MOL    H70  364   1.851   2.620   6.857
    2MOL    H71  365   1.863   2.454   6.794
    2MOL    H72  366   2.011   2.544   6.835
    2MOL    H73  367   2.366   2.708   6.741
    2MOL    H74  368   2.391   2.658   6.573
    2MOL    H75  369   2.286   2.797   6.609
    2MOL    H76  370   2.402   2.470   6.856
    2MOL    H77  371   2.270   2.362   6.805
    2MOL    H78  372   2.431   2.295   6.842
    2MOL    H79  373   2.702   2.071   6.824
    2MOL    H80  374   2.717   2.026   6.653
    2MOL    H81  375   2.757   2.192   6.705
    2MOL    H82  376   2.578   1.870   6.885
    2MOL    H83  377   2.443   1.947   6.799
    2MOL    H84  378   2.427   1.780   6.856
    2MOL    H85  379   2.382   1.379   6.797
    2MOL    H86  380   2.372   1.362   6.620
    2MOL    H87  381   2.528   1.400   6.699
    2MOL    H88  382   2.155   1.358   6.859
    2MOL    H89  383   2.159   1.533   6.832
    2MOL    H90  384   2.004   1.448   6.839
    2MOL    H91  385   1.687   1.338   6.795
    2MOL    H92  386   1.638   1.366   6.626
    2MOL    H93  387   1.764   1.244   6.664
    2MOL    H94  388   1.585   1.569   6.878
    2MOL    H95  389   1.728   1.656   6.815
    2MOL    H96  390   1.577   1.745   6.849
    3MOL     C1  391   1.649   1.595   7.442
    3MOL     H1  392   1.645   1.486   7.453
    3MOL     O1  393   1.603   1.658   7.563
    3MOL     C2  394   1.604   1.804   7.564
    3MOL     H2  395   1.707   1.841   7.556
    3MOL     C3  396   1.544   1.849   7.699
    3MOL     H3  397   1.441   1.810   7.707
    3MOL     H4  398   1.540   1.958   7.703
    3MOL     O2  399   1.625   1.799   7.807
    3MOL     C4  400   1.583   1.844   7.936
    3MOL     C5  401   1.555   1.638   7.326
    3MOL     H5  402   1.453   1.605   7.350
    3MOL     O3  403   1.599   1.579   7.202
    3MOL     C6  404   1.557   1.443   7.184
    3MOL     C7  405   1.555   1.790   7.310
    3MOL     H6  406   1.655   1.822   7.279
    3MOL     O4  407   1.454   1.827   7.212
    3MOL     C8  408   1.507   1.858   7.083
    3MOL     C9  409   1.522   1.860   7.443
    3MOL     H7  410   1.415   1.848   7.463
    3MOL     O5  411   1.556   1.999   7.421
    3MOL    C10  412   1.458   2.097   7.458
    3MOL     H8  413   1.360   2.049   7.473
    3MOL     O6  414   1.501   2.159   7.580
    3MOL    C11  415   1.632   2.222   7.575
    3MOL     H9  416   1.709   2.148   7.549
    3MOL    C12  417   1.662   2.277   7.715
    3MOL    H10  418   1.583   2.346   7.745
    3MOL    H11  419   1.758   2.330   7.715
    3MOL     O7  420   1.668   2.167   7.807
    3MOL    C13  421   1.698   2.209   7.941
    3MOL    C14  422   1.445   2.207   7.349
    3MOL    H12  423   1.365   2.277   7.379
    3MOL     O8  424   1.415   2.150   7.221
    3MOL    C15  425   1.279   2.106   7.204
    3MOL    C16  426   1.575   2.288   7.333
    3MOL    H13  427   1.651   2.222   7.287
    3MOL     O9  428   1.546   2.404   7.251
    3MOL    C17  429   1.610   2.400   7.123
    3MOL    C18  430   1.631   2.335   7.469
    3MOL    H14  431   1.568   2.417   7.506
    3MOL    O10  432   1.767   2.380   7.445
    3MOL    C19  433   1.800   2.514   7.489
    3MOL    H15  434   1.709   2.569   7.516
    3MOL    O11  435   1.888   2.506   7.603
    3MOL    C20  436   2.012   2.433   7.584
    3MOL    H16  437   1.990   2.329   7.559
    3MOL    C21  438   2.090   2.439   7.718
    3MOL    H17  439   2.101   2.543   7.750
    3MOL    H18  440   2.189   2.396   7.707
    3MOL    O12  441   2.018   2.364   7.817
    3MOL    C22  442   2.086   2.356   7.944
    3MOL    C23  443   1.876   2.592   7.379
    3MOL    H19  444   1.899   2.691   7.419
    3MOL    O13  445   1.796   2.606   7.260
    3MOL    C24  446   1.685   2.698   7.268
    3MOL    C25  447   2.008   2.524   7.341
    3MOL    H20  448   1.986   2.428   7.292
    3MOL    O14  449   2.082   2.613   7.254
    3MOL    C26  450   2.087   2.569   7.117
    3MOL    C27  451   2.095   2.495   7.466
    3MOL    H21  452   2.141   2.589   7.499
    3MOL    O15  453   2.196   2.400   7.422
    3MOL    C28  454   2.333   2.431   7.455
    3MOL    H22  455   2.345   2.538   7.478
    3MOL    O16  456   2.370   2.353   7.569
    3MOL    C29  457   2.361   2.209   7.555
    3MOL    H23  458   2.258   2.181   7.530
    3MOL    C30  459   2.396   2.150   7.693
    3MOL    H24  460   2.379   2.041   7.694
    3MOL    H25  461   2.332   2.195   7.770
    3MOL    O17  462   2.533   2.180   7.721
    3MOL    C31  463   2.596   2.103   7.824
    3MOL    C32  464   2.429   2.394   7.338
    3MOL    H26  465   2.531   2.423   7.367
    3MOL    O18  466   2.390   2.463   7.217
    3MOL    C33  467   2.423   2.603   7.212
    3MOL    C34  468   2.427   2.243   7.311
    3MOL    H27  469   2.328   2.215   7.273
    3MOL    O19  470   2.530   2.213   7.214
    3MOL    C35  471   2.479   2.175   7.085
    3MOL    C36  472   2.454   2.161   7.440
    3MOL    H28  473   2.559   2.174   7.468
    3MOL    O20  474   2.424   2.022   7.408
    3MOL    C37  475   2.526   1.925   7.442
    3MOL    H29  476   2.623   1.973   7.457
    3MOL    O21  477   2.484   1.857   7.564
    3MOL    C38  478   2.355   1.791   7.558
    3MOL    H30  479   2.277   1.863   7.532
    3MOL    C39  480   2.322   1.734   7.697
    3MOL    H31  481   2.219   1.698   7.697
    3MOL    H32  482   2.330   1.813   7.772
    3MOL    O22  483   2.414   1.627   7.727
    3MOL    C40  484   2.372   1.544   7.836
    3MOL    C41  485   2.538   1.818   7.330
    3MOL    H33  486   2.618   1.747   7.355
    3MOL    O23  487   2.565   1.880   7.202
    3MOL    C42  488   2.698   1.934   7.186
    3MOL    C43  489   2.406   1.740   7.314
    3MOL    H34  490   2.330   1.810   7.277
    3MOL    O24  491   2.425   1.631   7.222
    3MOL    C44  492   2.351   1.646   7.100
    3MOL    C45  493   2.354   1.682   7.447
    3MOL    H35  494   2.417   1.597   7.476
    3MOL    O25  495   2.218   1.642   7.421
    3MOL    C46  496   2.180   1.508   7.461
    3MOL    H36  497   2.269   1.447   7.484
    3MOL    O26  498   2.097   1.518   7.578
    3MOL    C47  499   1.977   1.599   7.563
    3MOL    H37  500   2.004   1.703   7.539
    3MOL    C48  501   1.901   1.600   7.697
    3MOL    H38  502   1.859   1.501   7.718
    3MOL    H39  503   1.819   1.672   7.693
    3MOL    O27  504   1.991   1.636   7.804
    3MOL    C49  505   1.926   1.655   7.930
    3MOL    C50  506   2.097   1.438   7.349
    3MOL    H40  507   2.069   1.338   7.382
    3MOL    O28  508   2.175   1.429   7.227
    3MOL    C51  509   2.282   1.332   7.228
    3MOL    C52  510   1.968   1.518   7.318
    3MOL    H41  511   1.995   1.615   7.275
    3MOL    O29  512   1.885   1.441   7.228
    3MOL    C53  513   1.894   1.479   7.089
    3MOL    C54  514   1.888   1.543   7.448
    3MOL    H42  515   1.844   1.448   7.478
    3MOL    O30  516   1.785   1.639   7.416
    3MOL    H43  517   1.694   2.125   8.010
    3MOL    H44  518   1.799   2.254   7.945
    3MOL    H45  519   1.625   2.284   7.973
    3MOL    H46  520   1.652   1.809   8.014
    3MOL    H47  521   1.579   1.954   7.939
    3MOL    H48  522   1.483   1.806   7.959
    3MOL    H49  523   2.000   1.683   8.006
    3MOL    H50  524   1.852   1.735   7.923
    3MOL    H51  525   1.876   1.563   7.962
    3MOL    H52  526   2.434   1.454   7.841
    3MOL    H53  527   2.378   1.599   7.930
    3MOL    H54  528   2.268   1.512   7.820
    3MOL    H55  529   2.703   2.128   7.829
    3MOL    H56  530   2.551   2.126   7.921
    3MOL    H57  531   2.585   1.997   7.801
    3MOL    H58  532   2.032   2.288   8.011
    3MOL    H59  533   2.188   2.317   7.931
    3MOL    H60  534   2.091   2.455   7.991
    3MOL    H61  535   2.714   1.963   7.082
    3MOL    H62  536   2.711   2.023   7.249
    3MOL    H63  537   2.773   1.859   7.214
    3MOL    H64  538   2.561   2.160   7.014
    3MOL    H65  539   2.421   2.082   7.092
    3MOL    H66  540   2.412   2.254   7.046
    3MOL    H67  541   2.403   2.643   7.112
    3MOL    H68  542   2.364   2.660   7.285
    3MOL    H69  543   2.530   2.619   7.233
    3MOL    H70  544   2.146   2.639   7.057
    3MOL    H71  545   2.135   2.470   7.110
    3MOL    H72  546   1.986   2.562   7.075
    3MOL    H73  547   1.641   2.711   7.169
    3MOL    H74  548   1.608   2.659   7.335
    3MOL    H75  549   1.718   2.796   7.305
    3MOL    H76  550   1.587   2.490   7.066
    3MOL    H77  551   1.718   2.392   7.135
    3MOL    H78  552   1.574   2.312   7.067
    3MOL    H79  553   1.263   2.073   7.100
    3MOL    H80  554   1.258   2.022   7.271
    3MOL    H81  555   1.209   2.188   7.225
    3MOL    H82  556   1.426   1.870   7.010
    3MOL    H83  557   1.567   1.950   7.087
    3MOL    H84  558   1.572   1.776   7.050
    3MOL    H85  559   1.587   1.407   7.085
    3MOL    H86  560   1.603   1.380   7.261
    3MOL    H87  561   1.448   1.435   7.193
    3MOL    H88  562   1.837   1.409   7.026
    3MOL    H89  563   1.854   1.580   7.074
    3MOL    H90  564   1.999   1.476   7.056
    3MOL    H91  565   2.320   1.319   7.126
    3MOL    H92  566   2.365   1.368   7.291
    3MOL    H93  567   2.247   1.235   7.265
    3MOL    H94  568   2.358   1.555   7.039
    3MOL    H95  569   2.245   1.665   7.122
    3MOL    H96  570   2.391   1.731   7.045
    4SOL     OW  571   0.230   0.656   0.119
    4SOL    HW1  572   0.136   0.646   0.132
    4SOL    HW2  573   0.249   0.609   0.038
    5SOL     OW  574   0.224   0.290   0.983
    5SOL    HW1  575   0.247   0.250   1.067
    5SOL    HW2  576   0.129   0.278   0.976
    6SOL     OW  577   0.019   0.385   0.633
    6SOL    HW1  578   3.929   0.398   0.663
    6SOL    HW2  579   0.025   0.291   0.617
    7SOL     OW  580   0.581   1.289   1.191
    7SOL    HW1  581   0.494   1.291   1.150
    7SOL    HW2  582   0.594   1.378   1.223
    8SOL     OW  583   1.566   1.511   0.708
    8SOL    HW1  584   1.522   1.492   0.791
    8SOL    HW2  585   1.494   1.517   0.645
    9SOL     OW  586   1.133   0.698   0.698
    9SOL    HW1  587   1.180   0.781   0.686
    9SOL    HW2  588   1.085   0.709   0.780
   10SOL     OW  589   1.762   0.624   0.216
   10SOL    HW1  590   1.780   0.597   0.126
   10SOL    HW2  591   1.765   0.542   0.266
   11SOL     OW  592   0.753   1.139   1.042
   11SOL    HW1  593   0.690   1.175   1.104
   11SOL    HW2  594   0.789   1.216   0.997
   12SOL     OW  595   0.871   0.770   1.824
   12SOL    HW1  596   0.860   0.842   1.886
   12SOL    HW2  597   0.893   0.814   1.741
   13SOL     OW  598   0.685   1.002   0.647
   13SOL    HW1  599   0.750   0.990   0.715
   13SOL    HW2  600   0.616   1.054   0.688
   14SOL     OW  601   0.712   1.149   1.816
   14SOL    HW1  602   0.759   1.227   1.844
   14SOL    HW2  603   0.630   1.183   1.778
   15SOL     OW  604   0.351   1.401   1.078
   15SOL    HW1  605   0.270   1.381   1.032
   15SOL    HW2  606   0.399   1.459   1.019
   16SOL     OW  607   1.460   1.502   1.357
   16SOL    HW1  608   1.514   1.581   1.366
   16SOL    HW2  609   1.395   1.509   1.427
   17SOL     OW  610   0.457   0.408   1.496
   17SOL    HW1  611   0.539   0.358   1.494
   17SOL    HW2  612   0.388   0.342   1.499
   18SOL     OW  613   1.611   0.450   0.735
   18SOL    HW1  614   1.541   0.484   0.679
   18SOL    HW2  615   1.632   0.522   0.794
   19SOL     OW  616   0.224   1.710   0.473
   19SOL    HW1  617   0.242   1.790   0.522
   19SOL    HW2  618   0.287   1.711   0.401
   20SOL     OW  619   1.137   1.342   1.694
   20SOL    HW1  620   1.178   1.336   1.780
   20SOL    HW2  621   1.085   1.262   1.686
   21SOL     OW  622   0.245   1.446   0.543
   21SOL    HW1  623   0.223   1.538   0.528
   21SOL    HW2  624   0.171   1.412   0.593
   22SOL     OW  625   0.247   1.066   0.884
   22SOL    HW1  626   0.268   0.981   0.922
   22SOL    HW2  627   0.195   1.111   0.950
   23SOL     OW  628   0.610   1.792   1.427
   23SOL    HW1  629   0.528   1.774   1.472
   23SOL    HW2  630   0.633   1.882   1.453
   24SOL     OW  631   0.561   0.981   0.165
   24SOL    HW1  632   0.587   1.025   0.084
   24SOL    HW2  633   0.617   1.021   0.232
   25SOL     OW  634   1.581   0.140   1.456
   25SOL    HW1  635   1.611   0.213   1.401
   25SOL    HW2  636   1.548   0.182   1.536
   26SOL     OW  637   0.139   0.654   0.568
   26SOL    HW1  638   0.097   0.568   0.575
   26SOL    HW2  639   0.103   0.703   0.642
   27SOL     OW  640   0.025   1.598   0.137
   27SOL    HW1  641   0.027   1.503   0.147
   27SOL    HW2  642   3.972   1.629   0.210
   28SOL     OW  643   1.687   0.917   0.644
   28SOL    HW1  644   1.771   0.875   0.624
   28SOL    HW2  645   1.667   0.968   0.566
   29SOL     OW  646   1.649   1.106   0.430
   29SOL    HW1  647   1.737   1.106   0.393
   29SOL    HW2  648   1.653   1.167   0.503
   30SOL     OW  649   0.141   0.756   1.588
   30SOL    HW1  650   0.236   0.751   1.584
   30SOL    HW2  651   0.123   0.844   1.621
   31SOL     OW  652   0.613   1.387   0.736
   31SOL    HW1  653   0.566   1.303   0.745
   31SOL    HW2  654   0.598   1.413   0.646
   32SOL     OW  655   1.287   1.237   1.422
   32SOL    HW1  656   1.319   1.170   1.362
   32SOL    HW2  657   1.346   1.232   1.498
   33SOL     OW  658   0.823   0.003   0.521
   33SOL    HW1  659   0.867   0.084   0.493
   33SOL    HW2  660   0.730   0.025   0.520
   34SOL     OW  661   0.184   0.950   1.278
   34SOL    HW1  662   0.272   0.915   1.266
   34SOL    HW2  663   0.132   0.907   1.210
   35SOL     OW  664   1.530   0.997   0.205
   35SOL    HW1  665   1.462   0.939   0.239
   35SOL    HW2  666   1.572   1.034   0.283
   36SOL     OW  667   1.185   1.809   1.624
   36SOL    HW1  668   1.193   1.869   1.550
   36SOL    HW2  669   1.202   1.722   1.587
   37SOL     OW  670   0.345   0.251   1.840
   37SOL    HW1  671   0.387   0.335   1.821
   37SOL    HW2  672   0.253   0.274   1.857
   38SOL     OW  673   1.465   1.419   0.949
   38SOL    HW1  674   1.398   1.435   1.016
   38SOL    HW2  675   1.453   1.328   0.923
   39SOL     OW  676   1.667   1.741   0.578
   39SOL    HW1  677   1.629   1.727   0.491
   39SOL    HW2  678   1.646   1.662   0.627
   40SOL     OW  679   0.595   0.715   0.265
   40SOL    HW1  680   0.596   0.799   0.219
   40SOL    HW2  681   0.535   0.729   0.338
   41SOL     OW  682   1.275   0.369   0.940
   41SOL    HW1  683   1.187   0.330   0.947
   41SOL    HW2  684   1.332   0.307   0.986
   42SOL     OW  685   1.560   1.723   0.317
   42SOL    HW1  686   1.630   1.657   0.320
   42SOL    HW2  687   1.526   1.717   0.228
   43SOL     OW  688   0.794   0.616   1.453
   43SOL    HW1  689   0.765   0.590   1.541
   43SOL    HW2  690   0.756   0.550   1.395
   44SOL     OW  691   1.392   0.476   1.677
   44SOL    HW1  692   1.399   0.521   1.761
   44SOL    HW2  693   1.450   0.400   1.686
   45SOL     OW  694   0.952   0.887   1.584
   45SOL    HW1  695   1.007   0.818   1.547
   45SOL    HW2  696   0.903   0.922   1.510
   46SOL     OW  697   0.992   0.403   1.238
   46SOL    HW1  698   0.907   0.424   1.276
   46SOL    HW2  699   0.972   0.374   1.149
   47SOL     OW  700   1.052   0.703   0.428
   47SOL    HW1  701   1.069   0.693   0.522
   47SOL    HW2  702   0.969   0.657   0.414
   48SOL     OW  703   0.082   0.828   0.790
   48SOL    HW1  704   0.154   0.795   0.843
   48SOL    HW2  705   0.101   0.921   0.779
   49SOL     OW  706   0.130   1.863   1.577
   49SOL    HW1  707   0.138   1.828   1.666
   49SOL    HW2  708   0.038   1.851   1.554
   50SOL     OW  709   0.875   0.361   0.221
   50SOL    HW1  710   0.911   0.419   0.154
   50SOL    HW2  711   0.879   0.274   0.182
   51SOL     OW  712   1.708   0.576   1.829
   51SOL    HW1  713   1.670   0.649   1.781
   51SOL    HW2  714   1.733   0.512   1.762
   52SOL     OW  715   1.380   1.142   0.543
   52SOL    HW1  716   1.457   1.130   0.488
   52SOL    HW2  717   1.326   1.204   0.494
   53SOL     OW  718   0.562   0.196   0.881
   53SOL    HW1  719   0.566   0.220   0.974
   53SOL    HW2  720   0.549   0.279   0.836
   54SOL     OW  721   1.004   1.442   0.475
   54SOL    HW1  722   0.971   1.516   0.424
   54SOL    HW2  723   0.981   1.463   0.566
   55SOL     OW  724   0.365   1.819   0.872
   55SOL    HW1  725   0.428   1.747   0.880
   55SOL    HW2  726   0.416   1.898   0.887
   56SOL     OW  727   1.799   1.051   0.871
   56SOL    HW1  728   1.745   1.036   0.794
   56SOL    HW2  729   1.737   1.059   0.943
   57SOL     OW  730   1.228   1.539   1.513
   57SOL    HW1  731   1.215   1.467   1.574
   57SOL    HW2  732   1.163   1.524   1.444
   58SOL     OW  733   0.308   0.931   0.241
   58SOL    HW1  734   0.399   0.945   0.215
   58SOL    HW2  735   0.296   0.836   0.234
   59SOL     OW  736   1.478   0.748   0.730
   59SOL    HW1  737   1.473   0.705   0.816
   59SOL    HW2  738   1.556   0.803   0.735
   60SOL     OW  739   0.468   1.261   1.737
   60SOL    HW1  740   0.442   1.269   1.645
   60SOL    HW2  741   0.386   1.264   1.786
   61SOL     OW  742   1.120   1.779   0.229
   61SOL    HW1  743   1.057   1.732   0.284
   61SOL    HW2  744   1.149   1.713   0.166
   62SOL     OW  745   0.201   0.294   1.500
   62SOL    HW1  746   0.107   0.314   1.499
   62SOL    HW2  747   0.209   0.221   1.562
   63SOL     OW  748   1.632   1.375   0.090
   63SOL    HW1  749   1.598   1.456   0.053
   63SOL    HW2  750   1.565   1.309   0.071
   64SOL     OW  751   0.477   1.732   0.323
   64SOL    HW1  752   0.517   1.791   0.386
   64SOL    HW2  753   0.550   1.697   0.272
   65SOL     OW  754   1.441   0.141   0.395
   65SOL    HW1  755   1.394   0.057   0.395
   65SOL    HW2  756   1.521   0.123   0.443
   66SOL     OW  757   0.252   1.791   1.231
   66SOL    HW1  758   0.298   1.725   1.284
   66SOL    HW2  759   0.250   1.753   1.143
   67SOL     OW  760   0.938   1.699   0.898
   67SOL    HW1  761   1.016   1.649   0.919
   67SOL    HW2  762   0.896   1.648   0.828
   68SOL     OW  763   0.396   0.695   0.470
   68SOL    HW1  764   0.421   0.603   0.484
   68SOL    HW2  765   0.305   0.699   0.497
   69SOL     OW  766   1.529   0.229   1.727
   69SOL    HW1  767   1.525   0.254   1.819
   69SOL    HW2  768   1.511   0.135   1.727
   70SOL     OW  769   0.629   0.110   0.122
   70SOL    HW1  770   0.724   0.108   0.126
   70SOL    HW2  771   0.609   0.132   0.031
   71SOL     OW  772   0.776   0.284   1.767
   71SOL    HW1  773   0.850   0.223   1.769
   71SOL    HW2  774   0.720   0.255   1.839
   72SOL     OW  775   0.876   1.522   1.194
   72SOL    HW1  776   0.860   1.485   1.107
   72SOL    HW2  777   0.945   1.468   1.231
   73SOL     OW  778   1.340   0.587   1.431
   73SOL    HW1  779   1.370   0.558   1.517
   73SOL    HW2  780   1.375   0.676   1.421
   74SOL     OW  781   0.816   1.393   0.941
   74SOL    HW1  782   0.901   1.381   0.899
   74SOL    HW2  783   0.754   1.395   0.869
   75SOL     OW  784   0.930   0.512   0.900
   75SOL    HW1  785   0.905   0.504   0.808
   75SOL    HW2  786   0.955   0.423   0.926
   76SOL     OW  787   0.551   0.052   0.498
   76SOL    HW1  788   0.476   0.058   0.558
   76SOL    HW2  789   0.544   0.129   0.442
   77SOL     OW  790   1.430   1.205   0.044
   77SOL    HW1  791   1.449   1.125   0.092
   77SOL    HW2  792   1.338   1.224   0.064
   78SOL     OW  793   0.358   3.988   0.174
   78SOL    HW1  794   0.322   0.073   0.148
   78SOL    HW2  795   0.434   0.010   0.229
   79SOL     OW  796   0.943   0.250   0.466
   79SOL    HW1  797   0.910   0.288   0.384
   79SOL    HW2  798   1.038   0.251   0.457
   80SOL     OW  799   1.079   0.683   1.458
   80SOL    HW1  800   1.010   0.618   1.465
   80SOL    HW2  801   1.160   0.632   1.453
   81SOL     OW  802   1.222   1.571   0.795
   81SOL    HW1  803   1.237   1.638   0.728
   81SOL    HW2  804   1.291   1.585   0.859
   82SOL     OW  805   0.465   1.151   0.733
   82SOL    HW1  806   0.395   1.126   0.793
   82SOL    HW2  807   0.429   1.137   0.646
   83SOL     OW  808   1.264   1.794   0.608
   83SOL    HW1  809   1.310   1.858   0.554
   83SOL    HW2  810   1.198   1.846   0.654
   84SOL     OW  811   0.999   0.533   0.053
   84SOL    HW1  812   0.999   0.531  13.857
   84SOL    HW2  813   1.090   0.551   0.076
   85SOL     OW  814   0.080   0.573   1.393
   85SOL    HW1  815   0.170   0.555   1.363
   85SOL    HW2  816   0.090   0.645   1.456
   86SOL     OW  817   0.572   0.231   1.160
   86SOL    HW1  818   0.594   0.138   1.168
   86SOL    HW2  819   0.481   0.237   1.190
   87SOL     OW  820   0.871   0.463   0.638
   87SOL    HW1  821   0.824   0.515   0.574
   87SOL    HW2  822   0.891   0.381   0.592
   88SOL     OW  823   0.996   0.040   0.779
   88SOL    HW1  824   0.954   0.068   0.698
   88SOL    HW2  825   1.008   3.946   0.769
   89SOL     OW  826   1.438   1.161   0.856
   89SOL    HW1  827   1.368   1.096   0.857
   89SOL    HW2  828   1.461   1.172   0.764
   90SOL     OW  829   1.465   0.607   0.974
   90SOL    HW1  830   1.410   0.528   0.979
   90SOL    HW2  831   1.524   0.600   1.049
   91SOL     OW  832   1.845   0.818   0.384
   91SOL    HW1  833   1.899   0.763   0.442
   91SOL    HW2  834   1.812   0.758   0.318
   92SOL     OW  835   0.494   1.381   0.167
   92SOL    HW1  836   0.422   1.351   0.222
   92SOL    HW2  837   0.452   1.420   0.090
   93SOL     OW  838   1.673   1.265   0.642
   93SOL    HW1  839   1.767   1.264   0.660
   93SOL    HW2  840   1.645   1.354   0.666
   94SOL     OW  841   1.420   0.590   0.086
   94SOL    HW1  842   1.351   0.577   0.151
   94SOL    HW2  843   1.472   0.510   0.089
   95SOL     OW  844   0.528   0.258   0.327
   95SOL    HW1  845   0.565   0.210   0.254
   95SOL    HW2  846   0.505   0.344   0.290
   96SOL     OW  847   1.751   1.240   1.570
   96SOL    HW1  848   1.838   1.202   1.564
   96SOL    HW2  849   1.766   1.331   1.597
   97SOL     OW  850   1.056   1.354   1.333
   97SOL    HW1  851   0.981   1.322   1.384
   97SOL    HW2  852   1.132   1.312   1.374
   98SOL     OW  853   1.608   1.626   1.655
   98SOL    HW1  854   1.602   1.662   1.566
   98SOL    HW2  855   1.692   1.579   1.655
   99SOL     OW  856   1.132   1.206   1.104
   99SOL    HW1  857   1.072   1.244   1.169
   99SOL    HW2  858   1.100   1.239   1.020
  100SOL     OW  859   1.625   1.097   1.077
  100SOL    HW1  860   1.620   1.159   1.149
  100SOL    HW2  861   1.548   1.115   1.023
  101SOL     OW  862   0.913   0.115   1.401
  101SOL    HW1  863   0.932   0.088   1.311
  101SOL    HW2  864   0.993   0.157   1.432
  102SOL     OW  865   0.984   1.115   1.723
  102SOL    HW1  866   0.893   1.131   1.746
  102SOL    HW2  867   0.982   1.037   1.668
  103SOL     OW  868   0.715   1.061   0.377
  103SOL    HW1  869   0.700   1.042   0.469
  103SOL    HW2  870   0.789   1.005   0.353
  104SOL     OW  871   0.422   0.817   1.252
  104SOL    HW1  872   0.491   0.823   1.319
  104SOL    HW2  873   0.388   0.728   1.262
  105SOL     OW  874   1.265   0.375   1.277
  105SOL    HW1  875   1.299   0.453   1.321
  105SOL    HW2  876   1.178   0.400   1.247
  106SOL     OW  877   0.065   1.580   1.346
  106SOL    HW1  878   0.070   1.635   1.268
  106SOL    HW2  879   0.156   1.567   1.373
  107SOL     OW  880   0.364   1.104   0.481
  107SOL    HW1  881   0.355   1.180   0.424
  107SOL    HW2  882   0.380   1.031   0.420
  108SOL     OW  883   0.555   0.533   0.858
  108SOL    HW1  884   0.568   0.592   0.784
  108SOL    HW2  885   0.621   0.560   0.922
  109SOL     OW  886   1.249   1.346   0.399
  109SOL    HW1  887   1.304   1.420   0.426
  109SOL    HW2  888   1.161   1.369   0.430
  110SOL     OW  889   1.284   1.459   1.148
  110SOL    HW1  890   1.341   1.463   1.225
  110SOL    HW2  891   1.229   1.382   1.162
  111SOL     OW  892   1.580   0.637   0.490
  111SOL    HW1  893   1.535   0.693   0.553
  111SOL    HW2  894   1.612   0.697   0.423
  112SOL     OW  895   0.345   1.527   1.318
  112SOL    HW1  896   0.336   1.476   1.237
  112SOL    HW2  897   0.440   1.542   1.326
  113SOL     OW  898   0.417   0.737   1.601
  113SOL    HW1  899   0.480   0.783   1.544
  113SOL    HW2  900   0.454   0.650   1.614
  114SOL     OW  901   1.604   0.780   1.685
  114SOL    HW1  902   1.518   0.822   1.678
  114SOL    HW2  903   1.656   0.821   1.616
  115SOL     OW  904   1.011   0.134   1.779
  115SOL    HW1  905   1.064   0.205   1.743
  115SOL    HW2  906   1.001   0.073   1.705
  116SOL     OW  907   0.483   0.037   1.765
  116SOL    HW1  908   0.490   0.047   1.670
  116SOL    HW2  909   0.421   0.105   1.791
  117SOL     OW  910   0.584   0.875   1.031
  117SOL    HW1  911   0.617   0.965   1.034
  117SOL    HW2  912   0.529   0.867   1.109
  118SOL     OW  913   1.353   0.858   1.026
  118SOL    HW1  914   1.269   0.846   0.984
  118SOL    HW2  915   1.397   0.773   1.019
  119SOL     OW  916   1.217   0.550   0.268
  119SOL    HW1  917   1.224   0.470   0.319
  119SOL    HW2  918   1.160   0.607   0.319
  120SOL     OW  919   0.311   0.212   1.240
  120SOL    HW1  920   0.268   0.248   1.318
  120SOL    HW2  921   0.296   0.118   1.246
  121SOL     OW  922   0.061   1.306   1.280
  121SOL    HW1  923   0.091   1.264   1.361
  121SOL    HW2  924   0.052   1.398   1.304
  122SOL     OW  925   0.725   0.634   1.053
  122SOL    HW1  926   0.799   0.619   0.994
  122SOL    HW2  927   0.695   0.722   1.031
  123SOL     OW  928   1.737   0.959   1.855
  123SOL    HW1  929   1.692   0.895   1.800
  123SOL    HW2  930   1.677   0.975   1.928
  124SOL     OW  931   0.332   0.057   0.657
  124SOL    HW1  932   0.307   0.149   0.663
  124SOL    HW2  933   0.282   0.013   0.725
  125SOL     OW  934   1.576   0.390   0.391
  125SOL    HW1  935   1.549   0.329   0.460
  125SOL    HW2  936   1.568   0.477   0.432
  126SOL     OW  937   1.029   0.759   0.959
  126SOL    HW1  938   1.022   0.776   1.053
  126SOL    HW2  939   1.002   0.668   0.949
  127SOL     OW  940   0.982   1.566   1.719
  127SOL    HW1  941   0.967   1.610   1.635
  127SOL    HW2  942   1.026   1.484   1.695
  128SOL     OW  943   1.854   1.502   1.603
  128SOL    HW1  944   1.870   1.533   1.514
  128SOL    HW2  945   1.938   1.514   1.648
  129SOL     OW  946   0.353   0.922   1.798
  129SOL    HW1  947   0.431   0.942   1.851
  129SOL    HW2  948   0.382   0.854   1.737
  130SOL     OW  949   1.536   0.269   0.146
  130SOL    HW1  950   1.469   0.202   0.145
  130SOL    HW2  951   1.537   0.302   0.236
  131SOL     OW  952   1.289   0.832   0.056
  131SOL    HW1  953   1.336   0.749   0.061
  131SOL    HW2  954   1.307   0.864  13.868
  132SOL     OW  955   1.066   1.337   0.855
  132SOL    HW1  956   1.070   1.265   0.792
  132SOL    HW2  957   1.127   1.402   0.820
  133SOL     OW  958   0.313   0.803   0.950
  133SOL    HW1  959   0.408   0.819   0.945
  133SOL    HW2  960   0.306   0.713   0.982
  134SOL     OW  961   0.339   0.529   1.015
  134SOL    HW1  962   0.297   0.444   0.997
  134SOL    HW2  963   0.414   0.532   0.956
  135SOL     OW  964   1.133   0.381   1.697
  135SOL    HW1  965   1.085   0.436   1.759
  135SOL    HW2  966   1.220   0.420   1.692
  136SOL     OW  967   1.151   0.226   1.482
  136SOL    HW1  968   1.142   0.280   1.560
  136SOL    HW2  969   1.176   0.287   1.413
  137SOL     OW  970   0.014   1.325   0.192
  137SOL    HW1  971   3.919   1.338   0.184
  137SOL    HW2  972   0.023   1.233   0.215
  138SOL     OW  973   0.078   1.800   0.888
  138SOL    HW1  974   0.083   1.704   0.892
  138SOL    HW2  975   0.169   1.829   0.893
  139SOL     OW  976   0.501   1.571   0.911
  139SOL    HW1  977   0.570   1.632   0.936
  139SOL    HW2  978   0.544   1.508   0.853
  140SOL     OW  979   0.978   0.789   1.224
  140SOL    HW1  980   1.034   0.769   1.299
  140SOL    HW2  981   0.893   0.750   1.247
  141SOL     OW  982   0.035   0.575   1.112
  141SOL    HW1  983   0.095   0.520   1.061
  141SOL    HW2  984   0.061   0.561   1.203
  142SOL     OW  985   0.211   0.516   1.722
  142SOL    HW1  986   0.257   0.476   1.648
  142SOL    HW2  987   0.164   0.590   1.684
  143SOL     OW  988   1.378   0.936   1.657
  143SOL    HW1  989   1.400   1.030   1.654
  143SOL    HW2  990   1.375   0.910   1.565
  144SOL     OW  991   0.815   0.581   0.374
  144SOL    HW1  992   0.826   0.503   0.319
  144SOL    HW2  993   0.741   0.627   0.334
  145SOL     OW  994   1.640   0.602   1.183
  145SOL    HW1  995   1.631   0.542   1.257
  145SOL    HW2  996   1.728   0.585   1.149
  146SOL     OW  997   0.300   1.544   1.725
  146SOL    HW1  998   0.252   1.614   1.770
  146SOL    HW2  999   0.269   1.463   1.766
  147SOL     OW 1000   0.710   0.454   1.256
  147SOL    HW1 1001   0.660   0.376   1.231
  147SOL    HW2 1002   0.700   0.513   1.181
  148SOL     OW 1003   0.925   1.679   1.469
  148SOL    HW1 1004   0.900   1.642   1.385
  148SOL    HW2 1005   0.919   1.774   1.457
  149SOL     OW 1006   0.430   0.492   0.228
  149SOL    HW1 1007   0.504   0.551   0.239
  149SOL    HW2 1008   0.357   0.548   0.202
  150SOL     OW 1009   0.156   1.135   1.474
  150SOL    HW1 1010   0.157   1.084   1.556
  150SOL    HW2 1011   0.171   1.070   1.406
  151SOL     OW 1012   1.323   1.045   1.222
  151SOL    HW1 1013   1.346   0.982   1.154
  151SOL    HW2 1014   1.255   1.099   1.182
  152SOL     OW 1015   1.314   0.858   0.327
  152SOL    HW1 1016   1.240   0.824   0.378
  152SOL    HW2 1017   1.290   0.844   0.236
  153SOL     OW 1018   1.761   1.736   1.150
  153SOL    HW1 1019   1.830   1.764   1.089
  153SOL    HW2 1020   1.742   1.646   1.125
  154SOL     OW 1021   1.243   1.734   1.108
  154SOL    HW1 1022   1.326   1.756   1.066
  154SOL    HW2 1023   1.250   1.641   1.128
  155SOL     OW 1024   0.077   1.216   1.028
  155SOL    HW1 1025   0.084   1.242   1.120
  155SOL    HW2 1026   3.985   1.226   1.006
  156SOL     OW 1027   0.680   1.668   1.734
  156SOL    HW1 1028   0.621   1.743   1.726
  156SOL    HW2 1029   0.746   1.681   1.667
  157SOL     OW 1030   0.903   0.104   0.135
  157SOL    HW1 1031   0.941   0.091   0.048
  157SOL    HW2 1032   0.910   0.019   0.178
  158SOL     OW 1033   1.701   0.124   0.495
  158SOL    HW1 1034   1.782   0.134   0.445
  158SOL    HW2 1035   1.693   0.030   0.509
  159SOL     OW 1036   1.388   1.573   0.486
  159SOL    HW1 1037   1.443   1.613   0.418
  159SOL    HW2 1038   1.337   1.646   0.521
  160SOL     OW 1039   0.175   1.763   1.830
  160SOL    HW1 1040   0.118   1.713   1.888
  160SOL    HW2 1041   0.216   1.828   1.887
  161SOL     OW 1042   1.276   0.928   0.672
  161SOL    HW1 1043   1.350   0.868   0.682
  161SOL    HW2 1044   1.311   0.999   0.618
  162SOL     OW 1045   0.810   1.274   1.428
  162SOL    HW1 1046   0.781   1.315   1.510
  162SOL    HW2 1047   0.739   1.291   1.366
  163SOL     OW 1048   0.673   1.586   0.187
  163SOL    HW1 1049   0.664   1.618   0.098
  163SOL    HW2 1050   0.628   1.501   0.187
  164SOL     OW 1051   1.621   1.729   1.391
  164SOL    HW1 1052   1.671   1.733   1.310
  164SOL    HW2 1053   1.611   1.820   1.418
  165SOL     OW 1054   1.839   0.178   0.966
  165SOL    HW1 1055   1.872   0.111   0.906
  165SOL    HW2 1056   1.750   0.196   0.935
  166SOL     OW 1057   0.273   0.321   0.715
  166SOL    HW1 1058   0.187   0.356   0.690
  166SOL    HW2 1059   0.267   0.305   0.809
  167SOL     OW 1060   1.217   1.600   0.035
  167SOL    HW1 1061   1.207   1.509   0.061
  167SOL    HW2 1062   1.180   1.605  13.847
  168SOL     OW 1063   0.823   1.005   1.373
  168SOL    HW1 1064   0.867   1.000   1.289
  168SOL    HW2 1065   0.822   1.099   1.394
  169SOL     OW 1066   0.921   0.911   0.287
  169SOL    HW1 1067   0.991   0.951   0.236
  169SOL    HW2 1068   0.964   0.841   0.336
  170SOL     OW 1069   1.483   1.650   0.064
  170SOL    HW1 1070   1.390   1.629   0.056
  170SOL    HW2 1071   1.517   1.636  13.876
  171SOL     OW 1072   0.374   1.303   1.491
  171SOL    HW1 1073   0.359   1.383   1.441
  171SOL    HW2 1074   0.297   1.248   1.474
  172SOL     OW 1075   1.609   1.284   1.279
  172SOL    HW1 1076   1.670   1.271   1.352
  172SOL    HW2 1077   1.549   1.352   1.310
  173SOL     OW 1078   1.055   1.109   0.708
  173SOL    HW1 1079   0.984   1.057   0.746
  173SOL    HW2 1080   1.120   1.043   0.680
  174SOL     OW 1081   1.015   0.249   0.969
  174SOL    HW1 1082   1.004   0.199   0.888
  174SOL    HW2 1083   1.010   0.183   1.039
  175SOL     OW 1084   0.607   1.487   0.483
  175SOL    HW1 1085   0.651   1.437   0.414
  175SOL    HW2 1086   0.536   1.532   0.438
  176SOL     OW 1087   1.721   0.394   1.372
  176SOL    HW1 1088   1.793   0.456   1.376
  176SOL    HW2 1089   1.754   0.322   1.318
  177SOL     OW 1090   0.266   1.315   0.310
  177SOL    HW1 1091   0.187   1.342   0.262
  177SOL    HW2 1092   0.263   1.365   0.391
  178SOL     OW 1093   0.108   0.999   1.718
  178SOL    HW1 1094   0.048   0.991   1.792
  178SOL    HW2 1095   0.194   0.981   1.754
  179SOL     OW 1096   0.694   0.253   1.501
  179SOL    HW1 1097   0.762   0.200   1.460
  179SOL    HW2 1098   0.723   0.262   1.592
  180SOL     OW 1099   0.068   0.366   0.037
  180SOL    HW1 1100   3.978   0.372   0.067
  180SOL    HW2 1101   0.063   0.383  13.843
  181SOL     OW 1102   1.427   0.857   1.398
  181SOL    HW1 1103   1.378   0.919   1.344
  181SOL    HW2 1104   1.516   0.859   1.364
  182SOL     OW 1105   0.051   0.201   0.321
  182SOL    HW1 1106   0.077   0.274   0.264
  182SOL    HW2 1107   0.134   0.157   0.342
  183SOL     OW 1108   1.186   1.346   0.122
  183SOL    HW1 1109   1.092   1.334   0.111
  183SOL    HW2 1110   1.201   1.332   0.216
  184SOL     OW 1111   0.621   0.829   1.437
  184SOL    HW1 1112   0.677   0.904   1.421
  184SOL    HW2 1113   0.681   0.755   1.445
  185SOL     OW 1114   1.488   1.785   0.983
  185SOL    HW1 1115   1.510   1.850   0.916
  185SOL    HW2 1116   1.572   1.764   1.025
  186SOL     OW 1117   0.718   0.562   1.707
  186SOL    HW1 1118   0.762   0.623   1.765
  186SOL    HW2 1119   0.744   0.475   1.738
  187SOL     OW 1120   1.473   1.197   1.630
  187SOL    HW1 1121   1.461   1.211   1.724
  187SOL    HW2 1122   1.566   1.214   1.615
  188SOL     OW 1123   0.378   1.743   1.557
  188SOL    HW1 1124   0.291   1.781   1.544
  188SOL    HW2 1125   0.362   1.661   1.603
  189SOL     OW 1126   1.667   0.881   1.256
  189SOL    HW1 1127   1.662   0.795   1.213
  189SOL    HW2 1128   1.657   0.944   1.184
  190SOL     OW 1129   1.231   0.335   0.435
  190SOL    HW1 1130   1.294   0.262   0.431
  190SOL    HW2 1131   1.247   0.376   0.520
  191SOL     OW 1132   0.589   0.737   0.672
  191SOL    HW1 1133   0.626   0.824   0.655
  191SOL    HW2 1134   0.522   0.727   0.604
  192SOL     OW 1135   1.751   0.384   1.643
  192SOL    HW1 1136   1.733   0.389   1.549
  192SOL    HW2 1137   1.694   0.313   1.674
  193SOL     OW 1138   1.746   0.934   1.512
  193SOL    HW1 1139   1.739   1.029   1.525
  193SOL    HW2 1140   1.730   0.921   1.419
  194SOL     OW 1141   0.907   1.399   0.065
  194SOL    HW1 1142   0.841   1.379   0.131
  194SOL    HW2 1143   0.859   1.401  13.882
  195SOL     OW 1144   0.663   1.788   0.941
  195SOL    HW1 1145   0.643   1.879   0.920
  195SOL    HW2 1146   0.758   1.782   0.935
  196SOL     OW 1147   0.869   0.968   0.853
  196SOL    HW1 1148   0.919   0.896   0.892
  196SOL    HW2 1149   0.832   1.015   0.928
  197SOL     OW 1150   1.098   1.014   0.111
  197SOL    HW1 1151   1.087   1.058   0.027
  197SOL    HW2 1152   1.172   0.954   0.097
  198SOL     OW 1153   1.844   1.527   0.824
  198SOL    HW1 1154   1.758   1.533   0.783
  198SOL    HW2 1155   1.830   1.477   0.904
  199SOL     OW 1156   0.226   1.304   1.856
  199SOL    HW1 1157   0.154   1.247   1.829
  199SOL    HW2 1158   0.212   1.317   1.950
  200SOL     OW 1159   0.112   1.281   0.729
  200SOL    HW1 1160   0.130   1.232   0.809
  200SOL    HW2 1161   0.103   1.215   0.660
  201SOL     OW 1162   0.682   1.405   1.629
  201SOL    HW1 1163   0.602   1.362   1.660
  201SOL    HW2 1164   0.677   1.493   1.667
  202SOL     OW 1165   1.811   0.183   1.238
  202SOL    HW1 1166   1.814   0.089   1.253
  202SOL    HW2 1167   1.826   0.193   1.144
  203SOL     OW 1168   0.442   0.437   0.533
  203SOL    HW1 1169   0.470   0.362   0.479
  203SOL    HW2 1170   0.388   0.397   0.602
  204SOL     OW 1171   1.702   1.480   1.085
  204SOL    HW1 1172   1.619   1.462   1.043
  204SOL    HW2 1173   1.709   1.414   1.154
  205SOL     OW 1174   0.333   0.557   1.293
  205SOL    HW1 1175   0.389   0.501   1.346
  205SOL    HW2 1176   0.348   0.529   1.203
  206SOL     OW 1177   0.829   1.578   0.676
  206SOL    HW1 1178   0.813   1.640   0.605
  206SOL    HW2 1179   0.753   1.520   0.674
  207SOL     OW 1180   1.460   0.254   1.110
  207SOL    HW1 1181   1.478   0.167   1.146
  207SOL    HW2 1182   1.405   0.296   1.176
  208SOL     OW 1183   1.004   0.028   1.146
  208SOL    HW1 1184   0.923   3.991   1.110
  208SOL    HW2 1185   1.063   3.953   1.155
  209SOL     OW 1186   0.778   1.324   0.320
  209SOL    HW1 1187   0.746   1.235   0.335
  209SOL    HW2 1188   0.860   1.329   0.370
  210SOL     OW 1189   0.620   1.556   1.286
  210SOL    HW1 1190   0.622   1.638   1.335
  210SOL    HW2 1191   0.708   1.549   1.249
  211SOL     OW 1192   1.321   0.069   0.128
  211SOL    HW1 1193   1.339   3.982   0.092
  211SOL    HW2 1194   1.255   0.054   0.196
  212SOL     OW 1195   1.282   0.455   0.683
  212SOL    HW1 1196   1.234   0.538   0.678
  212SOL    HW2 1197   1.285   0.436   0.777
  213SOL     OW 1198   1.588   0.210   0.868
  213SOL    HW1 1199   1.539   0.234   0.946
  213SOL    HW2 1200   1.588   0.289   0.814
  214SOL     OW 1201   0.044   1.030   0.256
  214SOL    HW1 1202   0.137   1.012   0.251
  214SOL    HW2 1203   0.007   0.957   0.304
  215SOL     OW 1204   0.894   1.655   0.343
  215SOL    HW1 1205   0.819   1.626   0.292
  215SOL    HW2 1206   0.861   1.728   0.395
  216SOL     OW 1207   0.233   0.628   1.979
  216SOL    HW1 1208   0.139   0.632   2.000
  216SOL    HW2 1209   0.235   0.598   1.888
  217SOL     OW 1210   0.224   0.289   2.845
  217SOL    HW1 1211   0.246   0.250   2.929
  217SOL    HW2 1212   0.129   0.278   2.838
  218SOL     OW 1213   0.019   0.385   2.498
  218SOL    HW1 1214   3.928   0.399   2.526
  218SOL    HW2 1215   0.025   0.291   2.483
  219SOL     OW 1216   0.581   1.289   3.053
  219SOL    HW1 1217   0.494   1.291   3.012
  219SOL    HW2 1218   0.594   1.378   3.085
  220SOL     OW 1219   1.567   1.513   2.571
  220SOL    HW1 1220   1.524   1.493   2.654
  220SOL    HW2 1221   1.496   1.519   2.508
  221SOL     OW 1222   1.133   0.698   2.559
  221SOL    HW1 1223   1.180   0.781   2.547
  221SOL    HW2 1224   1.085   0.710   2.641
  222SOL     OW 1225   1.766   0.619   2.087
  222SOL    HW1 1226   1.745   0.612   1.994
  222SOL    HW2 1227   1.752   0.531   2.122
  223SOL     OW 1228   0.753   1.139   2.904
  223SOL    HW1 1229   0.690   1.175   2.966
  223SOL    HW2 1230   0.789   1.216   2.860
  224SOL     OW 1231   0.871   0.770   3.686
  224SOL    HW1 1232   0.860   0.842   3.748
  224SOL    HW2 1233   0.893   0.814   3.603
  225SOL     OW 1234   0.685   1.002   2.508
  225SOL    HW1 1235   0.751   0.991   2.576
  225SOL    HW2 1236   0.616   1.054   2.549
  226SOL     OW 1237   0.712   1.149   3.678
  226SOL    HW1 1238   0.759   1.227   3.707
  226SOL    HW2 1239   0.630   1.183   3.641
  227SOL     OW 1240   0.351   1.401   2.941
  227SOL    HW1 1241   0.270   1.380   2.894
  227SOL    HW2 1242   0.399   1.459   2.881
  228SOL     OW 1243   1.460   1.502   3.219
  228SOL    HW1 1244   1.514   1.581   3.228
  228SOL    HW2 1245   1.395   1.509   3.289
  229SOL     OW 1246   0.457   0.408   3.358
  229SOL    HW1 1247   0.539   0.358   3.356
  229SOL    HW2 1248   0.388   0.341   3.361
  230SOL     OW 1249   1.612   0.451   2.597
  230SOL    HW1 1250   1.542   0.482   2.539
  230SOL    HW2 1251   1.629   0.524   2.656
  231SOL     OW 1252   0.220   1.719   2.319
  231SOL    HW1 1253   0.240   1.793   2.377
  231SOL    HW2 1254   0.297   1.711   2.263
  232SOL     OW 1255   1.137   1.342   3.556
  232SOL    HW1 1256   1.178   1.336   3.642
  232SOL    HW2 1257   1.085   1.262   3.548
  233SOL     OW 1258   0.250   1.450   2.402
  233SOL    HW1 1259   0.215   1.538   2.387
  233SOL    HW2 1260   0.182   1.406   2.453
  234SOL     OW 1261   0.248   1.066   2.746
  234SOL    HW1 1262   0.267   0.981   2.785
  234SOL    HW2 1263   0.195   1.111   2.812
  235SOL     OW 1264   0.610   1.792   3.289
  235SOL    HW1 1265   0.528   1.774   3.334
  235SOL    HW2 1266   0.633   1.882   3.315
  236SOL     OW 1267   0.577   0.986   2.001
  236SOL    HW1 1268   0.625   1.030   1.931
  236SOL    HW2 1269   0.618   1.016   2.082
  237SOL     OW 1270   1.581   0.140   3.318
  237SOL    HW1 1271   1.611   0.213   3.263
  237SOL    HW2 1272   1.548   0.182   3.398
  238SOL     OW 1273   0.140   0.652   2.431
  238SOL    HW1 1274   0.098   0.566   2.436
  238SOL    HW2 1275   0.102   0.701   2.504
  239SOL     OW 1276   0.044   1.589   2.000
  239SOL    HW1 1277   0.037   1.497   2.025
  239SOL    HW2 1278   3.961   1.629   2.028
  240SOL     OW 1279   1.687   0.917   2.504
  240SOL    HW1 1280   1.771   0.876   2.485
  240SOL    HW2 1281   1.667   0.969   2.426
  241SOL     OW 1282   1.648   1.105   2.291
  241SOL    HW1 1283   1.735   1.109   2.251
  241SOL    HW2 1284   1.654   1.168   2.364
  242SOL     OW 1285   0.141   0.756   3.450
  242SOL    HW1 1286   0.236   0.751   3.446
  242SOL    HW2 1287   0.123   0.844   3.483
  243SOL     OW 1288   0.613   1.387   2.598
  243SOL    HW1 1289   0.567   1.303   2.607
  243SOL    HW2 1290   0.597   1.413   2.507
  244SOL     OW 1291   1.287   1.237   3.284
  244SOL    HW1 1292   1.319   1.170   3.224
  244SOL    HW2 1293   1.346   1.232   3.360
  245SOL     OW 1294   0.820   0.004   2.378
  245SOL    HW1 1295   0.865   0.085   2.354
  245SOL    HW2 1296   0.727   0.027   2.378
  246SOL     OW 1297   0.184   0.950   3.140
  246SOL    HW1 1298   0.272   0.915   3.128
  246SOL    HW2 1299   0.132   0.908   3.072
  247SOL     OW 1300   1.531   0.996   2.062
  247SOL    HW1 1301   1.462   0.939   2.095
  247SOL    HW2 1302   1.574   1.030   2.141
  248SOL     OW 1303   1.185   1.809   3.486
  248SOL    HW1 1304   1.193   1.869   3.412
  248SOL    HW2 1305   1.202   1.722   3.449
  249SOL     OW 1306   0.345   0.251   3.702
  249SOL    HW1 1307   0.387   0.335   3.683
  249SOL    HW2 1308   0.253   0.274   3.719
  250SOL     OW 1309   1.465   1.420   2.811
  250SOL    HW1 1310   1.398   1.435   2.878
  250SOL    HW2 1311   1.453   1.328   2.785
  251SOL     OW 1312   1.666   1.734   2.419
  251SOL    HW1 1313   1.630   1.698   2.338
  251SOL    HW2 1314   1.646   1.667   2.485
  252SOL     OW 1315   0.596   0.717   2.128
  252SOL    HW1 1316   0.601   0.801   2.083
  252SOL    HW2 1317   0.533   0.731   2.199
  253SOL     OW 1318   1.274   0.369   2.803
  253SOL    HW1 1319   1.187   0.330   2.810
  253SOL    HW2 1320   1.332   0.307   2.848
  254SOL     OW 1321   1.575   1.671   2.160
  254SOL    HW1 1322   1.661   1.706   2.138
  254SOL    HW2 1323   1.536   1.646   2.076
  255SOL     OW 1324   0.794   0.616   3.315
  255SOL    HW1 1325   0.765   0.590   3.403
  255SOL    HW2 1326   0.756   0.550   3.257
  256SOL     OW 1327   1.392   0.476   3.539
  256SOL    HW1 1328   1.398   0.521   3.623
  256SOL    HW2 1329   1.450   0.400   3.548
  257SOL     OW 1330   0.952   0.887   3.446
  257SOL    HW1 1331   1.007   0.818   3.409
  257SOL    HW2 1332   0.904   0.922   3.371
  258SOL     OW 1333   0.992   0.403   3.100
  258SOL    HW1 1334   0.907   0.424   3.139
  258SOL    HW2 1335   0.972   0.374   3.011
  259SOL     OW 1336   1.052   0.700   2.287
  259SOL    HW1 1337   1.069   0.692   2.381
  259SOL    HW2 1338   0.970   0.653   2.274
  260SOL     OW 1339   0.081   0.829   2.652
  260SOL    HW1 1340   0.154   0.795   2.705
  260SOL    HW2 1341   0.102   0.921   2.639
  261SOL     OW 1342   0.130   1.863   3.439
  261SOL    HW1 1343   0.138   1.828   3.528
  261SOL    HW2 1344   0.038   1.851   3.416
  262SOL     OW 1345   0.894   0.352   2.060
  262SOL    HW1 1346   0.936   0.412   1.998
  262SOL    HW2 1347   0.892   0.268   2.015
  263SOL     OW 1348   1.708   0.576   3.691
  263SOL    HW1 1349   1.670   0.649   3.643
  263SOL    HW2 1350   1.733   0.512   3.624
  264SOL     OW 1351   1.379   1.141   2.402
  264SOL    HW1 1352   1.458   1.131   2.350
  264SOL    HW2 1353   1.326   1.204   2.352
  265SOL     OW 1354   0.561   0.195   2.743
  265SOL    HW1 1355   0.566   0.219   2.835
  265SOL    HW2 1356   0.547   0.278   2.697
  266SOL     OW 1357   1.003   1.443   2.332
  266SOL    HW1 1358   0.968   1.518   2.283
  266SOL    HW2 1359   0.983   1.464   2.423
  267SOL     OW 1360   0.365   1.819   2.732
  267SOL    HW1 1361   0.428   1.748   2.741
  267SOL    HW2 1362   0.416   1.899   2.748
  268SOL     OW 1363   1.800   1.052   2.733
  268SOL    HW1 1364   1.746   1.037   2.655
  268SOL    HW2 1365   1.737   1.059   2.805
  269SOL     OW 1366   1.228   1.539   3.375
  269SOL    HW1 1367   1.215   1.466   3.436
  269SOL    HW2 1368   1.163   1.524   3.306
  270SOL     OW 1369   0.310   0.954   2.104
  270SOL    HW1 1370   0.394   0.976   2.063
  270SOL    HW2 1371   0.298   0.861   2.084
  271SOL     OW 1372   1.479   0.748   2.591
  271SOL    HW1 1373   1.474   0.706   2.677
  271SOL    HW2 1374   1.557   0.803   2.596
  272SOL     OW 1375   0.468   1.261   3.599
  272SOL    HW1 1376   0.442   1.269   3.508
  272SOL    HW2 1377   0.386   1.264   3.648
  273SOL     OW 1378   1.122   1.776   2.092
  273SOL    HW1 1379   1.047   1.737   2.137
  273SOL    HW2 1380   1.145   1.714   2.024
  274SOL     OW 1381   0.201   0.294   3.362
  274SOL    HW1 1382   0.107   0.314   3.361
  274SOL    HW2 1383   0.209   0.222   3.424
  275SOL     OW 1384   1.628   1.380   1.950
  275SOL    HW1 1385   1.587   1.465   1.933
  275SOL    HW2 1386   1.559   1.316   1.930
  276SOL     OW 1387   0.466   1.739   2.178
  276SOL    HW1 1388   0.509   1.796   2.242
  276SOL    HW2 1389   0.538   1.703   2.126
  277SOL     OW 1390   1.441   0.166   2.267
  277SOL    HW1 1391   1.393   0.099   2.218
  277SOL    HW2 1392   1.511   0.118   2.312
  278SOL     OW 1393   0.252   1.791   3.093
  278SOL    HW1 1394   0.298   1.726   3.146
  278SOL    HW2 1395   0.249   1.753   3.005
  279SOL     OW 1396   0.938   1.699   2.760
  279SOL    HW1 1397   1.017   1.649   2.781
  279SOL    HW2 1398   0.896   1.649   2.690
  280SOL     OW 1399   0.397   0.694   2.333
  280SOL    HW1 1400   0.423   0.603   2.348
  280SOL    HW2 1401   0.305   0.698   2.358
  281SOL     OW 1402   1.529   0.229   3.589
  281SOL    HW1 1403   1.525   0.254   3.681
  281SOL    HW2 1404   1.511   0.135   3.589
  282SOL     OW 1405   0.645   0.130   1.965
  282SOL    HW1 1406   0.668   0.046   2.005
  282SOL    HW2 1407   0.584   0.107   1.895
  283SOL     OW 1408   0.776   0.284   3.629
  283SOL    HW1 1409   0.850   0.223   3.631
  283SOL    HW2 1410   0.720   0.255   3.701
  284SOL     OW 1411   0.875   1.522   3.056
  284SOL    HW1 1412   0.860   1.485   2.969
  284SOL    HW2 1413   0.945   1.468   3.093
  285SOL     OW 1414   1.340   0.587   3.293
  285SOL    HW1 1415   1.370   0.558   3.379
  285SOL    HW2 1416   1.375   0.676   3.283
  286SOL     OW 1417   0.816   1.393   2.804
  286SOL    HW1 1418   0.901   1.381   2.761
  286SOL    HW2 1419   0.754   1.395   2.731
  287SOL     OW 1420   0.930   0.512   2.762
  287SOL    HW1 1421   0.906   0.504   2.670
  287SOL    HW2 1422   0.955   0.423   2.788
  288SOL     OW 1423   0.546   0.056   2.349
  288SOL    HW1 1424   0.473   0.063   2.410
  288SOL    HW2 1425   0.548   0.140   2.304
  289SOL     OW 1426   1.427   1.198   1.902
  289SOL    HW1 1427   1.457   1.123   1.953
  289SOL    HW2 1428   1.342   1.220   1.940
  290SOL     OW 1429   0.346   0.037   2.060
  290SOL    HW1 1430   0.360   0.086   1.979
  290SOL    HW2 1431   0.431   0.037   2.103
  291SOL     OW 1432   0.942   0.249   2.323
  291SOL    HW1 1433   0.916   0.290   2.240
  291SOL    HW2 1434   1.038   0.253   2.322
  292SOL     OW 1435   1.079   0.683   3.320
  292SOL    HW1 1436   1.010   0.618   3.327
  292SOL    HW2 1437   1.160   0.632   3.315
  293SOL     OW 1438   1.221   1.571   2.657
  293SOL    HW1 1439   1.237   1.637   2.589
  293SOL    HW2 1440   1.291   1.585   2.721
  294SOL     OW 1441   0.466   1.151   2.597
  294SOL    HW1 1442   0.395   1.126   2.656
  294SOL    HW2 1443   0.432   1.135   2.510
  295SOL     OW 1444   1.264   1.792   2.472
  295SOL    HW1 1445   1.310   1.855   2.415
  295SOL    HW2 1446   1.198   1.844   2.517
  296SOL     OW 1447   1.022   0.543   1.891
  296SOL    HW1 1448   0.979   0.626   1.871
  296SOL    HW2 1449   1.086   0.564   1.959
  297SOL     OW 1450   0.081   0.573   3.255
  297SOL    HW1 1451   0.170   0.555   3.225
  297SOL    HW2 1452   0.090   0.645   3.318
  298SOL     OW 1453   0.572   0.231   3.021
  298SOL    HW1 1454   0.594   0.138   3.030
  298SOL    HW2 1455   0.481   0.237   3.051
  299SOL     OW 1456   0.871   0.461   2.500
  299SOL    HW1 1457   0.820   0.514   2.439
  299SOL    HW2 1458   0.891   0.381   2.453
  300SOL     OW 1459   0.996   0.040   2.643
  300SOL    HW1 1460   0.959   0.069   2.559
  300SOL    HW2 1461   1.007   3.945   2.632
  301SOL     OW 1462   1.438   1.161   2.719
  301SOL    HW1 1463   1.368   1.097   2.718
  301SOL    HW2 1464   1.464   1.172   2.628
  302SOL     OW 1465   1.465   0.607   2.836
  302SOL    HW1 1466   1.410   0.528   2.841
  302SOL    HW2 1467   1.524   0.600   2.911
  303SOL     OW 1468   1.844   0.819   2.249
  303SOL    HW1 1469   1.901   0.766   2.306
  303SOL    HW2 1470   1.815   0.758   2.181
  304SOL     OW 1471   0.487   1.421   2.021
  304SOL    HW1 1472   0.412   1.390   2.071
  304SOL    HW2 1473   0.472   1.388   1.933
  305SOL     OW 1474   1.671   1.264   2.507
  305SOL    HW1 1475   1.766   1.263   2.520
  305SOL    HW2 1476   1.645   1.353   2.528
  306SOL     OW 1477   1.395   0.576   1.931
  306SOL    HW1 1478   1.332   0.556   2.000
  306SOL    HW2 1479   1.480   0.556   1.970
  307SOL     OW 1480   0.557   0.271   2.180
  307SOL    HW1 1481   0.604   0.231   2.107
  307SOL    HW2 1482   0.528   0.356   2.146
  308SOL     OW 1483   1.751   1.240   3.432
  308SOL    HW1 1484   1.838   1.202   3.426
  308SOL    HW2 1485   1.766   1.331   3.459
  309SOL     OW 1486   1.056   1.354   3.195
  309SOL    HW1 1487   0.981   1.322   3.246
  309SOL    HW2 1488   1.132   1.312   3.236
  310SOL     OW 1489   1.609   1.626   3.517
  310SOL    HW1 1490   1.602   1.662   3.428
  310SOL    HW2 1491   1.692   1.579   3.517
  311SOL     OW 1492   1.132   1.206   2.966
  311SOL    HW1 1493   1.072   1.244   3.031
  311SOL    HW2 1494   1.100   1.239   2.882
  312SOL     OW 1495   1.625   1.097   2.938
  312SOL    HW1 1496   1.620   1.159   3.011
  312SOL    HW2 1497   1.548   1.115   2.885
  313SOL     OW 1498   0.913   0.115   3.263
  313SOL    HW1 1499   0.932   0.088   3.173
  313SOL    HW2 1500   0.993   0.157   3.294
  314SOL     OW 1501   0.984   1.115   3.585
  314SOL    HW1 1502   0.893   1.131   3.608
  314SOL    HW2 1503   0.982   1.037   3.530
  315SOL     OW 1504   0.708   1.061   2.232
  315SOL    HW1 1505   0.694   1.045   2.326
  315SOL    HW2 1506   0.784   1.008   2.209
  316SOL     OW 1507   0.422   0.817   3.115
  316SOL    HW1 1508   0.491   0.823   3.181
  316SOL    HW2 1509   0.388   0.728   3.124
  317SOL     OW 1510   1.266   0.375   3.139
  317SOL    HW1 1511   1.300   0.453   3.183
  317SOL    HW2 1512   1.178   0.400   3.109
  318SOL     OW 1513   0.065   1.580   3.208
  318SOL    HW1 1514   0.071   1.636   3.130
  318SOL    HW2 1515   0.156   1.567   3.235
  319SOL     OW 1516   0.371   1.103   2.345
  319SOL    HW1 1517   0.365   1.182   2.290
  319SOL    HW2 1518   0.370   1.031   2.282
  320SOL     OW 1519   0.554   0.534   2.720
  320SOL    HW1 1520   0.568   0.593   2.646
  320SOL    HW2 1521   0.620   0.561   2.784
  321SOL     OW 1522   1.248   1.349   2.252
  321SOL    HW1 1523   1.303   1.420   2.284
  321SOL    HW2 1524   1.160   1.370   2.285
  322SOL     OW 1525   1.284   1.459   3.010
  322SOL    HW1 1526   1.341   1.463   3.087
  322SOL    HW2 1527   1.229   1.382   3.024
  323SOL     OW 1528   1.575   0.634   2.349
  323SOL    HW1 1529   1.532   0.690   2.414
  323SOL    HW2 1530   1.622   0.694   2.292
  324SOL     OW 1531   0.345   1.527   3.180
  324SOL    HW1 1532   0.335   1.476   3.100
  324SOL    HW2 1533   0.440   1.542   3.188
  325SOL     OW 1534   0.417   0.737   3.463
  325SOL    HW1 1535   0.480   0.783   3.406
  325SOL    HW2 1536   0.455   0.650   3.476
  326SOL     OW 1537   1.604   0.780   3.547
  326SOL    HW1 1538   1.518   0.822   3.540
  326SOL    HW2 1539   1.656   0.821   3.478
  327SOL     OW 1540   1.011   0.134   3.641
  327SOL    HW1 1541   1.064   0.205   3.605
  327SOL    HW2 1542   1.001   0.073   3.567
  328SOL     OW 1543   0.483   0.037   3.627
  328SOL    HW1 1544   0.490   0.047   3.532
  328SOL    HW2 1545   0.421   0.105   3.653
  329SOL     OW 1546   0.585   0.875   2.893
  329SOL    HW1 1547   0.617   0.965   2.896
  329SOL    HW2 1548   0.529   0.867   2.971
  330SOL     OW 1549   1.353   0.858   2.888
  330SOL    HW1 1550   1.269   0.846   2.845
  330SOL    HW2 1551   1.397   0.773   2.881
  331SOL     OW 1552   1.200   0.537   2.120
  331SOL    HW1 1553   1.209   0.458   2.173
  331SOL    HW2 1554   1.157   0.600   2.178
  332SOL     OW 1555   0.311   0.212   3.102
  332SOL    HW1 1556   0.268   0.248   3.180
  332SOL    HW2 1557   0.296   0.118   3.108
  333SOL     OW 1558   0.061   1.306   3.142
  333SOL    HW1 1559   0.091   1.264   3.223
  333SOL    HW2 1560   0.052   1.398   3.165
  334SOL     OW 1561   0.725   0.634   2.915
  334SOL    HW1 1562   0.799   0.619   2.857
  334SOL    HW2 1563   0.695   0.722   2.894
  335SOL     OW 1564   1.737   0.959   3.717
  335SOL    HW1 1565   1.692   0.895   3.662
  335SOL    HW2 1566   1.677   0.975   3.790
  336SOL     OW 1567   0.330   0.055   2.516
  336SOL    HW1 1568   0.301   0.146   2.517
  336SOL    HW2 1569   0.293   0.017   2.596
  337SOL     OW 1570   1.607   0.391   2.243
  337SOL    HW1 1571   1.567   0.323   2.297
  337SOL    HW2 1572   1.587   0.473   2.288
  338SOL     OW 1573   1.030   0.759   2.821
  338SOL    HW1 1574   1.023   0.776   2.915
  338SOL    HW2 1575   1.002   0.668   2.811
  339SOL     OW 1576   0.982   1.566   3.581
  339SOL    HW1 1577   0.967   1.610   3.497
  339SOL    HW2 1578   1.026   1.484   3.557
  340SOL     OW 1579   1.854   1.502   3.465
  340SOL    HW1 1580   1.870   1.533   3.376
  340SOL    HW2 1581   1.938   1.514   3.510
  341SOL     OW 1582   0.353   0.922   3.660
  341SOL    HW1 1583   0.431   0.942   3.713
  341SOL    HW2 1584   0.382   0.854   3.599
  342SOL     OW 1585   1.504   0.275   1.997
  342SOL    HW1 1586   1.431   0.215   2.009
  342SOL    HW2 1587   1.518   0.314   2.083
  343SOL     OW 1588   1.289   0.827   1.891
  343SOL    HW1 1589   1.331   0.741   1.895
  343SOL    HW2 1590   1.321   0.866   1.810
  344SOL     OW 1591   1.066   1.337   2.717
  344SOL    HW1 1592   1.071   1.265   2.655
  344SOL    HW2 1593   1.127   1.403   2.683
  345SOL     OW 1594   0.313   0.803   2.812
  345SOL    HW1 1595   0.407   0.819   2.806
  345SOL    HW2 1596   0.306   0.713   2.844
  346SOL     OW 1597   0.338   0.528   2.877
  346SOL    HW1 1598   0.297   0.444   2.859
  346SOL    HW2 1599   0.413   0.532   2.818
  347SOL     OW 1600   1.133   0.380   3.559
  347SOL    HW1 1601   1.085   0.435   3.621
  347SOL    HW2 1602   1.220   0.420   3.554
  348SOL     OW 1603   1.151   0.225   3.344
  348SOL    HW1 1604   1.142   0.280   3.422
  348SOL    HW2 1605   1.176   0.287   3.275
  349SOL     OW 1606   0.000   1.317   2.044
  349SOL    HW1 1607   3.906   1.333   2.048
  349SOL    HW2 1608   0.009   1.223   2.063
  350SOL     OW 1609   0.078   1.800   2.751
  350SOL    HW1 1610   0.083   1.705   2.754
  350SOL    HW2 1611   0.169   1.830   2.755
  351SOL     OW 1612   0.500   1.571   2.773
  351SOL    HW1 1613   0.570   1.632   2.798
  351SOL    HW2 1614   0.544   1.508   2.715
  352SOL     OW 1615   0.978   0.789   3.086
  352SOL    HW1 1616   1.034   0.769   3.161
  352SOL    HW2 1617   0.893   0.751   3.109
  353SOL     OW 1618   0.035   0.574   2.974
  353SOL    HW1 1619   0.097   0.521   2.924
  353SOL    HW2 1620   0.061   0.560   3.065
  354SOL     OW 1621   0.211   0.516   3.584
  354SOL    HW1 1622   0.257   0.477   3.510
  354SOL    HW2 1623   0.164   0.590   3.546
  355SOL     OW 1624   1.378   0.936   3.519
  355SOL    HW1 1625   1.400   1.030   3.516
  355SOL    HW2 1626   1.375   0.910   3.427
  356SOL     OW 1627   0.819   0.572   2.224
  356SOL    HW1 1628   0.825   0.496   2.167
  356SOL    HW2 1629   0.743   0.621   2.191
  357SOL     OW 1630   1.640   0.602   3.045
  357SOL    HW1 1631   1.631   0.542   3.119
  357SOL    HW2 1632   1.728   0.585   3.011
  358SOL     OW 1633   0.300   1.544   3.587
  358SOL    HW1 1634   0.252   1.614   3.632
  358SOL    HW2 1635   0.269   1.463   3.628
  359SOL     OW 1636   0.710   0.454   3.118
  359SOL    HW1 1637   0.660   0.376   3.093
  359SOL    HW2 1638   0.700   0.513   3.044
  360SOL     OW 1639   0.925   1.679   3.332
  360SOL    HW1 1640   0.900   1.642   3.247
  360SOL    HW2 1641   0.919   1.774   3.318
  361SOL     OW 1642   0.454   0.492   2.059
  361SOL    HW1 1643   0.518   0.561   2.076
  361SOL    HW2 1644   0.374   0.539   2.035
  362SOL     OW 1645   0.156   1.135   3.336
  362SOL    HW1 1646   0.157   1.084   3.418
  362SOL    HW2 1647   0.171   1.070   3.268
  363SOL     OW 1648   1.323   1.045   3.084
  363SOL    HW1 1649   1.346   0.982   3.016
  363SOL    HW2 1650   1.255   1.099   3.044
  364SOL     OW 1651   1.314   0.856   2.167
  364SOL    HW1 1652   1.239   0.827   2.219
  364SOL    HW2 1653   1.287   0.843   2.076
  365SOL     OW 1654   1.757   1.737   3.009
  365SOL    HW1 1655   1.828   1.763   2.951
  365SOL    HW2 1656   1.739   1.646   2.986
  366SOL     OW 1657   1.243   1.734   2.970
  366SOL    HW1 1658   1.326   1.756   2.928
  366SOL    HW2 1659   1.250   1.641   2.990
  367SOL     OW 1660   0.077   1.217   2.889
  367SOL    HW1 1661   0.084   1.243   2.981
  367SOL    HW2 1662   3.985   1.227   2.868
  368SOL     OW 1663   0.680   1.668   3.596
  368SOL    HW1 1664   0.621   1.743   3.588
  368SOL    HW2 1665   0.746   1.681   3.529
  369SOL     OW 1666   1.714   0.124   2.350
  369SOL    HW1 1667   1.792   0.134   2.296
  369SOL    HW2 1668   1.705   0.030   2.362
  370SOL     OW 1669   1.391   1.568   2.350
  370SOL    HW1 1670   1.446   1.602   2.279
  370SOL    HW2 1671   1.341   1.644   2.379
  371SOL     OW 1672   0.175   1.763   3.692
  371SOL    HW1 1673   0.118   1.713   3.750
  371SOL    HW2 1674   0.216   1.828   3.749
  372SOL     OW 1675   1.277   0.928   2.533
  372SOL    HW1 1676   1.351   0.868   2.544
  372SOL    HW2 1677   1.312   0.999   2.480
  373SOL     OW 1678   0.810   1.274   3.290
  373SOL    HW1 1679   0.781   1.315   3.372
  373SOL    HW2 1680   0.739   1.291   3.228
  374SOL     OW 1681   0.670   1.622   2.017
  374SOL    HW1 1682   0.681   1.634   1.923
  374SOL    HW2 1683   0.615   1.544   2.025
  375SOL     OW 1684   1.621   1.729   3.253
  375SOL    HW1 1685   1.670   1.733   3.171
  375SOL    HW2 1686   1.611   1.820   3.280
  376SOL     OW 1687   1.839   0.178   2.828
  376SOL    HW1 1688   1.872   0.111   2.769
  376SOL    HW2 1689   1.751   0.197   2.797
  377SOL     OW 1690   0.275   0.322   2.576
  377SOL    HW1 1691   0.189   0.357   2.550
  377SOL    HW2 1692   0.266   0.306   2.670
  378SOL     OW 1693   1.207   1.604   1.894
  378SOL    HW1 1694   1.196   1.512   1.920
  378SOL    HW2 1695   1.141   1.616   1.825
  379SOL     OW 1696   0.823   1.005   3.235
  379SOL    HW1 1697   0.867   1.000   3.150
  379SOL    HW2 1698   0.822   1.099   3.256
  380SOL     OW 1699   0.915   0.911   2.152
  380SOL    HW1 1700   0.977   0.943   2.086
  380SOL    HW2 1701   0.964   0.842   2.198
  381SOL     OW 1702   1.487   1.622   1.902
  381SOL    HW1 1703   1.392   1.617   1.886
  381SOL    HW2 1704   1.525   1.630   1.815
  382SOL     OW 1705   0.374   1.303   3.354
  382SOL    HW1 1706   0.359   1.383   3.303
  382SOL    HW2 1707   0.297   1.248   3.336
  383SOL     OW 1708   1.609   1.283   3.141
  383SOL    HW1 1709   1.670   1.271   3.214
  383SOL    HW2 1710   1.549   1.352   3.172
  384SOL     OW 1711   1.056   1.109   2.570
  384SOL    HW1 1712   0.984   1.058   2.608
  384SOL    HW2 1713   1.119   1.043   2.541
  385SOL     OW 1714   1.014   0.249   2.832
  385SOL    HW1 1715   1.004   0.199   2.751
  385SOL    HW2 1716   1.010   0.184   2.901
  386SOL     OW 1717   0.606   1.488   2.344
  386SOL    HW1 1718   0.652   1.439   2.276
  386SOL    HW2 1719   0.532   1.528   2.298
  387SOL     OW 1720   1.720   0.394   3.234
  387SOL    HW1 1721   1.793   0.456   3.238
  387SOL    HW2 1722   1.754   0.322   3.180
  388SOL     OW 1723   0.254   1.341   2.155
  388SOL    HW1 1724   0.160   1.348   2.136
  388SOL    HW2 1725   0.264   1.380   2.242
  389SOL     OW 1726   0.108   0.999   3.580
  389SOL    HW1 1727   0.048   0.991   3.654
  389SOL    HW2 1728   0.194   0.981   3.616
  390SOL     OW 1729   0.694   0.253   3.363
  390SOL    HW1 1730   0.762   0.200   3.322
  390SOL    HW2 1731   0.722   0.262   3.454
  391SOL     OW 1732   0.088   0.321   1.889
  391SOL    HW1 1733   3.993   0.319   1.881
  391SOL    HW2 1734   0.113   0.404   1.847
  392SOL     OW 1735   1.427   0.857   3.260
  392SOL    HW1 1736   1.378   0.919   3.206
  392SOL    HW2 1737   1.516   0.859   3.226
  393SOL     OW 1738   0.037   0.168   2.146
  393SOL    HW1 1739   0.037   0.232   2.074
  393SOL    HW2 1740   0.113   0.192   2.199
  394SOL     OW 1741   1.178   1.337   1.979
  394SOL    HW1 1742   1.087   1.307   1.981
  394SOL    HW2 1743   1.205   1.338   2.071
  395SOL     OW 1744   0.621   0.829   3.299
  395SOL    HW1 1745   0.677   0.904   3.283
  395SOL    HW2 1746   0.681   0.755   3.307
  396SOL     OW 1747   1.488   1.785   2.845
  396SOL    HW1 1748   1.510   1.851   2.779
  396SOL    HW2 1749   1.572   1.765   2.888
  397SOL     OW 1750   0.717   0.562   3.569
  397SOL    HW1 1751   0.762   0.624   3.627
  397SOL    HW2 1752   0.744   0.475   3.601
  398SOL     OW 1753   1.473   1.197   3.492
  398SOL    HW1 1754   1.461   1.212   3.586
  398SOL    HW2 1755   1.566   1.214   3.477
  399SOL     OW 1756   0.378   1.743   3.419
  399SOL    HW1 1757   0.291   1.781   3.406
  399SOL    HW2 1758   0.362   1.661   3.465
  400SOL     OW 1759   1.667   0.881   3.118
  400SOL    HW1 1760   1.662   0.795   3.075
  400SOL    HW2 1761   1.657   0.944   3.046
  401SOL     OW 1762   1.223   0.336   2.304
  401SOL    HW1 1763   1.291   0.269   2.297
  401SOL    HW2 1764   1.242   0.381   2.387
  402SOL     OW 1765   0.590   0.738   2.533
  402SOL    HW1 1766   0.628   0.824   2.517
  402SOL    HW2 1767   0.523   0.728   2.466
  403SOL     OW 1768   1.751   0.384   3.505
  403SOL    HW1 1769   1.733   0.389   3.411
  403SOL    HW2 1770   1.694   0.313   3.536
  404SOL     OW 1771   1.746   0.934   3.374
  404SOL    HW1 1772   1.739   1.028   3.387
  404SOL    HW2 1773   1.730   0.921   3.281
  405SOL     OW 1774   0.863   1.366   1.900
  405SOL    HW1 1775   0.825   1.394   1.983
  405SOL    HW2 1776   0.880   1.447   1.852
  406SOL     OW 1777   0.663   1.788   2.804
  406SOL    HW1 1778   0.643   1.879   2.782
  406SOL    HW2 1779   0.758   1.782   2.797
  407SOL     OW 1780   0.869   0.968   2.715
  407SOL    HW1 1781   0.919   0.896   2.754
  407SOL    HW2 1782   0.832   1.015   2.790
  408SOL     OW 1783   1.078   0.989   1.951
  408SOL    HW1 1784   1.056   1.040   1.873
  408SOL    HW2 1785   1.152   0.935   1.925
  409SOL     OW 1786   1.843   1.536   2.689
  409SOL    HW1 1787   1.758   1.534   2.646
  409SOL    HW2 1788   1.833   1.479   2.766
  410SOL     OW 1789   0.226   1.304   3.718
  410SOL    HW1 1790   0.154   1.247   3.691
  410SOL    HW2 1791   0.212   1.317   3.812
  411SOL     OW 1792   0.121   1.280   2.583
  411SOL    HW1 1793   0.135   1.229   2.663
  411SOL    HW2 1794   0.106   1.214   2.515
  412SOL     OW 1795   0.682   1.405   3.491
  412SOL    HW1 1796   0.602   1.362   3.522
  412SOL    HW2 1797   0.678   1.493   3.529
  413SOL     OW 1798   1.811   0.183   3.100
  413SOL    HW1 1799   1.814   0.089   3.116
  413SOL    HW2 1800   1.826   0.193   3.006
  414SOL     OW 1801   0.444   0.438   2.393
  414SOL    HW1 1802   0.461   0.362   2.337
  414SOL    HW2 1803   0.389   0.403   2.463
  415SOL     OW 1804   1.702   1.480   2.949
  415SOL    HW1 1805   1.619   1.461   2.905
  415SOL    HW2 1806   1.708   1.412   3.017
  416SOL     OW 1807   0.333   0.557   3.155
  416SOL    HW1 1808   0.389   0.501   3.208
  416SOL    HW2 1809   0.348   0.528   3.065
  417SOL     OW 1810   0.829   1.579   2.538
  417SOL    HW1 1811   0.813   1.640   2.466
  417SOL    HW2 1812   0.753   1.520   2.536
  418SOL     OW 1813   1.461   0.254   2.972
  418SOL    HW1 1814   1.478   0.167   3.008
  418SOL    HW2 1815   1.405   0.296   3.038
  419SOL     OW 1816   1.004   0.028   3.008
  419SOL    HW1 1817   0.923   3.991   2.972
  419SOL    HW2 1818   1.063   3.953   3.017
  420SOL     OW 1819   0.773   1.333   2.180
  420SOL    HW1 1820   0.744   1.242   2.186
  420SOL    HW2 1821   0.855   1.336   2.229
  421SOL     OW 1822   0.620   1.556   3.148
  421SOL    HW1 1823   0.622   1.639   3.197
  421SOL    HW2 1824   0.708   1.549   3.111
  422SOL     OW 1825   1.311   0.074   2.026
  422SOL    HW1 1826   1.324   3.995   1.975
  422SOL    HW2 1827   1.225   0.062   2.068
  423SOL     OW 1828   1.282   0.457   2.547
  423SOL    HW1 1829   1.235   0.540   2.542
  423SOL    HW2 1830   1.285   0.437   2.641
  424SOL     OW 1831   1.588   0.210   2.730
  424SOL    HW1 1832   1.539   0.234   2.808
  424SOL    HW2 1833   1.588   0.289   2.676
  425SOL     OW 1834   0.047   1.049   2.103
  425SOL    HW1 1835   0.141   1.032   2.094
  425SOL    HW2 1836   0.011   0.965   2.132
  426SOL     OW 1837   0.887   1.656   2.202
  426SOL    HW1 1838   0.813   1.639   2.143
  426SOL    HW2 1839   0.858   1.730   2.256
  427SOL     OW 1840   0.232   0.628   3.841
  427SOL    HW1 1841   0.139   0.632   3.863
  427SOL    HW2 1842   0.235   0.598   3.750
  428SOL     OW 1843   0.224   0.289   4.707
  428SOL    HW1 1844   0.246   0.250   4.791
  428SOL    HW2 1845   0.129   0.278   4.700
  429SOL     OW 1846   0.019   0.385   4.360
  429SOL    HW1 1847   3.928   0.399   4.388
  429SOL    HW2 1848   0.025   0.291   4.345
  430SOL     OW 1849   0.581   1.289   4.915
  430SOL    HW1 1850   0.494   1.291   4.874
  430SOL    HW2 1851   0.594   1.378   4.947
  431SOL     OW 1852   1.567   1.513   4.433
  431SOL    HW1 1853   1.524   1.493   4.516
  431SOL    HW2 1854   1.496   1.519   4.370
  432SOL     OW 1855   1.133   0.698   4.421
  432SOL    HW1 1856   1.180   0.781   4.409
  432SOL    HW2 1857   1.085   0.710   4.503
  433SOL     OW 1858   1.766   0.619   3.949
  433SOL    HW1 1859   1.745   0.612   3.856
  433SOL    HW2 1860   1.752   0.531   3.984
  434SOL     OW 1861   0.753   1.139   4.766
  434SOL    HW1 1862   0.690   1.175   4.828
  434SOL    HW2 1863   0.789   1.216   4.722
  435SOL     OW 1864   0.871   0.770   5.548
  435SOL    HW1 1865   0.860   0.841   5.611
  435SOL    HW2 1866   0.893   0.814   5.465
  436SOL     OW 1867   0.685   1.002   4.370
  436SOL    HW1 1868   0.751   0.991   4.438
  436SOL    HW2 1869   0.616   1.054   4.411
  437SOL     OW 1870   0.711   1.149   5.540
  437SOL    HW1 1871   0.759   1.227   5.568
  437SOL    HW2 1872   0.630   1.183   5.502
  438SOL     OW 1873   0.351   1.401   4.803
  438SOL    HW1 1874   0.270   1.380   4.756
  438SOL    HW2 1875   0.399   1.459   4.743
  439SOL     OW 1876   1.460   1.502   5.081
  439SOL    HW1 1877   1.514   1.581   5.090
  439SOL    HW2 1878   1.395   1.509   5.151
  440SOL     OW 1879   0.457   0.408   5.219
  440SOL    HW1 1880   0.539   0.358   5.218
  440SOL    HW2 1881   0.388   0.341   5.223
  441SOL     OW 1882   1.612   0.451   4.459
  441SOL    HW1 1883   1.542   0.482   4.401
  441SOL    HW2 1884   1.629   0.524   4.518
  442SOL     OW 1885   0.220   1.719   4.181
  442SOL    HW1 1886   0.240   1.793   4.239
  442SOL    HW2 1887   0.297   1.711   4.125
  443SOL     OW 1888   1.137   1.342   5.417
  443SOL    HW1 1889   1.178   1.337   5.504
  443SOL    HW2 1890   1.085   1.262   5.411
  444SOL     OW 1891   0.250   1.450   4.264
  444SOL    HW1 1892   0.215   1.538   4.249
  444SOL    HW2 1893   0.182   1.406   4.315
  445SOL     OW 1894   0.248   1.066   4.608
  445SOL    HW1 1895   0.267   0.981   4.648
  445SOL    HW2 1896   0.195   1.111   4.674
  446SOL     OW 1897   0.610   1.793   5.151
  446SOL    HW1 1898   0.528   1.774   5.196
  446SOL    HW2 1899   0.633   1.882   5.177
  447SOL     OW 1900   0.577   0.986   3.863
  447SOL    HW1 1901   0.625   1.030   3.793
  447SOL    HW2 1902   0.618   1.016   3.944
  448SOL     OW 1903   1.581   0.140   5.180
  448SOL    HW1 1904   1.611   0.213   5.125
  448SOL    HW2 1905   1.548   0.182   5.260
  449SOL     OW 1906   0.140   0.652   4.293
  449SOL    HW1 1907   0.098   0.566   4.298
  449SOL    HW2 1908   0.102   0.701   4.366
  450SOL     OW 1909   0.044   1.589   3.862
  450SOL    HW1 1910   0.037   1.497   3.887
  450SOL    HW2 1911   3.961   1.629   3.890
  451SOL     OW 1912   1.687   0.917   4.366
  451SOL    HW1 1913   1.771   0.876   4.346
  451SOL    HW2 1914   1.667   0.969   4.288
  452SOL     OW 1915   1.648   1.105   4.153
  452SOL    HW1 1916   1.735   1.109   4.112
  452SOL    HW2 1917   1.654   1.168   4.226
  453SOL     OW 1918   0.141   0.756   5.312
  453SOL    HW1 1919   0.236   0.751   5.308
  453SOL    HW2 1920   0.123   0.844   5.345
  454SOL     OW 1921   0.613   1.387   4.460
  454SOL    HW1 1922   0.567   1.303   4.469
  454SOL    HW2 1923   0.597   1.413   4.369
  455SOL     OW 1924   1.287   1.237   5.146
  455SOL    HW1 1925   1.319   1.170   5.086
  455SOL    HW2 1926   1.346   1.232   5.222
  456SOL     OW 1927   0.820   0.004   4.240
  456SOL    HW1 1928   0.865   0.085   4.216
  456SOL    HW2 1929   0.727   0.027   4.240
  457SOL     OW 1930   0.184   0.950   5.002
  457SOL    HW1 1931   0.272   0.915   4.990
  457SOL    HW2 1932   0.132   0.908   4.934
  458SOL     OW 1933   1.531   0.996   3.924
  458SOL    HW1 1934   1.462   0.939   3.957
  458SOL    HW2 1935   1.574   1.030   4.003
  459SOL     OW 1936   1.183   1.809   5.347
  459SOL    HW1 1937   1.193   1.868   5.273
  459SOL    HW2 1938   1.202   1.722   5.311
  460SOL     OW 1939   0.345   0.251   5.564
  460SOL    HW1 1940   0.387   0.335   5.545
  460SOL    HW2 1941   0.253   0.274   5.581
  461SOL     OW 1942   1.465   1.420   4.673
  461SOL    HW1 1943   1.398   1.435   4.740
  461SOL    HW2 1944   1.453   1.328   4.647
  462SOL     OW 1945   1.665   1.734   4.281
  462SOL    HW1 1946   1.630   1.698   4.200
  462SOL    HW2 1947   1.646   1.668   4.347
  463SOL     OW 1948   0.596   0.717   3.990
  463SOL    HW1 1949   0.601   0.801   3.945
  463SOL    HW2 1950   0.533   0.731   4.061
  464SOL     OW 1951   1.274   0.369   4.665
  464SOL    HW1 1952   1.187   0.330   4.672
  464SOL    HW2 1953   1.332   0.307   4.710
  465SOL     OW 1954   1.575   1.671   4.022
  465SOL    HW1 1955   1.662   1.705   4.000
  465SOL    HW2 1956   1.536   1.646   3.938
  466SOL     OW 1957   0.794   0.616   5.177
  466SOL    HW1 1958   0.765   0.590   5.265
  466SOL    HW2 1959   0.756   0.550   5.119
  467SOL     OW 1960   1.392   0.476   5.401
  467SOL    HW1 1961   1.398   0.521   5.485
  467SOL    HW2 1962   1.450   0.400   5.410
  468SOL     OW 1963   0.952   0.887   5.308
  468SOL    HW1 1964   1.007   0.818   5.271
  468SOL    HW2 1965   0.904   0.922   5.234
  469SOL     OW 1966   0.992   0.403   4.962
  469SOL    HW1 1967   0.907   0.424   5.001
  469SOL    HW2 1968   0.972   0.374   4.873
  470SOL     OW 1969   1.052   0.700   4.149
  470SOL    HW1 1970   1.069   0.692   4.243
  470SOL    HW2 1971   0.970   0.653   4.136
  471SOL     OW 1972   0.081   0.829   4.514
  471SOL    HW1 1973   0.154   0.795   4.567
  471SOL    HW2 1974   0.102   0.921   4.501
  472SOL     OW 1975   0.130   1.863   5.301
  472SOL    HW1 1976   0.138   1.828   5.390
  472SOL    HW2 1977   0.038   1.851   5.278
  473SOL     OW 1978   0.894   0.352   3.922
  473SOL    HW1 1979   0.936   0.412   3.860
  473SOL    HW2 1980   0.892   0.268   3.877
  474SOL     OW 1981   1.708   0.576   5.553
  474SOL    HW1 1982   1.670   0.649   5.505
  474SOL    HW2 1983   1.732   0.512   5.486
  475SOL     OW 1984   1.379   1.141   4.264
  475SOL    HW1 1985   1.458   1.131   4.212
  475SOL    HW2 1986   1.326   1.204   4.214
  476SOL     OW 1987   0.561   0.195   4.604
  476SOL    HW1 1988   0.566   0.219   4.697
  476SOL    HW2 1989   0.547   0.278   4.559
  477SOL     OW 1990   1.003   1.444   4.194
  477SOL    HW1 1991   0.968   1.518   4.145
  477SOL    HW2 1992   0.983   1.464   4.285
  478SOL     OW 1993   0.365   1.819   4.594
  478SOL    HW1 1994   0.428   1.748   4.603
  478SOL    HW2 1995   0.416   1.899   4.610
  479SOL     OW 1996   1.800   1.052   4.595
  479SOL    HW1 1997   1.746   1.037   4.517
  479SOL    HW2 1998   1.737   1.059   4.667
  480SOL     OW 1999   1.227   1.539   5.237
  480SOL    HW1 2000   1.215   1.467   5.299
  480SOL    HW2 2001   1.162   1.524   5.168
  481SOL     OW 2002   0.310   0.954   3.966
  481SOL    HW1 2003   0.394   0.976   3.925
  481SOL    HW2 2004   0.298   0.861   3.946
  482SOL     OW 2005   1.479   0.748   4.453
  482SOL    HW1 2006   1.474   0.706   4.539
  482SOL    HW2 2007   1.557   0.803   4.458
  483SOL     OW 2008   0.468   1.261   5.461
  483SOL    HW1 2009   0.442   1.269   5.370
  483SOL    HW2 2010   0.386   1.264   5.510
  484SOL     OW 2011   1.122   1.776   3.955
  484SOL    HW1 2012   1.047   1.736   3.999
  484SOL    HW2 2013   1.145   1.714   3.886
  485SOL     OW 2014   0.201   0.294   5.224
  485SOL    HW1 2015   0.107   0.314   5.223
  485SOL    HW2 2016   0.209   0.222   5.287
  486SOL     OW 2017   1.628   1.380   3.812
  486SOL    HW1 2018   1.586   1.465   3.795
  486SOL    HW2 2019   1.559   1.316   3.792
  487SOL     OW 2020   0.466   1.739   4.040
  487SOL    HW1 2021   0.509   1.796   4.104
  487SOL    HW2 2022   0.538   1.703   3.988
  488SOL     OW 2023   1.441   0.166   4.129
  488SOL    HW1 2024   1.393   0.099   4.080
  488SOL    HW2 2025   1.511   0.118   4.174
  489SOL     OW 2026   0.252   1.790   4.955
  489SOL    HW1 2027   0.298   1.725   5.008
  489SOL    HW2 2028   0.249   1.753   4.867
  490SOL     OW 2029   0.938   1.699   4.622
  490SOL    HW1 2030   1.017   1.649   4.643
  490SOL    HW2 2031   0.896   1.649   4.552
  491SOL     OW 2032   0.397   0.694   4.195
  491SOL    HW1 2033   0.423   0.603   4.210
  491SOL    HW2 2034   0.305   0.698   4.220
  492SOL     OW 2035   1.529   0.229   5.451
  492SOL    HW1 2036   1.525   0.254   5.543
  492SOL    HW2 2037   1.511   0.135   5.451
  493SOL     OW 2038   0.645   0.130   3.827
  493SOL    HW1 2039   0.668   0.046   3.867
  493SOL    HW2 2040   0.584   0.107   3.757
  494SOL     OW 2041   0.777   0.283   5.491
  494SOL    HW1 2042   0.850   0.222   5.493
  494SOL    HW2 2043   0.720   0.255   5.563
  495SOL     OW 2044   0.876   1.522   4.918
  495SOL    HW1 2045   0.860   1.485   4.831
  495SOL    HW2 2046   0.945   1.468   4.955
  496SOL     OW 2047   1.340   0.587   5.155
  496SOL    HW1 2048   1.370   0.558   5.241
  496SOL    HW2 2049   1.375   0.676   5.145
  497SOL     OW 2050   0.816   1.393   4.666
  497SOL    HW1 2051   0.901   1.381   4.623
  497SOL    HW2 2052   0.754   1.395   4.593
  498SOL     OW 2053   0.930   0.512   4.624
  498SOL    HW1 2054   0.906   0.504   4.532
  498SOL    HW2 2055   0.955   0.423   4.650
  499SOL     OW 2056   0.546   0.056   4.211
  499SOL    HW1 2057   0.472   0.063   4.272
  499SOL    HW2 2058   0.548   0.140   4.166
  500SOL     OW 2059   1.427   1.199   3.764
  500SOL    HW1 2060   1.457   1.123   3.815
  500SOL    HW2 2061   1.342   1.220   3.801
  501SOL     OW 2062   0.346   0.037   3.922
  501SOL    HW1 2063   0.360   0.086   3.841
  501SOL    HW2 2064   0.431   0.037   3.966
  502SOL     OW 2065   0.942   0.249   4.185
  502SOL    HW1 2066   0.916   0.290   4.102
  502SOL    HW2 2067   1.038   0.254   4.184
  503SOL     OW 2068   1.079   0.683   5.182
  503SOL    HW1 2069   1.010   0.618   5.189
  503SOL    HW2 2070   1.160   0.632   5.177
  504SOL     OW 2071   1.221   1.571   4.519
  504SOL    HW1 2072   1.237   1.637   4.451
  504SOL    HW2 2073   1.291   1.585   4.583
  505SOL     OW 2074   0.466   1.151   4.459
  505SOL    HW1 2075   0.395   1.126   4.518
  505SOL    HW2 2076   0.432   1.135   4.372
  506SOL     OW 2077   1.264   1.792   4.334
  506SOL    HW1 2078   1.310   1.855   4.277
  506SOL    HW2 2079   1.198   1.844   4.379
  507SOL     OW 2080   1.022   0.543   3.753
  507SOL    HW1 2081   0.979   0.626   3.733
  507SOL    HW2 2082   1.086   0.564   3.821
  508SOL     OW 2083   0.081   0.573   5.117
  508SOL    HW1 2084   0.170   0.555   5.087
  508SOL    HW2 2085   0.090   0.645   5.180
  509SOL     OW 2086   0.572   0.231   4.883
  509SOL    HW1 2087   0.594   0.138   4.892
  509SOL    HW2 2088   0.481   0.237   4.913
  510SOL     OW 2089   0.871   0.461   4.362
  510SOL    HW1 2090   0.820   0.514   4.301
  510SOL    HW2 2091   0.891   0.381   4.315
  511SOL     OW 2092   0.996   0.040   4.505
  511SOL    HW1 2093   0.959   0.069   4.421
  511SOL    HW2 2094   1.007   3.945   4.494
  512SOL     OW 2095   1.438   1.161   4.581
  512SOL    HW1 2096   1.368   1.097   4.580
  512SOL    HW2 2097   1.464   1.172   4.490
  513SOL     OW 2098   1.465   0.607   4.698
  513SOL    HW1 2099   1.410   0.528   4.703
  513SOL    HW2 2100   1.524   0.600   4.773
  514SOL     OW 2101   1.844   0.819   4.111
  514SOL    HW1 2102   1.901   0.766   4.168
  514SOL    HW2 2103   1.815   0.758   4.043
  515SOL     OW 2104   0.487   1.421   3.883
  515SOL    HW1 2105   0.412   1.390   3.933
  515SOL    HW2 2106   0.472   1.388   3.795
  516SOL     OW 2107   1.671   1.264   4.369
  516SOL    HW1 2108   1.766   1.263   4.382
  516SOL    HW2 2109   1.644   1.353   4.390
  517SOL     OW 2110   1.395   0.576   3.793
  517SOL    HW1 2111   1.332   0.556   3.862
  517SOL    HW2 2112   1.480   0.556   3.832
  518SOL     OW 2113   0.557   0.271   4.042
  518SOL    HW1 2114   0.605   0.231   3.969
  518SOL    HW2 2115   0.528   0.355   4.008
  519SOL     OW 2116   1.751   1.240   5.294
  519SOL    HW1 2117   1.838   1.202   5.287
  519SOL    HW2 2118   1.766   1.331   5.321
  520SOL     OW 2119   1.056   1.354   5.057
  520SOL    HW1 2120   0.981   1.322   5.108
  520SOL    HW2 2121   1.132   1.312   5.098
  521SOL     OW 2122   1.608   1.626   5.374
  521SOL    HW1 2123   1.604   1.662   5.285
  521SOL    HW2 2124   1.691   1.579   5.377
  522SOL     OW 2125   1.132   1.206   4.828
  522SOL    HW1 2126   1.072   1.244   4.893
  522SOL    HW2 2127   1.100   1.239   4.744
  523SOL     OW 2128   1.625   1.097   4.801
  523SOL    HW1 2129   1.620   1.159   4.873
  523SOL    HW2 2130   1.548   1.115   4.747
  524SOL     OW 2131   0.913   0.115   5.125
  524SOL    HW1 2132   0.932   0.088   5.035
  524SOL    HW2 2133   0.993   0.157   5.156
  525SOL     OW 2134   0.984   1.115   5.447
  525SOL    HW1 2135   0.893   1.132   5.470
  525SOL    HW2 2136   0.982   1.037   5.392
  526SOL     OW 2137   0.708   1.061   4.094
  526SOL    HW1 2138   0.694   1.044   4.188
  526SOL    HW2 2139   0.784   1.008   4.071
  527SOL     OW 2140   0.422   0.817   4.977
  527SOL    HW1 2141   0.491   0.823   5.043
  527SOL    HW2 2142   0.388   0.728   4.986
  528SOL     OW 2143   1.266   0.375   5.001
  528SOL    HW1 2144   1.300   0.453   5.045
  528SOL    HW2 2145   1.178   0.400   4.971
  529SOL     OW 2146   0.065   1.580   5.070
  529SOL    HW1 2147   0.071   1.636   4.992
  529SOL    HW2 2148   0.156   1.567   5.097
  530SOL     OW 2149   0.371   1.103   4.207
  530SOL    HW1 2150   0.365   1.182   4.152
  530SOL    HW2 2151   0.370   1.031   4.144
  531SOL     OW 2152   0.554   0.534   4.582
  531SOL    HW1 2153   0.568   0.593   4.508
  531SOL    HW2 2154   0.620   0.561   4.646
  532SOL     OW 2155   1.248   1.349   4.114
  532SOL    HW1 2156   1.303   1.420   4.146
  532SOL    HW2 2157   1.160   1.370   4.147
  533SOL     OW 2158   1.284   1.459   4.872
  533SOL    HW1 2159   1.340   1.463   4.949
  533SOL    HW2 2160   1.229   1.382   4.886
  534SOL     OW 2161   1.575   0.634   4.211
  534SOL    HW1 2162   1.532   0.690   4.276
  534SOL    HW2 2163   1.622   0.694   4.154
  535SOL     OW 2164   0.345   1.527   5.042
  535SOL    HW1 2165   0.335   1.477   4.962
  535SOL    HW2 2166   0.440   1.542   5.050
  536SOL     OW 2167   0.417   0.737   5.325
  536SOL    HW1 2168   0.480   0.783   5.268
  536SOL    HW2 2169   0.455   0.650   5.338
  537SOL     OW 2170   1.604   0.781   5.409
  537SOL    HW1 2171   1.518   0.822   5.402
  537SOL    HW2 2172   1.657   0.821   5.340
  538SOL     OW 2173   1.012   0.133   5.503
  538SOL    HW1 2174   1.064   0.205   5.467
  538SOL    HW2 2175   1.001   0.073   5.429
  539SOL     OW 2176   0.483   0.037   5.489
  539SOL    HW1 2177   0.490   0.047   5.394
  539SOL    HW2 2178   0.421   0.105   5.515
  540SOL     OW 2179   0.585   0.875   4.755
  540SOL    HW1 2180   0.616   0.965   4.758
  540SOL    HW2 2181   0.529   0.867   4.833
  541SOL     OW 2182   1.353   0.858   4.750
  541SOL    HW1 2183   1.269   0.846   4.707
  541SOL    HW2 2184   1.397   0.773   4.743
  542SOL     OW 2185   1.200   0.537   3.982
  542SOL    HW1 2186   1.209   0.458   4.035
  542SOL    HW2 2187   1.157   0.600   4.040
  543SOL     OW 2188   0.311   0.212   4.964
  543SOL    HW1 2189   0.268   0.248   5.042
  543SOL    HW2 2190   0.296   0.118   4.970
  544SOL     OW 2191   0.061   1.306   5.004
  544SOL    HW1 2192   0.091   1.264   5.085
  544SOL    HW2 2193   0.052   1.398   5.027
  545SOL     OW 2194   0.725   0.634   4.777
  545SOL    HW1 2195   0.799   0.619   4.719
  545SOL    HW2 2196   0.695   0.722   4.756
  546SOL     OW 2197   1.737   0.959   5.579
  546SOL    HW1 2198   1.692   0.896   5.524
  546SOL    HW2 2199   1.677   0.975   5.652
  547SOL     OW 2200   0.330   0.055   4.378
  547SOL    HW1 2201   0.301   0.146   4.379
  547SOL    HW2 2202   0.293   0.017   4.458
  548SOL     OW 2203   1.607   0.391   4.105
  548SOL    HW1 2204   1.567   0.323   4.159
  548SOL    HW2 2205   1.587   0.473   4.150
  549SOL     OW 2206   1.030   0.759   4.683
  549SOL    HW1 2207   1.023   0.776   4.777
  549SOL    HW2 2208   1.002   0.668   4.673
  550SOL     OW 2209   0.981   1.566   5.443
  550SOL    HW1 2210   0.967   1.610   5.359
  550SOL    HW2 2211   1.026   1.484   5.420
  551SOL     OW 2212   1.854   1.501   5.327
  551SOL    HW1 2213   1.871   1.532   5.238
  551SOL    HW2 2214   1.937   1.513   5.373
  552SOL     OW 2215   0.353   0.922   5.522
  552SOL    HW1 2216   0.431   0.942   5.575
  552SOL    HW2 2217   0.382   0.854   5.461
  553SOL     OW 2218   1.504   0.275   3.859
  553SOL    HW1 2219   1.431   0.215   3.871
  553SOL    HW2 2220   1.518   0.314   3.945
  554SOL     OW 2221   1.289   0.827   3.753
  554SOL    HW1 2222   1.331   0.741   3.756
  554SOL    HW2 2223   1.321   0.866   3.672
  555SOL     OW 2224   1.066   1.337   4.579
  555SOL    HW1 2225   1.071   1.265   4.517
  555SOL    HW2 2226   1.127   1.403   4.545
  556SOL     OW 2227   0.313   0.803   4.674
  556SOL    HW1 2228   0.407   0.819   4.668
  556SOL    HW2 2229   0.306   0.713   4.706
  557SOL     OW 2230   0.338   0.528   4.739
  557SOL    HW1 2231   0.297   0.444   4.721
  557SOL    HW2 2232   0.413   0.532   4.680
  558SOL     OW 2233   1.133   0.380   5.421
  558SOL    HW1 2234   1.085   0.435   5.483
  558SOL    HW2 2235   1.220   0.420   5.416
  559SOL     OW 2236   1.151   0.225   5.206
  559SOL    HW1 2237   1.142   0.280   5.284
  559SOL    HW2 2238   1.176   0.287   5.136
  560SOL     OW 2239   0.000   1.317   3.906
  560SOL    HW1 2240   3.906   1.333   3.910
  560SOL    HW2 2241   0.009   1.223   3.925
  561SOL     OW 2242   0.078   1.800   4.613
  561SOL    HW1 2243   0.083   1.705   4.616
  561SOL    HW2 2244   0.169   1.829   4.617
  562SOL     OW 2245   0.500   1.571   4.634
  562SOL    HW1 2246   0.570   1.632   4.660
  562SOL    HW2 2247   0.544   1.508   4.577
  563SOL     OW 2248   0.978   0.789   4.948
  563SOL    HW1 2249   1.034   0.769   5.023
  563SOL    HW2 2250   0.893   0.751   4.971
  564SOL     OW 2251   0.035   0.574   4.836
  564SOL    HW1 2252   0.097   0.521   4.786
  564SOL    HW2 2253   0.061   0.560   4.927
  565SOL     OW 2254   0.211   0.516   5.446
  565SOL    HW1 2255   0.257   0.477   5.372
  565SOL    HW2 2256   0.164   0.590   5.408
  566SOL     OW 2257   1.379   0.936   5.381
  566SOL    HW1 2258   1.400   1.030   5.378
  566SOL    HW2 2259   1.375   0.910   5.289
  567SOL     OW 2260   0.818   0.572   4.086
  567SOL    HW1 2261   0.824   0.496   4.029
  567SOL    HW2 2262   0.743   0.621   4.053
  568SOL     OW 2263   1.640   0.602   4.907
  568SOL    HW1 2264   1.631   0.542   4.981
  568SOL    HW2 2265   1.728   0.585   4.873
  569SOL     OW 2266   0.300   1.544   5.449
  569SOL    HW1 2267   0.252   1.613   5.494
  569SOL    HW2 2268   0.269   1.463   5.489
  570SOL     OW 2269   0.710   0.454   4.980
  570SOL    HW1 2270   0.660   0.376   4.955
  570SOL    HW2 2271   0.700   0.513   4.906
  571SOL     OW 2272   0.924   1.679   5.193
  571SOL    HW1 2273   0.900   1.642   5.108
  571SOL    HW2 2274   0.920   1.774   5.181
  572SOL     OW 2275   0.454   0.492   3.921
  572SOL    HW1 2276   0.518   0.561   3.938
  572SOL    HW2 2277   0.374   0.539   3.897
  573SOL     OW 2278   0.156   1.135   5.198
  573SOL    HW1 2279   0.157   1.084   5.280
  573SOL    HW2 2280   0.171   1.070   5.130
  574SOL     OW 2281   1.323   1.045   4.946
  574SOL    HW1 2282   1.346   0.982   4.877
  574SOL    HW2 2283   1.255   1.099   4.906
  575SOL     OW 2284   1.314   0.856   4.029
  575SOL    HW1 2285   1.239   0.827   4.081
  575SOL    HW2 2286   1.287   0.843   3.938
  576SOL     OW 2287   1.752   1.737   4.867
  576SOL    HW1 2288   1.826   1.761   4.812
  576SOL    HW2 2289   1.736   1.645   4.846
  577SOL     OW 2290   1.243   1.734   4.832
  577SOL    HW1 2291   1.326   1.756   4.790
  577SOL    HW2 2292   1.250   1.641   4.852
  578SOL     OW 2293   0.077   1.217   4.751
  578SOL    HW1 2294   0.084   1.243   4.843
  578SOL    HW2 2295   3.985   1.227   4.730
  579SOL     OW 2296   0.680   1.668   5.459
  579SOL    HW1 2297   0.621   1.742   5.449
  579SOL    HW2 2298   0.747   1.681   5.391
  580SOL     OW 2299   1.714   0.124   4.212
  580SOL    HW1 2300   1.792   0.134   4.158
  580SOL    HW2 2301   1.705   0.030   4.224
  581SOL     OW 2302   1.391   1.568   4.212
  581SOL    HW1 2303   1.447   1.601   4.141
  581SOL    HW2 2304   1.341   1.644   4.241
  582SOL     OW 2305   0.175   1.763   5.554
  582SOL    HW1 2306   0.118   1.712   5.611
  582SOL    HW2 2307   0.215   1.829   5.612
  583SOL     OW 2308   1.277   0.928   4.395
  583SOL    HW1 2309   1.351   0.868   4.406
  583SOL    HW2 2310   1.312   0.999   4.342
  584SOL     OW 2311   0.810   1.274   5.152
  584SOL    HW1 2312   0.781   1.315   5.234
  584SOL    HW2 2313   0.739   1.291   5.090
  585SOL     OW 2314   0.670   1.622   3.879
  585SOL    HW1 2315   0.681   1.634   3.785
  585SOL    HW2 2316   0.615   1.544   3.887
  586SOL     OW 2317   1.622   1.729   5.113
  586SOL    HW1 2318   1.669   1.734   5.030
  586SOL    HW2 2319   1.612   1.821   5.140
  587SOL     OW 2320   1.839   0.178   4.690
  587SOL    HW1 2321   1.872   0.111   4.630
  587SOL    HW2 2322   1.751   0.197   4.659
  588SOL     OW 2323   0.275   0.322   4.438
  588SOL    HW1 2324   0.189   0.357   4.412
  588SOL    HW2 2325   0.266   0.306   4.532
  589SOL     OW 2326   1.207   1.604   3.756
  589SOL    HW1 2327   1.196   1.512   3.782
  589SOL    HW2 2328   1.141   1.616   3.687
  590SOL     OW 2329   0.823   1.005   5.097
  590SOL    HW1 2330   0.867   1.000   5.012
  590SOL    HW2 2331   0.822   1.099   5.118
  591SOL     OW 2332   0.915   0.910   4.014
  591SOL    HW1 2333   0.977   0.943   3.948
  591SOL    HW2 2334   0.964   0.842   4.060
  592SOL     OW 2335   1.487   1.622   3.764
  592SOL    HW1 2336   1.392   1.617   3.748
  592SOL    HW2 2337   1.525   1.630   3.677
  593SOL     OW 2338   0.374   1.303   5.216
  593SOL    HW1 2339   0.359   1.383   5.165
  593SOL    HW2 2340   0.297   1.248   5.198
  594SOL     OW 2341   1.609   1.283   5.004
  594SOL    HW1 2342   1.670   1.271   5.077
  594SOL    HW2 2343   1.549   1.352   5.034
  595SOL     OW 2344   1.056   1.109   4.432
  595SOL    HW1 2345   0.984   1.058   4.470
  595SOL    HW2 2346   1.119   1.043   4.403
  596SOL     OW 2347   1.014   0.249   4.694
  596SOL    HW1 2348   1.004   0.199   4.613
  596SOL    HW2 2349   1.010   0.184   4.763
  597SOL     OW 2350   0.606   1.488   4.206
  597SOL    HW1 2351   0.652   1.439   4.138
  597SOL    HW2 2352   0.532   1.528   4.160
  598SOL     OW 2353   1.721   0.394   5.096
  598SOL    HW1 2354   1.793   0.456   5.100
  598SOL    HW2 2355   1.754   0.322   5.042
  599SOL     OW 2356   0.254   1.341   4.017
  599SOL    HW1 2357   0.160   1.348   3.998
  599SOL    HW2 2358   0.264   1.380   4.104
  600SOL     OW 2359   0.107   0.999   5.442
  600SOL    HW1 2360   0.048   0.992   5.516
  600SOL    HW2 2361   0.194   0.981   5.478
  601SOL     OW 2362   0.694   0.253   5.225
  601SOL    HW1 2363   0.762   0.199   5.184
  601SOL    HW2 2364   0.723   0.262   5.316
  602SOL     OW 2365   0.088   0.321   3.751
  602SOL    HW1 2366   3.993   0.319   3.743
  602SOL    HW2 2367   0.113   0.404   3.709
  603SOL     OW 2368   1.427   0.857   5.122
  603SOL    HW1 2369   1.378   0.919   5.068
  603SOL    HW2 2370   1.516   0.859   5.087
  604SOL     OW 2371   0.037   0.168   4.008
  604SOL    HW1 2372   0.037   0.232   3.936
  604SOL    HW2 2373   0.113   0.192   4.061
  605SOL     OW 2374   1.178   1.337   3.841
  605SOL    HW1 2375   1.087   1.307   3.843
  605SOL    HW2 2376   1.205   1.338   3.933
  606SOL     OW 2377   0.621   0.829   5.161
  606SOL    HW1 2378   0.677   0.904   5.145
  606SOL    HW2 2379   0.681   0.755   5.169
  607SOL     OW 2380   1.489   1.786   4.708
  607SOL    HW1 2381   1.510   1.851   4.641
  607SOL    HW2 2382   1.572   1.766   4.750
  608SOL     OW 2383   0.717   0.562   5.431
  608SOL    HW1 2384   0.762   0.624   5.489
  608SOL    HW2 2385   0.744   0.476   5.463
  609SOL     OW 2386   1.473   1.197   5.355
  609SOL    HW1 2387   1.461   1.212   5.448
  609SOL    HW2 2388   1.566   1.215   5.339
  610SOL     OW 2389   0.378   1.743   5.281
  610SOL    HW1 2390   0.291   1.781   5.269
  610SOL    HW2 2391   0.363   1.661   5.328
  611SOL     OW 2392   1.667   0.881   4.980
  611SOL    HW1 2393   1.662   0.795   4.937
  611SOL    HW2 2394   1.657   0.944   4.909
  612SOL     OW 2395   1.223   0.336   4.166
  612SOL    HW1 2396   1.291   0.269   4.159
  612SOL    HW2 2397   1.242   0.381   4.249
  613SOL     OW 2398   0.590   0.738   4.395
  613SOL    HW1 2399   0.628   0.824   4.379
  613SOL    HW2 2400   0.523   0.728   4.328
  614SOL     OW 2401   1.751   0.384   5.367
  614SOL    HW1 2402   1.733   0.389   5.273
  614SOL    HW2 2403   1.694   0.313   5.398
  615SOL     OW 2404   1.748   0.934   5.236
  615SOL    HW1 2405   1.739   1.029   5.249
  615SOL    HW2 2406   1.730   0.921   5.143
  616SOL     OW 2407   0.863   1.366   3.762
  616SOL    HW1 2408   0.825   1.394   3.845
  616SOL    HW2 2409   0.880   1.447   3.714
  617SOL     OW 2410   0.663   1.788   4.666
  617SOL    HW1 2411   0.643   1.879   4.644
  617SOL    HW2 2412   0.758   1.782   4.659
  618SOL     OW 2413   0.869   0.968   4.577
  618SOL    HW1 2414   0.919   0.896   4.616
  618SOL    HW2 2415   0.832   1.015   4.652
  619SOL     OW 2416   1.078   0.989   3.813
  619SOL    HW1 2417   1.056   1.040   3.735
  619SOL    HW2 2418   1.152   0.935   3.786
  620SOL     OW 2419   1.844   1.539   4.555
  620SOL    HW1 2420   1.760   1.537   4.509
  620SOL    HW2 2421   1.833   1.480   4.629
  621SOL     OW 2422   0.226   1.303   5.580
  621SOL    HW1 2423   0.154   1.247   5.553
  621SOL    HW2 2424   0.212   1.317   5.674
  622SOL     OW 2425   0.121   1.280   4.445
  622SOL    HW1 2426   0.134   1.229   4.525
  622SOL    HW2 2427   0.106   1.214   4.377
  623SOL     OW 2428   0.681   1.405   5.353
  623SOL    HW1 2429   0.602   1.362   5.384
  623SOL    HW2 2430   0.678   1.493   5.391
  624SOL     OW 2431   1.811   0.183   4.962
  624SOL    HW1 2432   1.814   0.089   4.978
  624SOL    HW2 2433   1.826   0.193   4.868
  625SOL     OW 2434   0.444   0.438   4.255
  625SOL    HW1 2435   0.461   0.362   4.199
  625SOL    HW2 2436   0.389   0.403   4.325
  626SOL     OW 2437   1.701   1.478   4.811
  626SOL    HW1 2438   1.618   1.460   4.767
  626SOL    HW2 2439   1.707   1.411   4.879
  627SOL     OW 2440   0.333   0.557   5.017
  627SOL    HW1 2441   0.389   0.501   5.070
  627SOL    HW2 2442   0.348   0.528   4.927
  628SOL     OW 2443   0.829   1.579   4.400
  628SOL    HW1 2444   0.813   1.640   4.328
  628SOL    HW2 2445   0.753   1.520   4.398
  629SOL     OW 2446   1.461   0.254   4.834
  629SOL    HW1 2447   1.478   0.167   4.870
  629SOL    HW2 2448   1.405   0.296   4.900
  630SOL     OW 2449   1.004   0.028   4.870
  630SOL    HW1 2450   0.923   3.991   4.834
  630SOL    HW2 2451   1.063   3.953   4.879
  631SOL     OW 2452   0.773   1.333   4.042
  631SOL    HW1 2453   0.744   1.242   4.048
  631SOL    HW2 2454   0.855   1.336   4.091
  632SOL     OW 2455   0.620   1.557   5.010
  632SOL    HW1 2456   0.622   1.639   5.059
  632SOL    HW2 2457   0.708   1.549   4.973
  633SOL     OW 2458   1.311   0.074   3.889
  633SOL    HW1 2459   1.324   3.995   3.837
  633SOL    HW2 2460   1.225   0.062   3.930
  634SOL     OW 2461   1.282   0.457   4.409
  634SOL    HW1 2462   1.235   0.540   4.404
  634SOL    HW2 2463   1.285   0.437   4.503
  635SOL     OW 2464   1.588   0.210   4.592
  635SOL    HW1 2465   1.539   0.234   4.670
  635SOL    HW2 2466   1.588   0.289   4.538
  636SOL     OW 2467   0.047   1.049   3.965
  636SOL    HW1 2468   0.141   1.032   3.956
  636SOL    HW2 2469   0.011   0.965   3.994
  637SOL     OW 2470   0.887   1.656   4.064
  637SOL    HW1 2471   0.813   1.639   4.005
  637SOL    HW2 2472   0.858   1.730   4.118
  638SOL     OW 2473   0.233   0.628   5.703
  638SOL    HW1 2474   0.139   0.632   5.725
  638SOL    HW2 2475   0.235   0.598   5.612
  639SOL     OW 2476   0.224   0.289   6.569
  639SOL    HW1 2477   0.246   0.250   6.653
  639SOL    HW2 2478   0.129   0.278   6.562
  640SOL     OW 2479   0.019   0.385   6.222
  640SOL    HW1 2480   3.928   0.399   6.250
  640SOL    HW2 2481   0.025   0.291   6.207
  641SOL     OW 2482   0.581   1.289   6.777
  641SOL    HW1 2483   0.494   1.291   6.736
  641SOL    HW2 2484   0.594   1.378   6.809
  642SOL     OW 2485   1.133   0.698   6.283
  642SOL    HW1 2486   1.180   0.781   6.271
  642SOL    HW2 2487   1.085   0.710   6.365
  643SOL     OW 2488   1.767   0.619   5.811
  643SOL    HW1 2489   1.745   0.612   5.718
  643SOL    HW2 2490   1.751   0.532   5.846
  644SOL     OW 2491   0.753   1.139   6.628
  644SOL    HW1 2492   0.690   1.175   6.690
  644SOL    HW2 2493   0.789   1.216   6.583
  645SOL     OW 2494   0.871   0.770   7.409
  645SOL    HW1 2495   0.862   0.842   7.473
  645SOL    HW2 2496   0.893   0.814   7.327
  646SOL     OW 2497   0.685   1.002   6.232
  646SOL    HW1 2498   0.751   0.991   6.300
  646SOL    HW2 2499   0.616   1.054   6.273
  647SOL     OW 2500   0.711   1.149   7.402
  647SOL    HW1 2501   0.759   1.227   7.431
  647SOL    HW2 2502   0.630   1.183   7.364
  648SOL     OW 2503   0.351   1.401   6.665
  648SOL    HW1 2504   0.270   1.381   6.619
  648SOL    HW2 2505   0.398   1.459   6.605
  649SOL     OW 2506   0.457   0.408   7.081
  649SOL    HW1 2507   0.539   0.358   7.080
  649SOL    HW2 2508   0.388   0.341   7.084
  650SOL     OW 2509   1.612   0.451   6.321
  650SOL    HW1 2510   1.542   0.482   6.264
  650SOL    HW2 2511   1.628   0.524   6.381
  651SOL     OW 2512   0.220   1.719   6.043
  651SOL    HW1 2513   0.240   1.793   6.101
  651SOL    HW2 2514   0.297   1.711   5.987
  652SOL     OW 2515   1.141   1.339   7.280
  652SOL    HW1 2516   1.182   1.335   7.367
  652SOL    HW2 2517   1.088   1.260   7.275
  653SOL     OW 2518   0.250   1.450   6.126
  653SOL    HW1 2519   0.215   1.538   6.111
  653SOL    HW2 2520   0.183   1.406   6.177
  654SOL     OW 2521   0.248   1.066   6.470
  654SOL    HW1 2522   0.267   0.981   6.510
  654SOL    HW2 2523   0.195   1.111   6.536
  655SOL     OW 2524   0.608   1.794   7.010
  655SOL    HW1 2525   0.526   1.774   7.056
  655SOL    HW2 2526   0.631   1.882   7.039
  656SOL     OW 2527   0.577   0.986   5.725
  656SOL    HW1 2528   0.625   1.030   5.655
  656SOL    HW2 2529   0.618   1.016   5.806
  657SOL     OW 2530   1.581   0.140   7.042
  657SOL    HW1 2531   1.611   0.213   6.987
  657SOL    HW2 2532   1.548   0.181   7.122
  658SOL     OW 2533   0.140   0.652   6.155
  658SOL    HW1 2534   0.098   0.566   6.160
  658SOL    HW2 2535   0.102   0.702   6.228
  659SOL     OW 2536   0.044   1.589   5.724
  659SOL    HW1 2537   0.036   1.497   5.750
  659SOL    HW2 2538   3.961   1.629   5.752
  660SOL     OW 2539   1.687   0.917   6.227
  660SOL    HW1 2540   1.771   0.876   6.208
  660SOL    HW2 2541   1.667   0.969   6.150
  661SOL     OW 2542   1.649   1.109   6.019
  661SOL    HW1 2543   1.736   1.112   5.979
  661SOL    HW2 2544   1.654   1.170   6.092
  662SOL     OW 2545   0.141   0.756   7.175
  662SOL    HW1 2546   0.236   0.751   7.170
  662SOL    HW2 2547   0.123   0.844   7.207
  663SOL     OW 2548   0.613   1.387   6.322
  663SOL    HW1 2549   0.567   1.303   6.331
  663SOL    HW2 2550   0.598   1.413   6.231
  664SOL     OW 2551   1.291   1.240   7.006
  664SOL    HW1 2552   1.317   1.170   6.947
  664SOL    HW2 2553   1.341   1.223   7.086
  665SOL     OW 2554   0.820   0.004   6.102
  665SOL    HW1 2555   0.865   0.084   6.078
  665SOL    HW2 2556   0.727   0.027   6.102
  666SOL     OW 2557   0.184   0.950   6.864
  666SOL    HW1 2558   0.272   0.915   6.852
  666SOL    HW2 2559   0.132   0.908   6.796
  667SOL     OW 2560   1.532   0.996   5.787
  667SOL    HW1 2561   1.462   0.939   5.819
  667SOL    HW2 2562   1.574   1.031   5.866
  668SOL     OW 2563   1.170   1.806   7.175
  668SOL    HW1 2564   1.264   1.824   7.185
  668SOL    HW2 2565   1.167   1.713   7.150
  669SOL     OW 2566   0.345   0.251   7.426
  669SOL    HW1 2567   0.387   0.335   7.407
  669SOL    HW2 2568   0.253   0.274   7.443
  670SOL     OW 2569   1.407   1.426   6.491
  670SOL    HW1 2570   1.384   1.442   6.583
  670SOL    HW2 2571   1.422   1.331   6.487
  671SOL     OW 2572   0.596   0.717   5.852
  671SOL    HW1 2573   0.601   0.801   5.807
  671SOL    HW2 2574   0.533   0.731   5.923
  672SOL     OW 2575   1.275   0.369   6.526
  672SOL    HW1 2576   1.187   0.330   6.534
  672SOL    HW2 2577   1.332   0.307   6.572
  673SOL     OW 2578   0.794   0.616   7.039
  673SOL    HW1 2579   0.765   0.590   7.127
  673SOL    HW2 2580   0.756   0.550   6.981
  674SOL     OW 2581   1.392   0.476   7.263
  674SOL    HW1 2582   1.398   0.521   7.347
  674SOL    HW2 2583   1.450   0.400   7.273
  675SOL     OW 2584   0.952   0.887   7.170
  675SOL    HW1 2585   1.007   0.818   7.134
  675SOL    HW2 2586   0.903   0.922   7.096
  676SOL     OW 2587   0.992   0.402   6.824
  676SOL    HW1 2588   0.907   0.424   6.863
  676SOL    HW2 2589   0.971   0.374   6.735
  677SOL     OW 2590   1.052   0.699   6.011
  677SOL    HW1 2591   1.069   0.692   6.105
  677SOL    HW2 2592   0.970   0.653   5.998
  678SOL     OW 2593   0.081   0.829   6.376
  678SOL    HW1 2594   0.154   0.795   6.429
  678SOL    HW2 2595   0.102   0.921   6.363
  679SOL     OW 2596   0.130   1.863   7.163
  679SOL    HW1 2597   0.138   1.828   7.251
  679SOL    HW2 2598   0.038   1.851   7.140
  680SOL     OW 2599   0.894   0.352   5.784
  680SOL    HW1 2600   0.936   0.412   5.722
  680SOL    HW2 2601   0.892   0.268   5.739
  681SOL     OW 2602   1.709   0.572   7.415
  681SOL    HW1 2603   1.670   0.646   7.368
  681SOL    HW2 2604   1.734   0.510   7.346
  682SOL     OW 2605   1.378   1.141   6.126
  682SOL    HW1 2606   1.458   1.131   6.073
  682SOL    HW2 2607   1.325   1.204   6.077
  683SOL     OW 2608   0.562   0.195   6.466
  683SOL    HW1 2609   0.566   0.219   6.559
  683SOL    HW2 2610   0.547   0.278   6.421
  684SOL     OW 2611   0.996   1.438   6.055
  684SOL    HW1 2612   0.966   1.515   6.006
  684SOL    HW2 2613   0.985   1.462   6.147
  685SOL     OW 2614   0.365   1.819   6.456
  685SOL    HW1 2615   0.428   1.748   6.465
  685SOL    HW2 2616   0.415   1.898   6.472
  686SOL     OW 2617   1.805   1.047   6.453
  686SOL    HW1 2618   1.749   1.037   6.377
  686SOL    HW2 2619   1.744   1.052   6.527
  687SOL     OW 2620   1.209   1.542   7.092
  687SOL    HW1 2621   1.217   1.469   7.153
  687SOL    HW2 2622   1.154   1.509   7.022
  688SOL     OW 2623   0.310   0.954   5.828
  688SOL    HW1 2624   0.394   0.976   5.787
  688SOL    HW2 2625   0.298   0.861   5.808
  689SOL     OW 2626   1.479   0.747   6.315
  689SOL    HW1 2627   1.474   0.706   6.401
  689SOL    HW2 2628   1.557   0.803   6.321
  690SOL     OW 2629   0.468   1.261   7.323
  690SOL    HW1 2630   0.442   1.269   7.231
  690SOL    HW2 2631   0.385   1.264   7.372
  691SOL     OW 2632   1.122   1.784   5.819
  691SOL    HW1 2633   1.051   1.739   5.864
  691SOL    HW2 2634   1.150   1.723   5.751
  692SOL     OW 2635   0.201   0.294   7.086
  692SOL    HW1 2636   0.107   0.314   7.085
  692SOL    HW2 2637   0.209   0.222   7.149
  693SOL     OW 2638   1.627   1.386   5.685
  693SOL    HW1 2639   1.585   1.470   5.666
  693SOL    HW2 2640   1.562   1.321   5.660
  694SOL     OW 2641   0.465   1.739   5.901
  694SOL    HW1 2642   0.508   1.796   5.965
  694SOL    HW2 2643   0.537   1.703   5.849
  695SOL     OW 2644   1.441   0.166   5.991
  695SOL    HW1 2645   1.394   0.099   5.942
  695SOL    HW2 2646   1.511   0.118   6.036
  696SOL     OW 2647   0.252   1.790   6.817
  696SOL    HW1 2648   0.298   1.726   6.870
  696SOL    HW2 2649   0.249   1.752   6.730
  697SOL     OW 2650   0.949   1.694   6.484
  697SOL    HW1 2651   1.032   1.646   6.486
  697SOL    HW2 2652   0.897   1.647   6.418
  698SOL     OW 2653   0.397   0.694   6.057
  698SOL    HW1 2654   0.423   0.603   6.072
  698SOL    HW2 2655   0.305   0.698   6.082
  699SOL     OW 2656   1.530   0.229   7.313
  699SOL    HW1 2657   1.526   0.254   7.405
  699SOL    HW2 2658   1.511   0.135   7.313
  700SOL     OW 2659   0.645   0.130   5.689
  700SOL    HW1 2660   0.668   0.046   5.729
  700SOL    HW2 2661   0.584   0.107   5.619
  701SOL     OW 2662   0.777   0.283   7.353
  701SOL    HW1 2663   0.850   0.222   7.356
  701SOL    HW2 2664   0.720   0.255   7.425
  702SOL     OW 2665   0.878   1.527   6.779
  702SOL    HW1 2666   0.861   1.489   6.693
  702SOL    HW2 2667   0.945   1.471   6.817
  703SOL     OW 2668   1.339   0.586   7.016
  703SOL    HW1 2669   1.370   0.558   7.103
  703SOL    HW2 2670   1.374   0.674   7.005
  704SOL     OW 2671   0.814   1.394   6.529
  704SOL    HW1 2672   0.900   1.381   6.488
  704SOL    HW2 2673   0.753   1.396   6.456
  705SOL     OW 2674   0.930   0.512   6.486
  705SOL    HW1 2675   0.906   0.504   6.394
  705SOL    HW2 2676   0.956   0.423   6.512
  706SOL     OW 2677   0.546   0.056   6.073
  706SOL    HW1 2678   0.473   0.063   6.134
  706SOL    HW2 2679   0.548   0.140   6.028
  707SOL     OW 2680   1.430   1.201   5.627
  707SOL    HW1 2681   1.458   1.125   5.678
  707SOL    HW2 2682   1.344   1.223   5.663
  708SOL     OW 2683   0.346   0.037   5.784
  708SOL    HW1 2684   0.360   0.086   5.703
  708SOL    HW2 2685   0.431   0.037   5.828
  709SOL     OW 2686   0.942   0.249   6.047
  709SOL    HW1 2687   0.916   0.290   5.964
  709SOL    HW2 2688   1.038   0.254   6.046
  710SOL     OW 2689   1.079   0.684   7.044
  710SOL    HW1 2690   1.010   0.618   7.051
  710SOL    HW2 2691   1.160   0.632   7.039
  711SOL     OW 2692   1.207   1.581   6.391
  711SOL    HW1 2693   1.239   1.637   6.321
  711SOL    HW2 2694   1.285   1.536   6.424
  712SOL     OW 2695   0.466   1.151   6.321
  712SOL    HW1 2696   0.395   1.126   6.380
  712SOL    HW2 2697   0.432   1.135   6.234
  713SOL     OW 2698   1.251   1.789   6.195
  713SOL    HW1 2699   1.317   1.854   6.174
  713SOL    HW2 2700   1.182   1.838   6.241
  714SOL     OW 2701   1.022   0.543   5.615
  714SOL    HW1 2702   0.979   0.626   5.595
  714SOL    HW2 2703   1.086   0.564   5.683
  715SOL     OW 2704   0.080   0.573   6.979
  715SOL    HW1 2705   0.170   0.555   6.949
  715SOL    HW2 2706   0.090   0.645   7.042
  716SOL     OW 2707   0.572   0.231   6.745
  716SOL    HW1 2708   0.594   0.138   6.754
  716SOL    HW2 2709   0.481   0.237   6.775
  717SOL     OW 2710   0.871   0.461   6.224
  717SOL    HW1 2711   0.820   0.514   6.163
  717SOL    HW2 2712   0.891   0.381   6.177
  718SOL     OW 2713   0.997   0.039   6.367
  718SOL    HW1 2714   0.959   0.069   6.283
  718SOL    HW2 2715   1.008   3.945   6.356
  719SOL     OW 2716   1.439   1.150   6.443
  719SOL    HW1 2717   1.364   1.092   6.434
  719SOL    HW2 2718   1.466   1.169   6.353
  720SOL     OW 2719   1.465   0.607   6.560
  720SOL    HW1 2720   1.410   0.529   6.565
  720SOL    HW2 2721   1.524   0.600   6.635
  721SOL     OW 2722   1.844   0.819   5.973
  721SOL    HW1 2723   1.901   0.766   6.030
  721SOL    HW2 2724   1.814   0.758   5.905
  722SOL     OW 2725   0.487   1.421   5.746
  722SOL    HW1 2726   0.412   1.390   5.795
  722SOL    HW2 2727   0.473   1.388   5.657
  723SOL     OW 2728   1.672   1.272   6.235
  723SOL    HW1 2729   1.767   1.269   6.243
  723SOL    HW2 2730   1.649   1.363   6.252
  724SOL     OW 2731   1.395   0.576   5.655
  724SOL    HW1 2732   1.332   0.556   5.724
  724SOL    HW2 2733   1.480   0.556   5.694
  725SOL     OW 2734   0.557   0.271   5.904
  725SOL    HW1 2735   0.605   0.231   5.831
  725SOL    HW2 2736   0.528   0.355   5.871
  726SOL     OW 2737   1.758   1.194   7.162
  726SOL    HW1 2738   1.844   1.173   7.125
  726SOL    HW2 2739   1.771   1.276   7.209
  727SOL     OW 2740   1.057   1.355   6.921
  727SOL    HW1 2741   0.981   1.324   6.970
  727SOL    HW2 2742   1.132   1.312   6.961
  728SOL     OW 2743   1.129   1.205   6.692
  728SOL    HW1 2744   1.068   1.243   6.755
  728SOL    HW2 2745   1.099   1.237   6.607
  729SOL     OW 2746   1.604   1.057   6.647
  729SOL    HW1 2747   1.593   1.125   6.714
  729SOL    HW2 2748   1.537   1.077   6.582
  730SOL     OW 2749   0.913   0.115   6.987
  730SOL    HW1 2750   0.932   0.089   6.897
  730SOL    HW2 2751   0.993   0.157   7.018
  731SOL     OW 2752   0.984   1.116   7.309
  731SOL    HW1 2753   0.893   1.132   7.332
  731SOL    HW2 2754   0.982   1.037   7.254
  732SOL     OW 2755   0.708   1.062   5.957
  732SOL    HW1 2756   0.694   1.045   6.050
  732SOL    HW2 2757   0.784   1.008   5.933
  733SOL     OW 2758   0.422   0.817   6.838
  733SOL    HW1 2759   0.491   0.823   6.905
  733SOL    HW2 2760   0.388   0.728   6.848
  734SOL     OW 2761   1.266   0.374   6.862
  734SOL    HW1 2762   1.299   0.452   6.907
  734SOL    HW2 2763   1.178   0.400   6.833
  735SOL     OW 2764   0.065   1.580   6.932
  735SOL    HW1 2765   0.071   1.637   6.856
  735SOL    HW2 2766   0.156   1.567   6.959
  736SOL     OW 2767   0.371   1.103   6.068
  736SOL    HW1 2768   0.365   1.182   6.014
  736SOL    HW2 2769   0.370   1.031   6.006
  737SOL     OW 2770   0.554   0.534   6.444
  737SOL    HW1 2771   0.568   0.593   6.369
  737SOL    HW2 2772   0.620   0.561   6.508
  738SOL     OW 2773   1.240   1.339   5.973
  738SOL    HW1 2774   1.287   1.421   5.990
  738SOL    HW2 2775   1.152   1.355   6.008
  739SOL     OW 2776   1.297   1.438   6.741
  739SOL    HW1 2777   1.316   1.456   6.833
  739SOL    HW2 2778   1.235   1.365   6.743
  740SOL     OW 2779   1.575   0.634   6.073
  740SOL    HW1 2780   1.532   0.689   6.139
  740SOL    HW2 2781   1.621   0.695   6.016
  741SOL     OW 2782   0.345   1.527   6.904
  741SOL    HW1 2783   0.336   1.476   6.824
  741SOL    HW2 2784   0.440   1.542   6.912
  742SOL     OW 2785   0.417   0.737   7.186
  742SOL    HW1 2786   0.480   0.783   7.130
  742SOL    HW2 2787   0.455   0.651   7.200
  743SOL     OW 2788   1.600   0.775   7.276
  743SOL    HW1 2789   1.513   0.813   7.267
  743SOL    HW2 2790   1.652   0.817   7.207
  744SOL     OW 2791   1.012   0.133   7.365
  744SOL    HW1 2792   1.064   0.205   7.329
  744SOL    HW2 2793   1.000   0.073   7.291
  745SOL     OW 2794   0.483   0.037   7.351
  745SOL    HW1 2795   0.490   0.047   7.256
  745SOL    HW2 2796   0.421   0.105   7.377
  746SOL     OW 2797   0.585   0.875   6.617
  746SOL    HW1 2798   0.617   0.965   6.620
  746SOL    HW2 2799   0.529   0.867   6.695
  747SOL     OW 2800   1.348   0.857   6.614
  747SOL    HW1 2801   1.264   0.843   6.571
  747SOL    HW2 2802   1.394   0.773   6.606
  748SOL     OW 2803   1.200   0.537   5.844
  748SOL    HW1 2804   1.209   0.458   5.897
  748SOL    HW2 2805   1.157   0.600   5.902
  749SOL     OW 2806   0.311   0.212   6.826
  749SOL    HW1 2807   0.268   0.248   6.904
  749SOL    HW2 2808   0.296   0.118   6.832
  750SOL     OW 2809   0.061   1.306   6.866
  750SOL    HW1 2810   0.091   1.264   6.947
  750SOL    HW2 2811   0.052   1.398   6.889
  751SOL     OW 2812   0.724   0.633   6.639
  751SOL    HW1 2813   0.799   0.619   6.581
  751SOL    HW2 2814   0.695   0.722   6.618
  752SOL     OW 2815   1.734   0.959   7.444
  752SOL    HW1 2816   1.691   0.897   7.386
  752SOL    HW2 2817   1.672   0.973   7.516
  753SOL     OW 2818   0.330   0.055   6.240
  753SOL    HW1 2819   0.301   0.146   6.241
  753SOL    HW2 2820   0.293   0.017   6.320
  754SOL     OW 2821   1.607   0.392   5.967
  754SOL    HW1 2822   1.567   0.324   6.020
  754SOL    HW2 2823   1.587   0.473   6.012
  755SOL     OW 2824   1.030   0.759   6.545
  755SOL    HW1 2825   1.023   0.776   6.639
  755SOL    HW2 2826   1.003   0.668   6.535
  756SOL     OW 2827   0.980   1.561   7.302
  756SOL    HW1 2828   0.960   1.602   7.217
  756SOL    HW2 2829   1.029   1.482   7.279
  757SOL     OW 2830   0.353   0.922   7.385
  757SOL    HW1 2831   0.431   0.942   7.436
  757SOL    HW2 2832   0.382   0.854   7.323
  758SOL     OW 2833   1.505   0.275   5.721
  758SOL    HW1 2834   1.431   0.215   5.733
  758SOL    HW2 2835   1.518   0.314   5.807
  759SOL     OW 2836   1.289   0.827   5.615
  759SOL    HW1 2837   1.331   0.741   5.618
  759SOL    HW2 2838   1.321   0.866   5.533
  760SOL     OW 2839   1.063   1.333   6.444
  760SOL    HW1 2840   1.069   1.262   6.380
  760SOL    HW2 2841   1.124   1.400   6.411
  761SOL     OW 2842   0.313   0.803   6.536
  761SOL    HW1 2843   0.407   0.819   6.530
  761SOL    HW2 2844   0.306   0.713   6.568
  762SOL     OW 2845   0.338   0.528   6.601
  762SOL    HW1 2846   0.297   0.444   6.583
  762SOL    HW2 2847   0.413   0.532   6.542
  763SOL     OW 2848   1.133   0.380   7.283
  763SOL    HW1 2849   1.085   0.435   7.345
  763SOL    HW2 2850   1.220   0.420   7.278
  764SOL     OW 2851   1.151   0.226   7.067
  764SOL    HW1 2852   1.142   0.280   7.146
  764SOL    HW2 2853   1.176   0.287   6.999
  765SOL     OW 2854   0.000   1.317   5.768
  765SOL    HW1 2855   3.906   1.333   5.772
  765SOL    HW2 2856   0.009   1.223   5.787
  766SOL     OW 2857   0.077   1.800   6.474
  766SOL    HW1 2858   0.082   1.704   6.479
  766SOL    HW2 2859   0.168   1.829   6.479
  767SOL     OW 2860   0.501   1.572   6.496
  767SOL    HW1 2861   0.571   1.632   6.522
  767SOL    HW2 2862   0.544   1.508   6.439
  768SOL     OW 2863   0.978   0.789   6.810
  768SOL    HW1 2864   1.035   0.769   6.885
  768SOL    HW2 2865   0.893   0.751   6.833
  769SOL     OW 2866   0.035   0.573   6.698
  769SOL    HW1 2867   0.097   0.522   6.648
  769SOL    HW2 2868   0.061   0.560   6.789
  770SOL     OW 2869   0.211   0.516   7.308
  770SOL    HW1 2870   0.258   0.477   7.234
  770SOL    HW2 2871   0.164   0.591   7.270
  771SOL     OW 2872   1.365   0.912   7.239
  771SOL    HW1 2873   1.390   1.005   7.239
  771SOL    HW2 2874   1.366   0.887   7.147
  772SOL     OW 2875   0.818   0.572   5.948
  772SOL    HW1 2876   0.824   0.496   5.890
  772SOL    HW2 2877   0.743   0.621   5.915
  773SOL     OW 2878   1.640   0.600   6.770
  773SOL    HW1 2879   1.631   0.539   6.843
  773SOL    HW2 2880   1.727   0.583   6.734
  774SOL     OW 2881   0.300   1.544   7.311
  774SOL    HW1 2882   0.252   1.613   7.356
  774SOL    HW2 2883   0.269   1.463   7.352
  775SOL     OW 2884   0.710   0.454   6.842
  775SOL    HW1 2885   0.659   0.376   6.817
  775SOL    HW2 2886   0.700   0.513   6.768
  776SOL     OW 2887   0.913   1.674   7.058
  776SOL    HW1 2888   0.891   1.644   6.970
  776SOL    HW2 2889   0.924   1.769   7.049
  777SOL     OW 2890   0.454   0.492   5.783
  777SOL    HW1 2891   0.518   0.561   5.800
  777SOL    HW2 2892   0.374   0.539   5.759
  778SOL     OW 2893   0.155   1.135   7.060
  778SOL    HW1 2894   0.157   1.084   7.142
  778SOL    HW2 2895   0.170   1.070   6.992
  779SOL     OW 2896   1.327   1.048   6.806
  779SOL    HW1 2897   1.347   0.983   6.740
  779SOL    HW2 2898   1.256   1.100   6.768
  780SOL     OW 2899   1.315   0.856   5.891
  780SOL    HW1 2900   1.240   0.828   5.943
  780SOL    HW2 2901   1.287   0.844   5.800
  781SOL     OW 2902   0.078   1.217   6.613
  781SOL    HW1 2903   0.084   1.243   6.705
  781SOL    HW2 2904   3.985   1.226   6.592
  782SOL     OW 2905   0.680   1.668   7.319
  782SOL    HW1 2906   0.622   1.743   7.311
  782SOL    HW2 2907   0.746   1.680   7.250
  783SOL     OW 2908   1.714   0.124   6.074
  783SOL    HW1 2909   1.792   0.134   6.020
  783SOL    HW2 2910   1.705   0.030   6.086
  784SOL     OW 2911   1.347   1.580   6.035
  784SOL    HW1 2912   1.441   1.599   6.046
  784SOL    HW2 2913   1.303   1.649   6.085
  785SOL     OW 2914   0.176   1.763   7.416
  785SOL    HW1 2915   0.118   1.713   7.474
  785SOL    HW2 2916   0.216   1.828   7.473
  786SOL     OW 2917   1.277   0.928   6.257
  786SOL    HW1 2918   1.351   0.868   6.268
  786SOL    HW2 2919   1.312   0.999   6.204
  787SOL     OW 2920   0.810   1.274   7.013
  787SOL    HW1 2921   0.783   1.315   7.095
  787SOL    HW2 2922   0.738   1.290   6.952
  788SOL     OW 2923   0.670   1.623   5.741
  788SOL    HW1 2924   0.682   1.635   5.647
  788SOL    HW2 2925   0.615   1.545   5.749
  789SOL     OW 2926   1.839   0.178   6.552
  789SOL    HW1 2927   1.872   0.111   6.492
  789SOL    HW2 2928   1.751   0.197   6.521
  790SOL     OW 2929   0.275   0.322   6.300
  790SOL    HW1 2930   0.189   0.357   6.274
  790SOL    HW2 2931   0.266   0.306   6.394
  791SOL     OW 2932   1.206   1.607   5.621
  791SOL    HW1 2933   1.198   1.516   5.647
  791SOL    HW2 2934   1.140   1.618   5.552
  792SOL     OW 2935   0.823   1.005   6.959
  792SOL    HW1 2936   0.867   1.000   6.874
  792SOL    HW2 2937   0.822   1.099   6.980
  793SOL     OW 2938   0.915   0.910   5.876
  793SOL    HW1 2939   0.976   0.943   5.810
  793SOL    HW2 2940   0.964   0.842   5.922
  794SOL     OW 2941   1.490   1.622   5.623
  794SOL    HW1 2942   1.395   1.619   5.612
  794SOL    HW2 2943   1.524   1.630   5.534
  795SOL     OW 2944   0.374   1.302   7.077
  795SOL    HW1 2945   0.358   1.383   7.028
  795SOL    HW2 2946   0.297   1.248   7.060
  796SOL     OW 2947   1.056   1.108   6.293
  796SOL    HW1 2948   0.984   1.057   6.332
  796SOL    HW2 2949   1.119   1.042   6.265
  797SOL     OW 2950   1.015   0.249   6.556
  797SOL    HW1 2951   1.005   0.199   6.475
  797SOL    HW2 2952   1.010   0.184   6.625
  798SOL     OW 2953   0.606   1.489   6.067
  798SOL    HW1 2954   0.652   1.439   6.000
  798SOL    HW2 2955   0.531   1.526   6.022
  799SOL     OW 2956   1.720   0.393   6.958
  799SOL    HW1 2957   1.793   0.456   6.962
  799SOL    HW2 2958   1.754   0.322   6.904
  800SOL     OW 2959   0.254   1.341   5.879
  800SOL    HW1 2960   0.160   1.348   5.860
  800SOL    HW2 2961   0.263   1.380   5.966
  801SOL     OW 2962   0.107   0.999   7.304
  801SOL    HW1 2963   0.048   0.992   7.378
  801SOL    HW2 2964   0.194   0.980   7.341
  802SOL     OW 2965   0.694   0.253   7.087
  802SOL    HW1 2966   0.762   0.199   7.046
  802SOL    HW2 2967   0.723   0.262   7.178
  803SOL     OW 2968   0.088   0.321   5.613
  803SOL    HW1 2969   3.993   0.319   5.605
  803SOL    HW2 2970   0.113   0.404   5.571
  804SOL     OW 2971   1.426   0.851   6.980
  804SOL    HW1 2972   1.381   0.917   6.926
  804SOL    HW2 2973   1.517   0.856   6.951
  805SOL     OW 2974   0.037   0.168   5.870
  805SOL    HW1 2975   0.037   0.232   5.799
  805SOL    HW2 2976   0.113   0.192   5.923
  806SOL     OW 2977   1.178   1.337   5.701
  806SOL    HW1 2978   1.087   1.307   5.702
  806SOL    HW2 2979   1.205   1.336   5.793
  807SOL     OW 2980   0.621   0.829   7.023
  807SOL    HW1 2981   0.677   0.904   7.007
  807SOL    HW2 2982   0.681   0.755   7.031
  808SOL     OW 2983   0.717   0.562   7.293
  808SOL    HW1 2984   0.761   0.624   7.350
  808SOL    HW2 2985   0.744   0.476   7.325
  809SOL     OW 2986   1.465   1.161   7.217
  809SOL    HW1 2987   1.453   1.183   7.309
  809SOL    HW2 2988   1.559   1.169   7.202
  810SOL     OW 2989   0.378   1.742   7.143
  810SOL    HW1 2990   0.291   1.780   7.131
  810SOL    HW2 2991   0.362   1.661   7.190
  811SOL     OW 2992   1.669   0.872   6.839
  811SOL    HW1 2993   1.663   0.783   6.805
  811SOL    HW2 2994   1.652   0.928   6.763
  812SOL     OW 2995   1.223   0.336   6.028
  812SOL    HW1 2996   1.291   0.269   6.021
  812SOL    HW2 2997   1.242   0.381   6.111
  813SOL     OW 2998   0.590   0.738   6.257
  813SOL    HW1 2999   0.628   0.824   6.241
  813SOL    HW2 3000   0.523   0.728   6.190
  814SOL     OW 3001   1.752   0.382   7.228
  814SOL    HW1 3002   1.733   0.388   7.134
  814SOL    HW2 3003   1.694   0.313   7.260
  815SOL     OW 3004   1.735   0.922   7.100
  815SOL    HW1 3005   1.743   1.015   7.120
  815SOL    HW2 3006   1.728   0.918   7.005
  816SOL     OW 3007   0.862   1.366   5.623
  816SOL    HW1 3008   0.825   1.393   5.707
  816SOL    HW2 3009   0.880   1.447   5.576
  817SOL     OW 3010   0.664   1.789   6.528
  817SOL    HW1 3011   0.640   1.879   6.507
  817SOL    HW2 3012   0.759   1.786   6.519
  818SOL     OW 3013   0.869   0.968   6.439
  818SOL    HW1 3014   0.919   0.896   6.478
  818SOL    HW2 3015   0.832   1.015   6.514
  819SOL     OW 3016   1.077   0.988   5.675
  819SOL    HW1 3017   1.056   1.040   5.597
  819SOL    HW2 3018   1.152   0.934   5.648
  820SOL     OW 3019   0.226   1.303   7.442
  820SOL    HW1 3020   0.153   1.248   7.415
  820SOL    HW2 3021   0.213   1.317   7.536
  821SOL     OW 3022   0.121   1.280   6.307
  821SOL    HW1 3023   0.134   1.229   6.387
  821SOL    HW2 3024   0.106   1.214   6.239
  822SOL     OW 3025   0.681   1.405   7.214
  822SOL    HW1 3026   0.601   1.362   7.246
  822SOL    HW2 3027   0.678   1.492   7.253
  823SOL     OW 3028   1.812   0.183   6.824
  823SOL    HW1 3029   1.814   0.089   6.840
  823SOL    HW2 3030   1.827   0.193   6.730
  824SOL     OW 3031   0.444   0.438   6.117
  824SOL    HW1 3032   0.461   0.362   6.061
  824SOL    HW2 3033   0.389   0.404   6.188
  825SOL     OW 3034   0.333   0.557   6.879
  825SOL    HW1 3035   0.389   0.501   6.932
  825SOL    HW2 3036   0.348   0.528   6.789
  826SOL     OW 3037   0.826   1.582   6.266
  826SOL    HW1 3038   0.812   1.638   6.189
  826SOL    HW2 3039   0.752   1.521   6.264
  827SOL     OW 3040   1.461   0.254   6.696
  827SOL    HW1 3041   1.478   0.167   6.733
  827SOL    HW2 3042   1.405   0.297   6.761
  828SOL     OW 3043   1.004   0.028   6.732
  828SOL    HW1 3044   0.923   3.991   6.696
  828SOL    HW2 3045   1.063   3.953   6.741
  829SOL     OW 3046   0.772   1.333   5.903
  829SOL    HW1 3047   0.745   1.242   5.910
  829SOL    HW2 3048   0.853   1.338   5.954
  830SOL     OW 3049   0.621   1.556   6.871
  830SOL    HW1 3050   0.622   1.638   6.921
  830SOL    HW2 3051   0.709   1.550   6.834
  831SOL     OW 3052   1.311   0.074   5.751
  831SOL    HW1 3053   1.323   3.995   5.698
  831SOL    HW2 3054   1.225   0.062   5.793
  832SOL     OW 3055   1.282   0.457   6.271
  832SOL    HW1 3056   1.235   0.540   6.266
  832SOL    HW2 3057   1.285   0.437   6.365
  833SOL     OW 3058   1.588   0.210   6.454
  833SOL    HW1 3059   1.539   0.234   6.532
  833SOL    HW2 3060   1.588   0.289   6.400
  834SOL     OW 3061   0.047   1.049   5.827
  834SOL    HW1 3062   0.141   1.032   5.818
  834SOL    HW2 3063   0.011   0.965   5.857
  835SOL     OW 3064   0.887   1.656   5.927
  835SOL    HW1 3065   0.814   1.639   5.868
  835SOL    HW2 3066   0.857   1.729   5.982
  836SOL     OW 3067   0.232   0.628   7.565
  836SOL    HW1 3068   0.139   0.632   7.587
  836SOL    HW2 3069   0.235   0.598   7.474
  837SOL     OW 3070   0.224   0.289   8.431
  837SOL    HW1 3071   0.246   0.250   8.515
  837SOL    HW2 3072   0.129   0.278   8.424
  838SOL     OW 3073   0.019   0.385   8.084
  838SOL    HW1 3074   3.928   0.398   8.112
  838SOL    HW2 3075   0.025   0.291   8.069
  839SOL     OW 3076   0.581   1.289   8.639
  839SOL    HW1 3077   0.494   1.291   8.598
  839SOL    HW2 3078   0.594   1.378   8.671
  840SOL     OW 3079   1.575   1.511   8.157
  840SOL    HW1 3080   1.525   1.496   8.237
  840SOL    HW2 3081   1.509   1.528   8.090
  841SOL     OW 3082   1.133   0.698   8.145
  841SOL    HW1 3083   1.180   0.780   8.133
  841SOL    HW2 3084   1.085   0.710   8.227
  842SOL     OW 3085   1.767   0.615   7.671
  842SOL    HW1 3086   1.745   0.609   7.578
  842SOL    HW2 3087   1.752   0.526   7.705
  843SOL     OW 3088   0.754   1.139   8.490
  843SOL    HW1 3089   0.690   1.175   8.552
  843SOL    HW2 3090   0.789   1.216   8.445
  844SOL     OW 3091   0.871   0.770   9.272
  844SOL    HW1 3092   0.860   0.842   9.334
  844SOL    HW2 3093   0.893   0.814   9.189
  845SOL     OW 3094   0.685   1.002   8.094
  845SOL    HW1 3095   0.751   0.991   8.162
  845SOL    HW2 3096   0.616   1.054   8.135
  846SOL     OW 3097   0.712   1.149   9.264
  846SOL    HW1 3098   0.759   1.227   9.293
  846SOL    HW2 3099   0.630   1.183   9.227
  847SOL     OW 3100   0.351   1.401   8.527
  847SOL    HW1 3101   0.270   1.381   8.480
  847SOL    HW2 3102   0.399   1.459   8.467
  848SOL     OW 3103   1.461   1.501   8.805
  848SOL    HW1 3104   1.514   1.580   8.814
  848SOL    HW2 3105   1.395   1.508   8.875
  849SOL     OW 3106   0.457   0.408   8.944
  849SOL    HW1 3107   0.539   0.358   8.942
  849SOL    HW2 3108   0.388   0.342   8.947
  850SOL     OW 3109   1.612   0.451   8.183
  850SOL    HW1 3110   1.542   0.482   8.125
  850SOL    HW2 3111   1.629   0.524   8.242
  851SOL     OW 3112   0.221   1.718   7.906
  851SOL    HW1 3113   0.240   1.793   7.963
  851SOL    HW2 3114   0.298   1.710   7.849
  852SOL     OW 3115   1.137   1.342   9.142
  852SOL    HW1 3116   1.178   1.336   9.228
  852SOL    HW2 3117   1.085   1.262   9.134
  853SOL     OW 3118   0.249   1.450   7.988
  853SOL    HW1 3119   0.215   1.538   7.973
  853SOL    HW2 3120   0.181   1.407   8.039
  854SOL     OW 3121   0.247   1.066   8.332
  854SOL    HW1 3122   0.267   0.981   8.371
  854SOL    HW2 3123   0.194   1.111   8.398
  855SOL     OW 3124   0.611   1.792   8.875
  855SOL    HW1 3125   0.528   1.774   8.920
  855SOL    HW2 3126   0.633   1.882   8.901
  856SOL     OW 3127   0.577   0.986   7.587
  856SOL    HW1 3128   0.625   1.030   7.517
  856SOL    HW2 3129   0.618   1.016   7.667
  857SOL     OW 3130   1.581   0.140   8.904
  857SOL    HW1 3131   1.611   0.213   8.849
  857SOL    HW2 3132   1.548   0.182   8.984
  858SOL     OW 3133   0.140   0.651   8.018
  858SOL    HW1 3134   0.098   0.566   8.022
  858SOL    HW2 3135   0.102   0.701   8.090
  859SOL     OW 3136   0.044   1.589   7.586
  859SOL    HW1 3137   0.036   1.497   7.612
  859SOL    HW2 3138   3.961   1.629   7.613
  860SOL     OW 3139   1.688   0.918   8.091
  860SOL    HW1 3140   1.769   0.874   8.066
  860SOL    HW2 3141   1.665   0.970   8.014
  861SOL     OW 3142   1.649   1.105   7.878
  861SOL    HW1 3143   1.738   1.100   7.843
  861SOL    HW2 3144   1.655   1.168   7.949
  862SOL     OW 3145   0.141   0.756   9.037
  862SOL    HW1 3146   0.236   0.751   9.032
  862SOL    HW2 3147   0.123   0.844   9.069
  863SOL     OW 3148   0.612   1.387   8.185
  863SOL    HW1 3149   0.567   1.303   8.193
  863SOL    HW2 3150   0.597   1.413   8.094
  864SOL     OW 3151   1.287   1.237   8.870
  864SOL    HW1 3152   1.318   1.170   8.810
  864SOL    HW2 3153   1.346   1.232   8.946
  865SOL     OW 3154   0.820   0.004   7.964
  865SOL    HW1 3155   0.865   0.084   7.940
  865SOL    HW2 3156   0.727   0.027   7.964
  866SOL     OW 3157   0.184   0.950   8.726
  866SOL    HW1 3158   0.272   0.915   8.714
  866SOL    HW2 3159   0.132   0.909   8.658
  867SOL     OW 3160   1.532   0.998   7.650
  867SOL    HW1 3161   1.461   0.941   7.681
  867SOL    HW2 3162   1.574   1.030   7.729
  868SOL     OW 3163   1.185   1.809   9.072
  868SOL    HW1 3164   1.193   1.869   8.998
  868SOL    HW2 3165   1.202   1.722   9.035
  869SOL     OW 3166   0.345   0.251   9.288
  869SOL    HW1 3167   0.387   0.335   9.268
  869SOL    HW2 3168   0.253   0.274   9.305
  870SOL     OW 3169   1.465   1.421   8.397
  870SOL    HW1 3170   1.398   1.435   8.464
  870SOL    HW2 3171   1.452   1.329   8.370
  871SOL     OW 3172   0.596   0.717   7.714
  871SOL    HW1 3173   0.601   0.801   7.669
  871SOL    HW2 3174   0.533   0.732   7.785
  872SOL     OW 3175   1.275   0.369   8.389
  872SOL    HW1 3176   1.187   0.330   8.396
  872SOL    HW2 3177   1.332   0.307   8.434
  873SOL     OW 3178   0.794   0.616   8.901
  873SOL    HW1 3179   0.765   0.590   8.989
  873SOL    HW2 3180   0.756   0.550   8.843
  874SOL     OW 3181   1.392   0.476   9.125
  874SOL    HW1 3182   1.398   0.521   9.209
  874SOL    HW2 3183   1.450   0.400   9.134
  875SOL     OW 3184   0.952   0.887   9.032
  875SOL    HW1 3185   1.007   0.818   8.995
  875SOL    HW2 3186   0.904   0.922   8.957
  876SOL     OW 3187   0.992   0.403   8.686
  876SOL    HW1 3188   0.907   0.423   8.725
  876SOL    HW2 3189   0.972   0.374   8.597
  877SOL     OW 3190   1.052   0.699   7.873
  877SOL    HW1 3191   1.069   0.692   7.967
  877SOL    HW2 3192   0.970   0.653   7.860
  878SOL     OW 3193   0.081   0.829   8.238
  878SOL    HW1 3194   0.154   0.795   8.291
  878SOL    HW2 3195   0.102   0.921   8.224
  879SOL     OW 3196   0.130   1.863   9.025
  879SOL    HW1 3197   0.138   1.828   9.114
  879SOL    HW2 3198   0.038   1.851   9.002
  880SOL     OW 3199   0.894   0.352   7.646
  880SOL    HW1 3200   0.936   0.412   7.584
  880SOL    HW2 3201   0.893   0.268   7.601
  881SOL     OW 3202   1.708   0.576   9.277
  881SOL    HW1 3203   1.670   0.649   9.229
  881SOL    HW2 3204   1.732   0.512   9.210
  882SOL     OW 3205   1.379   1.141   7.988
  882SOL    HW1 3206   1.459   1.131   7.936
  882SOL    HW2 3207   1.325   1.202   7.938
  883SOL     OW 3208   0.561   0.195   8.329
  883SOL    HW1 3209   0.566   0.219   8.421
  883SOL    HW2 3210   0.547   0.278   8.283
  884SOL     OW 3211   1.003   1.443   7.919
  884SOL    HW1 3212   0.968   1.517   7.869
  884SOL    HW2 3213   0.983   1.464   8.010
  885SOL     OW 3214   0.365   1.819   8.318
  885SOL    HW1 3215   0.428   1.748   8.327
  885SOL    HW2 3216   0.416   1.899   8.334
  886SOL     OW 3217   1.800   1.054   8.317
  886SOL    HW1 3218   1.746   1.037   8.240
  886SOL    HW2 3219   1.738   1.061   8.389
  887SOL     OW 3220   1.228   1.539   8.961
  887SOL    HW1 3221   1.215   1.466   9.022
  887SOL    HW2 3222   1.163   1.524   8.892
  888SOL     OW 3223   0.311   0.954   7.690
  888SOL    HW1 3224   0.394   0.976   7.649
  888SOL    HW2 3225   0.298   0.861   7.670
  889SOL     OW 3226   1.480   0.747   8.177
  889SOL    HW1 3227   1.474   0.706   8.263
  889SOL    HW2 3228   1.558   0.803   8.182
  890SOL     OW 3229   0.468   1.261   9.185
  890SOL    HW1 3230   0.442   1.269   9.094
  890SOL    HW2 3231   0.386   1.264   9.234
  891SOL     OW 3232   1.127   1.773   7.705
  891SOL    HW1 3233   1.046   1.728   7.731
  891SOL    HW2 3234   1.154   1.728   7.624
  892SOL     OW 3235   0.201   0.294   8.948
  892SOL    HW1 3236   0.107   0.314   8.947
  892SOL    HW2 3237   0.209   0.222   9.010
  893SOL     OW 3238   0.466   1.738   7.765
  893SOL    HW1 3239   0.510   1.795   7.828
  893SOL    HW2 3240   0.537   1.703   7.711
  894SOL     OW 3241   1.441   0.166   7.854
  894SOL    HW1 3242   1.394   0.100   7.804
  894SOL    HW2 3243   1.512   0.119   7.897
  895SOL     OW 3244   0.252   1.791   8.679
  895SOL    HW1 3245   0.298   1.725   8.732
  895SOL    HW2 3246   0.250   1.754   8.591
  896SOL     OW 3247   0.938   1.699   8.346
  896SOL    HW1 3248   1.017   1.649   8.366
  896SOL    HW2 3249   0.895   1.649   8.276
  897SOL     OW 3250   0.397   0.694   7.919
  897SOL    HW1 3251   0.423   0.603   7.934
  897SOL    HW2 3252   0.305   0.698   7.944
  898SOL     OW 3253   1.529   0.229   9.175
  898SOL    HW1 3254   1.525   0.254   9.267
  898SOL    HW2 3255   1.511   0.135   9.175
  899SOL     OW 3256   0.645   0.130   7.551
  899SOL    HW1 3257   0.668   0.046   7.591
  899SOL    HW2 3258   0.584   0.107   7.481
  900SOL     OW 3259   0.776   0.284   9.215
  900SOL    HW1 3260   0.850   0.223   9.217
  900SOL    HW2 3261   0.720   0.255   9.287
  901SOL     OW 3262   0.875   1.522   8.642
  901SOL    HW1 3263   0.860   1.485   8.555
  901SOL    HW2 3264   0.945   1.468   8.679
  902SOL     OW 3265   1.340   0.587   8.879
  902SOL    HW1 3266   1.370   0.558   8.964
  902SOL    HW2 3267   1.375   0.676   8.869
  903SOL     OW 3268   0.816   1.393   8.390
  903SOL    HW1 3269   0.901   1.381   8.348
  903SOL    HW2 3270   0.754   1.396   8.317
  904SOL     OW 3271   0.930   0.512   8.348
  904SOL    HW1 3272   0.906   0.504   8.256
  904SOL    HW2 3273   0.955   0.423   8.374
  905SOL     OW 3274   0.546   0.056   7.935
  905SOL    HW1 3275   0.473   0.063   7.996
  905SOL    HW2 3276   0.548   0.140   7.890
  906SOL     OW 3277   1.428   1.196   7.482
  906SOL    HW1 3278   1.460   1.128   7.540
  906SOL    HW2 3279   1.351   1.232   7.526
  907SOL     OW 3280   0.346   0.037   7.646
  907SOL    HW1 3281   0.360   0.086   7.565
  907SOL    HW2 3282   0.431   0.037   7.690
  908SOL     OW 3283   0.942   0.249   7.909
  908SOL    HW1 3284   0.916   0.290   7.826
  908SOL    HW2 3285   1.038   0.254   7.908
  909SOL     OW 3286   1.079   0.683   8.906
  909SOL    HW1 3287   1.010   0.618   8.913
  909SOL    HW2 3288   1.160   0.632   8.901
  910SOL     OW 3289   1.219   1.570   8.246
  910SOL    HW1 3290   1.232   1.637   8.178
  910SOL    HW2 3291   1.292   1.583   8.307
  911SOL     OW 3292   0.466   1.151   8.183
  911SOL    HW1 3293   0.395   1.126   8.242
  911SOL    HW2 3294   0.431   1.135   8.096
  912SOL     OW 3295   1.245   1.790   8.063
  912SOL    HW1 3296   1.261   1.847   7.987
  912SOL    HW2 3297   1.183   1.838   8.117
  913SOL     OW 3298   1.022   0.543   7.477
  913SOL    HW1 3299   0.979   0.626   7.457
  913SOL    HW2 3300   1.086   0.565   7.544
  914SOL     OW 3301   0.081   0.573   8.841
  914SOL    HW1 3302   0.170   0.555   8.811
  914SOL    HW2 3303   0.090   0.645   8.904
  915SOL     OW 3304   0.572   0.231   8.607
  915SOL    HW1 3305   0.594   0.138   8.616
  915SOL    HW2 3306   0.481   0.237   8.637
  916SOL     OW 3307   0.871   0.461   8.086
  916SOL    HW1 3308   0.820   0.514   8.025
  916SOL    HW2 3309   0.891   0.381   8.039
  917SOL     OW 3310   0.996   0.039   8.229
  917SOL    HW1 3311   0.960   0.069   8.145
  917SOL    HW2 3312   1.007   3.945   8.218
  918SOL     OW 3313   1.439   1.162   8.305
  918SOL    HW1 3314   1.368   1.098   8.303
  918SOL    HW2 3315   1.465   1.173   8.214
  919SOL     OW 3316   1.465   0.607   8.422
  919SOL    HW1 3317   1.410   0.528   8.427
  919SOL    HW2 3318   1.524   0.600   8.497
  920SOL     OW 3319   1.838   0.805   7.844
  920SOL    HW1 3320   1.898   0.752   7.897
  920SOL    HW2 3321   1.813   0.747   7.772
  921SOL     OW 3322   0.487   1.421   7.607
  921SOL    HW1 3323   0.412   1.390   7.657
  921SOL    HW2 3324   0.472   1.388   7.519
  922SOL     OW 3325   1.675   1.264   8.092
  922SOL    HW1 3326   1.770   1.267   8.105
  922SOL    HW2 3327   1.645   1.352   8.114
  923SOL     OW 3328   1.395   0.574   7.518
  923SOL    HW1 3329   1.333   0.554   7.587
  923SOL    HW2 3330   1.481   0.557   7.557
  924SOL     OW 3331   0.557   0.271   7.766
  924SOL    HW1 3332   0.605   0.231   7.693
  924SOL    HW2 3333   0.528   0.355   7.733
  925SOL     OW 3334   1.751   1.240   9.017
  925SOL    HW1 3335   1.838   1.201   9.013
  925SOL    HW2 3336   1.766   1.331   9.045
  926SOL     OW 3337   1.056   1.354   8.781
  926SOL    HW1 3338   0.981   1.322   8.832
  926SOL    HW2 3339   1.132   1.312   8.822
  927SOL     OW 3340   1.608   1.626   9.103
  927SOL    HW1 3341   1.602   1.662   9.014
  927SOL    HW2 3342   1.692   1.579   9.104
  928SOL     OW 3343   1.132   1.206   8.552
  928SOL    HW1 3344   1.071   1.244   8.616
  928SOL    HW2 3345   1.101   1.239   8.468
  929SOL     OW 3346   1.626   1.097   8.524
  929SOL    HW1 3347   1.620   1.159   8.597
  929SOL    HW2 3348   1.549   1.115   8.470
  930SOL     OW 3349   0.913   0.115   8.849
  930SOL    HW1 3350   0.932   0.088   8.759
  930SOL    HW2 3351   0.993   0.157   8.880
  931SOL     OW 3352   0.984   1.115   9.171
  931SOL    HW1 3353   0.893   1.131   9.194
  931SOL    HW2 3354   0.982   1.037   9.116
  932SOL     OW 3355   0.708   1.061   7.819
  932SOL    HW1 3356   0.694   1.044   7.912
  932SOL    HW2 3357   0.784   1.008   7.795
  933SOL     OW 3358   0.422   0.817   8.701
  933SOL    HW1 3359   0.491   0.823   8.767
  933SOL    HW2 3360   0.388   0.728   8.710
  934SOL     OW 3361   1.266   0.375   8.725
  934SOL    HW1 3362   1.300   0.453   8.769
  934SOL    HW2 3363   1.178   0.400   8.695
  935SOL     OW 3364   0.065   1.580   8.794
  935SOL    HW1 3365   0.071   1.635   8.716
  935SOL    HW2 3366   0.156   1.567   8.821
  936SOL     OW 3367   0.370   1.103   7.931
  936SOL    HW1 3368   0.366   1.182   7.877
  936SOL    HW2 3369   0.370   1.031   7.868
  937SOL     OW 3370   0.554   0.534   8.306
  937SOL    HW1 3371   0.568   0.593   8.232
  937SOL    HW2 3372   0.620   0.561   8.370
  938SOL     OW 3373   1.247   1.346   7.838
  938SOL    HW1 3374   1.303   1.416   7.871
  938SOL    HW2 3375   1.160   1.368   7.871
  939SOL     OW 3376   1.284   1.459   8.596
  939SOL    HW1 3377   1.340   1.463   8.674
  939SOL    HW2 3378   1.229   1.382   8.610
  940SOL     OW 3379   1.575   0.634   7.935
  940SOL    HW1 3380   1.532   0.689   7.999
  940SOL    HW2 3381   1.624   0.694   7.879
  941SOL     OW 3382   0.345   1.527   8.766
  941SOL    HW1 3383   0.336   1.477   8.686
  941SOL    HW2 3384   0.440   1.542   8.774
  942SOL     OW 3385   0.417   0.737   9.049
  942SOL    HW1 3386   0.480   0.783   8.992
  942SOL    HW2 3387   0.455   0.650   9.062
  943SOL     OW 3388   1.604   0.780   9.133
  943SOL    HW1 3389   1.518   0.822   9.126
  943SOL    HW2 3390   1.656   0.821   9.064
  944SOL     OW 3391   1.011   0.133   9.227
  944SOL    HW1 3392   1.064   0.205   9.191
  944SOL    HW2 3393   1.001   0.073   9.153
  945SOL     OW 3394   0.483   0.037   9.213
  945SOL    HW1 3395   0.490   0.047   9.118
  945SOL    HW2 3396   0.421   0.105   9.239
  946SOL     OW 3397   0.585   0.875   8.480
  946SOL    HW1 3398   0.617   0.965   8.481
  946SOL    HW2 3399   0.529   0.867   8.557
  947SOL     OW 3400   1.354   0.858   8.475
  947SOL    HW1 3401   1.269   0.847   8.431
  947SOL    HW2 3402   1.396   0.773   8.467
  948SOL     OW 3403   1.201   0.536   7.706
  948SOL    HW1 3404   1.209   0.457   7.760
  948SOL    HW2 3405   1.158   0.600   7.764
  949SOL     OW 3406   0.311   0.212   8.688
  949SOL    HW1 3407   0.268   0.248   8.766
  949SOL    HW2 3408   0.296   0.118   8.694
  950SOL     OW 3409   0.060   1.306   8.729
  950SOL    HW1 3410   0.091   1.264   8.809
  950SOL    HW2 3411   0.052   1.398   8.751
  951SOL     OW 3412   0.725   0.634   8.501
  951SOL    HW1 3413   0.799   0.619   8.443
  951SOL    HW2 3414   0.695   0.722   8.480
  952SOL     OW 3415   1.737   0.959   9.303
  952SOL    HW1 3416   1.691   0.895   9.248
  952SOL    HW2 3417   1.677   0.975   9.376
  953SOL     OW 3418   0.330   0.055   8.102
  953SOL    HW1 3419   0.301   0.146   8.103
  953SOL    HW2 3420   0.293   0.017   8.182
  954SOL     OW 3421   1.607   0.391   7.828
  954SOL    HW1 3422   1.566   0.324   7.883
  954SOL    HW2 3423   1.587   0.474   7.873
  955SOL     OW 3424   1.030   0.759   8.407
  955SOL    HW1 3425   1.023   0.776   8.501
  955SOL    HW2 3426   1.002   0.668   8.397
  956SOL     OW 3427   0.982   1.566   9.167
  956SOL    HW1 3428   0.967   1.610   9.083
  956SOL    HW2 3429   1.026   1.484   9.143
  957SOL     OW 3430   1.854   1.502   9.052
  957SOL    HW1 3431   1.871   1.533   8.963
  957SOL    HW2 3432   1.937   1.513   9.098
  958SOL     OW 3433   0.353   0.922   9.247
  958SOL    HW1 3434   0.431   0.942   9.298
  958SOL    HW2 3435   0.382   0.854   9.185
  959SOL     OW 3436   1.505   0.274   7.583
  959SOL    HW1 3437   1.431   0.215   7.595
  959SOL    HW2 3438   1.518   0.314   7.669
  960SOL     OW 3439   1.287   0.823   7.482
  960SOL    HW1 3440   1.330   0.737   7.486
  960SOL    HW2 3441   1.314   0.858   7.397
  961SOL     OW 3442   1.066   1.336   8.304
  961SOL    HW1 3443   1.071   1.265   8.241
  961SOL    HW2 3444   1.126   1.403   8.270
  962SOL     OW 3445   0.313   0.803   8.398
  962SOL    HW1 3446   0.407   0.819   8.392
  962SOL    HW2 3447   0.306   0.713   8.430
  963SOL     OW 3448   0.338   0.528   8.463
  963SOL    HW1 3449   0.297   0.444   8.445
  963SOL    HW2 3450   0.413   0.532   8.404
  964SOL     OW 3451   1.133   0.380   9.145
  964SOL    HW1 3452   1.085   0.435   9.207
  964SOL    HW2 3453   1.220   0.420   9.140
  965SOL     OW 3454   1.151   0.225   8.930
  965SOL    HW1 3455   1.142   0.280   9.008
  965SOL    HW2 3456   1.176   0.287   8.861
  966SOL     OW 3457   0.000   1.317   7.630
  966SOL    HW1 3458   3.906   1.333   7.634
  966SOL    HW2 3459   0.009   1.224   7.649
  967SOL     OW 3460   0.078   1.800   8.337
  967SOL    HW1 3461   0.084   1.705   8.340
  967SOL    HW2 3462   0.169   1.830   8.341
  968SOL     OW 3463   0.500   1.571   8.359
  968SOL    HW1 3464   0.570   1.632   8.384
  968SOL    HW2 3465   0.543   1.508   8.301
  969SOL     OW 3466   0.978   0.789   8.672
  969SOL    HW1 3467   1.034   0.769   8.747
  969SOL    HW2 3468   0.894   0.751   8.695
  970SOL     OW 3469   0.035   0.574   8.560
  970SOL    HW1 3470   0.097   0.522   8.509
  970SOL    HW2 3471   0.061   0.560   8.651
  971SOL     OW 3472   0.211   0.516   9.170
  971SOL    HW1 3473   0.257   0.477   9.096
  971SOL    HW2 3474   0.164   0.590   9.132
  972SOL     OW 3475   1.378   0.936   9.105
  972SOL    HW1 3476   1.400   1.030   9.102
  972SOL    HW2 3477   1.375   0.910   9.013
  973SOL     OW 3478   0.818   0.572   7.810
  973SOL    HW1 3479   0.824   0.496   7.753
  973SOL    HW2 3480   0.744   0.621   7.777
  974SOL     OW 3481   1.640   0.602   8.631
  974SOL    HW1 3482   1.631   0.542   8.705
  974SOL    HW2 3483   1.728   0.585   8.597
  975SOL     OW 3484   0.300   1.544   9.173
  975SOL    HW1 3485   0.252   1.614   9.218
  975SOL    HW2 3486   0.269   1.463   9.214
  976SOL     OW 3487   0.710   0.454   8.704
  976SOL    HW1 3488   0.660   0.376   8.679
  976SOL    HW2 3489   0.700   0.513   8.630
  977SOL     OW 3490   0.925   1.679   8.918
  977SOL    HW1 3491   0.900   1.642   8.833
  977SOL    HW2 3492   0.919   1.774   8.904
  978SOL     OW 3493   0.454   0.492   7.646
  978SOL    HW1 3494   0.518   0.561   7.663
  978SOL    HW2 3495   0.374   0.539   7.621
  979SOL     OW 3496   0.156   1.135   8.922
  979SOL    HW1 3497   0.157   1.084   9.004
  979SOL    HW2 3498   0.171   1.070   8.854
  980SOL     OW 3499   1.323   1.045   8.670
  980SOL    HW1 3500   1.346   0.982   8.602
  980SOL    HW2 3501   1.255   1.099   8.630
  981SOL     OW 3502   1.314   0.856   7.755
  981SOL    HW1 3503   1.238   0.827   7.805
  981SOL    HW2 3504   1.289   0.844   7.664
  982SOL     OW 3505   1.742   1.733   8.583
  982SOL    HW1 3506   1.817   1.756   8.529
  982SOL    HW2 3507   1.727   1.640   8.566
  983SOL     OW 3508   1.243   1.734   8.557
  983SOL    HW1 3509   1.326   1.756   8.514
  983SOL    HW2 3510   1.250   1.641   8.576
  984SOL     OW 3511   0.077   1.216   8.476
  984SOL    HW1 3512   0.083   1.242   8.568
  984SOL    HW2 3513   3.985   1.226   8.454
  985SOL     OW 3514   0.680   1.668   9.182
  985SOL    HW1 3515   0.621   1.743   9.174
  985SOL    HW2 3516   0.746   1.681   9.114
  986SOL     OW 3517   1.714   0.124   7.936
  986SOL    HW1 3518   1.792   0.134   7.882
  986SOL    HW2 3519   1.705   0.030   7.949
  987SOL     OW 3520   1.393   1.563   7.935
  987SOL    HW1 3521   1.445   1.599   7.863
  987SOL    HW2 3522   1.335   1.635   7.960
  988SOL     OW 3523   0.175   1.763   9.278
  988SOL    HW1 3524   0.118   1.712   9.336
  988SOL    HW2 3525   0.215   1.828   9.335
  989SOL     OW 3526   1.277   0.927   8.119
  989SOL    HW1 3527   1.351   0.867   8.130
  989SOL    HW2 3528   1.312   0.999   8.066
  990SOL     OW 3529   0.810   1.274   8.876
  990SOL    HW1 3530   0.781   1.315   8.958
  990SOL    HW2 3531   0.739   1.292   8.814
  991SOL     OW 3532   0.669   1.622   7.603
  991SOL    HW1 3533   0.681   1.634   7.509
  991SOL    HW2 3534   0.614   1.544   7.611
  992SOL     OW 3535   1.622   1.729   8.838
  992SOL    HW1 3536   1.666   1.734   8.753
  992SOL    HW2 3537   1.608   1.820   8.863
  993SOL     OW 3538   1.839   0.177   8.414
  993SOL    HW1 3539   1.872   0.111   8.354
  993SOL    HW2 3540   1.751   0.197   8.383
  994SOL     OW 3541   0.275   0.322   8.162
  994SOL    HW1 3542   0.189   0.357   8.136
  994SOL    HW2 3543   0.266   0.306   8.256
  995SOL     OW 3544   1.183   1.615   7.488
  995SOL    HW1 3545   1.199   1.523   7.509
  995SOL    HW2 3546   1.118   1.612   7.418
  996SOL     OW 3547   0.823   1.005   8.821
  996SOL    HW1 3548   0.867   1.000   8.736
  996SOL    HW2 3549   0.822   1.099   8.842
  997SOL     OW 3550   0.915   0.910   7.739
  997SOL    HW1 3551   0.975   0.942   7.672
  997SOL    HW2 3552   0.964   0.842   7.785
  998SOL     OW 3553   0.374   1.303   8.940
  998SOL    HW1 3554   0.359   1.383   8.889
  998SOL    HW2 3555   0.297   1.248   8.922
  999SOL     OW 3556   1.609   1.282   8.729
  999SOL    HW1 3557   1.669   1.269   8.803
  999SOL    HW2 3558   1.549   1.351   8.758
 1000SOL     OW 3559   1.056   1.109   8.156
 1000SOL    HW1 3560   0.984   1.058   8.194
 1000SOL    HW2 3561   1.119   1.043   8.127
 1001SOL     OW 3562   1.014   0.249   8.418
 1001SOL    HW1 3563   1.004   0.199   8.337
 1001SOL    HW2 3564   1.010   0.184   8.487
 1002SOL     OW 3565   0.606   1.488   7.930
 1002SOL    HW1 3566   0.652   1.438   7.863
 1002SOL    HW2 3567   0.532   1.529   7.884
 1003SOL     OW 3568   1.721   0.394   8.820
 1003SOL    HW1 3569   1.793   0.456   8.824
 1003SOL    HW2 3570   1.754   0.322   8.766
 1004SOL     OW 3571   0.254   1.341   7.741
 1004SOL    HW1 3572   0.160   1.348   7.722
 1004SOL    HW2 3573   0.264   1.380   7.828
 1005SOL     OW 3574   0.108   0.999   9.166
 1005SOL    HW1 3575   0.048   0.991   9.240
 1005SOL    HW2 3576   0.194   0.981   9.203
 1006SOL     OW 3577   0.694   0.253   8.949
 1006SOL    HW1 3578   0.762   0.200   8.908
 1006SOL    HW2 3579   0.723   0.262   9.040
 1007SOL     OW 3580   0.088   0.321   7.475
 1007SOL    HW1 3581   3.993   0.319   7.467
 1007SOL    HW2 3582   0.113   0.404   7.433
 1008SOL     OW 3583   1.427   0.857   8.846
 1008SOL    HW1 3584   1.378   0.918   8.792
 1008SOL    HW2 3585   1.516   0.859   8.812
 1009SOL     OW 3586   0.037   0.168   7.732
 1009SOL    HW1 3587   0.037   0.231   7.660
 1009SOL    HW2 3588   0.113   0.192   7.785
 1010SOL     OW 3589   1.183   1.337   7.565
 1010SOL    HW1 3590   1.091   1.309   7.566
 1010SOL    HW2 3591   1.208   1.338   7.657
 1011SOL     OW 3592   0.621   0.829   8.885
 1011SOL    HW1 3593   0.677   0.904   8.869
 1011SOL    HW2 3594   0.681   0.755   8.893
 1012SOL     OW 3595   1.488   1.786   8.432
 1012SOL    HW1 3596   1.509   1.855   8.369
 1012SOL    HW2 3597   1.571   1.766   8.475
 1013SOL     OW 3598   0.717   0.562   9.155
 1013SOL    HW1 3599   0.762   0.624   9.213
 1013SOL    HW2 3600   0.744   0.476   9.187
 1014SOL     OW 3601   1.473   1.197   9.078
 1014SOL    HW1 3602   1.461   1.211   9.172
 1014SOL    HW2 3603   1.566   1.214   9.063
 1015SOL     OW 3604   0.378   1.743   9.005
 1015SOL    HW1 3605   0.291   1.781   8.992
 1015SOL    HW2 3606   0.362   1.661   9.051
 1016SOL     OW 3607   1.667   0.881   8.704
 1016SOL    HW1 3608   1.662   0.795   8.661
 1016SOL    HW2 3609   1.657   0.944   8.632
 1017SOL     OW 3610   1.223   0.336   7.891
 1017SOL    HW1 3611   1.290   0.268   7.884
 1017SOL    HW2 3612   1.242   0.381   7.973
 1018SOL     OW 3613   0.590   0.738   8.119
 1018SOL    HW1 3614   0.628   0.824   8.103
 1018SOL    HW2 3615   0.523   0.728   8.052
 1019SOL     OW 3616   1.751   0.384   9.091
 1019SOL    HW1 3617   1.733   0.389   8.997
 1019SOL    HW2 3618   1.694   0.313   9.122
 1020SOL     OW 3619   1.746   0.934   8.960
 1020SOL    HW1 3620   1.739   1.028   8.973
 1020SOL    HW2 3621   1.730   0.921   8.867
 1021SOL     OW 3622   0.861   1.366   7.485
 1021SOL    HW1 3623   0.825   1.396   7.568
 1021SOL    HW2 3624   0.881   1.446   7.437
 1022SOL     OW 3625   0.663   1.788   8.391
 1022SOL    HW1 3626   0.642   1.879   8.369
 1022SOL    HW2 3627   0.758   1.782   8.383
 1023SOL     OW 3628   0.868   0.968   8.301
 1023SOL    HW1 3629   0.919   0.896   8.340
 1023SOL    HW2 3630   0.832   1.015   8.377
 1024SOL     OW 3631   1.075   0.986   7.536
 1024SOL    HW1 3632   1.057   1.040   7.459
 1024SOL    HW2 3633   1.151   0.934   7.512
 1025SOL     OW 3634   1.838   1.551   8.277
 1025SOL    HW1 3635   1.755   1.547   8.229
 1025SOL    HW2 3636   1.829   1.486   8.346
 1026SOL     OW 3637   0.226   1.304   9.304
 1026SOL    HW1 3638   0.154   1.247   9.277
 1026SOL    HW2 3639   0.212   1.317   9.398
 1027SOL     OW 3640   0.120   1.279   8.170
 1027SOL    HW1 3641   0.135   1.227   8.249
 1027SOL    HW2 3642   0.106   1.214   8.101
 1028SOL     OW 3643   0.682   1.405   9.078
 1028SOL    HW1 3644   0.602   1.362   9.108
 1028SOL    HW2 3645   0.678   1.493   9.115
 1029SOL     OW 3646   1.811   0.183   8.686
 1029SOL    HW1 3647   1.814   0.089   8.702
 1029SOL    HW2 3648   1.826   0.193   8.592
 1030SOL     OW 3649   0.444   0.437   7.979
 1030SOL    HW1 3650   0.461   0.362   7.923
 1030SOL    HW2 3651   0.389   0.403   8.049
 1031SOL     OW 3652   1.701   1.473   8.535
 1031SOL    HW1 3653   1.619   1.457   8.489
 1031SOL    HW2 3654   1.704   1.406   8.603
 1032SOL     OW 3655   0.333   0.557   8.741
 1032SOL    HW1 3656   0.389   0.501   8.794
 1032SOL    HW2 3657   0.348   0.529   8.651
 1033SOL     OW 3658   0.829   1.579   8.124
 1033SOL    HW1 3659   0.815   1.640   8.051
 1033SOL    HW2 3660   0.753   1.521   8.121
 1034SOL     OW 3661   1.461   0.254   8.559
 1034SOL    HW1 3662   1.478   0.167   8.595
 1034SOL    HW2 3663   1.405   0.296   8.624
 1035SOL     OW 3664   1.004   0.028   8.594
 1035SOL    HW1 3665   0.923   3.991   8.558
 1035SOL    HW2 3666   1.063   3.953   8.603
 1036SOL     OW 3667   0.772   1.333   7.767
 1036SOL    HW1 3668   0.744   1.242   7.772
 1036SOL    HW2 3669   0.855   1.335   7.815
 1037SOL     OW 3670   0.620   1.556   8.734
 1037SOL    HW1 3671   0.622   1.639   8.783
 1037SOL    HW2 3672   0.708   1.549   8.697
 1038SOL     OW 3673   1.311   0.073   7.614
 1038SOL    HW1 3674   1.322   3.995   7.560
 1038SOL    HW2 3675   1.226   0.063   7.656
 1039SOL     OW 3676   1.282   0.457   8.133
 1039SOL    HW1 3677   1.235   0.540   8.128
 1039SOL    HW2 3678   1.284   0.437   8.227
 1040SOL     OW 3679   1.588   0.210   8.316
 1040SOL    HW1 3680   1.539   0.234   8.394
 1040SOL    HW2 3681   1.588   0.289   8.262
 1041SOL     OW 3682   0.047   1.049   7.688
 1041SOL    HW1 3683   0.141   1.033   7.680
 1041SOL    HW2 3684   0.011   0.965   7.719
 1042SOL     OW 3685   0.883   1.653   7.790
 1042SOL    HW1 3686   0.809   1.638   7.730
 1042SOL    HW2 3687   0.856   1.729   7.842
 1043SOL     OW 3688   0.232   0.628   9.427
 1043SOL    HW1 3689   0.139   0.632   9.449
 1043SOL    HW2 3690   0.235   0.598   9.336
 1044SOL     OW 3691   0.224   0.289  10.293
 1044SOL    HW1 3692   0.246   0.250  10.377
 1044SOL    HW2 3693   0.129   0.278  10.286
 1045SOL     OW 3694   0.019   0.385   9.946
 1045SOL    HW1 3695   3.928   0.398   9.974
 1045SOL    HW2 3696   0.025   0.291   9.931
 1046SOL     OW 3697   0.581   1.289  10.501
 1046SOL    HW1 3698   0.494   1.291  10.460
 1046SOL    HW2 3699   0.594   1.378  10.533
 1047SOL     OW 3700   1.567   1.514  10.019
 1047SOL    HW1 3701   1.525   1.494  10.102
 1047SOL    HW2 3702   1.496   1.519   9.956
 1048SOL     OW 3703   1.133   0.698  10.007
 1048SOL    HW1 3704   1.180   0.781   9.995
 1048SOL    HW2 3705   1.085   0.710  10.089
 1049SOL     OW 3706   1.767   0.619   9.535
 1049SOL    HW1 3707   1.745   0.612   9.442
 1049SOL    HW2 3708   1.752   0.531   9.570
 1050SOL     OW 3709   0.753   1.139  10.352
 1050SOL    HW1 3710   0.690   1.175  10.414
 1050SOL    HW2 3711   0.789   1.216  10.308
 1051SOL     OW 3712   0.871   0.770  11.134
 1051SOL    HW1 3713   0.860   0.842  11.196
 1051SOL    HW2 3714   0.893   0.814  11.051
 1052SOL     OW 3715   0.685   1.002   9.956
 1052SOL    HW1 3716   0.751   0.991  10.024
 1052SOL    HW2 3717   0.616   1.054   9.997
 1053SOL     OW 3718   0.712   1.149  11.126
 1053SOL    HW1 3719   0.759   1.227  11.155
 1053SOL    HW2 3720   0.630   1.183  11.088
 1054SOL     OW 3721   0.351   1.401  10.389
 1054SOL    HW1 3722   0.270   1.380  10.342
 1054SOL    HW2 3723   0.399   1.459  10.329
 1055SOL     OW 3724   1.460   1.501  10.667
 1055SOL    HW1 3725   1.514   1.580  10.676
 1055SOL    HW2 3726   1.396   1.508  10.737
 1056SOL     OW 3727   0.457   0.408  10.806
 1056SOL    HW1 3728   0.539   0.358  10.804
 1056SOL    HW2 3729   0.388   0.342  10.809
 1057SOL     OW 3730   1.612   0.451  10.045
 1057SOL    HW1 3731   1.542   0.482   9.987
 1057SOL    HW2 3732   1.630   0.524  10.104
 1058SOL     OW 3733   0.220   1.719   9.767
 1058SOL    HW1 3734   0.240   1.793   9.825
 1058SOL    HW2 3735   0.297   1.711   9.711
 1059SOL     OW 3736   1.137   1.342  11.004
 1059SOL    HW1 3737   1.178   1.336  11.090
 1059SOL    HW2 3738   1.085   1.262  10.996
 1060SOL     OW 3739   0.250   1.450   9.850
 1060SOL    HW1 3740   0.215   1.538   9.835
 1060SOL    HW2 3741   0.182   1.406   9.901
 1061SOL     OW 3742   0.248   1.066  10.194
 1061SOL    HW1 3743   0.267   0.981  10.233
 1061SOL    HW2 3744   0.195   1.111  10.260
 1062SOL     OW 3745   0.610   1.792  10.737
 1062SOL    HW1 3746   0.528   1.774  10.782
 1062SOL    HW2 3747   0.633   1.882  10.763
 1063SOL     OW 3748   0.577   0.986   9.449
 1063SOL    HW1 3749   0.625   1.030   9.379
 1063SOL    HW2 3750   0.618   1.016   9.530
 1064SOL     OW 3751   1.581   0.140  10.766
 1064SOL    HW1 3752   1.611   0.213  10.711
 1064SOL    HW2 3753   1.548   0.182  10.846
 1065SOL     OW 3754   0.140   0.652   9.880
 1065SOL    HW1 3755   0.098   0.566   9.884
 1065SOL    HW2 3756   0.102   0.701   9.952
 1066SOL     OW 3757   0.044   1.590   9.448
 1066SOL    HW1 3758   0.037   1.497   9.474
 1066SOL    HW2 3759   3.961   1.629   9.475
 1067SOL     OW 3760   1.687   0.917   9.952
 1067SOL    HW1 3761   1.771   0.876   9.933
 1067SOL    HW2 3762   1.667   0.969   9.874
 1068SOL     OW 3763   1.648   1.105   9.739
 1068SOL    HW1 3764   1.735   1.109   9.698
 1068SOL    HW2 3765   1.654   1.168   9.812
 1069SOL     OW 3766   0.141   0.756  10.899
 1069SOL    HW1 3767   0.236   0.751  10.894
 1069SOL    HW2 3768   0.123   0.844  10.931
 1070SOL     OW 3769   0.613   1.387  10.046
 1070SOL    HW1 3770   0.567   1.303  10.055
 1070SOL    HW2 3771   0.597   1.413   9.955
 1071SOL     OW 3772   1.287   1.237  10.732
 1071SOL    HW1 3773   1.319   1.170  10.672
 1071SOL    HW2 3774   1.346   1.232  10.808
 1072SOL     OW 3775   0.820   0.004   9.826
 1072SOL    HW1 3776   0.865   0.084   9.802
 1072SOL    HW2 3777   0.727   0.027   9.826
 1073SOL     OW 3778   0.184   0.950  10.588
 1073SOL    HW1 3779   0.272   0.915  10.576
 1073SOL    HW2 3780   0.132   0.908  10.520
 1074SOL     OW 3781   1.531   0.996   9.510
 1074SOL    HW1 3782   1.462   0.939   9.543
 1074SOL    HW2 3783   1.574   1.030   9.589
 1075SOL     OW 3784   1.184   1.809  10.934
 1075SOL    HW1 3785   1.193   1.869  10.860
 1075SOL    HW2 3786   1.202   1.722  10.897
 1076SOL     OW 3787   0.345   0.251  11.150
 1076SOL    HW1 3788   0.387   0.335  11.130
 1076SOL    HW2 3789   0.253   0.274  11.167
 1077SOL     OW 3790   1.465   1.419  10.259
 1077SOL    HW1 3791   1.398   1.435  10.325
 1077SOL    HW2 3792   1.452   1.328  10.233
 1078SOL     OW 3793   1.663   1.736   9.866
 1078SOL    HW1 3794   1.630   1.698   9.785
 1078SOL    HW2 3795   1.646   1.669   9.933
 1079SOL     OW 3796   0.596   0.717   9.576
 1079SOL    HW1 3797   0.601   0.801   9.531
 1079SOL    HW2 3798   0.533   0.731   9.647
 1080SOL     OW 3799   1.274   0.369  10.251
 1080SOL    HW1 3800   1.187   0.330  10.258
 1080SOL    HW2 3801   1.332   0.307  10.296
 1081SOL     OW 3802   1.575   1.671   9.608
 1081SOL    HW1 3803   1.664   1.700   9.586
 1081SOL    HW2 3804   1.536   1.647   9.524
 1082SOL     OW 3805   0.794   0.616  10.763
 1082SOL    HW1 3806   0.765   0.590  10.851
 1082SOL    HW2 3807   0.756   0.550  10.705
 1083SOL     OW 3808   1.392   0.476  10.987
 1083SOL    HW1 3809   1.398   0.521  11.071
 1083SOL    HW2 3810   1.450   0.400  10.996
 1084SOL     OW 3811   0.952   0.887  10.894
 1084SOL    HW1 3812   1.007   0.818  10.857
 1084SOL    HW2 3813   0.904   0.922  10.819
 1085SOL     OW 3814   0.992   0.403  10.548
 1085SOL    HW1 3815   0.907   0.424  10.586
 1085SOL    HW2 3816   0.972   0.374  10.459
 1086SOL     OW 3817   1.052   0.699   9.735
 1086SOL    HW1 3818   1.069   0.692   9.829
 1086SOL    HW2 3819   0.970   0.653   9.722
 1087SOL     OW 3820   0.081   0.829  10.100
 1087SOL    HW1 3821   0.154   0.795  10.153
 1087SOL    HW2 3822   0.102   0.921  10.086
 1088SOL     OW 3823   0.130   1.863  10.887
 1088SOL    HW1 3824   0.138   1.828  10.976
 1088SOL    HW2 3825   0.038   1.851  10.864
 1089SOL     OW 3826   0.894   0.352   9.508
 1089SOL    HW1 3827   0.936   0.412   9.446
 1089SOL    HW2 3828   0.892   0.268   9.463
 1090SOL     OW 3829   1.708   0.576  11.139
 1090SOL    HW1 3830   1.670   0.649  11.091
 1090SOL    HW2 3831   1.732   0.512  11.072
 1091SOL     OW 3832   1.378   1.141   9.850
 1091SOL    HW1 3833   1.458   1.131   9.798
 1091SOL    HW2 3834   1.326   1.204   9.800
 1092SOL     OW 3835   0.561   0.195  10.191
 1092SOL    HW1 3836   0.566   0.219  10.283
 1092SOL    HW2 3837   0.547   0.278  10.145
 1093SOL     OW 3838   1.003   1.444   9.780
 1093SOL    HW1 3839   0.968   1.518   9.731
 1093SOL    HW2 3840   0.983   1.464   9.871
 1094SOL     OW 3841   0.365   1.819  10.180
 1094SOL    HW1 3842   0.428   1.748  10.189
 1094SOL    HW2 3843   0.416   1.899  10.196
 1095SOL     OW 3844   1.799   1.051  10.181
 1095SOL    HW1 3845   1.745   1.037  10.103
 1095SOL    HW2 3846   1.736   1.059  10.253
 1096SOL     OW 3847   1.227   1.539  10.823
 1096SOL    HW1 3848   1.215   1.466  10.884
 1096SOL    HW2 3849   1.163   1.524  10.754
 1097SOL     OW 3850   0.310   0.954   9.552
 1097SOL    HW1 3851   0.394   0.976   9.511
 1097SOL    HW2 3852   0.298   0.861   9.532
 1098SOL     OW 3853   1.479   0.748  10.039
 1098SOL    HW1 3854   1.474   0.706  10.125
 1098SOL    HW2 3855   1.557   0.803  10.044
 1099SOL     OW 3856   0.468   1.261  11.047
 1099SOL    HW1 3857   0.442   1.269  10.956
 1099SOL    HW2 3858   0.386   1.264  11.096
 1100SOL     OW 3859   1.123   1.776   9.541
 1100SOL    HW1 3860   1.048   1.737   9.585
 1100SOL    HW2 3861   1.146   1.714   9.472
 1101SOL     OW 3862   0.201   0.294  10.810
 1101SOL    HW1 3863   0.107   0.314  10.809
 1101SOL    HW2 3864   0.209   0.222  10.872
 1102SOL     OW 3865   1.628   1.381   9.398
 1102SOL    HW1 3866   1.586   1.465   9.381
 1102SOL    HW2 3867   1.559   1.316   9.378
 1103SOL     OW 3868   0.466   1.739   9.626
 1103SOL    HW1 3869   0.509   1.796   9.690
 1103SOL    HW2 3870   0.538   1.703   9.573
 1104SOL     OW 3871   1.441   0.166   9.715
 1104SOL    HW1 3872   1.394   0.099   9.666
 1104SOL    HW2 3873   1.511   0.118   9.759
 1105SOL     OW 3874   0.252   1.791  10.541
 1105SOL    HW1 3875   0.298   1.725  10.594
 1105SOL    HW2 3876   0.249   1.753  10.453
 1106SOL     OW 3877   0.938   1.699  10.208
 1106SOL    HW1 3878   1.017   1.649  10.228
 1106SOL    HW2 3879   0.896   1.649  10.138
 1107SOL     OW 3880   0.397   0.694   9.781
 1107SOL    HW1 3881   0.423   0.603   9.796
 1107SOL    HW2 3882   0.305   0.698   9.806
 1108SOL     OW 3883   1.529   0.229  11.037
 1108SOL    HW1 3884   1.525   0.254  11.129
 1108SOL    HW2 3885   1.511   0.135  11.037
 1109SOL     OW 3886   0.645   0.130   9.413
 1109SOL    HW1 3887   0.668   0.046   9.453
 1109SOL    HW2 3888   0.584   0.107   9.343
 1110SOL     OW 3889   0.776   0.284  11.077
 1110SOL    HW1 3890   0.850   0.223  11.079
 1110SOL    HW2 3891   0.720   0.255  11.149
 1111SOL     OW 3892   0.875   1.522  10.504
 1111SOL    HW1 3893   0.860   1.485  10.417
 1111SOL    HW2 3894   0.945   1.468  10.541
 1112SOL     OW 3895   1.340   0.587  10.741
 1112SOL    HW1 3896   1.370   0.558  10.826
 1112SOL    HW2 3897   1.375   0.676  10.731
 1113SOL     OW 3898   0.816   1.393  10.252
 1113SOL    HW1 3899   0.901   1.381  10.210
 1113SOL    HW2 3900   0.754   1.395  10.179
 1114SOL     OW 3901   0.930   0.512  10.210
 1114SOL    HW1 3902   0.906   0.504  10.118
 1114SOL    HW2 3903   0.955   0.423  10.236
 1115SOL     OW 3904   0.546   0.056   9.797
 1115SOL    HW1 3905   0.473   0.063   9.858
 1115SOL    HW2 3906   0.548   0.140   9.752
 1116SOL     OW 3907   1.428   1.199   9.350
 1116SOL    HW1 3908   1.457   1.123   9.401
 1116SOL    HW2 3909   1.342   1.220   9.387
 1117SOL     OW 3910   0.346   0.037   9.508
 1117SOL    HW1 3911   0.360   0.086   9.427
 1117SOL    HW2 3912   0.431   0.037   9.551
 1118SOL     OW 3913   0.942   0.249   9.771
 1118SOL    HW1 3914   0.916   0.290   9.688
 1118SOL    HW2 3915   1.038   0.254   9.770
 1119SOL     OW 3916   1.079   0.683  10.768
 1119SOL    HW1 3917   1.010   0.618  10.775
 1119SOL    HW2 3918   1.160   0.632  10.763
 1120SOL     OW 3919   1.221   1.571  10.105
 1120SOL    HW1 3920   1.237   1.637  10.037
 1120SOL    HW2 3921   1.291   1.585  10.169
 1121SOL     OW 3922   0.466   1.151  10.045
 1121SOL    HW1 3923   0.395   1.126  10.104
 1121SOL    HW2 3924   0.432   1.135   9.958
 1122SOL     OW 3925   1.264   1.793   9.919
 1122SOL    HW1 3926   1.310   1.856   9.863
 1122SOL    HW2 3927   1.198   1.844   9.965
 1123SOL     OW 3928   1.022   0.543   9.339
 1123SOL    HW1 3929   0.979   0.626   9.319
 1123SOL    HW2 3930   1.086   0.564   9.407
 1124SOL     OW 3931   0.081   0.573  10.703
 1124SOL    HW1 3932   0.170   0.555  10.673
 1124SOL    HW2 3933   0.090   0.645  10.766
 1125SOL     OW 3934   0.572   0.231  10.469
 1125SOL    HW1 3935   0.594   0.138  10.478
 1125SOL    HW2 3936   0.481   0.237  10.499
 1126SOL     OW 3937   0.871   0.461   9.948
 1126SOL    HW1 3938   0.820   0.514   9.887
 1126SOL    HW2 3939   0.891   0.381   9.901
 1127SOL     OW 3940   0.996   0.040  10.091
 1127SOL    HW1 3941   0.960   0.069  10.007
 1127SOL    HW2 3942   1.007   3.945  10.080
 1128SOL     OW 3943   1.438   1.161  10.167
 1128SOL    HW1 3944   1.368   1.096  10.165
 1128SOL    HW2 3945   1.464   1.172  10.076
 1129SOL     OW 3946   1.465   0.607  10.284
 1129SOL    HW1 3947   1.410   0.528  10.289
 1129SOL    HW2 3948   1.524   0.600  10.359
 1130SOL     OW 3949   1.844   0.819   9.697
 1130SOL    HW1 3950   1.901   0.766   9.753
 1130SOL    HW2 3951   1.815   0.758   9.629
 1131SOL     OW 3952   0.487   1.421   9.469
 1131SOL    HW1 3953   0.412   1.390   9.519
 1131SOL    HW2 3954   0.473   1.388   9.381
 1132SOL     OW 3955   1.671   1.264   9.955
 1132SOL    HW1 3956   1.766   1.263   9.969
 1132SOL    HW2 3957   1.644   1.353   9.976
 1133SOL     OW 3958   1.395   0.576   9.379
 1133SOL    HW1 3959   1.332   0.556   9.448
 1133SOL    HW2 3960   1.480   0.556   9.418
 1134SOL     OW 3961   0.557   0.271   9.628
 1134SOL    HW1 3962   0.605   0.231   9.555
 1134SOL    HW2 3963   0.528   0.355   9.594
 1135SOL     OW 3964   1.751   1.241  10.880
 1135SOL    HW1 3965   1.838   1.202  10.873
 1135SOL    HW2 3966   1.766   1.331  10.907
 1136SOL     OW 3967   1.056   1.354  10.643
 1136SOL    HW1 3968   0.981   1.322  10.694
 1136SOL    HW2 3969   1.132   1.312  10.684
 1137SOL     OW 3970   1.608   1.625  10.965
 1137SOL    HW1 3971   1.602   1.662  10.876
 1137SOL    HW2 3972   1.692   1.579  10.965
 1138SOL     OW 3973   1.132   1.206  10.414
 1138SOL    HW1 3974   1.072   1.244  10.479
 1138SOL    HW2 3975   1.100   1.239  10.330
 1139SOL     OW 3976   1.625   1.097  10.387
 1139SOL    HW1 3977   1.619   1.159  10.459
 1139SOL    HW2 3978   1.548   1.115  10.333
 1140SOL     OW 3979   0.913   0.115  10.711
 1140SOL    HW1 3980   0.932   0.088  10.621
 1140SOL    HW2 3981   0.993   0.157  10.742
 1141SOL     OW 3982   0.984   1.115  11.033
 1141SOL    HW1 3983   0.893   1.131  11.056
 1141SOL    HW2 3984   0.982   1.037  10.978
 1142SOL     OW 3985   0.708   1.061   9.680
 1142SOL    HW1 3986   0.694   1.044   9.774
 1142SOL    HW2 3987   0.784   1.008   9.657
 1143SOL     OW 3988   0.422   0.817  10.563
 1143SOL    HW1 3989   0.491   0.823  10.629
 1143SOL    HW2 3990   0.388   0.728  10.572
 1144SOL     OW 3991   1.266   0.375  10.587
 1144SOL    HW1 3992   1.300   0.453  10.631
 1144SOL    HW2 3993   1.178   0.400  10.557
 1145SOL     OW 3994   0.065   1.580  10.656
 1145SOL    HW1 3995   0.071   1.635  10.578
 1145SOL    HW2 3996   0.156   1.567  10.683
 1146SOL     OW 3997   0.371   1.103   9.792
 1146SOL    HW1 3998   0.365   1.182   9.738
 1146SOL    HW2 3999   0.370   1.031   9.730
 1147SOL     OW 4000   0.554   0.534  10.168
 1147SOL    HW1 4001   0.568   0.593  10.094
 1147SOL    HW2 4002   0.620   0.561  10.232
 1148SOL     OW 4003   1.247   1.349   9.700
 1148SOL    HW1 4004   1.303   1.419   9.732
 1148SOL    HW2 4005   1.160   1.370   9.733
 1149SOL     OW 4006   1.284   1.459  10.458
 1149SOL    HW1 4007   1.341   1.463  10.535
 1149SOL    HW2 4008   1.230   1.382  10.472
 1150SOL     OW 4009   1.575   0.634   9.797
 1150SOL    HW1 4010   1.532   0.690   9.862
 1150SOL    HW2 4011   1.622   0.694   9.740
 1151SOL     OW 4012   0.345   1.527  10.628
 1151SOL    HW1 4013   0.335   1.477  10.548
 1151SOL    HW2 4014   0.440   1.542  10.636
 1152SOL     OW 4015   0.417   0.737  10.911
 1152SOL    HW1 4016   0.480   0.783  10.854
 1152SOL    HW2 4017   0.455   0.650  10.924
 1153SOL     OW 4018   1.604   0.780  10.995
 1153SOL    HW1 4019   1.518   0.822  10.988
 1153SOL    HW2 4020   1.656   0.821  10.926
 1154SOL     OW 4021   1.011   0.134  11.089
 1154SOL    HW1 4022   1.064   0.205  11.054
 1154SOL    HW2 4023   1.001   0.073  11.015
 1155SOL     OW 4024   0.483   0.037  11.075
 1155SOL    HW1 4025   0.490   0.047  10.980
 1155SOL    HW2 4026   0.421   0.105  11.101
 1156SOL     OW 4027   0.585   0.875  10.342
 1156SOL    HW1 4028   0.617   0.965  10.343
 1156SOL    HW2 4029   0.529   0.867  10.419
 1157SOL     OW 4030   1.353   0.858  10.336
 1157SOL    HW1 4031   1.269   0.846  10.293
 1157SOL    HW2 4032   1.397   0.773  10.329
 1158SOL     OW 4033   1.200   0.537   9.568
 1158SOL    HW1 4034   1.209   0.458   9.621
 1158SOL    HW2 4035   1.157   0.600   9.626
 1159SOL     OW 4036   0.311   0.212  10.550
 1159SOL    HW1 4037   0.268   0.248  10.628
 1159SOL    HW2 4038   0.296   0.118  10.556
 1160SOL     OW 4039   0.061   1.306  10.590
 1160SOL    HW1 4040   0.091   1.264  10.671
 1160SOL    HW2 4041   0.052   1.398  10.613
 1161SOL     OW 4042   0.725   0.634  10.363
 1161SOL    HW1 4043   0.799   0.619  10.305
 1161SOL    HW2 4044   0.695   0.722  10.342
 1162SOL     OW 4045   1.737   0.959  11.166
 1162SOL    HW1 4046   1.691   0.895  11.110
 1162SOL    HW2 4047   1.677   0.975  11.238
 1163SOL     OW 4048   0.330   0.055   9.964
 1163SOL    HW1 4049   0.301   0.146   9.965
 1163SOL    HW2 4050   0.293   0.017  10.044
 1164SOL     OW 4051   1.607   0.391   9.691
 1164SOL    HW1 4052   1.567   0.324   9.745
 1164SOL    HW2 4053   1.587   0.473   9.736
 1165SOL     OW 4054   1.030   0.759  10.269
 1165SOL    HW1 4055   1.023   0.776  10.363
 1165SOL    HW2 4056   1.002   0.668  10.259
 1166SOL     OW 4057   0.982   1.566  11.029
 1166SOL    HW1 4058   0.966   1.610  10.945
 1166SOL    HW2 4059   1.026   1.484  11.005
 1167SOL     OW 4060   1.854   1.502  10.914
 1167SOL    HW1 4061   1.871   1.532  10.824
 1167SOL    HW2 4062   1.938   1.513  10.959
 1168SOL     OW 4063   0.353   0.922  11.109
 1168SOL    HW1 4064   0.431   0.942  11.160
 1168SOL    HW2 4065   0.382   0.854  11.047
 1169SOL     OW 4066   1.504   0.275   9.445
 1169SOL    HW1 4067   1.431   0.215   9.457
 1169SOL    HW2 4068   1.518   0.314   9.531
 1170SOL     OW 4069   1.289   0.827   9.339
 1170SOL    HW1 4070   1.331   0.741   9.342
 1170SOL    HW2 4071   1.321   0.866   9.258
 1171SOL     OW 4072   1.066   1.337  10.166
 1171SOL    HW1 4073   1.071   1.265  10.103
 1171SOL    HW2 4074   1.127   1.403  10.131
 1172SOL     OW 4075   0.313   0.803  10.260
 1172SOL    HW1 4076   0.407   0.819  10.254
 1172SOL    HW2 4077   0.306   0.713  10.292
 1173SOL     OW 4078   0.338   0.528  10.325
 1173SOL    HW1 4079   0.297   0.444  10.307
 1173SOL    HW2 4080   0.413   0.532  10.266
 1174SOL     OW 4081   1.133   0.380  11.007
 1174SOL    HW1 4082   1.085   0.435  11.069
 1174SOL    HW2 4083   1.220   0.420  11.002
 1175SOL     OW 4084   1.151   0.225  10.792
 1175SOL    HW1 4085   1.142   0.280  10.870
 1175SOL    HW2 4086   1.176   0.287  10.723
 1176SOL     OW 4087   0.000   1.317   9.492
 1176SOL    HW1 4088   3.906   1.333   9.496
 1176SOL    HW2 4089   0.009   1.224   9.511
 1177SOL     OW 4090   0.078   1.800  10.199
 1177SOL    HW1 4091   0.083   1.705  10.202
 1177SOL    HW2 4092   0.169   1.829  10.202
 1178SOL     OW 4093   0.500   1.571  10.221
 1178SOL    HW1 4094   0.570   1.632  10.246
 1178SOL    HW2 4095   0.544   1.508  10.163
 1179SOL     OW 4096   0.978   0.789  10.534
 1179SOL    HW1 4097   1.034   0.769  10.609
 1179SOL    HW2 4098   0.893   0.751  10.557
 1180SOL     OW 4099   0.035   0.574  10.422
 1180SOL    HW1 4100   0.097   0.521  10.372
 1180SOL    HW2 4101   0.061   0.560  10.513
 1181SOL     OW 4102   0.211   0.516  11.032
 1181SOL    HW1 4103   0.257   0.477  10.958
 1181SOL    HW2 4104   0.164   0.590  10.994
 1182SOL     OW 4105   1.378   0.937  10.967
 1182SOL    HW1 4106   1.400   1.030  10.964
 1182SOL    HW2 4107   1.375   0.910  10.875
 1183SOL     OW 4108   0.818   0.572   9.672
 1183SOL    HW1 4109   0.825   0.496   9.615
 1183SOL    HW2 4110   0.743   0.621   9.639
 1184SOL     OW 4111   1.640   0.602  10.493
 1184SOL    HW1 4112   1.631   0.542  10.567
 1184SOL    HW2 4113   1.728   0.585  10.459
 1185SOL     OW 4114   0.300   1.544  11.035
 1185SOL    HW1 4115   0.252   1.614  11.080
 1185SOL    HW2 4116   0.269   1.463  11.076
 1186SOL     OW 4117   0.710   0.454  10.566
 1186SOL    HW1 4118   0.660   0.376  10.541
 1186SOL    HW2 4119   0.700   0.513  10.492
 1187SOL     OW 4120   0.924   1.679  10.780
 1187SOL    HW1 4121   0.900   1.642  10.695
 1187SOL    HW2 4122   0.919   1.774  10.766
 1188SOL     OW 4123   0.454   0.492   9.508
 1188SOL    HW1 4124   0.518   0.561   9.525
 1188SOL    HW2 4125   0.374   0.539   9.483
 1189SOL     OW 4126   0.156   1.135  10.784
 1189SOL    HW1 4127   0.157   1.084  10.866
 1189SOL    HW2 4128   0.171   1.070  10.716
 1190SOL     OW 4129   1.323   1.045  10.532
 1190SOL    HW1 4130   1.346   0.982  10.464
 1190SOL    HW2 4131   1.255   1.099  10.492
 1191SOL     OW 4132   1.314   0.856   9.615
 1191SOL    HW1 4133   1.239   0.827   9.666
 1191SOL    HW2 4134   1.287   0.843   9.524
 1192SOL     OW 4135   1.742   1.734  10.447
 1192SOL    HW1 4136   1.819   1.756  10.394
 1192SOL    HW2 4137   1.728   1.641  10.429
 1193SOL     OW 4138   1.243   1.734  10.418
 1193SOL    HW1 4139   1.326   1.756  10.376
 1193SOL    HW2 4140   1.250   1.641  10.438
 1194SOL     OW 4141   0.077   1.217  10.337
 1194SOL    HW1 4142   0.084   1.242  10.429
 1194SOL    HW2 4143   3.985   1.226  10.316
 1195SOL     OW 4144   0.680   1.668  11.044
 1195SOL    HW1 4145   0.621   1.743  11.035
 1195SOL    HW2 4146   0.746   1.681  10.977
 1196SOL     OW 4147   1.714   0.124   9.798
 1196SOL    HW1 4148   1.792   0.134   9.744
 1196SOL    HW2 4149   1.705   0.030   9.810
 1197SOL     OW 4150   1.391   1.568   9.797
 1197SOL    HW1 4151   1.446   1.601   9.727
 1197SOL    HW2 4152   1.341   1.644   9.827
 1198SOL     OW 4153   0.175   1.763  11.140
 1198SOL    HW1 4154   0.118   1.713  11.198
 1198SOL    HW2 4155   0.215   1.828  11.197
 1199SOL     OW 4156   1.277   0.928   9.981
 1199SOL    HW1 4157   1.351   0.868   9.992
 1199SOL    HW2 4158   1.312   0.999   9.928
 1200SOL     OW 4159   0.810   1.274  10.738
 1200SOL    HW1 4160   0.781   1.315  10.820
 1200SOL    HW2 4161   0.739   1.291  10.676
 1201SOL     OW 4162   0.670   1.622   9.465
 1201SOL    HW1 4163   0.681   1.634   9.371
 1201SOL    HW2 4164   0.615   1.544   9.473
 1202SOL     OW 4165   1.621   1.729  10.700
 1202SOL    HW1 4166   1.666   1.734  10.616
 1202SOL    HW2 4167   1.609   1.820  10.727
 1203SOL     OW 4168   1.839   0.178  10.276
 1203SOL    HW1 4169   1.872   0.111  10.216
 1203SOL    HW2 4170   1.751   0.197  10.245
 1204SOL     OW 4171   0.275   0.322  10.024
 1204SOL    HW1 4172   0.189   0.357   9.998
 1204SOL    HW2 4173   0.266   0.306  10.118
 1205SOL     OW 4174   1.206   1.604   9.342
 1205SOL    HW1 4175   1.196   1.512   9.368
 1205SOL    HW2 4176   1.141   1.617   9.273
 1206SOL     OW 4177   0.823   1.005  10.683
 1206SOL    HW1 4178   0.867   1.000  10.598
 1206SOL    HW2 4179   0.822   1.099  10.704
 1207SOL     OW 4180   0.915   0.911   9.600
 1207SOL    HW1 4181   0.977   0.943   9.534
 1207SOL    HW2 4182   0.964   0.842   9.646
 1208SOL     OW 4183   1.486   1.623   9.350
 1208SOL    HW1 4184   1.392   1.617   9.334
 1208SOL    HW2 4185   1.525   1.631   9.263
 1209SOL     OW 4186   0.374   1.303  10.802
 1209SOL    HW1 4187   0.359   1.383  10.751
 1209SOL    HW2 4188   0.297   1.248  10.784
 1210SOL     OW 4189   1.608   1.282  10.591
 1210SOL    HW1 4190   1.670   1.270  10.663
 1210SOL    HW2 4191   1.549   1.351  10.621
 1211SOL     OW 4192   1.056   1.109  10.018
 1211SOL    HW1 4193   0.984   1.058  10.056
 1211SOL    HW2 4194   1.119   1.043   9.989
 1212SOL     OW 4195   1.014   0.249  10.280
 1212SOL    HW1 4196   1.004   0.199  10.199
 1212SOL    HW2 4197   1.010   0.184  10.349
 1213SOL     OW 4198   0.606   1.489   9.792
 1213SOL    HW1 4199   0.652   1.439   9.724
 1213SOL    HW2 4200   0.532   1.528   9.746
 1214SOL     OW 4201   1.721   0.394  10.682
 1214SOL    HW1 4202   1.793   0.456  10.686
 1214SOL    HW2 4203   1.754   0.322  10.628
 1215SOL     OW 4204   0.254   1.341   9.603
 1215SOL    HW1 4205   0.160   1.348   9.584
 1215SOL    HW2 4206   0.264   1.380   9.690
 1216SOL     OW 4207   0.108   0.999  11.028
 1216SOL    HW1 4208   0.048   0.991  11.102
 1216SOL    HW2 4209   0.194   0.981  11.065
 1217SOL     OW 4210   0.694   0.253  10.811
 1217SOL    HW1 4211   0.762   0.200  10.770
 1217SOL    HW2 4212   0.723   0.262  10.902
 1218SOL     OW 4213   0.088   0.321   9.337
 1218SOL    HW1 4214   3.993   0.319   9.329
 1218SOL    HW2 4215   0.113   0.404   9.295
 1219SOL     OW 4216   1.427   0.857  10.708
 1219SOL    HW1 4217   1.378   0.919  10.654
 1219SOL    HW2 4218   1.516   0.859  10.674
 1220SOL     OW 4219   0.037   0.168   9.594
 1220SOL    HW1 4220   0.037   0.231   9.522
 1220SOL    HW2 4221   0.113   0.192   9.647
 1221SOL     OW 4222   1.178   1.337   9.427
 1221SOL    HW1 4223   1.087   1.307   9.429
 1221SOL    HW2 4224   1.205   1.338   9.519
 1222SOL     OW 4225   0.621   0.829  10.747
 1222SOL    HW1 4226   0.677   0.904  10.731
 1222SOL    HW2 4227   0.681   0.755  10.755
 1223SOL     OW 4228   1.489   1.785  10.294
 1223SOL    HW1 4229   1.511   1.851  10.228
 1223SOL    HW2 4230   1.572   1.766  10.338
 1224SOL     OW 4231   0.717   0.562  11.017
 1224SOL    HW1 4232   0.762   0.624  11.075
 1224SOL    HW2 4233   0.744   0.476  11.049
 1225SOL     OW 4234   1.473   1.197  10.940
 1225SOL    HW1 4235   1.461   1.212  11.034
 1225SOL    HW2 4236   1.566   1.214  10.925
 1226SOL     OW 4237   0.378   1.743  10.867
 1226SOL    HW1 4238   0.291   1.781  10.854
 1226SOL    HW2 4239   0.362   1.661  10.913
 1227SOL     OW 4240   1.667   0.881  10.566
 1227SOL    HW1 4241   1.662   0.795  10.523
 1227SOL    HW2 4242   1.657   0.944  10.494
 1228SOL     OW 4243   1.223   0.336   9.752
 1228SOL    HW1 4244   1.291   0.269   9.745
 1228SOL    HW2 4245   1.242   0.381   9.835
 1229SOL     OW 4246   0.590   0.738   9.981
 1229SOL    HW1 4247   0.628   0.824   9.965
 1229SOL    HW2 4248   0.523   0.728   9.914
 1230SOL     OW 4249   1.751   0.384  10.953
 1230SOL    HW1 4250   1.733   0.389  10.859
 1230SOL    HW2 4251   1.694   0.313  10.984
 1231SOL     OW 4252   1.746   0.934  10.822
 1231SOL    HW1 4253   1.739   1.028  10.835
 1231SOL    HW2 4254   1.729   0.921  10.729
 1232SOL     OW 4255   0.863   1.366   9.348
 1232SOL    HW1 4256   0.825   1.395   9.431
 1232SOL    HW2 4257   0.880   1.447   9.300
 1233SOL     OW 4258   0.663   1.788  10.252
 1233SOL    HW1 4259   0.643   1.879  10.230
 1233SOL    HW2 4260   0.758   1.782  10.245
 1234SOL     OW 4261   0.869   0.968  10.163
 1234SOL    HW1 4262   0.919   0.896  10.202
 1234SOL    HW2 4263   0.832   1.015  10.238
 1235SOL     OW 4264   1.078   0.989   9.399
 1235SOL    HW1 4265   1.056   1.040   9.321
 1235SOL    HW2 4266   1.152   0.935   9.372
 1236SOL     OW 4267   1.845   1.542  10.147
 1236SOL    HW1 4268   1.763   1.541  10.098
 1236SOL    HW2 4269   1.832   1.482  10.219
 1237SOL     OW 4270   0.226   1.304  11.166
 1237SOL    HW1 4271   0.154   1.247  11.139
 1237SOL    HW2 4272   0.212   1.317  11.260
 1238SOL     OW 4273   0.121   1.280  10.031
 1238SOL    HW1 4274   0.135   1.228  10.111
 1238SOL    HW2 4275   0.106   1.214   9.963
 1239SOL     OW 4276   0.682   1.405  10.940
 1239SOL    HW1 4277   0.602   1.362  10.970
 1239SOL    HW2 4278   0.678   1.493  10.977
 1240SOL     OW 4279   1.811   0.183  10.548
 1240SOL    HW1 4280   1.814   0.089  10.564
 1240SOL    HW2 4281   1.826   0.193  10.454
 1241SOL     OW 4282   0.444   0.438   9.841
 1241SOL    HW1 4283   0.461   0.362   9.785
 1241SOL    HW2 4284   0.389   0.403   9.911
 1242SOL     OW 4285   1.701   1.473  10.397
 1242SOL    HW1 4286   1.618   1.456  10.353
 1242SOL    HW2 4287   1.707   1.407  10.466
 1243SOL     OW 4288   0.333   0.557  10.603
 1243SOL    HW1 4289   0.389   0.501  10.656
 1243SOL    HW2 4290   0.348   0.529  10.513
 1244SOL     OW 4291   0.829   1.579   9.986
 1244SOL    HW1 4292   0.813   1.640   9.914
 1244SOL    HW2 4293   0.753   1.520   9.984
 1245SOL     OW 4294   1.461   0.254  10.420
 1245SOL    HW1 4295   1.478   0.167  10.457
 1245SOL    HW2 4296   1.405   0.296  10.486
 1246SOL     OW 4297   1.003   0.028  10.456
 1246SOL    HW1 4298   0.923   3.991  10.420
 1246SOL    HW2 4299   1.063   3.954  10.465
 1247SOL     OW 4300   0.772   1.333   9.628
 1247SOL    HW1 4301   0.743   1.242   9.634
 1247SOL    HW2 4302   0.855   1.335   9.677
 1248SOL     OW 4303   0.620   1.556  10.596
 1248SOL    HW1 4304   0.622   1.639  10.645
 1248SOL    HW2 4305   0.708   1.549  10.559
 1249SOL     OW 4306   1.311   0.074   9.475
 1249SOL    HW1 4307   1.323   3.995   9.423
 1249SOL    HW2 4308   1.225   0.062   9.516
 1250SOL     OW 4309   1.282   0.457   9.995
 1250SOL    HW1 4310   1.235   0.540   9.990
 1250SOL    HW2 4311   1.284   0.437  10.089
 1251SOL     OW 4312   1.588   0.210  10.178
 1251SOL    HW1 4313   1.539   0.234  10.256
 1251SOL    HW2 4314   1.588   0.289  10.124
 1252SOL     OW 4315   0.047   1.049   9.551
 1252SOL    HW1 4316   0.141   1.032   9.542
 1252SOL    HW2 4317   0.011   0.965   9.580
 1253SOL     OW 4318   0.887   1.656   9.650
 1253SOL    HW1 4319   0.813   1.639   9.591
 1253SOL    HW2 4320   0.858   1.730   9.704
 1254SOL     OW 4321   0.232   0.628  11.289
 1254SOL    HW1 4322   0.139   0.632  11.311
 1254SOL    HW2 4323   0.235   0.598  11.198
 1255SOL     OW 4324   0.224   0.289  12.155
 1255SOL    HW1 4325   0.247   0.250  12.239
 1255SOL    HW2 4326   0.129   0.278  12.148
 1256SOL     OW 4327   0.019   0.385  11.808
 1256SOL    HW1 4328   3.928   0.398  11.835
 1256SOL    HW2 4329   0.025   0.291  11.793
 1257SOL     OW 4330   0.581   1.289  12.363
 1257SOL    HW1 4331   0.494   1.291  12.322
 1257SOL    HW2 4332   0.594   1.378  12.395
 1258SOL     OW 4333   1.567   1.514  11.881
 1258SOL    HW1 4334   1.525   1.494  11.964
 1258SOL    HW2 4335   1.496   1.519  11.818
 1259SOL     OW 4336   1.133   0.698  11.869
 1259SOL    HW1 4337   1.180   0.781  11.857
 1259SOL    HW2 4338   1.085   0.710  11.951
 1260SOL     OW 4339   1.766   0.619  11.397
 1260SOL    HW1 4340   1.745   0.612  11.304
 1260SOL    HW2 4341   1.752   0.531  11.432
 1261SOL     OW 4342   0.753   1.139  12.214
 1261SOL    HW1 4343   0.690   1.175  12.276
 1261SOL    HW2 4344   0.789   1.216  12.170
 1262SOL     OW 4345   0.871   0.770  12.995
 1262SOL    HW1 4346   0.860   0.843  13.057
 1262SOL    HW2 4347   0.893   0.813  12.912
 1263SOL     OW 4348   0.685   1.002  11.818
 1263SOL    HW1 4349   0.751   0.991  11.886
 1263SOL    HW2 4350   0.616   1.054  11.859
 1264SOL     OW 4351   0.712   1.149  12.988
 1264SOL    HW1 4352   0.760   1.227  13.016
 1264SOL    HW2 4353   0.630   1.183  12.950
 1265SOL     OW 4354   0.351   1.401  12.251
 1265SOL    HW1 4355   0.270   1.380  12.204
 1265SOL    HW2 4356   0.399   1.459  12.191
 1266SOL     OW 4357   1.461   1.501  12.529
 1266SOL    HW1 4358   1.514   1.580  12.538
 1266SOL    HW2 4359   1.395   1.508  12.599
 1267SOL     OW 4360   0.457   0.408  12.668
 1267SOL    HW1 4361   0.539   0.358  12.667
 1267SOL    HW2 4362   0.388   0.342  12.671
 1268SOL     OW 4363   1.612   0.451  11.907
 1268SOL    HW1 4364   1.542   0.482  11.849
 1268SOL    HW2 4365   1.630   0.524  11.965
 1269SOL     OW 4366   0.220   1.719  11.629
 1269SOL    HW1 4367   0.240   1.793  11.687
 1269SOL    HW2 4368   0.297   1.711  11.573
 1270SOL     OW 4369   1.137   1.342  12.865
 1270SOL    HW1 4370   1.178   1.336  12.952
 1270SOL    HW2 4371   1.085   1.262  12.858
 1271SOL     OW 4372   0.250   1.450  11.712
 1271SOL    HW1 4373   0.215   1.538  11.697
 1271SOL    HW2 4374   0.182   1.406  11.763
 1272SOL     OW 4375   0.248   1.066  12.056
 1272SOL    HW1 4376   0.267   0.981  12.095
 1272SOL    HW2 4377   0.195   1.111  12.122
 1273SOL     OW 4378   0.610   1.792  12.599
 1273SOL    HW1 4379   0.528   1.774  12.644
 1273SOL    HW2 4380   0.633   1.882  12.625
 1274SOL     OW 4381   0.577   0.986  11.311
 1274SOL    HW1 4382   0.625   1.030  11.241
 1274SOL    HW2 4383   0.618   1.016  11.392
 1275SOL     OW 4384   1.581   0.140  12.627
 1275SOL    HW1 4385   1.611   0.213  12.573
 1275SOL    HW2 4386   1.548   0.182  12.707
 1276SOL     OW 4387   0.140   0.652  11.742
 1276SOL    HW1 4388   0.098   0.566  11.746
 1276SOL    HW2 4389   0.102   0.701  11.814
 1277SOL     OW 4390   0.044   1.590  11.310
 1277SOL    HW1 4391   0.037   1.497  11.336
 1277SOL    HW2 4392   3.961   1.628  11.337
 1278SOL     OW 4393   1.687   0.916  11.814
 1278SOL    HW1 4394   1.771   0.876  11.795
 1278SOL    HW2 4395   1.667   0.969  11.736
 1279SOL     OW 4396   1.648   1.105  11.601
 1279SOL    HW1 4397   1.735   1.109  11.560
 1279SOL    HW2 4398   1.653   1.168  11.674
 1280SOL     OW 4399   0.141   0.756  12.761
 1280SOL    HW1 4400   0.236   0.751  12.756
 1280SOL    HW2 4401   0.123   0.844  12.793
 1281SOL     OW 4402   0.613   1.387  11.908
 1281SOL    HW1 4403   0.567   1.303  11.917
 1281SOL    HW2 4404   0.597   1.413  11.817
 1282SOL     OW 4405   1.287   1.237  12.594
 1282SOL    HW1 4406   1.319   1.170  12.534
 1282SOL    HW2 4407   1.346   1.232  12.670
 1283SOL     OW 4408   0.820   0.004  11.688
 1283SOL    HW1 4409   0.865   0.084  11.664
 1283SOL    HW2 4410   0.727   0.027  11.688
 1284SOL     OW 4411   0.184   0.950  12.450
 1284SOL    HW1 4412   0.272   0.915  12.438
 1284SOL    HW2 4413   0.132   0.908  12.382
 1285SOL     OW 4414   1.531   0.996  11.372
 1285SOL    HW1 4415   1.462   0.939  11.405
 1285SOL    HW2 4416   1.574   1.030  11.451
 1286SOL     OW 4417   1.184   1.809  12.796
 1286SOL    HW1 4418   1.194   1.869  12.722
 1286SOL    HW2 4419   1.202   1.722  12.759
 1287SOL     OW 4420   0.344   0.252  13.008
 1287SOL    HW1 4421   0.387   0.336  12.990
 1287SOL    HW2 4422   0.253   0.275  13.029
 1288SOL     OW 4423   1.465   1.419  12.121
 1288SOL    HW1 4424   1.398   1.435  12.187
 1288SOL    HW2 4425   1.452   1.328  12.095
 1289SOL     OW 4426   1.663   1.736  11.728
 1289SOL    HW1 4427   1.630   1.698  11.647
 1289SOL    HW2 4428   1.646   1.669  11.795
 1290SOL     OW 4429   0.596   0.717  11.438
 1290SOL    HW1 4430   0.601   0.801  11.393
 1290SOL    HW2 4431   0.533   0.731  11.509
 1291SOL     OW 4432   1.274   0.369  12.113
 1291SOL    HW1 4433   1.187   0.330  12.120
 1291SOL    HW2 4434   1.332   0.307  12.158
 1292SOL     OW 4435   1.575   1.671  11.469
 1292SOL    HW1 4436   1.664   1.698  11.447
 1292SOL    HW2 4437   1.536   1.648  11.386
 1293SOL     OW 4438   0.794   0.616  12.625
 1293SOL    HW1 4439   0.765   0.590  12.713
 1293SOL    HW2 4440   0.756   0.550  12.567
 1294SOL     OW 4441   1.392   0.476  12.850
 1294SOL    HW1 4442   1.399   0.521  12.934
 1294SOL    HW2 4443   1.449   0.400  12.859
 1295SOL     OW 4444   0.952   0.887  12.756
 1295SOL    HW1 4445   1.007   0.818  12.719
 1295SOL    HW2 4446   0.904   0.922  12.681
 1296SOL     OW 4447   0.992   0.403  12.410
 1296SOL    HW1 4448   0.907   0.424  12.448
 1296SOL    HW2 4449   0.972   0.374  12.321
 1297SOL     OW 4450   1.052   0.699  11.597
 1297SOL    HW1 4451   1.069   0.692  11.691
 1297SOL    HW2 4452   0.970   0.653  11.584
 1298SOL     OW 4453   0.081   0.829  11.962
 1298SOL    HW1 4454   0.154   0.795  12.015
 1298SOL    HW2 4455   0.102   0.921  11.948
 1299SOL     OW 4456   0.130   1.863  12.749
 1299SOL    HW1 4457   0.137   1.828  12.838
 1299SOL    HW2 4458   0.038   1.851  12.727
 1300SOL     OW 4459   0.894   0.352  11.370
 1300SOL    HW1 4460   0.936   0.412  11.308
 1300SOL    HW2 4461   0.892   0.268  11.325
 1301SOL     OW 4462   1.708   0.576  13.001
 1301SOL    HW1 4463   1.670   0.649  12.952
 1301SOL    HW2 4464   1.732   0.512  12.933
 1302SOL     OW 4465   1.378   1.141  11.711
 1302SOL    HW1 4466   1.458   1.131  11.660
 1302SOL    HW2 4467   1.326   1.204  11.662
 1303SOL     OW 4468   0.561   0.195  12.053
 1303SOL    HW1 4469   0.566   0.219  12.145
 1303SOL    HW2 4470   0.547   0.278  12.007
 1304SOL     OW 4471   1.003   1.444  11.642
 1304SOL    HW1 4472   0.968   1.518  11.593
 1304SOL    HW2 4473   0.983   1.464  11.733
 1305SOL     OW 4474   0.365   1.819  12.042
 1305SOL    HW1 4475   0.428   1.748  12.051
 1305SOL    HW2 4476   0.416   1.899  12.058
 1306SOL     OW 4477   1.799   1.051  12.043
 1306SOL    HW1 4478   1.746   1.037  11.965
 1306SOL    HW2 4479   1.736   1.059  12.115
 1307SOL     OW 4480   1.228   1.539  12.685
 1307SOL    HW1 4481   1.215   1.466  12.746
 1307SOL    HW2 4482   1.163   1.524  12.616
 1308SOL     OW 4483   0.310   0.954  11.414
 1308SOL    HW1 4484   0.394   0.976  11.373
 1308SOL    HW2 4485   0.298   0.861  11.394
 1309SOL     OW 4486   1.479   0.748  11.901
 1309SOL    HW1 4487   1.474   0.706  11.987
 1309SOL    HW2 4488   1.557   0.803  11.906
 1310SOL     OW 4489   0.468   1.260  12.909
 1310SOL    HW1 4490   0.442   1.268  12.817
 1310SOL    HW2 4491   0.386   1.264  12.958
 1311SOL     OW 4492   1.123   1.776  11.403
 1311SOL    HW1 4493   1.048   1.737  11.447
 1311SOL    HW2 4494   1.146   1.714  11.334
 1312SOL     OW 4495   0.201   0.294  12.672
 1312SOL    HW1 4496   0.107   0.314  12.671
 1312SOL    HW2 4497   0.209   0.222  12.734
 1313SOL     OW 4498   1.628   1.381  11.260
 1313SOL    HW1 4499   1.586   1.465  11.243
 1313SOL    HW2 4500   1.560   1.316  11.240
 1314SOL     OW 4501   0.466   1.739  11.488
 1314SOL    HW1 4502   0.509   1.796  11.552
 1314SOL    HW2 4503   0.538   1.703  11.435
 1315SOL     OW 4504   1.441   0.166  11.577
 1315SOL    HW1 4505   1.394   0.099  11.528
 1315SOL    HW2 4506   1.511   0.118  11.621
 1316SOL     OW 4507   0.252   1.791  12.403
 1316SOL    HW1 4508   0.298   1.726  12.456
 1316SOL    HW2 4509   0.250   1.753  12.315
 1317SOL     OW 4510   0.938   1.699  12.070
 1317SOL    HW1 4511   1.017   1.649  12.090
 1317SOL    HW2 4512   0.896   1.649  12.000
 1318SOL     OW 4513   0.397   0.694  11.643
 1318SOL    HW1 4514   0.423   0.603  11.658
 1318SOL    HW2 4515   0.305   0.698  11.668
 1319SOL     OW 4516   1.529   0.229  12.898
 1319SOL    HW1 4517   1.526   0.254  12.990
 1319SOL    HW2 4518   1.512   0.135  12.898
 1320SOL     OW 4519   0.645   0.130  11.275
 1320SOL    HW1 4520   0.668   0.046  11.315
 1320SOL    HW2 4521   0.584   0.107  11.205
 1321SOL     OW 4522   0.776   0.284  12.939
 1321SOL    HW1 4523   0.850   0.223  12.941
 1321SOL    HW2 4524   0.720   0.255  13.011
 1322SOL     OW 4525   0.875   1.522  12.366
 1322SOL    HW1 4526   0.860   1.485  12.279
 1322SOL    HW2 4527   0.945   1.468  12.403
 1323SOL     OW 4528   1.339   0.587  12.603
 1323SOL    HW1 4529   1.370   0.558  12.689
 1323SOL    HW2 4530   1.375   0.676  12.593
 1324SOL     OW 4531   0.816   1.393  12.114
 1324SOL    HW1 4532   0.901   1.381  12.072
 1324SOL    HW2 4533   0.754   1.395  12.041
 1325SOL     OW 4534   0.930   0.512  12.072
 1325SOL    HW1 4535   0.906   0.504  11.980
 1325SOL    HW2 4536   0.955   0.423  12.098
 1326SOL     OW 4537   0.546   0.056  11.659
 1326SOL    HW1 4538   0.473   0.063  11.720
 1326SOL    HW2 4539   0.548   0.140  11.613
 1327SOL     OW 4540   1.427   1.199  11.212
 1327SOL    HW1 4541   1.457   1.123  11.263
 1327SOL    HW2 4542   1.342   1.220  11.250
 1328SOL     OW 4543   0.346   0.037  11.370
 1328SOL    HW1 4544   0.360   0.086  11.289
 1328SOL    HW2 4545   0.431   0.037  11.413
 1329SOL     OW 4546   0.942   0.249  11.633
 1329SOL    HW1 4547   0.916   0.290  11.550
 1329SOL    HW2 4548   1.038   0.254  11.632
 1330SOL     OW 4549   1.079   0.683  12.630
 1330SOL    HW1 4550   1.010   0.618  12.637
 1330SOL    HW2 4551   1.160   0.632  12.625
 1331SOL     OW 4552   1.221   1.571  11.967
 1331SOL    HW1 4553   1.237   1.637  11.899
 1331SOL    HW2 4554   1.291   1.585  12.031
 1332SOL     OW 4555   0.466   1.151  11.907
 1332SOL    HW1 4556   0.395   1.126  11.966
 1332SOL    HW2 4557   0.432   1.135  11.820
 1333SOL     OW 4558   1.264   1.793  11.781
 1333SOL    HW1 4559   1.310   1.856  11.725
 1333SOL    HW2 4560   1.198   1.844  11.827
 1334SOL     OW 4561   1.022   0.543  11.201
 1334SOL    HW1 4562   0.979   0.626  11.181
 1334SOL    HW2 4563   1.086   0.564  11.269
 1335SOL     OW 4564   0.081   0.573  12.565
 1335SOL    HW1 4565   0.170   0.555  12.535
 1335SOL    HW2 4566   0.090   0.645  12.628
 1336SOL     OW 4567   0.572   0.231  12.331
 1336SOL    HW1 4568   0.594   0.138  12.340
 1336SOL    HW2 4569   0.481   0.237  12.361
 1337SOL     OW 4570   0.871   0.461  11.810
 1337SOL    HW1 4571   0.820   0.514  11.749
 1337SOL    HW2 4572   0.891   0.381  11.763
 1338SOL     OW 4573   0.996   0.040  11.953
 1338SOL    HW1 4574   0.960   0.069  11.869
 1338SOL    HW2 4575   1.007   3.945  11.942
 1339SOL     OW 4576   1.438   1.161  12.029
 1339SOL    HW1 4577   1.368   1.096  12.027
 1339SOL    HW2 4578   1.465   1.172  11.938
 1340SOL     OW 4579   1.465   0.607  12.146
 1340SOL    HW1 4580   1.411   0.528  12.151
 1340SOL    HW2 4581   1.524   0.600  12.221
 1341SOL     OW 4582   1.844   0.819  11.559
 1341SOL    HW1 4583   1.901   0.766  11.615
 1341SOL    HW2 4584   1.815   0.758  11.491
 1342SOL     OW 4585   0.487   1.421  11.331
 1342SOL    HW1 4586   0.412   1.390  11.381
 1342SOL    HW2 4587   0.473   1.388  11.243
 1343SOL     OW 4588   1.671   1.263  11.817
 1343SOL    HW1 4589   1.765   1.262  11.831
 1343SOL    HW2 4590   1.644   1.353  11.839
 1344SOL     OW 4591   1.395   0.576  11.241
 1344SOL    HW1 4592   1.332   0.556  11.310
 1344SOL    HW2 4593   1.480   0.556  11.280
 1345SOL     OW 4594   0.557   0.271  11.490
 1345SOL    HW1 4595   0.605   0.231  11.417
 1345SOL    HW2 4596   0.528   0.355  11.456
 1346SOL     OW 4597   1.751   1.240  12.742
 1346SOL    HW1 4598   1.838   1.202  12.735
 1346SOL    HW2 4599   1.766   1.331  12.769
 1347SOL     OW 4600   1.056   1.354  12.505
 1347SOL    HW1 4601   0.981   1.322  12.556
 1347SOL    HW2 4602   1.132   1.312  12.546
 1348SOL     OW 4603   1.608   1.625  12.827
 1348SOL    HW1 4604   1.602   1.662  12.739
 1348SOL    HW2 4605   1.692   1.579  12.827
 1349SOL     OW 4606   1.132   1.206  12.276
 1349SOL    HW1 4607   1.072   1.244  12.341
 1349SOL    HW2 4608   1.100   1.239  12.192
 1350SOL     OW 4609   1.625   1.097  12.249
 1350SOL    HW1 4610   1.619   1.158  12.321
 1350SOL    HW2 4611   1.548   1.115  12.195
 1351SOL     OW 4612   0.912   0.115  12.573
 1351SOL    HW1 4613   0.932   0.088  12.483
 1351SOL    HW2 4614   0.993   0.157  12.604
 1352SOL     OW 4615   0.984   1.115  12.896
 1352SOL    HW1 4616   0.893   1.132  12.917
 1352SOL    HW2 4617   0.982   1.037  12.840
 1353SOL     OW 4618   0.708   1.061  11.542
 1353SOL    HW1 4619   0.694   1.044  11.636
 1353SOL    HW2 4620   0.784   1.008  11.519
 1354SOL     OW 4621   0.422   0.817  12.425
 1354SOL    HW1 4622   0.491   0.823  12.491
 1354SOL    HW2 4623   0.388   0.728  12.434
 1355SOL     OW 4624   1.266   0.375  12.449
 1355SOL    HW1 4625   1.300   0.453  12.493
 1355SOL    HW2 4626   1.178   0.400  12.419
 1356SOL     OW 4627   0.065   1.580  12.518
 1356SOL    HW1 4628   0.071   1.635  12.440
 1356SOL    HW2 4629   0.156   1.567  12.545
 1357SOL     OW 4630   0.371   1.103  11.654
 1357SOL    HW1 4631   0.365   1.182  11.600
 1357SOL    HW2 4632   0.370   1.031  11.592
 1358SOL     OW 4633   0.554   0.535  12.030
 1358SOL    HW1 4634   0.568   0.593  11.956
 1358SOL    HW2 4635   0.620   0.561  12.094
 1359SOL     OW 4636   1.247   1.349  11.562
 1359SOL    HW1 4637   1.303   1.419  11.594
 1359SOL    HW2 4638   1.160   1.370  11.595
 1360SOL     OW 4639   1.284   1.459  12.320
 1360SOL    HW1 4640   1.341   1.463  12.397
 1360SOL    HW2 4641   1.230   1.382  12.334
 1361SOL     OW 4642   1.575   0.634  11.659
 1361SOL    HW1 4643   1.532   0.690  11.723
 1361SOL    HW2 4644   1.622   0.694  11.601
 1362SOL     OW 4645   0.345   1.527  12.490
 1362SOL    HW1 4646   0.336   1.477  12.410
 1362SOL    HW2 4647   0.440   1.542  12.498
 1363SOL     OW 4648   0.417   0.738  12.773
 1363SOL    HW1 4649   0.479   0.783  12.717
 1363SOL    HW2 4650   0.454   0.651  12.785
 1364SOL     OW 4651   1.604   0.781  12.857
 1364SOL    HW1 4652   1.518   0.822  12.850
 1364SOL    HW2 4653   1.656   0.822  12.788
 1365SOL     OW 4654   1.011   0.134  12.951
 1365SOL    HW1 4655   1.064   0.206  12.916
 1365SOL    HW2 4656   1.003   0.073  12.878
 1366SOL     OW 4657   0.481   0.036  12.938
 1366SOL    HW1 4658   0.491   0.045  12.843
 1366SOL    HW2 4659   0.420   0.106  12.963
 1367SOL     OW 4660   0.585   0.875  12.204
 1367SOL    HW1 4661   0.617   0.965  12.205
 1367SOL    HW2 4662   0.529   0.867  12.281
 1368SOL     OW 4663   1.353   0.858  12.199
 1368SOL    HW1 4664   1.269   0.846  12.155
 1368SOL    HW2 4665   1.397   0.773  12.191
 1369SOL     OW 4666   1.200   0.537  11.430
 1369SOL    HW1 4667   1.209   0.458  11.483
 1369SOL    HW2 4668   1.157   0.600  11.488
 1370SOL     OW 4669   0.311   0.212  12.412
 1370SOL    HW1 4670   0.268   0.248  12.489
 1370SOL    HW2 4671   0.296   0.118  12.418
 1371SOL     OW 4672   0.061   1.306  12.452
 1371SOL    HW1 4673   0.091   1.264  12.533
 1371SOL    HW2 4674   0.052   1.398  12.475
 1372SOL     OW 4675   0.725   0.634  12.225
 1372SOL    HW1 4676   0.799   0.619  12.167
 1372SOL    HW2 4677   0.695   0.722  12.204
 1373SOL     OW 4678   1.737   0.958  13.028
 1373SOL    HW1 4679   1.692   0.896  12.972
 1373SOL    HW2 4680   1.676   0.974  13.100
 1374SOL     OW 4681   0.330   0.055  11.826
 1374SOL    HW1 4682   0.301   0.146  11.827
 1374SOL    HW2 4683   0.293   0.017  11.906
 1375SOL     OW 4684   1.607   0.391  11.553
 1375SOL    HW1 4685   1.567   0.324  11.607
 1375SOL    HW2 4686   1.587   0.473  11.598
 1376SOL     OW 4687   1.030   0.759  12.131
 1376SOL    HW1 4688   1.023   0.776  12.225
 1376SOL    HW2 4689   1.002   0.668  12.121
 1377SOL     OW 4690   0.982   1.566  12.891
 1377SOL    HW1 4691   0.966   1.610  12.807
 1377SOL    HW2 4692   1.026   1.484  12.867
 1378SOL     OW 4693   1.854   1.502  12.776
 1378SOL    HW1 4694   1.870   1.532  12.686
 1378SOL    HW2 4695   1.938   1.513  12.820
 1379SOL     OW 4696   0.353   0.921  12.972
 1379SOL    HW1 4697   0.431   0.942  13.023
 1379SOL    HW2 4698   0.381   0.853  12.910
 1380SOL     OW 4699   1.505   0.275  11.307
 1380SOL    HW1 4700   1.431   0.215  11.319
 1380SOL    HW2 4701   1.518   0.314  11.393
 1381SOL     OW 4702   1.289   0.827  11.201
 1381SOL    HW1 4703   1.331   0.741  11.204
 1381SOL    HW2 4704   1.321   0.866  11.120
 1382SOL     OW 4705   1.066   1.337  12.028
 1382SOL    HW1 4706   1.071   1.265  11.965
 1382SOL    HW2 4707   1.127   1.403  11.993
 1383SOL     OW 4708   0.313   0.803  12.122
 1383SOL    HW1 4709   0.407   0.819  12.116
 1383SOL    HW2 4710   0.306   0.713  12.154
 1384SOL     OW 4711   0.338   0.528  12.187
 1384SOL    HW1 4712   0.297   0.444  12.169
 1384SOL    HW2 4713   0.413   0.532  12.128
 1385SOL     OW 4714   1.133   0.380  12.869
 1385SOL    HW1 4715   1.085   0.435  12.931
 1385SOL    HW2 4716   1.220   0.420  12.864
 1386SOL     OW 4717   1.151   0.225  12.654
 1386SOL    HW1 4718   1.142   0.280  12.732
 1386SOL    HW2 4719   1.176   0.286  12.585
 1387SOL     OW 4720   0.000   1.317  11.354
 1387SOL    HW1 4721   3.906   1.333  11.358
 1387SOL    HW2 4722   0.009   1.224  11.373
 1388SOL     OW 4723   0.078   1.800  12.061
 1388SOL    HW1 4724   0.083   1.705  12.064
 1388SOL    HW2 4725   0.169   1.830  12.065
 1389SOL     OW 4726   0.500   1.571  12.083
 1389SOL    HW1 4727   0.570   1.632  12.108
 1389SOL    HW2 4728   0.544   1.508  12.025
 1390SOL     OW 4729   0.978   0.789  12.396
 1390SOL    HW1 4730   1.034   0.769  12.471
 1390SOL    HW2 4731   0.894   0.751  12.419
 1391SOL     OW 4732   0.035   0.574  12.284
 1391SOL    HW1 4733   0.097   0.521  12.233
 1391SOL    HW2 4734   0.061   0.560  12.375
 1392SOL     OW 4735   0.211   0.516  12.894
 1392SOL    HW1 4736   0.257   0.476  12.820
 1392SOL    HW2 4737   0.164   0.590  12.856
 1393SOL     OW 4738   1.378   0.937  12.829
 1393SOL    HW1 4739   1.400   1.030  12.826
 1393SOL    HW2 4740   1.375   0.910  12.737
 1394SOL     OW 4741   0.818   0.572  11.534
 1394SOL    HW1 4742   0.825   0.496  11.477
 1394SOL    HW2 4743   0.743   0.621  11.501
 1395SOL     OW 4744   1.640   0.602  12.355
 1395SOL    HW1 4745   1.631   0.541  12.429
 1395SOL    HW2 4746   1.728   0.585  12.321
 1396SOL     OW 4747   0.300   1.545  12.897
 1396SOL    HW1 4748   0.251   1.614  12.942
 1396SOL    HW2 4749   0.269   1.464  12.938
 1397SOL     OW 4750   0.710   0.454  12.428
 1397SOL    HW1 4751   0.660   0.376  12.403
 1397SOL    HW2 4752   0.700   0.513  12.354
 1398SOL     OW 4753   0.924   1.679  12.642
 1398SOL    HW1 4754   0.900   1.642  12.557
 1398SOL    HW2 4755   0.919   1.774  12.629
 1399SOL     OW 4756   0.454   0.492  11.370
 1399SOL    HW1 4757   0.518   0.561  11.386
 1399SOL    HW2 4758   0.374   0.539  11.345
 1400SOL     OW 4759   0.156   1.135  12.646
 1400SOL    HW1 4760   0.157   1.084  12.728
 1400SOL    HW2 4761   0.171   1.070  12.578
 1401SOL     OW 4762   1.323   1.045  12.394
 1401SOL    HW1 4763   1.346   0.982  12.326
 1401SOL    HW2 4764   1.255   1.099  12.354
 1402SOL     OW 4765   1.314   0.856  11.477
 1402SOL    HW1 4766   1.239   0.827  11.528
 1402SOL    HW2 4767   1.287   0.843  11.386
 1403SOL     OW 4768   1.742   1.733  12.309
 1403SOL    HW1 4769   1.818   1.756  12.256
 1403SOL    HW2 4770   1.728   1.640  12.292
 1404SOL     OW 4771   1.243   1.734  12.280
 1404SOL    HW1 4772   1.326   1.756  12.238
 1404SOL    HW2 4773   1.250   1.641  12.300
 1405SOL     OW 4774   0.077   1.217  12.199
 1405SOL    HW1 4775   0.084   1.242  12.291
 1405SOL    HW2 4776   3.985   1.226  12.178
 1406SOL     OW 4777   0.679   1.668  12.906
 1406SOL    HW1 4778   0.621   1.743  12.898
 1406SOL    HW2 4779   0.746   1.681  12.839
 1407SOL     OW 4780   1.714   0.124  11.660
 1407SOL    HW1 4781   1.792   0.134  11.606
 1407SOL    HW2 4782   1.705   0.030  11.672
 1408SOL     OW 4783   1.391   1.568  11.659
 1408SOL    HW1 4784   1.446   1.601  11.589
 1408SOL    HW2 4785   1.341   1.644  11.689
 1409SOL     OW 4786   0.174   1.763  13.002
 1409SOL    HW1 4787   0.118   1.712  13.060
 1409SOL    HW2 4788   0.217   1.827  13.060
 1410SOL     OW 4789   1.277   0.928  11.843
 1410SOL    HW1 4790   1.351   0.868  11.854
 1410SOL    HW2 4791   1.312   0.999  11.790
 1411SOL     OW 4792   0.810   1.274  12.600
 1411SOL    HW1 4793   0.781   1.315  12.682
 1411SOL    HW2 4794   0.739   1.292  12.538
 1412SOL     OW 4795   0.670   1.622  11.327
 1412SOL    HW1 4796   0.681   1.634  11.233
 1412SOL    HW2 4797   0.615   1.544  11.335
 1413SOL     OW 4798   1.621   1.729  12.562
 1413SOL    HW1 4799   1.666   1.734  12.478
 1413SOL    HW2 4800   1.609   1.820  12.589
 1414SOL     OW 4801   1.839   0.178  12.138
 1414SOL    HW1 4802   1.872   0.111  12.078
 1414SOL    HW2 4803   1.751   0.197  12.107
 1415SOL     OW 4804   0.275   0.322  11.886
 1415SOL    HW1 4805   0.189   0.357  11.860
 1415SOL    HW2 4806   0.266   0.306  11.980
 1416SOL     OW 4807   1.206   1.604  11.204
 1416SOL    HW1 4808   1.196   1.512  11.230
 1416SOL    HW2 4809   1.141   1.616  11.135
 1417SOL     OW 4810   0.823   1.005  12.545
 1417SOL    HW1 4811   0.867   1.000  12.460
 1417SOL    HW2 4812   0.822   1.099  12.566
 1418SOL     OW 4813   0.915   0.910  11.462
 1418SOL    HW1 4814   0.977   0.943  11.396
 1418SOL    HW2 4815   0.964   0.842  11.508
 1419SOL     OW 4816   1.486   1.623  11.212
 1419SOL    HW1 4817   1.392   1.617  11.195
 1419SOL    HW2 4818   1.525   1.630  11.125
 1420SOL     OW 4819   0.374   1.303  12.664
 1420SOL    HW1 4820   0.359   1.383  12.613
 1420SOL    HW2 4821   0.297   1.248  12.646
 1421SOL     OW 4822   1.608   1.282  12.453
 1421SOL    HW1 4823   1.670   1.270  12.525
 1421SOL    HW2 4824   1.549   1.351  12.483
 1422SOL     OW 4825   1.056   1.109  11.880
 1422SOL    HW1 4826   0.984   1.058  11.918
 1422SOL    HW2 4827   1.119   1.043  11.851
 1423SOL     OW 4828   1.014   0.249  12.142
 1423SOL    HW1 4829   1.004   0.199  12.061
 1423SOL    HW2 4830   1.010   0.184  12.211
 1424SOL     OW 4831   0.606   1.489  11.654
 1424SOL    HW1 4832   0.652   1.439  11.586
 1424SOL    HW2 4833   0.532   1.528  11.608
 1425SOL     OW 4834   1.721   0.394  12.544
 1425SOL    HW1 4835   1.793   0.456  12.548
 1425SOL    HW2 4836   1.754   0.322  12.490
 1426SOL     OW 4837   0.254   1.341  11.465
 1426SOL    HW1 4838   0.160   1.348  11.446
 1426SOL    HW2 4839   0.264   1.380  11.552
 1427SOL     OW 4840   0.108   0.999  12.890
 1427SOL    HW1 4841   0.048   0.992  12.964
 1427SOL    HW2 4842   0.194   0.980  12.927
 1428SOL     OW 4843   0.694   0.253  12.673
 1428SOL    HW1 4844   0.762   0.200  12.631
 1428SOL    HW2 4845   0.722   0.262  12.764
 1429SOL     OW 4846   0.088   0.321  11.199
 1429SOL    HW1 4847   3.993   0.319  11.191
 1429SOL    HW2 4848   0.113   0.404  11.157
 1430SOL     OW 4849   1.427   0.857  12.570
 1430SOL    HW1 4850   1.378   0.919  12.516
 1430SOL    HW2 4851   1.516   0.859  12.536
 1431SOL     OW 4852   0.037   0.168  11.456
 1431SOL    HW1 4853   0.037   0.231  11.384
 1431SOL    HW2 4854   0.113   0.192  11.509
 1432SOL     OW 4855   1.178   1.337  11.289
 1432SOL    HW1 4856   1.087   1.307  11.291
 1432SOL    HW2 4857   1.205   1.338  11.381
 1433SOL     OW 4858   0.621   0.829  12.609
 1433SOL    HW1 4859   0.677   0.904  12.593
 1433SOL    HW2 4860   0.681   0.755  12.617
 1434SOL     OW 4861   1.489   1.785  12.156
 1434SOL    HW1 4862   1.511   1.851  12.090
 1434SOL    HW2 4863   1.572   1.766  12.200
 1435SOL     OW 4864   0.717   0.562  12.879
 1435SOL    HW1 4865   0.762   0.624  12.937
 1435SOL    HW2 4866   0.744   0.476  12.910
 1436SOL     OW 4867   1.473   1.197  12.803
 1436SOL    HW1 4868   1.461   1.212  12.896
 1436SOL    HW2 4869   1.566   1.214  12.787
 1437SOL     OW 4870   0.378   1.743  12.729
 1437SOL    HW1 4871   0.291   1.781  12.716
 1437SOL    HW2 4872   0.362   1.661  12.776
 1438SOL     OW 4873   1.667   0.881  12.428
 1438SOL    HW1 4874   1.662   0.795  12.385
 1438SOL    HW2 4875   1.657   0.944  12.357
 1439SOL     OW 4876   1.223   0.336  11.614
 1439SOL    HW1 4877   1.291   0.269  11.607
 1439SOL    HW2 4878   1.242   0.381  11.697
 1440SOL     OW 4879   0.590   0.738  11.843
 1440SOL    HW1 4880   0.628   0.824  11.827
 1440SOL    HW2 4881   0.523   0.728  11.776
 1441SOL     OW 4882   1.751   0.384  12.815
 1441SOL    HW1 4883   1.733   0.389  12.721
 1441SOL    HW2 4884   1.695   0.313  12.846
 1442SOL     OW 4885   1.746   0.934  12.684
 1442SOL    HW1 4886   1.739   1.029  12.697
 1442SOL    HW2 4887   1.730   0.921  12.591
 1443SOL     OW 4888   0.863   1.366  11.210
 1443SOL    HW1 4889   0.825   1.395  11.293
 1443SOL    HW2 4890   0.880   1.447  11.162
 1444SOL     OW 4891   0.663   1.788  12.114
 1444SOL    HW1 4892   0.643   1.879  12.092
 1444SOL    HW2 4893   0.758   1.782  12.107
 1445SOL     OW 4894   0.869   0.968  12.025
 1445SOL    HW1 4895   0.919   0.896  12.064
 1445SOL    HW2 4896   0.832   1.015  12.100
 1446SOL     OW 4897   1.078   0.989  11.261
 1446SOL    HW1 4898   1.056   1.040  11.183
 1446SOL    HW2 4899   1.152   0.935  11.234
 1447SOL     OW 4900   1.845   1.541  12.008
 1447SOL    HW1 4901   1.762   1.540  11.960
 1447SOL    HW2 4902   1.831   1.481  12.081
 1448SOL     OW 4903   0.226   1.304  13.028
 1448SOL    HW1 4904   0.153   1.248  13.001
 1448SOL    HW2 4905   0.213   1.317  13.122
 1449SOL     OW 4906   0.121   1.280  11.893
 1449SOL    HW1 4907   0.135   1.228  11.973
 1449SOL    HW2 4908   0.106   1.215  11.825
 1450SOL     OW 4909   0.682   1.405  12.802
 1450SOL    HW1 4910   0.601   1.362  12.832
 1450SOL    HW2 4911   0.678   1.493  12.839
 1451SOL     OW 4912   1.811   0.183  12.410
 1451SOL    HW1 4913   1.814   0.089  12.426
 1451SOL    HW2 4914   1.826   0.193  12.316
 1452SOL     OW 4915   0.444   0.438  11.703
 1452SOL    HW1 4916   0.461   0.362  11.647
 1452SOL    HW2 4917   0.389   0.403  11.773
 1453SOL     OW 4918   1.701   1.473  12.259
 1453SOL    HW1 4919   1.618   1.455  12.215
 1453SOL    HW2 4920   1.707   1.406  12.328
 1454SOL     OW 4921   0.333   0.557  12.465
 1454SOL    HW1 4922   0.389   0.501  12.518
 1454SOL    HW2 4923   0.348   0.529  12.375
 1455SOL     OW 4924   0.829   1.579  11.848
 1455SOL    HW1 4925   0.813   1.640  11.776
 1455SOL    HW2 4926   0.753   1.520  11.846
 1456SOL     OW 4927   1.461   0.254  12.282
 1456SOL    HW1 4928   1.478   0.167  12.319
 1456SOL    HW2 4929   1.405   0.296  12.348
 1457SOL     OW 4930   1.004   0.028  12.318
 1457SOL    HW1 4931   0.923   3.990  12.282
 1457SOL    HW2 4932   1.063   3.954  12.327
 1458SOL     OW 4933   0.772   1.333  11.490
 1458SOL    HW1 4934   0.743   1.242  11.496
 1458SOL    HW2 4935   0.855   1.336  11.539
 1459SOL     OW 4936   0.620   1.556  12.458
 1459SOL    HW1 4937   0.622   1.639  12.507
 1459SOL    HW2 4938   0.708   1.549  12.421
 1460SOL     OW 4939   1.311   0.074  11.337
 1460SOL    HW1 4940   1.324   3.995  11.285
 1460SOL    HW2 4941   1.225   0.062  11.378
 1461SOL     OW 4942   1.282   0.457  11.857
 1461SOL    HW1 4943   1.235   0.540  11.852
 1461SOL    HW2 4944   1.284   0.437  11.951
 1462SOL     OW 4945   1.588   0.210  12.040
 1462SOL    HW1 4946   1.539   0.234  12.118
 1462SOL    HW2 4947   1.588   0.289  11.986
 1463SOL     OW 4948   0.047   1.049  11.413
 1463SOL    HW1 4949   0.141   1.032  11.404
 1463SOL    HW2 4950   0.011   0.965  11.442
 1464SOL     OW 4951   0.887   1.656  11.512
 1464SOL    HW1 4952   0.813   1.639  11.453
 1464SOL    HW2 4953   0.858   1.730  11.566
 1465SOL     OW 4954   0.231   0.628  13.151
 1465SOL    HW1 4955   0.138   0.631  13.172
 1465SOL    HW2 4956   0.234   0.598  13.060
 1466SOL     OW 4957   0.282   0.253   0.144
 1466SOL    HW1 4958   0.334   0.319   0.191
 1466SOL    HW2 4959   0.205   0.300   0.112
 1467SOL     OW 4960   0.018   0.381  13.667
 1467SOL    HW1 4961   3.927   0.403  13.647
 1467SOL    HW2 4962   0.028   0.290  13.640
 1468SOL     OW 4963   1.524   1.498  13.729
 1468SOL    HW1 4964   1.469   1.428  13.765
 1468SOL    HW2 4965   1.481   1.522  13.647
 1469SOL     OW 4966   1.131   0.699  13.732
 1469SOL    HW1 4967   1.184   0.775  13.708
 1469SOL    HW2 4968   1.076   0.730  13.804
 1470SOL     OW 4969   1.769   0.617  13.257
 1470SOL    HW1 4970   1.746   0.612  13.165
 1470SOL    HW2 4971   1.755   0.528  13.290
 1471SOL     OW 4972   0.687   1.011  13.671
 1471SOL    HW1 4973   0.740   0.990  13.748
 1471SOL    HW2 4974   0.614   1.062  13.705
 1472SOL     OW 4975   1.616   0.454  13.759
 1472SOL    HW1 4976   1.533   0.475  13.717
 1472SOL    HW2 4977   1.646   0.538  13.796
 1473SOL     OW 4978   0.218   1.714  13.485
 1473SOL    HW1 4979   0.236   1.788  13.543
 1473SOL    HW2 4980   0.296   1.707  13.431
 1474SOL     OW 4981   0.249   1.445  13.571
 1474SOL    HW1 4982   0.219   1.536  13.561
 1474SOL    HW2 4983   0.185   1.406  13.631
 1475SOL     OW 4984   0.256   1.075   0.018
 1475SOL    HW1 4985   0.274   1.034   0.103
 1475SOL    HW2 4986   0.215   1.159   0.040
 1476SOL     OW 4987   0.576   0.986  13.171
 1476SOL    HW1 4988   0.625   1.030  13.101
 1476SOL    HW2 4989   0.618   1.016  13.252
 1477SOL     OW 4990   0.147   0.652  13.609
 1477SOL    HW1 4991   0.088   0.576  13.601
 1477SOL    HW2 4992   0.101   0.712  13.668
 1478SOL     OW 4993   0.044   1.591  13.173
 1478SOL    HW1 4994   0.037   1.498  13.198
 1478SOL    HW2 4995   3.962   1.630  13.203
 1479SOL     OW 4996   1.685   0.916  13.668
 1479SOL    HW1 4997   1.771   0.880  13.645
 1479SOL    HW2 4998   1.662   0.972  13.594
 1480SOL     OW 4999   1.648   1.104  13.460
 1480SOL    HW1 5000   1.734   1.107  13.418
 1480SOL    HW2 5001   1.655   1.169  13.531
 1481SOL     OW 5002   0.612   1.387  13.761
 1481SOL    HW1 5003   0.563   1.307  13.779
 1481SOL    HW2 5004   0.582   1.416  13.675
 1482SOL     OW 5005   0.821   0.004  13.550
 1482SOL    HW1 5006   0.865   0.085  13.524
 1482SOL    HW2 5007   0.728   0.025  13.547
 1483SOL     OW 5008   1.530   0.995  13.234
 1483SOL    HW1 5009   1.461   0.937  13.267
 1483SOL    HW2 5010   1.572   1.030  13.312
 1484SOL     OW 5011   1.661   1.734  13.594
 1484SOL    HW1 5012   1.629   1.699  13.510
 1484SOL    HW2 5013   1.657   1.660  13.654
 1485SOL     OW 5014   0.594   0.718  13.297
 1485SOL    HW1 5015   0.599   0.802  13.252
 1485SOL    HW2 5016   0.532   0.733  13.368
 1486SOL     OW 5017   1.241   0.340   0.054
 1486SOL    HW1 5018   1.151   0.326   0.082
 1486SOL    HW2 5019   1.294   0.293   0.119
 1487SOL     OW 5020   1.578   1.675  13.330
 1487SOL    HW1 5021   1.668   1.698  13.307
 1487SOL    HW2 5022   1.537   1.650  13.247
 1488SOL     OW 5023   1.050   0.697  13.459
 1488SOL    HW1 5024   1.064   0.684  13.553
 1488SOL    HW2 5025   0.968   0.651  13.441
 1489SOL     OW 5026   0.079   0.841  13.806
 1489SOL    HW1 5027   0.158   0.820  13.855
 1489SOL    HW2 5028   0.077   0.936  13.803
 1490SOL     OW 5029   0.894   0.352  13.231
 1490SOL    HW1 5030   0.936   0.411  13.169
 1490SOL    HW2 5031   0.894   0.267  13.186
 1491SOL     OW 5032   1.365   1.135  13.552
 1491SOL    HW1 5033   1.454   1.135  13.518
 1491SOL    HW2 5034   1.321   1.206  13.505
 1492SOL     OW 5035   1.000   1.440  13.502
 1492SOL    HW1 5036   0.969   1.517  13.453
 1492SOL    HW2 5037   0.968   1.454  13.591
 1493SOL     OW 5038   0.406   1.800  13.859
 1493SOL    HW1 5039   0.415   1.705  13.868
 1493SOL    HW2 5040   0.487   1.835  13.896
 1494SOL     OW 5041   1.790   1.046  13.899
 1494SOL    HW1 5042   1.733   1.040  13.822
 1494SOL    HW2 5043   1.729   1.042   0.074
 1495SOL     OW 5044   0.310   0.954  13.277
 1495SOL    HW1 5045   0.393   0.977  13.235
 1495SOL    HW2 5046   0.297   0.862  13.255
 1496SOL     OW 5047   1.491   0.734  13.752
 1496SOL    HW1 5048   1.479   0.694  13.838
 1496SOL    HW2 5049   1.561   0.798  13.765
 1497SOL     OW 5050   1.123   1.776  13.265
 1497SOL    HW1 5051   1.047   1.738  13.309
 1497SOL    HW2 5052   1.145   1.714  13.196
 1498SOL     OW 5053   1.628   1.381  13.122
 1498SOL    HW1 5054   1.586   1.465  13.105
 1498SOL    HW2 5055   1.560   1.316  13.103
 1499SOL     OW 5056   0.466   1.739  13.349
 1499SOL    HW1 5057   0.508   1.795  13.415
 1499SOL    HW2 5058   0.539   1.704  13.297
 1500SOL     OW 5059   1.429   0.158  13.446
 1500SOL    HW1 5060   1.393   0.107  13.373
 1500SOL    HW2 5061   1.520   0.131  13.452
 1501SOL     OW 5062   0.920   1.688   0.011
 1501SOL    HW1 5063   0.947   1.620   0.073
 1501SOL    HW2 5064   0.883   1.640  13.837
 1502SOL     OW 5065   0.398   0.697  13.502
 1502SOL    HW1 5066   0.425   0.606  13.516
 1502SOL    HW2 5067   0.307   0.699  13.531
 1503SOL     OW 5068   0.645   0.131  13.137
 1503SOL    HW1 5069   0.669   0.047  13.176
 1503SOL    HW2 5070   0.584   0.108  13.067
 1504SOL     OW 5071   0.551   0.055  13.522
 1504SOL    HW1 5072   0.473   0.059  13.578
 1504SOL    HW2 5073   0.550   0.138  13.474
 1505SOL     OW 5074   1.428   1.199  13.075
 1505SOL    HW1 5075   1.457   1.123  13.125
 1505SOL    HW2 5076   1.342   1.220  13.111
 1506SOL     OW 5077   0.344   0.052  13.235
 1506SOL    HW1 5078   0.359   0.092  13.149
 1506SOL    HW2 5079   0.432   0.031  13.267
 1507SOL     OW 5080   0.942   0.248  13.493
 1507SOL    HW1 5081   0.915   0.290  13.411
 1507SOL    HW2 5082   1.037   0.255  13.493
 1508SOL     OW 5083   0.470   1.144  13.767
 1508SOL    HW1 5084   0.398   1.122  13.825
 1508SOL    HW2 5085   0.434   1.134  13.679
 1509SOL     OW 5086   1.268   1.796  13.634
 1509SOL    HW1 5087   1.308   1.866  13.582
 1509SOL    HW2 5088   1.198   1.840  13.683
 1510SOL     OW 5089   1.022   0.543  13.062
 1510SOL    HW1 5090   0.979   0.626  13.043
 1510SOL    HW2 5091   1.086   0.564  13.130
 1511SOL     OW 5092   0.899   0.474  13.669
 1511SOL    HW1 5093   0.827   0.518  13.623
 1511SOL    HW2 5094   0.905   0.388  13.627
 1512SOL     OW 5095   1.001   0.038  13.794
 1512SOL    HW1 5096   0.970   0.064  13.707
 1512SOL    HW2 5097   1.024   3.946  13.785
 1513SOL     OW 5098   1.845   0.819  13.417
 1513SOL    HW1 5099   1.904   0.768  13.473
 1513SOL    HW2 5100   1.815   0.758  13.350
 1514SOL     OW 5101   0.487   1.421  13.194
 1514SOL    HW1 5102   0.411   1.390  13.243
 1514SOL    HW2 5103   0.472   1.389  13.105
 1515SOL     OW 5104   1.681   1.271  13.663
 1515SOL    HW1 5105   1.774   1.267  13.687
 1515SOL    HW2 5106   1.650   1.353  13.701
 1516SOL     OW 5107   1.395   0.576  13.104
 1516SOL    HW1 5108   1.332   0.555  13.174
 1516SOL    HW2 5109   1.480   0.554  13.142
 1517SOL     OW 5110   0.558   0.272  13.352
 1517SOL    HW1 5111   0.603   0.229  13.280
 1517SOL    HW2 5112   0.528   0.355  13.316
 1518SOL     OW 5113   0.708   1.063  13.399
 1518SOL    HW1 5114   0.694   1.048  13.493
 1518SOL    HW2 5115   0.785   1.010  13.378
 1519SOL     OW 5116   0.373   1.103  13.515
 1519SOL    HW1 5117   0.366   1.184  13.464
 1519SOL    HW2 5118   0.370   1.033  13.450
 1520SOL     OW 5119   0.566   0.540  13.863
 1520SOL    HW1 5120   0.579   0.608  13.797
 1520SOL    HW2 5121   0.625   0.566   0.034
 1521SOL     OW 5122   1.245   1.352  13.419
 1521SOL    HW1 5123   1.300   1.425  13.447
 1521SOL    HW2 5124   1.159   1.372  13.454
 1522SOL     OW 5125   1.585   0.633  13.513
 1522SOL    HW1 5126   1.544   0.684  13.584
 1522SOL    HW2 5127   1.625   0.698  13.456
 1523SOL     OW 5128   1.201   0.533  13.294
 1523SOL    HW1 5129   1.208   0.454  13.347
 1523SOL    HW2 5130   1.157   0.596  13.351
 1524SOL     OW 5131   0.334   0.049  13.680
 1524SOL    HW1 5132   0.311   0.141  13.690
 1524SOL    HW2 5133   0.274   0.002  13.739
 1525SOL     OW 5134   1.590   0.391  13.407
 1525SOL    HW1 5135   1.569   0.326  13.474
 1525SOL    HW2 5136   1.580   0.475  13.452
 1526SOL     OW 5137   1.504   0.279  13.166
 1526SOL    HW1 5138   1.432   0.218  13.181
 1526SOL    HW2 5139   1.519   0.319  13.252
 1527SOL     OW 5140   1.288   0.826  13.062
 1527SOL    HW1 5141   1.331   0.741  13.066
 1527SOL    HW2 5142   1.320   0.866  12.981
 1528SOL     OW 5143   0.000   1.318  13.215
 1528SOL    HW1 5144   3.906   1.334  13.219
 1528SOL    HW2 5145   0.009   1.224  13.232
 1529SOL     OW 5146   0.818   0.575  13.388
 1529SOL    HW1 5147   0.822   0.496  13.333
 1529SOL    HW2 5148   0.741   0.622  13.356
 1530SOL     OW 5149   0.452   0.492  13.232
 1530SOL    HW1 5150   0.517   0.561  13.248
 1530SOL    HW2 5151   0.372   0.539  13.208
 1531SOL     OW 5152   1.315   0.851  13.338
 1531SOL    HW1 5153   1.238   0.827  13.388
 1531SOL    HW2 5154   1.289   0.840  13.246
 1532SOL     OW 5155   1.695   0.118  13.460
 1532SOL    HW1 5156   1.788   0.131  13.440
 1532SOL    HW2 5157   1.695   0.049  13.527
 1533SOL     OW 5158   1.384   1.575  13.508
 1533SOL    HW1 5159   1.440   1.612  13.440
 1533SOL    HW2 5160   1.336   1.649  13.544
 1534SOL     OW 5161   1.289   0.913  13.684
 1534SOL    HW1 5162   1.366   0.859  13.671
 1534SOL    HW2 5163   1.311   0.997  13.642
 1535SOL     OW 5164   0.670   1.622  13.189
 1535SOL    HW1 5165   0.681   1.634  13.095
 1535SOL    HW2 5166   0.615   1.544  13.197
 1536SOL     OW 5167   1.827   0.174   0.065
 1536SOL    HW1 5168   1.866   0.087   0.055
 1536SOL    HW2 5169   1.735   0.162   0.041
 1537SOL     OW 5170   0.286   0.309  13.737
 1537SOL    HW1 5171   0.206   0.354  13.711
 1537SOL    HW2 5172   0.292   0.323  13.832
 1538SOL     OW 5173   1.206   1.604  13.066
 1538SOL    HW1 5174   1.196   1.512  13.091
 1538SOL    HW2 5175   1.141   1.617  12.997
 1539SOL     OW 5176   0.918   0.913  13.329
 1539SOL    HW1 5177   0.978   0.943  13.260
 1539SOL    HW2 5178   0.964   0.840  13.370
 1540SOL     OW 5179   1.486   1.622  13.074
 1540SOL    HW1 5180   1.392   1.617  13.058
 1540SOL    HW2 5181   1.525   1.630  12.987
 1541SOL     OW 5182   1.050   1.091  13.755
 1541SOL    HW1 5183   0.963   1.053  13.742
 1541SOL    HW2 5184   1.104   1.053  13.686
 1542SOL     OW 5185   0.601   1.493  13.506
 1542SOL    HW1 5186   0.647   1.441  13.440
 1542SOL    HW2 5187   0.527   1.531  13.459
 1543SOL     OW 5188   0.253   1.340  13.325
 1543SOL    HW1 5189   0.159   1.348  13.306
 1543SOL    HW2 5190   0.263   1.379  13.412
 1544SOL     OW 5191   0.088   0.322  13.061
 1544SOL    HW1 5192   3.992   0.320  13.052
 1544SOL    HW2 5193   0.113   0.404  13.018
 1545SOL     OW 5194   0.043   0.169  13.306
 1545SOL    HW1 5195   0.045   0.233  13.234
 1545SOL    HW2 5196   0.120   0.190  13.359
 1546SOL     OW 5197   1.178   1.337  13.149
 1546SOL    HW1 5198   1.087   1.308  13.151
 1546SOL    HW2 5199   1.205   1.338  13.241
 1547SOL     OW 5200   1.221   0.331  13.483
 1547SOL    HW1 5201   1.290   0.265  13.472
 1547SOL    HW2 5202   1.247   0.381  13.559
 1548SOL     OW 5203   0.594   0.750  13.692
 1548SOL    HW1 5204   0.628   0.838  13.673
 1548SOL    HW2 5205   0.524   0.737  13.628
 1549SOL     OW 5206   0.864   1.366  13.071
 1549SOL    HW1 5207   0.825   1.394  13.154
 1549SOL    HW2 5208   0.880   1.447  13.024
 1550SOL     OW 5209   0.659   1.854   0.060
 1550SOL    HW1 5210   0.676   1.947   0.045
 1550SOL    HW2 5211   0.745   1.815   0.074
 1551SOL     OW 5212   0.827   0.965  13.897
 1551SOL    HW1 5213   0.854   0.882   0.037
 1551SOL    HW2 5214   0.854   1.032   0.059
 1552SOL     OW 5215   1.077   0.987  13.123
 1552SOL    HW1 5216   1.056   1.039  13.046
 1552SOL    HW2 5217   1.152   0.934  13.096
 1553SOL     OW 5218   0.115   1.275  13.758
 1553SOL    HW1 5219   0.052   1.234  13.817
 1553SOL    HW2 5220   0.121   1.216  13.683
 1554SOL     OW 5221   0.450   0.440  13.557
 1554SOL    HW1 5222   0.473   0.366  13.501
 1554SOL    HW2 5223   0.404   0.401  13.631
 1555SOL     OW 5224   1.704   1.498   0.324
 1555SOL    HW1 5225   1.669   1.451   0.248
 1555SOL    HW2 5226   1.766   1.436   0.363
 1556SOL     OW 5227   0.821   1.552  13.705
 1556SOL    HW1 5228   0.793   1.608  13.633
 1556SOL    HW2 5229   0.746   1.495  13.721
 1557SOL     OW 5230   0.772   1.334  13.348
 1557SOL    HW1 5231   0.743   1.243  13.355
 1557SOL    HW2 5232   0.853   1.337  13.399
 1558SOL     OW 5233   1.312   0.078  13.206
 1558SOL    HW1 5234   1.335   0.001  13.153
 1558SOL    HW2 5235   1.224   0.058  13.238
 1559SOL     OW 5236   1.291   0.459  13.715
 1559SOL    HW1 5237   1.241   0.541  13.715
 1559SOL    HW2 5238   1.285   0.428  13.806
 1560SOL     OW 5239   0.047   1.049  13.270
 1560SOL    HW1 5240   0.141   1.032  13.263
 1560SOL    HW2 5241   0.011   0.966  13.303
 1561SOL     OW 5242   0.887   1.656  13.373
 1561SOL    HW1 5243   0.813   1.640  13.316
 1561SOL    HW2 5244   0.859   1.727  13.430
 1562SOL     OW 5245   0.231   2.512   0.120
 1562SOL    HW1 5246   0.137   2.505   0.134
 1562SOL    HW2 5247   0.247   2.470   0.036
 1563SOL     OW 5248   0.229   2.134   0.987
 1563SOL    HW1 5249   0.250   2.100   1.074
 1563SOL    HW2 5250   0.134   2.126   0.981
 1564SOL     OW 5251   0.010   2.224   0.631
 1564SOL    HW1 5252   3.924   2.242   0.669
 1564SOL    HW2 5253   3.991   2.191   0.543
 1565SOL     OW 5254   0.579   3.150   1.190
 1565SOL    HW1 5255   0.493   3.154   1.148
 1565SOL    HW2 5256   0.594   3.239   1.223
 1566SOL     OW 5257   1.564   3.372   0.708
 1566SOL    HW1 5258   1.519   3.350   0.790
 1566SOL    HW2 5259   1.494   3.375   0.642
 1567SOL     OW 5260   1.132   2.560   0.699
 1567SOL    HW1 5261   1.180   2.641   0.686
 1567SOL    HW2 5262   1.085   2.573   0.782
 1568SOL     OW 5263   1.761   2.463   0.228
 1568SOL    HW1 5264   1.791   2.413   0.152
 1568SOL    HW2 5265   1.721   2.398   0.285
 1569SOL     OW 5266   0.752   3.001   1.042
 1569SOL    HW1 5267   0.689   3.037   1.103
 1569SOL    HW2 5268   0.789   3.077   0.997
 1570SOL     OW 5269   0.870   2.631   1.823
 1570SOL    HW1 5270   0.861   2.702   1.886
 1570SOL    HW2 5271   0.893   2.675   1.741
 1571SOL     OW 5272   0.684   2.862   0.647
 1571SOL    HW1 5273   0.751   2.852   0.715
 1571SOL    HW2 5274   0.616   2.915   0.688
 1572SOL     OW 5275   0.712   3.011   1.816
 1572SOL    HW1 5276   0.760   3.089   1.845
 1572SOL    HW2 5277   0.631   3.046   1.779
 1573SOL     OW 5278   0.351   3.263   1.077
 1573SOL    HW1 5279   0.268   3.250   1.031
 1573SOL    HW2 5280   0.401   3.322   1.021
 1574SOL     OW 5281   1.460   3.363   1.357
 1574SOL    HW1 5282   1.513   3.441   1.367
 1574SOL    HW2 5283   1.394   3.370   1.426
 1575SOL     OW 5284   0.450   2.260   1.487
 1575SOL    HW1 5285   0.525   2.201   1.491
 1575SOL    HW2 5286   0.374   2.204   1.500
 1576SOL     OW 5287   1.608   2.303   0.735
 1576SOL    HW1 5288   1.526   2.325   0.690
 1576SOL    HW2 5289   1.626   2.379   0.790
 1577SOL     OW 5290   0.226   3.572   0.471
 1577SOL    HW1 5291   0.221   3.656   0.515
 1577SOL    HW2 5292   0.301   3.579   0.412
 1578SOL     OW 5293   1.137   3.204   1.694
 1578SOL    HW1 5294   1.178   3.197   1.780
 1578SOL    HW2 5295   1.085   3.124   1.686
 1579SOL     OW 5296   0.244   3.307   0.543
 1579SOL    HW1 5297   0.223   3.399   0.527
 1579SOL    HW2 5298   0.170   3.275   0.594
 1580SOL     OW 5299   0.247   2.928   0.883
 1580SOL    HW1 5300   0.268   2.844   0.923
 1580SOL    HW2 5301   0.195   2.974   0.949
 1581SOL     OW 5302   0.611   3.648   1.427
 1581SOL    HW1 5303   0.528   3.634   1.474
 1581SOL    HW2 5304   0.637   3.737   1.452
 1582SOL     OW 5305   0.561   2.844   0.165
 1582SOL    HW1 5306   0.588   2.886   0.083
 1582SOL    HW2 5307   0.617   2.883   0.232
 1583SOL     OW 5308   1.597   1.992   1.465
 1583SOL    HW1 5309   1.590   2.078   1.423
 1583SOL    HW2 5310   1.587   2.011   1.558
 1584SOL     OW 5311   0.141   2.518   0.572
 1584SOL    HW1 5312   0.087   2.439   0.573
 1584SOL    HW2 5313   0.106   2.571   0.644
 1585SOL     OW 5314   1.838   3.605   0.337
 1585SOL    HW1 5315   1.900   3.572   0.402
 1585SOL    HW2 5316   1.862   3.697   0.326
 1586SOL     OW 5317   0.029   3.469   0.139
 1586SOL    HW1 5318   0.034   3.375   0.156
 1586SOL    HW2 5319   3.936   3.490   0.144
 1587SOL     OW 5320   1.688   2.779   0.644
 1587SOL    HW1 5321   1.770   2.737   0.620
 1587SOL    HW2 5322   1.665   2.832   0.567
 1588SOL     OW 5323   1.648   2.966   0.432
 1588SOL    HW1 5324   1.735   2.969   0.392
 1588SOL    HW2 5325   1.652   3.030   0.503
 1589SOL     OW 5326   0.139   2.615   1.589
 1589SOL    HW1 5327   0.235   2.610   1.586
 1589SOL    HW2 5328   0.121   2.703   1.621
 1590SOL     OW 5329   0.615   3.248   0.735
 1590SOL    HW1 5330   0.568   3.165   0.744
 1590SOL    HW2 5331   0.599   3.275   0.645
 1591SOL     OW 5332   1.287   3.099   1.422
 1591SOL    HW1 5333   1.319   3.031   1.362
 1591SOL    HW2 5334   1.346   3.094   1.498
 1592SOL     OW 5335   0.822   1.862   0.512
 1592SOL    HW1 5336   0.861   1.946   0.490
 1592SOL    HW2 5337   0.728   1.881   0.519
 1593SOL     OW 5338   0.184   2.812   1.280
 1593SOL    HW1 5339   0.272   2.777   1.267
 1593SOL    HW2 5340   0.132   2.774   1.209
 1594SOL     OW 5341   1.530   2.860   0.205
 1594SOL    HW1 5342   1.462   2.801   0.238
 1594SOL    HW2 5343   1.571   2.896   0.284
 1595SOL     OW 5344   1.217   3.666   1.627
 1595SOL    HW1 5345   1.194   3.727   1.557
 1595SOL    HW2 5346   1.219   3.580   1.585
 1596SOL     OW 5347   0.342   2.109   1.816
 1596SOL    HW1 5348   0.378   2.197   1.824
 1596SOL    HW2 5349   0.250   2.119   1.841
 1597SOL     OW 5350   1.466   3.281   0.950
 1597SOL    HW1 5351   1.398   3.296   1.016
 1597SOL    HW2 5352   1.453   3.190   0.923
 1598SOL     OW 5353   1.659   3.601   0.588
 1598SOL    HW1 5354   1.643   3.577   0.497
 1598SOL    HW2 5355   1.634   3.523   0.638
 1599SOL     OW 5356   0.598   2.579   0.266
 1599SOL    HW1 5357   0.599   2.662   0.218
 1599SOL    HW2 5358   0.537   2.594   0.338
 1600SOL     OW 5359   1.279   2.222   0.934
 1600SOL    HW1 5360   1.191   2.186   0.944
 1600SOL    HW2 5361   1.334   2.166   0.989
 1601SOL     OW 5362   1.561   3.594   0.314
 1601SOL    HW1 5363   1.657   3.593   0.312
 1601SOL    HW2 5364   1.535   3.560   0.228
 1602SOL     OW 5365   0.791   2.480   1.450
 1602SOL    HW1 5366   0.765   2.455   1.539
 1602SOL    HW2 5367   0.753   2.412   1.394
 1603SOL     OW 5368   1.393   2.335   1.677
 1603SOL    HW1 5369   1.396   2.381   1.761
 1603SOL    HW2 5370   1.456   2.264   1.687
 1604SOL     OW 5371   0.952   2.748   1.584
 1604SOL    HW1 5372   1.007   2.679   1.547
 1604SOL    HW2 5373   0.904   2.783   1.509
 1605SOL     OW 5374   0.993   2.273   1.237
 1605SOL    HW1 5375   0.905   2.293   1.270
 1605SOL    HW2 5376   0.977   2.229   1.153
 1606SOL     OW 5377   1.052   2.563   0.429
 1606SOL    HW1 5378   1.069   2.555   0.523
 1606SOL    HW2 5379   0.969   2.517   0.415
 1607SOL     OW 5380   0.082   2.690   0.791
 1607SOL    HW1 5381   0.157   2.660   0.842
 1607SOL    HW2 5382   0.099   2.784   0.777
 1608SOL     OW 5383   0.127   3.718   1.578
 1608SOL    HW1 5384   0.135   3.686   1.668
 1608SOL    HW2 5385   0.035   3.705   1.555
 1609SOL     OW 5386   0.869   2.222   0.215
 1609SOL    HW1 5387   0.908   2.283   0.153
 1609SOL    HW2 5388   0.883   2.135   0.176
 1610SOL     OW 5389   1.673   2.445   1.834
 1610SOL    HW1 5390   1.649   2.516   1.774
 1610SOL    HW2 5391   1.720   2.382   1.779
 1611SOL     OW 5392   1.379   3.004   0.543
 1611SOL    HW1 5393   1.457   2.991   0.489
 1611SOL    HW2 5394   1.325   3.067   0.494
 1612SOL     OW 5395   0.546   2.040   0.895
 1612SOL    HW1 5396   0.553   2.072   0.985
 1612SOL    HW2 5397   0.547   2.120   0.841
 1613SOL     OW 5398   1.003   3.305   0.474
 1613SOL    HW1 5399   0.970   3.379   0.424
 1613SOL    HW2 5400   0.982   3.326   0.565
 1614SOL     OW 5401   0.359   3.670   0.863
 1614SOL    HW1 5402   0.438   3.618   0.875
 1614SOL    HW2 5403   0.388   3.761   0.871
 1615SOL     OW 5404   1.800   2.914   0.870
 1615SOL    HW1 5405   1.746   2.898   0.793
 1615SOL    HW2 5406   1.737   2.922   0.942
 1616SOL     OW 5407   1.228   3.399   1.511
 1616SOL    HW1 5408   1.215   3.327   1.573
 1616SOL    HW2 5409   1.160   3.387   1.445
 1617SOL     OW 5410   0.309   2.793   0.241
 1617SOL    HW1 5411   0.400   2.807   0.214
 1617SOL    HW2 5412   0.297   2.698   0.235
 1618SOL     OW 5413   1.480   2.605   0.724
 1618SOL    HW1 5414   1.474   2.565   0.811
 1618SOL    HW2 5415   1.557   2.662   0.729
 1619SOL     OW 5416   0.468   3.122   1.737
 1619SOL    HW1 5417   0.442   3.130   1.645
 1619SOL    HW2 5418   0.386   3.126   1.785
 1620SOL     OW 5419   1.126   3.639   0.232
 1620SOL    HW1 5420   1.062   3.594   0.286
 1620SOL    HW2 5421   1.152   3.574   0.167
 1621SOL     OW 5422   0.204   2.135   1.508
 1621SOL    HW1 5423   0.114   2.168   1.502
 1621SOL    HW2 5424   0.195   2.048   1.547
 1622SOL     OW 5425   1.635   3.237   0.086
 1622SOL    HW1 5426   1.599   3.320   0.054
 1622SOL    HW2 5427   1.566   3.173   0.067
 1623SOL     OW 5428   0.466   3.604   0.321
 1623SOL    HW1 5429   0.504   3.665   0.384
 1623SOL    HW2 5430   0.542   3.571   0.272
 1624SOL     OW 5431   1.403   1.969   0.432
 1624SOL    HW1 5432   1.384   1.952   0.339
 1624SOL    HW2 5433   1.490   1.933   0.446
 1625SOL     OW 5434   0.253   3.656   1.226
 1625SOL    HW1 5435   0.297   3.589   1.279
 1625SOL    HW2 5436   0.251   3.620   1.138
 1626SOL     OW 5437   0.938   3.563   0.900
 1626SOL    HW1 5438   1.016   3.512   0.921
 1626SOL    HW2 5439   0.894   3.513   0.830
 1627SOL     OW 5440   0.398   2.557   0.471
 1627SOL    HW1 5441   0.421   2.465   0.484
 1627SOL    HW2 5442   0.306   2.562   0.499
 1628SOL     OW 5443   1.535   2.086   1.725
 1628SOL    HW1 5444   1.547   2.106   1.818
 1628SOL    HW2 5445   1.463   2.023   1.723
 1629SOL     OW 5446   0.765   2.140   1.755
 1629SOL    HW1 5447   0.844   2.086   1.753
 1629SOL    HW2 5448   0.719   2.113   1.834
 1630SOL     OW 5449   0.876   3.382   1.194
 1630SOL    HW1 5450   0.860   3.346   1.107
 1630SOL    HW2 5451   0.946   3.328   1.230
 1631SOL     OW 5452   1.340   2.451   1.432
 1631SOL    HW1 5453   1.370   2.420   1.518
 1631SOL    HW2 5454   1.376   2.539   1.425
 1632SOL     OW 5455   0.817   3.254   0.942
 1632SOL    HW1 5456   0.902   3.242   0.899
 1632SOL    HW2 5457   0.754   3.257   0.869
 1633SOL     OW 5458   0.928   2.371   0.901
 1633SOL    HW1 5459   0.904   2.363   0.809
 1633SOL    HW2 5460   0.959   2.284   0.926
 1634SOL     OW 5461   0.557   1.922   0.502
 1634SOL    HW1 5462   0.476   1.920   0.553
 1634SOL    HW2 5463   0.550   2.000   0.447
 1635SOL     OW 5464   1.431   3.069   0.044
 1635SOL    HW1 5465   1.450   2.988   0.092
 1635SOL    HW2 5466   1.339   3.087   0.064
 1636SOL     OW 5467   0.262   1.872   0.216
 1636SOL    HW1 5468   0.292   1.955   0.181
 1636SOL    HW2 5469   0.342   1.825   0.239
 1637SOL     OW 5470   0.942   2.108   0.461
 1637SOL    HW1 5471   0.911   2.149   0.380
 1637SOL    HW2 5472   1.036   2.127   0.462
 1638SOL     OW 5473   1.080   2.544   1.458
 1638SOL    HW1 5474   1.014   2.476   1.463
 1638SOL    HW2 5475   1.163   2.496   1.453
 1639SOL     OW 5476   1.221   3.434   0.795
 1639SOL    HW1 5477   1.237   3.499   0.727
 1639SOL    HW2 5478   1.291   3.447   0.858
 1640SOL     OW 5479   0.465   3.013   0.733
 1640SOL    HW1 5480   0.395   2.989   0.793
 1640SOL    HW2 5481   0.428   2.999   0.646
 1641SOL     OW 5482   1.266   3.657   0.608
 1641SOL    HW1 5483   1.314   3.721   0.556
 1641SOL    HW2 5484   1.194   3.707   0.646
 1642SOL     OW 5485   0.996   2.406   0.055
 1642SOL    HW1 5486   0.994   2.391  13.861
 1642SOL    HW2 5487   1.089   2.398   0.078
 1643SOL     OW 5488   0.082   2.435   1.390
 1643SOL    HW1 5489   0.172   2.421   1.359
 1643SOL    HW2 5490   0.089   2.504   1.455
 1644SOL     OW 5491   0.567   2.089   1.166
 1644SOL    HW1 5492   0.608   2.014   1.209
 1644SOL    HW2 5493   0.475   2.085   1.195
 1645SOL     OW 5494   0.867   2.320   0.639
 1645SOL    HW1 5495   0.824   2.376   0.574
 1645SOL    HW2 5496   0.888   2.240   0.592
 1646SOL     OW 5497   1.017   1.915   0.749
 1646SOL    HW1 5498   0.958   1.910   0.674
 1646SOL    HW2 5499   0.993   1.840   0.804
 1647SOL     OW 5500   1.438   3.024   0.857
 1647SOL    HW1 5501   1.368   2.959   0.856
 1647SOL    HW2 5502   1.462   3.034   0.765
 1648SOL     OW 5503   1.465   2.469   0.972
 1648SOL    HW1 5504   1.411   2.390   0.976
 1648SOL    HW2 5505   1.523   2.461   1.048
 1649SOL     OW 5506   1.845   2.674   0.379
 1649SOL    HW1 5507   1.900   2.623   0.438
 1649SOL    HW2 5508   1.814   2.611   0.314
 1650SOL     OW 5509   0.492   3.245   0.165
 1650SOL    HW1 5510   0.420   3.214   0.220
 1650SOL    HW2 5511   0.449   3.290   0.092
 1651SOL     OW 5512   1.673   3.124   0.647
 1651SOL    HW1 5513   1.767   3.127   0.659
 1651SOL    HW2 5514   1.643   3.214   0.661
 1652SOL     OW 5515   1.421   2.443   0.087
 1652SOL    HW1 5516   1.352   2.436   0.153
 1652SOL    HW2 5517   1.463   2.358   0.088
 1653SOL     OW 5518   0.533   2.124   0.326
 1653SOL    HW1 5519   0.583   2.090   0.252
 1653SOL    HW2 5520   0.500   2.209   0.296
 1654SOL     OW 5521   1.751   3.103   1.569
 1654SOL    HW1 5522   1.838   3.064   1.566
 1654SOL    HW2 5523   1.766   3.194   1.596
 1655SOL     OW 5524   1.056   3.214   1.332
 1655SOL    HW1 5525   0.981   3.184   1.383
 1655SOL    HW2 5526   1.132   3.173   1.374
 1656SOL     OW 5527   1.610   3.488   1.656
 1656SOL    HW1 5528   1.601   3.522   1.567
 1656SOL    HW2 5529   1.692   3.440   1.656
 1657SOL     OW 5530   1.131   3.067   1.103
 1657SOL    HW1 5531   1.072   3.105   1.168
 1657SOL    HW2 5532   1.100   3.101   1.020
 1658SOL     OW 5533   1.626   2.959   1.076
 1658SOL    HW1 5534   1.620   3.022   1.149
 1658SOL    HW2 5535   1.549   2.978   1.023
 1659SOL     OW 5536   0.918   1.957   1.394
 1659SOL    HW1 5537   0.941   1.939   1.303
 1659SOL    HW2 5538   0.997   1.997   1.431
 1660SOL     OW 5539   0.984   2.977   1.722
 1660SOL    HW1 5540   0.893   2.993   1.745
 1660SOL    HW2 5541   0.982   2.899   1.668
 1661SOL     OW 5542   0.715   2.922   0.377
 1661SOL    HW1 5543   0.701   2.903   0.470
 1661SOL    HW2 5544   0.790   2.867   0.353
 1662SOL     OW 5545   0.422   2.678   1.252
 1662SOL    HW1 5546   0.490   2.687   1.319
 1662SOL    HW2 5547   0.388   2.590   1.264
 1663SOL     OW 5548   1.265   2.237   1.278
 1663SOL    HW1 5549   1.297   2.315   1.323
 1663SOL    HW2 5550   1.174   2.259   1.255
 1664SOL     OW 5551   0.065   3.441   1.346
 1664SOL    HW1 5552   0.070   3.495   1.266
 1664SOL    HW2 5553   0.156   3.430   1.373
 1665SOL     OW 5554   0.362   2.965   0.481
 1665SOL    HW1 5555   0.355   3.043   0.426
 1665SOL    HW2 5556   0.380   2.894   0.419
 1666SOL     OW 5557   0.550   2.396   0.861
 1666SOL    HW1 5558   0.564   2.454   0.786
 1666SOL    HW2 5559   0.617   2.423   0.924
 1667SOL     OW 5560   1.248   3.208   0.399
 1667SOL    HW1 5561   1.304   3.282   0.425
 1667SOL    HW2 5562   1.161   3.233   0.431
 1668SOL     OW 5563   1.284   3.321   1.148
 1668SOL    HW1 5564   1.340   3.325   1.226
 1668SOL    HW2 5565   1.228   3.245   1.163
 1669SOL     OW 5566   1.578   2.489   0.477
 1669SOL    HW1 5567   1.530   2.535   0.546
 1669SOL    HW2 5568   1.609   2.559   0.419
 1670SOL     OW 5569   0.345   3.389   1.317
 1670SOL    HW1 5570   0.335   3.339   1.236
 1670SOL    HW2 5571   0.439   3.404   1.325
 1671SOL     OW 5572   0.416   2.600   1.601
 1671SOL    HW1 5573   0.479   2.646   1.545
 1671SOL    HW2 5574   0.456   2.515   1.618
 1672SOL     OW 5575   1.601   2.648   1.676
 1672SOL    HW1 5576   1.516   2.691   1.671
 1672SOL    HW2 5577   1.655   2.692   1.609
 1673SOL     OW 5578   0.996   1.990   1.754
 1673SOL    HW1 5579   1.054   2.062   1.730
 1673SOL    HW2 5580   1.044   1.911   1.728
 1674SOL     OW 5581   0.497   1.897   1.746
 1674SOL    HW1 5582   0.453   1.845   1.679
 1674SOL    HW2 5583   0.443   1.975   1.755
 1675SOL     OW 5584   0.585   2.736   1.032
 1675SOL    HW1 5585   0.618   2.826   1.033
 1675SOL    HW2 5586   0.529   2.730   1.109
 1676SOL     OW 5587   1.354   2.720   1.026
 1676SOL    HW1 5588   1.269   2.709   0.983
 1676SOL    HW2 5589   1.397   2.635   1.018
 1677SOL     OW 5590   1.218   2.403   0.273
 1677SOL    HW1 5591   1.221   2.323   0.325
 1677SOL    HW2 5592   1.162   2.463   0.322
 1678SOL     OW 5593   0.310   2.058   1.247
 1678SOL    HW1 5594   0.264   2.095   1.323
 1678SOL    HW2 5595   0.287   1.965   1.248
 1679SOL     OW 5596   0.060   3.167   1.281
 1679SOL    HW1 5597   0.091   3.127   1.362
 1679SOL    HW2 5598   0.052   3.260   1.301
 1680SOL     OW 5599   0.723   2.493   1.056
 1680SOL    HW1 5600   0.799   2.477   0.999
 1680SOL    HW2 5601   0.695   2.582   1.035
 1681SOL     OW 5602   1.735   2.822   1.853
 1681SOL    HW1 5603   1.691   2.756   1.799
 1681SOL    HW2 5604   1.676   2.836   1.927
 1682SOL     OW 5605   0.315   1.923   0.623
 1682SOL    HW1 5606   0.292   2.014   0.644
 1682SOL    HW2 5607   0.320   1.880   0.708
 1683SOL     OW 5608   1.623   2.240   0.384
 1683SOL    HW1 5609   1.614   2.182   0.459
 1683SOL    HW2 5610   1.597   2.326   0.417
 1684SOL     OW 5611   1.028   2.620   0.959
 1684SOL    HW1 5612   1.022   2.638   1.053
 1684SOL    HW2 5613   1.002   2.529   0.950
 1685SOL     OW 5614   0.986   3.430   1.720
 1685SOL    HW1 5615   0.967   3.471   1.636
 1685SOL    HW2 5616   1.027   3.347   1.697
 1686SOL     OW 5617   1.853   3.365   1.604
 1686SOL    HW1 5618   1.873   3.393   1.515
 1686SOL    HW2 5619   1.934   3.382   1.653
 1687SOL     OW 5620   0.353   2.783   1.800
 1687SOL    HW1 5621   0.431   2.805   1.851
 1687SOL    HW2 5622   0.381   2.716   1.738
 1688SOL     OW 5623   1.513   2.164   0.143
 1688SOL    HW1 5624   1.499   2.069   0.149
 1688SOL    HW2 5625   1.560   2.186   0.223
 1689SOL     OW 5626   1.291   2.690   0.055
 1689SOL    HW1 5627   1.340   2.607   0.060
 1689SOL    HW2 5628   1.310   2.724  13.868
 1690SOL     OW 5629   1.067   3.199   0.855
 1690SOL    HW1 5630   1.071   3.127   0.792
 1690SOL    HW2 5631   1.127   3.265   0.820
 1691SOL     OW 5632   0.314   2.664   0.949
 1691SOL    HW1 5633   0.408   2.682   0.944
 1691SOL    HW2 5634   0.308   2.574   0.982
 1692SOL     OW 5635   0.330   2.383   1.014
 1692SOL    HW1 5636   0.296   2.295   0.998
 1692SOL    HW2 5637   0.406   2.390   0.957
 1693SOL     OW 5638   1.134   2.236   1.684
 1693SOL    HW1 5639   1.086   2.291   1.746
 1693SOL    HW2 5640   1.222   2.274   1.681
 1694SOL     OW 5641   1.161   2.063   1.471
 1694SOL    HW1 5642   1.150   2.125   1.543
 1694SOL    HW2 5643   1.201   2.113   1.401
 1695SOL     OW 5644   0.013   3.189   0.190
 1695SOL    HW1 5645   3.919   3.204   0.183
 1695SOL    HW2 5646   0.021   3.097   0.215
 1696SOL     OW 5647   0.075   3.664   0.895
 1696SOL    HW1 5648   0.090   3.569   0.892
 1696SOL    HW2 5649   0.163   3.702   0.894
 1697SOL     OW 5650   0.507   3.425   0.917
 1697SOL    HW1 5651   0.573   3.492   0.937
 1697SOL    HW2 5652   0.550   3.367   0.855
 1698SOL     OW 5653   0.979   2.652   1.225
 1698SOL    HW1 5654   1.037   2.631   1.298
 1698SOL    HW2 5655   0.894   2.614   1.250
 1699SOL     OW 5656   0.038   2.420   1.109
 1699SOL    HW1 5657   0.121   2.397   1.067
 1699SOL    HW2 5658   0.057   2.417   1.203
 1700SOL     OW 5659   0.206   2.375   1.728
 1700SOL    HW1 5660   0.246   2.327   1.654
 1700SOL    HW2 5661   0.160   2.448   1.687
 1701SOL     OW 5662   1.375   2.801   1.656
 1701SOL    HW1 5663   1.398   2.894   1.653
 1701SOL    HW2 5664   1.371   2.774   1.565
 1702SOL     OW 5665   0.814   2.438   0.375
 1702SOL    HW1 5666   0.825   2.363   0.317
 1702SOL    HW2 5667   0.743   2.489   0.336
 1703SOL     OW 5668   1.642   2.465   1.182
 1703SOL    HW1 5669   1.632   2.411   1.260
 1703SOL    HW2 5670   1.728   2.442   1.148
 1704SOL     OW 5671   0.299   3.407   1.726
 1704SOL    HW1 5672   0.251   3.477   1.771
 1704SOL    HW2 5673   0.268   3.326   1.766
 1705SOL     OW 5674   0.707   2.311   1.257
 1705SOL    HW1 5675   0.654   2.237   1.228
 1705SOL    HW2 5676   0.701   2.374   1.185
 1706SOL     OW 5677   0.928   3.533   1.469
 1706SOL    HW1 5678   0.901   3.496   1.385
 1706SOL    HW2 5679   0.920   3.628   1.456
 1707SOL     OW 5680   0.430   2.356   0.234
 1707SOL    HW1 5681   0.505   2.416   0.240
 1707SOL    HW2 5682   0.359   2.411   0.202
 1708SOL     OW 5683   0.156   2.997   1.476
 1708SOL    HW1 5684   0.156   2.946   1.557
 1708SOL    HW2 5685   0.171   2.932   1.407
 1709SOL     OW 5686   1.324   2.907   1.221
 1709SOL    HW1 5687   1.346   2.844   1.153
 1709SOL    HW2 5688   1.255   2.961   1.182
 1710SOL     OW 5689   1.314   2.720   0.327
 1710SOL    HW1 5690   1.239   2.685   0.376
 1710SOL    HW2 5691   1.291   2.704   0.235
 1711SOL     OW 5692   1.772   3.602   1.151
 1711SOL    HW1 5693   1.834   3.630   1.084
 1711SOL    HW2 5694   1.750   3.512   1.127
 1712SOL     OW 5695   1.244   3.595   1.109
 1712SOL    HW1 5696   1.327   3.616   1.066
 1712SOL    HW2 5697   1.250   3.501   1.128
 1713SOL     OW 5698   0.076   3.075   1.028
 1713SOL    HW1 5699   0.084   3.103   1.120
 1713SOL    HW2 5700   3.983   3.087   1.007
 1714SOL     OW 5701   0.679   3.527   1.733
 1714SOL    HW1 5702   0.621   3.603   1.737
 1714SOL    HW2 5703   0.739   3.546   1.661
 1715SOL     OW 5704   0.928   1.971   0.129
 1715SOL    HW1 5705   0.962   1.961   0.040
 1715SOL    HW2 5706   0.976   1.908   0.181
 1716SOL     OW 5707   1.390   3.434   0.486
 1716SOL    HW1 5708   1.452   3.469   0.423
 1716SOL    HW2 5709   1.342   3.511   0.518
 1717SOL     OW 5710   0.170   3.623   1.832
 1717SOL    HW1 5711   0.115   3.570   1.890
 1717SOL    HW2 5712   0.217   3.682   1.890
 1718SOL     OW 5713   1.277   2.788   0.671
 1718SOL    HW1 5714   1.351   2.728   0.679
 1718SOL    HW2 5715   1.311   2.860   0.618
 1719SOL     OW 5716   0.810   3.136   1.428
 1719SOL    HW1 5717   0.782   3.176   1.510
 1719SOL    HW2 5718   0.740   3.155   1.366
 1720SOL     OW 5719   0.673   3.449   0.190
 1720SOL    HW1 5720   0.659   3.490   0.105
 1720SOL    HW2 5721   0.627   3.365   0.184
 1721SOL     OW 5722   1.622   3.588   1.390
 1721SOL    HW1 5723   1.674   3.593   1.309
 1721SOL    HW2 5724   1.609   3.679   1.415
 1722SOL     OW 5725   0.266   2.174   0.717
 1722SOL    HW1 5726   0.180   2.207   0.692
 1722SOL    HW2 5727   0.261   2.165   0.812
 1723SOL     OW 5728   1.221   3.461   0.034
 1723SOL    HW1 5729   1.210   3.370   0.061
 1723SOL    HW2 5730   1.178   3.466  13.849
 1724SOL     OW 5731   0.823   2.868   1.373
 1724SOL    HW1 5732   0.868   2.863   1.289
 1724SOL    HW2 5733   0.822   2.961   1.394
 1725SOL     OW 5734   0.922   2.773   0.289
 1725SOL    HW1 5735   0.992   2.812   0.236
 1725SOL    HW2 5736   0.966   2.702   0.336
 1726SOL     OW 5737   1.486   3.509   0.065
 1726SOL    HW1 5738   1.393   3.487   0.057
 1726SOL    HW2 5739   1.521   3.498  13.877
 1727SOL     OW 5740   0.374   3.165   1.491
 1727SOL    HW1 5741   0.359   3.245   1.441
 1727SOL    HW2 5742   0.297   3.111   1.474
 1728SOL     OW 5743   1.610   3.145   1.280
 1728SOL    HW1 5744   1.670   3.133   1.354
 1728SOL    HW2 5745   1.549   3.213   1.310
 1729SOL     OW 5746   1.056   2.970   0.708
 1729SOL    HW1 5747   0.985   2.919   0.746
 1729SOL    HW2 5748   1.120   2.905   0.679
 1730SOL     OW 5749   1.023   2.103   0.966
 1730SOL    HW1 5750   1.019   2.056   0.883
 1730SOL    HW2 5751   1.017   2.034   1.033
 1731SOL     OW 5752   0.607   3.349   0.482
 1731SOL    HW1 5753   0.653   3.300   0.413
 1731SOL    HW2 5754   0.536   3.394   0.436
 1732SOL     OW 5755   1.724   2.255   1.378
 1732SOL    HW1 5756   1.798   2.316   1.384
 1732SOL    HW2 5757   1.751   2.192   1.311
 1733SOL     OW 5758   0.264   3.178   0.309
 1733SOL    HW1 5759   0.185   3.205   0.262
 1733SOL    HW2 5760   0.262   3.227   0.390
 1734SOL     OW 5761   0.107   2.859   1.717
 1734SOL    HW1 5762   0.047   2.853   1.791
 1734SOL    HW2 5763   0.193   2.841   1.755
 1735SOL     OW 5764   0.676   2.058   1.500
 1735SOL    HW1 5765   0.760   2.037   1.459
 1735SOL    HW2 5766   0.699   2.090   1.587
 1736SOL     OW 5767   0.051   2.222   0.037
 1736SOL    HW1 5768   3.961   2.228   0.067
 1736SOL    HW2 5769   0.044   2.229  13.841
 1737SOL     OW 5770   1.428   2.721   1.398
 1737SOL    HW1 5771   1.379   2.782   1.343
 1737SOL    HW2 5772   1.517   2.723   1.364
 1738SOL     OW 5773   0.053   2.037   0.313
 1738SOL    HW1 5774   0.081   2.102   0.249
 1738SOL    HW2 5775   0.115   1.964   0.302
 1739SOL     OW 5776   1.186   3.208   0.123
 1739SOL    HW1 5777   1.091   3.196   0.112
 1739SOL    HW2 5778   1.201   3.194   0.216
 1740SOL     OW 5779   0.620   2.692   1.436
 1740SOL    HW1 5780   0.676   2.768   1.421
 1740SOL    HW2 5781   0.680   2.619   1.444
 1741SOL     OW 5782   1.486   3.642   0.982
 1741SOL    HW1 5783   1.508   3.698   0.908
 1741SOL    HW2 5784   1.570   3.618   1.021
 1742SOL     OW 5785   0.716   2.425   1.704
 1742SOL    HW1 5786   0.761   2.486   1.762
 1742SOL    HW2 5787   0.741   2.338   1.736
 1743SOL     OW 5788   1.473   3.060   1.630
 1743SOL    HW1 5789   1.461   3.074   1.724
 1743SOL    HW2 5790   1.566   3.077   1.615
 1744SOL     OW 5791   0.378   3.607   1.559
 1744SOL    HW1 5792   0.290   3.643   1.546
 1744SOL    HW2 5793   0.364   3.525   1.605
 1745SOL     OW 5794   1.668   2.743   1.253
 1745SOL    HW1 5795   1.661   2.658   1.210
 1745SOL    HW2 5796   1.657   2.807   1.183
 1746SOL     OW 5797   1.217   2.182   0.456
 1746SOL    HW1 5798   1.282   2.111   0.449
 1746SOL    HW2 5799   1.244   2.232   0.533
 1747SOL     OW 5800   0.587   2.598   0.673
 1747SOL    HW1 5801   0.627   2.684   0.658
 1747SOL    HW2 5802   0.522   2.589   0.604
 1748SOL     OW 5803   1.755   2.240   1.657
 1748SOL    HW1 5804   1.747   2.247   1.562
 1748SOL    HW2 5805   1.684   2.180   1.683
 1749SOL     OW 5806   1.748   2.800   1.508
 1749SOL    HW1 5807   1.741   2.894   1.521
 1749SOL    HW2 5808   1.731   2.787   1.415
 1750SOL     OW 5809   0.907   3.261   0.066
 1750SOL    HW1 5810   0.840   3.242   0.132
 1750SOL    HW2 5811   0.859   3.262  13.883
 1751SOL     OW 5812   0.659   3.651   0.935
 1751SOL    HW1 5813   0.637   3.742   0.916
 1751SOL    HW2 5814   0.754   3.648   0.933
 1752SOL     OW 5815   0.868   2.829   0.853
 1752SOL    HW1 5816   0.919   2.758   0.892
 1752SOL    HW2 5817   0.833   2.877   0.928
 1753SOL     OW 5818   1.098   2.872   0.110
 1753SOL    HW1 5819   1.088   2.919   0.026
 1753SOL    HW2 5820   1.172   2.813   0.096
 1754SOL     OW 5821   1.851   3.412   0.842
 1754SOL    HW1 5822   1.772   3.404   0.789
 1754SOL    HW2 5823   1.838   3.351   0.914
 1755SOL     OW 5824   0.226   3.166   1.856
 1755SOL    HW1 5825   0.153   3.111   1.830
 1755SOL    HW2 5826   0.214   3.179   1.950
 1756SOL     OW 5827   0.107   3.141   0.728
 1756SOL    HW1 5828   0.129   3.093   0.808
 1756SOL    HW2 5829   0.103   3.073   0.660
 1757SOL     OW 5830   0.683   3.266   1.631
 1757SOL    HW1 5831   0.602   3.225   1.660
 1757SOL    HW2 5832   0.679   3.355   1.667
 1758SOL     OW 5833   0.439   2.297   0.538
 1758SOL    HW1 5834   0.466   2.224   0.482
 1758SOL    HW2 5835   0.384   2.256   0.605
 1759SOL     OW 5836   1.700   3.348   1.091
 1759SOL    HW1 5837   1.619   3.327   1.045
 1759SOL    HW2 5838   1.708   3.280   1.158
 1760SOL     OW 5839   0.334   2.419   1.292
 1760SOL    HW1 5840   0.389   2.362   1.347
 1760SOL    HW2 5841   0.350   2.388   1.203
 1761SOL     OW 5842   0.829   3.441   0.677
 1761SOL    HW1 5843   0.814   3.498   0.601
 1761SOL    HW2 5844   0.754   3.382   0.677
 1762SOL     OW 5845   1.437   2.092   1.119
 1762SOL    HW1 5846   1.447   2.004   1.156
 1762SOL    HW2 5847   1.383   2.139   1.182
 1763SOL     OW 5848   1.010   1.879   1.139
 1763SOL    HW1 5849   0.955   1.812   1.098
 1763SOL    HW2 5850   1.098   1.841   1.141
 1764SOL     OW 5851   0.778   3.185   0.320
 1764SOL    HW1 5852   0.747   3.096   0.336
 1764SOL    HW2 5853   0.860   3.191   0.369
 1765SOL     OW 5854   0.621   3.415   1.286
 1765SOL    HW1 5855   0.622   3.497   1.336
 1765SOL    HW2 5856   0.708   3.410   1.248
 1766SOL     OW 5857   1.347   1.921   0.166
 1766SOL    HW1 5858   1.377   1.869   0.092
 1766SOL    HW2 5859   1.263   1.882   0.191
 1767SOL     OW 5860   1.298   2.324   0.679
 1767SOL    HW1 5861   1.245   2.403   0.685
 1767SOL    HW2 5862   1.292   2.285   0.767
 1768SOL     OW 5863   1.570   2.052   0.871
 1768SOL    HW1 5864   1.535   2.080   0.956
 1768SOL    HW2 5865   1.587   2.134   0.824
 1769SOL     OW 5866   0.043   2.893   0.255
 1769SOL    HW1 5867   0.137   2.876   0.249
 1769SOL    HW2 5868   0.008   2.820   0.307
 1770SOL     OW 5869   0.893   3.520   0.345
 1770SOL    HW1 5870   0.819   3.490   0.293
 1770SOL    HW2 5871   0.860   3.596   0.393
 1771SOL     OW 5872   0.231   2.486   1.981
 1771SOL    HW1 5873   0.138   2.494   2.002
 1771SOL    HW2 5874   0.232   2.455   1.891
 1772SOL     OW 5875   0.229   2.134   2.849
 1772SOL    HW1 5876   0.250   2.100   2.936
 1772SOL    HW2 5877   0.134   2.126   2.842
 1773SOL     OW 5878   0.009   2.221   2.492
 1773SOL    HW1 5879   3.920   2.239   2.524
 1773SOL    HW2 5880   3.996   2.190   2.402
 1774SOL     OW 5881   0.580   3.151   3.052
 1774SOL    HW1 5882   0.494   3.154   3.011
 1774SOL    HW2 5883   0.594   3.239   3.085
 1775SOL     OW 5884   1.564   3.373   2.570
 1775SOL    HW1 5885   1.522   3.351   2.654
 1775SOL    HW2 5886   1.492   3.376   2.507
 1776SOL     OW 5887   1.131   2.560   2.560
 1776SOL    HW1 5888   1.180   2.641   2.547
 1776SOL    HW2 5889   1.085   2.573   2.643
 1777SOL     OW 5890   1.749   2.477   2.095
 1777SOL    HW1 5891   1.734   2.473   2.001
 1777SOL    HW2 5892   1.754   2.385   2.122
 1778SOL     OW 5893   0.753   3.001   2.904
 1778SOL    HW1 5894   0.689   3.037   2.966
 1778SOL    HW2 5895   0.789   3.078   2.860
 1779SOL     OW 5896   0.870   2.631   3.685
 1779SOL    HW1 5897   0.861   2.702   3.748
 1779SOL    HW2 5898   0.893   2.675   3.603
 1780SOL     OW 5899   0.685   2.863   2.508
 1780SOL    HW1 5900   0.751   2.853   2.576
 1780SOL    HW2 5901   0.616   2.916   2.549
 1781SOL     OW 5902   0.712   3.011   3.678
 1781SOL    HW1 5903   0.760   3.089   3.707
 1781SOL    HW2 5904   0.631   3.046   3.641
 1782SOL     OW 5905   0.351   3.263   2.940
 1782SOL    HW1 5906   0.269   3.248   2.893
 1782SOL    HW2 5907   0.400   3.322   2.883
 1783SOL     OW 5908   1.460   3.363   3.219
 1783SOL    HW1 5909   1.513   3.441   3.229
 1783SOL    HW2 5910   1.394   3.370   3.288
 1784SOL     OW 5911   0.450   2.261   3.349
 1784SOL    HW1 5912   0.525   2.201   3.353
 1784SOL    HW2 5913   0.374   2.204   3.363
 1785SOL     OW 5914   1.607   2.302   2.597
 1785SOL    HW1 5915   1.528   2.326   2.548
 1785SOL    HW2 5916   1.626   2.379   2.651
 1786SOL     OW 5917   0.223   3.571   2.328
 1786SOL    HW1 5918   0.223   3.654   2.375
 1786SOL    HW2 5919   0.300   3.576   2.271
 1787SOL     OW 5920   1.137   3.204   3.556
 1787SOL    HW1 5921   1.178   3.197   3.642
 1787SOL    HW2 5922   1.085   3.124   3.548
 1788SOL     OW 5923   0.250   3.306   2.402
 1788SOL    HW1 5924   0.222   3.396   2.388
 1788SOL    HW2 5925   0.181   3.267   2.455
 1789SOL     OW 5926   0.247   2.929   2.746
 1789SOL    HW1 5927   0.267   2.844   2.786
 1789SOL    HW2 5928   0.194   2.974   2.811
 1790SOL     OW 5929   0.611   3.648   3.289
 1790SOL    HW1 5930   0.528   3.634   3.336
 1790SOL    HW2 5931   0.637   3.737   3.314
 1791SOL     OW 5932   0.577   2.848   2.000
 1791SOL    HW1 5933   0.626   2.893   1.931
 1791SOL    HW2 5934   0.618   2.877   2.081
 1792SOL     OW 5935   1.597   1.992   3.327
 1792SOL    HW1 5936   1.589   2.078   3.284
 1792SOL    HW2 5937   1.587   2.011   3.420
 1793SOL     OW 5938   0.142   2.515   2.436
 1793SOL    HW1 5939   0.087   2.437   2.435
 1793SOL    HW2 5940   0.106   2.569   2.506
 1794SOL     OW 5941   1.843   3.609   2.200
 1794SOL    HW1 5942   1.911   3.585   2.262
 1794SOL    HW2 5943   1.862   3.700   2.176
 1795SOL     OW 5944   0.041   3.453   2.002
 1795SOL    HW1 5945   0.035   3.361   2.027
 1795SOL    HW2 5946   3.958   3.491   2.030
 1796SOL     OW 5947   1.690   2.781   2.505
 1796SOL    HW1 5948   1.770   2.735   2.480
 1796SOL    HW2 5949   1.666   2.831   2.427
 1797SOL     OW 5950   1.647   2.967   2.291
 1797SOL    HW1 5951   1.733   2.970   2.250
 1797SOL    HW2 5952   1.653   3.029   2.364
 1798SOL     OW 5953   0.139   2.615   3.451
 1798SOL    HW1 5954   0.235   2.610   3.448
 1798SOL    HW2 5955   0.121   2.703   3.483
 1799SOL     OW 5956   0.616   3.248   2.596
 1799SOL    HW1 5957   0.568   3.166   2.606
 1799SOL    HW2 5958   0.598   3.276   2.506
 1800SOL     OW 5959   1.287   3.099   3.284
 1800SOL    HW1 5960   1.319   3.031   3.224
 1800SOL    HW2 5961   1.346   3.094   3.359
 1801SOL     OW 5962   0.820   1.862   2.374
 1801SOL    HW1 5963   0.860   1.947   2.352
 1801SOL    HW2 5964   0.726   1.881   2.379
 1802SOL     OW 5965   0.184   2.812   3.142
 1802SOL    HW1 5966   0.272   2.777   3.129
 1802SOL    HW2 5967   0.132   2.774   3.071
 1803SOL     OW 5968   1.531   2.858   2.061
 1803SOL    HW1 5969   1.462   2.801   2.093
 1803SOL    HW2 5970   1.573   2.892   2.140
 1804SOL     OW 5971   1.217   3.666   3.489
 1804SOL    HW1 5972   1.194   3.727   3.419
 1804SOL    HW2 5973   1.219   3.580   3.447
 1805SOL     OW 5974   0.341   2.109   3.678
 1805SOL    HW1 5975   0.378   2.197   3.686
 1805SOL    HW2 5976   0.250   2.119   3.703
 1806SOL     OW 5977   1.466   3.281   2.812
 1806SOL    HW1 5978   1.399   3.297   2.878
 1806SOL    HW2 5979   1.453   3.190   2.785
 1807SOL     OW 5980   1.654   3.602   2.443
 1807SOL    HW1 5981   1.640   3.571   2.353
 1807SOL    HW2 5982   1.631   3.527   2.498
 1808SOL     OW 5983   0.596   2.578   2.128
 1808SOL    HW1 5984   0.602   2.662   2.083
 1808SOL    HW2 5985   0.533   2.593   2.198
 1809SOL     OW 5986   1.279   2.222   2.797
 1809SOL    HW1 5987   1.191   2.186   2.806
 1809SOL    HW2 5988   1.334   2.166   2.851
 1810SOL     OW 5989   1.577   3.538   2.170
 1810SOL    HW1 5990   1.669   3.561   2.165
 1810SOL    HW2 5991   1.551   3.518   2.080
 1811SOL     OW 5992   0.791   2.480   3.312
 1811SOL    HW1 5993   0.765   2.455   3.401
 1811SOL    HW2 5994   0.753   2.412   3.256
 1812SOL     OW 5995   1.393   2.335   3.539
 1812SOL    HW1 5996   1.395   2.381   3.622
 1812SOL    HW2 5997   1.456   2.264   3.549
 1813SOL     OW 5998   0.952   2.748   3.446
 1813SOL    HW1 5999   1.007   2.679   3.409
 1813SOL    HW2 6000   0.904   2.783   3.371
 1814SOL     OW 6001   0.993   2.273   3.099
 1814SOL    HW1 6002   0.905   2.293   3.132
 1814SOL    HW2 6003   0.977   2.229   3.015
 1815SOL     OW 6004   1.052   2.560   2.287
 1815SOL    HW1 6005   1.069   2.553   2.381
 1815SOL    HW2 6006   0.970   2.514   2.274
 1816SOL     OW 6007   0.082   2.691   2.652
 1816SOL    HW1 6008   0.157   2.660   2.704
 1816SOL    HW2 6009   0.100   2.784   2.637
 1817SOL     OW 6010   0.127   3.718   3.440
 1817SOL    HW1 6011   0.135   3.686   3.530
 1817SOL    HW2 6012   0.035   3.705   3.417
 1818SOL     OW 6013   0.896   2.212   2.055
 1818SOL    HW1 6014   0.936   2.275   1.995
 1818SOL    HW2 6015   0.914   2.127   2.015
 1819SOL     OW 6016   1.670   2.445   3.697
 1819SOL    HW1 6017   1.647   2.516   3.637
 1819SOL    HW2 6018   1.720   2.383   3.643
 1820SOL     OW 6019   1.379   3.004   2.403
 1820SOL    HW1 6020   1.458   2.991   2.350
 1820SOL    HW2 6021   1.326   3.066   2.352
 1821SOL     OW 6022   0.546   2.040   2.756
 1821SOL    HW1 6023   0.553   2.072   2.846
 1821SOL    HW2 6024   0.546   2.119   2.702
 1822SOL     OW 6025   1.003   3.307   2.332
 1822SOL    HW1 6026   0.967   3.381   2.284
 1822SOL    HW2 6027   0.983   3.326   2.424
 1823SOL     OW 6028   0.359   3.671   2.723
 1823SOL    HW1 6029   0.438   3.618   2.736
 1823SOL    HW2 6030   0.389   3.761   2.733
 1824SOL     OW 6031   1.800   2.916   2.731
 1824SOL    HW1 6032   1.747   2.896   2.654
 1824SOL    HW2 6033   1.737   2.923   2.803
 1825SOL     OW 6034   1.228   3.399   3.373
 1825SOL    HW1 6035   1.215   3.327   3.435
 1825SOL    HW2 6036   1.160   3.387   3.307
 1826SOL     OW 6037   0.311   2.816   2.104
 1826SOL    HW1 6038   0.394   2.839   2.063
 1826SOL    HW2 6039   0.298   2.724   2.083
 1827SOL     OW 6040   1.479   2.609   2.588
 1827SOL    HW1 6041   1.474   2.566   2.673
 1827SOL    HW2 6042   1.559   2.662   2.593
 1828SOL     OW 6043   0.468   3.122   3.599
 1828SOL    HW1 6044   0.442   3.130   3.507
 1828SOL    HW2 6045   0.386   3.126   3.647
 1829SOL     OW 6046   1.113   3.643   2.084
 1829SOL    HW1 6047   1.049   3.597   2.138
 1829SOL    HW2 6048   1.144   3.577   2.021
 1830SOL     OW 6049   0.204   2.135   3.370
 1830SOL    HW1 6050   0.114   2.168   3.364
 1830SOL    HW2 6051   0.195   2.048   3.409
 1831SOL     OW 6052   1.627   3.243   1.952
 1831SOL    HW1 6053   1.587   3.328   1.935
 1831SOL    HW2 6054   1.559   3.179   1.932
 1832SOL     OW 6055   0.468   3.601   2.183
 1832SOL    HW1 6056   0.507   3.664   2.244
 1832SOL    HW2 6057   0.541   3.573   2.128
 1833SOL     OW 6058   1.396   1.967   2.295
 1833SOL    HW1 6059   1.381   1.946   2.203
 1833SOL    HW2 6060   1.490   1.952   2.307
 1834SOL     OW 6061   0.253   3.656   3.089
 1834SOL    HW1 6062   0.297   3.590   3.142
 1834SOL    HW2 6063   0.251   3.619   3.000
 1835SOL     OW 6064   0.938   3.563   2.762
 1835SOL    HW1 6065   1.015   3.511   2.784
 1835SOL    HW2 6066   0.894   3.513   2.692
 1836SOL     OW 6067   0.399   2.555   2.333
 1836SOL    HW1 6068   0.424   2.464   2.348
 1836SOL    HW2 6069   0.307   2.559   2.360
 1837SOL     OW 6070   1.535   2.086   3.587
 1837SOL    HW1 6071   1.547   2.106   3.680
 1837SOL    HW2 6072   1.463   2.023   3.585
 1838SOL     OW 6073   0.642   1.980   1.959
 1838SOL    HW1 6074   0.704   1.910   1.979
 1838SOL    HW2 6075   0.592   1.949   1.884
 1839SOL     OW 6076   0.765   2.140   3.617
 1839SOL    HW1 6077   0.844   2.086   3.615
 1839SOL    HW2 6078   0.719   2.113   3.696
 1840SOL     OW 6079   0.876   3.383   3.056
 1840SOL    HW1 6080   0.859   3.346   2.969
 1840SOL    HW2 6081   0.946   3.328   3.092
 1841SOL     OW 6082   1.340   2.451   3.294
 1841SOL    HW1 6083   1.370   2.420   3.379
 1841SOL    HW2 6084   1.376   2.539   3.287
 1842SOL     OW 6085   0.817   3.254   2.804
 1842SOL    HW1 6086   0.902   3.242   2.761
 1842SOL    HW2 6087   0.754   3.256   2.732
 1843SOL     OW 6088   0.929   2.371   2.764
 1843SOL    HW1 6089   0.905   2.363   2.672
 1843SOL    HW2 6090   0.959   2.284   2.789
 1844SOL     OW 6091   0.556   1.924   2.357
 1844SOL    HW1 6092   0.474   1.929   2.406
 1844SOL    HW2 6093   0.560   2.006   2.308
 1845SOL     OW 6094   1.428   3.061   1.902
 1845SOL    HW1 6095   1.458   2.986   1.952
 1845SOL    HW2 6096   1.342   3.082   1.939
 1846SOL     OW 6097   0.308   1.913   2.031
 1846SOL    HW1 6098   0.372   1.951   1.971
 1846SOL    HW2 6099   0.358   1.848   2.081
 1847SOL     OW 6100   0.940   2.109   2.321
 1847SOL    HW1 6101   0.911   2.150   2.239
 1847SOL    HW2 6102   1.034   2.126   2.324
 1848SOL     OW 6103   1.080   2.544   3.320
 1848SOL    HW1 6104   1.014   2.476   3.325
 1848SOL    HW2 6105   1.163   2.496   3.314
 1849SOL     OW 6106   1.222   3.433   2.656
 1849SOL    HW1 6107   1.237   3.500   2.589
 1849SOL    HW2 6108   1.291   3.447   2.721
 1850SOL     OW 6109   0.467   3.013   2.597
 1850SOL    HW1 6110   0.395   2.989   2.656
 1850SOL    HW2 6111   0.431   2.997   2.509
 1851SOL     OW 6112   1.266   3.656   2.470
 1851SOL    HW1 6113   1.313   3.721   2.417
 1851SOL    HW2 6114   1.194   3.706   2.509
 1852SOL     OW 6115   1.023   2.400   1.887
 1852SOL    HW1 6116   0.981   2.484   1.868
 1852SOL    HW2 6117   1.090   2.422   1.952
 1853SOL     OW 6118   0.082   2.434   3.252
 1853SOL    HW1 6119   0.172   2.421   3.221
 1853SOL    HW2 6120   0.089   2.504   3.317
 1854SOL     OW 6121   0.567   2.089   3.028
 1854SOL    HW1 6122   0.608   2.014   3.070
 1854SOL    HW2 6123   0.475   2.086   3.057
 1855SOL     OW 6124   0.867   2.320   2.502
 1855SOL    HW1 6125   0.820   2.374   2.438
 1855SOL    HW2 6126   0.888   2.240   2.454
 1856SOL     OW 6127   1.017   1.916   2.612
 1856SOL    HW1 6128   0.958   1.910   2.536
 1856SOL    HW2 6129   0.993   1.840   2.666
 1857SOL     OW 6130   1.438   3.024   2.719
 1857SOL    HW1 6131   1.368   2.959   2.718
 1857SOL    HW2 6132   1.463   3.033   2.627
 1858SOL     OW 6133   1.465   2.469   2.834
 1858SOL    HW1 6134   1.411   2.390   2.837
 1858SOL    HW2 6135   1.523   2.461   2.910
 1859SOL     OW 6136   1.844   2.680   2.247
 1859SOL    HW1 6137   1.903   2.628   2.302
 1859SOL    HW2 6138   1.811   2.618   2.182
 1860SOL     OW 6139   0.488   3.281   2.021
 1860SOL    HW1 6140   0.412   3.251   2.071
 1860SOL    HW2 6141   0.470   3.252   1.931
 1861SOL     OW 6142   1.673   3.126   2.506
 1861SOL    HW1 6143   1.768   3.127   2.520
 1861SOL    HW2 6144   1.644   3.215   2.528
 1862SOL     OW 6145   1.391   2.438   1.929
 1862SOL    HW1 6146   1.339   2.413   2.006
 1862SOL    HW2 6147   1.481   2.419   1.955
 1863SOL     OW 6148   0.574   2.130   2.180
 1863SOL    HW1 6149   0.605   2.083   2.103
 1863SOL    HW2 6150   0.542   2.214   2.146
 1864SOL     OW 6151   1.751   3.103   3.430
 1864SOL    HW1 6152   1.838   3.064   3.428
 1864SOL    HW2 6153   1.766   3.194   3.458
 1865SOL     OW 6154   1.056   3.214   3.194
 1865SOL    HW1 6155   0.981   3.184   3.245
 1865SOL    HW2 6156   1.132   3.174   3.236
 1866SOL     OW 6157   1.610   3.488   3.518
 1866SOL    HW1 6158   1.601   3.522   3.429
 1866SOL    HW2 6159   1.692   3.440   3.518
 1867SOL     OW 6160   1.132   3.068   2.966
 1867SOL    HW1 6161   1.072   3.105   3.031
 1867SOL    HW2 6162   1.100   3.101   2.882
 1868SOL     OW 6163   1.626   2.959   2.938
 1868SOL    HW1 6164   1.621   3.021   3.011
 1868SOL    HW2 6165   1.548   2.977   2.885
 1869SOL     OW 6166   0.918   1.957   3.256
 1869SOL    HW1 6167   0.941   1.939   3.165
 1869SOL    HW2 6168   0.997   1.997   3.293
 1870SOL     OW 6169   0.984   2.977   3.584
 1870SOL    HW1 6170   0.893   2.993   3.607
 1870SOL    HW2 6171   0.982   2.899   3.530
 1871SOL     OW 6172   0.708   2.922   2.233
 1871SOL    HW1 6173   0.694   2.905   2.326
 1871SOL    HW2 6174   0.784   2.869   2.209
 1872SOL     OW 6175   0.422   2.679   3.114
 1872SOL    HW1 6176   0.490   2.687   3.181
 1872SOL    HW2 6177   0.388   2.590   3.126
 1873SOL     OW 6178   1.265   2.237   3.140
 1873SOL    HW1 6179   1.297   2.315   3.185
 1873SOL    HW2 6180   1.174   2.258   3.117
 1874SOL     OW 6181   0.065   3.442   3.208
 1874SOL    HW1 6182   0.071   3.496   3.129
 1874SOL    HW2 6183   0.157   3.429   3.235
 1875SOL     OW 6184   0.369   2.964   2.345
 1875SOL    HW1 6185   0.366   3.045   2.293
 1875SOL    HW2 6186   0.369   2.894   2.280
 1876SOL     OW 6187   0.549   2.398   2.723
 1876SOL    HW1 6188   0.564   2.455   2.648
 1876SOL    HW2 6189   0.617   2.424   2.786
 1877SOL     OW 6190   1.248   3.211   2.251
 1877SOL    HW1 6191   1.304   3.282   2.283
 1877SOL    HW2 6192   1.161   3.233   2.285
 1878SOL     OW 6193   1.284   3.321   3.010
 1878SOL    HW1 6194   1.340   3.325   3.087
 1878SOL    HW2 6195   1.229   3.245   3.024
 1879SOL     OW 6196   1.575   2.481   2.340
 1879SOL    HW1 6197   1.532   2.540   2.402
 1879SOL    HW2 6198   1.621   2.540   2.279
 1880SOL     OW 6199   0.345   3.389   3.180
 1880SOL    HW1 6200   0.335   3.339   3.099
 1880SOL    HW2 6201   0.439   3.404   3.187
 1881SOL     OW 6202   0.416   2.600   3.463
 1881SOL    HW1 6203   0.479   2.646   3.407
 1881SOL    HW2 6204   0.456   2.515   3.480
 1882SOL     OW 6205   1.602   2.648   3.538
 1882SOL    HW1 6206   1.516   2.692   3.532
 1882SOL    HW2 6207   1.655   2.692   3.471
 1883SOL     OW 6208   0.996   1.990   3.616
 1883SOL    HW1 6209   1.054   2.062   3.592
 1883SOL    HW2 6210   1.044   1.911   3.591
 1884SOL     OW 6211   0.497   1.897   3.608
 1884SOL    HW1 6212   0.453   1.845   3.541
 1884SOL    HW2 6213   0.443   1.975   3.617
 1885SOL     OW 6214   0.585   2.736   2.894
 1885SOL    HW1 6215   0.618   2.826   2.894
 1885SOL    HW2 6216   0.529   2.730   2.971
 1886SOL     OW 6217   1.354   2.720   2.888
 1886SOL    HW1 6218   1.269   2.709   2.845
 1886SOL    HW2 6219   1.397   2.635   2.880
 1887SOL     OW 6220   1.203   2.389   2.128
 1887SOL    HW1 6221   1.211   2.312   2.183
 1887SOL    HW2 6222   1.160   2.454   2.183
 1888SOL     OW 6223   0.310   2.058   3.109
 1888SOL    HW1 6224   0.264   2.095   3.184
 1888SOL    HW2 6225   0.287   1.965   3.110
 1889SOL     OW 6226   0.060   3.167   3.142
 1889SOL    HW1 6227   0.091   3.126   3.223
 1889SOL    HW2 6228   0.052   3.260   3.164
 1890SOL     OW 6229   0.723   2.493   2.918
 1890SOL    HW1 6230   0.799   2.477   2.861
 1890SOL    HW2 6231   0.695   2.582   2.897
 1891SOL     OW 6232   1.735   2.822   3.715
 1891SOL    HW1 6233   1.691   2.756   3.661
 1891SOL    HW2 6234   1.676   2.836   3.789
 1892SOL     OW 6235   0.314   1.924   2.482
 1892SOL    HW1 6236   0.293   2.015   2.503
 1892SOL    HW2 6237   0.320   1.881   2.567
 1893SOL     OW 6238   1.609   2.233   2.237
 1893SOL    HW1 6239   1.617   2.184   2.319
 1893SOL    HW2 6240   1.589   2.323   2.264
 1894SOL     OW 6241   1.028   2.621   2.821
 1894SOL    HW1 6242   1.023   2.638   2.915
 1894SOL    HW2 6243   1.002   2.529   2.812
 1895SOL     OW 6244   0.986   3.430   3.582
 1895SOL    HW1 6245   0.967   3.471   3.498
 1895SOL    HW2 6246   1.027   3.347   3.560
 1896SOL     OW 6247   1.853   3.365   3.466
 1896SOL    HW1 6248   1.873   3.393   3.377
 1896SOL    HW2 6249   1.934   3.382   3.515
 1897SOL     OW 6250   0.353   2.783   3.662
 1897SOL    HW1 6251   0.431   2.805   3.713
 1897SOL    HW2 6252   0.381   2.716   3.600
 1898SOL     OW 6253   1.530   2.130   1.990
 1898SOL    HW1 6254   1.462   2.069   2.018
 1898SOL    HW2 6255   1.561   2.170   2.072
 1899SOL     OW 6256   1.289   2.689   1.892
 1899SOL    HW1 6257   1.330   2.603   1.895
 1899SOL    HW2 6258   1.321   2.728   1.810
 1900SOL     OW 6259   1.067   3.199   2.717
 1900SOL    HW1 6260   1.071   3.126   2.654
 1900SOL    HW2 6261   1.127   3.264   2.682
 1901SOL     OW 6262   0.313   2.664   2.812
 1901SOL    HW1 6263   0.407   2.682   2.806
 1901SOL    HW2 6264   0.308   2.574   2.844
 1902SOL     OW 6265   0.329   2.383   2.876
 1902SOL    HW1 6266   0.295   2.295   2.860
 1902SOL    HW2 6267   0.406   2.390   2.819
 1903SOL     OW 6268   1.134   2.236   3.546
 1903SOL    HW1 6269   1.086   2.291   3.608
 1903SOL    HW2 6270   1.222   2.274   3.543
 1904SOL     OW 6271   1.161   2.063   3.333
 1904SOL    HW1 6272   1.150   2.125   3.405
 1904SOL    HW2 6273   1.201   2.113   3.263
 1905SOL     OW 6274   4.000   3.180   2.044
 1905SOL    HW1 6275   3.905   3.196   2.048
 1905SOL    HW2 6276   0.009   3.086   2.062
 1906SOL     OW 6277   0.076   3.663   2.757
 1906SOL    HW1 6278   0.090   3.568   2.755
 1906SOL    HW2 6279   0.163   3.701   2.755
 1907SOL     OW 6280   0.507   3.425   2.779
 1907SOL    HW1 6281   0.573   3.492   2.799
 1907SOL    HW2 6282   0.549   3.367   2.716
 1908SOL     OW 6283   0.979   2.652   3.087
 1908SOL    HW1 6284   1.037   2.631   3.160
 1908SOL    HW2 6285   0.894   2.614   3.112
 1909SOL     OW 6286   0.038   2.420   2.971
 1909SOL    HW1 6287   0.120   2.397   2.929
 1909SOL    HW2 6288   0.057   2.416   3.065
 1910SOL     OW 6289   0.207   2.375   3.589
 1910SOL    HW1 6290   0.246   2.327   3.516
 1910SOL    HW2 6291   0.160   2.448   3.549
 1911SOL     OW 6292   1.375   2.801   3.518
 1911SOL    HW1 6293   1.397   2.894   3.515
 1911SOL    HW2 6294   1.371   2.774   3.427
 1912SOL     OW 6295   0.818   2.431   2.224
 1912SOL    HW1 6296   0.823   2.356   2.165
 1912SOL    HW2 6297   0.744   2.482   2.192
 1913SOL     OW 6298   1.642   2.465   3.044
 1913SOL    HW1 6299   1.632   2.411   3.122
 1913SOL    HW2 6300   1.728   2.441   3.010
 1914SOL     OW 6301   0.299   3.407   3.588
 1914SOL    HW1 6302   0.251   3.477   3.633
 1914SOL    HW2 6303   0.268   3.326   3.628
 1915SOL     OW 6304   0.707   2.311   3.119
 1915SOL    HW1 6305   0.654   2.237   3.090
 1915SOL    HW2 6306   0.701   2.375   3.048
 1916SOL     OW 6307   0.927   3.534   3.331
 1916SOL    HW1 6308   0.901   3.496   3.247
 1916SOL    HW2 6309   0.919   3.628   3.318
 1917SOL     OW 6310   0.455   2.351   2.057
 1917SOL    HW1 6311   0.520   2.419   2.075
 1917SOL    HW2 6312   0.375   2.400   2.035
 1918SOL     OW 6313   0.156   2.997   3.337
 1918SOL    HW1 6314   0.156   2.946   3.418
 1918SOL    HW2 6315   0.171   2.932   3.268
 1919SOL     OW 6316   1.324   2.907   3.083
 1919SOL    HW1 6317   1.346   2.844   3.015
 1919SOL    HW2 6318   1.255   2.962   3.044
 1920SOL     OW 6319   1.313   2.719   2.167
 1920SOL    HW1 6320   1.238   2.687   2.218
 1920SOL    HW2 6321   1.288   2.705   2.076
 1921SOL     OW 6322   1.772   3.602   3.013
 1921SOL    HW1 6323   1.834   3.630   2.946
 1921SOL    HW2 6324   1.750   3.512   2.989
 1922SOL     OW 6325   1.244   3.595   2.971
 1922SOL    HW1 6326   1.327   3.616   2.928
 1922SOL    HW2 6327   1.250   3.501   2.991
 1923SOL     OW 6328   0.076   3.076   2.890
 1923SOL    HW1 6329   0.083   3.104   2.981
 1923SOL    HW2 6330   3.984   3.087   2.868
 1924SOL     OW 6331   0.679   3.527   3.595
 1924SOL    HW1 6332   0.621   3.603   3.599
 1924SOL    HW2 6333   0.739   3.546   3.523
 1925SOL     OW 6334   1.391   3.431   2.349
 1925SOL    HW1 6335   1.450   3.464   2.282
 1925SOL    HW2 6336   1.342   3.508   2.379
 1926SOL     OW 6337   0.170   3.623   3.694
 1926SOL    HW1 6338   0.115   3.570   3.752
 1926SOL    HW2 6339   0.217   3.682   3.752
 1927SOL     OW 6340   1.277   2.789   2.533
 1927SOL    HW1 6341   1.351   2.728   2.542
 1927SOL    HW2 6342   1.312   2.861   2.480
 1928SOL     OW 6343   0.810   3.136   3.290
 1928SOL    HW1 6344   0.782   3.177   3.372
 1928SOL    HW2 6345   0.739   3.155   3.228
 1929SOL     OW 6346   0.675   3.479   2.020
 1929SOL    HW1 6347   0.683   3.496   1.926
 1929SOL    HW2 6348   0.616   3.404   2.025
 1930SOL     OW 6349   1.622   3.588   3.252
 1930SOL    HW1 6350   1.674   3.593   3.171
 1930SOL    HW2 6351   1.609   3.679   3.277
 1931SOL     OW 6352   0.266   2.175   2.578
 1931SOL    HW1 6353   0.180   2.207   2.552
 1931SOL    HW2 6354   0.261   2.165   2.673
 1932SOL     OW 6355   1.208   3.466   1.898
 1932SOL    HW1 6356   1.197   3.374   1.922
 1932SOL    HW2 6357   1.147   3.479   1.825
 1933SOL     OW 6358   0.823   2.868   3.235
 1933SOL    HW1 6359   0.868   2.862   3.151
 1933SOL    HW2 6360   0.822   2.961   3.256
 1934SOL     OW 6361   0.916   2.772   2.153
 1934SOL    HW1 6362   0.976   2.805   2.086
 1934SOL    HW2 6363   0.965   2.704   2.198
 1935SOL     OW 6364   1.489   3.491   1.904
 1935SOL    HW1 6365   1.395   3.480   1.888
 1935SOL    HW2 6366   1.528   3.496   1.817
 1936SOL     OW 6367   0.374   3.165   3.353
 1936SOL    HW1 6368   0.359   3.245   3.303
 1936SOL    HW2 6369   0.297   3.111   3.336
 1937SOL     OW 6370   1.609   3.145   3.142
 1937SOL    HW1 6371   1.670   3.132   3.215
 1937SOL    HW2 6372   1.549   3.213   3.172
 1938SOL     OW 6373   1.056   2.971   2.570
 1938SOL    HW1 6374   0.984   2.920   2.608
 1938SOL    HW2 6375   1.120   2.905   2.541
 1939SOL     OW 6376   1.023   2.103   2.829
 1939SOL    HW1 6377   1.019   2.056   2.746
 1939SOL    HW2 6378   1.017   2.034   2.895
 1940SOL     OW 6379   0.606   3.352   2.342
 1940SOL    HW1 6380   0.651   3.302   2.275
 1940SOL    HW2 6381   0.534   3.395   2.296
 1941SOL     OW 6382   1.724   2.256   3.240
 1941SOL    HW1 6383   1.798   2.316   3.246
 1941SOL    HW2 6384   1.751   2.191   3.175
 1942SOL     OW 6385   0.253   3.203   2.154
 1942SOL    HW1 6386   0.160   3.211   2.135
 1942SOL    HW2 6387   0.264   3.241   2.241
 1943SOL     OW 6388   0.107   2.860   3.579
 1943SOL    HW1 6389   0.047   2.853   3.653
 1943SOL    HW2 6390   0.193   2.842   3.616
 1944SOL     OW 6391   0.676   2.058   3.362
 1944SOL    HW1 6392   0.760   2.037   3.321
 1944SOL    HW2 6393   0.699   2.090   3.449
 1945SOL     OW 6394   0.081   2.176   1.899
 1945SOL    HW1 6395   3.985   2.176   1.907
 1945SOL    HW2 6396   0.101   2.257   1.852
 1946SOL     OW 6397   1.428   2.721   3.260
 1946SOL    HW1 6398   1.379   2.782   3.205
 1946SOL    HW2 6399   1.517   2.723   3.226
 1947SOL     OW 6400   0.018   2.097   2.238
 1947SOL    HW1 6401   0.045   2.161   2.172
 1947SOL    HW2 6402   0.100   2.058   2.268
 1948SOL     OW 6403   1.178   3.199   1.979
 1948SOL    HW1 6404   1.087   3.170   1.980
 1948SOL    HW2 6405   1.205   3.199   2.071
 1949SOL     OW 6406   0.620   2.692   3.298
 1949SOL    HW1 6407   0.676   2.768   3.283
 1949SOL    HW2 6408   0.680   2.619   3.306
 1950SOL     OW 6409   1.486   3.641   2.843
 1950SOL    HW1 6410   1.509   3.700   2.771
 1950SOL    HW2 6411   1.570   3.619   2.883
 1951SOL     OW 6412   0.716   2.425   3.566
 1951SOL    HW1 6413   0.761   2.486   3.624
 1951SOL    HW2 6414   0.741   2.338   3.598
 1952SOL     OW 6415   1.473   3.060   3.492
 1952SOL    HW1 6416   1.461   3.074   3.586
 1952SOL    HW2 6417   1.566   3.077   3.477
 1953SOL     OW 6418   0.378   3.607   3.421
 1953SOL    HW1 6419   0.290   3.643   3.408
 1953SOL    HW2 6420   0.364   3.525   3.467
 1954SOL     OW 6421   1.668   2.743   3.116
 1954SOL    HW1 6422   1.661   2.658   3.073
 1954SOL    HW2 6423   1.657   2.806   3.045
 1955SOL     OW 6424   1.215   2.181   2.320
 1955SOL    HW1 6425   1.277   2.109   2.313
 1955SOL    HW2 6426   1.244   2.231   2.397
 1956SOL     OW 6427   0.589   2.599   2.534
 1956SOL    HW1 6428   0.628   2.685   2.519
 1956SOL    HW2 6429   0.523   2.590   2.466
 1957SOL     OW 6430   1.754   2.240   3.518
 1957SOL    HW1 6431   1.745   2.248   3.423
 1957SOL    HW2 6432   1.684   2.181   3.545
 1958SOL     OW 6433   1.749   2.800   3.370
 1958SOL    HW1 6434   1.740   2.894   3.383
 1958SOL    HW2 6435   1.731   2.787   3.277
 1959SOL     OW 6436   0.865   3.229   1.901
 1959SOL    HW1 6437   0.823   3.257   1.982
 1959SOL    HW2 6438   0.879   3.309   1.852
 1960SOL     OW 6439   0.659   3.651   2.797
 1960SOL    HW1 6440   0.637   3.742   2.778
 1960SOL    HW2 6441   0.754   3.647   2.795
 1961SOL     OW 6442   0.869   2.830   2.715
 1961SOL    HW1 6443   0.919   2.758   2.754
 1961SOL    HW2 6444   0.832   2.877   2.791
 1962SOL     OW 6445   1.077   2.850   1.950
 1962SOL    HW1 6446   1.056   2.902   1.872
 1962SOL    HW2 6447   1.152   2.796   1.925
 1963SOL     OW 6448   1.851   3.413   2.704
 1963SOL    HW1 6449   1.771   3.402   2.652
 1963SOL    HW2 6450   1.842   3.350   2.775
 1964SOL     OW 6451   0.226   3.166   3.718
 1964SOL    HW1 6452   0.153   3.111   3.692
 1964SOL    HW2 6453   0.214   3.179   3.812
 1965SOL     OW 6454   0.115   3.140   2.584
 1965SOL    HW1 6455   0.134   3.090   2.663
 1965SOL    HW2 6456   0.105   3.074   2.515
 1966SOL     OW 6457   0.683   3.266   3.492
 1966SOL    HW1 6458   0.602   3.225   3.522
 1966SOL    HW2 6459   0.679   3.355   3.529
 1967SOL     OW 6460   0.441   2.296   2.396
 1967SOL    HW1 6461   0.442   2.226   2.330
 1967SOL    HW2 6462   0.385   2.262   2.466
 1968SOL     OW 6463   1.700   3.348   2.954
 1968SOL    HW1 6464   1.619   3.327   2.908
 1968SOL    HW2 6465   1.709   3.280   3.021
 1969SOL     OW 6466   0.334   2.419   3.154
 1969SOL    HW1 6467   0.389   2.362   3.208
 1969SOL    HW2 6468   0.349   2.388   3.065
 1970SOL     OW 6469   0.828   3.441   2.538
 1970SOL    HW1 6470   0.812   3.495   2.461
 1970SOL    HW2 6471   0.754   3.381   2.542
 1971SOL     OW 6472   1.437   2.092   2.981
 1971SOL    HW1 6473   1.446   2.004   3.018
 1971SOL    HW2 6474   1.383   2.138   3.044
 1972SOL     OW 6475   1.010   1.879   3.001
 1972SOL    HW1 6476   0.956   1.812   2.960
 1972SOL    HW2 6477   1.098   1.841   3.003
 1973SOL     OW 6478   0.772   3.194   2.181
 1973SOL    HW1 6479   0.743   3.103   2.187
 1973SOL    HW2 6480   0.855   3.196   2.229
 1974SOL     OW 6481   0.621   3.416   3.148
 1974SOL    HW1 6482   0.621   3.497   3.198
 1974SOL    HW2 6483   0.708   3.410   3.110
 1975SOL     OW 6484   1.350   1.914   2.029
 1975SOL    HW1 6485   1.381   1.851   1.964
 1975SOL    HW2 6486   1.263   1.883   2.053
 1976SOL     OW 6487   1.297   2.323   2.542
 1976SOL    HW1 6488   1.245   2.403   2.547
 1976SOL    HW2 6489   1.292   2.286   2.630
 1977SOL     OW 6490   1.571   2.052   2.733
 1977SOL    HW1 6491   1.535   2.079   2.817
 1977SOL    HW2 6492   1.586   2.134   2.686
 1978SOL     OW 6493   0.047   2.911   2.101
 1978SOL    HW1 6494   0.141   2.896   2.093
 1978SOL    HW2 6495   0.012   2.828   2.132
 1979SOL     OW 6496   0.886   3.521   2.205
 1979SOL    HW1 6497   0.815   3.501   2.144
 1979SOL    HW2 6498   0.855   3.596   2.255
 1980SOL     OW 6499   0.231   2.486   3.843
 1980SOL    HW1 6500   0.138   2.494   3.864
 1980SOL    HW2 6501   0.232   2.455   3.753
 1981SOL     OW 6502   0.229   2.134   4.711
 1981SOL    HW1 6503   0.250   2.100   4.798
 1981SOL    HW2 6504   0.134   2.126   4.704
 1982SOL     OW 6505   0.009   2.221   4.354
 1982SOL    HW1 6506   3.920   2.239   4.386
 1982SOL    HW2 6507   3.996   2.190   4.264
 1983SOL     OW 6508   0.580   3.151   4.914
 1983SOL    HW1 6509   0.494   3.154   4.873
 1983SOL    HW2 6510   0.594   3.239   4.947
 1984SOL     OW 6511   1.564   3.373   4.432
 1984SOL    HW1 6512   1.522   3.351   4.515
 1984SOL    HW2 6513   1.492   3.376   4.369
 1985SOL     OW 6514   1.132   2.560   4.422
 1985SOL    HW1 6515   1.180   2.641   4.409
 1985SOL    HW2 6516   1.085   2.573   4.505
 1986SOL     OW 6517   1.751   2.476   3.957
 1986SOL    HW1 6518   1.734   2.473   3.863
 1986SOL    HW2 6519   1.753   2.385   3.984
 1987SOL     OW 6520   0.753   3.001   4.766
 1987SOL    HW1 6521   0.689   3.037   4.828
 1987SOL    HW2 6522   0.789   3.078   4.722
 1988SOL     OW 6523   0.871   2.631   5.547
 1988SOL    HW1 6524   0.859   2.701   5.610
 1988SOL    HW2 6525   0.893   2.675   5.465
 1989SOL     OW 6526   0.685   2.863   4.370
 1989SOL    HW1 6527   0.751   2.853   4.438
 1989SOL    HW2 6528   0.616   2.916   4.411
 1990SOL     OW 6529   0.712   3.012   5.540
 1990SOL    HW1 6530   0.760   3.089   5.569
 1990SOL    HW2 6531   0.631   3.046   5.503
 1991SOL     OW 6532   0.351   3.263   4.802
 1991SOL    HW1 6533   0.269   3.248   4.755
 1991SOL    HW2 6534   0.400   3.322   4.745
 1992SOL     OW 6535   1.460   3.363   5.081
 1992SOL    HW1 6536   1.513   3.441   5.091
 1992SOL    HW2 6537   1.393   3.370   5.149
 1993SOL     OW 6538   0.450   2.260   5.211
 1993SOL    HW1 6539   0.525   2.201   5.214
 1993SOL    HW2 6540   0.374   2.204   5.224
 1994SOL     OW 6541   1.607   2.303   4.459
 1994SOL    HW1 6542   1.527   2.326   4.411
 1994SOL    HW2 6543   1.624   2.379   4.514
 1995SOL     OW 6544   0.223   3.571   4.190
 1995SOL    HW1 6545   0.223   3.654   4.237
 1995SOL    HW2 6546   0.300   3.576   4.133
 1996SOL     OW 6547   1.137   3.203   5.417
 1996SOL    HW1 6548   1.178   3.197   5.504
 1996SOL    HW2 6549   1.085   3.124   5.410
 1997SOL     OW 6550   0.250   3.306   4.264
 1997SOL    HW1 6551   0.222   3.396   4.250
 1997SOL    HW2 6552   0.181   3.267   4.317
 1998SOL     OW 6553   0.247   2.929   4.608
 1998SOL    HW1 6554   0.267   2.844   4.648
 1998SOL    HW2 6555   0.194   2.974   4.673
 1999SOL     OW 6556   0.611   3.648   5.151
 1999SOL    HW1 6557   0.528   3.634   5.198
 1999SOL    HW2 6558   0.637   3.737   5.176
 2000SOL     OW 6559   0.577   2.848   3.862
 2000SOL    HW1 6560   0.626   2.893   3.793
 2000SOL    HW2 6561   0.618   2.877   3.943
 2001SOL     OW 6562   1.596   1.992   5.188
 2001SOL    HW1 6563   1.587   2.078   5.145
 2001SOL    HW2 6564   1.584   2.010   5.281
 2002SOL     OW 6565   0.142   2.515   4.298
 2002SOL    HW1 6566   0.087   2.437   4.296
 2002SOL    HW2 6567   0.106   2.569   4.368
 2003SOL     OW 6568   1.843   3.609   4.062
 2003SOL    HW1 6569   1.911   3.585   4.124
 2003SOL    HW2 6570   1.862   3.700   4.038
 2004SOL     OW 6571   0.041   3.453   3.864
 2004SOL    HW1 6572   0.034   3.361   3.889
 2004SOL    HW2 6573   3.958   3.491   3.892
 2005SOL     OW 6574   1.690   2.781   4.367
 2005SOL    HW1 6575   1.770   2.735   4.342
 2005SOL    HW2 6576   1.666   2.831   4.289
 2006SOL     OW 6577   1.647   2.967   4.153
 2006SOL    HW1 6578   1.733   2.970   4.112
 2006SOL    HW2 6579   1.653   3.029   4.226
 2007SOL     OW 6580   0.139   2.615   5.313
 2007SOL    HW1 6581   0.235   2.610   5.310
 2007SOL    HW2 6582   0.121   2.703   5.345
 2008SOL     OW 6583   0.616   3.248   4.458
 2008SOL    HW1 6584   0.568   3.166   4.468
 2008SOL    HW2 6585   0.598   3.276   4.368
 2009SOL     OW 6586   1.287   3.098   5.146
 2009SOL    HW1 6587   1.319   3.031   5.086
 2009SOL    HW2 6588   1.346   3.094   5.221
 2010SOL     OW 6589   0.820   1.862   4.236
 2010SOL    HW1 6590   0.860   1.947   4.214
 2010SOL    HW2 6591   0.726   1.881   4.241
 2011SOL     OW 6592   0.184   2.812   5.004
 2011SOL    HW1 6593   0.272   2.777   4.991
 2011SOL    HW2 6594   0.132   2.774   4.933
 2012SOL     OW 6595   1.531   2.858   3.923
 2012SOL    HW1 6596   1.462   2.801   3.955
 2012SOL    HW2 6597   1.573   2.892   4.002
 2013SOL     OW 6598   1.218   3.666   5.351
 2013SOL    HW1 6599   1.194   3.727   5.281
 2013SOL    HW2 6600   1.219   3.580   5.309
 2014SOL     OW 6601   0.342   2.109   5.541
 2014SOL    HW1 6602   0.377   2.198   5.547
 2014SOL    HW2 6603   0.249   2.119   5.566
 2015SOL     OW 6604   1.466   3.281   4.674
 2015SOL    HW1 6605   1.399   3.297   4.740
 2015SOL    HW2 6606   1.453   3.190   4.647
 2016SOL     OW 6607   1.654   3.602   4.305
 2016SOL    HW1 6608   1.640   3.571   4.215
 2016SOL    HW2 6609   1.631   3.527   4.360
 2017SOL     OW 6610   0.596   2.578   3.990
 2017SOL    HW1 6611   0.602   2.662   3.945
 2017SOL    HW2 6612   0.533   2.593   4.060
 2018SOL     OW 6613   1.279   2.223   4.659
 2018SOL    HW1 6614   1.191   2.186   4.669
 2018SOL    HW2 6615   1.334   2.166   4.713
 2019SOL     OW 6616   1.577   3.538   4.032
 2019SOL    HW1 6617   1.669   3.561   4.027
 2019SOL    HW2 6618   1.551   3.518   3.942
 2020SOL     OW 6619   0.791   2.480   5.174
 2020SOL    HW1 6620   0.765   2.455   5.263
 2020SOL    HW2 6621   0.754   2.412   5.118
 2021SOL     OW 6622   1.392   2.335   5.400
 2021SOL    HW1 6623   1.396   2.381   5.483
 2021SOL    HW2 6624   1.454   2.262   5.410
 2022SOL     OW 6625   0.952   2.748   5.308
 2022SOL    HW1 6626   1.007   2.679   5.271
 2022SOL    HW2 6627   0.904   2.783   5.233
 2023SOL     OW 6628   0.993   2.274   4.961
 2023SOL    HW1 6629   0.905   2.293   4.994
 2023SOL    HW2 6630   0.978   2.229   4.877
 2024SOL     OW 6631   1.052   2.560   4.149
 2024SOL    HW1 6632   1.069   2.553   4.243
 2024SOL    HW2 6633   0.970   2.514   4.136
 2025SOL     OW 6634   0.082   2.691   4.514
 2025SOL    HW1 6635   0.157   2.660   4.566
 2025SOL    HW2 6636   0.100   2.784   4.499
 2026SOL     OW 6637   0.127   3.717   5.302
 2026SOL    HW1 6638   0.135   3.686   5.392
 2026SOL    HW2 6639   0.035   3.705   5.279
 2027SOL     OW 6640   0.896   2.212   3.917
 2027SOL    HW1 6641   0.936   2.275   3.857
 2027SOL    HW2 6642   0.914   2.127   3.877
 2028SOL     OW 6643   1.672   2.441   5.543
 2028SOL    HW1 6644   1.649   2.513   5.484
 2028SOL    HW2 6645   1.719   2.379   5.488
 2029SOL     OW 6646   1.379   3.004   4.265
 2029SOL    HW1 6647   1.458   2.991   4.212
 2029SOL    HW2 6648   1.326   3.066   4.214
 2030SOL     OW 6649   0.546   2.040   4.618
 2030SOL    HW1 6650   0.553   2.072   4.708
 2030SOL    HW2 6651   0.546   2.119   4.564
 2031SOL     OW 6652   1.003   3.307   4.194
 2031SOL    HW1 6653   0.967   3.381   4.146
 2031SOL    HW2 6654   0.983   3.326   4.286
 2032SOL     OW 6655   0.359   3.671   4.585
 2032SOL    HW1 6656   0.438   3.618   4.598
 2032SOL    HW2 6657   0.389   3.761   4.595
 2033SOL     OW 6658   1.800   2.916   4.593
 2033SOL    HW1 6659   1.747   2.896   4.516
 2033SOL    HW2 6660   1.736   2.922   4.665
 2034SOL     OW 6661   1.228   3.399   5.235
 2034SOL    HW1 6662   1.215   3.327   5.297
 2034SOL    HW2 6663   1.159   3.387   5.169
 2035SOL     OW 6664   0.311   2.816   3.966
 2035SOL    HW1 6665   0.394   2.839   3.925
 2035SOL    HW2 6666   0.298   2.724   3.945
 2036SOL     OW 6667   1.480   2.609   4.450
 2036SOL    HW1 6668   1.474   2.566   4.535
 2036SOL    HW2 6669   1.559   2.662   4.455
 2037SOL     OW 6670   0.468   3.122   5.461
 2037SOL    HW1 6671   0.442   3.130   5.369
 2037SOL    HW2 6672   0.386   3.126   5.509
 2038SOL     OW 6673   1.113   3.643   3.946
 2038SOL    HW1 6674   1.049   3.597   4.000
 2038SOL    HW2 6675   1.144   3.577   3.883
 2039SOL     OW 6676   0.204   2.135   5.233
 2039SOL    HW1 6677   0.114   2.168   5.226
 2039SOL    HW2 6678   0.195   2.048   5.271
 2040SOL     OW 6679   1.627   3.243   3.814
 2040SOL    HW1 6680   1.587   3.328   3.797
 2040SOL    HW2 6681   1.559   3.179   3.794
 2041SOL     OW 6682   0.468   3.601   4.045
 2041SOL    HW1 6683   0.507   3.664   4.106
 2041SOL    HW2 6684   0.541   3.573   3.990
 2042SOL     OW 6685   1.396   1.967   4.157
 2042SOL    HW1 6686   1.381   1.946   4.065
 2042SOL    HW2 6687   1.490   1.951   4.169
 2043SOL     OW 6688   0.253   3.656   4.951
 2043SOL    HW1 6689   0.297   3.590   5.004
 2043SOL    HW2 6690   0.251   3.619   4.862
 2044SOL     OW 6691   0.938   3.563   4.624
 2044SOL    HW1 6692   1.015   3.511   4.645
 2044SOL    HW2 6693   0.894   3.513   4.554
 2045SOL     OW 6694   0.399   2.555   4.195
 2045SOL    HW1 6695   0.424   2.464   4.210
 2045SOL    HW2 6696   0.307   2.559   4.222
 2046SOL     OW 6697   1.533   2.085   5.449
 2046SOL    HW1 6698   1.544   2.106   5.542
 2046SOL    HW2 6699   1.463   2.019   5.447
 2047SOL     OW 6700   0.642   1.980   3.821
 2047SOL    HW1 6701   0.704   1.910   3.841
 2047SOL    HW2 6702   0.592   1.949   3.746
 2048SOL     OW 6703   0.766   2.142   5.480
 2048SOL    HW1 6704   0.844   2.087   5.476
 2048SOL    HW2 6705   0.717   2.108   5.555
 2049SOL     OW 6706   0.876   3.383   4.918
 2049SOL    HW1 6707   0.859   3.346   4.831
 2049SOL    HW2 6708   0.946   3.328   4.954
 2050SOL     OW 6709   1.340   2.451   5.155
 2050SOL    HW1 6710   1.370   2.420   5.241
 2050SOL    HW2 6711   1.376   2.540   5.148
 2051SOL     OW 6712   0.817   3.254   4.666
 2051SOL    HW1 6713   0.902   3.242   4.623
 2051SOL    HW2 6714   0.754   3.256   4.594
 2052SOL     OW 6715   0.929   2.371   4.626
 2052SOL    HW1 6716   0.905   2.363   4.534
 2052SOL    HW2 6717   0.959   2.284   4.651
 2053SOL     OW 6718   0.556   1.924   4.219
 2053SOL    HW1 6719   0.474   1.929   4.268
 2053SOL    HW2 6720   0.560   2.006   4.170
 2054SOL     OW 6721   1.428   3.061   3.764
 2054SOL    HW1 6722   1.458   2.986   3.814
 2054SOL    HW2 6723   1.342   3.082   3.801
 2055SOL     OW 6724   0.308   1.913   3.894
 2055SOL    HW1 6725   0.372   1.951   3.833
 2055SOL    HW2 6726   0.358   1.848   3.943
 2056SOL     OW 6727   0.940   2.109   4.183
 2056SOL    HW1 6728   0.911   2.150   4.101
 2056SOL    HW2 6729   1.034   2.126   4.186
 2057SOL     OW 6730   1.080   2.544   5.183
 2057SOL    HW1 6731   1.013   2.476   5.186
 2057SOL    HW2 6732   1.163   2.496   5.176
 2058SOL     OW 6733   1.222   3.433   4.518
 2058SOL    HW1 6734   1.237   3.500   4.451
 2058SOL    HW2 6735   1.291   3.447   4.583
 2059SOL     OW 6736   0.467   3.013   4.459
 2059SOL    HW1 6737   0.395   2.989   4.518
 2059SOL    HW2 6738   0.432   2.997   4.371
 2060SOL     OW 6739   1.266   3.656   4.332
 2060SOL    HW1 6740   1.313   3.721   4.279
 2060SOL    HW2 6741   1.194   3.706   4.371
 2061SOL     OW 6742   1.023   2.400   3.749
 2061SOL    HW1 6743   0.981   2.484   3.730
 2061SOL    HW2 6744   1.091   2.422   3.813
 2062SOL     OW 6745   0.082   2.434   5.114
 2062SOL    HW1 6746   0.172   2.421   5.083
 2062SOL    HW2 6747   0.089   2.504   5.179
 2063SOL     OW 6748   0.567   2.089   4.890
 2063SOL    HW1 6749   0.608   2.014   4.932
 2063SOL    HW2 6750   0.475   2.086   4.919
 2064SOL     OW 6751   0.867   2.320   4.364
 2064SOL    HW1 6752   0.820   2.374   4.300
 2064SOL    HW2 6753   0.888   2.240   4.316
 2065SOL     OW 6754   1.016   1.916   4.474
 2065SOL    HW1 6755   0.958   1.910   4.398
 2065SOL    HW2 6756   0.993   1.840   4.528
 2066SOL     OW 6757   1.438   3.024   4.581
 2066SOL    HW1 6758   1.368   2.959   4.580
 2066SOL    HW2 6759   1.463   3.033   4.489
 2067SOL     OW 6760   1.465   2.469   4.697
 2067SOL    HW1 6761   1.411   2.390   4.699
 2067SOL    HW2 6762   1.523   2.461   4.772
 2068SOL     OW 6763   1.843   2.680   4.109
 2068SOL    HW1 6764   1.903   2.628   4.164
 2068SOL    HW2 6765   1.812   2.618   4.044
 2069SOL     OW 6766   0.488   3.281   3.883
 2069SOL    HW1 6767   0.412   3.251   3.933
 2069SOL    HW2 6768   0.471   3.252   3.793
 2070SOL     OW 6769   1.673   3.126   4.368
 2070SOL    HW1 6770   1.768   3.127   4.382
 2070SOL    HW2 6771   1.644   3.214   4.389
 2071SOL     OW 6772   1.390   2.438   3.791
 2071SOL    HW1 6773   1.339   2.413   3.868
 2071SOL    HW2 6774   1.481   2.420   3.816
 2072SOL     OW 6775   0.574   2.130   4.042
 2072SOL    HW1 6776   0.605   2.083   3.965
 2072SOL    HW2 6777   0.542   2.214   4.008
 2073SOL     OW 6778   1.752   3.103   5.293
 2073SOL    HW1 6779   1.839   3.064   5.289
 2073SOL    HW2 6780   1.767   3.194   5.321
 2074SOL     OW 6781   1.056   3.214   5.056
 2074SOL    HW1 6782   0.981   3.184   5.107
 2074SOL    HW2 6783   1.132   3.174   5.098
 2075SOL     OW 6784   1.610   3.488   5.380
 2075SOL    HW1 6785   1.601   3.522   5.291
 2075SOL    HW2 6786   1.693   3.440   5.380
 2076SOL     OW 6787   1.132   3.068   4.828
 2076SOL    HW1 6788   1.072   3.105   4.892
 2076SOL    HW2 6789   1.100   3.101   4.744
 2077SOL     OW 6790   1.626   2.959   4.800
 2077SOL    HW1 6791   1.620   3.021   4.873
 2077SOL    HW2 6792   1.548   2.977   4.747
 2078SOL     OW 6793   0.918   1.958   5.118
 2078SOL    HW1 6794   0.941   1.939   5.027
 2078SOL    HW2 6795   0.997   1.997   5.155
 2079SOL     OW 6796   0.984   2.976   5.447
 2079SOL    HW1 6797   0.893   2.993   5.469
 2079SOL    HW2 6798   0.982   2.898   5.392
 2080SOL     OW 6799   0.708   2.922   4.095
 2080SOL    HW1 6800   0.694   2.906   4.188
 2080SOL    HW2 6801   0.784   2.870   4.071
 2081SOL     OW 6802   0.422   2.679   4.976
 2081SOL    HW1 6803   0.490   2.687   5.043
 2081SOL    HW2 6804   0.388   2.590   4.988
 2082SOL     OW 6805   1.265   2.237   5.002
 2082SOL    HW1 6806   1.297   2.315   5.047
 2082SOL    HW2 6807   1.174   2.258   4.979
 2083SOL     OW 6808   0.065   3.442   5.070
 2083SOL    HW1 6809   0.071   3.497   4.991
 2083SOL    HW2 6810   0.156   3.429   5.097
 2084SOL     OW 6811   0.370   2.964   4.207
 2084SOL    HW1 6812   0.365   3.045   4.155
 2084SOL    HW2 6813   0.369   2.894   4.142
 2085SOL     OW 6814   0.549   2.398   4.586
 2085SOL    HW1 6815   0.564   2.455   4.510
 2085SOL    HW2 6816   0.617   2.424   4.648
 2086SOL     OW 6817   1.248   3.211   4.113
 2086SOL    HW1 6818   1.304   3.282   4.145
 2086SOL    HW2 6819   1.161   3.233   4.147
 2087SOL     OW 6820   1.285   3.321   4.872
 2087SOL    HW1 6821   1.340   3.325   4.950
 2087SOL    HW2 6822   1.229   3.245   4.886
 2088SOL     OW 6823   1.575   2.482   4.201
 2088SOL    HW1 6824   1.532   2.540   4.264
 2088SOL    HW2 6825   1.622   2.540   4.142
 2089SOL     OW 6826   0.345   3.389   5.042
 2089SOL    HW1 6827   0.335   3.339   4.961
 2089SOL    HW2 6828   0.439   3.404   5.049
 2090SOL     OW 6829   0.416   2.601   5.325
 2090SOL    HW1 6830   0.479   2.646   5.269
 2090SOL    HW2 6831   0.456   2.515   5.342
 2091SOL     OW 6832   1.600   2.651   5.397
 2091SOL    HW1 6833   1.515   2.694   5.392
 2091SOL    HW2 6834   1.654   2.695   5.331
 2092SOL     OW 6835   0.995   1.990   5.477
 2092SOL    HW1 6836   1.054   2.062   5.453
 2092SOL    HW2 6837   1.042   1.911   5.454
 2093SOL     OW 6838   0.497   1.898   5.471
 2093SOL    HW1 6839   0.453   1.845   5.404
 2093SOL    HW2 6840   0.442   1.976   5.480
 2094SOL     OW 6841   0.585   2.736   4.756
 2094SOL    HW1 6842   0.618   2.826   4.756
 2094SOL    HW2 6843   0.529   2.730   4.833
 2095SOL     OW 6844   1.354   2.720   4.751
 2095SOL    HW1 6845   1.270   2.709   4.706
 2095SOL    HW2 6846   1.397   2.635   4.742
 2096SOL     OW 6847   1.203   2.389   3.990
 2096SOL    HW1 6848   1.210   2.311   4.045
 2096SOL    HW2 6849   1.160   2.454   4.046
 2097SOL     OW 6850   0.310   2.058   4.971
 2097SOL    HW1 6851   0.263   2.095   5.046
 2097SOL    HW2 6852   0.287   1.965   4.972
 2098SOL     OW 6853   0.061   3.167   5.004
 2098SOL    HW1 6854   0.091   3.126   5.085
 2098SOL    HW2 6855   0.052   3.260   5.026
 2099SOL     OW 6856   0.724   2.493   4.780
 2099SOL    HW1 6857   0.799   2.478   4.723
 2099SOL    HW2 6858   0.695   2.582   4.759
 2100SOL     OW 6859   1.737   2.818   5.580
 2100SOL    HW1 6860   1.691   2.757   5.522
 2100SOL    HW2 6861   1.675   2.835   5.651
 2101SOL     OW 6862   0.314   1.924   4.344
 2101SOL    HW1 6863   0.293   2.015   4.365
 2101SOL    HW2 6864   0.320   1.881   4.429
 2102SOL     OW 6865   1.609   2.233   4.099
 2102SOL    HW1 6866   1.615   2.184   4.181
 2102SOL    HW2 6867   1.590   2.323   4.126
 2103SOL     OW 6868   1.028   2.621   4.683
 2103SOL    HW1 6869   1.023   2.638   4.777
 2103SOL    HW2 6870   1.002   2.529   4.674
 2104SOL     OW 6871   0.986   3.430   5.444
 2104SOL    HW1 6872   0.967   3.471   5.360
 2104SOL    HW2 6873   1.027   3.347   5.421
 2105SOL     OW 6874   1.854   3.365   5.328
 2105SOL    HW1 6875   1.873   3.393   5.239
 2105SOL    HW2 6876   1.934   3.382   5.377
 2106SOL     OW 6877   0.353   2.783   5.524
 2106SOL    HW1 6878   0.431   2.805   5.574
 2106SOL    HW2 6879   0.381   2.716   5.462
 2107SOL     OW 6880   1.530   2.130   3.852
 2107SOL    HW1 6881   1.462   2.069   3.880
 2107SOL    HW2 6882   1.561   2.170   3.933
 2108SOL     OW 6883   1.289   2.689   3.754
 2108SOL    HW1 6884   1.330   2.603   3.757
 2108SOL    HW2 6885   1.321   2.728   3.672
 2109SOL     OW 6886   1.067   3.199   4.579
 2109SOL    HW1 6887   1.071   3.126   4.516
 2109SOL    HW2 6888   1.127   3.264   4.544
 2110SOL     OW 6889   0.313   2.664   4.674
 2110SOL    HW1 6890   0.407   2.682   4.668
 2110SOL    HW2 6891   0.308   2.574   4.706
 2111SOL     OW 6892   0.330   2.382   4.738
 2111SOL    HW1 6893   0.295   2.295   4.722
 2111SOL    HW2 6894   0.406   2.390   4.681
 2112SOL     OW 6895   1.134   2.236   5.408
 2112SOL    HW1 6896   1.086   2.291   5.470
 2112SOL    HW2 6897   1.221   2.275   5.404
 2113SOL     OW 6898   1.161   2.063   5.194
 2113SOL    HW1 6899   1.150   2.125   5.266
 2113SOL    HW2 6900   1.201   2.114   5.124
 2114SOL     OW 6901   4.000   3.180   3.906
 2114SOL    HW1 6902   3.905   3.196   3.910
 2114SOL    HW2 6903   0.009   3.086   3.924
 2115SOL     OW 6904   0.076   3.663   4.619
 2115SOL    HW1 6905   0.090   3.568   4.617
 2115SOL    HW2 6906   0.163   3.701   4.617
 2116SOL     OW 6907   0.507   3.425   4.641
 2116SOL    HW1 6908   0.573   3.492   4.661
 2116SOL    HW2 6909   0.549   3.367   4.578
 2117SOL     OW 6910   0.979   2.652   4.949
 2117SOL    HW1 6911   1.037   2.631   5.023
 2117SOL    HW2 6912   0.894   2.614   4.974
 2118SOL     OW 6913   0.038   2.420   4.833
 2118SOL    HW1 6914   0.120   2.397   4.791
 2118SOL    HW2 6915   0.057   2.416   4.927
 2119SOL     OW 6916   0.207   2.375   5.451
 2119SOL    HW1 6917   0.245   2.327   5.378
 2119SOL    HW2 6918   0.160   2.447   5.411
 2120SOL     OW 6919   1.373   2.802   5.380
 2120SOL    HW1 6920   1.396   2.895   5.377
 2120SOL    HW2 6921   1.369   2.775   5.288
 2121SOL     OW 6922   0.818   2.431   4.086
 2121SOL    HW1 6923   0.823   2.356   4.027
 2121SOL    HW2 6924   0.744   2.482   4.054
 2122SOL     OW 6925   1.642   2.464   4.906
 2122SOL    HW1 6926   1.632   2.410   4.984
 2122SOL    HW2 6927   1.729   2.441   4.872
 2123SOL     OW 6928   0.300   3.407   5.450
 2123SOL    HW1 6929   0.251   3.477   5.495
 2123SOL    HW2 6930   0.268   3.326   5.490
 2124SOL     OW 6931   0.707   2.311   4.981
 2124SOL    HW1 6932   0.654   2.237   4.952
 2124SOL    HW2 6933   0.701   2.374   4.910
 2125SOL     OW 6934   0.928   3.533   5.193
 2125SOL    HW1 6935   0.901   3.496   5.109
 2125SOL    HW2 6936   0.920   3.628   5.180
 2126SOL     OW 6937   0.455   2.351   3.919
 2126SOL    HW1 6938   0.520   2.419   3.937
 2126SOL    HW2 6939   0.375   2.400   3.897
 2127SOL     OW 6940   0.156   2.997   5.199
 2127SOL    HW1 6941   0.156   2.946   5.281
 2127SOL    HW2 6942   0.171   2.932   5.131
 2128SOL     OW 6943   1.324   2.907   4.945
 2128SOL    HW1 6944   1.346   2.843   4.877
 2128SOL    HW2 6945   1.255   2.962   4.906
 2129SOL     OW 6946   1.313   2.719   4.029
 2129SOL    HW1 6947   1.238   2.687   4.080
 2129SOL    HW2 6948   1.288   2.705   3.938
 2130SOL     OW 6949   1.772   3.602   4.875
 2130SOL    HW1 6950   1.834   3.630   4.808
 2130SOL    HW2 6951   1.750   3.512   4.851
 2131SOL     OW 6952   1.244   3.595   4.833
 2131SOL    HW1 6953   1.327   3.616   4.790
 2131SOL    HW2 6954   1.250   3.501   4.852
 2132SOL     OW 6955   0.076   3.076   4.752
 2132SOL    HW1 6956   0.083   3.104   4.843
 2132SOL    HW2 6957   3.984   3.087   4.730
 2133SOL     OW 6958   0.679   3.527   5.457
 2133SOL    HW1 6959   0.621   3.603   5.461
 2133SOL    HW2 6960   0.739   3.546   5.385
 2134SOL     OW 6961   1.391   3.431   4.211
 2134SOL    HW1 6962   1.450   3.464   4.144
 2134SOL    HW2 6963   1.342   3.508   4.241
 2135SOL     OW 6964   0.170   3.623   5.556
 2135SOL    HW1 6965   0.115   3.570   5.614
 2135SOL    HW2 6966   0.217   3.682   5.614
 2136SOL     OW 6967   1.277   2.789   4.395
 2136SOL    HW1 6968   1.351   2.729   4.404
 2136SOL    HW2 6969   1.312   2.861   4.342
 2137SOL     OW 6970   0.810   3.136   5.152
 2137SOL    HW1 6971   0.781   3.177   5.234
 2137SOL    HW2 6972   0.739   3.155   5.090
 2138SOL     OW 6973   0.675   3.479   3.882
 2138SOL    HW1 6974   0.683   3.496   3.788
 2138SOL    HW2 6975   0.616   3.404   3.887
 2139SOL     OW 6976   1.622   3.588   5.114
 2139SOL    HW1 6977   1.674   3.593   5.033
 2139SOL    HW2 6978   1.609   3.679   5.139
 2140SOL     OW 6979   0.266   2.175   4.440
 2140SOL    HW1 6980   0.180   2.207   4.414
 2140SOL    HW2 6981   0.261   2.165   4.535
 2141SOL     OW 6982   1.208   3.466   3.760
 2141SOL    HW1 6983   1.197   3.374   3.784
 2141SOL    HW2 6984   1.147   3.479   3.687
 2142SOL     OW 6985   0.823   2.868   5.098
 2142SOL    HW1 6986   0.867   2.863   5.013
 2142SOL    HW2 6987   0.822   2.961   5.118
 2143SOL     OW 6988   0.916   2.772   4.015
 2143SOL    HW1 6989   0.976   2.805   3.948
 2143SOL    HW2 6990   0.965   2.704   4.060
 2144SOL     OW 6991   1.489   3.491   3.766
 2144SOL    HW1 6992   1.395   3.480   3.750
 2144SOL    HW2 6993   1.528   3.496   3.679
 2145SOL     OW 6994   0.374   3.165   5.215
 2145SOL    HW1 6995   0.359   3.245   5.165
 2145SOL    HW2 6996   0.297   3.111   5.198
 2146SOL     OW 6997   1.609   3.145   5.004
 2146SOL    HW1 6998   1.670   3.133   5.077
 2146SOL    HW2 6999   1.549   3.213   5.034
 2147SOL     OW 7000   1.056   2.971   4.432
 2147SOL    HW1 7001   0.984   2.920   4.470
 2147SOL    HW2 7002   1.119   2.905   4.403
 2148SOL     OW 7003   1.023   2.103   4.691
 2148SOL    HW1 7004   1.019   2.056   4.608
 2148SOL    HW2 7005   1.017   2.034   4.757
 2149SOL     OW 7006   0.606   3.352   4.204
 2149SOL    HW1 7007   0.651   3.302   4.137
 2149SOL    HW2 7008   0.533   3.395   4.158
 2150SOL     OW 7009   1.725   2.255   5.101
 2150SOL    HW1 7010   1.799   2.316   5.107
 2150SOL    HW2 7011   1.754   2.189   5.038
 2151SOL     OW 7012   0.253   3.203   4.016
 2151SOL    HW1 7013   0.160   3.211   3.997
 2151SOL    HW2 7014   0.264   3.241   4.103
 2152SOL     OW 7015   0.107   2.859   5.441
 2152SOL    HW1 7016   0.047   2.853   5.515
 2152SOL    HW2 7017   0.193   2.842   5.479
 2153SOL     OW 7018   0.676   2.058   5.224
 2153SOL    HW1 7019   0.760   2.037   5.183
 2153SOL    HW2 7020   0.699   2.092   5.311
 2154SOL     OW 7021   0.081   2.176   3.761
 2154SOL    HW1 7022   3.985   2.176   3.769
 2154SOL    HW2 7023   0.101   2.257   3.714
 2155SOL     OW 7024   1.428   2.721   5.123
 2155SOL    HW1 7025   1.379   2.782   5.067
 2155SOL    HW2 7026   1.517   2.723   5.088
 2156SOL     OW 7027   0.018   2.097   4.100
 2156SOL    HW1 7028   0.045   2.161   4.034
 2156SOL    HW2 7029   0.100   2.058   4.130
 2157SOL     OW 7030   1.178   3.199   3.841
 2157SOL    HW1 7031   1.087   3.170   3.842
 2157SOL    HW2 7032   1.205   3.199   3.933
 2158SOL     OW 7033   0.620   2.692   5.160
 2158SOL    HW1 7034   0.676   2.768   5.145
 2158SOL    HW2 7035   0.680   2.619   5.168
 2159SOL     OW 7036   1.486   3.641   4.705
 2159SOL    HW1 7037   1.509   3.700   4.633
 2159SOL    HW2 7038   1.570   3.619   4.745
 2160SOL     OW 7039   0.716   2.424   5.427
 2160SOL    HW1 7040   0.760   2.485   5.486
 2160SOL    HW2 7041   0.740   2.337   5.460
 2161SOL     OW 7042   1.473   3.060   5.354
 2161SOL    HW1 7043   1.461   3.074   5.448
 2161SOL    HW2 7044   1.566   3.077   5.339
 2162SOL     OW 7045   0.378   3.607   5.283
 2162SOL    HW1 7046   0.290   3.643   5.270
 2162SOL    HW2 7047   0.364   3.524   5.329
 2163SOL     OW 7048   1.667   2.743   4.978
 2163SOL    HW1 7049   1.661   2.658   4.935
 2163SOL    HW2 7050   1.657   2.806   4.907
 2164SOL     OW 7051   1.215   2.181   4.182
 2164SOL    HW1 7052   1.277   2.109   4.175
 2164SOL    HW2 7053   1.244   2.231   4.259
 2165SOL     OW 7054   0.589   2.599   4.397
 2165SOL    HW1 7055   0.628   2.685   4.381
 2165SOL    HW2 7056   0.523   2.590   4.328
 2166SOL     OW 7057   1.754   2.235   5.378
 2166SOL    HW1 7058   1.746   2.243   5.283
 2166SOL    HW2 7059   1.684   2.176   5.403
 2167SOL     OW 7060   1.749   2.801   5.232
 2167SOL    HW1 7061   1.741   2.896   5.244
 2167SOL    HW2 7062   1.732   2.787   5.139
 2168SOL     OW 7063   0.864   3.229   3.763
 2168SOL    HW1 7064   0.823   3.257   3.844
 2168SOL    HW2 7065   0.879   3.309   3.714
 2169SOL     OW 7066   0.659   3.651   4.659
 2169SOL    HW1 7067   0.637   3.742   4.640
 2169SOL    HW2 7068   0.754   3.648   4.657
 2170SOL     OW 7069   0.869   2.830   4.578
 2170SOL    HW1 7070   0.919   2.758   4.616
 2170SOL    HW2 7071   0.832   2.877   4.653
 2171SOL     OW 7072   1.077   2.850   3.812
 2171SOL    HW1 7073   1.056   2.902   3.734
 2171SOL    HW2 7074   1.152   2.797   3.787
 2172SOL     OW 7075   1.851   3.413   4.566
 2172SOL    HW1 7076   1.771   3.402   4.514
 2172SOL    HW2 7077   1.842   3.350   4.637
 2173SOL     OW 7078   0.227   3.166   5.580
 2173SOL    HW1 7079   0.153   3.111   5.554
 2173SOL    HW2 7080   0.214   3.179   5.674
 2174SOL     OW 7081   0.115   3.140   4.446
 2174SOL    HW1 7082   0.133   3.090   4.525
 2174SOL    HW2 7083   0.105   3.074   4.377
 2175SOL     OW 7084   0.683   3.266   5.355
 2175SOL    HW1 7085   0.602   3.224   5.384
 2175SOL    HW2 7086   0.679   3.355   5.391
 2176SOL     OW 7087   0.441   2.296   4.258
 2176SOL    HW1 7088   0.442   2.226   4.192
 2176SOL    HW2 7089   0.385   2.262   4.328
 2177SOL     OW 7090   1.700   3.348   4.816
 2177SOL    HW1 7091   1.619   3.327   4.770
 2177SOL    HW2 7092   1.709   3.280   4.882
 2178SOL     OW 7093   0.335   2.419   5.016
 2178SOL    HW1 7094   0.389   2.362   5.070
 2178SOL    HW2 7095   0.349   2.388   4.927
 2179SOL     OW 7096   0.828   3.441   4.400
 2179SOL    HW1 7097   0.812   3.495   4.323
 2179SOL    HW2 7098   0.754   3.381   4.404
 2180SOL     OW 7099   1.438   2.092   4.844
 2180SOL    HW1 7100   1.446   2.003   4.879
 2180SOL    HW2 7101   1.383   2.138   4.906
 2181SOL     OW 7102   1.010   1.879   4.863
 2181SOL    HW1 7103   0.956   1.812   4.822
 2181SOL    HW2 7104   1.098   1.841   4.865
 2182SOL     OW 7105   0.772   3.194   4.043
 2182SOL    HW1 7106   0.743   3.103   4.049
 2182SOL    HW2 7107   0.855   3.196   4.091
 2183SOL     OW 7108   0.621   3.416   5.010
 2183SOL    HW1 7109   0.621   3.497   5.060
 2183SOL    HW2 7110   0.708   3.410   4.972
 2184SOL     OW 7111   1.350   1.914   3.891
 2184SOL    HW1 7112   1.381   1.851   3.826
 2184SOL    HW2 7113   1.263   1.883   3.915
 2185SOL     OW 7114   1.297   2.324   4.404
 2185SOL    HW1 7115   1.245   2.403   4.409
 2185SOL    HW2 7116   1.292   2.286   4.492
 2186SOL     OW 7117   1.569   2.052   4.594
 2186SOL    HW1 7118   1.535   2.079   4.679
 2186SOL    HW2 7119   1.586   2.134   4.548
 2187SOL     OW 7120   0.047   2.911   3.963
 2187SOL    HW1 7121   0.141   2.895   3.955
 2187SOL    HW2 7122   0.011   2.828   3.994
 2188SOL     OW 7123   0.886   3.521   4.067
 2188SOL    HW1 7124   0.815   3.501   4.006
 2188SOL    HW2 7125   0.855   3.596   4.117
 2189SOL     OW 7126   0.231   2.485   5.705
 2189SOL    HW1 7127   0.138   2.494   5.726
 2189SOL    HW2 7128   0.232   2.454   5.615
 2190SOL     OW 7129   0.229   2.133   6.573
 2190SOL    HW1 7130   0.250   2.100   6.660
 2190SOL    HW2 7131   0.134   2.126   6.566
 2191SOL     OW 7132   0.009   2.220   6.216
 2191SOL    HW1 7133   3.921   2.239   6.248
 2191SOL    HW2 7134   3.995   2.189   6.126
 2192SOL     OW 7135   0.580   3.151   6.777
 2192SOL    HW1 7136   0.494   3.154   6.735
 2192SOL    HW2 7137   0.593   3.240   6.809
 2193SOL     OW 7138   1.563   3.373   6.294
 2193SOL    HW1 7139   1.520   3.353   6.378
 2193SOL    HW2 7140   1.491   3.377   6.231
 2194SOL     OW 7141   1.106   2.582   6.283
 2194SOL    HW1 7142   1.162   2.660   6.272
 2194SOL    HW2 7143   1.069   2.592   6.370
 2195SOL     OW 7144   1.696   2.507   5.798
 2195SOL    HW1 7145   1.695   2.498   5.703
 2195SOL    HW2 7146   1.718   2.420   5.831
 2196SOL     OW 7147   0.753   3.002   6.629
 2196SOL    HW1 7148   0.689   3.037   6.691
 2196SOL    HW2 7149   0.789   3.078   6.585
 2197SOL     OW 7150   0.868   2.635   7.408
 2197SOL    HW1 7151   0.859   2.706   7.472
 2197SOL    HW2 7152   0.891   2.679   7.327
 2198SOL     OW 7153   0.684   2.863   6.231
 2198SOL    HW1 7154   0.751   2.853   6.299
 2198SOL    HW2 7155   0.616   2.915   6.273
 2199SOL     OW 7156   0.712   3.012   7.402
 2199SOL    HW1 7157   0.760   3.090   7.431
 2199SOL    HW2 7158   0.631   3.045   7.365
 2200SOL     OW 7159   0.351   3.263   6.664
 2200SOL    HW1 7160   0.269   3.247   6.617
 2200SOL    HW2 7161   0.400   3.322   6.606
 2201SOL     OW 7162   1.460   3.363   6.943
 2201SOL    HW1 7163   1.514   3.442   6.953
 2201SOL    HW2 7164   1.393   3.371   7.011
 2202SOL     OW 7165   0.450   2.260   7.072
 2202SOL    HW1 7166   0.525   2.201   7.076
 2202SOL    HW2 7167   0.374   2.204   7.086
 2203SOL     OW 7168   0.223   3.571   6.052
 2203SOL    HW1 7169   0.223   3.654   6.099
 2203SOL    HW2 7170   0.300   3.576   5.995
 2204SOL     OW 7171   1.138   3.203   7.279
 2204SOL    HW1 7172   1.178   3.198   7.366
 2204SOL    HW2 7173   1.085   3.124   7.272
 2205SOL     OW 7174   0.251   3.306   6.125
 2205SOL    HW1 7175   0.222   3.396   6.112
 2205SOL    HW2 7176   0.182   3.266   6.179
 2206SOL     OW 7177   0.248   2.928   6.470
 2206SOL    HW1 7178   0.267   2.844   6.510
 2206SOL    HW2 7179   0.195   2.974   6.535
 2207SOL     OW 7180   0.611   3.648   7.014
 2207SOL    HW1 7181   0.529   3.633   7.060
 2207SOL    HW2 7182   0.637   3.737   7.038
 2208SOL     OW 7183   0.578   2.847   5.724
 2208SOL    HW1 7184   0.626   2.893   5.655
 2208SOL    HW2 7185   0.618   2.877   5.805
 2209SOL     OW 7186   0.143   2.515   6.160
 2209SOL    HW1 7187   0.086   2.438   6.158
 2209SOL    HW2 7188   0.107   2.569   6.230
 2210SOL     OW 7189   1.843   3.609   5.924
 2210SOL    HW1 7190   1.912   3.585   5.986
 2210SOL    HW2 7191   1.862   3.700   5.900
 2211SOL     OW 7192   0.041   3.453   5.726
 2211SOL    HW1 7193   0.034   3.361   5.751
 2211SOL    HW2 7194   3.958   3.492   5.755
 2212SOL     OW 7195   1.700   2.779   6.228
 2212SOL    HW1 7196   1.774   2.742   6.179
 2212SOL    HW2 7197   1.654   2.834   6.165
 2213SOL     OW 7198   1.646   2.969   6.016
 2213SOL    HW1 7199   1.732   2.974   5.974
 2213SOL    HW2 7200   1.652   3.031   6.089
 2214SOL     OW 7201   0.139   2.615   7.175
 2214SOL    HW1 7202   0.235   2.610   7.172
 2214SOL    HW2 7203   0.121   2.703   7.206
 2215SOL     OW 7204   0.616   3.249   6.320
 2215SOL    HW1 7205   0.569   3.166   6.330
 2215SOL    HW2 7206   0.598   3.276   6.230
 2216SOL     OW 7207   1.287   3.097   7.007
 2216SOL    HW1 7208   1.319   3.028   6.950
 2216SOL    HW2 7209   1.344   3.094   7.084
 2217SOL     OW 7210   0.816   1.861   6.101
 2217SOL    HW1 7211   0.853   1.946   6.078
 2217SOL    HW2 7212   0.722   1.875   6.105
 2218SOL     OW 7213   0.184   2.813   6.865
 2218SOL    HW1 7214   0.272   2.777   6.852
 2218SOL    HW2 7215   0.132   2.773   6.796
 2219SOL     OW 7216   1.532   2.858   5.785
 2219SOL    HW1 7217   1.464   2.799   5.817
 2219SOL    HW2 7218   1.572   2.893   5.865
 2220SOL     OW 7219   1.219   3.666   7.213
 2220SOL    HW1 7220   1.194   3.727   7.143
 2220SOL    HW2 7221   1.219   3.580   7.171
 2221SOL     OW 7222   0.342   2.109   7.402
 2221SOL    HW1 7223   0.378   2.197   7.410
 2221SOL    HW2 7224   0.250   2.118   7.427
 2222SOL     OW 7225   1.466   3.280   6.537
 2222SOL    HW1 7226   1.399   3.298   6.603
 2222SOL    HW2 7227   1.449   3.190   6.509
 2223SOL     OW 7228   1.654   3.602   6.167
 2223SOL    HW1 7229   1.640   3.571   6.077
 2223SOL    HW2 7230   1.631   3.527   6.222
 2224SOL     OW 7231   0.596   2.579   5.852
 2224SOL    HW1 7232   0.601   2.663   5.807
 2224SOL    HW2 7233   0.533   2.593   5.923
 2225SOL     OW 7234   1.228   2.253   6.541
 2225SOL    HW1 7235   1.153   2.195   6.556
 2225SOL    HW2 7236   1.284   2.239   6.618
 2226SOL     OW 7237   1.577   3.537   5.894
 2226SOL    HW1 7238   1.670   3.561   5.889
 2226SOL    HW2 7239   1.551   3.518   5.804
 2227SOL     OW 7240   0.787   2.479   7.038
 2227SOL    HW1 7241   0.762   2.454   7.127
 2227SOL    HW2 7242   0.747   2.412   6.983
 2228SOL     OW 7243   0.951   2.751   7.170
 2228SOL    HW1 7244   1.003   2.680   7.134
 2228SOL    HW2 7245   0.902   2.786   7.095
 2229SOL     OW 7246   0.964   2.277   6.823
 2229SOL    HW1 7247   0.873   2.295   6.848
 2229SOL    HW2 7248   0.958   2.239   6.735
 2230SOL     OW 7249   1.052   2.559   6.010
 2230SOL    HW1 7250   1.064   2.562   6.105
 2230SOL    HW2 7251   0.969   2.514   5.998
 2231SOL     OW 7252   0.083   2.691   6.376
 2231SOL    HW1 7253   0.157   2.661   6.428
 2231SOL    HW2 7254   0.100   2.784   6.361
 2232SOL     OW 7255   0.127   3.718   7.164
 2232SOL    HW1 7256   0.135   3.686   7.254
 2232SOL    HW2 7257   0.035   3.705   7.141
 2233SOL     OW 7258   0.902   2.210   5.781
 2233SOL    HW1 7259   0.939   2.274   5.721
 2233SOL    HW2 7260   0.904   2.127   5.733
 2234SOL     OW 7261   1.380   3.007   6.123
 2234SOL    HW1 7262   1.459   2.997   6.070
 2234SOL    HW2 7263   1.327   3.070   6.074
 2235SOL     OW 7264   0.547   2.040   6.480
 2235SOL    HW1 7265   0.553   2.072   6.570
 2235SOL    HW2 7266   0.546   2.119   6.427
 2236SOL     OW 7267   1.004   3.307   6.056
 2236SOL    HW1 7268   0.967   3.381   6.007
 2236SOL    HW2 7269   0.982   3.326   6.148
 2237SOL     OW 7270   0.359   3.671   6.447
 2237SOL    HW1 7271   0.437   3.618   6.460
 2237SOL    HW2 7272   0.389   3.761   6.457
 2238SOL     OW 7273   1.799   2.933   6.459
 2238SOL    HW1 7274   1.755   2.894   6.383
 2238SOL    HW2 7275   1.735   2.927   6.530
 2239SOL     OW 7276   1.228   3.399   7.097
 2239SOL    HW1 7277   1.215   3.327   7.159
 2239SOL    HW2 7278   1.158   3.388   7.032
 2240SOL     OW 7279   0.311   2.816   5.829
 2240SOL    HW1 7280   0.394   2.839   5.787
 2240SOL    HW2 7281   0.298   2.724   5.807
 2241SOL     OW 7282   1.459   2.626   6.304
 2241SOL    HW1 7283   1.457   2.530   6.310
 2241SOL    HW2 7284   1.552   2.647   6.291
 2242SOL     OW 7285   0.468   3.122   7.323
 2242SOL    HW1 7286   0.442   3.131   7.231
 2242SOL    HW2 7287   0.386   3.126   7.371
 2243SOL     OW 7288   1.113   3.643   5.808
 2243SOL    HW1 7289   1.049   3.597   5.861
 2243SOL    HW2 7290   1.144   3.577   5.745
 2244SOL     OW 7291   0.203   2.136   7.095
 2244SOL    HW1 7292   0.114   2.168   7.088
 2244SOL    HW2 7293   0.195   2.049   7.133
 2245SOL     OW 7294   1.626   3.243   5.676
 2245SOL    HW1 7295   1.586   3.328   5.659
 2245SOL    HW2 7296   1.558   3.180   5.655
 2246SOL     OW 7297   0.468   3.602   5.907
 2246SOL    HW1 7298   0.506   3.664   5.968
 2246SOL    HW2 7299   0.541   3.573   5.852
 2247SOL     OW 7300   0.254   3.656   6.812
 2247SOL    HW1 7301   0.297   3.590   6.866
 2247SOL    HW2 7302   0.251   3.619   6.724
 2248SOL     OW 7303   0.937   3.563   6.486
 2248SOL    HW1 7304   1.014   3.510   6.509
 2248SOL    HW2 7305   0.894   3.513   6.416
 2249SOL     OW 7306   0.399   2.554   6.057
 2249SOL    HW1 7307   0.424   2.463   6.072
 2249SOL    HW2 7308   0.307   2.559   6.084
 2250SOL     OW 7309   0.646   1.981   5.680
 2250SOL    HW1 7310   0.702   1.907   5.703
 2250SOL    HW2 7311   0.593   1.949   5.607
 2251SOL     OW 7312   0.764   2.138   7.340
 2251SOL    HW1 7313   0.840   2.079   7.341
 2251SOL    HW2 7314   0.717   2.118   7.421
 2252SOL     OW 7315   0.876   3.383   6.780
 2252SOL    HW1 7316   0.859   3.346   6.693
 2252SOL    HW2 7317   0.945   3.328   6.816
 2253SOL     OW 7318   1.326   2.454   7.026
 2253SOL    HW1 7319   1.381   2.419   7.095
 2253SOL    HW2 7320   1.360   2.542   7.010
 2254SOL     OW 7321   0.817   3.254   6.528
 2254SOL    HW1 7322   0.902   3.242   6.485
 2254SOL    HW2 7323   0.754   3.256   6.456
 2255SOL     OW 7324   0.923   2.369   6.489
 2255SOL    HW1 7325   0.901   2.363   6.396
 2255SOL    HW2 7326   0.959   2.283   6.511
 2256SOL     OW 7327   0.555   1.924   6.080
 2256SOL    HW1 7328   0.473   1.930   6.129
 2256SOL    HW2 7329   0.560   2.007   6.032
 2257SOL     OW 7330   1.427   3.061   5.626
 2257SOL    HW1 7331   1.457   2.986   5.677
 2257SOL    HW2 7332   1.342   3.083   5.663
 2258SOL     OW 7333   0.307   1.914   5.756
 2258SOL    HW1 7334   0.370   1.951   5.694
 2258SOL    HW2 7335   0.357   1.848   5.804
 2259SOL     OW 7336   0.925   2.107   6.044
 2259SOL    HW1 7337   0.899   2.148   5.961
 2259SOL    HW2 7338   1.020   2.108   6.042
 2260SOL     OW 7339   1.072   2.546   7.045
 2260SOL    HW1 7340   1.004   2.478   7.047
 2260SOL    HW2 7341   1.154   2.497   7.043
 2261SOL     OW 7342   1.224   3.432   6.379
 2261SOL    HW1 7343   1.237   3.499   6.312
 2261SOL    HW2 7344   1.290   3.451   6.445
 2262SOL     OW 7345   0.467   3.013   6.321
 2262SOL    HW1 7346   0.396   2.989   6.380
 2262SOL    HW2 7347   0.432   2.997   6.233
 2263SOL     OW 7348   1.266   3.656   6.194
 2263SOL    HW1 7349   1.313   3.721   6.142
 2263SOL    HW2 7350   1.193   3.705   6.233
 2264SOL     OW 7351   1.022   2.402   5.611
 2264SOL    HW1 7352   0.977   2.483   5.589
 2264SOL    HW2 7353   1.091   2.428   5.672
 2265SOL     OW 7354   0.082   2.435   6.975
 2265SOL    HW1 7355   0.172   2.422   6.945
 2265SOL    HW2 7356   0.089   2.504   7.041
 2266SOL     OW 7357   0.566   2.088   6.752
 2266SOL    HW1 7358   0.607   2.013   6.795
 2266SOL    HW2 7359   0.475   2.085   6.781
 2267SOL     OW 7360   0.866   2.320   6.226
 2267SOL    HW1 7361   0.818   2.378   6.166
 2267SOL    HW2 7362   0.879   2.239   6.176
 2268SOL     OW 7363   1.018   1.910   6.332
 2268SOL    HW1 7364   0.955   1.905   6.261
 2268SOL    HW2 7365   0.998   1.834   6.388
 2269SOL     OW 7366   1.434   3.023   6.443
 2269SOL    HW1 7367   1.358   2.966   6.429
 2269SOL    HW2 7368   1.471   3.034   6.355
 2270SOL     OW 7369   1.836   2.693   5.949
 2270SOL    HW1 7370   1.907   2.633   5.971
 2270SOL    HW2 7371   1.781   2.644   5.888
 2271SOL     OW 7372   0.488   3.281   5.745
 2271SOL    HW1 7373   0.412   3.251   5.795
 2271SOL    HW2 7374   0.470   3.253   5.655
 2272SOL     OW 7375   1.669   3.126   6.231
 2272SOL    HW1 7376   1.764   3.127   6.245
 2272SOL    HW2 7377   1.641   3.215   6.251
 2273SOL     OW 7378   1.389   2.439   5.651
 2273SOL    HW1 7379   1.337   2.417   5.729
 2273SOL    HW2 7380   1.480   2.426   5.678
 2274SOL     OW 7381   0.578   2.130   5.903
 2274SOL    HW1 7382   0.606   2.083   5.824
 2274SOL    HW2 7383   0.542   2.213   5.870
 2275SOL     OW 7384   1.745   3.110   7.163
 2275SOL    HW1 7385   1.827   3.065   7.140
 2275SOL    HW2 7386   1.772   3.198   7.188
 2276SOL     OW 7387   1.057   3.214   6.917
 2276SOL    HW1 7388   0.981   3.184   6.968
 2276SOL    HW2 7389   1.132   3.174   6.960
 2277SOL     OW 7390   1.611   3.488   7.242
 2277SOL    HW1 7391   1.602   3.522   7.153
 2277SOL    HW2 7392   1.693   3.439   7.242
 2278SOL     OW 7393   1.133   3.065   6.691
 2278SOL    HW1 7394   1.074   3.103   6.756
 2278SOL    HW2 7395   1.101   3.098   6.607
 2279SOL     OW 7396   1.613   2.960   6.659
 2279SOL    HW1 7397   1.612   3.021   6.734
 2279SOL    HW2 7398   1.548   2.995   6.599
 2280SOL     OW 7399   0.914   1.966   6.986
 2280SOL    HW1 7400   0.927   1.945   6.893
 2280SOL    HW2 7401   0.995   2.011   7.012
 2281SOL     OW 7402   0.984   2.978   7.309
 2281SOL    HW1 7403   0.893   2.994   7.333
 2281SOL    HW2 7404   0.982   2.900   7.254
 2282SOL     OW 7405   0.708   2.922   5.956
 2282SOL    HW1 7406   0.694   2.906   6.050
 2282SOL    HW2 7407   0.784   2.869   5.934
 2283SOL     OW 7408   0.422   2.679   6.838
 2283SOL    HW1 7409   0.490   2.687   6.905
 2283SOL    HW2 7410   0.388   2.590   6.850
 2284SOL     OW 7411   1.225   2.240   6.871
 2284SOL    HW1 7412   1.265   2.317   6.910
 2284SOL    HW2 7413   1.134   2.264   6.856
 2285SOL     OW 7414   0.065   3.442   6.932
 2285SOL    HW1 7415   0.070   3.496   6.853
 2285SOL    HW2 7416   0.156   3.430   6.958
 2286SOL     OW 7417   0.371   2.964   6.069
 2286SOL    HW1 7418   0.365   3.045   6.017
 2286SOL    HW2 7419   0.369   2.894   6.004
 2287SOL     OW 7420   0.550   2.398   6.447
 2287SOL    HW1 7421   0.564   2.455   6.371
 2287SOL    HW2 7422   0.617   2.424   6.510
 2288SOL     OW 7423   1.248   3.212   5.975
 2288SOL    HW1 7424   1.303   3.283   6.006
 2288SOL    HW2 7425   1.161   3.233   6.009
 2289SOL     OW 7426   1.285   3.322   6.734
 2289SOL    HW1 7427   1.340   3.326   6.812
 2289SOL    HW2 7428   1.227   3.247   6.749
 2290SOL     OW 7429   1.602   2.503   6.063
 2290SOL    HW1 7430   1.519   2.533   6.100
 2290SOL    HW2 7431   1.605   2.542   5.976
 2291SOL     OW 7432   0.345   3.390   6.903
 2291SOL    HW1 7433   0.335   3.339   6.823
 2291SOL    HW2 7434   0.439   3.404   6.911
 2292SOL     OW 7435   0.416   2.601   7.187
 2292SOL    HW1 7436   0.479   2.646   7.131
 2292SOL    HW2 7437   0.456   2.516   7.205
 2293SOL     OW 7438   0.987   1.977   7.339
 2293SOL    HW1 7439   1.053   2.042   7.313
 2293SOL    HW2 7440   1.024   1.893   7.312
 2294SOL     OW 7441   0.498   1.897   7.331
 2294SOL    HW1 7442   0.453   1.845   7.265
 2294SOL    HW2 7443   0.443   1.976   7.341
 2295SOL     OW 7444   0.584   2.736   6.617
 2295SOL    HW1 7445   0.617   2.826   6.619
 2295SOL    HW2 7446   0.529   2.730   6.695
 2296SOL     OW 7447   1.215   2.394   5.861
 2296SOL    HW1 7448   1.232   2.326   5.926
 2296SOL    HW2 7449   1.163   2.459   5.909
 2297SOL     OW 7450   0.310   2.058   6.833
 2297SOL    HW1 7451   0.263   2.095   6.907
 2297SOL    HW2 7452   0.286   1.965   6.834
 2298SOL     OW 7453   0.063   3.168   6.865
 2298SOL    HW1 7454   0.092   3.126   6.947
 2298SOL    HW2 7455   0.053   3.260   6.888
 2299SOL     OW 7456   0.722   2.493   6.643
 2299SOL    HW1 7457   0.798   2.477   6.586
 2299SOL    HW2 7458   0.695   2.582   6.621
 2300SOL     OW 7459   0.314   1.924   6.206
 2300SOL    HW1 7460   0.292   2.015   6.227
 2300SOL    HW2 7461   0.320   1.881   6.291
 2301SOL     OW 7462   1.013   2.622   6.543
 2301SOL    HW1 7463   1.020   2.639   6.637
 2301SOL    HW2 7464   0.997   2.528   6.537
 2302SOL     OW 7465   0.986   3.430   7.306
 2302SOL    HW1 7466   0.967   3.471   7.222
 2302SOL    HW2 7467   1.027   3.347   7.283
 2303SOL     OW 7468   1.856   3.364   7.190
 2303SOL    HW1 7469   1.874   3.393   7.100
 2303SOL    HW2 7470   1.936   3.383   7.238
 2304SOL     OW 7471   0.353   2.784   7.386
 2304SOL    HW1 7472   0.431   2.804   7.437
 2304SOL    HW2 7473   0.381   2.717   7.324
 2305SOL     OW 7474   1.526   2.129   5.716
 2305SOL    HW1 7475   1.462   2.060   5.733
 2305SOL    HW2 7476   1.553   2.160   5.802
 2306SOL     OW 7477   1.289   2.691   5.615
 2306SOL    HW1 7478   1.329   2.604   5.617
 2306SOL    HW2 7479   1.320   2.730   5.533
 2307SOL     OW 7480   1.068   3.199   6.442
 2307SOL    HW1 7481   1.069   3.127   6.379
 2307SOL    HW2 7482   1.127   3.264   6.405
 2308SOL     OW 7483   0.313   2.664   6.536
 2308SOL    HW1 7484   0.407   2.682   6.531
 2308SOL    HW2 7485   0.308   2.574   6.568
 2309SOL     OW 7486   0.330   2.382   6.600
 2309SOL    HW1 7487   0.296   2.294   6.584
 2309SOL    HW2 7488   0.406   2.390   6.543
 2310SOL     OW 7489   4.000   3.180   5.768
 2310SOL    HW1 7490   3.906   3.196   5.772
 2310SOL    HW2 7491   0.009   3.086   5.786
 2311SOL     OW 7492   0.076   3.663   6.481
 2311SOL    HW1 7493   0.090   3.568   6.479
 2311SOL    HW2 7494   0.164   3.700   6.479
 2312SOL     OW 7495   0.507   3.426   6.503
 2312SOL    HW1 7496   0.573   3.492   6.522
 2312SOL    HW2 7497   0.549   3.367   6.440
 2313SOL     OW 7498   0.979   2.656   6.812
 2313SOL    HW1 7499   1.034   2.632   6.887
 2313SOL    HW2 7500   0.895   2.615   6.830
 2314SOL     OW 7501   0.038   2.420   6.695
 2314SOL    HW1 7502   0.121   2.396   6.653
 2314SOL    HW2 7503   0.056   2.417   6.789
 2315SOL     OW 7504   0.207   2.375   7.314
 2315SOL    HW1 7505   0.245   2.326   7.240
 2315SOL    HW2 7506   0.159   2.447   7.273
 2316SOL     OW 7507   1.374   2.801   7.250
 2316SOL    HW1 7508   1.401   2.892   7.242
 2316SOL    HW2 7509   1.381   2.765   7.161
 2317SOL     OW 7510   0.818   2.432   5.947
 2317SOL    HW1 7511   0.820   2.356   5.889
 2317SOL    HW2 7512   0.744   2.484   5.916
 2318SOL     OW 7513   0.300   3.407   7.312
 2318SOL    HW1 7514   0.251   3.477   7.357
 2318SOL    HW2 7515   0.269   3.326   7.352
 2319SOL     OW 7516   0.694   2.315   6.844
 2319SOL    HW1 7517   0.645   2.239   6.813
 2319SOL    HW2 7518   0.691   2.377   6.772
 2320SOL     OW 7519   0.929   3.533   7.054
 2320SOL    HW1 7520   0.901   3.496   6.971
 2320SOL    HW2 7521   0.920   3.628   7.042
 2321SOL     OW 7522   0.456   2.351   5.781
 2321SOL    HW1 7523   0.521   2.419   5.799
 2321SOL    HW2 7524   0.376   2.400   5.759
 2322SOL     OW 7525   0.156   2.997   7.061
 2322SOL    HW1 7526   0.156   2.946   7.143
 2322SOL    HW2 7527   0.171   2.932   6.993
 2323SOL     OW 7528   1.324   2.900   6.807
 2323SOL    HW1 7529   1.374   2.875   6.729
 2323SOL    HW2 7530   1.249   2.949   6.772
 2324SOL     OW 7531   1.318   2.712   5.892
 2324SOL    HW1 7532   1.241   2.692   5.944
 2324SOL    HW2 7533   1.289   2.704   5.801
 2325SOL     OW 7534   1.771   3.603   6.736
 2325SOL    HW1 7535   1.834   3.630   6.669
 2325SOL    HW2 7536   1.750   3.512   6.713
 2326SOL     OW 7537   1.244   3.595   6.694
 2326SOL    HW1 7538   1.327   3.616   6.651
 2326SOL    HW2 7539   1.251   3.501   6.714
 2327SOL     OW 7540   0.076   3.077   6.613
 2327SOL    HW1 7541   0.084   3.104   6.704
 2327SOL    HW2 7542   3.983   3.088   6.592
 2328SOL     OW 7543   0.679   3.527   7.319
 2328SOL    HW1 7544   0.621   3.603   7.323
 2328SOL    HW2 7545   0.738   3.546   7.246
 2329SOL     OW 7546   1.391   3.431   6.073
 2329SOL    HW1 7547   1.450   3.465   6.006
 2329SOL    HW2 7548   1.342   3.508   6.103
 2330SOL     OW 7549   0.170   3.623   7.418
 2330SOL    HW1 7550   0.115   3.570   7.476
 2330SOL    HW2 7551   0.217   3.682   7.476
 2331SOL     OW 7552   1.265   2.802   6.255
 2331SOL    HW1 7553   1.336   2.741   6.273
 2331SOL    HW2 7554   1.305   2.870   6.200
 2332SOL     OW 7555   0.810   3.137   7.013
 2332SOL    HW1 7556   0.782   3.177   7.096
 2332SOL    HW2 7557   0.739   3.154   6.952
 2333SOL     OW 7558   0.675   3.479   5.744
 2333SOL    HW1 7559   0.683   3.496   5.650
 2333SOL    HW2 7560   0.616   3.403   5.749
 2334SOL     OW 7561   1.623   3.588   6.976
 2334SOL    HW1 7562   1.674   3.594   6.895
 2334SOL    HW2 7563   1.609   3.679   7.002
 2335SOL     OW 7564   0.266   2.175   6.302
 2335SOL    HW1 7565   0.180   2.207   6.276
 2335SOL    HW2 7566   0.260   2.165   6.397
 2336SOL     OW 7567   1.208   3.466   5.622
 2336SOL    HW1 7568   1.197   3.374   5.645
 2336SOL    HW2 7569   1.147   3.479   5.549
 2337SOL     OW 7570   0.822   2.868   6.959
 2337SOL    HW1 7571   0.867   2.862   6.875
 2337SOL    HW2 7572   0.821   2.962   6.979
 2338SOL     OW 7573   0.915   2.771   5.876
 2338SOL    HW1 7574   0.976   2.805   5.810
 2338SOL    HW2 7575   0.965   2.703   5.922
 2339SOL     OW 7576   1.489   3.491   5.628
 2339SOL    HW1 7577   1.395   3.480   5.612
 2339SOL    HW2 7578   1.528   3.496   5.541
 2340SOL     OW 7579   0.374   3.165   7.077
 2340SOL    HW1 7580   0.359   3.245   7.027
 2340SOL    HW2 7581   0.297   3.111   7.060
 2341SOL     OW 7582   1.605   3.143   6.867
 2341SOL    HW1 7583   1.667   3.131   6.939
 2341SOL    HW2 7584   1.547   3.213   6.896
 2342SOL     OW 7585   1.051   2.974   6.293
 2342SOL    HW1 7586   0.981   2.922   6.332
 2342SOL    HW2 7587   1.117   2.909   6.268
 2343SOL     OW 7588   1.004   2.095   6.556
 2343SOL    HW1 7589   1.008   2.049   6.472
 2343SOL    HW2 7590   0.987   2.026   6.620
 2344SOL     OW 7591   0.606   3.353   6.066
 2344SOL    HW1 7592   0.651   3.302   5.998
 2344SOL    HW2 7593   0.533   3.395   6.021
 2345SOL     OW 7594   1.812   2.231   6.970
 2345SOL    HW1 7595   1.796   2.317   6.930
 2345SOL    HW2 7596   1.772   2.169   6.909
 2346SOL     OW 7597   0.253   3.203   5.877
 2346SOL    HW1 7598   0.160   3.211   5.859
 2346SOL    HW2 7599   0.264   3.241   5.965
 2347SOL     OW 7600   0.107   2.860   7.303
 2347SOL    HW1 7601   0.047   2.853   7.377
 2347SOL    HW2 7602   0.193   2.842   7.340
 2348SOL     OW 7603   0.672   2.059   7.087
 2348SOL    HW1 7604   0.756   2.038   7.047
 2348SOL    HW2 7605   0.694   2.090   7.175
 2349SOL     OW 7606   0.081   2.177   5.624
 2349SOL    HW1 7607   3.985   2.176   5.631
 2349SOL    HW2 7608   0.101   2.257   5.577
 2350SOL     OW 7609   1.430   2.719   6.987
 2350SOL    HW1 7610   1.374   2.774   6.932
 2350SOL    HW2 7611   1.519   2.748   6.967
 2351SOL     OW 7612   0.019   2.097   5.961
 2351SOL    HW1 7613   0.045   2.162   5.895
 2351SOL    HW2 7614   0.101   2.059   5.991
 2352SOL     OW 7615   1.178   3.199   5.703
 2352SOL    HW1 7616   1.086   3.171   5.704
 2352SOL    HW2 7617   1.204   3.199   5.795
 2353SOL     OW 7618   0.619   2.693   7.022
 2353SOL    HW1 7619   0.675   2.769   7.007
 2353SOL    HW2 7620   0.679   2.619   7.030
 2354SOL     OW 7621   1.486   3.640   6.566
 2354SOL    HW1 7622   1.508   3.700   6.495
 2354SOL    HW2 7623   1.570   3.620   6.608
 2355SOL     OW 7624   0.717   2.425   7.293
 2355SOL    HW1 7625   0.762   2.488   7.349
 2355SOL    HW2 7626   0.745   2.340   7.326
 2356SOL     OW 7627   1.473   3.058   7.215
 2356SOL    HW1 7628   1.460   3.073   7.309
 2356SOL    HW2 7629   1.565   3.080   7.200
 2357SOL     OW 7630   0.378   3.607   7.145
 2357SOL    HW1 7631   0.290   3.643   7.132
 2357SOL    HW2 7632   0.364   3.525   7.191
 2358SOL     OW 7633   0.589   2.598   6.257
 2358SOL    HW1 7634   0.628   2.685   6.243
 2358SOL    HW2 7635   0.523   2.591   6.189
 2359SOL     OW 7636   0.866   3.229   5.625
 2359SOL    HW1 7637   0.823   3.257   5.707
 2359SOL    HW2 7638   0.879   3.310   5.576
 2360SOL     OW 7639   0.659   3.651   6.521
 2360SOL    HW1 7640   0.637   3.742   6.502
 2360SOL    HW2 7641   0.754   3.648   6.519
 2361SOL     OW 7642   0.866   2.832   6.439
 2361SOL    HW1 7643   0.914   2.758   6.476
 2361SOL    HW2 7644   0.831   2.878   6.515
 2362SOL     OW 7645   1.078   2.851   5.676
 2362SOL    HW1 7646   1.056   2.902   5.598
 2362SOL    HW2 7647   1.152   2.797   5.648
 2363SOL     OW 7648   1.851   3.412   6.427
 2363SOL    HW1 7649   1.771   3.402   6.377
 2363SOL    HW2 7650   1.841   3.350   6.500
 2364SOL     OW 7651   0.226   3.166   7.442
 2364SOL    HW1 7652   0.153   3.110   7.415
 2364SOL    HW2 7653   0.213   3.179   7.536
 2365SOL     OW 7654   0.117   3.141   6.307
 2365SOL    HW1 7655   0.132   3.091   6.388
 2365SOL    HW2 7656   0.105   3.074   6.240
 2366SOL     OW 7657   0.683   3.266   7.217
 2366SOL    HW1 7658   0.602   3.224   7.246
 2366SOL    HW2 7659   0.679   3.355   7.253
 2367SOL     OW 7660   0.440   2.295   6.120
 2367SOL    HW1 7661   0.435   2.226   6.053
 2367SOL    HW2 7662   0.386   2.263   6.192
 2368SOL     OW 7663   1.700   3.348   6.678
 2368SOL    HW1 7664   1.619   3.326   6.633
 2368SOL    HW2 7665   1.709   3.280   6.745
 2369SOL     OW 7666   0.335   2.420   6.878
 2369SOL    HW1 7667   0.389   2.363   6.933
 2369SOL    HW2 7668   0.349   2.388   6.789
 2370SOL     OW 7669   0.829   3.440   6.262
 2370SOL    HW1 7670   0.812   3.494   6.185
 2370SOL    HW2 7671   0.754   3.380   6.266
 2371SOL     OW 7672   0.976   1.874   6.729
 2371SOL    HW1 7673   0.933   1.800   6.686
 2371SOL    HW2 7674   1.065   1.843   6.748
 2372SOL     OW 7675   0.773   3.194   5.905
 2372SOL    HW1 7676   0.742   3.103   5.911
 2372SOL    HW2 7677   0.855   3.195   5.953
 2373SOL     OW 7678   0.621   3.416   6.872
 2373SOL    HW1 7679   0.622   3.497   6.922
 2373SOL    HW2 7680   0.708   3.410   6.834
 2374SOL     OW 7681   1.355   1.920   5.751
 2374SOL    HW1 7682   1.388   1.845   5.702
 2374SOL    HW2 7683   1.270   1.892   5.784
 2375SOL     OW 7684   1.279   2.368   6.291
 2375SOL    HW1 7685   1.210   2.434   6.288
 2375SOL    HW2 7686   1.263   2.320   6.372
 2376SOL     OW 7687   0.047   2.911   5.826
 2376SOL    HW1 7688   0.141   2.895   5.818
 2376SOL    HW2 7689   0.011   2.827   5.855
 2377SOL     OW 7690   0.886   3.521   5.929
 2377SOL    HW1 7691   0.815   3.501   5.868
 2377SOL    HW2 7692   0.855   3.596   5.979
 2378SOL     OW 7693   0.231   2.487   7.567
 2378SOL    HW1 7694   0.138   2.495   7.588
 2378SOL    HW2 7695   0.233   2.455   7.477
 2379SOL     OW 7696   0.229   2.134   8.435
 2379SOL    HW1 7697   0.250   2.100   8.522
 2379SOL    HW2 7698   0.134   2.126   8.428
 2380SOL     OW 7699   0.009   2.220   8.078
 2380SOL    HW1 7700   3.920   2.238   8.109
 2380SOL    HW2 7701   3.997   2.189   7.988
 2381SOL     OW 7702   0.580   3.151   8.638
 2381SOL    HW1 7703   0.494   3.154   8.597
 2381SOL    HW2 7704   0.594   3.240   8.671
 2382SOL     OW 7705   1.563   3.373   8.157
 2382SOL    HW1 7706   1.521   3.351   8.240
 2382SOL    HW2 7707   1.492   3.376   8.094
 2383SOL     OW 7708   1.130   2.561   8.147
 2383SOL    HW1 7709   1.178   2.642   8.134
 2383SOL    HW2 7710   1.084   2.574   8.230
 2384SOL     OW 7711   0.753   3.001   8.490
 2384SOL    HW1 7712   0.689   3.037   8.552
 2384SOL    HW2 7713   0.789   3.078   8.446
 2385SOL     OW 7714   0.870   2.631   9.271
 2385SOL    HW1 7715   0.860   2.702   9.334
 2385SOL    HW2 7716   0.893   2.675   9.189
 2386SOL     OW 7717   0.685   2.863   8.094
 2386SOL    HW1 7718   0.751   2.853   8.162
 2386SOL    HW2 7719   0.616   2.916   8.135
 2387SOL     OW 7720   0.712   3.011   9.265
 2387SOL    HW1 7721   0.760   3.089   9.293
 2387SOL    HW2 7722   0.631   3.046   9.227
 2388SOL     OW 7723   0.350   3.263   8.526
 2388SOL    HW1 7724   0.269   3.247   8.479
 2388SOL    HW2 7725   0.400   3.322   8.469
 2389SOL     OW 7726   1.460   3.363   8.805
 2389SOL    HW1 7727   1.513   3.442   8.815
 2389SOL    HW2 7728   1.393   3.370   8.873
 2390SOL     OW 7729   0.450   2.261   8.936
 2390SOL    HW1 7730   0.525   2.202   8.939
 2390SOL    HW2 7731   0.374   2.204   8.949
 2391SOL     OW 7732   1.591   2.308   8.222
 2391SOL    HW1 7733   1.521   2.330   8.160
 2391SOL    HW2 7734   1.652   2.382   8.216
 2392SOL     OW 7735   0.223   3.571   7.914
 2392SOL    HW1 7736   0.223   3.655   7.961
 2392SOL    HW2 7737   0.300   3.576   7.857
 2393SOL     OW 7738   1.137   3.203   9.142
 2393SOL    HW1 7739   1.178   3.197   9.228
 2393SOL    HW2 7740   1.085   3.124   9.134
 2394SOL     OW 7741   0.251   3.306   7.988
 2394SOL    HW1 7742   0.222   3.396   7.974
 2394SOL    HW2 7743   0.181   3.267   8.041
 2395SOL     OW 7744   0.247   2.929   8.332
 2395SOL    HW1 7745   0.267   2.844   8.372
 2395SOL    HW2 7746   0.194   2.974   8.397
 2396SOL     OW 7747   0.611   3.648   8.875
 2396SOL    HW1 7748   0.528   3.634   8.922
 2396SOL    HW2 7749   0.637   3.737   8.900
 2397SOL     OW 7750   0.577   2.848   7.586
 2397SOL    HW1 7751   0.625   2.892   7.517
 2397SOL    HW2 7752   0.618   2.877   7.667
 2398SOL     OW 7753   1.585   1.993   8.909
 2398SOL    HW1 7754   1.581   2.078   8.866
 2398SOL    HW2 7755   1.578   2.012   9.002
 2399SOL     OW 7756   0.143   2.515   8.022
 2399SOL    HW1 7757   0.087   2.437   8.020
 2399SOL    HW2 7758   0.106   2.569   8.092
 2400SOL     OW 7759   1.843   3.609   7.785
 2400SOL    HW1 7760   1.911   3.585   7.848
 2400SOL    HW2 7761   1.863   3.700   7.762
 2401SOL     OW 7762   0.041   3.453   7.588
 2401SOL    HW1 7763   0.035   3.361   7.613
 2401SOL    HW2 7764   3.957   3.491   7.616
 2402SOL     OW 7765   1.687   2.787   8.102
 2402SOL    HW1 7766   1.770   2.741   8.091
 2402SOL    HW2 7767   1.673   2.831   8.018
 2403SOL     OW 7768   1.648   2.965   7.878
 2403SOL    HW1 7769   1.732   2.973   7.834
 2403SOL    HW2 7770   1.652   3.027   7.950
 2404SOL     OW 7771   0.139   2.615   9.038
 2404SOL    HW1 7772   0.235   2.610   9.034
 2404SOL    HW2 7773   0.121   2.704   9.068
 2405SOL     OW 7774   0.616   3.249   8.182
 2405SOL    HW1 7775   0.568   3.166   8.192
 2405SOL    HW2 7776   0.598   3.276   8.092
 2406SOL     OW 7777   1.287   3.099   8.870
 2406SOL    HW1 7778   1.319   3.031   8.810
 2406SOL    HW2 7779   1.346   3.094   8.946
 2407SOL     OW 7780   0.820   1.863   7.961
 2407SOL    HW1 7781   0.860   1.947   7.938
 2407SOL    HW2 7782   0.726   1.881   7.966
 2408SOL     OW 7783   0.184   2.812   8.728
 2408SOL    HW1 7784   0.272   2.777   8.715
 2408SOL    HW2 7785   0.132   2.774   8.656
 2409SOL     OW 7786   1.522   2.859   7.653
 2409SOL    HW1 7787   1.452   2.804   7.688
 2409SOL    HW2 7788   1.568   2.892   7.731
 2410SOL     OW 7789   1.218   3.666   9.075
 2410SOL    HW1 7790   1.194   3.727   9.005
 2410SOL    HW2 7791   1.219   3.580   9.033
 2411SOL     OW 7792   0.342   2.109   9.265
 2411SOL    HW1 7793   0.378   2.197   9.271
 2411SOL    HW2 7794   0.250   2.119   9.290
 2412SOL     OW 7795   1.467   3.281   8.398
 2412SOL    HW1 7796   1.399   3.297   8.464
 2412SOL    HW2 7797   1.454   3.190   8.371
 2413SOL     OW 7798   1.655   3.601   8.029
 2413SOL    HW1 7799   1.640   3.571   7.939
 2413SOL    HW2 7800   1.631   3.527   8.084
 2414SOL     OW 7801   0.596   2.578   7.714
 2414SOL    HW1 7802   0.602   2.662   7.668
 2414SOL    HW2 7803   0.533   2.593   7.784
 2415SOL     OW 7804   1.278   2.221   8.380
 2415SOL    HW1 7805   1.191   2.184   8.393
 2415SOL    HW2 7806   1.335   2.166   8.435
 2416SOL     OW 7807   1.577   3.537   7.756
 2416SOL    HW1 7808   1.669   3.561   7.751
 2416SOL    HW2 7809   1.551   3.518   7.666
 2417SOL     OW 7810   0.791   2.480   8.898
 2417SOL    HW1 7811   0.764   2.455   8.987
 2417SOL    HW2 7812   0.753   2.412   8.842
 2418SOL     OW 7813   1.393   2.335   9.125
 2418SOL    HW1 7814   1.396   2.380   9.209
 2418SOL    HW2 7815   1.456   2.263   9.135
 2419SOL     OW 7816   0.952   2.748   9.032
 2419SOL    HW1 7817   1.007   2.679   8.995
 2419SOL    HW2 7818   0.904   2.783   8.957
 2420SOL     OW 7819   0.992   2.273   8.685
 2420SOL    HW1 7820   0.904   2.292   8.717
 2420SOL    HW2 7821   0.978   2.230   8.601
 2421SOL     OW 7822   1.051   2.563   7.876
 2421SOL    HW1 7823   1.068   2.555   7.970
 2421SOL    HW2 7824   0.969   2.515   7.862
 2422SOL     OW 7825   0.082   2.691   8.238
 2422SOL    HW1 7826   0.156   2.660   8.290
 2422SOL    HW2 7827   0.100   2.784   8.223
 2423SOL     OW 7828   0.127   3.718   9.026
 2423SOL    HW1 7829   0.135   3.686   9.116
 2423SOL    HW2 7830   0.035   3.705   9.003
 2424SOL     OW 7831   0.893   2.209   7.643
 2424SOL    HW1 7832   0.931   2.275   7.585
 2424SOL    HW2 7833   0.917   2.126   7.603
 2425SOL     OW 7834   1.704   2.439   9.282
 2425SOL    HW1 7835   1.668   2.509   9.228
 2425SOL    HW2 7836   1.735   2.373   9.219
 2426SOL     OW 7837   1.379   3.004   7.989
 2426SOL    HW1 7838   1.458   2.993   7.937
 2426SOL    HW2 7839   1.325   3.066   7.939
 2427SOL     OW 7840   0.546   2.040   8.342
 2427SOL    HW1 7841   0.553   2.073   8.432
 2427SOL    HW2 7842   0.546   2.119   8.288
 2428SOL     OW 7843   1.004   3.307   7.918
 2428SOL    HW1 7844   0.967   3.381   7.870
 2428SOL    HW2 7845   0.983   3.326   8.010
 2429SOL     OW 7846   0.359   3.671   8.309
 2429SOL    HW1 7847   0.438   3.618   8.322
 2429SOL    HW2 7848   0.389   3.761   8.319
 2430SOL     OW 7849   1.799   2.921   8.319
 2430SOL    HW1 7850   1.745   2.898   8.243
 2430SOL    HW2 7851   1.737   2.926   8.392
 2431SOL     OW 7852   1.228   3.399   8.959
 2431SOL    HW1 7853   1.215   3.327   9.021
 2431SOL    HW2 7854   1.160   3.386   8.893
 2432SOL     OW 7855   0.311   2.816   7.691
 2432SOL    HW1 7856   0.394   2.838   7.649
 2432SOL    HW2 7857   0.298   2.723   7.669
 2433SOL     OW 7858   1.475   2.609   8.178
 2433SOL    HW1 7859   1.470   2.564   8.262
 2433SOL    HW2 7860   1.554   2.663   8.185
 2434SOL     OW 7861   0.468   3.122   9.185
 2434SOL    HW1 7862   0.442   3.130   9.093
 2434SOL    HW2 7863   0.386   3.126   9.233
 2435SOL     OW 7864   1.113   3.643   7.670
 2435SOL    HW1 7865   1.049   3.597   7.723
 2435SOL    HW2 7866   1.144   3.577   7.607
 2436SOL     OW 7867   0.204   2.135   8.956
 2436SOL    HW1 7868   0.114   2.168   8.950
 2436SOL    HW2 7869   0.195   2.048   8.995
 2437SOL     OW 7870   1.628   3.243   7.539
 2437SOL    HW1 7871   1.587   3.328   7.521
 2437SOL    HW2 7872   1.559   3.179   7.518
 2438SOL     OW 7873   0.468   3.601   7.769
 2438SOL    HW1 7874   0.506   3.664   7.830
 2438SOL    HW2 7875   0.541   3.573   7.714
 2439SOL     OW 7876   0.253   3.656   8.674
 2439SOL    HW1 7877   0.297   3.590   8.727
 2439SOL    HW2 7878   0.251   3.619   8.586
 2440SOL     OW 7879   0.938   3.563   8.348
 2440SOL    HW1 7880   1.015   3.511   8.370
 2440SOL    HW2 7881   0.894   3.513   8.278
 2441SOL     OW 7882   0.399   2.555   7.919
 2441SOL    HW1 7883   0.424   2.464   7.934
 2441SOL    HW2 7884   0.307   2.559   7.946
 2442SOL     OW 7885   1.536   2.086   9.173
 2442SOL    HW1 7886   1.549   2.107   9.265
 2442SOL    HW2 7887   1.465   2.022   9.173
 2443SOL     OW 7888   0.639   1.979   7.547
 2443SOL    HW1 7889   0.704   1.911   7.565
 2443SOL    HW2 7890   0.591   1.948   7.470
 2444SOL     OW 7891   0.765   2.141   9.203
 2444SOL    HW1 7892   0.844   2.086   9.201
 2444SOL    HW2 7893   0.719   2.112   9.281
 2445SOL     OW 7894   0.876   3.383   8.642
 2445SOL    HW1 7895   0.859   3.346   8.555
 2445SOL    HW2 7896   0.946   3.328   8.678
 2446SOL     OW 7897   1.340   2.451   8.880
 2446SOL    HW1 7898   1.371   2.420   8.965
 2446SOL    HW2 7899   1.376   2.539   8.872
 2447SOL     OW 7900   0.817   3.254   8.390
 2447SOL    HW1 7901   0.902   3.242   8.347
 2447SOL    HW2 7902   0.754   3.256   8.318
 2448SOL     OW 7903   0.928   2.371   8.350
 2448SOL    HW1 7904   0.904   2.363   8.258
 2448SOL    HW2 7905   0.960   2.284   8.374
 2449SOL     OW 7906   0.556   1.924   7.943
 2449SOL    HW1 7907   0.474   1.929   7.992
 2449SOL    HW2 7908   0.560   2.006   7.894
 2450SOL     OW 7909   1.430   3.059   7.488
 2450SOL    HW1 7910   1.460   2.983   7.538
 2450SOL    HW2 7911   1.344   3.079   7.524
 2451SOL     OW 7912   0.309   1.913   7.618
 2451SOL    HW1 7913   0.373   1.951   7.558
 2451SOL    HW2 7914   0.359   1.847   7.667
 2452SOL     OW 7915   0.940   2.109   7.907
 2452SOL    HW1 7916   0.910   2.149   7.826
 2452SOL    HW2 7917   1.035   2.126   7.908
 2453SOL     OW 7918   1.080   2.544   8.907
 2453SOL    HW1 7919   1.014   2.475   8.910
 2453SOL    HW2 7920   1.163   2.496   8.900
 2454SOL     OW 7921   1.222   3.432   8.242
 2454SOL    HW1 7922   1.237   3.500   8.175
 2454SOL    HW2 7923   1.290   3.447   8.307
 2455SOL     OW 7924   0.467   3.013   8.183
 2455SOL    HW1 7925   0.395   2.989   8.242
 2455SOL    HW2 7926   0.432   2.997   8.095
 2456SOL     OW 7927   1.266   3.656   8.056
 2456SOL    HW1 7928   1.313   3.721   8.003
 2456SOL    HW2 7929   1.194   3.705   8.095
 2457SOL     OW 7930   1.012   2.398   7.486
 2457SOL    HW1 7931   0.981   2.485   7.461
 2457SOL    HW2 7932   1.083   2.414   7.547
 2458SOL     OW 7933   0.082   2.434   8.838
 2458SOL    HW1 7934   0.172   2.421   8.808
 2458SOL    HW2 7935   0.089   2.504   8.903
 2459SOL     OW 7936   0.567   2.089   8.614
 2459SOL    HW1 7937   0.608   2.014   8.656
 2459SOL    HW2 7938   0.475   2.086   8.643
 2460SOL     OW 7939   0.867   2.320   8.087
 2460SOL    HW1 7940   0.820   2.374   8.024
 2460SOL    HW2 7941   0.889   2.240   8.040
 2461SOL     OW 7942   1.018   1.913   8.197
 2461SOL    HW1 7943   0.958   1.910   8.123
 2461SOL    HW2 7944   0.992   1.839   8.252
 2462SOL     OW 7945   1.437   3.024   8.304
 2462SOL    HW1 7946   1.369   2.957   8.308
 2462SOL    HW2 7947   1.459   3.032   8.212
 2463SOL     OW 7948   1.455   2.478   8.432
 2463SOL    HW1 7949   1.419   2.391   8.418
 2463SOL    HW2 7950   1.520   2.466   8.502
 2464SOL     OW 7951   1.859   2.675   7.821
 2464SOL    HW1 7952   1.869   2.623   7.900
 2464SOL    HW2 7953   1.847   2.611   7.751
 2465SOL     OW 7954   0.488   3.281   7.607
 2465SOL    HW1 7955   0.412   3.251   7.657
 2465SOL    HW2 7956   0.470   3.252   7.517
 2466SOL     OW 7957   1.673   3.128   8.088
 2466SOL    HW1 7958   1.767   3.129   8.105
 2466SOL    HW2 7959   1.643   3.215   8.113
 2467SOL     OW 7960   0.573   2.131   7.767
 2467SOL    HW1 7961   0.604   2.082   7.690
 2467SOL    HW2 7962   0.542   2.214   7.733
 2468SOL     OW 7963   1.751   3.103   9.017
 2468SOL    HW1 7964   1.838   3.064   9.013
 2468SOL    HW2 7965   1.767   3.194   9.044
 2469SOL     OW 7966   1.056   3.215   8.781
 2469SOL    HW1 7967   0.981   3.184   8.832
 2469SOL    HW2 7968   1.132   3.174   8.822
 2470SOL     OW 7969   1.610   3.488   9.104
 2470SOL    HW1 7970   1.601   3.522   9.015
 2470SOL    HW2 7971   1.693   3.440   9.104
 2471SOL     OW 7972   1.132   3.069   8.552
 2471SOL    HW1 7973   1.072   3.105   8.616
 2471SOL    HW2 7974   1.100   3.101   8.468
 2472SOL     OW 7975   1.626   2.959   8.525
 2472SOL    HW1 7976   1.621   3.022   8.598
 2472SOL    HW2 7977   1.547   2.976   8.473
 2473SOL     OW 7978   0.918   1.957   8.842
 2473SOL    HW1 7979   0.941   1.939   8.751
 2473SOL    HW2 7980   0.997   1.997   8.879
 2474SOL     OW 7981   0.984   2.977   9.171
 2474SOL    HW1 7982   0.893   2.993   9.193
 2474SOL    HW2 7983   0.982   2.899   9.116
 2475SOL     OW 7984   0.708   2.923   7.819
 2475SOL    HW1 7985   0.694   2.906   7.912
 2475SOL    HW2 7986   0.784   2.870   7.795
 2476SOL     OW 7987   0.422   2.679   8.701
 2476SOL    HW1 7988   0.490   2.687   8.767
 2476SOL    HW2 7989   0.388   2.590   8.712
 2477SOL     OW 7990   1.264   2.236   8.727
 2477SOL    HW1 7991   1.298   2.315   8.771
 2477SOL    HW2 7992   1.174   2.258   8.703
 2478SOL     OW 7993   0.065   3.442   8.794
 2478SOL    HW1 7994   0.071   3.496   8.715
 2478SOL    HW2 7995   0.157   3.430   8.821
 2479SOL     OW 7996   0.370   2.964   7.931
 2479SOL    HW1 7997   0.365   3.044   7.878
 2479SOL    HW2 7998   0.370   2.894   7.866
 2480SOL     OW 7999   0.549   2.398   8.310
 2480SOL    HW1 8000   0.564   2.455   8.234
 2480SOL    HW2 8001   0.617   2.424   8.372
 2481SOL     OW 8002   1.248   3.211   7.838
 2481SOL    HW1 8003   1.304   3.282   7.869
 2481SOL    HW2 8004   1.161   3.232   7.871
 2482SOL     OW 8005   1.284   3.321   8.595
 2482SOL    HW1 8006   1.340   3.325   8.673
 2482SOL    HW2 8007   1.229   3.244   8.609
 2483SOL     OW 8008   1.607   2.535   7.937
 2483SOL    HW1 8009   1.541   2.553   8.004
 2483SOL    HW2 8010   1.590   2.599   7.868
 2484SOL     OW 8011   0.345   3.389   8.766
 2484SOL    HW1 8012   0.335   3.339   8.685
 2484SOL    HW2 8013   0.439   3.404   8.773
 2485SOL     OW 8014   0.416   2.600   9.049
 2485SOL    HW1 8015   0.479   2.646   8.993
 2485SOL    HW2 8016   0.456   2.515   9.066
 2486SOL     OW 8017   1.604   2.642   9.131
 2486SOL    HW1 8018   1.518   2.684   9.125
 2486SOL    HW2 8019   1.656   2.684   9.063
 2487SOL     OW 8020   0.996   1.990   9.202
 2487SOL    HW1 8021   1.054   2.062   9.178
 2487SOL    HW2 8022   1.044   1.911   9.176
 2488SOL     OW 8023   0.497   1.897   9.195
 2488SOL    HW1 8024   0.453   1.845   9.128
 2488SOL    HW2 8025   0.443   1.975   9.204
 2489SOL     OW 8026   0.585   2.736   8.480
 2489SOL    HW1 8027   0.618   2.826   8.480
 2489SOL    HW2 8028   0.529   2.730   8.557
 2490SOL     OW 8029   1.351   2.726   8.473
 2490SOL    HW1 8030   1.266   2.712   8.431
 2490SOL    HW2 8031   1.394   2.640   8.468
 2491SOL     OW 8032   1.191   2.398   7.703
 2491SOL    HW1 8033   1.208   2.319   7.754
 2491SOL    HW2 8034   1.153   2.460   7.765
 2492SOL     OW 8035   0.310   2.058   8.695
 2492SOL    HW1 8036   0.263   2.095   8.770
 2492SOL    HW2 8037   0.287   1.965   8.696
 2493SOL     OW 8038   0.059   3.167   8.729
 2493SOL    HW1 8039   0.091   3.126   8.809
 2493SOL    HW2 8040   0.052   3.260   8.750
 2494SOL     OW 8041   0.724   2.493   8.504
 2494SOL    HW1 8042   0.799   2.477   8.447
 2494SOL    HW2 8043   0.696   2.582   8.483
 2495SOL     OW 8044   1.736   2.821   9.303
 2495SOL    HW1 8045   1.692   2.756   9.248
 2495SOL    HW2 8046   1.676   2.837   9.375
 2496SOL     OW 8047   0.314   1.924   8.068
 2496SOL    HW1 8048   0.293   2.015   8.089
 2496SOL    HW2 8049   0.320   1.881   8.153
 2497SOL     OW 8050   1.027   2.621   8.407
 2497SOL    HW1 8051   1.022   2.638   8.501
 2497SOL    HW2 8052   1.002   2.529   8.398
 2498SOL     OW 8053   0.986   3.430   9.168
 2498SOL    HW1 8054   0.967   3.471   9.084
 2498SOL    HW2 8055   1.028   3.347   9.145
 2499SOL     OW 8056   1.854   3.365   9.052
 2499SOL    HW1 8057   1.873   3.393   8.963
 2499SOL    HW2 8058   1.934   3.382   9.101
 2500SOL     OW 8059   0.353   2.783   9.248
 2500SOL    HW1 8060   0.431   2.805   9.298
 2500SOL    HW2 8061   0.381   2.716   9.186
 2501SOL     OW 8062   1.291   2.685   7.479
 2501SOL    HW1 8063   1.326   2.596   7.472
 2501SOL    HW2 8064   1.322   2.729   7.400
 2502SOL     OW 8065   1.067   3.199   8.303
 2502SOL    HW1 8066   1.071   3.126   8.240
 2502SOL    HW2 8067   1.127   3.264   8.267
 2503SOL     OW 8068   0.313   2.664   8.398
 2503SOL    HW1 8069   0.407   2.682   8.391
 2503SOL    HW2 8070   0.308   2.574   8.430
 2504SOL     OW 8071   0.329   2.383   8.462
 2504SOL    HW1 8072   0.295   2.295   8.446
 2504SOL    HW2 8073   0.406   2.390   8.405
 2505SOL     OW 8074   1.134   2.236   9.133
 2505SOL    HW1 8075   1.086   2.291   9.194
 2505SOL    HW2 8076   1.222   2.274   9.128
 2506SOL     OW 8077   1.160   2.062   8.919
 2506SOL    HW1 8078   1.150   2.125   8.991
 2506SOL    HW2 8079   1.201   2.113   8.849
 2507SOL     OW 8080   4.000   3.180   7.630
 2507SOL    HW1 8081   3.906   3.196   7.634
 2507SOL    HW2 8082   0.009   3.086   7.648
 2508SOL     OW 8083   0.076   3.663   8.343
 2508SOL    HW1 8084   0.091   3.568   8.341
 2508SOL    HW2 8085   0.164   3.701   8.341
 2509SOL     OW 8086   0.507   3.426   8.365
 2509SOL    HW1 8087   0.573   3.492   8.385
 2509SOL    HW2 8088   0.549   3.367   8.302
 2510SOL     OW 8089   0.979   2.653   8.674
 2510SOL    HW1 8090   1.037   2.631   8.747
 2510SOL    HW2 8091   0.895   2.613   8.697
 2511SOL     OW 8092   0.037   2.420   8.558
 2511SOL    HW1 8093   0.120   2.397   8.514
 2511SOL    HW2 8094   0.057   2.416   8.651
 2512SOL     OW 8095   0.207   2.375   9.175
 2512SOL    HW1 8096   0.246   2.327   9.102
 2512SOL    HW2 8097   0.160   2.447   9.135
 2513SOL     OW 8098   1.378   2.799   9.106
 2513SOL    HW1 8099   1.400   2.892   9.102
 2513SOL    HW2 8100   1.375   2.772   9.014
 2514SOL     OW 8101   0.818   2.431   7.811
 2514SOL    HW1 8102   0.824   2.356   7.751
 2514SOL    HW2 8103   0.745   2.482   7.778
 2515SOL     OW 8104   1.646   2.466   8.631
 2515SOL    HW1 8105   1.634   2.408   8.707
 2515SOL    HW2 8106   1.730   2.440   8.595
 2516SOL     OW 8107   0.300   3.407   9.174
 2516SOL    HW1 8108   0.251   3.477   9.219
 2516SOL    HW2 8109   0.268   3.326   9.214
 2517SOL     OW 8110   0.707   2.311   8.705
 2517SOL    HW1 8111   0.654   2.237   8.676
 2517SOL    HW2 8112   0.701   2.375   8.634
 2518SOL     OW 8113   0.927   3.534   8.917
 2518SOL    HW1 8114   0.901   3.496   8.834
 2518SOL    HW2 8115   0.919   3.628   8.904
 2519SOL     OW 8116   0.454   2.351   7.643
 2519SOL    HW1 8117   0.520   2.418   7.661
 2519SOL    HW2 8118   0.375   2.400   7.621
 2520SOL     OW 8119   0.156   2.997   8.923
 2520SOL    HW1 8120   0.156   2.946   9.004
 2520SOL    HW2 8121   0.171   2.932   8.854
 2521SOL     OW 8122   1.324   2.908   8.670
 2521SOL    HW1 8123   1.345   2.844   8.602
 2521SOL    HW2 8124   1.255   2.963   8.631
 2522SOL     OW 8125   1.313   2.715   7.756
 2522SOL    HW1 8126   1.237   2.685   7.808
 2522SOL    HW2 8127   1.286   2.701   7.665
 2523SOL     OW 8128   1.771   3.602   8.598
 2523SOL    HW1 8129   1.834   3.630   8.531
 2523SOL    HW2 8130   1.750   3.512   8.575
 2524SOL     OW 8131   1.244   3.595   8.557
 2524SOL    HW1 8132   1.327   3.616   8.514
 2524SOL    HW2 8133   1.250   3.501   8.577
 2525SOL     OW 8134   0.076   3.076   8.476
 2525SOL    HW1 8135   0.083   3.104   8.568
 2525SOL    HW2 8136   3.984   3.087   8.454
 2526SOL     OW 8137   0.679   3.527   9.181
 2526SOL    HW1 8138   0.621   3.603   9.185
 2526SOL    HW2 8139   0.739   3.546   9.109
 2527SOL     OW 8140   1.391   3.431   7.935
 2527SOL    HW1 8141   1.450   3.465   7.868
 2527SOL    HW2 8142   1.342   3.508   7.965
 2528SOL     OW 8143   0.170   3.623   9.280
 2528SOL    HW1 8144   0.115   3.570   9.338
 2528SOL    HW2 8145   0.217   3.682   9.338
 2529SOL     OW 8146   1.275   2.790   8.119
 2529SOL    HW1 8147   1.349   2.730   8.132
 2529SOL    HW2 8148   1.311   2.861   8.067
 2530SOL     OW 8149   0.810   3.136   8.876
 2530SOL    HW1 8150   0.781   3.177   8.958
 2530SOL    HW2 8151   0.739   3.155   8.814
 2531SOL     OW 8152   0.675   3.479   7.606
 2531SOL    HW1 8153   0.683   3.496   7.512
 2531SOL    HW2 8154   0.616   3.404   7.611
 2532SOL     OW 8155   1.622   3.588   8.838
 2532SOL    HW1 8156   1.674   3.593   8.757
 2532SOL    HW2 8157   1.609   3.679   8.863
 2533SOL     OW 8158   0.266   2.175   8.164
 2533SOL    HW1 8159   0.180   2.207   8.138
 2533SOL    HW2 8160   0.261   2.165   8.259
 2534SOL     OW 8161   1.208   3.466   7.484
 2534SOL    HW1 8162   1.197   3.374   7.508
 2534SOL    HW2 8163   1.147   3.479   7.411
 2535SOL     OW 8164   0.823   2.868   8.822
 2535SOL    HW1 8165   0.868   2.862   8.737
 2535SOL    HW2 8166   0.822   2.961   8.842
 2536SOL     OW 8167   0.916   2.773   7.738
 2536SOL    HW1 8168   0.977   2.805   7.672
 2536SOL    HW2 8169   0.964   2.704   7.784
 2537SOL     OW 8170   1.490   3.490   7.491
 2537SOL    HW1 8171   1.396   3.480   7.475
 2537SOL    HW2 8172   1.528   3.496   7.403
 2538SOL     OW 8173   0.374   3.165   8.939
 2538SOL    HW1 8174   0.359   3.245   8.889
 2538SOL    HW2 8175   0.297   3.111   8.922
 2539SOL     OW 8176   1.610   3.146   8.728
 2539SOL    HW1 8177   1.669   3.132   8.802
 2539SOL    HW2 8178   1.549   3.214   8.758
 2540SOL     OW 8179   1.056   2.971   8.156
 2540SOL    HW1 8180   0.984   2.920   8.194
 2540SOL    HW2 8181   1.119   2.905   8.128
 2541SOL     OW 8182   1.022   2.102   8.415
 2541SOL    HW1 8183   1.020   2.056   8.332
 2541SOL    HW2 8184   1.017   2.033   8.481
 2542SOL     OW 8185   0.606   3.353   7.928
 2542SOL    HW1 8186   0.651   3.302   7.861
 2542SOL    HW2 8187   0.533   3.394   7.882
 2543SOL     OW 8188   1.726   2.252   8.822
 2543SOL    HW1 8189   1.799   2.314   8.830
 2543SOL    HW2 8190   1.760   2.183   8.764
 2544SOL     OW 8191   0.254   3.203   7.740
 2544SOL    HW1 8192   0.160   3.211   7.721
 2544SOL    HW2 8193   0.264   3.241   7.827
 2545SOL     OW 8194   0.107   2.860   9.165
 2545SOL    HW1 8195   0.047   2.853   9.239
 2545SOL    HW2 8196   0.194   2.842   9.203
 2546SOL     OW 8197   0.676   2.058   8.948
 2546SOL    HW1 8198   0.760   2.037   8.907
 2546SOL    HW2 8199   0.699   2.091   9.035
 2547SOL     OW 8200   0.080   2.176   7.485
 2547SOL    HW1 8201   3.985   2.176   7.492
 2547SOL    HW2 8202   0.101   2.257   7.438
 2548SOL     OW 8203   1.428   2.720   8.847
 2548SOL    HW1 8204   1.379   2.781   8.792
 2548SOL    HW2 8205   1.517   2.722   8.812
 2549SOL     OW 8206   0.018   2.098   7.824
 2549SOL    HW1 8207   0.043   2.162   7.758
 2549SOL    HW2 8208   0.100   2.059   7.853
 2550SOL     OW 8209   1.178   3.199   7.564
 2550SOL    HW1 8210   1.087   3.170   7.566
 2550SOL    HW2 8211   1.205   3.198   7.656
 2551SOL     OW 8212   0.619   2.692   8.885
 2551SOL    HW1 8213   0.676   2.768   8.869
 2551SOL    HW2 8214   0.680   2.619   8.892
 2552SOL     OW 8215   1.486   3.641   8.429
 2552SOL    HW1 8216   1.508   3.700   8.357
 2552SOL    HW2 8217   1.570   3.619   8.470
 2553SOL     OW 8218   0.716   2.424   9.152
 2553SOL    HW1 8219   0.761   2.486   9.210
 2553SOL    HW2 8220   0.741   2.338   9.184
 2554SOL     OW 8221   1.473   3.060   9.078
 2554SOL    HW1 8222   1.461   3.074   9.172
 2554SOL    HW2 8223   1.566   3.077   9.063
 2555SOL     OW 8224   0.378   3.607   9.007
 2555SOL    HW1 8225   0.290   3.643   8.994
 2555SOL    HW2 8226   0.364   3.525   9.053
 2556SOL     OW 8227   1.668   2.742   8.703
 2556SOL    HW1 8228   1.662   2.657   8.661
 2556SOL    HW2 8229   1.657   2.805   8.631
 2557SOL     OW 8230   1.216   2.184   7.901
 2557SOL    HW1 8231   1.298   2.140   7.876
 2557SOL    HW2 8232   1.238   2.232   7.981
 2558SOL     OW 8233   0.588   2.600   8.121
 2558SOL    HW1 8234   0.627   2.685   8.105
 2558SOL    HW2 8235   0.522   2.590   8.052
 2559SOL     OW 8236   1.754   2.244   9.098
 2559SOL    HW1 8237   1.739   2.247   9.003
 2559SOL    HW2 8238   1.693   2.177   9.130
 2560SOL     OW 8239   1.746   2.797   8.959
 2560SOL    HW1 8240   1.738   2.892   8.971
 2560SOL    HW2 8241   1.729   2.784   8.866
 2561SOL     OW 8242   0.865   3.229   7.487
 2561SOL    HW1 8243   0.823   3.256   7.569
 2561SOL    HW2 8244   0.879   3.310   7.439
 2562SOL     OW 8245   0.659   3.651   8.383
 2562SOL    HW1 8246   0.637   3.742   8.364
 2562SOL    HW2 8247   0.754   3.647   8.381
 2563SOL     OW 8248   0.868   2.830   8.301
 2563SOL    HW1 8249   0.918   2.758   8.340
 2563SOL    HW2 8250   0.832   2.877   8.377
 2564SOL     OW 8251   1.079   2.850   7.537
 2564SOL    HW1 8252   1.058   2.902   7.459
 2564SOL    HW2 8253   1.153   2.796   7.510
 2565SOL     OW 8254   1.851   3.412   8.289
 2565SOL    HW1 8255   1.770   3.403   8.239
 2565SOL    HW2 8256   1.840   3.351   8.363
 2566SOL     OW 8257   0.226   3.166   9.304
 2566SOL    HW1 8258   0.153   3.111   9.277
 2566SOL    HW2 8259   0.214   3.179   9.398
 2567SOL     OW 8260   0.116   3.140   8.170
 2567SOL    HW1 8261   0.134   3.089   8.249
 2567SOL    HW2 8262   0.105   3.074   8.101
 2568SOL     OW 8263   0.683   3.266   9.079
 2568SOL    HW1 8264   0.602   3.225   9.108
 2568SOL    HW2 8265   0.679   3.355   9.115
 2569SOL     OW 8266   0.441   2.296   7.982
 2569SOL    HW1 8267   0.444   2.226   7.917
 2569SOL    HW2 8268   0.385   2.262   8.052
 2570SOL     OW 8269   1.701   3.347   8.538
 2570SOL    HW1 8270   1.619   3.326   8.494
 2570SOL    HW2 8271   1.709   3.280   8.606
 2571SOL     OW 8272   0.334   2.419   8.740
 2571SOL    HW1 8273   0.389   2.362   8.794
 2571SOL    HW2 8274   0.349   2.388   8.650
 2572SOL     OW 8275   0.828   3.441   8.124
 2572SOL    HW1 8276   0.812   3.494   8.047
 2572SOL    HW2 8277   0.754   3.380   8.128
 2573SOL     OW 8278   1.435   2.089   8.569
 2573SOL    HW1 8279   1.442   2.002   8.607
 2573SOL    HW2 8280   1.381   2.139   8.630
 2574SOL     OW 8281   1.009   1.878   8.587
 2574SOL    HW1 8282   0.956   1.811   8.545
 2574SOL    HW2 8283   1.097   1.841   8.589
 2575SOL     OW 8284   0.773   3.194   7.767
 2575SOL    HW1 8285   0.743   3.103   7.772
 2575SOL    HW2 8286   0.855   3.195   7.815
 2576SOL     OW 8287   0.621   3.416   8.734
 2576SOL    HW1 8288   0.622   3.497   8.784
 2576SOL    HW2 8289   0.708   3.410   8.696
 2577SOL     OW 8290   1.290   2.323   8.126
 2577SOL    HW1 8291   1.238   2.403   8.134
 2577SOL    HW2 8292   1.290   2.285   8.213
 2578SOL     OW 8293   1.565   2.048   8.322
 2578SOL    HW1 8294   1.530   2.072   8.408
 2578SOL    HW2 8295   1.584   2.132   8.280
 2579SOL     OW 8296   0.047   2.911   7.688
 2579SOL    HW1 8297   0.141   2.895   7.680
 2579SOL    HW2 8298   0.011   2.827   7.716
 2580SOL     OW 8299   0.886   3.521   7.791
 2580SOL    HW1 8300   0.815   3.501   7.730
 2580SOL    HW2 8301   0.855   3.596   7.841
 2581SOL     OW 8302   0.231   2.486   9.429
 2581SOL    HW1 8303   0.138   2.494   9.450
 2581SOL    HW2 8304   0.233   2.455   9.339
 2582SOL     OW 8305   0.229   2.134  10.297
 2582SOL    HW1 8306   0.250   2.100  10.384
 2582SOL    HW2 8307   0.134   2.126  10.290
 2583SOL     OW 8308   0.009   2.221   9.940
 2583SOL    HW1 8309   3.920   2.239   9.971
 2583SOL    HW2 8310   3.997   2.190   9.850
 2584SOL     OW 8311   0.580   3.151  10.500
 2584SOL    HW1 8312   0.494   3.154  10.459
 2584SOL    HW2 8313   0.594   3.239  10.533
 2585SOL     OW 8314   1.564   3.373  10.018
 2585SOL    HW1 8315   1.522   3.351  10.102
 2585SOL    HW2 8316   1.492   3.376   9.955
 2586SOL     OW 8317   1.132   2.560  10.008
 2586SOL    HW1 8318   1.180   2.641   9.995
 2586SOL    HW2 8319   1.085   2.573  10.091
 2587SOL     OW 8320   1.776   2.465   9.538
 2587SOL    HW1 8321   1.750   2.461   9.446
 2587SOL    HW2 8322   1.738   2.386   9.576
 2588SOL     OW 8323   0.753   3.001  10.352
 2588SOL    HW1 8324   0.689   3.037  10.414
 2588SOL    HW2 8325   0.789   3.078  10.308
 2589SOL     OW 8326   0.870   2.631  11.133
 2589SOL    HW1 8327   0.860   2.702  11.196
 2589SOL    HW2 8328   0.893   2.675  11.051
 2590SOL     OW 8329   0.685   2.863   9.956
 2590SOL    HW1 8330   0.751   2.853  10.024
 2590SOL    HW2 8331   0.616   2.916   9.997
 2591SOL     OW 8332   0.712   3.011  11.126
 2591SOL    HW1 8333   0.760   3.089  11.155
 2591SOL    HW2 8334   0.631   3.046  11.089
 2592SOL     OW 8335   0.351   3.263  10.388
 2592SOL    HW1 8336   0.269   3.248  10.341
 2592SOL    HW2 8337   0.400   3.322  10.331
 2593SOL     OW 8338   1.460   3.363  10.667
 2593SOL    HW1 8339   1.513   3.441  10.677
 2593SOL    HW2 8340   1.394   3.370  10.736
 2594SOL     OW 8341   0.450   2.261  10.797
 2594SOL    HW1 8342   0.525   2.201  10.801
 2594SOL    HW2 8343   0.374   2.204  10.811
 2595SOL     OW 8344   1.603   2.305  10.048
 2595SOL    HW1 8345   1.521   2.325  10.003
 2595SOL    HW2 8346   1.618   2.381  10.105
 2596SOL     OW 8347   0.223   3.571   9.776
 2596SOL    HW1 8348   0.223   3.655   9.823
 2596SOL    HW2 8349   0.300   3.576   9.719
 2597SOL     OW 8350   1.137   3.203  11.004
 2597SOL    HW1 8351   1.178   3.197  11.090
 2597SOL    HW2 8352   1.085   3.124  10.996
 2598SOL     OW 8353   0.250   3.306   9.850
 2598SOL    HW1 8354   0.222   3.396   9.836
 2598SOL    HW2 8355   0.181   3.267   9.903
 2599SOL     OW 8356   0.247   2.929  10.194
 2599SOL    HW1 8357   0.267   2.844  10.234
 2599SOL    HW2 8358   0.194   2.974  10.259
 2600SOL     OW 8359   0.611   3.648  10.737
 2600SOL    HW1 8360   0.528   3.634  10.784
 2600SOL    HW2 8361   0.637   3.737  10.762
 2601SOL     OW 8362   0.577   2.848   9.448
 2601SOL    HW1 8363   0.626   2.893   9.379
 2601SOL    HW2 8364   0.618   2.877   9.529
 2602SOL     OW 8365   1.589   1.992  10.773
 2602SOL    HW1 8366   1.587   2.078  10.729
 2602SOL    HW2 8367   1.580   2.013  10.866
 2603SOL     OW 8368   0.143   2.515   9.884
 2603SOL    HW1 8369   0.087   2.437   9.882
 2603SOL    HW2 8370   0.106   2.569   9.954
 2604SOL     OW 8371   1.843   3.609   9.648
 2604SOL    HW1 8372   1.911   3.585   9.710
 2604SOL    HW2 8373   1.862   3.700   9.624
 2605SOL     OW 8374   0.041   3.453   9.450
 2605SOL    HW1 8375   0.035   3.361   9.475
 2605SOL    HW2 8376   3.958   3.491   9.478
 2606SOL     OW 8377   1.689   2.780   9.953
 2606SOL    HW1 8378   1.771   2.737   9.930
 2606SOL    HW2 8379   1.666   2.832   9.875
 2607SOL     OW 8380   1.647   2.967   9.739
 2607SOL    HW1 8381   1.733   2.970   9.698
 2607SOL    HW2 8382   1.653   3.029   9.812
 2608SOL     OW 8383   0.139   2.615  10.899
 2608SOL    HW1 8384   0.235   2.610  10.896
 2608SOL    HW2 8385   0.121   2.704  10.930
 2609SOL     OW 8386   0.616   3.248  10.044
 2609SOL    HW1 8387   0.568   3.166  10.054
 2609SOL    HW2 8388   0.598   3.276   9.954
 2610SOL     OW 8389   1.287   3.099  10.732
 2610SOL    HW1 8390   1.319   3.031  10.672
 2610SOL    HW2 8391   1.346   3.094  10.808
 2611SOL     OW 8392   0.820   1.863   9.822
 2611SOL    HW1 8393   0.860   1.947   9.800
 2611SOL    HW2 8394   0.726   1.881   9.827
 2612SOL     OW 8395   0.184   2.812  10.590
 2612SOL    HW1 8396   0.272   2.777  10.577
 2612SOL    HW2 8397   0.132   2.774  10.519
 2613SOL     OW 8398   1.531   2.858   9.509
 2613SOL    HW1 8399   1.462   2.801   9.542
 2613SOL    HW2 8400   1.573   2.892   9.589
 2614SOL     OW 8401   1.217   3.666  10.937
 2614SOL    HW1 8402   1.194   3.727  10.867
 2614SOL    HW2 8403   1.219   3.580  10.895
 2615SOL     OW 8404   0.341   2.109  11.127
 2615SOL    HW1 8405   0.378   2.197  11.133
 2615SOL    HW2 8406   0.250   2.119  11.152
 2616SOL     OW 8407   1.466   3.281  10.260
 2616SOL    HW1 8408   1.399   3.297  10.326
 2616SOL    HW2 8409   1.453   3.190  10.233
 2617SOL     OW 8410   1.654   3.602   9.891
 2617SOL    HW1 8411   1.640   3.571   9.801
 2617SOL    HW2 8412   1.631   3.527   9.946
 2618SOL     OW 8413   0.596   2.578   9.576
 2618SOL    HW1 8414   0.602   2.662   9.530
 2618SOL    HW2 8415   0.533   2.593   9.646
 2619SOL     OW 8416   1.279   2.222  10.245
 2619SOL    HW1 8417   1.191   2.186  10.254
 2619SOL    HW2 8418   1.334   2.166  10.299
 2620SOL     OW 8419   1.577   3.537   9.618
 2620SOL    HW1 8420   1.669   3.561   9.613
 2620SOL    HW2 8421   1.551   3.518   9.528
 2621SOL     OW 8422   0.791   2.480  10.760
 2621SOL    HW1 8423   0.765   2.455  10.849
 2621SOL    HW2 8424   0.754   2.412  10.704
 2622SOL     OW 8425   1.393   2.335  10.987
 2622SOL    HW1 8426   1.397   2.380  11.071
 2622SOL    HW2 8427   1.456   2.263  10.996
 2623SOL     OW 8428   0.952   2.748  10.894
 2623SOL    HW1 8429   1.007   2.679  10.857
 2623SOL    HW2 8430   0.904   2.783  10.819
 2624SOL     OW 8431   0.993   2.274  10.547
 2624SOL    HW1 8432   0.905   2.293  10.580
 2624SOL    HW2 8433   0.977   2.229  10.463
 2625SOL     OW 8434   1.053   2.560   9.735
 2625SOL    HW1 8435   1.069   2.553   9.829
 2625SOL    HW2 8436   0.970   2.514   9.722
 2626SOL     OW 8437   0.082   2.691  10.100
 2626SOL    HW1 8438   0.156   2.660  10.152
 2626SOL    HW2 8439   0.100   2.784  10.085
 2627SOL     OW 8440   0.127   3.718  10.888
 2627SOL    HW1 8441   0.135   3.686  10.978
 2627SOL    HW2 8442   0.035   3.705  10.865
 2628SOL     OW 8443   0.897   2.212   9.503
 2628SOL    HW1 8444   0.936   2.275   9.443
 2628SOL    HW2 8445   0.913   2.127   9.463
 2629SOL     OW 8446   1.704   2.438  11.143
 2629SOL    HW1 8447   1.668   2.509  11.089
 2629SOL    HW2 8448   1.735   2.373  11.080
 2630SOL     OW 8449   1.379   3.004   9.851
 2630SOL    HW1 8450   1.458   2.992   9.798
 2630SOL    HW2 8451   1.325   3.066   9.800
 2631SOL     OW 8452   0.546   2.040  10.204
 2631SOL    HW1 8453   0.553   2.072  10.294
 2631SOL    HW2 8454   0.546   2.119  10.150
 2632SOL     OW 8455   1.004   3.307   9.780
 2632SOL    HW1 8456   0.967   3.381   9.732
 2632SOL    HW2 8457   0.983   3.326   9.872
 2633SOL     OW 8458   0.359   3.671  10.171
 2633SOL    HW1 8459   0.438   3.618  10.184
 2633SOL    HW2 8460   0.389   3.761  10.181
 2634SOL     OW 8461   1.800   2.915  10.179
 2634SOL    HW1 8462   1.746   2.897  10.102
 2634SOL    HW2 8463   1.737   2.922  10.251
 2635SOL     OW 8464   1.228   3.399  10.821
 2635SOL    HW1 8465   1.215   3.327  10.883
 2635SOL    HW2 8466   1.160   3.387  10.755
 2636SOL     OW 8467   0.311   2.816   9.552
 2636SOL    HW1 8468   0.394   2.839   9.511
 2636SOL    HW2 8469   0.298   2.724   9.530
 2637SOL     OW 8470   1.481   2.606  10.034
 2637SOL    HW1 8471   1.474   2.566  10.120
 2637SOL    HW2 8472   1.558   2.662  10.040
 2638SOL     OW 8473   0.468   3.122  11.047
 2638SOL    HW1 8474   0.442   3.130  10.955
 2638SOL    HW2 8475   0.386   3.126  11.095
 2639SOL     OW 8476   1.113   3.643   9.532
 2639SOL    HW1 8477   1.049   3.597   9.586
 2639SOL    HW2 8478   1.144   3.577   9.469
 2640SOL     OW 8479   0.204   2.135  10.818
 2640SOL    HW1 8480   0.114   2.168  10.812
 2640SOL    HW2 8481   0.195   2.048  10.857
 2641SOL     OW 8482   1.627   3.243   9.401
 2641SOL    HW1 8483   1.587   3.328   9.383
 2641SOL    HW2 8484   1.559   3.179   9.380
 2642SOL     OW 8485   0.468   3.601   9.631
 2642SOL    HW1 8486   0.507   3.664   9.692
 2642SOL    HW2 8487   0.541   3.573   9.576
 2643SOL     OW 8488   1.399   1.968   9.742
 2643SOL    HW1 8489   1.382   1.946   9.651
 2643SOL    HW2 8490   1.490   1.944   9.757
 2644SOL     OW 8491   0.253   3.656  10.536
 2644SOL    HW1 8492   0.297   3.590  10.589
 2644SOL    HW2 8493   0.251   3.619  10.448
 2645SOL     OW 8494   0.938   3.563  10.210
 2645SOL    HW1 8495   1.015   3.511  10.232
 2645SOL    HW2 8496   0.894   3.513  10.140
 2646SOL     OW 8497   0.399   2.555   9.781
 2646SOL    HW1 8498   0.424   2.464   9.796
 2646SOL    HW2 8499   0.307   2.559   9.808
 2647SOL     OW 8500   1.536   2.086  11.035
 2647SOL    HW1 8501   1.549   2.107  11.127
 2647SOL    HW2 8502   1.465   2.021  11.035
 2648SOL     OW 8503   0.643   1.980   9.407
 2648SOL    HW1 8504   0.704   1.909   9.426
 2648SOL    HW2 8505   0.592   1.949   9.332
 2649SOL     OW 8506   0.765   2.141  11.065
 2649SOL    HW1 8507   0.844   2.086  11.063
 2649SOL    HW2 8508   0.719   2.112  11.143
 2650SOL     OW 8509   0.876   3.383  10.504
 2650SOL    HW1 8510   0.859   3.346  10.417
 2650SOL    HW2 8511   0.946   3.328  10.540
 2651SOL     OW 8512   1.340   2.451  10.742
 2651SOL    HW1 8513   1.371   2.420  10.827
 2651SOL    HW2 8514   1.376   2.539  10.735
 2652SOL     OW 8515   0.817   3.254  10.252
 2652SOL    HW1 8516   0.902   3.242  10.209
 2652SOL    HW2 8517   0.754   3.256  10.180
 2653SOL     OW 8518   0.929   2.371  10.212
 2653SOL    HW1 8519   0.905   2.363  10.120
 2653SOL    HW2 8520   0.959   2.284  10.237
 2654SOL     OW 8521   0.556   1.924   9.805
 2654SOL    HW1 8522   0.474   1.929   9.854
 2654SOL    HW2 8523   0.560   2.006   9.756
 2655SOL     OW 8524   1.428   3.061   9.350
 2655SOL    HW1 8525   1.458   2.986   9.401
 2655SOL    HW2 8526   1.342   3.082   9.387
 2656SOL     OW 8527   0.308   1.913   9.480
 2656SOL    HW1 8528   0.371   1.951   9.419
 2656SOL    HW2 8529   0.358   1.848   9.529
 2657SOL     OW 8530   0.940   2.109   9.769
 2657SOL    HW1 8531   0.911   2.149   9.687
 2657SOL    HW2 8532   1.034   2.126   9.772
 2658SOL     OW 8533   1.080   2.544  10.768
 2658SOL    HW1 8534   1.013   2.476  10.773
 2658SOL    HW2 8535   1.163   2.496  10.762
 2659SOL     OW 8536   1.222   3.433  10.104
 2659SOL    HW1 8537   1.237   3.500  10.037
 2659SOL    HW2 8538   1.291   3.447  10.169
 2660SOL     OW 8539   0.467   3.013  10.045
 2660SOL    HW1 8540   0.395   2.989  10.104
 2660SOL    HW2 8541   0.432   2.997   9.957
 2661SOL     OW 8542   1.266   3.656   9.918
 2661SOL    HW1 8543   1.313   3.721   9.865
 2661SOL    HW2 8544   1.194   3.706   9.957
 2662SOL     OW 8545   1.023   2.401   9.335
 2662SOL    HW1 8546   0.980   2.484   9.315
 2662SOL    HW2 8547   1.089   2.423   9.400
 2663SOL     OW 8548   0.082   2.434  10.700
 2663SOL    HW1 8549   0.172   2.421  10.670
 2663SOL    HW2 8550   0.089   2.504  10.765
 2664SOL     OW 8551   0.567   2.089  10.476
 2664SOL    HW1 8552   0.608   2.014  10.518
 2664SOL    HW2 8553   0.475   2.086  10.505
 2665SOL     OW 8554   0.867   2.320   9.950
 2665SOL    HW1 8555   0.820   2.374   9.886
 2665SOL    HW2 8556   0.888   2.240   9.902
 2666SOL     OW 8557   1.016   1.916  10.060
 2666SOL    HW1 8558   0.958   1.910   9.984
 2666SOL    HW2 8559   0.993   1.840  10.114
 2667SOL     OW 8560   1.438   3.024  10.167
 2667SOL    HW1 8561   1.368   2.959  10.167
 2667SOL    HW2 8562   1.462   3.033  10.075
 2668SOL     OW 8563   1.465   2.469  10.283
 2668SOL    HW1 8564   1.411   2.390  10.286
 2668SOL    HW2 8565   1.524   2.461  10.358
 2669SOL     OW 8566   1.843   2.676   9.694
 2669SOL    HW1 8567   1.902   2.628   9.752
 2669SOL    HW2 8568   1.818   2.613   9.627
 2670SOL     OW 8569   0.488   3.281   9.469
 2670SOL    HW1 8570   0.412   3.251   9.519
 2670SOL    HW2 8571   0.470   3.252   9.379
 2671SOL     OW 8572   1.673   3.126   9.954
 2671SOL    HW1 8573   1.768   3.127   9.968
 2671SOL    HW2 8574   1.644   3.214   9.975
 2672SOL     OW 8575   1.393   2.435   9.380
 2672SOL    HW1 8576   1.334   2.414   9.452
 2672SOL    HW2 8577   1.479   2.405   9.409
 2673SOL     OW 8578   0.574   2.130   9.628
 2673SOL    HW1 8579   0.605   2.083   9.551
 2673SOL    HW2 8580   0.542   2.214   9.594
 2674SOL     OW 8581   1.751   3.103  10.879
 2674SOL    HW1 8582   1.838   3.064  10.875
 2674SOL    HW2 8583   1.767   3.194  10.907
 2675SOL     OW 8584   1.056   3.214  10.642
 2675SOL    HW1 8585   0.981   3.184  10.693
 2675SOL    HW2 8586   1.132   3.174  10.684
 2676SOL     OW 8587   1.610   3.488  10.966
 2676SOL    HW1 8588   1.601   3.522  10.877
 2676SOL    HW2 8589   1.693   3.440  10.966
 2677SOL     OW 8590   1.132   3.068  10.414
 2677SOL    HW1 8591   1.073   3.105  10.479
 2677SOL    HW2 8592   1.100   3.101  10.330
 2678SOL     OW 8593   1.626   2.959  10.386
 2678SOL    HW1 8594   1.621   3.021  10.459
 2678SOL    HW2 8595   1.548   2.977  10.333
 2679SOL     OW 8596   0.918   1.957  10.704
 2679SOL    HW1 8597   0.941   1.939  10.613
 2679SOL    HW2 8598   0.997   1.997  10.741
 2680SOL     OW 8599   0.984   2.977  11.033
 2680SOL    HW1 8600   0.893   2.993  11.055
 2680SOL    HW2 8601   0.982   2.899  10.978
 2681SOL     OW 8602   0.708   2.922   9.681
 2681SOL    HW1 8603   0.694   2.906   9.774
 2681SOL    HW2 8604   0.784   2.870   9.657
 2682SOL     OW 8605   0.422   2.679  10.562
 2682SOL    HW1 8606   0.490   2.687  10.629
 2682SOL    HW2 8607   0.388   2.590  10.574
 2683SOL     OW 8608   1.264   2.237  10.588
 2683SOL    HW1 8609   1.297   2.315  10.633
 2683SOL    HW2 8610   1.174   2.259  10.565
 2684SOL     OW 8611   0.065   3.442  10.656
 2684SOL    HW1 8612   0.071   3.496  10.577
 2684SOL    HW2 8613   0.157   3.430  10.683
 2685SOL     OW 8614   0.370   2.964   9.793
 2685SOL    HW1 8615   0.365   3.045   9.741
 2685SOL    HW2 8616   0.369   2.894   9.728
 2686SOL     OW 8617   0.549   2.398  10.171
 2686SOL    HW1 8618   0.564   2.455  10.096
 2686SOL    HW2 8619   0.617   2.424  10.234
 2687SOL     OW 8620   1.248   3.211   9.700
 2687SOL    HW1 8621   1.304   3.282   9.731
 2687SOL    HW2 8622   1.161   3.233   9.733
 2688SOL     OW 8623   1.284   3.321  10.458
 2688SOL    HW1 8624   1.340   3.325  10.535
 2688SOL    HW2 8625   1.229   3.245  10.472
 2689SOL     OW 8626   1.576   2.488   9.783
 2689SOL    HW1 8627   1.530   2.535   9.853
 2689SOL    HW2 8628   1.625   2.556   9.737
 2690SOL     OW 8629   0.345   3.389  10.628
 2690SOL    HW1 8630   0.335   3.339  10.547
 2690SOL    HW2 8631   0.439   3.404  10.635
 2691SOL     OW 8632   0.416   2.601  10.911
 2691SOL    HW1 8633   0.479   2.646  10.855
 2691SOL    HW2 8634   0.456   2.515  10.928
 2692SOL     OW 8635   1.604   2.642  10.993
 2692SOL    HW1 8636   1.518   2.684  10.987
 2692SOL    HW2 8637   1.656   2.684  10.925
 2693SOL     OW 8638   0.996   1.990  11.064
 2693SOL    HW1 8639   1.054   2.062  11.040
 2693SOL    HW2 8640   1.044   1.911  11.038
 2694SOL     OW 8641   0.497   1.897  11.057
 2694SOL    HW1 8642   0.453   1.845  10.990
 2694SOL    HW2 8643   0.443   1.976  11.065
 2695SOL     OW 8644   0.585   2.736  10.342
 2695SOL    HW1 8645   0.618   2.826  10.342
 2695SOL    HW2 8646   0.529   2.730  10.419
 2696SOL     OW 8647   1.354   2.720  10.336
 2696SOL    HW1 8648   1.269   2.708  10.293
 2696SOL    HW2 8649   1.397   2.635  10.328
 2697SOL     OW 8650   1.203   2.390   9.575
 2697SOL    HW1 8651   1.210   2.312   9.630
 2697SOL    HW2 8652   1.160   2.455   9.631
 2698SOL     OW 8653   0.310   2.058  10.557
 2698SOL    HW1 8654   0.263   2.095  10.632
 2698SOL    HW2 8655   0.287   1.965  10.558
 2699SOL     OW 8656   0.060   3.167  10.590
 2699SOL    HW1 8657   0.091   3.126  10.671
 2699SOL    HW2 8658   0.052   3.260  10.612
 2700SOL     OW 8659   0.724   2.493  10.366
 2700SOL    HW1 8660   0.799   2.478  10.309
 2700SOL    HW2 8661   0.695   2.582  10.345
 2701SOL     OW 8662   1.736   2.821  11.165
 2701SOL    HW1 8663   1.692   2.756  11.110
 2701SOL    HW2 8664   1.676   2.837  11.237
 2702SOL     OW 8665   0.314   1.924   9.930
 2702SOL    HW1 8666   0.293   2.015   9.951
 2702SOL    HW2 8667   0.320   1.881  10.015
 2703SOL     OW 8668   1.613   2.242   9.681
 2703SOL    HW1 8669   1.614   2.185   9.758
 2703SOL    HW2 8670   1.590   2.328   9.715
 2704SOL     OW 8671   1.029   2.621  10.269
 2704SOL    HW1 8672   1.023   2.638  10.363
 2704SOL    HW2 8673   1.002   2.529  10.260
 2705SOL     OW 8674   0.986   3.430  11.030
 2705SOL    HW1 8675   0.967   3.471  10.946
 2705SOL    HW2 8676   1.027   3.347  11.007
 2706SOL     OW 8677   1.854   3.365  10.914
 2706SOL    HW1 8678   1.873   3.393  10.825
 2706SOL    HW2 8679   1.934   3.382  10.963
 2707SOL     OW 8680   0.353   2.783  11.110
 2707SOL    HW1 8681   0.431   2.805  11.160
 2707SOL    HW2 8682   0.381   2.716  11.048
 2708SOL     OW 8683   1.526   2.135   9.439
 2708SOL    HW1 8684   1.460   2.070   9.465
 2708SOL    HW2 8685   1.559   2.171   9.521
 2709SOL     OW 8686   1.289   2.688   9.340
 2709SOL    HW1 8687   1.332   2.602   9.343
 2709SOL    HW2 8688   1.321   2.727   9.258
 2710SOL     OW 8689   1.067   3.199  10.165
 2710SOL    HW1 8690   1.071   3.127  10.102
 2710SOL    HW2 8691   1.127   3.265  10.130
 2711SOL     OW 8692   0.313   2.664  10.260
 2711SOL    HW1 8693   0.407   2.682  10.254
 2711SOL    HW2 8694   0.308   2.574  10.292
 2712SOL     OW 8695   0.330   2.383  10.324
 2712SOL    HW1 8696   0.295   2.295  10.308
 2712SOL    HW2 8697   0.406   2.390  10.267
 2713SOL     OW 8698   1.134   2.236  10.994
 2713SOL    HW1 8699   1.086   2.291  11.056
 2713SOL    HW2 8700   1.222   2.274  10.990
 2714SOL     OW 8701   1.160   2.063  10.781
 2714SOL    HW1 8702   1.150   2.125  10.852
 2714SOL    HW2 8703   1.202   2.113  10.711
 2715SOL     OW 8704   4.000   3.180   9.492
 2715SOL    HW1 8705   3.905   3.196   9.496
 2715SOL    HW2 8706   0.009   3.086   9.510
 2716SOL     OW 8707   0.076   3.663  10.205
 2716SOL    HW1 8708   0.090   3.568  10.203
 2716SOL    HW2 8709   0.163   3.701  10.203
 2717SOL     OW 8710   0.507   3.425  10.227
 2717SOL    HW1 8711   0.573   3.492  10.247
 2717SOL    HW2 8712   0.549   3.367  10.164
 2718SOL     OW 8713   0.979   2.652  10.535
 2718SOL    HW1 8714   1.037   2.631  10.608
 2718SOL    HW2 8715   0.894   2.614  10.560
 2719SOL     OW 8716   0.038   2.420  10.419
 2719SOL    HW1 8717   0.120   2.397  10.377
 2719SOL    HW2 8718   0.057   2.416  10.513
 2720SOL     OW 8719   0.207   2.375  11.037
 2720SOL    HW1 8720   0.246   2.327  10.964
 2720SOL    HW2 8721   0.160   2.447  10.997
 2721SOL     OW 8722   1.378   2.799  10.968
 2721SOL    HW1 8723   1.400   2.892  10.964
 2721SOL    HW2 8724   1.375   2.772  10.876
 2722SOL     OW 8725   0.818   2.431   9.672
 2722SOL    HW1 8726   0.823   2.356   9.613
 2722SOL    HW2 8727   0.744   2.482   9.640
 2723SOL     OW 8728   1.643   2.464  10.492
 2723SOL    HW1 8729   1.632   2.408  10.569
 2723SOL    HW2 8730   1.730   2.441  10.457
 2724SOL     OW 8731   0.300   3.407  11.036
 2724SOL    HW1 8732   0.251   3.477  11.081
 2724SOL    HW2 8733   0.268   3.326  11.076
 2725SOL     OW 8734   0.707   2.311  10.567
 2725SOL    HW1 8735   0.654   2.237  10.538
 2725SOL    HW2 8736   0.701   2.375  10.496
 2726SOL     OW 8737   0.928   3.534  10.779
 2726SOL    HW1 8738   0.901   3.496  10.695
 2726SOL    HW2 8739   0.920   3.628  10.766
 2727SOL     OW 8740   0.455   2.351   9.506
 2727SOL    HW1 8741   0.520   2.419   9.523
 2727SOL    HW2 8742   0.375   2.400   9.483
 2728SOL     OW 8743   0.156   2.997  10.785
 2728SOL    HW1 8744   0.156   2.946  10.866
 2728SOL    HW2 8745   0.171   2.932  10.716
 2729SOL     OW 8746   1.324   2.907  10.531
 2729SOL    HW1 8747   1.346   2.844  10.463
 2729SOL    HW2 8748   1.255   2.961  10.492
 2730SOL     OW 8749   1.313   2.719   9.615
 2730SOL    HW1 8750   1.238   2.688   9.666
 2730SOL    HW2 8751   1.288   2.705   9.524
 2731SOL     OW 8752   1.772   3.602  10.461
 2731SOL    HW1 8753   1.834   3.630  10.394
 2731SOL    HW2 8754   1.750   3.512  10.437
 2732SOL     OW 8755   1.244   3.595  10.419
 2732SOL    HW1 8756   1.327   3.616  10.376
 2732SOL    HW2 8757   1.250   3.501  10.439
 2733SOL     OW 8758   0.076   3.076  10.338
 2733SOL    HW1 8759   0.083   3.104  10.429
 2733SOL    HW2 8760   3.984   3.087  10.316
 2734SOL     OW 8761   0.679   3.527  11.043
 2734SOL    HW1 8762   0.621   3.603  11.047
 2734SOL    HW2 8763   0.739   3.546  10.971
 2735SOL     OW 8764   1.391   3.431   9.797
 2735SOL    HW1 8765   1.450   3.464   9.730
 2735SOL    HW2 8766   1.342   3.508   9.827
 2736SOL     OW 8767   0.170   3.623  11.142
 2736SOL    HW1 8768   0.115   3.570  11.200
 2736SOL    HW2 8769   0.217   3.682  11.200
 2737SOL     OW 8770   1.278   2.788   9.981
 2737SOL    HW1 8771   1.352   2.728   9.989
 2737SOL    HW2 8772   1.312   2.861   9.928
 2738SOL     OW 8773   0.810   3.136  10.738
 2738SOL    HW1 8774   0.782   3.177  10.820
 2738SOL    HW2 8775   0.739   3.155  10.676
 2739SOL     OW 8776   0.675   3.479   9.468
 2739SOL    HW1 8777   0.683   3.496   9.374
 2739SOL    HW2 8778   0.616   3.404   9.473
 2740SOL     OW 8779   1.622   3.588  10.700
 2740SOL    HW1 8780   1.674   3.593  10.619
 2740SOL    HW2 8781   1.609   3.679  10.725
 2741SOL     OW 8782   0.266   2.175  10.026
 2741SOL    HW1 8783   0.180   2.207  10.000
 2741SOL    HW2 8784   0.261   2.165  10.121
 2742SOL     OW 8785   1.208   3.466   9.346
 2742SOL    HW1 8786   1.197   3.374   9.370
 2742SOL    HW2 8787   1.147   3.479   9.273
 2743SOL     OW 8788   0.823   2.868  10.684
 2743SOL    HW1 8789   0.868   2.862  10.599
 2743SOL    HW2 8790   0.822   2.961  10.704
 2744SOL     OW 8791   0.916   2.772   9.601
 2744SOL    HW1 8792   0.976   2.805   9.534
 2744SOL    HW2 8793   0.965   2.704   9.646
 2745SOL     OW 8794   1.489   3.491   9.353
 2745SOL    HW1 8795   1.395   3.480   9.336
 2745SOL    HW2 8796   1.528   3.496   9.265
 2746SOL     OW 8797   0.374   3.165  10.801
 2746SOL    HW1 8798   0.359   3.245  10.751
 2746SOL    HW2 8799   0.297   3.111  10.784
 2747SOL     OW 8800   1.609   3.145  10.590
 2747SOL    HW1 8801   1.670   3.132  10.663
 2747SOL    HW2 8802   1.549   3.213  10.620
 2748SOL     OW 8803   1.056   2.970  10.018
 2748SOL    HW1 8804   0.984   2.920  10.056
 2748SOL    HW2 8805   1.119   2.905   9.989
 2749SOL     OW 8806   1.023   2.103  10.277
 2749SOL    HW1 8807   1.019   2.056  10.194
 2749SOL    HW2 8808   1.017   2.034  10.343
 2750SOL     OW 8809   0.606   3.352   9.790
 2750SOL    HW1 8810   0.651   3.302   9.723
 2750SOL    HW2 8811   0.533   3.395   9.744
 2751SOL     OW 8812   1.728   2.249  10.683
 2751SOL    HW1 8813   1.799   2.312  10.692
 2751SOL    HW2 8814   1.764   2.181  10.625
 2752SOL     OW 8815   0.253   3.203   9.602
 2752SOL    HW1 8816   0.160   3.211   9.583
 2752SOL    HW2 8817   0.264   3.241   9.689
 2753SOL     OW 8818   0.107   2.860  11.027
 2753SOL    HW1 8819   0.047   2.853  11.101
 2753SOL    HW2 8820   0.193   2.842  11.065
 2754SOL     OW 8821   0.676   2.058  10.810
 2754SOL    HW1 8822   0.760   2.037  10.769
 2754SOL    HW2 8823   0.699   2.091  10.897
 2755SOL     OW 8824   0.081   2.176   9.348
 2755SOL    HW1 8825   3.985   2.176   9.355
 2755SOL    HW2 8826   0.101   2.257   9.300
 2756SOL     OW 8827   1.428   2.720  10.709
 2756SOL    HW1 8828   1.379   2.781  10.654
 2756SOL    HW2 8829   1.517   2.723  10.675
 2757SOL     OW 8830   0.018   2.098   9.686
 2757SOL    HW1 8831   0.044   2.161   9.620
 2757SOL    HW2 8832   0.100   2.058   9.716
 2758SOL     OW 8833   1.178   3.199   9.427
 2758SOL    HW1 8834   1.086   3.170   9.428
 2758SOL    HW2 8835   1.204   3.198   9.519
 2759SOL     OW 8836   0.620   2.692  10.746
 2759SOL    HW1 8837   0.676   2.768  10.731
 2759SOL    HW2 8838   0.680   2.619  10.754
 2760SOL     OW 8839   1.486   3.641  10.291
 2760SOL    HW1 8840   1.509   3.700  10.219
 2760SOL    HW2 8841   1.570   3.619  10.331
 2761SOL     OW 8842   0.716   2.424  11.014
 2761SOL    HW1 8843   0.761   2.486  11.072
 2761SOL    HW2 8844   0.741   2.338  11.046
 2762SOL     OW 8845   1.473   3.059  10.940
 2762SOL    HW1 8846   1.461   3.074  11.034
 2762SOL    HW2 8847   1.566   3.077  10.925
 2763SOL     OW 8848   0.378   3.607  10.869
 2763SOL    HW1 8849   0.290   3.643  10.856
 2763SOL    HW2 8850   0.364   3.525  10.915
 2764SOL     OW 8851   1.668   2.743  10.564
 2764SOL    HW1 8852   1.662   2.657  10.521
 2764SOL    HW2 8853   1.657   2.806  10.494
 2765SOL     OW 8854   1.216   2.182   9.768
 2765SOL    HW1 8855   1.278   2.110   9.760
 2765SOL    HW2 8856   1.245   2.231   9.845
 2766SOL     OW 8857   0.589   2.599   9.982
 2766SOL    HW1 8858   0.628   2.685   9.967
 2766SOL    HW2 8859   0.523   2.590   9.914
 2767SOL     OW 8860   1.756   2.243  10.959
 2767SOL    HW1 8861   1.740   2.244  10.864
 2767SOL    HW2 8862   1.696   2.176  10.992
 2768SOL     OW 8863   1.745   2.797  10.821
 2768SOL    HW1 8864   1.739   2.892  10.834
 2768SOL    HW2 8865   1.729   2.784  10.728
 2769SOL     OW 8866   0.865   3.229   9.349
 2769SOL    HW1 8867   0.823   3.257   9.430
 2769SOL    HW2 8868   0.879   3.309   9.300
 2770SOL     OW 8869   0.659   3.651  10.245
 2770SOL    HW1 8870   0.637   3.742  10.226
 2770SOL    HW2 8871   0.754   3.647  10.243
 2771SOL     OW 8872   0.869   2.830  10.164
 2771SOL    HW1 8873   0.919   2.758  10.202
 2771SOL    HW2 8874   0.832   2.877  10.239
 2772SOL     OW 8875   1.077   2.850   9.399
 2772SOL    HW1 8876   1.056   2.901   9.321
 2772SOL    HW2 8877   1.152   2.796   9.372
 2773SOL     OW 8878   1.851   3.413  10.151
 2773SOL    HW1 8879   1.770   3.402  10.101
 2773SOL    HW2 8880   1.842   3.350  10.224
 2774SOL     OW 8881   0.226   3.166  11.166
 2774SOL    HW1 8882   0.153   3.111  11.139
 2774SOL    HW2 8883   0.214   3.179  11.260
 2775SOL     OW 8884   0.115   3.140  10.032
 2775SOL    HW1 8885   0.134   3.089  10.111
 2775SOL    HW2 8886   0.105   3.074   9.963
 2776SOL     OW 8887   0.683   3.266  10.941
 2776SOL    HW1 8888   0.602   3.225  10.970
 2776SOL    HW2 8889   0.679   3.355  10.977
 2777SOL     OW 8890   0.441   2.296   9.844
 2777SOL    HW1 8891   0.442   2.226   9.778
 2777SOL    HW2 8892   0.385   2.262   9.914
 2778SOL     OW 8893   1.700   3.348  10.401
 2778SOL    HW1 8894   1.619   3.327  10.356
 2778SOL    HW2 8895   1.709   3.280  10.468
 2779SOL     OW 8896   0.335   2.419  10.602
 2779SOL    HW1 8897   0.389   2.362  10.656
 2779SOL    HW2 8898   0.349   2.388  10.513
 2780SOL     OW 8899   0.828   3.441   9.986
 2780SOL    HW1 8900   0.812   3.495   9.909
 2780SOL    HW2 8901   0.754   3.381   9.990
 2781SOL     OW 8902   1.437   2.092  10.430
 2781SOL    HW1 8903   1.446   2.004  10.466
 2781SOL    HW2 8904   1.382   2.138  10.493
 2782SOL     OW 8905   1.010   1.879  10.449
 2782SOL    HW1 8906   0.956   1.812  10.407
 2782SOL    HW2 8907   1.098   1.841  10.451
 2783SOL     OW 8908   0.772   3.194   9.629
 2783SOL    HW1 8909   0.743   3.103   9.635
 2783SOL    HW2 8910   0.855   3.195   9.677
 2784SOL     OW 8911   0.621   3.416  10.596
 2784SOL    HW1 8912   0.621   3.497  10.646
 2784SOL    HW2 8913   0.708   3.410  10.558
 2785SOL     OW 8914   1.351   1.914   9.477
 2785SOL    HW1 8915   1.382   1.851   9.412
 2785SOL    HW2 8916   1.263   1.884   9.500
 2786SOL     OW 8917   1.299   2.324   9.991
 2786SOL    HW1 8918   1.245   2.403   9.995
 2786SOL    HW2 8919   1.292   2.285  10.078
 2787SOL     OW 8920   1.568   2.052  10.182
 2787SOL    HW1 8921   1.533   2.080  10.267
 2787SOL    HW2 8922   1.587   2.134  10.136
 2788SOL     OW 8923   0.047   2.911   9.549
 2788SOL    HW1 8924   0.141   2.896   9.541
 2788SOL    HW2 8925   0.011   2.828   9.580
 2789SOL     OW 8926   0.886   3.521   9.653
 2789SOL    HW1 8927   0.815   3.501   9.592
 2789SOL    HW2 8928   0.855   3.596   9.703
 2790SOL     OW 8929   0.231   2.486  11.291
 2790SOL    HW1 8930   0.138   2.494  11.312
 2790SOL    HW2 8931   0.233   2.455  11.201
 2791SOL     OW 8932   0.229   2.134  12.159
 2791SOL    HW1 8933   0.250   2.100  12.246
 2791SOL    HW2 8934   0.134   2.126  12.152
 2792SOL     OW 8935   0.009   2.221  11.802
 2792SOL    HW1 8936   3.920   2.239  11.833
 2792SOL    HW2 8937   3.996   2.190  11.712
 2793SOL     OW 8938   0.580   3.151  12.362
 2793SOL    HW1 8939   0.493   3.154  12.321
 2793SOL    HW2 8940   0.594   3.239  12.395
 2794SOL     OW 8941   1.564   3.373  11.880
 2794SOL    HW1 8942   1.522   3.351  11.964
 2794SOL    HW2 8943   1.492   3.376  11.817
 2795SOL     OW 8944   1.132   2.560  11.870
 2795SOL    HW1 8945   1.180   2.641  11.857
 2795SOL    HW2 8946   1.085   2.573  11.953
 2796SOL     OW 8947   1.776   2.465  11.399
 2796SOL    HW1 8948   1.750   2.461  11.307
 2796SOL    HW2 8949   1.738   2.386  11.438
 2797SOL     OW 8950   0.753   3.001  12.214
 2797SOL    HW1 8951   0.689   3.037  12.276
 2797SOL    HW2 8952   0.789   3.078  12.170
 2798SOL     OW 8953   0.870   2.631  12.994
 2798SOL    HW1 8954   0.861   2.703  13.058
 2798SOL    HW2 8955   0.893   2.675  12.912
 2799SOL     OW 8956   0.685   2.863  11.818
 2799SOL    HW1 8957   0.751   2.853  11.886
 2799SOL    HW2 8958   0.616   2.916  11.859
 2800SOL     OW 8959   0.712   3.011  12.988
 2800SOL    HW1 8960   0.760   3.089  13.016
 2800SOL    HW2 8961   0.631   3.046  12.950
 2801SOL     OW 8962   0.350   3.263  12.250
 2801SOL    HW1 8963   0.269   3.248  12.203
 2801SOL    HW2 8964   0.400   3.322  12.193
 2802SOL     OW 8965   1.460   3.363  12.529
 2802SOL    HW1 8966   1.513   3.441  12.539
 2802SOL    HW2 8967   1.394   3.370  12.598
 2803SOL     OW 8968   0.450   2.261  12.659
 2803SOL    HW1 8969   0.525   2.202  12.663
 2803SOL    HW2 8970   0.374   2.204  12.673
 2804SOL     OW 8971   1.603   2.306  11.911
 2804SOL    HW1 8972   1.520   2.325  11.866
 2804SOL    HW2 8973   1.616   2.382  11.969
 2805SOL     OW 8974   0.223   3.571  11.638
 2805SOL    HW1 8975   0.223   3.655  11.685
 2805SOL    HW2 8976   0.300   3.576  11.581
 2806SOL     OW 8977   1.137   3.204  12.865
 2806SOL    HW1 8978   1.178   3.198  12.952
 2806SOL    HW2 8979   1.085   3.124  12.858
 2807SOL     OW 8980   0.250   3.306  11.712
 2807SOL    HW1 8981   0.222   3.396  11.698
 2807SOL    HW2 8982   0.181   3.267  11.765
 2808SOL     OW 8983   0.247   2.929  12.056
 2808SOL    HW1 8984   0.267   2.844  12.096
 2808SOL    HW2 8985   0.194   2.974  12.121
 2809SOL     OW 8986   0.610   3.648  12.599
 2809SOL    HW1 8987   0.528   3.634  12.646
 2809SOL    HW2 8988   0.637   3.737  12.624
 2810SOL     OW 8989   0.577   2.848  11.310
 2810SOL    HW1 8990   0.626   2.893  11.241
 2810SOL    HW2 8991   0.618   2.877  11.391
 2811SOL     OW 8992   1.589   1.992  12.635
 2811SOL    HW1 8993   1.588   2.078  12.592
 2811SOL    HW2 8994   1.580   2.013  12.728
 2812SOL     OW 8995   0.143   2.515  11.746
 2812SOL    HW1 8996   0.087   2.437  11.744
 2812SOL    HW2 8997   0.106   2.569  11.816
 2813SOL     OW 8998   1.843   3.609  11.510
 2813SOL    HW1 8999   1.911   3.585  11.572
 2813SOL    HW2 9000   1.862   3.700  11.486
 2814SOL     OW 9001   0.041   3.453  11.312
 2814SOL    HW1 9002   0.035   3.361  11.337
 2814SOL    HW2 9003   3.958   3.491  11.340
 2815SOL     OW 9004   1.689   2.780  11.815
 2815SOL    HW1 9005   1.771   2.737  11.792
 2815SOL    HW2 9006   1.666   2.832  11.737
 2816SOL     OW 9007   1.647   2.967  11.601
 2816SOL    HW1 9008   1.733   2.970  11.560
 2816SOL    HW2 9009   1.653   3.029  11.673
 2817SOL     OW 9010   0.139   2.615  12.762
 2817SOL    HW1 9011   0.235   2.610  12.758
 2817SOL    HW2 9012   0.121   2.703  12.793
 2818SOL     OW 9013   0.616   3.248  11.906
 2818SOL    HW1 9014   0.568   3.166  11.916
 2818SOL    HW2 9015   0.598   3.276  11.816
 2819SOL     OW 9016   1.287   3.099  12.594
 2819SOL    HW1 9017   1.319   3.031  12.534
 2819SOL    HW2 9018   1.346   3.094  12.670
 2820SOL     OW 9019   0.820   1.863  11.684
 2820SOL    HW1 9020   0.860   1.947  11.662
 2820SOL    HW2 9021   0.726   1.881  11.689
 2821SOL     OW 9022   0.184   2.812  12.451
 2821SOL    HW1 9023   0.272   2.777  12.439
 2821SOL    HW2 9024   0.132   2.774  12.381
 2822SOL     OW 9025   1.531   2.858  11.371
 2822SOL    HW1 9026   1.461   2.801  11.404
 2822SOL    HW2 9027   1.573   2.892  11.450
 2823SOL     OW 9028   1.217   3.666  12.799
 2823SOL    HW1 9029   1.194   3.727  12.729
 2823SOL    HW2 9030   1.218   3.580  12.757
 2824SOL     OW 9031   0.342   2.109  12.988
 2824SOL    HW1 9032   0.378   2.197  12.996
 2824SOL    HW2 9033   0.250   2.119  13.013
 2825SOL     OW 9034   1.466   3.281  12.122
 2825SOL    HW1 9035   1.399   3.297  12.188
 2825SOL    HW2 9036   1.453   3.190  12.095
 2826SOL     OW 9037   1.654   3.602  11.753
 2826SOL    HW1 9038   1.640   3.571  11.663
 2826SOL    HW2 9039   1.631   3.527  11.808
 2827SOL     OW 9040   0.596   2.578  11.438
 2827SOL    HW1 9041   0.602   2.662  11.393
 2827SOL    HW2 9042   0.533   2.593  11.508
 2828SOL     OW 9043   1.279   2.222  12.107
 2828SOL    HW1 9044   1.190   2.186  12.116
 2828SOL    HW2 9045   1.334   2.166  12.161
 2829SOL     OW 9046   1.577   3.537  11.480
 2829SOL    HW1 9047   1.669   3.561  11.475
 2829SOL    HW2 9048   1.551   3.518  11.390
 2830SOL     OW 9049   0.791   2.480  12.622
 2830SOL    HW1 9050   0.764   2.455  12.711
 2830SOL    HW2 9051   0.753   2.412  12.566
 2831SOL     OW 9052   1.393   2.335  12.849
 2831SOL    HW1 9053   1.396   2.380  12.933
 2831SOL    HW2 9054   1.457   2.263  12.858
 2832SOL     OW 9055   0.952   2.748  12.756
 2832SOL    HW1 9056   1.007   2.679  12.719
 2832SOL    HW2 9057   0.904   2.783  12.681
 2833SOL     OW 9058   0.993   2.274  12.409
 2833SOL    HW1 9059   0.905   2.293  12.442
 2833SOL    HW2 9060   0.977   2.229  12.325
 2834SOL     OW 9061   1.053   2.560  11.597
 2834SOL    HW1 9062   1.069   2.553  11.691
 2834SOL    HW2 9063   0.970   2.514  11.584
 2835SOL     OW 9064   0.082   2.691  11.962
 2835SOL    HW1 9065   0.157   2.660  12.014
 2835SOL    HW2 9066   0.100   2.784  11.947
 2836SOL     OW 9067   0.127   3.718  12.751
 2836SOL    HW1 9068   0.135   3.686  12.841
 2836SOL    HW2 9069   0.035   3.705  12.728
 2837SOL     OW 9070   0.897   2.212  11.365
 2837SOL    HW1 9071   0.936   2.275  11.305
 2837SOL    HW2 9072   0.913   2.127  11.325
 2838SOL     OW 9073   1.702   2.437  13.004
 2838SOL    HW1 9074   1.667   2.508  12.950
 2838SOL    HW2 9075   1.734   2.372  12.941
 2839SOL     OW 9076   1.379   3.004  11.713
 2839SOL    HW1 9077   1.458   2.992  11.660
 2839SOL    HW2 9078   1.326   3.066  11.662
 2840SOL     OW 9079   0.546   2.040  12.066
 2840SOL    HW1 9080   0.553   2.072  12.156
 2840SOL    HW2 9081   0.546   2.119  12.012
 2841SOL     OW 9082   1.003   3.307  11.642
 2841SOL    HW1 9083   0.967   3.381  11.594
 2841SOL    HW2 9084   0.983   3.326  11.734
 2842SOL     OW 9085   0.359   3.671  12.033
 2842SOL    HW1 9086   0.438   3.618  12.046
 2842SOL    HW2 9087   0.389   3.761  12.043
 2843SOL     OW 9088   1.800   2.915  12.041
 2843SOL    HW1 9089   1.746   2.897  11.964
 2843SOL    HW2 9090   1.737   2.922  12.113
 2844SOL     OW 9091   1.228   3.399  12.683
 2844SOL    HW1 9092   1.215   3.327  12.745
 2844SOL    HW2 9093   1.160   3.387  12.617
 2845SOL     OW 9094   0.311   2.816  11.414
 2845SOL    HW1 9095   0.394   2.839  11.373
 2845SOL    HW2 9096   0.298   2.724  11.392
 2846SOL     OW 9097   1.481   2.607  11.896
 2846SOL    HW1 9098   1.474   2.566  11.983
 2846SOL    HW2 9099   1.558   2.662  11.902
 2847SOL     OW 9100   0.468   3.122  12.909
 2847SOL    HW1 9101   0.442   3.130  12.817
 2847SOL    HW2 9102   0.386   3.126  12.957
 2848SOL     OW 9103   1.113   3.643  11.394
 2848SOL    HW1 9104   1.049   3.597  11.448
 2848SOL    HW2 9105   1.144   3.577  11.331
 2849SOL     OW 9106   0.204   2.135  12.680
 2849SOL    HW1 9107   0.114   2.168  12.674
 2849SOL    HW2 9108   0.195   2.048  12.719
 2850SOL     OW 9109   1.627   3.243  11.263
 2850SOL    HW1 9110   1.587   3.328  11.245
 2850SOL    HW2 9111   1.559   3.179  11.242
 2851SOL     OW 9112   0.468   3.601  11.493
 2851SOL    HW1 9113   0.507   3.664  11.554
 2851SOL    HW2 9114   0.541   3.573  11.438
 2852SOL     OW 9115   1.399   1.968  11.604
 2852SOL    HW1 9116   1.382   1.946  11.512
 2852SOL    HW2 9117   1.490   1.944  11.619
 2853SOL     OW 9118   0.253   3.656  12.398
 2853SOL    HW1 9119   0.297   3.590  12.451
 2853SOL    HW2 9120   0.251   3.619  12.310
 2854SOL     OW 9121   0.938   3.563  12.072
 2854SOL    HW1 9122   1.015   3.511  12.094
 2854SOL    HW2 9123   0.894   3.513  12.002
 2855SOL     OW 9124   0.399   2.555  11.643
 2855SOL    HW1 9125   0.424   2.464  11.658
 2855SOL    HW2 9126   0.307   2.559  11.670
 2856SOL     OW 9127   1.536   2.086  12.897
 2856SOL    HW1 9128   1.549   2.107  12.990
 2856SOL    HW2 9129   1.465   2.022  12.898
 2857SOL     OW 9130   0.643   1.980  11.269
 2857SOL    HW1 9131   0.704   1.909  11.289
 2857SOL    HW2 9132   0.592   1.949  11.194
 2858SOL     OW 9133   0.765   2.140  12.926
 2858SOL    HW1 9134   0.844   2.086  12.925
 2858SOL    HW2 9135   0.719   2.113  13.006
 2859SOL     OW 9136   0.876   3.383  12.366
 2859SOL    HW1 9137   0.859   3.346  12.279
 2859SOL    HW2 9138   0.946   3.328  12.402
 2860SOL     OW 9139   1.340   2.451  12.604
 2860SOL    HW1 9140   1.371   2.420  12.689
 2860SOL    HW2 9141   1.376   2.539  12.597
 2861SOL     OW 9142   0.817   3.254  12.114
 2861SOL    HW1 9143   0.902   3.242  12.071
 2861SOL    HW2 9144   0.754   3.256  12.042
 2862SOL     OW 9145   0.929   2.371  12.074
 2862SOL    HW1 9146   0.905   2.363  11.982
 2862SOL    HW2 9147   0.959   2.284  12.099
 2863SOL     OW 9148   0.556   1.924  11.667
 2863SOL    HW1 9149   0.474   1.929  11.716
 2863SOL    HW2 9150   0.560   2.007  11.618
 2864SOL     OW 9151   1.428   3.061  11.212
 2864SOL    HW1 9152   1.458   2.986  11.263
 2864SOL    HW2 9153   1.342   3.082  11.249
 2865SOL     OW 9154   0.308   1.913  11.342
 2865SOL    HW1 9155   0.372   1.951  11.281
 2865SOL    HW2 9156   0.358   1.848  11.391
 2866SOL     OW 9157   0.940   2.109  11.631
 2866SOL    HW1 9158   0.911   2.149  11.549
 2866SOL    HW2 9159   1.034   2.126  11.634
 2867SOL     OW 9160   1.080   2.544  12.630
 2867SOL    HW1 9161   1.014   2.476  12.635
 2867SOL    HW2 9162   1.163   2.496  12.624
 2868SOL     OW 9163   1.222   3.433  11.966
 2868SOL    HW1 9164   1.237   3.500  11.899
 2868SOL    HW2 9165   1.290   3.447  12.031
 2869SOL     OW 9166   0.467   3.013  11.907
 2869SOL    HW1 9167   0.395   2.989  11.966
 2869SOL    HW2 9168   0.432   2.997  11.819
 2870SOL     OW 9169   1.266   3.656  11.780
 2870SOL    HW1 9170   1.313   3.721  11.727
 2870SOL    HW2 9171   1.194   3.706  11.819
 2871SOL     OW 9172   1.023   2.401  11.197
 2871SOL    HW1 9173   0.980   2.484  11.177
 2871SOL    HW2 9174   1.089   2.423  11.262
 2872SOL     OW 9175   0.082   2.434  12.562
 2872SOL    HW1 9176   0.172   2.421  12.532
 2872SOL    HW2 9177   0.089   2.504  12.627
 2873SOL     OW 9178   0.567   2.089  12.338
 2873SOL    HW1 9179   0.608   2.014  12.380
 2873SOL    HW2 9180   0.475   2.086  12.367
 2874SOL     OW 9181   0.867   2.320  11.812
 2874SOL    HW1 9182   0.820   2.374  11.749
 2874SOL    HW2 9183   0.888   2.240  11.764
 2875SOL     OW 9184   1.016   1.916  11.922
 2875SOL    HW1 9185   0.958   1.910  11.846
 2875SOL    HW2 9186   0.993   1.840  11.976
 2876SOL     OW 9187   1.438   3.024  12.029
 2876SOL    HW1 9188   1.368   2.959  12.029
 2876SOL    HW2 9189   1.462   3.033  11.936
 2877SOL     OW 9190   1.465   2.469  12.145
 2877SOL    HW1 9191   1.411   2.390  12.148
 2877SOL    HW2 9192   1.524   2.461  12.220
 2878SOL     OW 9193   1.843   2.676  11.556
 2878SOL    HW1 9194   1.902   2.628  11.614
 2878SOL    HW2 9195   1.818   2.613  11.489
 2879SOL     OW 9196   0.488   3.281  11.331
 2879SOL    HW1 9197   0.412   3.251  11.381
 2879SOL    HW2 9198   0.470   3.252  11.241
 2880SOL     OW 9199   1.673   3.126  11.816
 2880SOL    HW1 9200   1.768   3.127  11.830
 2880SOL    HW2 9201   1.644   3.214  11.838
 2881SOL     OW 9202   1.393   2.435  11.242
 2881SOL    HW1 9203   1.334   2.414  11.314
 2881SOL    HW2 9204   1.479   2.405  11.271
 2882SOL     OW 9205   0.574   2.130  11.490
 2882SOL    HW1 9206   0.605   2.083  11.413
 2882SOL    HW2 9207   0.542   2.214  11.456
 2883SOL     OW 9208   1.751   3.103  12.741
 2883SOL    HW1 9209   1.838   3.064  12.737
 2883SOL    HW2 9210   1.767   3.193  12.769
 2884SOL     OW 9211   1.056   3.214  12.504
 2884SOL    HW1 9212   0.982   3.184  12.555
 2884SOL    HW2 9213   1.132   3.174  12.546
 2885SOL     OW 9214   1.610   3.488  12.828
 2885SOL    HW1 9215   1.602   3.522  12.739
 2885SOL    HW2 9216   1.692   3.440  12.828
 2886SOL     OW 9217   1.132   3.068  12.276
 2886SOL    HW1 9218   1.073   3.105  12.341
 2886SOL    HW2 9219   1.100   3.101  12.192
 2887SOL     OW 9220   1.626   2.959  12.248
 2887SOL    HW1 9221   1.621   3.021  12.321
 2887SOL    HW2 9222   1.548   2.977  12.196
 2888SOL     OW 9223   0.918   1.957  12.566
 2888SOL    HW1 9224   0.941   1.939  12.475
 2888SOL    HW2 9225   0.997   1.997  12.603
 2889SOL     OW 9226   0.984   2.977  12.894
 2889SOL    HW1 9227   0.893   2.993  12.917
 2889SOL    HW2 9228   0.982   2.899  12.840
 2890SOL     OW 9229   0.708   2.922  11.543
 2890SOL    HW1 9230   0.694   2.906  11.636
 2890SOL    HW2 9231   0.784   2.870  11.519
 2891SOL     OW 9232   0.422   2.679  12.424
 2891SOL    HW1 9233   0.490   2.687  12.491
 2891SOL    HW2 9234   0.388   2.590  12.436
 2892SOL     OW 9235   1.264   2.237  12.450
 2892SOL    HW1 9236   1.297   2.315  12.495
 2892SOL    HW2 9237   1.174   2.259  12.428
 2893SOL     OW 9238   0.065   3.442  12.517
 2893SOL    HW1 9239   0.071   3.495  12.439
 2893SOL    HW2 9240   0.156   3.430  12.545
 2894SOL     OW 9241   0.370   2.964  11.655
 2894SOL    HW1 9242   0.365   3.045  11.603
 2894SOL    HW2 9243   0.369   2.894  11.590
 2895SOL     OW 9244   0.549   2.398  12.033
 2895SOL    HW1 9245   0.564   2.455  11.958
 2895SOL    HW2 9246   0.617   2.424  12.096
 2896SOL     OW 9247   1.248   3.211  11.562
 2896SOL    HW1 9248   1.304   3.282  11.593
 2896SOL    HW2 9249   1.161   3.232  11.595
 2897SOL     OW 9250   1.285   3.321  12.320
 2897SOL    HW1 9251   1.340   3.325  12.397
 2897SOL    HW2 9252   1.229   3.245  12.334
 2898SOL     OW 9253   1.576   2.488  11.645
 2898SOL    HW1 9254   1.530   2.535  11.715
 2898SOL    HW2 9255   1.625   2.556  11.599
 2899SOL     OW 9256   0.345   3.390  12.490
 2899SOL    HW1 9257   0.335   3.339  12.409
 2899SOL    HW2 9258   0.439   3.404  12.497
 2900SOL     OW 9259   0.416   2.601  12.773
 2900SOL    HW1 9260   0.479   2.646  12.717
 2900SOL    HW2 9261   0.456   2.515  12.790
 2901SOL     OW 9262   1.604   2.642  12.855
 2901SOL    HW1 9263   1.518   2.684  12.849
 2901SOL    HW2 9264   1.656   2.684  12.787
 2902SOL     OW 9265   0.996   1.990  12.926
 2902SOL    HW1 9266   1.054   2.062  12.902
 2902SOL    HW2 9267   1.044   1.911  12.900
 2903SOL     OW 9268   0.497   1.897  12.918
 2903SOL    HW1 9269   0.453   1.845  12.851
 2903SOL    HW2 9270   0.443   1.975  12.927
 2904SOL     OW 9271   0.585   2.736  12.204
 2904SOL    HW1 9272   0.618   2.826  12.204
 2904SOL    HW2 9273   0.529   2.730  12.281
 2905SOL     OW 9274   1.354   2.721  12.198
 2905SOL    HW1 9275   1.269   2.708  12.155
 2905SOL    HW2 9276   1.397   2.635  12.190
 2906SOL     OW 9277   1.203   2.390  11.437
 2906SOL    HW1 9278   1.210   2.312  11.492
 2906SOL    HW2 9279   1.160   2.455  11.493
 2907SOL     OW 9280   0.310   2.058  12.419
 2907SOL    HW1 9281   0.264   2.095  12.494
 2907SOL    HW2 9282   0.287   1.965  12.420
 2908SOL     OW 9283   0.060   3.167  12.452
 2908SOL    HW1 9284   0.091   3.126  12.533
 2908SOL    HW2 9285   0.052   3.260  12.474
 2909SOL     OW 9286   0.723   2.493  12.228
 2909SOL    HW1 9287   0.799   2.478  12.171
 2909SOL    HW2 9288   0.695   2.582  12.207
 2910SOL     OW 9289   1.736   2.821  13.027
 2910SOL    HW1 9290   1.692   2.756  12.973
 2910SOL    HW2 9291   1.676   2.837  13.100
 2911SOL     OW 9292   0.314   1.924  11.792
 2911SOL    HW1 9293   0.293   2.015  11.813
 2911SOL    HW2 9294   0.320   1.881  11.877
 2912SOL     OW 9295   1.612   2.242  11.543
 2912SOL    HW1 9296   1.614   2.185  11.620
 2912SOL    HW2 9297   1.590   2.328  11.577
 2913SOL     OW 9298   1.029   2.621  12.131
 2913SOL    HW1 9299   1.023   2.638  12.225
 2913SOL    HW2 9300   1.002   2.529  12.122
 2914SOL     OW 9301   0.986   3.430  12.892
 2914SOL    HW1 9302   0.967   3.471  12.808
 2914SOL    HW2 9303   1.027   3.347  12.870
 2915SOL     OW 9304   1.854   3.365  12.776
 2915SOL    HW1 9305   1.873   3.393  12.687
 2915SOL    HW2 9306   1.934   3.382  12.825
 2916SOL     OW 9307   0.353   2.783  12.973
 2916SOL    HW1 9308   0.431   2.804  13.023
 2916SOL    HW2 9309   0.381   2.716  12.911
 2917SOL     OW 9310   1.526   2.135  11.301
 2917SOL    HW1 9311   1.460   2.070  11.327
 2917SOL    HW2 9312   1.559   2.171  11.383
 2918SOL     OW 9313   1.289   2.688  11.202
 2918SOL    HW1 9314   1.332   2.602  11.205
 2918SOL    HW2 9315   1.321   2.727  11.120
 2919SOL     OW 9316   1.067   3.199  12.027
 2919SOL    HW1 9317   1.071   3.127  11.964
 2919SOL    HW2 9318   1.127   3.265  11.992
 2920SOL     OW 9319   0.313   2.664  12.122
 2920SOL    HW1 9320   0.407   2.682  12.116
 2920SOL    HW2 9321   0.308   2.574  12.154
 2921SOL     OW 9322   0.330   2.383  12.186
 2921SOL    HW1 9323   0.295   2.295  12.170
 2921SOL    HW2 9324   0.406   2.390  12.129
 2922SOL     OW 9325   1.134   2.236  12.856
 2922SOL    HW1 9326   1.087   2.291  12.918
 2922SOL    HW2 9327   1.222   2.274  12.852
 2923SOL     OW 9328   1.160   2.063  12.643
 2923SOL    HW1 9329   1.150   2.125  12.715
 2923SOL    HW2 9330   1.202   2.113  12.573
 2924SOL     OW 9331   4.000   3.180  11.354
 2924SOL    HW1 9332   3.905   3.196  11.358
 2924SOL    HW2 9333   0.009   3.086  11.372
 2925SOL     OW 9334   0.076   3.663  12.067
 2925SOL    HW1 9335   0.090   3.568  12.065
 2925SOL    HW2 9336   0.164   3.701  12.065
 2926SOL     OW 9337   0.507   3.426  12.089
 2926SOL    HW1 9338   0.573   3.492  12.109
 2926SOL    HW2 9339   0.549   3.367  12.026
 2927SOL     OW 9340   0.979   2.652  12.397
 2927SOL    HW1 9341   1.037   2.631  12.470
 2927SOL    HW2 9342   0.894   2.614  12.422
 2928SOL     OW 9343   0.038   2.420  12.281
 2928SOL    HW1 9344   0.120   2.397  12.239
 2928SOL    HW2 9345   0.057   2.416  12.375
 2929SOL     OW 9346   0.207   2.375  12.900
 2929SOL    HW1 9347   0.246   2.327  12.827
 2929SOL    HW2 9348   0.160   2.447  12.859
 2930SOL     OW 9349   1.378   2.799  12.829
 2930SOL    HW1 9350   1.400   2.892  12.826
 2930SOL    HW2 9351   1.375   2.772  12.737
 2931SOL     OW 9352   0.818   2.431  11.534
 2931SOL    HW1 9353   0.823   2.356  11.475
 2931SOL    HW2 9354   0.744   2.482  11.502
 2932SOL     OW 9355   1.643   2.464  12.353
 2932SOL    HW1 9356   1.632   2.408  12.431
 2932SOL    HW2 9357   1.730   2.440  12.319
 2933SOL     OW 9358   0.299   3.408  12.898
 2933SOL    HW1 9359   0.250   3.477  12.943
 2933SOL    HW2 9360   0.268   3.327  12.938
 2934SOL     OW 9361   0.707   2.311  12.429
 2934SOL    HW1 9362   0.654   2.237  12.400
 2934SOL    HW2 9363   0.701   2.375  12.358
 2935SOL     OW 9364   0.927   3.534  12.641
 2935SOL    HW1 9365   0.901   3.496  12.557
 2935SOL    HW2 9366   0.919   3.628  12.628
 2936SOL     OW 9367   0.455   2.351  11.367
 2936SOL    HW1 9368   0.520   2.419  11.385
 2936SOL    HW2 9369   0.375   2.400  11.345
 2937SOL     OW 9370   0.156   2.997  12.647
 2937SOL    HW1 9371   0.156   2.946  12.728
 2937SOL    HW2 9372   0.171   2.932  12.578
 2938SOL     OW 9373   1.324   2.907  12.393
 2938SOL    HW1 9374   1.346   2.844  12.325
 2938SOL    HW2 9375   1.255   2.961  12.354
 2939SOL     OW 9376   1.313   2.719  11.477
 2939SOL    HW1 9377   1.239   2.688  11.528
 2939SOL    HW2 9378   1.288   2.705  11.386
 2940SOL     OW 9379   1.772   3.602  12.323
 2940SOL    HW1 9380   1.834   3.630  12.255
 2940SOL    HW2 9381   1.750   3.512  12.299
 2941SOL     OW 9382   1.244   3.595  12.280
 2941SOL    HW1 9383   1.327   3.616  12.238
 2941SOL    HW2 9384   1.250   3.501  12.301
 2942SOL     OW 9385   0.076   3.076  12.200
 2942SOL    HW1 9386   0.083   3.104  12.291
 2942SOL    HW2 9387   3.984   3.087  12.178
 2943SOL     OW 9388   0.679   3.527  12.905
 2943SOL    HW1 9389   0.621   3.603  12.908
 2943SOL    HW2 9390   0.740   3.546  12.833
 2944SOL     OW 9391   1.391   3.431  11.659
 2944SOL    HW1 9392   1.450   3.464  11.592
 2944SOL    HW2 9393   1.342   3.508  11.689
 2945SOL     OW 9394   0.169   3.624  13.005
 2945SOL    HW1 9395   0.114   3.570  13.062
 2945SOL    HW2 9396   0.216   3.683  13.064
 2946SOL     OW 9397   1.278   2.788  11.843
 2946SOL    HW1 9398   1.352   2.728  11.851
 2946SOL    HW2 9399   1.312   2.861  11.790
 2947SOL     OW 9400   0.810   3.136  12.600
 2947SOL    HW1 9401   0.782   3.176  12.682
 2947SOL    HW2 9402   0.739   3.155  12.538
 2948SOL     OW 9403   0.675   3.479  11.330
 2948SOL    HW1 9404   0.683   3.496  11.236
 2948SOL    HW2 9405   0.616   3.403  11.335
 2949SOL     OW 9406   1.622   3.588  12.562
 2949SOL    HW1 9407   1.674   3.593  12.481
 2949SOL    HW2 9408   1.609   3.679  12.587
 2950SOL     OW 9409   0.266   2.175  11.888
 2950SOL    HW1 9410   0.180   2.207  11.862
 2950SOL    HW2 9411   0.261   2.165  11.983
 2951SOL     OW 9412   1.208   3.466  11.208
 2951SOL    HW1 9413   1.197   3.374  11.232
 2951SOL    HW2 9414   1.147   3.479  11.135
 2952SOL     OW 9415   0.823   2.868  12.545
 2952SOL    HW1 9416   0.868   2.862  12.461
 2952SOL    HW2 9417   0.822   2.961  12.566
 2953SOL     OW 9418   0.916   2.772  11.463
 2953SOL    HW1 9419   0.976   2.805  11.396
 2953SOL    HW2 9420   0.965   2.704  11.508
 2954SOL     OW 9421   1.489   3.491  11.214
 2954SOL    HW1 9422   1.395   3.480  11.198
 2954SOL    HW2 9423   1.528   3.496  11.127
 2955SOL     OW 9424   0.374   3.165  12.663
 2955SOL    HW1 9425   0.359   3.245  12.613
 2955SOL    HW2 9426   0.297   3.111  12.646
 2956SOL     OW 9427   1.609   3.145  12.452
 2956SOL    HW1 9428   1.669   3.132  12.526
 2956SOL    HW2 9429   1.549   3.213  12.482
 2957SOL     OW 9430   1.056   2.970  11.880
 2957SOL    HW1 9431   0.984   2.920  11.918
 2957SOL    HW2 9432   1.119   2.905  11.851
 2958SOL     OW 9433   1.023   2.103  12.139
 2958SOL    HW1 9434   1.019   2.056  12.056
 2958SOL    HW2 9435   1.017   2.034  12.205
 2959SOL     OW 9436   0.606   3.352  11.652
 2959SOL    HW1 9437   0.651   3.302  11.585
 2959SOL    HW2 9438   0.533   3.395  11.606
 2960SOL     OW 9439   1.729   2.248  12.544
 2960SOL    HW1 9440   1.800   2.312  12.553
 2960SOL    HW2 9441   1.765   2.181  12.486
 2961SOL     OW 9442   0.253   3.203  11.464
 2961SOL    HW1 9443   0.160   3.211  11.445
 2961SOL    HW2 9444   0.264   3.241  11.551
 2962SOL     OW 9445   0.107   2.859  12.889
 2962SOL    HW1 9446   0.047   2.854  12.963
 2962SOL    HW2 9447   0.193   2.841  12.927
 2963SOL     OW 9448   0.676   2.058  12.672
 2963SOL    HW1 9449   0.760   2.037  12.631
 2963SOL    HW2 9450   0.699   2.090  12.759
 2964SOL     OW 9451   0.081   2.176  11.210
 2964SOL    HW1 9452   3.985   2.176  11.217
 2964SOL    HW2 9453   0.101   2.257  11.162
 2965SOL     OW 9454   1.428   2.720  12.571
 2965SOL    HW1 9455   1.379   2.781  12.516
 2965SOL    HW2 9456   1.517   2.723  12.537
 2966SOL     OW 9457   0.018   2.098  11.548
 2966SOL    HW1 9458   0.044   2.161  11.482
 2966SOL    HW2 9459   0.100   2.058  11.578
 2967SOL     OW 9460   1.178   3.199  11.289
 2967SOL    HW1 9461   1.086   3.170  11.290
 2967SOL    HW2 9462   1.204   3.199  11.381
 2968SOL     OW 9463   0.619   2.692  12.608
 2968SOL    HW1 9464   0.676   2.768  12.593
 2968SOL    HW2 9465   0.680   2.619  12.616
 2969SOL     OW 9466   1.486   3.641  12.153
 2969SOL    HW1 9467   1.509   3.700  12.081
 2969SOL    HW2 9468   1.570   3.619  12.193
 2970SOL     OW 9469   0.716   2.424  12.876
 2970SOL    HW1 9470   0.761   2.486  12.934
 2970SOL    HW2 9471   0.741   2.338  12.908
 2971SOL     OW 9472   1.473   3.060  12.803
 2971SOL    HW1 9473   1.461   3.073  12.897
 2971SOL    HW2 9474   1.566   3.077  12.788
 2972SOL     OW 9475   0.378   3.607  12.731
 2972SOL    HW1 9476   0.290   3.643  12.718
 2972SOL    HW2 9477   0.364   3.525  12.777
 2973SOL     OW 9478   1.668   2.743  12.426
 2973SOL    HW1 9479   1.662   2.657  12.383
 2973SOL    HW2 9480   1.657   2.806  12.355
 2974SOL     OW 9481   1.216   2.182  11.630
 2974SOL    HW1 9482   1.278   2.110  11.622
 2974SOL    HW2 9483   1.245   2.231  11.707
 2975SOL     OW 9484   0.589   2.599  11.844
 2975SOL    HW1 9485   0.628   2.685  11.829
 2975SOL    HW2 9486   0.523   2.590  11.776
 2976SOL     OW 9487   1.756   2.242  12.820
 2976SOL    HW1 9488   1.741   2.243  12.726
 2976SOL    HW2 9489   1.697   2.175  12.854
 2977SOL     OW 9490   1.745   2.797  12.683
 2977SOL    HW1 9491   1.739   2.892  12.696
 2977SOL    HW2 9492   1.729   2.784  12.590
 2978SOL     OW 9493   0.865   3.229  11.211
 2978SOL    HW1 9494   0.823   3.257  11.292
 2978SOL    HW2 9495   0.879   3.309  11.162
 2979SOL     OW 9496   0.659   3.651  12.107
 2979SOL    HW1 9497   0.637   3.742  12.088
 2979SOL    HW2 9498   0.754   3.647  12.105
 2980SOL     OW 9499   0.869   2.830  12.026
 2980SOL    HW1 9500   0.919   2.758  12.064
 2980SOL    HW2 9501   0.832   2.877  12.101
 2981SOL     OW 9502   1.077   2.850  11.261
 2981SOL    HW1 9503   1.056   2.901  11.183
 2981SOL    HW2 9504   1.152   2.796  11.234
 2982SOL     OW 9505   1.851   3.413  12.013
 2982SOL    HW1 9506   1.770   3.402  11.963
 2982SOL    HW2 9507   1.842   3.350  12.086
 2983SOL     OW 9508   0.227   3.166  13.028
 2983SOL    HW1 9509   0.152   3.112  13.002
 2983SOL    HW2 9510   0.215   3.179  13.122
 2984SOL     OW 9511   0.115   3.140  11.894
 2984SOL    HW1 9512   0.134   3.090  11.973
 2984SOL    HW2 9513   0.105   3.074  11.825
 2985SOL     OW 9514   0.682   3.266  12.802
 2985SOL    HW1 9515   0.602   3.224  12.832
 2985SOL    HW2 9516   0.679   3.354  12.839
 2986SOL     OW 9517   0.441   2.296  11.706
 2986SOL    HW1 9518   0.441   2.226  11.640
 2986SOL    HW2 9519   0.385   2.262  11.776
 2987SOL     OW 9520   1.700   3.348  12.264
 2987SOL    HW1 9521   1.619   3.327  12.218
 2987SOL    HW2 9522   1.709   3.280  12.330
 2988SOL     OW 9523   0.335   2.419  12.464
 2988SOL    HW1 9524   0.389   2.362  12.518
 2988SOL    HW2 9525   0.349   2.388  12.375
 2989SOL     OW 9526   0.828   3.441  11.848
 2989SOL    HW1 9527   0.812   3.495  11.771
 2989SOL    HW2 9528   0.754   3.381  11.852
 2990SOL     OW 9529   1.437   2.092  12.292
 2990SOL    HW1 9530   1.446   2.004  12.328
 2990SOL    HW2 9531   1.382   2.138  12.355
 2991SOL     OW 9532   1.010   1.879  12.311
 2991SOL    HW1 9533   0.956   1.812  12.269
 2991SOL    HW2 9534   1.098   1.841  12.313
 2992SOL     OW 9535   0.772   3.194  11.491
 2992SOL    HW1 9536   0.743   3.103  11.497
 2992SOL    HW2 9537   0.855   3.196  11.539
 2993SOL     OW 9538   0.621   3.416  12.458
 2993SOL    HW1 9539   0.621   3.497  12.507
 2993SOL    HW2 9540   0.708   3.410  12.420
 2994SOL     OW 9541   1.351   1.914  11.339
 2994SOL    HW1 9542   1.382   1.851  11.275
 2994SOL    HW2 9543   1.263   1.884  11.362
 2995SOL     OW 9544   1.299   2.324  11.853
 2995SOL    HW1 9545   1.245   2.403  11.857
 2995SOL    HW2 9546   1.292   2.285  11.940
 2996SOL     OW 9547   1.568   2.052  12.044
 2996SOL    HW1 9548   1.533   2.080  12.129
 2996SOL    HW2 9549   1.587   2.134  11.999
 2997SOL     OW 9550   0.047   2.911  11.411
 2997SOL    HW1 9551   0.141   2.896  11.403
 2997SOL    HW2 9552   0.011   2.828  11.442
 2998SOL     OW 9553   0.886   3.521  11.515
 2998SOL    HW1 9554   0.815   3.501  11.454
 2998SOL    HW2 9555   0.855   3.596  11.565
 2999SOL     OW 9556   0.230   2.487  13.153
 2999SOL    HW1 9557   0.136   2.494  13.174
 2999SOL    HW2 9558   0.232   2.455  13.063
 3000SOL     OW 9559   0.285   2.131   0.131
 3000SOL    HW1 9560   0.328   2.199   0.182
 3000SOL    HW2 9561   0.201   2.170   0.105
 3001SOL     OW 9562   0.004   2.222  13.660
 3001SOL    HW1 9563   3.911   2.241  13.662
 3001SOL    HW2 9564   0.021   2.191  13.571
 3002SOL     OW 9565   1.523   3.359  13.728
 3002SOL    HW1 9566   1.469   3.289  13.766
 3002SOL    HW2 9567   1.479   3.381  13.646
 3003SOL     OW 9568   1.129   2.561  13.729
 3003SOL    HW1 9569   1.182   2.638  13.709
 3003SOL    HW2 9570   1.082   2.584  13.809
 3004SOL     OW 9571   1.784   2.463  13.257
 3004SOL    HW1 9572   1.754   2.459  13.167
 3004SOL    HW2 9573   1.739   2.390  13.301
 3005SOL     OW 9574   0.686   2.871  13.671
 3005SOL    HW1 9575   0.740   2.852  13.748
 3005SOL    HW2 9576   0.613   2.924  13.705
 3006SOL     OW 9577   1.620   2.309  13.736
 3006SOL    HW1 9578   1.527   2.323  13.717
 3006SOL    HW2 9579   1.633   2.349  13.822
 3007SOL     OW 9580   0.222   3.571  13.500
 3007SOL    HW1 9581   0.241   3.631  13.572
 3007SOL    HW2 9582   0.299   3.576  13.444
 3008SOL     OW 9583   0.248   3.303  13.571
 3008SOL    HW1 9584   0.222   3.394  13.560
 3008SOL    HW2 9585   0.184   3.266  13.632
 3009SOL     OW 9586   0.256   2.936   0.018
 3009SOL    HW1 9587   0.275   2.897   0.103
 3009SOL    HW2 9588   0.216   3.021   0.039
 3010SOL     OW 9589   0.576   2.848  13.171
 3010SOL    HW1 9590   0.625   2.892  13.101
 3010SOL    HW2 9591   0.618   2.878  13.252
 3011SOL     OW 9592   0.142   2.510  13.615
 3011SOL    HW1 9593   0.068   2.454  13.593
 3011SOL    HW2 9594   0.106   2.576  13.674
 3012SOL     OW 9595   1.845   3.610  13.372
 3012SOL    HW1 9596   1.912   3.587  13.436
 3012SOL    HW2 9597   1.863   3.701  13.349
 3013SOL     OW 9598   0.041   3.454  13.174
 3013SOL    HW1 9599   0.034   3.362  13.199
 3013SOL    HW2 9600   3.962   3.494  13.210
 3014SOL     OW 9601   1.687   2.779  13.670
 3014SOL    HW1 9602   1.772   2.741  13.647
 3014SOL    HW2 9603   1.664   2.833  13.594
 3015SOL     OW 9604   1.648   2.966  13.460
 3015SOL    HW1 9605   1.734   2.968  13.417
 3015SOL    HW2 9606   1.655   3.030  13.530
 3016SOL     OW 9607   0.615   3.247  13.760
 3016SOL    HW1 9608   0.564   3.168  13.778
 3016SOL    HW2 9609   0.584   3.277  13.674
 3017SOL     OW 9610   0.819   1.861  13.544
 3017SOL    HW1 9611   0.858   1.946  13.523
 3017SOL    HW2 9612   0.725   1.879  13.552
 3018SOL     OW 9613   1.530   2.857  13.233
 3018SOL    HW1 9614   1.461   2.800  13.266
 3018SOL    HW2 9615   1.572   2.892  13.312
 3019SOL     OW 9616   1.653   3.599  13.612
 3019SOL    HW1 9617   1.635   3.569  13.523
 3019SOL    HW2 9618   1.644   3.520  13.666
 3020SOL     OW 9619   0.594   2.579  13.298
 3020SOL    HW1 9620   0.600   2.663  13.253
 3020SOL    HW2 9621   0.532   2.594  13.368
 3021SOL     OW 9622   1.250   2.191   0.041
 3021SOL    HW1 9623   1.186   2.134   0.083
 3021SOL    HW2 9624   1.333   2.169   0.083
 3022SOL     OW 9625   1.578   3.541  13.340
 3022SOL    HW1 9626   1.671   3.562  13.335
 3022SOL    HW2 9627   1.553   3.520  13.250
 3023SOL     OW 9628   1.050   2.559  13.458
 3023SOL    HW1 9629   1.065   2.548  13.552
 3023SOL    HW2 9630   0.968   2.512  13.442
 3024SOL     OW 9631   0.082   2.704  13.806
 3024SOL    HW1 9632   0.163   2.687  13.854
 3024SOL    HW2 9633   0.075   2.799  13.802
 3025SOL     OW 9634   0.895   2.211  13.225
 3025SOL    HW1 9635   0.935   2.274  13.166
 3025SOL    HW2 9636   0.915   2.126  13.188
 3026SOL     OW 9637   1.365   2.998  13.553
 3026SOL    HW1 9638   1.454   2.996  13.518
 3026SOL    HW2 9639   1.321   3.068  13.504
 3027SOL     OW 9640   1.000   3.303  13.502
 3027SOL    HW1 9641   0.967   3.379  13.455
 3027SOL    HW2 9642   0.969   3.316  13.592
 3028SOL     OW 9643   0.414   3.678  13.807
 3028SOL    HW1 9644   0.423   3.586  13.832
 3028SOL    HW2 9645   0.459   3.727  13.876
 3029SOL     OW 9646   1.791   2.913  13.898
 3029SOL    HW1 9647   1.736   2.899  13.821
 3029SOL    HW2 9648   1.730   2.907   0.072
 3030SOL     OW 9649   0.311   2.816  13.277
 3030SOL    HW1 9650   0.394   2.840  13.235
 3030SOL    HW2 9651   0.298   2.724  13.254
 3031SOL     OW 9652   1.489   2.595  13.744
 3031SOL    HW1 9653   1.484   2.548  13.827
 3031SOL    HW2 9654   1.564   2.653  13.753
 3032SOL     OW 9655   1.112   3.644  13.254
 3032SOL    HW1 9656   1.050   3.598  13.310
 3032SOL    HW2 9657   1.144   3.577  13.193
 3033SOL     OW 9658   1.628   3.243  13.124
 3033SOL    HW1 9659   1.587   3.328  13.106
 3033SOL    HW2 9660   1.559   3.179  13.104
 3034SOL     OW 9661   0.466   3.600  13.353
 3034SOL    HW1 9662   0.505   3.661  13.416
 3034SOL    HW2 9663   0.540   3.572  13.299
 3035SOL     OW 9664   1.402   1.973  13.463
 3035SOL    HW1 9665   1.384   1.950  13.372
 3035SOL    HW2 9666   1.492   1.944  13.477
 3036SOL     OW 9667   0.929   3.547   0.011
 3036SOL    HW1 9668   0.947   3.478   0.075
 3036SOL    HW2 9669   0.886   3.502  13.838
 3037SOL     OW 9670   0.396   2.557  13.504
 3037SOL    HW1 9671   0.424   2.467  13.516
 3037SOL    HW2 9672   0.305   2.559  13.534
 3038SOL     OW 9673   0.642   1.980  13.131
 3038SOL    HW1 9674   0.704   1.910  13.151
 3038SOL    HW2 9675   0.593   1.948  13.056
 3039SOL     OW 9676   0.554   1.924  13.530
 3039SOL    HW1 9677   0.470   1.928  13.576
 3039SOL    HW2 9678   0.558   2.007  13.481
 3040SOL     OW 9679   1.428   3.061  13.075
 3040SOL    HW1 9680   1.458   2.985  13.125
 3040SOL    HW2 9681   1.343   3.082  13.112
 3041SOL     OW 9682   0.308   1.912  13.202
 3041SOL    HW1 9683   0.373   1.950  13.143
 3041SOL    HW2 9684   0.358   1.848  13.253
 3042SOL     OW 9685   0.940   2.106  13.493
 3042SOL    HW1 9686   0.910   2.149  13.413
 3042SOL    HW2 9687   1.034   2.125  13.496
 3043SOL     OW 9688   0.470   3.006  13.766
 3043SOL    HW1 9689   0.398   2.983  13.825
 3043SOL    HW2 9690   0.433   2.995  13.679
 3044SOL     OW 9691   1.268   3.659  13.630
 3044SOL    HW1 9692   1.313   3.726  13.579
 3044SOL    HW2 9693   1.199   3.707  13.677
 3045SOL     OW 9694   1.023   2.401  13.058
 3045SOL    HW1 9695   0.981   2.484  13.039
 3045SOL    HW2 9696   1.089   2.422  13.125
 3046SOL     OW 9697   0.894   2.332  13.672
 3046SOL    HW1 9698   0.827   2.379  13.623
 3046SOL    HW2 9699   0.900   2.247  13.629
 3047SOL     OW 9700   1.027   1.896  13.775
 3047SOL    HW1 9701   0.967   1.909  13.701
 3047SOL    HW2 9702   0.994   1.818  13.819
 3048SOL     OW 9703   1.843   2.677  13.413
 3048SOL    HW1 9704   1.900   2.629  13.473
 3048SOL    HW2 9705   1.819   2.614  13.346
 3049SOL     OW 9706   0.488   3.281  13.193
 3049SOL    HW1 9707   0.412   3.251  13.243
 3049SOL    HW2 9708   0.471   3.252  13.104
 3050SOL     OW 9709   1.684   3.134  13.662
 3050SOL    HW1 9710   1.776   3.133  13.687
 3050SOL    HW2 9711   1.649   3.214  13.701
 3051SOL     OW 9712   1.393   2.435  13.103
 3051SOL    HW1 9713   1.334   2.414  13.176
 3051SOL    HW2 9714   1.479   2.408  13.134
 3052SOL     OW 9715   0.572   2.130  13.351
 3052SOL    HW1 9716   0.604   2.082  13.275
 3052SOL    HW2 9717   0.543   2.214  13.316
 3053SOL     OW 9718   0.708   2.924  13.400
 3053SOL    HW1 9719   0.694   2.909  13.493
 3053SOL    HW2 9720   0.784   2.871  13.378
 3054SOL     OW 9721   0.371   2.965  13.515
 3054SOL    HW1 9722   0.367   3.046  13.465
 3054SOL    HW2 9723   0.370   2.896  13.449
 3055SOL     OW 9724   0.569   2.405  13.870
 3055SOL    HW1 9725   0.578   2.469  13.799
 3055SOL    HW2 9726   0.632   2.434   0.036
 3056SOL     OW 9727   1.245   3.214  13.418
 3056SOL    HW1 9728   1.300   3.287  13.446
 3056SOL    HW2 9729   1.159   3.234  13.454
 3057SOL     OW 9730   1.575   2.494  13.490
 3057SOL    HW1 9731   1.537   2.527  13.571
 3057SOL    HW2 9732   1.624   2.569  13.455
 3058SOL     OW 9733   1.202   2.390  13.298
 3058SOL    HW1 9734   1.210   2.312  13.353
 3058SOL    HW2 9735   1.159   2.455  13.354
 3059SOL     OW 9736   0.303   1.921  13.641
 3059SOL    HW1 9737   0.291   2.012  13.668
 3059SOL    HW2 9738   0.321   1.874  13.722
 3060SOL     OW 9739   1.613   2.241  13.409
 3060SOL    HW1 9740   1.603   2.189  13.489
 3060SOL    HW2 9741   1.592   2.330  13.436
 3061SOL     OW 9742   1.528   2.134  13.164
 3061SOL    HW1 9743   1.461   2.071  13.191
 3061SOL    HW2 9744   1.561   2.170  13.246
 3062SOL     OW 9745   1.288   2.687  13.062
 3062SOL    HW1 9746   1.331   2.602  13.067
 3062SOL    HW2 9747   1.321   2.727  12.981
 3063SOL     OW 9748   3.999   3.180  13.215
 3063SOL    HW1 9749   3.905   3.196  13.219
 3063SOL    HW2 9750   0.009   3.087  13.232
 3064SOL     OW 9751   0.818   2.433  13.388
 3064SOL    HW1 9752   0.821   2.356  13.332
 3064SOL    HW2 9753   0.742   2.483  13.357
 3065SOL     OW 9754   0.454   2.351  13.227
 3065SOL    HW1 9755   0.519   2.418  13.246
 3065SOL    HW2 9756   0.374   2.400  13.207
 3066SOL     OW 9757   1.314   2.717  13.337
 3066SOL    HW1 9758   1.239   2.688  13.389
 3066SOL    HW2 9759   1.287   2.703  13.246
 3067SOL     OW 9760   1.383   3.437  13.507
 3067SOL    HW1 9761   1.443   3.474  13.443
 3067SOL    HW2 9762   1.337   3.512  13.545
 3068SOL     OW 9763   1.288   2.776  13.685
 3068SOL    HW1 9764   1.365   2.720  13.672
 3068SOL    HW2 9765   1.312   2.858  13.643
 3069SOL     OW 9766   0.674   3.480  13.191
 3069SOL    HW1 9767   0.683   3.496  13.097
 3069SOL    HW2 9768   0.616   3.404  13.197
 3070SOL     OW 9769   0.282   2.172  13.738
 3070SOL    HW1 9770   0.199   2.216  13.722
 3070SOL    HW2 9771   0.291   2.172  13.833
 3071SOL     OW 9772   1.208   3.466  13.070
 3071SOL    HW1 9773   1.197   3.374  13.093
 3071SOL    HW2 9774   1.147   3.479  12.997
 3072SOL     OW 9775   0.918   2.774  13.328
 3072SOL    HW1 9776   0.977   2.804  13.260
 3072SOL    HW2 9777   0.965   2.702  13.370
 3073SOL     OW 9778   1.489   3.491  13.076
 3073SOL    HW1 9779   1.396   3.480  13.060
 3073SOL    HW2 9780   1.528   3.496  12.989
 3074SOL     OW 9781   1.050   2.953  13.755
 3074SOL    HW1 9782   0.964   2.914  13.741
 3074SOL    HW2 9783   1.106   2.913  13.688
 3075SOL     OW 9784   0.602   3.356  13.505
 3075SOL    HW1 9785   0.647   3.304  13.439
 3075SOL    HW2 9786   0.530   3.398  13.457
 3076SOL     OW 9787   0.252   3.202  13.324
 3076SOL    HW1 9788   0.159   3.211  13.305
 3076SOL    HW2 9789   0.263   3.240  13.411
 3077SOL     OW 9790   0.080   2.175  13.072
 3077SOL    HW1 9791   3.985   2.175  13.079
 3077SOL    HW2 9792   0.101   2.256  13.025
 3078SOL     OW 9793   0.019   2.103  13.411
 3078SOL    HW1 9794   0.047   2.162  13.340
 3078SOL    HW2 9795   0.099   2.056  13.435
 3079SOL     OW 9796   1.177   3.199  13.149
 3079SOL    HW1 9797   1.086   3.170  13.151
 3079SOL    HW2 9798   1.204   3.200  13.241
 3080SOL     OW 9799   1.215   2.181  13.490
 3080SOL    HW1 9800   1.279   2.110  13.482
 3080SOL    HW2 9801   1.245   2.231  13.567
 3081SOL     OW 9802   0.592   2.611  13.692
 3081SOL    HW1 9803   0.627   2.698  13.674
 3081SOL    HW2 9804   0.523   2.599  13.627
 3082SOL     OW 9805   0.864   3.228  13.072
 3082SOL    HW1 9806   0.824   3.255  13.154
 3082SOL    HW2 9807   0.879   3.310  13.024
 3083SOL     OW 9808   0.657   3.713   0.069
 3083SOL    HW1 9809   0.655   3.806   0.091
 3083SOL    HW2 9810   0.748   3.688   0.078
 3084SOL     OW 9811   0.826   2.827  13.897
 3084SOL    HW1 9812   0.858   2.744   0.034
 3084SOL    HW2 9813   0.856   2.893   0.059
 3085SOL     OW 9814   1.076   2.848  13.122
 3085SOL    HW1 9815   1.056   2.901  13.045
 3085SOL    HW2 9816   1.151   2.795  13.096
 3086SOL     OW 9817   0.115   3.136  13.759
 3086SOL    HW1 9818   0.051   3.094  13.817
 3086SOL    HW2 9819   0.122   3.077  13.684
 3087SOL     OW 9820   0.446   2.300  13.556
 3087SOL    HW1 9821   0.452   2.227  13.495
 3087SOL    HW2 9822   0.402   2.264  13.633
 3088SOL     OW 9823   1.680   3.320   0.346
 3088SOL    HW1 9824   1.649   3.299   0.257
 3088SOL    HW2 9825   1.768   3.285   0.350
 3089SOL     OW 9826   0.820   3.415  13.705
 3089SOL    HW1 9827   0.791   3.464  13.629
 3089SOL    HW2 9828   0.746   3.356  13.725
 3090SOL     OW 9829   0.772   3.195  13.348
 3090SOL    HW1 9830   0.743   3.104  13.356
 3090SOL    HW2 9831   0.854   3.198  13.399
 3091SOL     OW 9832   1.351   1.914  13.201
 3091SOL    HW1 9833   1.381   1.851  13.135
 3091SOL    HW2 9834   1.263   1.883  13.224
 3092SOL     OW 9835   1.304   2.323  13.710
 3092SOL    HW1 9836   1.251   2.402  13.716
 3092SOL    HW2 9837   1.287   2.276  13.791
 3093SOL     OW 9838   0.047   2.911  13.269
 3093SOL    HW1 9839   0.141   2.895  13.262
 3093SOL    HW2 9840   0.011   2.829  13.302
 3094SOL     OW 9841   0.887   3.520  13.377
 3094SOL    HW1 9842   0.814   3.502  13.317
 3094SOL    HW2 9843   0.856   3.594  13.430
 3095SOL     OW 9844   0.233   3.945   0.966
 3095SOL    HW1 9845   0.253   3.959   1.058
 3095SOL    HW2 9846   0.140   3.965   0.958
 3096SOL     OW 9847   0.017   0.098   0.634
 3096SOL    HW1 9848   3.928   0.083   0.665
 3096SOL    HW2 9849   0.021   0.054   0.549
 3097SOL     OW 9850   1.808   0.356   0.273
 3097SOL    HW1 9851   1.785   0.313   0.191
 3097SOL    HW2 9852   1.726   0.360   0.322
 3098SOL     OW 9853   0.440   0.097   1.510
 3098SOL    HW1 9854   0.511   0.059   1.459
 3098SOL    HW2 9855   0.363   0.046   1.486
 3099SOL     OW 9856   1.596   3.849   1.461
 3099SOL    HW1 9857   1.602   3.934   1.418
 3099SOL    HW2 9858   1.579   3.870   1.553
 3100SOL     OW 9859   0.806   3.727   0.507
 3100SOL    HW1 9860   0.834   3.818   0.497
 3100SOL    HW2 9861   0.711   3.732   0.517
 3101SOL     OW 9862   1.268   0.062   0.936
 3101SOL    HW1 9863   1.195   0.008   0.905
 3101SOL    HW2 9864   1.324   0.002   0.985
 3102SOL     OW 9865   0.555   3.904   0.891
 3102SOL    HW1 9866   0.551   3.926   0.984
 3102SOL    HW2 9867   0.549   3.988   0.846
 3103SOL     OW 9868   0.191   3.980   1.498
 3103SOL    HW1 9869   0.102   0.014   1.501
 3103SOL    HW2 9870   0.187   3.898   1.547
 3104SOL     OW 9871   1.409   3.838   0.430
 3104SOL    HW1 9872   1.404   3.796   0.345
 3104SOL    HW2 9873   1.501   3.828   0.456
 3105SOL     OW 9874   1.533   3.939   1.722
 3105SOL    HW1 9875   1.559   3.942   1.814
 3105SOL    HW2 9876   1.465   3.872   1.718
 3106SOL     OW 9877   0.772   3.956   1.743
 3106SOL    HW1 9878   0.829   3.928   1.815
 3106SOL    HW2 9879   0.687   3.971   1.784
 3107SOL     OW 9880   0.535   3.783   0.515
 3107SOL    HW1 9881   0.481   3.782   0.594
 3107SOL    HW2 9882   0.546   3.876   0.494
 3108SOL     OW 9883   0.265   3.736   0.183
 3108SOL    HW1 9884   0.299   3.825   0.173
 3108SOL    HW2 9885   0.337   3.688   0.225
 3109SOL     OW 9886   0.563   3.944   1.167
 3109SOL    HW1 9887   0.604   3.873   1.216
 3109SOL    HW2 9888   0.471   3.942   1.195
 3110SOL     OW 9889   1.020   3.767   0.735
 3110SOL    HW1 9890   0.955   3.756   0.666
 3110SOL    HW2 9891   0.997   3.702   0.801
 3111SOL     OW 9892   0.924   3.803   1.398
 3111SOL    HW1 9893   0.952   3.782   1.309
 3111SOL    HW2 9894   0.997   3.851   1.436
 3112SOL     OW 9895   1.267   0.074   1.265
 3112SOL    HW1 9896   1.280   0.143   1.331
 3112SOL    HW2 9897   1.199   0.109   1.207
 3113SOL     OW 9898   0.507   3.751   1.756
 3113SOL    HW1 9899   0.453   3.705   1.691
 3113SOL    HW2 9900   0.476   3.841   1.753
 3114SOL     OW 9901   0.304   3.924   1.255
 3114SOL    HW1 9902   0.257   3.941   1.337
 3114SOL    HW2 9903   0.289   3.831   1.238
 3115SOL     OW 9904   1.597   3.937   0.156
 3115SOL    HW1 9905   1.517   3.884   0.158
 3115SOL    HW2 9906   1.569   0.024   0.187
 3116SOL     OW 9907   1.164   3.922   1.473
 3116SOL    HW1 9908   1.168   3.996   1.533
 3116SOL    HW2 9909   1.205   3.953   1.393
 3117SOL     OW 9910   0.922   3.825   0.150
 3117SOL    HW1 9911   0.951   3.816   0.060
 3117SOL    HW2 9912   0.981   3.769   0.200
 3118SOL     OW 9913   1.708   3.858   0.512
 3118SOL    HW1 9914   1.787   3.848   0.459
 3118SOL    HW2 9915   1.698   3.773   0.556
 3119SOL     OW 9916   1.836   3.880   0.971
 3119SOL    HW1 9917   1.871   3.798   0.938
 3119SOL    HW2 9918   1.755   3.894   0.921
 3120SOL     OW 9919   0.677   3.909   1.490
 3120SOL    HW1 9920   0.760   3.901   1.443
 3120SOL    HW2 9921   0.702   3.931   1.579
 3121SOL     OW 9922   0.044   0.016   0.041
 3121SOL    HW1 9923   3.956   0.019   0.004
 3121SOL    HW2 9924   0.087   0.095   0.008
 3122SOL     OW 9925   0.125   3.932   0.375
 3122SOL    HW1 9926   0.073   3.975   0.307
 3122SOL    HW2 9927   0.166   3.858   0.331
 3123SOL     OW 9928   1.193   0.012   0.464
 3123SOL    HW1 9929   1.255   3.939   0.467
 3123SOL    HW2 9930   1.212   0.064   0.542
 3124SOL     OW 9931   1.786   0.041   1.640
 3124SOL    HW1 9932   1.759   0.075   1.554
 3124SOL    HW2 9933   1.706   0.003   1.677
 3125SOL     OW 9934   1.816   3.913   1.238
 3125SOL    HW1 9935   1.822   3.822   1.268
 3125SOL    HW2 9936   1.822   3.908   1.143
 3126SOL     OW 9937   1.439   3.933   1.117
 3126SOL    HW1 9938   1.471   3.854   1.161
 3126SOL    HW2 9939   1.381   3.974   1.180
 3127SOL     OW 9940   1.016   3.736   1.148
 3127SOL    HW1 9941   0.958   3.681   1.095
 3127SOL    HW2 9942   1.101   3.693   1.143
 3128SOL     OW 9943   1.352   3.783   0.151
 3128SOL    HW1 9944   1.391   3.711   0.100
 3128SOL    HW2 9945   1.269   3.748   0.182
 3129SOL     OW 9946   1.284   0.163   0.679
 3129SOL    HW1 9947   1.280   0.258   0.688
 3129SOL    HW2 9948   1.288   0.131   0.769
 3130SOL     OW 9949   1.580   3.927   0.880
 3130SOL    HW1 9950   1.530   3.932   0.961
 3130SOL    HW2 9951   1.581   0.017   0.846
 3131SOL     OW 9952   0.234   3.947   2.825
 3131SOL    HW1 9953   0.255   3.959   2.918
 3131SOL    HW2 9954   0.140   3.964   2.819
 3132SOL     OW 9955   0.011   0.105   2.487
 3132SOL    HW1 9956   3.926   0.089   2.529
 3132SOL    HW2 9957   0.012   0.046   2.412
 3133SOL     OW 9958   1.777   0.320   2.052
 3133SOL    HW1 9959   1.704   0.297   1.995
 3133SOL    HW2 9960   1.736   0.337   2.137
 3134SOL     OW 9961   0.440   0.098   3.372
 3134SOL    HW1 9962   0.511   0.058   3.321
 3134SOL    HW2 9963   0.363   0.046   3.349
 3135SOL     OW 9964   1.596   3.849   3.323
 3135SOL    HW1 9965   1.602   3.934   3.281
 3135SOL    HW2 9966   1.579   3.869   3.415
 3136SOL     OW 9967   0.806   3.729   2.367
 3136SOL    HW1 9968   0.832   3.821   2.361
 3136SOL    HW2 9969   0.710   3.732   2.377
 3137SOL     OW 9970   1.267   0.062   2.801
 3137SOL    HW1 9971   1.196   0.008   2.767
 3137SOL    HW2 9972   1.323   0.002   2.849
 3138SOL     OW 9973   0.554   3.905   2.753
 3138SOL    HW1 9974   0.551   3.925   2.846
 3138SOL    HW2 9975   0.550   3.990   2.710
 3139SOL     OW 9976   0.192   3.979   3.360
 3139SOL    HW1 9977   0.103   0.014   3.363
 3139SOL    HW2 9978   0.187   3.897   3.409
 3140SOL     OW 9979   1.407   3.832   2.294
 3140SOL    HW1 9980   1.398   3.799   2.204
 3140SOL    HW2 9981   1.500   3.824   2.313
 3141SOL     OW 9982   1.533   3.939   3.584
 3141SOL    HW1 9983   1.559   3.942   3.676
 3141SOL    HW2 9984   1.465   3.872   3.580
 3142SOL     OW 9985   0.627   3.850   1.987
 3142SOL    HW1 9986   0.718   3.820   1.989
 3142SOL    HW2 9987   0.587   3.801   1.916
 3143SOL     OW 9988   0.772   3.956   3.605
 3143SOL    HW1 9989   0.829   3.928   3.677
 3143SOL    HW2 9990   0.687   3.972   3.646
 3144SOL     OW 9991   0.534   3.785   2.375
 3144SOL    HW1 9992   0.483   3.786   2.456
 3144SOL    HW2 9993   0.543   3.878   2.352
 3145SOL     OW 9994   0.287   3.758   2.039
 3145SOL    HW1 9995   0.330   3.843   2.029
 3145SOL    HW2 9996   0.353   3.703   2.081
 3146SOL     OW 9997   0.563   3.943   3.029
 3146SOL    HW1 9998   0.604   3.873   3.078
 3146SOL    HW2 9999   0.471   3.942   3.057
 3147SOL     OW10000   1.020   3.767   2.597
 3147SOL    HW110001   0.955   3.755   2.528
 3147SOL    HW210002   0.997   3.702   2.664
 3148SOL     OW10003   0.924   3.803   3.260
 3148SOL    HW110004   0.952   3.782   3.171
 3148SOL    HW210005   0.997   3.851   3.298
 3149SOL     OW10006   1.267   0.074   3.127
 3149SOL    HW110007   1.280   0.143   3.193
 3149SOL    HW210008   1.200   0.109   3.069
 3150SOL     OW10009   0.507   3.751   3.618
 3150SOL    HW110010   0.453   3.705   3.553
 3150SOL    HW210011   0.476   3.841   3.615
 3151SOL     OW10012   0.304   3.924   3.117
 3151SOL    HW110013   0.258   3.942   3.199
 3151SOL    HW210014   0.289   3.831   3.100
 3152SOL     OW10015   1.576   3.954   1.982
 3152SOL    HW110016   1.517   3.897   2.031
 3152SOL    HW210017   1.607   0.018   2.045
 3153SOL     OW10018   1.164   3.922   3.335
 3153SOL    HW110019   1.168   3.996   3.395
 3153SOL    HW210020   1.205   3.953   3.255
 3154SOL     OW10021   0.900   3.812   1.965
 3154SOL    HW110022   0.960   3.771   1.902
 3154SOL    HW210023   0.941   3.795   2.050
 3155SOL     OW10024   1.711   3.857   2.360
 3155SOL    HW110025   1.788   3.843   2.306
 3155SOL    HW210026   1.700   3.774   2.408
 3156SOL     OW10027   1.836   3.881   2.834
 3156SOL    HW110028   1.871   3.798   2.801
 3156SOL    HW210029   1.756   3.894   2.784
 3157SOL     OW10030   0.677   3.909   3.352
 3157SOL    HW110031   0.760   3.901   3.305
 3157SOL    HW210032   0.702   3.931   3.441
 3158SOL     OW10033   0.071   0.026   1.847
 3158SOL    HW110034   3.977   0.026   1.864
 3158SOL    HW210035   0.100   0.113   1.875
 3159SOL     OW10036   0.107   3.915   2.231
 3159SOL    HW110037   0.081   3.998   2.191
 3159SOL    HW210038   0.186   3.889   2.185
 3160SOL     OW10039   1.193   0.011   2.328
 3160SOL    HW110040   1.262   3.944   2.327
 3160SOL    HW210041   1.214   0.065   2.404
 3161SOL     OW10042   1.786   0.041   3.502
 3161SOL    HW110043   1.759   0.075   3.416
 3161SOL    HW210044   1.706   0.003   3.539
 3162SOL     OW10045   1.816   3.913   3.101
 3162SOL    HW110046   1.822   3.822   3.130
 3162SOL    HW210047   1.822   3.908   3.006
 3163SOL     OW10048   1.439   3.932   2.979
 3163SOL    HW110049   1.472   3.854   3.024
 3163SOL    HW210050   1.381   3.974   3.042
 3164SOL     OW10051   1.016   3.736   3.010
 3164SOL    HW110052   0.958   3.681   2.957
 3164SOL    HW210053   1.101   3.693   3.005
 3165SOL     OW10054   1.353   3.770   2.024
 3165SOL    HW110055   1.386   3.702   1.966
 3165SOL    HW210056   1.266   3.741   2.049
 3166SOL     OW10057   1.281   0.162   2.545
 3166SOL    HW110058   1.282   0.258   2.550
 3166SOL    HW210059   1.286   0.133   2.635
 3167SOL     OW10060   1.580   3.927   2.742
 3167SOL    HW110061   1.530   3.932   2.823
 3167SOL    HW210062   1.581   0.016   2.708
 3168SOL     OW10063   0.234   3.947   4.687
 3168SOL    HW110064   0.255   3.959   4.780
 3168SOL    HW210065   0.140   3.964   4.681
 3169SOL     OW10066   0.011   0.105   4.349
 3169SOL    HW110067   3.926   0.089   4.391
 3169SOL    HW210068   0.012   0.046   4.274
 3170SOL     OW10069   1.777   0.320   3.914
 3170SOL    HW110070   1.704   0.297   3.857
 3170SOL    HW210071   1.736   0.337   3.999
 3171SOL     OW10072   0.440   0.097   5.234
 3171SOL    HW110073   0.511   0.058   5.183
 3171SOL    HW210074   0.363   0.046   5.211
 3172SOL     OW10075   1.596   3.849   5.185
 3172SOL    HW110076   1.603   3.934   5.142
 3172SOL    HW210077   1.579   3.870   5.277
 3173SOL     OW10078   0.806   3.729   4.229
 3173SOL    HW110079   0.832   3.821   4.223
 3173SOL    HW210080   0.710   3.732   4.239
 3174SOL     OW10081   1.267   0.062   4.663
 3174SOL    HW110082   1.196   0.008   4.629
 3174SOL    HW210083   1.323   0.002   4.711
 3175SOL     OW10084   0.554   3.905   4.615
 3175SOL    HW110085   0.551   3.925   4.708
 3175SOL    HW210086   0.550   3.990   4.572
 3176SOL     OW10087   0.192   3.979   5.222
 3176SOL    HW110088   0.103   0.015   5.225
 3176SOL    HW210089   0.187   3.897   5.271
 3177SOL     OW10090   1.407   3.832   4.156
 3177SOL    HW110091   1.398   3.799   4.066
 3177SOL    HW210092   1.500   3.824   4.175
 3178SOL     OW10093   1.533   3.939   5.446
 3178SOL    HW110094   1.559   3.942   5.538
 3178SOL    HW210095   1.465   3.872   5.442
 3179SOL     OW10096   0.627   3.850   3.849
 3179SOL    HW110097   0.718   3.821   3.851
 3179SOL    HW210098   0.587   3.801   3.778
 3180SOL     OW10099   0.772   3.956   5.467
 3180SOL    HW110100   0.828   3.928   5.539
 3180SOL    HW210101   0.687   3.972   5.508
 3181SOL     OW10102   0.534   3.785   4.237
 3181SOL    HW110103   0.483   3.786   4.318
 3181SOL    HW210104   0.543   3.878   4.214
 3182SOL     OW10105   0.287   3.758   3.901
 3182SOL    HW110106   0.330   3.844   3.891
 3182SOL    HW210107   0.353   3.703   3.943
 3183SOL     OW10108   0.563   3.943   4.891
 3183SOL    HW110109   0.604   3.873   4.940
 3183SOL    HW210110   0.471   3.942   4.919
 3184SOL     OW10111   1.020   3.767   4.459
 3184SOL    HW110112   0.955   3.755   4.390
 3184SOL    HW210113   0.997   3.702   4.526
 3185SOL     OW10114   0.924   3.803   5.122
 3185SOL    HW110115   0.952   3.782   5.033
 3185SOL    HW210116   0.997   3.851   5.160
 3186SOL     OW10117   1.267   0.074   4.989
 3186SOL    HW110118   1.280   0.143   5.055
 3186SOL    HW210119   1.200   0.109   4.931
 3187SOL     OW10120   0.507   3.751   5.480
 3187SOL    HW110121   0.453   3.705   5.415
 3187SOL    HW210122   0.476   3.841   5.477
 3188SOL     OW10123   0.304   3.924   4.979
 3188SOL    HW110124   0.258   3.942   5.061
 3188SOL    HW210125   0.289   3.831   4.962
 3189SOL     OW10126   1.576   3.954   3.844
 3189SOL    HW110127   1.517   3.897   3.893
 3189SOL    HW210128   1.607   0.019   3.907
 3190SOL     OW10129   1.164   3.922   5.197
 3190SOL    HW110130   1.168   3.996   5.257
 3190SOL    HW210131   1.205   3.953   5.117
 3191SOL     OW10132   0.900   3.812   3.827
 3191SOL    HW110133   0.960   3.771   3.764
 3191SOL    HW210134   0.941   3.795   3.912
 3192SOL     OW10135   1.711   3.857   4.222
 3192SOL    HW110136   1.788   3.843   4.168
 3192SOL    HW210137   1.700   3.774   4.270
 3193SOL     OW10138   1.836   3.880   4.696
 3193SOL    HW110139   1.871   3.798   4.663
 3193SOL    HW210140   1.756   3.894   4.646
 3194SOL     OW10141   0.677   3.909   5.214
 3194SOL    HW110142   0.760   3.901   5.167
 3194SOL    HW210143   0.702   3.931   5.303
 3195SOL     OW10144   0.071   0.026   3.709
 3195SOL    HW110145   3.977   0.026   3.725
 3195SOL    HW210146   0.100   0.113   3.737
 3196SOL     OW10147   0.106   3.915   4.093
 3196SOL    HW110148   0.081   3.998   4.053
 3196SOL    HW210149   0.186   3.889   4.047
 3197SOL     OW10150   1.193   0.011   4.190
 3197SOL    HW110151   1.262   3.944   4.189
 3197SOL    HW210152   1.214   0.065   4.266
 3198SOL     OW10153   1.786   0.041   5.364
 3198SOL    HW110154   1.759   0.075   5.278
 3198SOL    HW210155   1.706   0.003   5.401
 3199SOL     OW10156   1.816   3.913   4.963
 3199SOL    HW110157   1.822   3.822   4.992
 3199SOL    HW210158   1.822   3.908   4.868
 3200SOL     OW10159   1.439   3.932   4.841
 3200SOL    HW110160   1.472   3.854   4.886
 3200SOL    HW210161   1.381   3.974   4.904
 3201SOL     OW10162   1.016   3.736   4.872
 3201SOL    HW110163   0.958   3.681   4.819
 3201SOL    HW210164   1.101   3.693   4.867
 3202SOL     OW10165   1.353   3.770   3.886
 3202SOL    HW110166   1.387   3.701   3.828
 3202SOL    HW210167   1.266   3.741   3.911
 3203SOL     OW10168   1.281   0.162   4.407
 3203SOL    HW110169   1.282   0.258   4.412
 3203SOL    HW210170   1.286   0.133   4.497
 3204SOL     OW10171   1.580   3.927   4.604
 3204SOL    HW110172   1.530   3.932   4.685
 3204SOL    HW210173   1.581   0.016   4.570
 3205SOL     OW10174   0.234   3.947   6.549
 3205SOL    HW110175   0.255   3.959   6.642
 3205SOL    HW210176   0.140   3.964   6.543
 3206SOL     OW10177   0.011   0.105   6.211
 3206SOL    HW110178   3.926   0.089   6.253
 3206SOL    HW210179   0.012   0.046   6.136
 3207SOL     OW10180   1.777   0.320   5.776
 3207SOL    HW110181   1.704   0.296   5.719
 3207SOL    HW210182   1.737   0.337   5.861
 3208SOL     OW10183   0.440   0.097   7.096
 3208SOL    HW110184   0.511   0.058   7.045
 3208SOL    HW210185   0.363   0.046   7.073
 3209SOL     OW10186   1.596   3.849   7.047
 3209SOL    HW110187   1.603   3.934   7.005
 3209SOL    HW210188   1.579   3.869   7.139
 3210SOL     OW10189   0.806   3.729   6.091
 3210SOL    HW110190   0.832   3.821   6.085
 3210SOL    HW210191   0.710   3.732   6.101
 3211SOL     OW10192   1.267   0.062   6.524
 3211SOL    HW110193   1.195   0.008   6.492
 3211SOL    HW210194   1.323   0.001   6.573
 3212SOL     OW10195   0.555   3.905   6.477
 3212SOL    HW110196   0.552   3.925   6.570
 3212SOL    HW210197   0.550   3.990   6.434
 3213SOL     OW10198   0.192   3.979   7.084
 3213SOL    HW110199   0.103   0.014   7.087
 3213SOL    HW210200   0.187   3.897   7.133
 3214SOL     OW10201   1.407   3.832   6.018
 3214SOL    HW110202   1.398   3.799   5.928
 3214SOL    HW210203   1.501   3.825   6.037
 3215SOL     OW10204   1.533   3.938   7.308
 3215SOL    HW110205   1.559   3.941   7.400
 3215SOL    HW210206   1.464   3.872   7.304
 3216SOL     OW10207   0.627   3.850   5.711
 3216SOL    HW110208   0.718   3.820   5.713
 3216SOL    HW210209   0.587   3.801   5.640
 3217SOL     OW10210   0.772   3.956   7.329
 3217SOL    HW110211   0.828   3.928   7.401
 3217SOL    HW210212   0.687   3.972   7.370
 3218SOL     OW10213   0.535   3.785   6.100
 3218SOL    HW110214   0.482   3.786   6.180
 3218SOL    HW210215   0.543   3.878   6.076
 3219SOL     OW10216   0.287   3.759   5.763
 3219SOL    HW110217   0.330   3.844   5.753
 3219SOL    HW210218   0.353   3.703   5.805
 3220SOL     OW10219   0.563   3.943   6.753
 3220SOL    HW110220   0.604   3.873   6.803
 3220SOL    HW210221   0.471   3.942   6.781
 3221SOL     OW10222   1.021   3.767   6.321
 3221SOL    HW110223   0.955   3.755   6.252
 3221SOL    HW210224   0.997   3.702   6.387
 3222SOL     OW10225   0.924   3.802   6.984
 3222SOL    HW110226   0.952   3.782   6.895
 3222SOL    HW210227   0.997   3.852   7.022
 3223SOL     OW10228   1.267   0.074   6.851
 3223SOL    HW110229   1.280   0.143   6.917
 3223SOL    HW210230   1.200   0.109   6.793
 3224SOL     OW10231   0.507   3.751   7.342
 3224SOL    HW110232   0.453   3.705   7.277
 3224SOL    HW210233   0.476   3.841   7.339
 3225SOL     OW10234   0.304   3.924   6.841
 3225SOL    HW110235   0.257   3.942   6.923
 3225SOL    HW210236   0.289   3.831   6.824
 3226SOL     OW10237   1.577   3.953   5.706
 3226SOL    HW110238   1.516   3.898   5.755
 3226SOL    HW210239   1.606   0.019   5.769
 3227SOL     OW10240   1.164   3.922   7.059
 3227SOL    HW110241   1.167   3.996   7.120
 3227SOL    HW210242   1.205   3.954   6.979
 3228SOL     OW10243   0.900   3.812   5.689
 3228SOL    HW110244   0.960   3.771   5.626
 3228SOL    HW210245   0.941   3.796   5.774
 3229SOL     OW10246   1.710   3.856   6.084
 3229SOL    HW110247   1.788   3.843   6.030
 3229SOL    HW210248   1.700   3.774   6.132
 3230SOL     OW10249   1.836   3.880   6.558
 3230SOL    HW110250   1.871   3.798   6.525
 3230SOL    HW210251   1.755   3.894   6.508
 3231SOL     OW10252   0.677   3.909   7.076
 3231SOL    HW110253   0.760   3.901   7.029
 3231SOL    HW210254   0.702   3.931   7.165
 3232SOL     OW10255   0.071   0.026   5.571
 3232SOL    HW110256   3.977   0.026   5.587
 3232SOL    HW210257   0.100   0.113   5.599
 3233SOL     OW10258   0.106   3.915   5.955
 3233SOL    HW110259   0.081   3.998   5.915
 3233SOL    HW210260   0.186   3.890   5.909
 3234SOL     OW10261   1.194   0.011   6.052
 3234SOL    HW110262   1.262   3.944   6.051
 3234SOL    HW210263   1.214   0.065   6.128
 3235SOL     OW10264   1.786   0.040   7.226
 3235SOL    HW110265   1.759   0.075   7.141
 3235SOL    HW210266   1.706   0.003   7.263
 3236SOL     OW10267   1.816   3.913   6.825
 3236SOL    HW110268   1.822   3.822   6.854
 3236SOL    HW210269   1.822   3.908   6.730
 3237SOL     OW10270   1.439   3.931   6.703
 3237SOL    HW110271   1.473   3.855   6.750
 3237SOL    HW210272   1.380   3.974   6.766
 3238SOL     OW10273   1.016   3.736   6.734
 3238SOL    HW110274   0.958   3.681   6.681
 3238SOL    HW210275   1.101   3.693   6.729
 3239SOL     OW10276   1.353   3.770   5.748
 3239SOL    HW110277   1.386   3.702   5.690
 3239SOL    HW210278   1.266   3.741   5.773
 3240SOL     OW10279   1.281   0.162   6.268
 3240SOL    HW110280   1.282   0.258   6.274
 3240SOL    HW210281   1.287   0.132   6.359
 3241SOL     OW10282   1.580   3.926   6.466
 3241SOL    HW110283   1.530   3.932   6.547
 3241SOL    HW210284   1.581   0.016   6.432
 3242SOL     OW10285   0.234   3.947   8.411
 3242SOL    HW110286   0.255   3.959   8.504
 3242SOL    HW210287   0.140   3.964   8.405
 3243SOL     OW10288   0.011   0.105   8.073
 3243SOL    HW110289   3.926   0.089   8.115
 3243SOL    HW210290   0.012   0.046   7.998
 3244SOL     OW10291   1.777   0.318   7.638
 3244SOL    HW110292   1.704   0.296   7.581
 3244SOL    HW210293   1.736   0.335   7.723
 3245SOL     OW10294   0.440   0.097   8.958
 3245SOL    HW110295   0.511   0.059   8.907
 3245SOL    HW210296   0.363   0.046   8.934
 3246SOL     OW10297   1.596   3.849   8.909
 3246SOL    HW110298   1.602   3.935   8.867
 3246SOL    HW210299   1.579   3.869   9.001
 3247SOL     OW10300   0.806   3.729   7.953
 3247SOL    HW110301   0.832   3.821   7.947
 3247SOL    HW210302   0.710   3.732   7.963
 3248SOL     OW10303   1.267   0.062   8.387
 3248SOL    HW110304   1.196   0.008   8.353
 3248SOL    HW210305   1.323   0.002   8.435
 3249SOL     OW10306   0.554   3.905   8.339
 3249SOL    HW110307   0.552   3.925   8.432
 3249SOL    HW210308   0.550   3.990   8.296
 3250SOL     OW10309   0.192   3.979   8.946
 3250SOL    HW110310   0.103   0.014   8.949
 3250SOL    HW210311   0.187   3.897   8.995
 3251SOL     OW10312   1.407   3.832   7.880
 3251SOL    HW110313   1.398   3.799   7.790
 3251SOL    HW210314   1.501   3.825   7.899
 3252SOL     OW10315   1.533   3.939   9.170
 3252SOL    HW110316   1.559   3.942   9.262
 3252SOL    HW210317   1.465   3.872   9.166
 3253SOL     OW10318   0.627   3.850   7.573
 3253SOL    HW110319   0.717   3.820   7.575
 3253SOL    HW210320   0.586   3.801   7.502
 3254SOL     OW10321   0.772   3.956   9.191
 3254SOL    HW110322   0.829   3.928   9.263
 3254SOL    HW210323   0.687   3.972   9.232
 3255SOL     OW10324   0.535   3.785   7.962
 3255SOL    HW110325   0.482   3.786   8.042
 3255SOL    HW210326   0.544   3.878   7.938
 3256SOL     OW10327   0.287   3.759   7.625
 3256SOL    HW110328   0.330   3.844   7.615
 3256SOL    HW210329   0.353   3.703   7.667
 3257SOL     OW10330   0.563   3.944   8.615
 3257SOL    HW110331   0.604   3.873   8.664
 3257SOL    HW210332   0.471   3.942   8.643
 3258SOL     OW10333   1.020   3.767   8.183
 3258SOL    HW110334   0.955   3.755   8.114
 3258SOL    HW210335   0.997   3.702   8.250
 3259SOL     OW10336   0.924   3.803   8.846
 3259SOL    HW110337   0.952   3.782   8.757
 3259SOL    HW210338   0.997   3.851   8.884
 3260SOL     OW10339   1.267   0.074   8.713
 3260SOL    HW110340   1.280   0.143   8.779
 3260SOL    HW210341   1.200   0.109   8.655
 3261SOL     OW10342   0.507   3.751   9.204
 3261SOL    HW110343   0.453   3.705   9.139
 3261SOL    HW210344   0.476   3.841   9.201
 3262SOL     OW10345   0.304   3.924   8.703
 3262SOL    HW110346   0.257   3.941   8.785
 3262SOL    HW210347   0.289   3.831   8.686
 3263SOL     OW10348   1.577   3.953   7.568
 3263SOL    HW110349   1.516   3.898   7.617
 3263SOL    HW210350   1.605   0.020   7.630
 3264SOL     OW10351   1.164   3.922   8.921
 3264SOL    HW110352   1.168   3.997   8.981
 3264SOL    HW210353   1.205   3.953   8.841
 3265SOL     OW10354   0.900   3.812   7.551
 3265SOL    HW110355   0.960   3.771   7.489
 3265SOL    HW210356   0.941   3.796   7.637
 3266SOL     OW10357   1.710   3.856   7.946
 3266SOL    HW110358   1.788   3.843   7.892
 3266SOL    HW210359   1.700   3.774   7.994
 3267SOL     OW10360   1.836   3.880   8.420
 3267SOL    HW110361   1.871   3.798   8.387
 3267SOL    HW210362   1.756   3.894   8.370
 3268SOL     OW10363   0.677   3.909   8.938
 3268SOL    HW110364   0.760   3.901   8.891
 3268SOL    HW210365   0.702   3.931   9.027
 3269SOL     OW10366   0.071   0.026   7.433
 3269SOL    HW110367   3.977   0.026   7.450
 3269SOL    HW210368   0.100   0.113   7.461
 3270SOL     OW10369   0.107   3.916   7.818
 3270SOL    HW110370   0.081   3.998   7.777
 3270SOL    HW210371   0.186   3.889   7.771
 3271SOL     OW10372   1.193   0.011   7.914
 3271SOL    HW110373   1.262   3.944   7.913
 3271SOL    HW210374   1.214   0.065   7.990
 3272SOL     OW10375   1.786   0.041   9.088
 3272SOL    HW110376   1.759   0.075   9.003
 3272SOL    HW210377   1.706   0.003   9.125
 3273SOL     OW10378   1.816   3.913   8.687
 3273SOL    HW110379   1.822   3.822   8.717
 3273SOL    HW210380   1.822   3.907   8.592
 3274SOL     OW10381   1.439   3.932   8.565
 3274SOL    HW110382   1.472   3.854   8.611
 3274SOL    HW210383   1.381   3.974   8.628
 3275SOL     OW10384   1.016   3.736   8.596
 3275SOL    HW110385   0.958   3.681   8.543
 3275SOL    HW210386   1.101   3.693   8.591
 3276SOL     OW10387   1.353   3.770   7.610
 3276SOL    HW110388   1.386   3.702   7.552
 3276SOL    HW210389   1.266   3.741   7.635
 3277SOL     OW10390   1.281   0.162   8.131
 3277SOL    HW110391   1.282   0.258   8.136
 3277SOL    HW210392   1.286   0.133   8.222
 3278SOL     OW10393   1.580   3.927   8.328
 3278SOL    HW110394   1.530   3.932   8.409
 3278SOL    HW210395   1.581   0.016   8.294
 3279SOL     OW10396   0.234   3.947  10.273
 3279SOL    HW110397   0.255   3.959  10.366
 3279SOL    HW210398   0.140   3.964  10.267
 3280SOL     OW10399   0.011   0.105   9.935
 3280SOL    HW110400   3.926   0.089   9.977
 3280SOL    HW210401   0.012   0.046   9.860
 3281SOL     OW10402   1.777   0.320   9.500
 3281SOL    HW110403   1.704   0.297   9.443
 3281SOL    HW210404   1.736   0.337   9.585
 3282SOL     OW10405   0.440   0.097  10.820
 3282SOL    HW110406   0.511   0.059  10.769
 3282SOL    HW210407   0.363   0.046  10.796
 3283SOL     OW10408   1.596   3.849  10.771
 3283SOL    HW110409   1.603   3.934  10.728
 3283SOL    HW210410   1.579   3.870  10.863
 3284SOL     OW10411   0.806   3.729   9.815
 3284SOL    HW110412   0.832   3.821   9.809
 3284SOL    HW210413   0.710   3.732   9.825
 3285SOL     OW10414   1.267   0.062  10.249
 3285SOL    HW110415   1.196   0.008  10.215
 3285SOL    HW210416   1.323   0.002  10.297
 3286SOL     OW10417   0.554   3.905  10.201
 3286SOL    HW110418   0.552   3.925  10.294
 3286SOL    HW210419   0.550   3.990  10.158
 3287SOL     OW10420   0.192   3.979  10.808
 3287SOL    HW110421   0.103   0.014  10.811
 3287SOL    HW210422   0.187   3.897  10.857
 3288SOL     OW10423   1.407   3.832   9.742
 3288SOL    HW110424   1.398   3.799   9.652
 3288SOL    HW210425   1.500   3.824   9.761
 3289SOL     OW10426   1.533   3.939  11.032
 3289SOL    HW110427   1.559   3.942  11.124
 3289SOL    HW210428   1.465   3.872  11.028
 3290SOL     OW10429   0.627   3.850   9.436
 3290SOL    HW110430   0.718   3.820   9.437
 3290SOL    HW210431   0.587   3.801   9.364
 3291SOL     OW10432   0.772   3.956  11.053
 3291SOL    HW110433   0.829   3.929  11.125
 3291SOL    HW210434   0.687   3.972  11.094
 3292SOL     OW10435   0.534   3.785   9.823
 3292SOL    HW110436   0.482   3.786   9.904
 3292SOL    HW210437   0.544   3.878   9.800
 3293SOL     OW10438   0.287   3.758   9.487
 3293SOL    HW110439   0.330   3.843   9.477
 3293SOL    HW210440   0.353   3.703   9.529
 3294SOL     OW10441   0.563   3.944  10.477
 3294SOL    HW110442   0.604   3.873  10.526
 3294SOL    HW210443   0.471   3.942  10.505
 3295SOL     OW10444   1.020   3.767  10.045
 3295SOL    HW110445   0.955   3.755   9.976
 3295SOL    HW210446   0.997   3.702  10.112
 3296SOL     OW10447   0.924   3.803  10.708
 3296SOL    HW110448   0.952   3.782  10.619
 3296SOL    HW210449   0.997   3.851  10.746
 3297SOL     OW10450   1.267   0.074  10.575
 3297SOL    HW110451   1.280   0.143  10.641
 3297SOL    HW210452   1.200   0.109  10.517
 3298SOL     OW10453   0.507   3.751  11.066
 3298SOL    HW110454   0.453   3.705  11.001
 3298SOL    HW210455   0.476   3.841  11.063
 3299SOL     OW10456   0.304   3.924  10.565
 3299SOL    HW110457   0.257   3.942  10.647
 3299SOL    HW210458   0.289   3.831  10.548
 3300SOL     OW10459   1.576   3.953   9.430
 3300SOL    HW110460   1.517   3.897   9.479
 3300SOL    HW210461   1.606   0.019   9.493
 3301SOL     OW10462   1.164   3.922  10.783
 3301SOL    HW110463   1.168   3.997  10.843
 3301SOL    HW210464   1.205   3.953  10.703
 3302SOL     OW10465   0.900   3.812   9.413
 3302SOL    HW110466   0.960   3.771   9.350
 3302SOL    HW210467   0.941   3.795   9.498
 3303SOL     OW10468   1.710   3.857   9.808
 3303SOL    HW110469   1.788   3.843   9.754
 3303SOL    HW210470   1.700   3.774   9.856
 3304SOL     OW10471   1.836   3.880  10.282
 3304SOL    HW110472   1.871   3.798  10.249
 3304SOL    HW210473   1.756   3.894  10.232
 3305SOL     OW10474   0.677   3.909  10.800
 3305SOL    HW110475   0.760   3.901  10.753
 3305SOL    HW210476   0.702   3.931  10.889
 3306SOL     OW10477   0.071   0.026   9.295
 3306SOL    HW110478   3.977   0.026   9.312
 3306SOL    HW210479   0.100   0.113   9.323
 3307SOL     OW10480   0.107   3.916   9.680
 3307SOL    HW110481   0.081   3.998   9.639
 3307SOL    HW210482   0.186   3.889   9.633
 3308SOL     OW10483   1.193   0.011   9.776
 3308SOL    HW110484   1.262   3.944   9.775
 3308SOL    HW210485   1.214   0.065   9.852
 3309SOL     OW10486   1.786   0.041  10.950
 3309SOL    HW110487   1.759   0.075  10.865
 3309SOL    HW210488   1.706   0.003  10.987
 3310SOL     OW10489   1.816   3.913  10.549
 3310SOL    HW110490   1.822   3.822  10.578
 3310SOL    HW210491   1.822   3.908  10.454
 3311SOL     OW10492   1.439   3.932  10.427
 3311SOL    HW110493   1.472   3.854  10.472
 3311SOL    HW210494   1.381   3.974  10.490
 3312SOL     OW10495   1.016   3.736  10.458
 3312SOL    HW110496   0.958   3.681  10.405
 3312SOL    HW210497   1.101   3.693  10.453
 3313SOL     OW10498   1.353   3.770   9.472
 3313SOL    HW110499   1.386   3.702   9.414
 3313SOL    HW210500   1.266   3.741   9.497
 3314SOL     OW10501   1.281   0.162   9.993
 3314SOL    HW110502   1.282   0.258   9.998
 3314SOL    HW210503   1.286   0.133  10.084
 3315SOL     OW10504   1.580   3.927  10.189
 3315SOL    HW110505   1.530   3.932  10.271
 3315SOL    HW210506   1.581   0.016  10.156
 3316SOL     OW10507   0.234   3.947  12.135
 3316SOL    HW110508   0.255   3.959  12.228
 3316SOL    HW210509   0.140   3.965  12.129
 3317SOL     OW10510   0.011   0.105  11.797
 3317SOL    HW110511   3.926   0.089  11.839
 3317SOL    HW210512   0.012   0.046  11.722
 3318SOL     OW10513   1.777   0.320  11.362
 3318SOL    HW110514   1.704   0.297  11.305
 3318SOL    HW210515   1.736   0.337  11.447
 3319SOL     OW10516   0.440   0.097  12.683
 3319SOL    HW110517   0.511   0.060  12.631
 3319SOL    HW210518   0.363   0.046  12.658
 3320SOL     OW10519   1.596   3.849  12.633
 3320SOL    HW110520   1.602   3.934  12.591
 3320SOL    HW210521   1.579   3.869  12.725
 3321SOL     OW10522   0.806   3.729  11.677
 3321SOL    HW110523   0.832   3.821  11.671
 3321SOL    HW210524   0.710   3.732  11.687
 3322SOL     OW10525   1.267   0.062  12.111
 3322SOL    HW110526   1.196   0.008  12.077
 3322SOL    HW210527   1.323   0.002  12.159
 3323SOL     OW10528   0.554   3.905  12.063
 3323SOL    HW110529   0.551   3.925  12.156
 3323SOL    HW210530   0.550   3.990  12.020
 3324SOL     OW10531   0.191   3.979  12.670
 3324SOL    HW110532   0.102   0.014  12.673
 3324SOL    HW210533   0.186   3.897  12.719
 3325SOL     OW10534   1.407   3.832  11.604
 3325SOL    HW110535   1.398   3.799  11.514
 3325SOL    HW210536   1.500   3.824  11.623
 3326SOL     OW10537   1.533   3.939  12.894
 3326SOL    HW110538   1.558   3.944  12.987
 3326SOL    HW210539   1.465   3.872  12.891
 3327SOL     OW10540   0.627   3.850  11.298
 3327SOL    HW110541   0.718   3.821  11.299
 3327SOL    HW210542   0.587   3.801  11.226
 3328SOL     OW10543   0.771   3.955  12.915
 3328SOL    HW110544   0.829   3.929  12.987
 3328SOL    HW210545   0.686   3.970  12.958
 3329SOL     OW10546   0.534   3.785  11.685
 3329SOL    HW110547   0.482   3.786  11.766
 3329SOL    HW210548   0.544   3.878  11.662
 3330SOL     OW10549   0.287   3.758  11.349
 3330SOL    HW110550   0.330   3.843  11.339
 3330SOL    HW210551   0.353   3.703  11.391
 3331SOL     OW10552   0.563   3.944  12.339
 3331SOL    HW110553   0.604   3.873  12.388
 3331SOL    HW210554   0.471   3.942  12.367
 3332SOL     OW10555   1.020   3.767  11.907
 3332SOL    HW110556   0.955   3.755  11.838
 3332SOL    HW210557   0.997   3.702  11.974
 3333SOL     OW10558   0.924   3.803  12.570
 3333SOL    HW110559   0.952   3.782  12.481
 3333SOL    HW210560   0.997   3.851  12.608
 3334SOL     OW10561   1.267   0.074  12.437
 3334SOL    HW110562   1.280   0.143  12.503
 3334SOL    HW210563   1.200   0.109  12.379
 3335SOL     OW10564   0.506   3.751  12.928
 3335SOL    HW110565   0.453   3.704  12.863
 3335SOL    HW210566   0.476   3.842  12.923
 3336SOL     OW10567   0.304   3.924  12.427
 3336SOL    HW110568   0.257   3.942  12.509
 3336SOL    HW210569   0.289   3.831  12.410
 3337SOL     OW10570   1.576   3.953  11.292
 3337SOL    HW110571   1.517   3.897  11.341
 3337SOL    HW210572   1.607   0.019  11.355
 3338SOL     OW10573   1.163   3.922  12.645
 3338SOL    HW110574   1.168   3.996  12.705
 3338SOL    HW210575   1.205   3.953  12.565
 3339SOL     OW10576   0.900   3.812  11.275
 3339SOL    HW110577   0.960   3.771  11.212
 3339SOL    HW210578   0.941   3.795  11.360
 3340SOL     OW10579   1.710   3.857  11.670
 3340SOL    HW110580   1.788   3.843  11.616
 3340SOL    HW210581   1.700   3.774  11.718
 3341SOL     OW10582   1.836   3.880  12.144
 3341SOL    HW110583   1.871   3.798  12.111
 3341SOL    HW210584   1.756   3.894  12.093
 3342SOL     OW10585   0.677   3.909  12.662
 3342SOL    HW110586   0.760   3.901  12.615
 3342SOL    HW210587   0.702   3.932  12.751
 3343SOL     OW10588   0.071   0.026  11.157
 3343SOL    HW110589   3.977   0.026  11.174
 3343SOL    HW210590   0.100   0.113  11.185
 3344SOL     OW10591   0.107   3.916  11.541
 3344SOL    HW110592   0.081   3.998  11.501
 3344SOL    HW210593   0.186   3.889  11.495
 3345SOL     OW10594   1.193   0.011  11.638
 3345SOL    HW110595   1.262   3.944  11.637
 3345SOL    HW210596   1.214   0.065  11.714
 3346SOL     OW10597   1.786   0.041  12.811
 3346SOL    HW110598   1.758   0.075  12.726
 3346SOL    HW210599   1.706   0.003  12.849
 3347SOL     OW10600   1.816   3.913  12.411
 3347SOL    HW110601   1.822   3.822  12.440
 3347SOL    HW210602   1.822   3.908  12.316
 3348SOL     OW10603   1.439   3.932  12.289
 3348SOL    HW110604   1.472   3.854  12.334
 3348SOL    HW210605   1.381   3.974  12.352
 3349SOL     OW10606   1.015   3.736  12.320
 3349SOL    HW110607   0.958   3.681  12.267
 3349SOL    HW210608   1.101   3.693  12.315
 3350SOL     OW10609   1.353   3.770  11.334
 3350SOL    HW110610   1.386   3.702  11.276
 3350SOL    HW210611   1.266   3.741  11.359
 3351SOL     OW10612   1.281   0.162  11.855
 3351SOL    HW110613   1.282   0.258  11.860
 3351SOL    HW210614   1.286   0.133  11.946
 3352SOL     OW10615   1.580   3.927  12.051
 3352SOL    HW110616   1.530   3.932  12.133
 3352SOL    HW210617   1.581   0.016  12.018
 3353SOL     OW10618   0.010   0.102  13.645
 3353SOL    HW110619   3.916   0.091  13.656
 3353SOL    HW210620   0.032   0.047  13.570
 3354SOL     OW10621   1.777   0.321  13.224
 3354SOL    HW110622   1.701   0.301  13.168
 3354SOL    HW210623   1.741   0.325  13.312
 3355SOL     OW10624   1.613   0.171  13.766
 3355SOL    HW110625   1.525   0.147  13.737
 3355SOL    HW210626   1.604   0.262  13.795
 3356SOL     OW10627   0.808   3.730  13.539
 3356SOL    HW110628   0.832   3.822  13.533
 3356SOL    HW210629   0.713   3.730  13.550
 3357SOL     OW10630   1.405   3.833  13.462
 3357SOL    HW110631   1.399   3.799  13.373
 3357SOL    HW210632   1.498   3.828  13.484
 3358SOL     OW10633   0.625   3.851  13.158
 3358SOL    HW110634   0.716   3.821  13.163
 3358SOL    HW210635   0.587   3.800  13.087
 3359SOL     OW10636   0.535   3.780  13.547
 3359SOL    HW110637   0.484   3.769  13.627
 3359SOL    HW210638   0.539   3.874  13.533
 3360SOL     OW10639   0.287   3.759  13.213
 3360SOL    HW110640   0.339   3.837  13.193
 3360SOL    HW210641   0.349   3.700  13.256
 3361SOL     OW10642   1.011   3.762  13.772
 3361SOL    HW110643   0.955   3.757  13.695
 3361SOL    HW210644   0.991   3.683  13.822
 3362SOL     OW10645   1.574   3.959  13.155
 3362SOL    HW110646   1.524   3.896  13.206
 3362SOL    HW210647   1.625   0.007  13.221
 3363SOL     OW10648   0.900   3.812  13.138
 3363SOL    HW110649   0.959   3.771  13.074
 3363SOL    HW210650   0.940   3.794  13.223
 3364SOL     OW10651   1.730   3.859  13.557
 3364SOL    HW110652   1.796   3.845  13.489
 3364SOL    HW210653   1.711   3.772  13.590
 3365SOL     OW10654   1.847   3.894   0.056
 3365SOL    HW110655   1.870   3.801   0.053
 3365SOL    HW210656   1.756   3.895   0.085
 3366SOL     OW10657   0.072   0.024  13.021
 3366SOL    HW110658   3.978   0.024  13.037
 3366SOL    HW210659   0.102   0.111  13.049
 3367SOL     OW10660   0.114   3.923  13.409
 3367SOL    HW110661   0.088   3.997  13.354
 3367SOL    HW210662   0.187   3.883  13.362
 3368SOL     OW10663   1.187   0.002  13.517
 3368SOL    HW110664   1.260   3.944  13.497
 3368SOL    HW210665   1.221   0.060  13.585
 3369SOL     OW10666   1.354   3.769  13.195
 3369SOL    HW110667   1.386   3.700  13.137
 3369SOL    HW210668   1.266   3.741  13.220
 3370SOL     OW10669   1.310   0.156  13.736
 3370SOL    HW110670   1.279   0.244  13.716
 3370SOL    HW210671   1.292   0.144  13.829
 3371SOL     OW10672   2.097   0.645   0.117
 3371SOL    HW110673   2.011   0.614   0.145
 3371SOL    HW210674   2.114   0.598   0.036
 3372SOL     OW10675   2.078   0.301   0.992
 3372SOL    HW110676   2.116   0.257   1.068
 3372SOL    HW210677   1.994   0.258   0.979
 3373SOL     OW10678   1.872   0.399   0.633
 3373SOL    HW110679   1.784   0.412   0.670
 3373SOL    HW210680   1.862   0.327   0.571
 3374SOL     OW10681   2.430   1.291   1.178
 3374SOL    HW110682   2.343   1.295   1.138
 3374SOL    HW210683   2.447   1.380   1.209
 3375SOL     OW10684   3.426   1.513   0.707
 3375SOL    HW110685   3.382   1.490   0.789
 3375SOL    HW210686   3.356   1.516   0.642
 3376SOL     OW10687   2.994   0.698   0.697
 3376SOL    HW110688   3.042   0.780   0.685
 3376SOL    HW210689   2.947   0.710   0.780
 3377SOL     OW10690   3.616   0.631   0.224
 3377SOL    HW110691   3.624   0.620   0.129
 3377SOL    HW210692   3.629   0.542   0.259
 3378SOL     OW10693   2.614   1.140   1.043
 3378SOL    HW110694   2.546   1.176   1.100
 3378SOL    HW210695   2.651   1.217   0.999
 3379SOL     OW10696   2.733   0.770   1.824
 3379SOL    HW110697   2.718   0.840   1.886
 3379SOL    HW210698   2.755   0.814   1.742
 3380SOL     OW10699   2.547   0.999   0.646
 3380SOL    HW110700   2.613   0.990   0.716
 3380SOL    HW210701   2.479   1.053   0.686
 3381SOL     OW10702   2.574   1.150   1.815
 3381SOL    HW110703   2.622   1.228   1.844
 3381SOL    HW210704   2.493   1.183   1.778
 3382SOL     OW10705   2.194   1.417   1.069
 3382SOL    HW110706   2.117   1.384   1.022
 3382SOL    HW210707   2.241   1.469   1.004
 3383SOL     OW10708   3.321   1.501   1.357
 3383SOL    HW110709   3.375   1.580   1.367
 3383SOL    HW210710   3.257   1.508   1.428
 3384SOL     OW10711   2.307   0.393   1.493
 3384SOL    HW110712   2.397   0.362   1.492
 3384SOL    HW210713   2.254   0.314   1.501
 3385SOL     OW10714   3.472   0.450   0.735
 3385SOL    HW110715   3.405   0.487   0.678
 3385SOL    HW210716   3.497   0.522   0.792
 3386SOL     OW10717   2.109   1.697   0.475
 3386SOL    HW110718   2.143   1.767   0.532
 3386SOL    HW210719   2.173   1.691   0.404
 3387SOL     OW10720   2.999   1.342   1.694
 3387SOL    HW110721   3.040   1.336   1.780
 3387SOL    HW210722   2.947   1.262   1.687
 3388SOL     OW10723   2.077   1.435   0.532
 3388SOL    HW110724   2.079   1.530   0.528
 3388SOL    HW210725   2.022   1.414   0.607
 3389SOL     OW10726   2.123   1.090   0.890
 3389SOL    HW110727   2.119   1.003   0.929
 3389SOL    HW210728   2.066   1.144   0.945
 3390SOL     OW10729   2.470   1.792   1.427
 3390SOL    HW110730   2.390   1.774   1.476
 3390SOL    HW210731   2.496   1.880   1.455
 3391SOL     OW10732   2.428   0.980   0.163
 3391SOL    HW110733   2.459   1.022   0.082
 3391SOL    HW210734   2.480   1.019   0.232
 3392SOL     OW10735   3.444   0.141   1.456
 3392SOL    HW110736   3.470   0.213   1.400
 3392SOL    HW210737   3.408   0.183   1.534
 3393SOL     OW10738   1.979   0.656   0.559
 3393SOL    HW110739   1.951   0.567   0.582
 3393SOL    HW210740   1.971   0.706   0.640
 3394SOL     OW10741   3.708   1.758   0.333
 3394SOL    HW110742   3.770   1.722   0.397
 3394SOL    HW210743   3.729   1.851   0.329
 3395SOL     OW10744   1.899   1.593   0.106
 3395SOL    HW110745   1.898   1.499   0.124
 3395SOL    HW210746   1.868   1.634   0.187
 3396SOL     OW10747   3.549   0.917   0.648
 3396SOL    HW110748   3.632   0.874   0.632
 3396SOL    HW210749   3.531   0.968   0.569
 3397SOL     OW10750   3.506   1.103   0.434
 3397SOL    HW110751   3.591   1.111   0.391
 3397SOL    HW210752   3.509   1.167   0.505
 3398SOL     OW10753   1.985   0.750   1.580
 3398SOL    HW110754   2.076   0.780   1.585
 3398SOL    HW210755   1.932   0.829   1.587
 3399SOL     OW10756   2.477   1.387   0.734
 3399SOL    HW110757   2.431   1.303   0.743
 3399SOL    HW210758   2.460   1.414   0.644
 3400SOL     OW10759   3.149   1.237   1.422
 3400SOL    HW110760   3.181   1.171   1.362
 3400SOL    HW210761   3.208   1.232   1.498
 3401SOL     OW10762   2.684   0.003   0.520
 3401SOL    HW110763   2.729   0.083   0.493
 3401SOL    HW210764   2.591   0.026   0.520
 3402SOL     OW10765   2.051   0.963   1.275
 3402SOL    HW110766   2.137   0.923   1.260
 3402SOL    HW210767   1.991   0.912   1.221
 3403SOL     OW10768   3.392   0.997   0.206
 3403SOL    HW110769   3.323   0.939   0.239
 3403SOL    HW210770   3.432   1.034   0.284
 3404SOL     OW10771   3.046   1.809   1.623
 3404SOL    HW110772   3.056   1.868   1.549
 3404SOL    HW210773   3.064   1.722   1.587
 3405SOL     OW10774   2.219   0.253   1.839
 3405SOL    HW110775   2.263   0.338   1.838
 3405SOL    HW210776   2.126   0.274   1.843
 3406SOL     OW10777   3.328   1.420   0.949
 3406SOL    HW110778   3.261   1.435   1.016
 3406SOL    HW210779   3.317   1.329   0.924
 3407SOL     OW10780   3.521   1.745   0.584
 3407SOL    HW110781   3.499   1.720   0.494
 3407SOL    HW210782   3.500   1.667   0.636
 3408SOL     OW10783   2.458   0.717   0.266
 3408SOL    HW110784   2.460   0.800   0.218
 3408SOL    HW210785   2.397   0.733   0.339
 3409SOL     OW10786   3.137   0.368   0.940
 3409SOL    HW110787   3.050   0.330   0.948
 3409SOL    HW210788   3.194   0.307   0.985
 3410SOL     OW10789   3.427   1.729   0.314
 3410SOL    HW110790   3.523   1.731   0.310
 3410SOL    HW210791   3.400   1.695   0.229
 3411SOL     OW10792   2.657   0.616   1.452
 3411SOL    HW110793   2.629   0.590   1.540
 3411SOL    HW210794   2.619   0.550   1.394
 3412SOL     OW10795   3.254   0.476   1.677
 3412SOL    HW110796   3.260   0.521   1.761
 3412SOL    HW210797   3.311   0.400   1.687
 3413SOL     OW10798   2.814   0.887   1.584
 3413SOL    HW110799   2.869   0.818   1.547
 3413SOL    HW210800   2.766   0.922   1.509
 3414SOL     OW10801   2.854   0.402   1.238
 3414SOL    HW110802   2.770   0.423   1.277
 3414SOL    HW210803   2.834   0.374   1.149
 3415SOL     OW10804   2.914   0.702   0.428
 3415SOL    HW110805   2.931   0.694   0.522
 3415SOL    HW210806   2.831   0.656   0.415
 3416SOL     OW10807   1.950   0.824   0.775
 3416SOL    HW110808   2.030   0.815   0.827
 3416SOL    HW210809   1.906   0.900   0.812
 3417SOL     OW10810   2.736   0.361   0.221
 3417SOL    HW110811   2.772   0.419   0.154
 3417SOL    HW210812   2.739   0.273   0.181
 3418SOL     OW10813   3.570   0.574   1.829
 3418SOL    HW110814   3.533   0.648   1.782
 3418SOL    HW210815   3.595   0.512   1.761
 3419SOL     OW10816   3.239   1.141   0.542
 3419SOL    HW110817   3.318   1.130   0.490
 3419SOL    HW210818   3.187   1.205   0.493
 3420SOL     OW10819   2.420   0.198   0.881
 3420SOL    HW110820   2.423   0.218   0.975
 3420SOL    HW210821   2.416   0.284   0.839
 3421SOL     OW10822   2.865   1.441   0.475
 3421SOL    HW110823   2.834   1.515   0.424
 3421SOL    HW210824   2.843   1.463   0.565
 3422SOL     OW10825   2.218   1.796   0.864
 3422SOL    HW110826   2.254   1.708   0.874
 3422SOL    HW210827   2.287   1.855   0.896
 3423SOL     OW10828   3.667   1.062   0.868
 3423SOL    HW110829   3.613   1.037   0.793
 3423SOL    HW210830   3.605   1.065   0.941
 3424SOL     OW10831   3.089   1.539   1.514
 3424SOL    HW110832   3.076   1.467   1.575
 3424SOL    HW210833   3.025   1.523   1.444
 3425SOL     OW10834   2.171   0.938   0.231
 3425SOL    HW110835   2.263   0.950   0.207
 3425SOL    HW210836   2.157   0.843   0.226
 3426SOL     OW10837   3.339   0.749   0.731
 3426SOL    HW110838   3.336   0.706   0.816
 3426SOL    HW210839   3.418   0.803   0.735
 3427SOL     OW10840   2.330   1.264   1.739
 3427SOL    HW110841   2.304   1.268   1.647
 3427SOL    HW210842   2.248   1.262   1.787
 3428SOL     OW10843   2.984   1.781   0.229
 3428SOL    HW110844   2.922   1.733   0.285
 3428SOL    HW210845   3.014   1.716   0.166
 3429SOL     OW10846   2.032   0.275   1.499
 3429SOL    HW110847   1.976   0.352   1.490
 3429SOL    HW210848   2.038   0.261   1.594
 3430SOL     OW10849   3.494   1.374   0.088
 3430SOL    HW110850   3.462   1.459   0.057
 3430SOL    HW210851   3.424   1.312   0.067
 3431SOL     OW10852   2.340   1.720   0.329
 3431SOL    HW110853   2.378   1.792   0.380
 3431SOL    HW210854   2.404   1.702   0.261
 3432SOL     OW10855   3.298   0.140   0.392
 3432SOL    HW110856   3.255   0.054   0.397
 3432SOL    HW210857   3.381   0.128   0.437
 3433SOL     OW10858   2.154   1.763   1.220
 3433SOL    HW110859   2.193   1.682   1.250
 3433SOL    HW210860   2.114   1.741   1.136
 3434SOL     OW10861   2.799   1.698   0.899
 3434SOL    HW110862   2.878   1.649   0.919
 3434SOL    HW210863   2.757   1.648   0.829
 3435SOL     OW10864   2.255   0.696   0.472
 3435SOL    HW110865   2.276   0.603   0.485
 3435SOL    HW210866   2.163   0.703   0.495
 3436SOL     OW10867   3.392   0.229   1.727
 3436SOL    HW110868   3.385   0.255   1.819
 3436SOL    HW210869   3.373   0.136   1.726
 3437SOL     OW10870   2.483   0.103   0.119
 3437SOL    HW110871   2.578   0.102   0.127
 3437SOL    HW210872   2.466   0.131   0.029
 3438SOL     OW10873   2.637   0.282   1.768
 3438SOL    HW110874   2.709   0.219   1.772
 3438SOL    HW210875   2.579   0.256   1.840
 3439SOL     OW10876   2.738   1.522   1.194
 3439SOL    HW110877   2.722   1.486   1.107
 3439SOL    HW210878   2.808   1.468   1.230
 3440SOL     OW10879   3.202   0.587   1.430
 3440SOL    HW110880   3.232   0.559   1.517
 3440SOL    HW210881   3.236   0.676   1.421
 3441SOL     OW10882   2.679   1.393   0.942
 3441SOL    HW110883   2.764   1.381   0.899
 3441SOL    HW210884   2.616   1.396   0.870
 3442SOL     OW10885   2.791   0.511   0.900
 3442SOL    HW110886   2.767   0.503   0.808
 3442SOL    HW210887   2.818   0.423   0.925
 3443SOL     OW10888   2.411   0.053   0.499
 3443SOL    HW110889   2.335   0.059   0.557
 3443SOL    HW210890   2.403   0.129   0.442
 3444SOL     OW10891   3.291   1.205   0.044
 3444SOL    HW110892   3.310   1.126   0.093
 3444SOL    HW210893   3.200   1.226   0.065
 3445SOL     OW10894   2.199   0.008   0.186
 3445SOL    HW110895   2.174   0.088   0.141
 3445SOL    HW210896   2.285   0.028   0.223
 3446SOL     OW10897   2.805   0.249   0.466
 3446SOL    HW110898   2.773   0.288   0.384
 3446SOL    HW210899   2.900   0.251   0.458
 3447SOL     OW10900   2.942   0.684   1.458
 3447SOL    HW110901   2.872   0.619   1.465
 3447SOL    HW210902   3.022   0.632   1.453
 3448SOL     OW10903   3.082   1.572   0.795
 3448SOL    HW110904   3.099   1.637   0.727
 3448SOL    HW210905   3.153   1.585   0.858
 3449SOL     OW10906   2.332   1.151   0.729
 3449SOL    HW110907   2.264   1.131   0.794
 3449SOL    HW210908   2.289   1.138   0.645
 3450SOL     OW10909   3.128   1.794   0.609
 3450SOL    HW110910   3.178   1.856   0.555
 3450SOL    HW210911   3.061   1.847   0.652
 3451SOL     OW10912   2.860   0.533   0.053
 3451SOL    HW110913   2.860   0.531  13.857
 3451SOL    HW210914   2.952   0.551   0.077
 3452SOL     OW10915   1.943   0.550   1.396
 3452SOL    HW110916   2.035   0.552   1.367
 3452SOL    HW210917   1.937   0.623   1.458
 3453SOL     OW10918   2.425   0.231   1.161
 3453SOL    HW110919   2.450   0.139   1.170
 3453SOL    HW210920   2.336   0.236   1.194
 3454SOL     OW10921   2.732   0.462   0.638
 3454SOL    HW110922   2.687   0.516   0.573
 3454SOL    HW210923   2.753   0.381   0.592
 3455SOL     OW10924   2.858   0.040   0.779
 3455SOL    HW110925   2.818   0.068   0.697
 3455SOL    HW210926   2.869   3.946   0.769
 3456SOL     OW10927   3.301   1.161   0.858
 3456SOL    HW110928   3.230   1.097   0.855
 3456SOL    HW210929   3.327   1.172   0.766
 3457SOL     OW10930   3.326   0.608   0.974
 3457SOL    HW110931   3.273   0.528   0.979
 3457SOL    HW210932   3.386   0.601   1.049
 3458SOL     OW10933   3.724   0.825   0.374
 3458SOL    HW110934   3.763   0.767   0.440
 3458SOL    HW210935   3.678   0.765   0.314
 3459SOL     OW10936   2.348   1.408   0.154
 3459SOL    HW110937   2.275   1.375   0.206
 3459SOL    HW210938   2.332   1.375   0.066
 3460SOL     OW10939   3.529   1.264   0.646
 3460SOL    HW110940   3.624   1.268   0.655
 3460SOL    HW210941   3.500   1.354   0.660
 3461SOL     OW10942   3.283   0.590   0.087
 3461SOL    HW110943   3.214   0.578   0.152
 3461SOL    HW210944   3.333   0.509   0.090
 3462SOL     OW10945   2.379   0.254   0.323
 3462SOL    HW110946   2.422   0.209   0.250
 3462SOL    HW210947   2.357   0.341   0.287
 3463SOL     OW10948   3.613   1.234   1.566
 3463SOL    HW110949   3.701   1.199   1.549
 3463SOL    HW210950   3.629   1.323   1.596
 3464SOL     OW10951   2.919   1.354   1.333
 3464SOL    HW110952   2.844   1.322   1.384
 3464SOL    HW210953   2.994   1.312   1.374
 3465SOL     OW10954   3.468   1.628   1.656
 3465SOL    HW110955   3.460   1.663   1.567
 3465SOL    HW210956   3.548   1.577   1.655
 3466SOL     OW10957   2.994   1.207   1.104
 3466SOL    HW110958   2.933   1.244   1.168
 3466SOL    HW210959   2.963   1.240   1.020
 3467SOL     OW10960   3.490   1.096   1.075
 3467SOL    HW110961   3.481   1.158   1.148
 3467SOL    HW210962   3.413   1.112   1.020
 3468SOL     OW10963   2.774   0.116   1.401
 3468SOL    HW110964   2.794   0.088   1.312
 3468SOL    HW210965   2.855   0.158   1.432
 3469SOL     OW10966   2.846   1.115   1.723
 3469SOL    HW110967   2.755   1.132   1.746
 3469SOL    HW210968   2.844   1.037   1.668
 3470SOL     OW10969   2.578   1.059   0.377
 3470SOL    HW110970   2.562   1.041   0.470
 3470SOL    HW210971   2.652   1.004   0.353
 3471SOL     OW10972   2.283   0.816   1.251
 3471SOL    HW110973   2.351   0.824   1.318
 3471SOL    HW210974   2.247   0.728   1.264
 3472SOL     OW10975   3.128   0.375   1.276
 3472SOL    HW110976   3.162   0.453   1.320
 3472SOL    HW210977   3.041   0.400   1.246
 3473SOL     OW10978   1.934   1.578   1.353
 3473SOL    HW110979   1.899   1.642   1.291
 3473SOL    HW210980   2.029   1.581   1.339
 3474SOL     OW10981   2.206   1.114   0.487
 3474SOL    HW110982   2.205   1.185   0.423
 3474SOL    HW210983   2.214   1.035   0.433
 3475SOL     OW10984   2.416   0.532   0.857
 3475SOL    HW110985   2.430   0.591   0.783
 3475SOL    HW210986   2.481   0.559   0.922
 3476SOL     OW10987   3.110   1.346   0.398
 3476SOL    HW110988   3.166   1.420   0.424
 3476SOL    HW210989   3.023   1.370   0.430
 3477SOL     OW10990   3.146   1.459   1.148
 3477SOL    HW110991   3.202   1.463   1.225
 3477SOL    HW210992   3.092   1.382   1.161
 3478SOL     OW10993   3.439   0.633   0.492
 3478SOL    HW110994   3.395   0.694   0.552
 3478SOL    HW210995   3.473   0.689   0.422
 3479SOL     OW10996   2.214   1.514   1.316
 3479SOL    HW110997   2.200   1.471   1.232
 3479SOL    HW210998   2.309   1.525   1.322
 3480SOL     OW10999   2.279   0.745   1.602
 3480SOL    HW111000   2.341   0.789   1.544
 3480SOL    HW211001   2.320   0.660   1.619
 3481SOL     OW11002   3.466   0.778   1.683
 3481SOL    HW111003   3.380   0.821   1.677
 3481SOL    HW211004   3.519   0.821   1.616
 3482SOL     OW11005   2.876   0.131   1.780
 3482SOL    HW111006   2.925   0.204   1.742
 3482SOL    HW211007   2.859   0.073   1.706
 3483SOL     OW11008   2.350   0.034   1.762
 3483SOL    HW111009   2.353   0.047   1.667
 3483SOL    HW211010   2.291   0.102   1.793
 3484SOL     OW11011   2.445   0.874   1.031
 3484SOL    HW111012   2.476   0.965   1.033
 3484SOL    HW211013   2.389   0.866   1.108
 3485SOL     OW11014   3.215   0.859   1.027
 3485SOL    HW111015   3.131   0.847   0.983
 3485SOL    HW211016   3.259   0.774   1.019
 3486SOL     OW11017   3.079   0.550   0.267
 3486SOL    HW111018   3.085   0.470   0.319
 3486SOL    HW211019   3.022   0.608   0.319
 3487SOL     OW11020   2.162   0.209   1.243
 3487SOL    HW111021   2.120   0.238   1.324
 3487SOL    HW211022   2.150   0.114   1.242
 3488SOL     OW11023   1.906   1.313   1.278
 3488SOL    HW111024   1.940   1.258   1.348
 3488SOL    HW211025   1.915   1.402   1.312
 3489SOL     OW11026   2.585   0.632   1.052
 3489SOL    HW111027   2.660   0.619   0.995
 3489SOL    HW211028   2.555   0.721   1.033
 3490SOL     OW11029   3.594   0.957   1.862
 3490SOL    HW111030   3.551   0.895   1.803
 3490SOL    HW211031   3.530   0.972   1.932
 3491SOL     OW11032   2.184   0.056   0.651
 3491SOL    HW111033   2.164   0.149   0.663
 3491SOL    HW211034   2.146   0.013   0.728
 3492SOL     OW11035   3.437   0.389   0.390
 3492SOL    HW111036   3.420   0.327   0.461
 3492SOL    HW211037   3.431   0.475   0.431
 3493SOL     OW11038   2.891   0.759   0.959
 3493SOL    HW111039   2.884   0.776   1.053
 3493SOL    HW211040   2.864   0.668   0.949
 3494SOL     OW11041   2.844   1.567   1.719
 3494SOL    HW111042   2.829   1.610   1.635
 3494SOL    HW211043   2.887   1.484   1.696
 3495SOL     OW11044   3.705   1.499   1.598
 3495SOL    HW111045   3.728   1.528   1.510
 3495SOL    HW211046   3.785   1.510   1.649
 3496SOL     OW11047   2.214   0.915   1.809
 3496SOL    HW111048   2.296   0.935   1.855
 3496SOL    HW211049   2.240   0.853   1.741
 3497SOL     OW11050   3.387   0.272   0.144
 3497SOL    HW111051   3.326   0.199   0.148
 3497SOL    HW211052   3.394   0.304   0.234
 3498SOL     OW11053   3.151   0.832   0.056
 3498SOL    HW111054   3.198   0.749   0.061
 3498SOL    HW211055   3.168   0.864  13.867
 3499SOL     OW11056   2.929   1.337   0.855
 3499SOL    HW111057   2.933   1.265   0.792
 3499SOL    HW211058   2.989   1.403   0.820
 3500SOL     OW11059   2.170   0.809   0.946
 3500SOL    HW111060   2.263   0.830   0.941
 3500SOL    HW211061   2.167   0.719   0.978
 3501SOL     OW11062   2.198   0.536   1.014
 3501SOL    HW111063   2.157   0.451   0.999
 3501SOL    HW211064   2.274   0.537   0.956
 3502SOL     OW11065   2.995   0.381   1.696
 3502SOL    HW111066   2.946   0.435   1.758
 3502SOL    HW211067   3.081   0.421   1.692
 3503SOL     OW11068   3.013   0.226   1.481
 3503SOL    HW111069   3.004   0.280   1.560
 3503SOL    HW211070   3.038   0.288   1.412
 3504SOL     OW11071   1.884   1.308   0.174
 3504SOL    HW111072   1.800   1.320   0.130
 3504SOL    HW211073   1.876   1.222   0.217
 3505SOL     OW11074   1.978   1.712   0.977
 3505SOL    HW111075   1.936   1.656   0.911
 3505SOL    HW211076   2.043   1.762   0.929
 3506SOL     OW11077   2.361   1.567   0.910
 3506SOL    HW111078   2.429   1.631   0.932
 3506SOL    HW211079   2.405   1.506   0.850
 3507SOL     OW11080   2.840   0.788   1.224
 3507SOL    HW111081   2.897   0.769   1.299
 3507SOL    HW211082   2.755   0.752   1.249
 3508SOL     OW11083   1.895   0.548   1.117
 3508SOL    HW111084   1.969   0.521   1.063
 3508SOL    HW211085   1.929   0.547   1.206
 3509SOL     OW11086   2.065   0.527   1.713
 3509SOL    HW111087   2.136   0.506   1.651
 3509SOL    HW211088   2.021   0.602   1.674
 3510SOL     OW11089   3.242   0.936   1.657
 3510SOL    HW111090   3.263   1.030   1.655
 3510SOL    HW211091   3.237   0.910   1.566
 3511SOL     OW11092   2.677   0.580   0.375
 3511SOL    HW111093   2.688   0.503   0.319
 3511SOL    HW211094   2.604   0.628   0.335
 3512SOL     OW11095   3.502   0.602   1.183
 3512SOL    HW111096   3.491   0.541   1.256
 3512SOL    HW211097   3.588   0.581   1.147
 3513SOL     OW11098   2.114   1.539   1.707
 3513SOL    HW111099   2.094   1.608   1.770
 3513SOL    HW211100   2.118   1.459   1.759
 3514SOL     OW11101   2.570   0.453   1.256
 3514SOL    HW111102   2.519   0.376   1.231
 3514SOL    HW211103   2.561   0.513   1.182
 3515SOL     OW11104   2.785   1.679   1.470
 3515SOL    HW111105   2.763   1.642   1.385
 3515SOL    HW211106   2.781   1.774   1.456
 3516SOL     OW11107   2.297   0.493   0.230
 3516SOL    HW111108   2.370   0.553   0.244
 3516SOL    HW211109   2.228   0.547   0.192
 3517SOL     OW11110   2.004   1.141   1.473
 3517SOL    HW111111   2.007   1.092   1.555
 3517SOL    HW211112   2.022   1.076   1.405
 3518SOL     OW11113   3.184   1.045   1.222
 3518SOL    HW111114   3.207   0.982   1.154
 3518SOL    HW211115   3.116   1.100   1.182
 3519SOL     OW11116   3.177   0.857   0.327
 3519SOL    HW111117   3.102   0.825   0.378
 3519SOL    HW211118   3.152   0.844   0.236
 3520SOL     OW11119   3.642   1.741   1.157
 3520SOL    HW111120   3.697   1.769   1.084
 3520SOL    HW211121   3.613   1.654   1.133
 3521SOL     OW11122   3.102   1.734   1.110
 3521SOL    HW111123   3.184   1.756   1.066
 3521SOL    HW211124   3.110   1.640   1.129
 3522SOL     OW11125   1.950   1.262   1.015
 3522SOL    HW111126   1.932   1.279   1.107
 3522SOL    HW211127   1.875   1.211   0.985
 3523SOL     OW11128   2.543   1.665   1.731
 3523SOL    HW111129   2.492   1.746   1.729
 3523SOL    HW211130   2.612   1.678   1.665
 3524SOL     OW11131   2.758   0.103   0.134
 3524SOL    HW111132   2.799   0.091   0.048
 3524SOL    HW211133   2.768   0.018   0.177
 3525SOL     OW11134   3.554   0.124   0.484
 3525SOL    HW111135   3.636   0.135   0.435
 3525SOL    HW211136   3.553   0.031   0.508
 3526SOL     OW11137   3.252   1.571   0.486
 3526SOL    HW111138   3.315   1.606   0.422
 3526SOL    HW211139   3.205   1.649   0.517
 3527SOL     OW11140   2.028   1.741   1.861
 3527SOL    HW111141   1.965   1.689   1.912
 3527SOL    HW211142   2.009   1.832   1.885
 3528SOL     OW11143   3.138   0.927   0.671
 3528SOL    HW111144   3.212   0.868   0.683
 3528SOL    HW211145   3.172   0.999   0.618
 3529SOL     OW11146   2.672   1.274   1.427
 3529SOL    HW111147   2.644   1.314   1.509
 3529SOL    HW211148   2.602   1.295   1.365
 3530SOL     OW11149   2.545   1.587   0.181
 3530SOL    HW111150   2.530   1.629   0.096
 3530SOL    HW211151   2.487   1.511   0.181
 3531SOL     OW11152   3.482   1.727   1.391
 3531SOL    HW111153   3.537   1.732   1.313
 3531SOL    HW211154   3.469   1.818   1.417
 3532SOL     OW11155   3.704   0.182   0.970
 3532SOL    HW111156   3.729   0.098   0.932
 3532SOL    HW211157   3.617   0.200   0.933
 3533SOL     OW11158   2.125   0.316   0.716
 3533SOL    HW111159   2.039   0.351   0.695
 3533SOL    HW211160   2.124   0.307   0.812
 3534SOL     OW11161   3.081   1.601   0.035
 3534SOL    HW111162   3.070   1.509   0.061
 3534SOL    HW211163   3.043   1.605  13.847
 3535SOL     OW11164   2.686   1.006   1.373
 3535SOL    HW111165   2.729   1.002   1.287
 3535SOL    HW211166   2.684   1.099   1.394
 3536SOL     OW11167   2.783   0.910   0.288
 3536SOL    HW111168   2.853   0.950   0.236
 3536SOL    HW211169   2.826   0.840   0.337
 3537SOL     OW11170   3.348   1.644   0.067
 3537SOL    HW111171   3.254   1.626   0.057
 3537SOL    HW211172   3.384   1.636  13.879
 3538SOL     OW11173   2.232   1.297   1.493
 3538SOL    HW111174   2.220   1.375   1.439
 3538SOL    HW211175   2.153   1.244   1.477
 3539SOL     OW11176   3.463   1.280   1.277
 3539SOL    HW111177   3.531   1.272   1.344
 3539SOL    HW211178   3.406   1.350   1.310
 3540SOL     OW11179   2.917   1.108   0.708
 3540SOL    HW111180   2.846   1.057   0.746
 3540SOL    HW211181   2.981   1.043   0.680
 3541SOL     OW11182   2.877   0.249   0.969
 3541SOL    HW111183   2.867   0.198   0.888
 3541SOL    HW211184   2.872   0.183   1.039
 3542SOL     OW11185   2.467   1.489   0.481
 3542SOL    HW111186   2.511   1.438   0.413
 3542SOL    HW211187   2.404   1.543   0.433
 3543SOL     OW11188   3.582   0.394   1.372
 3543SOL    HW111189   3.654   0.457   1.372
 3543SOL    HW211190   3.614   0.321   1.318
 3544SOL     OW11191   2.132   1.321   0.297
 3544SOL    HW111192   2.048   1.331   0.251
 3544SOL    HW211193   2.119   1.366   0.381
 3545SOL     OW11194   1.975   1.027   1.721
 3545SOL    HW111195   1.899   1.002   1.773
 3545SOL    HW211196   2.049   0.986   1.767
 3546SOL     OW11197   2.555   0.255   1.501
 3546SOL    HW111198   2.622   0.200   1.460
 3546SOL    HW211199   2.582   0.261   1.593
 3547SOL     OW11200   1.900   0.441   0.008
 3547SOL    HW111201   1.872   0.351   0.024
 3547SOL    HW211202   1.900   0.451  13.813
 3548SOL     OW11203   3.287   0.857   1.398
 3548SOL    HW111204   3.238   0.919   1.345
 3548SOL    HW211205   3.376   0.859   1.362
 3549SOL     OW11206   1.943   0.147   0.369
 3549SOL    HW111207   1.914   0.227   0.327
 3549SOL    HW211208   2.027   0.127   0.328
 3550SOL     OW11209   3.049   1.345   0.122
 3550SOL    HW111210   2.954   1.335   0.111
 3550SOL    HW211211   3.063   1.333   0.216
 3551SOL     OW11212   2.483   0.829   1.434
 3551SOL    HW111213   2.539   0.905   1.419
 3551SOL    HW211214   2.544   0.755   1.443
 3552SOL     OW11215   3.344   1.782   0.981
 3552SOL    HW111216   3.367   1.842   0.910
 3552SOL    HW211217   3.428   1.753   1.017
 3553SOL     OW11218   2.580   0.561   1.704
 3553SOL    HW111219   2.622   0.623   1.763
 3553SOL    HW211220   2.606   0.475   1.738
 3554SOL     OW11221   3.335   1.197   1.630
 3554SOL    HW111222   3.323   1.212   1.724
 3554SOL    HW211223   3.428   1.213   1.614
 3555SOL     OW11224   2.237   1.746   1.568
 3555SOL    HW111225   2.164   1.765   1.509
 3555SOL    HW211226   2.213   1.663   1.609
 3556SOL     OW11227   3.526   0.881   1.259
 3556SOL    HW111228   3.525   0.795   1.215
 3556SOL    HW211229   3.520   0.944   1.188
 3557SOL     OW11230   3.092   0.335   0.435
 3557SOL    HW111231   3.155   0.263   0.429
 3557SOL    HW211232   3.109   0.376   0.520
 3558SOL     OW11233   2.450   0.736   0.671
 3558SOL    HW111234   2.489   0.822   0.657
 3558SOL    HW211235   2.384   0.728   0.603
 3559SOL     OW11236   3.616   0.381   1.642
 3559SOL    HW111237   3.595   0.390   1.549
 3559SOL    HW211238   3.556   0.314   1.674
 3560SOL     OW11239   3.616   0.930   1.513
 3560SOL    HW111240   3.607   1.024   1.531
 3560SOL    HW211241   3.592   0.920   1.421
 3561SOL     OW11242   2.771   1.398   0.064
 3561SOL    HW111243   2.702   1.385   0.129
 3561SOL    HW211244   2.724   1.404  13.881
 3562SOL     OW11245   2.522   1.792   0.941
 3562SOL    HW111246   2.506   1.883   0.915
 3562SOL    HW211247   2.617   1.781   0.934
 3563SOL     OW11248   2.730   0.968   0.854
 3563SOL    HW111249   2.780   0.897   0.893
 3563SOL    HW211250   2.694   1.015   0.929
 3564SOL     OW11251   2.959   1.012   0.111
 3564SOL    HW111252   2.949   1.058   0.027
 3564SOL    HW211253   3.033   0.953   0.097
 3565SOL     OW11254   3.715   1.556   0.841
 3565SOL    HW111255   3.635   1.541   0.789
 3565SOL    HW211256   3.711   1.489   0.909
 3566SOL     OW11257   2.089   1.301   1.855
 3566SOL    HW111258   2.022   1.238   1.828
 3566SOL    HW211259   2.073   1.313   1.949
 3567SOL     OW11260   1.943   1.220   0.665
 3567SOL    HW111261   1.957   1.176   0.749
 3567SOL    HW211262   2.019   1.196   0.612
 3568SOL     OW11263   2.543   1.404   1.627
 3568SOL    HW111264   2.465   1.361   1.661
 3568SOL    HW211265   2.540   1.492   1.666
 3569SOL     OW11266   3.676   0.181   1.244
 3569SOL    HW111267   3.678   0.086   1.252
 3569SOL    HW211268   3.694   0.198   1.151
 3570SOL     OW11269   2.294   0.436   0.533
 3570SOL    HW111270   2.325   0.364   0.478
 3570SOL    HW211271   2.244   0.392   0.602
 3571SOL     OW11272   3.559   1.491   1.096
 3571SOL    HW111273   3.480   1.468   1.046
 3571SOL    HW211274   3.569   1.419   1.159
 3572SOL     OW11275   2.193   0.556   1.294
 3572SOL    HW111276   2.246   0.497   1.348
 3572SOL    HW211277   2.212   0.530   1.204
 3573SOL     OW11278   2.692   1.578   0.677
 3573SOL    HW111279   2.677   1.640   0.606
 3573SOL    HW211280   2.616   1.519   0.675
 3574SOL     OW11281   3.323   0.253   1.110
 3574SOL    HW111282   3.337   0.165   1.145
 3574SOL    HW211283   3.267   0.296   1.175
 3575SOL     OW11284   2.866   0.027   1.146
 3575SOL    HW111285   2.785   3.991   1.111
 3575SOL    HW211286   2.925   3.952   1.155
 3576SOL     OW11287   2.636   1.322   0.320
 3576SOL    HW111288   2.607   1.233   0.338
 3576SOL    HW211289   2.719   1.331   0.368
 3577SOL     OW11290   2.483   1.555   1.286
 3577SOL    HW111291   2.484   1.637   1.334
 3577SOL    HW211292   2.571   1.547   1.249
 3578SOL     OW11293   3.181   0.068   0.126
 3578SOL    HW111294   3.200   3.979   0.093
 3578SOL    HW211295   3.117   0.054   0.195
 3579SOL     OW11296   3.142   0.454   0.683
 3579SOL    HW111297   3.096   0.538   0.678
 3579SOL    HW211298   3.146   0.436   0.777
 3580SOL     OW11299   3.452   0.210   0.867
 3580SOL    HW111300   3.404   0.233   0.947
 3580SOL    HW211301   3.450   0.290   0.814
 3581SOL     OW11302   1.902   1.070   0.310
 3581SOL    HW111303   1.998   1.067   0.309
 3581SOL    HW211304   1.876   0.980   0.331
 3582SOL     OW11305   2.760   1.654   0.341
 3582SOL    HW111306   2.683   1.626   0.291
 3582SOL    HW211307   2.728   1.726   0.395
 3583SOL     OW11308   2.089   0.620   1.983
 3583SOL    HW111309   1.999   0.628   2.015
 3583SOL    HW211310   2.080   0.600   1.890
 3584SOL     OW11311   2.079   0.301   2.853
 3584SOL    HW111312   2.116   0.257   2.930
 3584SOL    HW211313   1.994   0.258   2.840
 3585SOL     OW11314   1.871   0.397   2.495
 3585SOL    HW111315   1.784   0.412   2.533
 3585SOL    HW211316   1.858   0.328   2.431
 3586SOL     OW11317   2.430   1.291   3.040
 3586SOL    HW111318   2.343   1.295   3.000
 3586SOL    HW211319   2.446   1.380   3.071
 3587SOL     OW11320   3.426   1.513   2.570
 3587SOL    HW111321   3.383   1.491   2.653
 3587SOL    HW211322   3.354   1.517   2.506
 3588SOL     OW11323   2.994   0.698   2.559
 3588SOL    HW111324   3.042   0.780   2.546
 3588SOL    HW211325   2.947   0.711   2.641
 3589SOL     OW11326   3.623   0.623   2.088
 3589SOL    HW111327   3.605   0.612   1.995
 3589SOL    HW211328   3.606   0.537   2.127
 3590SOL     OW11329   2.615   1.140   2.906
 3590SOL    HW111330   2.547   1.176   2.963
 3590SOL    HW211331   2.651   1.217   2.861
 3591SOL     OW11332   2.733   0.770   3.686
 3591SOL    HW111333   2.718   0.840   3.748
 3591SOL    HW211334   2.755   0.814   3.604
 3592SOL     OW11335   2.548   1.000   2.507
 3592SOL    HW111336   2.613   0.990   2.576
 3592SOL    HW211337   2.479   1.053   2.546
 3593SOL     OW11338   2.574   1.150   3.677
 3593SOL    HW111339   2.622   1.228   3.706
 3593SOL    HW211340   2.493   1.184   3.640
 3594SOL     OW11341   2.194   1.417   2.930
 3594SOL    HW111342   2.118   1.384   2.884
 3594SOL    HW211343   2.241   1.470   2.866
 3595SOL     OW11344   3.321   1.501   3.219
 3595SOL    HW111345   3.375   1.580   3.229
 3595SOL    HW211346   3.256   1.508   3.290
 3596SOL     OW11347   2.307   0.393   3.355
 3596SOL    HW111348   2.397   0.362   3.354
 3596SOL    HW211349   2.254   0.314   3.363
 3597SOL     OW11350   3.473   0.450   2.597
 3597SOL    HW111351   3.403   0.483   2.540
 3597SOL    HW211352   3.495   0.524   2.654
 3598SOL     OW11353   2.101   1.698   2.329
 3598SOL    HW111354   2.133   1.765   2.389
 3598SOL    HW211355   2.171   1.687   2.265
 3599SOL     OW11356   2.999   1.342   3.556
 3599SOL    HW111357   3.040   1.336   3.642
 3599SOL    HW211358   2.947   1.262   3.549
 3600SOL     OW11359   2.089   1.434   2.398
 3600SOL    HW111360   2.080   1.529   2.394
 3600SOL    HW211361   2.028   1.407   2.466
 3601SOL     OW11362   2.123   1.090   2.753
 3601SOL    HW111363   2.119   1.003   2.792
 3601SOL    HW211364   2.066   1.144   2.808
 3602SOL     OW11365   2.470   1.792   3.290
 3602SOL    HW111366   2.390   1.774   3.338
 3602SOL    HW211367   2.496   1.880   3.317
 3603SOL     OW11368   2.444   0.984   1.999
 3603SOL    HW111369   2.492   1.030   1.930
 3603SOL    HW211370   2.484   1.015   2.080
 3604SOL     OW11371   3.444   0.141   3.318
 3604SOL    HW111372   3.470   0.213   3.262
 3604SOL    HW211373   3.408   0.183   3.396
 3605SOL     OW11374   1.979   0.656   2.422
 3605SOL    HW111375   1.952   0.568   2.445
 3605SOL    HW211376   1.971   0.706   2.504
 3606SOL     OW11377   3.702   1.757   2.198
 3606SOL    HW111378   3.772   1.733   2.259
 3606SOL    HW211379   3.721   1.848   2.176
 3607SOL     OW11380   1.864   1.601   2.022
 3607SOL    HW111381   1.853   1.507   2.006
 3607SOL    HW211382   1.886   1.607   2.115
 3608SOL     OW11383   3.550   0.918   2.508
 3608SOL    HW111384   3.634   0.875   2.491
 3608SOL    HW211385   3.532   0.968   2.428
 3609SOL     OW11386   3.504   1.104   2.294
 3609SOL    HW111387   3.589   1.110   2.249
 3609SOL    HW211388   3.510   1.167   2.365
 3610SOL     OW11389   1.985   0.750   3.442
 3610SOL    HW111390   2.075   0.780   3.447
 3610SOL    HW211391   1.932   0.829   3.449
 3611SOL     OW11392   2.477   1.387   2.596
 3611SOL    HW111393   2.431   1.304   2.605
 3611SOL    HW211394   2.459   1.415   2.506
 3612SOL     OW11395   3.149   1.237   3.284
 3612SOL    HW111396   3.181   1.171   3.224
 3612SOL    HW211397   3.208   1.232   3.360
 3613SOL     OW11398   2.682   0.004   2.379
 3613SOL    HW111399   2.727   0.085   2.354
 3613SOL    HW211400   2.589   0.028   2.379
 3614SOL     OW11401   2.051   0.963   3.137
 3614SOL    HW111402   2.137   0.923   3.122
 3614SOL    HW211403   1.991   0.912   3.083
 3615SOL     OW11404   3.390   0.996   2.063
 3615SOL    HW111405   3.321   0.939   2.096
 3615SOL    HW211406   3.433   1.031   2.141
 3616SOL     OW11407   3.046   1.809   3.485
 3616SOL    HW111408   3.056   1.868   3.411
 3616SOL    HW211409   3.064   1.722   3.449
 3617SOL     OW11410   2.219   0.253   3.701
 3617SOL    HW111411   2.263   0.338   3.700
 3617SOL    HW211412   2.126   0.274   3.705
 3618SOL     OW11413   3.328   1.420   2.811
 3618SOL    HW111414   3.261   1.435   2.878
 3618SOL    HW211415   3.317   1.328   2.786
 3619SOL     OW11416   3.515   1.746   2.441
 3619SOL    HW111417   3.500   1.713   2.352
 3619SOL    HW211418   3.495   1.671   2.498
 3620SOL     OW11419   2.457   0.720   2.130
 3620SOL    HW111420   2.461   0.803   2.082
 3620SOL    HW211421   2.392   0.735   2.199
 3621SOL     OW11422   3.137   0.368   2.803
 3621SOL    HW111423   3.049   0.330   2.810
 3621SOL    HW211424   3.194   0.307   2.848
 3622SOL     OW11425   3.439   1.671   2.172
 3622SOL    HW111426   3.530   1.701   2.165
 3622SOL    HW211427   3.413   1.655   2.081
 3623SOL     OW11428   2.658   0.616   3.314
 3623SOL    HW111429   2.629   0.590   3.402
 3623SOL    HW211430   2.619   0.550   3.256
 3624SOL     OW11431   3.254   0.476   3.539
 3624SOL    HW111432   3.260   0.521   3.623
 3624SOL    HW211433   3.311   0.400   3.549
 3625SOL     OW11434   2.814   0.887   3.446
 3625SOL    HW111435   2.869   0.818   3.409
 3625SOL    HW211436   2.766   0.922   3.371
 3626SOL     OW11437   2.854   0.402   3.100
 3626SOL    HW111438   2.770   0.423   3.139
 3626SOL    HW211439   2.833   0.375   3.011
 3627SOL     OW11440   2.914   0.699   2.287
 3627SOL    HW111441   2.931   0.692   2.381
 3627SOL    HW211442   2.831   0.653   2.274
 3628SOL     OW11443   1.949   0.823   2.639
 3628SOL    HW111444   2.030   0.815   2.690
 3628SOL    HW211445   1.906   0.900   2.674
 3629SOL     OW11446   2.757   0.352   2.062
 3629SOL    HW111447   2.799   0.411   1.999
 3629SOL    HW211448   2.750   0.269   2.015
 3630SOL     OW11449   3.570   0.574   3.691
 3630SOL    HW111450   3.532   0.648   3.644
 3630SOL    HW211451   3.595   0.512   3.623
 3631SOL     OW11452   3.239   1.141   2.402
 3631SOL    HW111453   3.319   1.130   2.351
 3631SOL    HW211454   3.187   1.204   2.352
 3632SOL     OW11455   2.420   0.199   2.743
 3632SOL    HW111456   2.423   0.218   2.836
 3632SOL    HW211457   2.416   0.285   2.701
 3633SOL     OW11458   2.865   1.443   2.333
 3633SOL    HW111459   2.831   1.517   2.282
 3633SOL    HW211460   2.844   1.464   2.424
 3634SOL     OW11461   2.219   1.801   2.726
 3634SOL    HW111462   2.255   1.713   2.737
 3634SOL    HW211463   2.288   1.859   2.757
 3635SOL     OW11464   3.667   1.062   2.729
 3635SOL    HW111465   3.613   1.037   2.654
 3635SOL    HW211466   3.605   1.065   2.803
 3636SOL     OW11467   3.089   1.539   3.376
 3636SOL    HW111468   3.076   1.467   3.437
 3636SOL    HW211469   3.025   1.523   3.306
 3637SOL     OW11470   2.180   0.960   2.114
 3637SOL    HW111471   2.263   0.979   2.069
 3637SOL    HW211472   2.151   0.877   2.076
 3638SOL     OW11473   3.342   0.746   2.590
 3638SOL    HW111474   3.336   0.705   2.677
 3638SOL    HW211475   3.419   0.803   2.596
 3639SOL     OW11476   2.330   1.264   3.600
 3639SOL    HW111477   2.304   1.268   3.509
 3639SOL    HW211478   2.248   1.262   3.649
 3640SOL     OW11479   2.985   1.778   2.091
 3640SOL    HW111480   2.911   1.737   2.136
 3640SOL    HW211481   3.009   1.716   2.023
 3641SOL     OW11482   2.032   0.275   3.361
 3641SOL    HW111483   1.976   0.352   3.351
 3641SOL    HW211484   2.038   0.261   3.456
 3642SOL     OW11485   3.487   1.383   1.949
 3642SOL    HW111486   3.444   1.468   1.934
 3642SOL    HW211487   3.420   1.318   1.930
 3643SOL     OW11488   2.341   1.711   2.198
 3643SOL    HW111489   2.380   1.787   2.242
 3643SOL    HW211490   2.396   1.696   2.121
 3644SOL     OW11491   3.297   0.170   2.264
 3644SOL    HW111492   3.252   0.096   2.223
 3644SOL    HW211493   3.372   0.130   2.308
 3645SOL     OW11494   2.154   1.766   3.082
 3645SOL    HW111495   2.194   1.684   3.112
 3645SOL    HW211496   2.112   1.744   2.999
 3646SOL     OW11497   2.799   1.698   2.761
 3646SOL    HW111498   2.878   1.649   2.782
 3646SOL    HW211499   2.757   1.648   2.690
 3647SOL     OW11500   2.257   0.695   2.336
 3647SOL    HW111501   2.275   0.602   2.349
 3647SOL    HW211502   2.163   0.704   2.354
 3648SOL     OW11503   3.392   0.229   3.589
 3648SOL    HW111504   3.385   0.255   3.681
 3648SOL    HW211505   3.373   0.136   3.588
 3649SOL     OW11506   2.505   0.130   1.970
 3649SOL    HW111507   2.529   0.046   2.010
 3649SOL    HW211508   2.443   0.108   1.901
 3650SOL     OW11509   2.637   0.282   3.630
 3650SOL    HW111510   2.709   0.219   3.634
 3650SOL    HW211511   2.579   0.256   3.702
 3651SOL     OW11512   2.738   1.522   3.056
 3651SOL    HW111513   2.722   1.486   2.969
 3651SOL    HW211514   2.808   1.468   3.092
 3652SOL     OW11515   3.202   0.587   3.292
 3652SOL    HW111516   3.232   0.559   3.379
 3652SOL    HW211517   3.236   0.676   3.283
 3653SOL     OW11518   2.678   1.393   2.804
 3653SOL    HW111519   2.763   1.381   2.761
 3653SOL    HW211520   2.615   1.396   2.732
 3654SOL     OW11521   2.792   0.511   2.762
 3654SOL    HW111522   2.767   0.503   2.670
 3654SOL    HW211523   2.818   0.423   2.788
 3655SOL     OW11524   2.407   0.057   2.353
 3655SOL    HW111525   2.333   0.062   2.413
 3655SOL    HW211526   2.402   0.138   2.302
 3656SOL     OW11527   3.289   1.199   1.902
 3656SOL    HW111528   3.319   1.124   1.953
 3656SOL    HW211529   3.204   1.221   1.940
 3657SOL     OW11530   2.191   0.044   2.073
 3657SOL    HW111531   2.200   0.111   2.005
 3657SOL    HW211532   2.274   0.048   2.122
 3658SOL     OW11533   2.804   0.250   2.322
 3658SOL    HW111534   2.779   0.290   2.238
 3658SOL    HW211535   2.900   0.254   2.323
 3659SOL     OW11536   2.942   0.684   3.321
 3659SOL    HW111537   2.872   0.619   3.327
 3659SOL    HW211538   3.022   0.632   3.315
 3660SOL     OW11539   3.083   1.572   2.657
 3660SOL    HW111540   3.099   1.637   2.589
 3660SOL    HW211541   3.153   1.586   2.720
 3661SOL     OW11542   2.333   1.151   2.593
 3661SOL    HW111543   2.265   1.131   2.657
 3661SOL    HW211544   2.291   1.136   2.508
 3662SOL     OW11545   3.129   1.793   2.472
 3662SOL    HW111546   3.177   1.854   2.416
 3662SOL    HW211547   3.062   1.846   2.513
 3663SOL     OW11548   2.884   0.543   1.890
 3663SOL    HW111549   2.840   0.625   1.871
 3663SOL    HW211550   2.947   0.565   1.958
 3664SOL     OW11551   1.944   0.550   3.258
 3664SOL    HW111552   2.035   0.552   3.229
 3664SOL    HW211553   1.937   0.623   3.320
 3665SOL     OW11554   2.425   0.231   3.023
 3665SOL    HW111555   2.450   0.139   3.033
 3665SOL    HW211556   2.336   0.236   3.056
 3666SOL     OW11557   2.732   0.461   2.500
 3666SOL    HW111558   2.684   0.515   2.437
 3666SOL    HW211559   2.753   0.381   2.452
 3667SOL     OW11560   2.858   0.040   2.642
 3667SOL    HW111561   2.821   0.068   2.559
 3667SOL    HW211562   2.869   3.945   2.632
 3668SOL     OW11563   3.302   1.161   2.720
 3668SOL    HW111564   3.230   1.098   2.718
 3668SOL    HW211565   3.327   1.171   2.628
 3669SOL     OW11566   3.326   0.608   2.836
 3669SOL    HW111567   3.273   0.529   2.841
 3669SOL    HW211568   3.386   0.601   2.910
 3670SOL     OW11569   3.722   0.824   2.237
 3670SOL    HW111570   3.763   0.767   2.301
 3670SOL    HW211571   3.683   0.764   2.173
 3671SOL     OW11572   2.354   1.420   2.015
 3671SOL    HW111573   2.279   1.394   2.068
 3671SOL    HW211574   2.342   1.374   1.932
 3672SOL     OW11575   3.529   1.265   2.506
 3672SOL    HW111576   3.624   1.268   2.516
 3672SOL    HW211577   3.500   1.354   2.527
 3673SOL     OW11578   3.257   0.575   1.931
 3673SOL    HW111579   3.193   0.556   2.000
 3673SOL    HW211580   3.342   0.559   1.972
 3674SOL     OW11581   2.388   0.267   2.178
 3674SOL    HW111582   2.443   0.228   2.110
 3674SOL    HW211583   2.360   0.350   2.141
 3675SOL     OW11584   3.613   1.234   3.428
 3675SOL    HW111585   3.701   1.199   3.411
 3675SOL    HW211586   3.629   1.323   3.458
 3676SOL     OW11587   2.919   1.354   3.195
 3676SOL    HW111588   2.844   1.322   3.246
 3676SOL    HW211589   2.994   1.312   3.236
 3677SOL     OW11590   3.468   1.628   3.518
 3677SOL    HW111591   3.460   1.663   3.429
 3677SOL    HW211592   3.548   1.577   3.517
 3678SOL     OW11593   2.994   1.207   2.966
 3678SOL    HW111594   2.933   1.244   3.030
 3678SOL    HW211595   2.963   1.240   2.882
 3679SOL     OW11596   3.490   1.096   2.937
 3679SOL    HW111597   3.481   1.157   3.009
 3679SOL    HW211598   3.413   1.112   2.882
 3680SOL     OW11599   2.774   0.116   3.263
 3680SOL    HW111600   2.794   0.089   3.174
 3680SOL    HW211601   2.855   0.158   3.294
 3681SOL     OW11602   2.846   1.115   3.586
 3681SOL    HW111603   2.755   1.132   3.608
 3681SOL    HW211604   2.843   1.037   3.530
 3682SOL     OW11605   2.571   1.062   2.233
 3682SOL    HW111606   2.557   1.044   2.326
 3682SOL    HW211607   2.647   1.009   2.209
 3683SOL     OW11608   2.282   0.816   3.114
 3683SOL    HW111609   2.351   0.824   3.180
 3683SOL    HW211610   2.247   0.728   3.126
 3684SOL     OW11611   3.128   0.375   3.138
 3684SOL    HW111612   3.162   0.453   3.182
 3684SOL    HW211613   3.041   0.400   3.108
 3685SOL     OW11614   1.935   1.578   3.216
 3685SOL    HW111615   1.900   1.641   3.153
 3685SOL    HW211616   2.029   1.579   3.202
 3686SOL     OW11617   2.207   1.112   2.352
 3686SOL    HW111618   2.212   1.187   2.293
 3686SOL    HW211619   2.204   1.036   2.295
 3687SOL     OW11620   2.416   0.532   2.719
 3687SOL    HW111621   2.430   0.592   2.645
 3687SOL    HW211622   2.481   0.559   2.784
 3688SOL     OW11623   3.110   1.349   2.251
 3688SOL    HW111624   3.165   1.420   2.283
 3688SOL    HW211625   3.023   1.370   2.285
 3689SOL     OW11626   3.146   1.459   3.010
 3689SOL    HW111627   3.202   1.463   3.087
 3689SOL    HW211628   3.092   1.382   3.023
 3690SOL     OW11629   3.434   0.632   2.347
 3690SOL    HW111630   3.392   0.688   2.413
 3690SOL    HW211631   3.482   0.693   2.291
 3691SOL     OW11632   2.214   1.516   3.178
 3691SOL    HW111633   2.200   1.472   3.094
 3691SOL    HW211634   2.309   1.527   3.184
 3692SOL     OW11635   2.279   0.745   3.464
 3692SOL    HW111636   2.340   0.789   3.406
 3692SOL    HW211637   2.320   0.660   3.481
 3693SOL     OW11638   3.466   0.778   3.545
 3693SOL    HW111639   3.380   0.821   3.539
 3693SOL    HW211640   3.519   0.821   3.478
 3694SOL     OW11641   2.876   0.132   3.642
 3694SOL    HW111642   2.925   0.204   3.604
 3694SOL    HW211643   2.859   0.073   3.568
 3695SOL     OW11644   2.350   0.034   3.624
 3695SOL    HW111645   2.353   0.047   3.529
 3695SOL    HW211646   2.291   0.102   3.655
 3696SOL     OW11647   2.446   0.874   2.894
 3696SOL    HW111648   2.476   0.965   2.895
 3696SOL    HW211649   2.389   0.866   2.970
 3697SOL     OW11650   3.215   0.859   2.888
 3697SOL    HW111651   3.131   0.847   2.845
 3697SOL    HW211652   3.258   0.774   2.881
 3698SOL     OW11653   3.063   0.537   2.120
 3698SOL    HW111654   3.071   0.458   2.173
 3698SOL    HW211655   3.019   0.600   2.177
 3699SOL     OW11656   2.161   0.209   3.105
 3699SOL    HW111657   2.120   0.238   3.186
 3699SOL    HW211658   2.150   0.114   3.105
 3700SOL     OW11659   1.906   1.313   3.140
 3700SOL    HW111660   1.940   1.257   3.210
 3700SOL    HW211661   1.914   1.402   3.174
 3701SOL     OW11662   2.584   0.632   2.914
 3701SOL    HW111663   2.660   0.619   2.857
 3701SOL    HW211664   2.555   0.721   2.895
 3702SOL     OW11665   3.594   0.957   3.724
 3702SOL    HW111666   3.551   0.895   3.665
 3702SOL    HW211667   3.530   0.972   3.794
 3703SOL     OW11668   2.185   0.056   2.513
 3703SOL    HW111669   2.165   0.149   2.525
 3703SOL    HW211670   2.149   0.014   2.591
 3704SOL     OW11671   3.474   0.392   2.241
 3704SOL    HW111672   3.436   0.323   2.296
 3704SOL    HW211673   3.452   0.473   2.287
 3705SOL     OW11674   2.892   0.759   2.821
 3705SOL    HW111675   2.885   0.776   2.915
 3705SOL    HW211676   2.864   0.668   2.811
 3706SOL     OW11677   2.844   1.567   3.581
 3706SOL    HW111678   2.829   1.610   3.497
 3706SOL    HW211679   2.887   1.484   3.558
 3707SOL     OW11680   3.705   1.499   3.460
 3707SOL    HW111681   3.728   1.528   3.372
 3707SOL    HW211682   3.785   1.509   3.511
 3708SOL     OW11683   2.214   0.915   3.671
 3708SOL    HW111684   2.296   0.935   3.717
 3708SOL    HW211685   2.240   0.853   3.603
 3709SOL     OW11686   3.364   0.274   1.996
 3709SOL    HW111687   3.290   0.214   2.007
 3709SOL    HW211688   3.376   0.312   2.083
 3710SOL     OW11689   3.150   0.826   1.890
 3710SOL    HW111690   3.193   0.741   1.894
 3710SOL    HW211691   3.183   0.866   1.810
 3711SOL     OW11692   2.929   1.337   2.718
 3711SOL    HW111693   2.933   1.265   2.655
 3711SOL    HW211694   2.989   1.403   2.682
 3712SOL     OW11695   2.170   0.810   2.808
 3712SOL    HW111696   2.263   0.831   2.802
 3712SOL    HW211697   2.167   0.719   2.840
 3713SOL     OW11698   2.198   0.536   2.876
 3713SOL    HW111699   2.157   0.451   2.860
 3713SOL    HW211700   2.274   0.537   2.818
 3714SOL     OW11701   2.995   0.381   3.558
 3714SOL    HW111702   2.946   0.435   3.620
 3714SOL    HW211703   3.081   0.421   3.554
 3715SOL     OW11704   3.013   0.226   3.343
 3715SOL    HW111705   3.004   0.280   3.421
 3715SOL    HW211706   3.038   0.288   3.274
 3716SOL     OW11707   1.866   1.317   2.055
 3716SOL    HW111708   1.779   1.330   2.019
 3716SOL    HW211709   1.865   1.228   2.090
 3717SOL     OW11710   1.982   1.714   2.846
 3717SOL    HW111711   1.939   1.659   2.781
 3717SOL    HW211712   2.044   1.766   2.796
 3718SOL     OW11713   2.360   1.569   2.771
 3718SOL    HW111714   2.428   1.632   2.794
 3718SOL    HW211715   2.403   1.508   2.712
 3719SOL     OW11716   2.841   0.788   3.086
 3719SOL    HW111717   2.897   0.769   3.161
 3719SOL    HW211718   2.755   0.753   3.111
 3720SOL     OW11719   1.895   0.547   2.979
 3720SOL    HW111720   1.970   0.522   2.925
 3720SOL    HW211721   1.929   0.547   3.068
 3721SOL     OW11722   2.065   0.527   3.575
 3721SOL    HW111723   2.136   0.506   3.513
 3721SOL    HW211724   2.021   0.602   3.536
 3722SOL     OW11725   3.242   0.936   3.519
 3722SOL    HW111726   3.263   1.030   3.517
 3722SOL    HW211727   3.237   0.910   3.428
 3723SOL     OW11728   2.679   0.572   2.226
 3723SOL    HW111729   2.685   0.497   2.167
 3723SOL    HW211730   2.604   0.622   2.193
 3724SOL     OW11731   3.502   0.602   3.045
 3724SOL    HW111732   3.491   0.541   3.118
 3724SOL    HW211733   3.588   0.581   3.009
 3725SOL     OW11734   2.114   1.539   3.568
 3725SOL    HW111735   2.094   1.608   3.631
 3725SOL    HW211736   2.118   1.459   3.621
 3726SOL     OW11737   2.570   0.453   3.118
 3726SOL    HW111738   2.519   0.376   3.093
 3726SOL    HW211739   2.561   0.513   3.044
 3727SOL     OW11740   2.785   1.679   3.332
 3727SOL    HW111741   2.763   1.642   3.247
 3727SOL    HW211742   2.781   1.774   3.318
 3728SOL     OW11743   2.325   0.494   2.045
 3728SOL    HW111744   2.383   0.566   2.069
 3728SOL    HW211745   2.239   0.535   2.033
 3729SOL     OW11746   2.004   1.141   3.335
 3729SOL    HW111747   2.007   1.092   3.417
 3729SOL    HW211748   2.022   1.076   3.267
 3730SOL     OW11749   3.184   1.045   3.084
 3730SOL    HW111750   3.207   0.982   3.016
 3730SOL    HW211751   3.116   1.100   3.044
 3731SOL     OW11752   3.176   0.855   2.167
 3731SOL    HW111753   3.100   0.827   2.219
 3731SOL    HW211754   3.148   0.843   2.076
 3732SOL     OW11755   3.642   1.741   3.019
 3732SOL    HW111756   3.697   1.769   2.946
 3732SOL    HW211757   3.613   1.654   2.995
 3733SOL     OW11758   3.102   1.734   2.972
 3733SOL    HW111759   3.185   1.756   2.928
 3733SOL    HW211760   3.110   1.640   2.991
 3734SOL     OW11761   1.949   1.263   2.876
 3734SOL    HW111762   1.932   1.280   2.969
 3734SOL    HW211763   1.875   1.211   2.846
 3735SOL     OW11764   2.543   1.665   3.593
 3735SOL    HW111765   2.492   1.746   3.591
 3735SOL    HW211766   2.611   1.678   3.527
 3736SOL     OW11767   3.551   0.120   2.350
 3736SOL    HW111768   3.632   0.135   2.301
 3736SOL    HW211769   3.553   0.027   2.371
 3737SOL     OW11770   3.252   1.567   2.350
 3737SOL    HW111771   3.312   1.600   2.283
 3737SOL    HW211772   3.204   1.644   2.378
 3738SOL     OW11773   2.029   1.742   3.722
 3738SOL    HW111774   1.967   1.691   3.774
 3738SOL    HW211775   2.008   1.833   3.740
 3739SOL     OW11776   3.139   0.927   2.533
 3739SOL    HW111777   3.214   0.867   2.543
 3739SOL    HW211778   3.173   0.999   2.480
 3740SOL     OW11779   2.672   1.274   3.289
 3740SOL    HW111780   2.644   1.314   3.371
 3740SOL    HW211781   2.602   1.295   3.227
 3741SOL     OW11782   2.535   1.622   2.012
 3741SOL    HW111783   2.546   1.633   1.918
 3741SOL    HW211784   2.479   1.545   2.022
 3742SOL     OW11785   3.482   1.727   3.253
 3742SOL    HW111786   3.537   1.732   3.175
 3742SOL    HW211787   3.469   1.818   3.279
 3743SOL     OW11788   3.703   0.182   2.833
 3743SOL    HW111789   3.727   0.097   2.795
 3743SOL    HW211790   3.617   0.201   2.796
 3744SOL     OW11791   2.126   0.316   2.577
 3744SOL    HW111792   2.039   0.351   2.555
 3744SOL    HW211793   2.125   0.308   2.672
 3745SOL     OW11794   3.070   1.604   1.894
 3745SOL    HW111795   3.059   1.513   1.921
 3745SOL    HW211796   3.004   1.617   1.826
 3746SOL     OW11797   2.686   1.006   3.235
 3746SOL    HW111798   2.728   1.002   3.149
 3746SOL    HW211799   2.684   1.099   3.256
 3747SOL     OW11800   2.778   0.911   2.152
 3747SOL    HW111801   2.839   0.943   2.086
 3747SOL    HW211802   2.826   0.842   2.198
 3748SOL     OW11803   3.351   1.628   1.905
 3748SOL    HW111804   3.257   1.619   1.890
 3748SOL    HW211805   3.389   1.634   1.817
 3749SOL     OW11806   2.232   1.298   3.355
 3749SOL    HW111807   2.219   1.376   3.301
 3749SOL    HW211808   2.154   1.245   3.339
 3750SOL     OW11809   3.463   1.280   3.139
 3750SOL    HW111810   3.531   1.272   3.206
 3750SOL    HW211811   3.406   1.349   3.172
 3751SOL     OW11812   2.918   1.109   2.571
 3751SOL    HW111813   2.846   1.058   2.608
 3751SOL    HW211814   2.981   1.043   2.541
 3752SOL     OW11815   2.876   0.249   2.831
 3752SOL    HW111816   2.867   0.198   2.751
 3752SOL    HW211817   2.872   0.183   2.901
 3753SOL     OW11818   2.466   1.489   2.343
 3753SOL    HW111819   2.508   1.440   2.273
 3753SOL    HW211820   2.404   1.547   2.297
 3754SOL     OW11821   3.582   0.394   3.234
 3754SOL    HW111822   3.654   0.457   3.234
 3754SOL    HW211823   3.614   0.321   3.180
 3755SOL     OW11824   2.121   1.345   2.149
 3755SOL    HW111825   2.028   1.340   2.128
 3755SOL    HW211826   2.124   1.379   2.238
 3756SOL     OW11827   1.975   1.027   3.583
 3756SOL    HW111828   1.899   1.002   3.635
 3756SOL    HW211829   2.049   0.986   3.629
 3757SOL     OW11830   2.555   0.255   3.363
 3757SOL    HW111831   2.622   0.200   3.322
 3757SOL    HW211832   2.582   0.261   3.455
 3758SOL     OW11833   1.962   0.317   1.853
 3758SOL    HW111834   1.894   0.337   1.918
 3758SOL    HW211835   1.970   0.398   1.802
 3759SOL     OW11836   3.287   0.857   3.260
 3759SOL    HW111837   3.238   0.919   3.207
 3759SOL    HW211838   3.376   0.859   3.224
 3760SOL     OW11839   1.943   0.152   2.202
 3760SOL    HW111840   1.912   0.212   2.133
 3760SOL    HW211841   2.029   0.124   2.172
 3761SOL     OW11842   3.040   1.338   1.980
 3761SOL    HW111843   2.950   1.307   1.982
 3761SOL    HW211844   3.068   1.338   2.071
 3762SOL     OW11845   2.483   0.829   3.296
 3762SOL    HW111846   2.539   0.905   3.281
 3762SOL    HW211847   2.544   0.755   3.305
 3763SOL     OW11848   3.344   1.781   2.842
 3763SOL    HW111849   3.367   1.843   2.773
 3763SOL    HW211850   3.428   1.754   2.879
 3764SOL     OW11851   2.580   0.561   3.566
 3764SOL    HW111852   2.622   0.623   3.625
 3764SOL    HW211853   2.606   0.475   3.600
 3765SOL     OW11854   3.335   1.197   3.492
 3765SOL    HW111855   3.323   1.212   3.586
 3765SOL    HW211856   3.428   1.213   3.477
 3766SOL     OW11857   2.237   1.745   3.430
 3766SOL    HW111858   2.165   1.763   3.370
 3766SOL    HW211859   2.213   1.662   3.471
 3767SOL     OW11860   3.526   0.881   3.121
 3767SOL    HW111861   3.526   0.795   3.077
 3767SOL    HW211862   3.520   0.944   3.050
 3768SOL     OW11863   3.083   0.337   2.305
 3768SOL    HW111864   3.151   0.271   2.296
 3768SOL    HW211865   3.103   0.381   2.388
 3769SOL     OW11866   2.451   0.736   2.533
 3769SOL    HW111867   2.490   0.822   2.518
 3769SOL    HW211868   2.385   0.728   2.465
 3770SOL     OW11869   3.616   0.381   3.504
 3770SOL    HW111870   3.595   0.390   3.411
 3770SOL    HW211871   3.556   0.314   3.536
 3771SOL     OW11872   3.616   0.930   3.375
 3771SOL    HW111873   3.607   1.024   3.393
 3771SOL    HW211874   3.592   0.920   3.283
 3772SOL     OW11875   2.723   1.366   1.899
 3772SOL    HW111876   2.687   1.393   1.984
 3772SOL    HW211877   2.741   1.449   1.854
 3773SOL     OW11878   2.523   1.792   2.804
 3773SOL    HW111879   2.507   1.883   2.777
 3773SOL    HW211880   2.617   1.781   2.796
 3774SOL     OW11881   2.730   0.969   2.716
 3774SOL    HW111882   2.781   0.897   2.755
 3774SOL    HW211883   2.694   1.015   2.792
 3775SOL     OW11884   2.940   0.989   1.951
 3775SOL    HW111885   2.918   1.040   1.873
 3775SOL    HW211886   3.014   0.935   1.924
 3776SOL     OW11887   3.714   1.556   2.703
 3776SOL    HW111888   3.635   1.540   2.652
 3776SOL    HW211889   3.713   1.489   2.771
 3777SOL     OW11890   2.089   1.301   3.717
 3777SOL    HW111891   2.022   1.238   3.690
 3777SOL    HW211892   2.073   1.312   3.811
 3778SOL     OW11893   1.944   1.224   2.527
 3778SOL    HW111894   1.957   1.179   2.611
 3778SOL    HW211895   2.016   1.193   2.472
 3779SOL     OW11896   2.543   1.404   3.489
 3779SOL    HW111897   2.465   1.361   3.523
 3779SOL    HW211898   2.540   1.492   3.528
 3780SOL     OW11899   3.676   0.181   3.106
 3780SOL    HW111900   3.678   0.086   3.115
 3780SOL    HW211901   3.694   0.198   3.014
 3781SOL     OW11902   2.290   0.435   2.387
 3781SOL    HW111903   2.324   0.363   2.334
 3781SOL    HW211904   2.243   0.391   2.458
 3782SOL     OW11905   3.558   1.491   2.959
 3782SOL    HW111906   3.480   1.468   2.909
 3782SOL    HW211907   3.569   1.419   3.021
 3783SOL     OW11908   2.193   0.556   3.156
 3783SOL    HW111909   2.246   0.497   3.210
 3783SOL    HW211910   2.212   0.530   3.066
 3784SOL     OW11911   2.691   1.578   2.539
 3784SOL    HW111912   2.676   1.638   2.466
 3784SOL    HW211913   2.616   1.519   2.538
 3785SOL     OW11914   3.323   0.253   2.972
 3785SOL    HW111915   3.337   0.165   3.007
 3785SOL    HW211916   3.267   0.296   3.037
 3786SOL     OW11917   2.866   0.027   3.008
 3786SOL    HW111918   2.785   3.991   2.973
 3786SOL    HW211919   2.925   3.952   3.017
 3787SOL     OW11920   2.636   1.333   2.178
 3787SOL    HW111921   2.606   1.243   2.186
 3787SOL    HW211922   2.716   1.336   2.230
 3788SOL     OW11923   2.483   1.555   3.148
 3788SOL    HW111924   2.484   1.638   3.196
 3788SOL    HW211925   2.571   1.548   3.111
 3789SOL     OW11926   3.173   0.071   2.021
 3789SOL    HW111927   3.179   3.989   1.972
 3789SOL    HW211928   3.088   0.066   2.066
 3790SOL     OW11929   3.143   0.457   2.547
 3790SOL    HW111930   3.097   0.540   2.542
 3790SOL    HW211931   3.146   0.437   2.641
 3791SOL     OW11932   3.452   0.210   2.729
 3791SOL    HW111933   3.404   0.234   2.808
 3791SOL    HW211934   3.451   0.290   2.676
 3792SOL     OW11935   1.906   1.070   2.168
 3792SOL    HW111936   2.000   1.061   2.151
 3792SOL    HW211937   1.878   0.981   2.192
 3793SOL     OW11938   2.750   1.654   2.200
 3793SOL    HW111939   2.675   1.640   2.143
 3793SOL    HW211940   2.724   1.728   2.256
 3794SOL     OW11941   2.089   0.620   3.845
 3794SOL    HW111942   1.999   0.628   3.877
 3794SOL    HW211943   2.080   0.600   3.752
 3795SOL     OW11944   2.079   0.301   4.715
 3795SOL    HW111945   2.116   0.257   4.792
 3795SOL    HW211946   1.994   0.258   4.702
 3796SOL     OW11947   1.871   0.397   4.357
 3796SOL    HW111948   1.784   0.412   4.395
 3796SOL    HW211949   1.857   0.328   4.293
 3797SOL     OW11950   2.430   1.291   4.902
 3797SOL    HW111951   2.344   1.295   4.861
 3797SOL    HW211952   2.446   1.380   4.933
 3798SOL     OW11953   3.426   1.513   4.432
 3798SOL    HW111954   3.383   1.491   4.515
 3798SOL    HW211955   3.354   1.517   4.368
 3799SOL     OW11956   2.994   0.698   4.421
 3799SOL    HW111957   3.042   0.780   4.408
 3799SOL    HW211958   2.947   0.711   4.503
 3800SOL     OW11959   3.623   0.623   3.950
 3800SOL    HW111960   3.605   0.612   3.857
 3800SOL    HW211961   3.606   0.538   3.989
 3801SOL     OW11962   2.615   1.140   4.768
 3801SOL    HW111963   2.546   1.176   4.825
 3801SOL    HW211964   2.651   1.217   4.723
 3802SOL     OW11965   2.733   0.770   5.547
 3802SOL    HW111966   2.720   0.841   5.610
 3802SOL    HW211967   2.755   0.814   5.466
 3803SOL     OW11968   2.548   1.000   4.369
 3803SOL    HW111969   2.613   0.990   4.438
 3803SOL    HW211970   2.479   1.053   4.408
 3804SOL     OW11971   2.575   1.150   5.539
 3804SOL    HW111972   2.622   1.228   5.568
 3804SOL    HW211973   2.493   1.185   5.503
 3805SOL     OW11974   2.194   1.417   4.792
 3805SOL    HW111975   2.118   1.384   4.745
 3805SOL    HW211976   2.240   1.471   4.728
 3806SOL     OW11977   3.321   1.501   5.081
 3806SOL    HW111978   3.375   1.580   5.090
 3806SOL    HW211979   3.256   1.508   5.152
 3807SOL     OW11980   2.307   0.393   5.217
 3807SOL    HW111981   2.397   0.362   5.216
 3807SOL    HW211982   2.254   0.314   5.225
 3808SOL     OW11983   3.473   0.450   4.459
 3808SOL    HW111984   3.403   0.483   4.402
 3808SOL    HW211985   3.495   0.524   4.516
 3809SOL     OW11986   2.096   1.697   4.185
 3809SOL    HW111987   2.128   1.763   4.246
 3809SOL    HW211988   2.168   1.687   4.122
 3810SOL     OW11989   2.999   1.342   5.418
 3810SOL    HW111990   3.040   1.336   5.504
 3810SOL    HW211991   2.947   1.262   5.411
 3811SOL     OW11992   2.090   1.434   4.260
 3811SOL    HW111993   2.079   1.529   4.254
 3811SOL    HW211994   2.028   1.407   4.328
 3812SOL     OW11995   2.123   1.090   4.615
 3812SOL    HW111996   2.119   1.003   4.654
 3812SOL    HW211997   2.066   1.144   4.670
 3813SOL     OW11998   2.470   1.792   5.151
 3813SOL    HW111999   2.390   1.774   5.201
 3813SOL    HW212000   2.496   1.880   5.180
 3814SOL     OW12001   2.444   0.984   3.861
 3814SOL    HW112002   2.492   1.030   3.792
 3814SOL    HW212003   2.484   1.015   3.942
 3815SOL     OW12004   3.444   0.141   5.180
 3815SOL    HW112005   3.470   0.214   5.124
 3815SOL    HW212006   3.408   0.183   5.258
 3816SOL     OW12007   1.979   0.656   4.284
 3816SOL    HW112008   1.952   0.568   4.307
 3816SOL    HW212009   1.971   0.706   4.366
 3817SOL     OW12010   3.702   1.757   4.060
 3817SOL    HW112011   3.772   1.733   4.121
 3817SOL    HW212012   3.721   1.848   4.038
 3818SOL     OW12013   1.865   1.602   3.884
 3818SOL    HW112014   1.854   1.509   3.867
 3818SOL    HW212015   1.889   1.608   3.976
 3819SOL     OW12016   3.549   0.918   4.370
 3819SOL    HW112017   3.634   0.875   4.353
 3819SOL    HW212018   3.532   0.968   4.290
 3820SOL     OW12019   3.504   1.104   4.156
 3820SOL    HW112020   3.589   1.110   4.111
 3820SOL    HW212021   3.510   1.167   4.227
 3821SOL     OW12022   1.985   0.749   5.305
 3821SOL    HW112023   2.075   0.781   5.309
 3821SOL    HW212024   1.931   0.829   5.310
 3822SOL     OW12025   2.476   1.388   4.458
 3822SOL    HW112026   2.431   1.304   4.467
 3822SOL    HW212027   2.459   1.415   4.368
 3823SOL     OW12028   3.149   1.237   5.147
 3823SOL    HW112029   3.181   1.170   5.086
 3823SOL    HW212030   3.208   1.232   5.222
 3824SOL     OW12031   2.682   0.004   4.241
 3824SOL    HW112032   2.727   0.085   4.216
 3824SOL    HW212033   2.589   0.028   4.241
 3825SOL     OW12034   2.051   0.962   5.000
 3825SOL    HW112035   2.136   0.923   4.984
 3825SOL    HW212036   1.991   0.913   4.944
 3826SOL     OW12037   3.390   0.996   3.925
 3826SOL    HW112038   3.321   0.939   3.958
 3826SOL    HW212039   3.433   1.031   4.003
 3827SOL     OW12040   3.047   1.808   5.347
 3827SOL    HW112041   3.056   1.868   5.273
 3827SOL    HW212042   3.065   1.722   5.311
 3828SOL     OW12043   2.219   0.253   5.563
 3828SOL    HW112044   2.263   0.338   5.561
 3828SOL    HW212045   2.126   0.274   5.567
 3829SOL     OW12046   3.328   1.420   4.673
 3829SOL    HW112047   3.261   1.435   4.740
 3829SOL    HW212048   3.317   1.328   4.648
 3830SOL     OW12049   3.515   1.746   4.303
 3830SOL    HW112050   3.500   1.713   4.214
 3830SOL    HW212051   3.495   1.671   4.360
 3831SOL     OW12052   2.457   0.720   3.992
 3831SOL    HW112053   2.461   0.803   3.944
 3831SOL    HW212054   2.392   0.735   4.061
 3832SOL     OW12055   3.137   0.368   4.665
 3832SOL    HW112056   3.049   0.330   4.672
 3832SOL    HW212057   3.194   0.307   4.710
 3833SOL     OW12058   3.439   1.671   4.034
 3833SOL    HW112059   3.530   1.701   4.027
 3833SOL    HW212060   3.413   1.655   3.943
 3834SOL     OW12061   2.657   0.616   5.176
 3834SOL    HW112062   2.629   0.590   5.264
 3834SOL    HW212063   2.619   0.550   5.118
 3835SOL     OW12064   3.254   0.476   5.401
 3835SOL    HW112065   3.260   0.521   5.485
 3835SOL    HW212066   3.311   0.400   5.411
 3836SOL     OW12067   2.814   0.887   5.308
 3836SOL    HW112068   2.869   0.818   5.271
 3836SOL    HW212069   2.766   0.922   5.233
 3837SOL     OW12070   2.854   0.402   4.962
 3837SOL    HW112071   2.770   0.423   5.001
 3837SOL    HW212072   2.834   0.375   4.873
 3838SOL     OW12073   2.914   0.699   4.149
 3838SOL    HW112074   2.931   0.693   4.243
 3838SOL    HW212075   2.831   0.653   4.136
 3839SOL     OW12076   1.949   0.823   4.501
 3839SOL    HW112077   2.030   0.815   4.552
 3839SOL    HW212078   1.906   0.900   4.536
 3840SOL     OW12079   2.757   0.352   3.924
 3840SOL    HW112080   2.799   0.411   3.861
 3840SOL    HW212081   2.750   0.269   3.877
 3841SOL     OW12082   3.570   0.574   5.553
 3841SOL    HW112083   3.532   0.648   5.506
 3841SOL    HW212084   3.595   0.512   5.485
 3842SOL     OW12085   3.239   1.141   4.264
 3842SOL    HW112086   3.319   1.130   4.213
 3842SOL    HW212087   3.187   1.204   4.214
 3843SOL     OW12088   2.420   0.199   4.605
 3843SOL    HW112089   2.423   0.218   4.698
 3843SOL    HW212090   2.416   0.285   4.563
 3844SOL     OW12091   2.865   1.443   4.195
 3844SOL    HW112092   2.831   1.517   4.144
 3844SOL    HW212093   2.844   1.464   4.286
 3845SOL     OW12094   2.220   1.804   4.587
 3845SOL    HW112095   2.255   1.716   4.599
 3845SOL    HW212096   2.290   1.862   4.618
 3846SOL     OW12097   3.667   1.062   4.591
 3846SOL    HW112098   3.613   1.037   4.516
 3846SOL    HW212099   3.605   1.065   4.665
 3847SOL     OW12100   3.089   1.539   5.237
 3847SOL    HW112101   3.077   1.467   5.299
 3847SOL    HW212102   3.025   1.523   5.168
 3848SOL     OW12103   2.180   0.960   3.976
 3848SOL    HW112104   2.263   0.979   3.931
 3848SOL    HW212105   2.151   0.877   3.938
 3849SOL     OW12106   3.342   0.746   4.452
 3849SOL    HW112107   3.336   0.705   4.539
 3849SOL    HW212108   3.419   0.803   4.458
 3850SOL     OW12109   2.329   1.266   5.465
 3850SOL    HW112110   2.303   1.270   5.373
 3850SOL    HW212111   2.247   1.262   5.513
 3851SOL     OW12112   2.985   1.778   3.953
 3851SOL    HW112113   2.911   1.737   3.998
 3851SOL    HW212114   3.009   1.716   3.885
 3852SOL     OW12115   2.032   0.275   5.223
 3852SOL    HW112116   1.976   0.352   5.213
 3852SOL    HW212117   2.038   0.261   5.318
 3853SOL     OW12118   3.487   1.383   3.811
 3853SOL    HW112119   3.444   1.468   3.796
 3853SOL    HW212120   3.420   1.318   3.792
 3854SOL     OW12121   2.340   1.711   4.060
 3854SOL    HW112122   2.379   1.786   4.104
 3854SOL    HW212123   2.396   1.696   3.983
 3855SOL     OW12124   3.297   0.170   4.126
 3855SOL    HW112125   3.252   0.096   4.085
 3855SOL    HW212126   3.372   0.131   4.170
 3856SOL     OW12127   2.155   1.767   4.944
 3856SOL    HW112128   2.195   1.685   4.974
 3856SOL    HW212129   2.112   1.744   4.862
 3857SOL     OW12130   2.799   1.698   4.623
 3857SOL    HW112131   2.878   1.649   4.644
 3857SOL    HW212132   2.757   1.648   4.552
 3858SOL     OW12133   2.257   0.695   4.198
 3858SOL    HW112134   2.275   0.602   4.211
 3858SOL    HW212135   2.163   0.704   4.216
 3859SOL     OW12136   3.392   0.229   5.451
 3859SOL    HW112137   3.385   0.255   5.543
 3859SOL    HW212138   3.373   0.136   5.450
 3860SOL     OW12139   2.505   0.130   3.832
 3860SOL    HW112140   2.529   0.046   3.872
 3860SOL    HW212141   2.443   0.108   3.763
 3861SOL     OW12142   2.637   0.282   5.492
 3861SOL    HW112143   2.709   0.220   5.495
 3861SOL    HW212144   2.580   0.256   5.564
 3862SOL     OW12145   2.738   1.522   4.918
 3862SOL    HW112146   2.722   1.485   4.831
 3862SOL    HW212147   2.808   1.468   4.954
 3863SOL     OW12148   3.202   0.587   5.154
 3863SOL    HW112149   3.232   0.559   5.241
 3863SOL    HW212150   3.236   0.676   5.145
 3864SOL     OW12151   2.678   1.393   4.666
 3864SOL    HW112152   2.763   1.381   4.623
 3864SOL    HW212153   2.615   1.396   4.594
 3865SOL     OW12154   2.792   0.511   4.624
 3865SOL    HW112155   2.767   0.503   4.532
 3865SOL    HW212156   2.818   0.423   4.650
 3866SOL     OW12157   2.407   0.057   4.215
 3866SOL    HW112158   2.333   0.062   4.275
 3866SOL    HW212159   2.402   0.138   4.164
 3867SOL     OW12160   3.289   1.199   3.764
 3867SOL    HW112161   3.319   1.124   3.815
 3867SOL    HW212162   3.204   1.221   3.802
 3868SOL     OW12163   2.191   0.044   3.935
 3868SOL    HW112164   2.200   0.111   3.867
 3868SOL    HW212165   2.274   0.048   3.984
 3869SOL     OW12166   2.804   0.250   4.184
 3869SOL    HW112167   2.779   0.290   4.100
 3869SOL    HW212168   2.900   0.254   4.185
 3870SOL     OW12169   2.942   0.684   5.183
 3870SOL    HW112170   2.872   0.619   5.189
 3870SOL    HW212171   3.022   0.632   5.177
 3871SOL     OW12172   3.083   1.572   4.519
 3871SOL    HW112173   3.099   1.637   4.451
 3871SOL    HW212174   3.153   1.586   4.583
 3872SOL     OW12175   2.333   1.151   4.455
 3872SOL    HW112176   2.265   1.131   4.519
 3872SOL    HW212177   2.291   1.136   4.370
 3873SOL     OW12178   3.129   1.793   4.334
 3873SOL    HW112179   3.177   1.854   4.278
 3873SOL    HW212180   3.062   1.846   4.375
 3874SOL     OW12181   2.884   0.543   3.752
 3874SOL    HW112182   2.840   0.625   3.733
 3874SOL    HW212183   2.947   0.565   3.820
 3875SOL     OW12184   1.944   0.550   5.120
 3875SOL    HW112185   2.035   0.552   5.091
 3875SOL    HW212186   1.937   0.623   5.182
 3876SOL     OW12187   2.425   0.231   4.885
 3876SOL    HW112188   2.450   0.139   4.895
 3876SOL    HW212189   2.336   0.236   4.918
 3877SOL     OW12190   2.732   0.461   4.362
 3877SOL    HW112191   2.684   0.515   4.299
 3877SOL    HW212192   2.753   0.381   4.314
 3878SOL     OW12193   2.858   0.040   4.504
 3878SOL    HW112194   2.821   0.068   4.421
 3878SOL    HW212195   2.869   3.945   4.494
 3879SOL     OW12196   3.302   1.161   4.582
 3879SOL    HW112197   3.230   1.098   4.580
 3879SOL    HW212198   3.327   1.171   4.490
 3880SOL     OW12199   3.326   0.608   4.698
 3880SOL    HW112200   3.273   0.529   4.703
 3880SOL    HW212201   3.386   0.601   4.772
 3881SOL     OW12202   3.722   0.824   4.099
 3881SOL    HW112203   3.763   0.767   4.163
 3881SOL    HW212204   3.684   0.764   4.035
 3882SOL     OW12205   2.354   1.420   3.877
 3882SOL    HW112206   2.279   1.394   3.930
 3882SOL    HW212207   2.341   1.374   3.794
 3883SOL     OW12208   3.529   1.265   4.368
 3883SOL    HW112209   3.624   1.268   4.378
 3883SOL    HW212210   3.500   1.354   4.389
 3884SOL     OW12211   3.257   0.575   3.793
 3884SOL    HW112212   3.193   0.556   3.862
 3884SOL    HW212213   3.342   0.559   3.834
 3885SOL     OW12214   2.388   0.267   4.040
 3885SOL    HW112215   2.443   0.228   3.972
 3885SOL    HW212216   2.360   0.350   4.003
 3886SOL     OW12217   3.613   1.234   5.290
 3886SOL    HW112218   3.701   1.199   5.273
 3886SOL    HW212219   3.629   1.323   5.320
 3887SOL     OW12220   2.919   1.354   5.057
 3887SOL    HW112221   2.844   1.322   5.108
 3887SOL    HW212222   2.994   1.312   5.098
 3888SOL     OW12223   3.468   1.628   5.380
 3888SOL    HW112224   3.460   1.662   5.291
 3888SOL    HW212225   3.548   1.576   5.379
 3889SOL     OW12226   2.994   1.206   4.828
 3889SOL    HW112227   2.933   1.244   4.892
 3889SOL    HW212228   2.963   1.240   4.744
 3890SOL     OW12229   3.490   1.096   4.799
 3890SOL    HW112230   3.482   1.158   4.871
 3890SOL    HW212231   3.413   1.112   4.744
 3891SOL     OW12232   2.774   0.116   5.125
 3891SOL    HW112233   2.794   0.089   5.036
 3891SOL    HW212234   2.855   0.158   5.156
 3892SOL     OW12235   2.846   1.115   5.447
 3892SOL    HW112236   2.755   1.132   5.470
 3892SOL    HW212237   2.844   1.037   5.392
 3893SOL     OW12238   2.571   1.062   4.095
 3893SOL    HW112239   2.557   1.044   4.188
 3893SOL    HW212240   2.647   1.009   4.071
 3894SOL     OW12241   2.282   0.816   4.976
 3894SOL    HW112242   2.351   0.824   5.042
 3894SOL    HW212243   2.247   0.728   4.988
 3895SOL     OW12244   3.128   0.375   5.000
 3895SOL    HW112245   3.162   0.453   5.044
 3895SOL    HW212246   3.041   0.400   4.970
 3896SOL     OW12247   1.936   1.578   5.078
 3896SOL    HW112248   1.901   1.641   5.014
 3896SOL    HW212249   2.030   1.578   5.063
 3897SOL     OW12250   2.207   1.112   4.214
 3897SOL    HW112251   2.212   1.187   4.155
 3897SOL    HW212252   2.204   1.036   4.157
 3898SOL     OW12253   2.416   0.532   4.581
 3898SOL    HW112254   2.430   0.592   4.507
 3898SOL    HW212255   2.481   0.559   4.646
 3899SOL     OW12256   3.110   1.349   4.113
 3899SOL    HW112257   3.165   1.420   4.145
 3899SOL    HW212258   3.023   1.370   4.147
 3900SOL     OW12259   3.146   1.459   4.872
 3900SOL    HW112260   3.203   1.463   4.949
 3900SOL    HW212261   3.092   1.382   4.885
 3901SOL     OW12262   3.434   0.632   4.209
 3901SOL    HW112263   3.392   0.688   4.275
 3901SOL    HW212264   3.482   0.694   4.153
 3902SOL     OW12265   2.214   1.516   5.040
 3902SOL    HW112266   2.200   1.473   4.955
 3902SOL    HW212267   2.309   1.527   5.046
 3903SOL     OW12268   2.279   0.745   5.326
 3903SOL    HW112269   2.341   0.789   5.268
 3903SOL    HW212270   2.320   0.660   5.343
 3904SOL     OW12271   3.466   0.778   5.407
 3904SOL    HW112272   3.380   0.821   5.401
 3904SOL    HW212273   3.519   0.821   5.340
 3905SOL     OW12274   2.875   0.132   5.504
 3905SOL    HW112275   2.925   0.205   5.466
 3905SOL    HW212276   2.860   0.073   5.430
 3906SOL     OW12277   2.350   0.034   5.486
 3906SOL    HW112278   2.353   0.047   5.391
 3906SOL    HW212279   2.291   0.102   5.517
 3907SOL     OW12280   2.446   0.874   4.756
 3907SOL    HW112281   2.476   0.965   4.757
 3907SOL    HW212282   2.389   0.866   4.832
 3908SOL     OW12283   3.215   0.859   4.750
 3908SOL    HW112284   3.131   0.847   4.707
 3908SOL    HW212285   3.258   0.774   4.743
 3909SOL     OW12286   3.063   0.537   3.982
 3909SOL    HW112287   3.071   0.458   4.035
 3909SOL    HW212288   3.020   0.600   4.039
 3910SOL     OW12289   2.162   0.209   4.967
 3910SOL    HW112290   2.120   0.238   5.048
 3910SOL    HW212291   2.150   0.114   4.967
 3911SOL     OW12292   1.907   1.313   5.002
 3911SOL    HW112293   1.941   1.257   5.072
 3911SOL    HW212294   1.914   1.402   5.036
 3912SOL     OW12295   2.584   0.632   4.776
 3912SOL    HW112296   2.660   0.619   4.719
 3912SOL    HW212297   2.555   0.721   4.757
 3913SOL     OW12298   3.594   0.957   5.586
 3913SOL    HW112299   3.551   0.895   5.527
 3913SOL    HW212300   3.530   0.972   5.656
 3914SOL     OW12301   2.185   0.056   4.375
 3914SOL    HW112302   2.165   0.149   4.387
 3914SOL    HW212303   2.149   0.014   4.454
 3915SOL     OW12304   3.474   0.392   4.103
 3915SOL    HW112305   3.436   0.323   4.158
 3915SOL    HW212306   3.452   0.473   4.149
 3916SOL     OW12307   2.892   0.759   4.683
 3916SOL    HW112308   2.885   0.776   4.777
 3916SOL    HW212309   2.864   0.668   4.673
 3917SOL     OW12310   2.843   1.565   5.442
 3917SOL    HW112311   2.829   1.610   5.359
 3917SOL    HW212312   2.888   1.484   5.419
 3918SOL     OW12313   3.705   1.499   5.322
 3918SOL    HW112314   3.729   1.528   5.234
 3918SOL    HW212315   3.786   1.509   5.373
 3919SOL     OW12316   2.214   0.915   5.533
 3919SOL    HW112317   2.296   0.935   5.579
 3919SOL    HW212318   2.240   0.853   5.465
 3920SOL     OW12319   3.364   0.274   3.858
 3920SOL    HW112320   3.290   0.214   3.869
 3920SOL    HW212321   3.376   0.312   3.945
 3921SOL     OW12322   3.150   0.826   3.752
 3921SOL    HW112323   3.193   0.741   3.756
 3921SOL    HW212324   3.183   0.866   3.672
 3922SOL     OW12325   2.929   1.337   4.580
 3922SOL    HW112326   2.933   1.265   4.517
 3922SOL    HW212327   2.989   1.403   4.544
 3923SOL     OW12328   2.170   0.810   4.670
 3923SOL    HW112329   2.263   0.831   4.664
 3923SOL    HW212330   2.167   0.719   4.702
 3924SOL     OW12331   2.198   0.536   4.738
 3924SOL    HW112332   2.157   0.451   4.722
 3924SOL    HW212333   2.274   0.537   4.680
 3925SOL     OW12334   2.995   0.381   5.420
 3925SOL    HW112335   2.946   0.435   5.482
 3925SOL    HW212336   3.081   0.421   5.416
 3926SOL     OW12337   3.013   0.226   5.205
 3926SOL    HW112338   3.004   0.280   5.283
 3926SOL    HW212339   3.038   0.288   5.136
 3927SOL     OW12340   1.867   1.318   3.918
 3927SOL    HW112341   1.779   1.331   3.881
 3927SOL    HW212342   1.865   1.228   3.952
 3928SOL     OW12343   1.984   1.715   4.713
 3928SOL    HW112344   1.941   1.660   4.648
 3928SOL    HW212345   2.041   1.772   4.662
 3929SOL     OW12346   2.359   1.570   4.633
 3929SOL    HW112347   2.428   1.633   4.655
 3929SOL    HW212348   2.402   1.509   4.573
 3930SOL     OW12349   2.841   0.788   4.948
 3930SOL    HW112350   2.897   0.769   5.023
 3930SOL    HW212351   2.755   0.752   4.973
 3931SOL     OW12352   1.895   0.547   4.841
 3931SOL    HW112353   1.970   0.522   4.787
 3931SOL    HW212354   1.929   0.547   4.930
 3932SOL     OW12355   2.066   0.527   5.437
 3932SOL    HW112356   2.136   0.506   5.375
 3932SOL    HW212357   2.021   0.602   5.398
 3933SOL     OW12358   3.242   0.936   5.381
 3933SOL    HW112359   3.263   1.030   5.379
 3933SOL    HW212360   3.237   0.910   5.289
 3934SOL     OW12361   2.679   0.572   4.088
 3934SOL    HW112362   2.685   0.497   4.029
 3934SOL    HW212363   2.604   0.622   4.055
 3935SOL     OW12364   3.502   0.602   4.907
 3935SOL    HW112365   3.491   0.541   4.980
 3935SOL    HW212366   3.588   0.581   4.871
 3936SOL     OW12367   2.114   1.536   5.430
 3936SOL    HW112368   2.098   1.606   5.493
 3936SOL    HW212369   2.117   1.456   5.483
 3937SOL     OW12370   2.569   0.453   4.980
 3937SOL    HW112371   2.518   0.376   4.955
 3937SOL    HW212372   2.561   0.513   4.906
 3938SOL     OW12373   2.786   1.679   5.193
 3938SOL    HW112374   2.763   1.642   5.108
 3938SOL    HW212375   2.781   1.774   5.181
 3939SOL     OW12376   2.325   0.494   3.907
 3939SOL    HW112377   2.383   0.566   3.931
 3939SOL    HW212378   2.239   0.535   3.895
 3940SOL     OW12379   2.005   1.141   5.197
 3940SOL    HW112380   2.007   1.092   5.279
 3940SOL    HW212381   2.022   1.076   5.129
 3941SOL     OW12382   3.184   1.045   4.946
 3941SOL    HW112383   3.207   0.982   4.878
 3941SOL    HW212384   3.116   1.099   4.906
 3942SOL     OW12385   3.176   0.855   4.029
 3942SOL    HW112386   3.100   0.827   4.081
 3942SOL    HW212387   3.148   0.843   3.938
 3943SOL     OW12388   3.642   1.741   4.881
 3943SOL    HW112389   3.697   1.769   4.808
 3943SOL    HW212390   3.613   1.654   4.857
 3944SOL     OW12391   3.102   1.733   4.834
 3944SOL    HW112392   3.185   1.756   4.790
 3944SOL    HW212393   3.110   1.640   4.853
 3945SOL     OW12394   1.949   1.263   4.738
 3945SOL    HW112395   1.931   1.280   4.831
 3945SOL    HW212396   1.875   1.211   4.708
 3946SOL     OW12397   2.541   1.664   5.454
 3946SOL    HW112398   2.491   1.745   5.456
 3946SOL    HW212399   2.611   1.680   5.391
 3947SOL     OW12400   3.551   0.120   4.212
 3947SOL    HW112401   3.632   0.135   4.163
 3947SOL    HW212402   3.553   0.027   4.233
 3948SOL     OW12403   3.252   1.567   4.211
 3948SOL    HW112404   3.312   1.600   4.145
 3948SOL    HW212405   3.204   1.644   4.240
 3949SOL     OW12406   2.043   1.739   5.586
 3949SOL    HW112407   1.978   1.689   5.636
 3949SOL    HW212408   2.012   1.830   5.592
 3950SOL     OW12409   3.139   0.927   4.395
 3950SOL    HW112410   3.214   0.867   4.405
 3950SOL    HW212411   3.173   0.999   4.342
 3951SOL     OW12412   2.672   1.274   5.151
 3951SOL    HW112413   2.644   1.314   5.234
 3951SOL    HW212414   2.603   1.295   5.089
 3952SOL     OW12415   2.535   1.622   3.874
 3952SOL    HW112416   2.546   1.633   3.780
 3952SOL    HW212417   2.479   1.545   3.884
 3953SOL     OW12418   3.482   1.727   5.115
 3953SOL    HW112419   3.537   1.732   5.037
 3953SOL    HW212420   3.469   1.818   5.141
 3954SOL     OW12421   3.703   0.181   4.695
 3954SOL    HW112422   3.727   0.097   4.657
 3954SOL    HW212423   3.617   0.201   4.658
 3955SOL     OW12424   2.126   0.316   4.439
 3955SOL    HW112425   2.039   0.351   4.417
 3955SOL    HW212426   2.125   0.308   4.534
 3956SOL     OW12427   3.070   1.604   3.756
 3956SOL    HW112428   3.059   1.513   3.783
 3956SOL    HW212429   3.004   1.617   3.688
 3957SOL     OW12430   2.686   1.006   5.097
 3957SOL    HW112431   2.728   1.002   5.011
 3957SOL    HW212432   2.684   1.099   5.118
 3958SOL     OW12433   2.778   0.911   4.014
 3958SOL    HW112434   2.839   0.943   3.948
 3958SOL    HW212435   2.826   0.842   4.060
 3959SOL     OW12436   3.351   1.628   3.767
 3959SOL    HW112437   3.257   1.619   3.752
 3959SOL    HW212438   3.389   1.634   3.679
 3960SOL     OW12439   2.232   1.298   5.218
 3960SOL    HW112440   2.220   1.376   5.164
 3960SOL    HW212441   2.154   1.245   5.201
 3961SOL     OW12442   3.463   1.280   5.001
 3961SOL    HW112443   3.531   1.272   5.068
 3961SOL    HW212444   3.406   1.349   5.034
 3962SOL     OW12445   2.918   1.109   4.433
 3962SOL    HW112446   2.846   1.058   4.470
 3962SOL    HW212447   2.981   1.043   4.403
 3963SOL     OW12448   2.876   0.249   4.693
 3963SOL    HW112449   2.867   0.198   4.613
 3963SOL    HW212450   2.872   0.183   4.763
 3964SOL     OW12451   2.465   1.490   4.205
 3964SOL    HW112452   2.508   1.440   4.135
 3964SOL    HW212453   2.404   1.547   4.160
 3965SOL     OW12454   3.582   0.394   5.096
 3965SOL    HW112455   3.654   0.457   5.096
 3965SOL    HW212456   3.614   0.321   5.042
 3966SOL     OW12457   2.122   1.345   4.011
 3966SOL    HW112458   2.028   1.340   3.990
 3966SOL    HW212459   2.124   1.379   4.100
 3967SOL     OW12460   1.976   1.031   5.448
 3967SOL    HW112461   1.899   1.003   5.498
 3967SOL    HW212462   2.050   0.987   5.492
 3968SOL     OW12463   2.555   0.255   5.225
 3968SOL    HW112464   2.622   0.200   5.184
 3968SOL    HW212465   2.582   0.261   5.317
 3969SOL     OW12466   1.962   0.317   3.715
 3969SOL    HW112467   1.894   0.337   3.780
 3969SOL    HW212468   1.970   0.398   3.664
 3970SOL     OW12469   3.287   0.857   5.122
 3970SOL    HW112470   3.238   0.919   5.069
 3970SOL    HW212471   3.376   0.859   5.086
 3971SOL     OW12472   1.943   0.152   4.064
 3971SOL    HW112473   1.912   0.212   3.995
 3971SOL    HW212474   2.029   0.124   4.034
 3972SOL     OW12475   3.040   1.338   3.842
 3972SOL    HW112476   2.950   1.307   3.844
 3972SOL    HW212477   3.068   1.338   3.933
 3973SOL     OW12478   2.483   0.829   5.158
 3973SOL    HW112479   2.539   0.905   5.143
 3973SOL    HW212480   2.544   0.755   5.167
 3974SOL     OW12481   3.344   1.781   4.704
 3974SOL    HW112482   3.367   1.843   4.635
 3974SOL    HW212483   3.428   1.754   4.741
 3975SOL     OW12484   2.580   0.561   5.429
 3975SOL    HW112485   2.622   0.623   5.487
 3975SOL    HW212486   2.605   0.475   5.462
 3976SOL     OW12487   3.335   1.197   5.354
 3976SOL    HW112488   3.323   1.212   5.448
 3976SOL    HW212489   3.428   1.214   5.338
 3977SOL     OW12490   2.235   1.745   5.290
 3977SOL    HW112491   2.164   1.759   5.228
 3977SOL    HW212492   2.213   1.661   5.332
 3978SOL     OW12493   3.526   0.881   4.983
 3978SOL    HW112494   3.526   0.796   4.939
 3978SOL    HW212495   3.520   0.944   4.912
 3979SOL     OW12496   3.083   0.337   4.167
 3979SOL    HW112497   3.151   0.271   4.158
 3979SOL    HW212498   3.103   0.381   4.250
 3980SOL     OW12499   2.451   0.736   4.395
 3980SOL    HW112500   2.490   0.822   4.380
 3980SOL    HW212501   2.385   0.728   4.327
 3981SOL     OW12502   3.616   0.381   5.366
 3981SOL    HW112503   3.595   0.390   5.273
 3981SOL    HW212504   3.556   0.314   5.398
 3982SOL     OW12505   3.616   0.930   5.237
 3982SOL    HW112506   3.607   1.024   5.255
 3982SOL    HW212507   3.592   0.920   5.145
 3983SOL     OW12508   2.724   1.366   3.761
 3983SOL    HW112509   2.687   1.393   3.846
 3983SOL    HW212510   2.741   1.449   3.716
 3984SOL     OW12511   2.523   1.792   4.666
 3984SOL    HW112512   2.508   1.883   4.639
 3984SOL    HW212513   2.618   1.780   4.658
 3985SOL     OW12514   2.730   0.969   4.578
 3985SOL    HW112515   2.781   0.897   4.617
 3985SOL    HW212516   2.694   1.015   4.654
 3986SOL     OW12517   2.940   0.989   3.813
 3986SOL    HW112518   2.918   1.040   3.736
 3986SOL    HW212519   3.014   0.935   3.786
 3987SOL     OW12520   3.714   1.556   4.565
 3987SOL    HW112521   3.635   1.540   4.514
 3987SOL    HW212522   3.713   1.489   4.633
 3988SOL     OW12523   2.084   1.297   5.579
 3988SOL    HW112524   2.026   1.231   5.541
 3988SOL    HW212525   2.050   1.310   5.668
 3989SOL     OW12526   1.944   1.225   4.389
 3989SOL    HW112527   1.957   1.180   4.473
 3989SOL    HW212528   2.016   1.194   4.334
 3990SOL     OW12529   2.544   1.404   5.352
 3990SOL    HW112530   2.464   1.362   5.385
 3990SOL    HW212531   2.541   1.492   5.389
 3991SOL     OW12532   3.676   0.181   4.968
 3991SOL    HW112533   3.678   0.086   4.977
 3991SOL    HW212534   3.694   0.198   4.876
 3992SOL     OW12535   2.290   0.435   4.249
 3992SOL    HW112536   2.324   0.363   4.196
 3992SOL    HW212537   2.243   0.391   4.320
 3993SOL     OW12538   3.558   1.491   4.821
 3993SOL    HW112539   3.480   1.468   4.771
 3993SOL    HW212540   3.569   1.419   4.883
 3994SOL     OW12541   2.193   0.556   5.018
 3994SOL    HW112542   2.246   0.497   5.072
 3994SOL    HW212543   2.212   0.530   4.928
 3995SOL     OW12544   2.691   1.578   4.401
 3995SOL    HW112545   2.676   1.638   4.328
 3995SOL    HW212546   2.616   1.519   4.400
 3996SOL     OW12547   3.323   0.253   4.834
 3996SOL    HW112548   3.337   0.165   4.870
 3996SOL    HW212549   3.267   0.296   4.899
 3997SOL     OW12550   2.866   0.027   4.870
 3997SOL    HW112551   2.785   3.990   4.835
 3997SOL    HW212552   2.925   3.952   4.879
 3998SOL     OW12553   2.636   1.333   4.040
 3998SOL    HW112554   2.606   1.243   4.048
 3998SOL    HW212555   2.716   1.336   4.092
 3999SOL     OW12556   2.483   1.555   5.010
 3999SOL    HW112557   2.484   1.638   5.058
 3999SOL    HW212558   2.571   1.548   4.973
 4000SOL     OW12559   3.173   0.071   3.883
 4000SOL    HW112560   3.179   3.989   3.834
 4000SOL    HW212561   3.088   0.066   3.928
 4001SOL     OW12562   3.143   0.457   4.409
 4001SOL    HW112563   3.097   0.540   4.404
 4001SOL    HW212564   3.146   0.437   4.503
 4002SOL     OW12565   3.452   0.210   4.591
 4002SOL    HW112566   3.404   0.234   4.670
 4002SOL    HW212567   3.451   0.290   4.538
 4003SOL     OW12568   1.906   1.070   4.030
 4003SOL    HW112569   2.000   1.061   4.013
 4003SOL    HW212570   1.878   0.982   4.054
 4004SOL     OW12571   2.750   1.654   4.062
 4004SOL    HW112572   2.675   1.640   4.005
 4004SOL    HW212573   2.725   1.728   4.118
 4005SOL     OW12574   2.089   0.621   5.707
 4005SOL    HW112575   1.999   0.627   5.739
 4005SOL    HW212576   2.080   0.600   5.614
 4006SOL     OW12577   2.079   0.301   6.577
 4006SOL    HW112578   2.116   0.257   6.654
 4006SOL    HW212579   1.994   0.258   6.564
 4007SOL     OW12580   1.871   0.398   6.219
 4007SOL    HW112581   1.784   0.413   6.257
 4007SOL    HW212582   1.857   0.328   6.155
 4008SOL     OW12583   3.424   1.512   6.293
 4008SOL    HW112584   3.383   1.493   6.377
 4008SOL    HW212585   3.352   1.518   6.231
 4009SOL     OW12586   2.994   0.698   6.283
 4009SOL    HW112587   3.042   0.780   6.270
 4009SOL    HW212588   2.947   0.711   6.366
 4010SOL     OW12589   3.623   0.623   5.812
 4010SOL    HW112590   3.605   0.612   5.719
 4010SOL    HW212591   3.605   0.537   5.851
 4011SOL     OW12592   2.610   1.137   6.625
 4011SOL    HW112593   2.546   1.175   6.685
 4011SOL    HW212594   2.647   1.212   6.579
 4012SOL     OW12595   2.733   0.768   7.410
 4012SOL    HW112596   2.719   0.838   7.474
 4012SOL    HW212597   2.755   0.814   7.329
 4013SOL     OW12598   2.545   1.000   6.231
 4013SOL    HW112599   2.613   0.991   6.299
 4013SOL    HW212600   2.477   1.053   6.273
 4014SOL     OW12601   2.565   1.155   7.387
 4014SOL    HW112602   2.610   1.232   7.421
 4014SOL    HW212603   2.484   1.189   7.349
 4015SOL     OW12604   3.323   1.501   6.944
 4015SOL    HW112605   3.376   1.580   6.953
 4015SOL    HW212606   3.254   1.510   7.010
 4016SOL     OW12607   2.307   0.393   7.078
 4016SOL    HW112608   2.397   0.361   7.077
 4016SOL    HW212609   2.254   0.314   7.087
 4017SOL     OW12610   3.473   0.450   6.321
 4017SOL    HW112611   3.404   0.484   6.264
 4017SOL    HW212612   3.495   0.524   6.378
 4018SOL     OW12613   2.996   1.344   7.279
 4018SOL    HW112614   3.043   1.338   7.362
 4018SOL    HW212615   2.947   1.262   7.274
 4019SOL     OW12616   2.113   1.091   6.486
 4019SOL    HW112617   2.124   0.999   6.509
 4019SOL    HW212618   2.050   1.125   6.549
 4020SOL     OW12619   2.444   0.984   5.723
 4020SOL    HW112620   2.492   1.030   5.654
 4020SOL    HW212621   2.483   1.014   5.804
 4021SOL     OW12622   3.443   0.141   7.042
 4021SOL    HW112623   3.470   0.213   6.986
 4021SOL    HW212624   3.408   0.183   7.120
 4022SOL     OW12625   1.979   0.656   6.146
 4022SOL    HW112626   1.952   0.567   6.169
 4022SOL    HW212627   1.971   0.706   6.227
 4023SOL     OW12628   3.702   1.757   5.921
 4023SOL    HW112629   3.771   1.732   5.983
 4023SOL    HW212630   3.721   1.849   5.900
 4024SOL     OW12631   1.866   1.593   5.723
 4024SOL    HW112632   1.869   1.497   5.727
 4024SOL    HW212633   1.788   1.617   5.773
 4025SOL     OW12634   3.549   0.917   6.231
 4025SOL    HW112635   3.634   0.875   6.216
 4025SOL    HW212636   3.532   0.968   6.152
 4026SOL     OW12637   3.504   1.104   6.018
 4026SOL    HW112638   3.589   1.110   5.974
 4026SOL    HW212639   3.510   1.167   6.090
 4027SOL     OW12640   1.988   0.747   7.162
 4027SOL    HW112641   2.080   0.775   7.170
 4027SOL    HW212642   1.938   0.826   7.184
 4028SOL     OW12643   2.507   1.353   6.302
 4028SOL    HW112644   2.446   1.280   6.314
 4028SOL    HW212645   2.481   1.391   6.218
 4029SOL     OW12646   3.147   1.234   7.010
 4029SOL    HW112647   3.181   1.169   6.949
 4029SOL    HW212648   3.209   1.232   7.084
 4030SOL     OW12649   2.682   0.005   6.103
 4030SOL    HW112650   2.727   0.085   6.078
 4030SOL    HW212651   2.589   0.029   6.103
 4031SOL     OW12652   2.056   0.972   6.850
 4031SOL    HW112653   2.138   0.924   6.838
 4031SOL    HW212654   1.989   0.911   6.818
 4032SOL     OW12655   3.390   0.996   5.787
 4032SOL    HW112656   3.321   0.939   5.820
 4032SOL    HW212657   3.433   1.031   5.865
 4033SOL     OW12658   3.048   1.809   7.210
 4033SOL    HW112659   3.054   1.876   7.142
 4033SOL    HW212660   3.071   1.727   7.166
 4034SOL     OW12661   2.219   0.253   7.424
 4034SOL    HW112662   2.263   0.338   7.424
 4034SOL    HW212663   2.126   0.275   7.429
 4035SOL     OW12664   3.332   1.418   6.537
 4035SOL    HW112665   3.264   1.433   6.603
 4035SOL    HW212666   3.319   1.327   6.510
 4036SOL     OW12667   3.516   1.745   6.165
 4036SOL    HW112668   3.500   1.713   6.076
 4036SOL    HW212669   3.495   1.671   6.222
 4037SOL     OW12670   2.457   0.720   5.854
 4037SOL    HW112671   2.461   0.803   5.806
 4037SOL    HW212672   2.392   0.736   5.923
 4038SOL     OW12673   3.137   0.368   6.527
 4038SOL    HW112674   3.050   0.329   6.534
 4038SOL    HW212675   3.194   0.307   6.572
 4039SOL     OW12676   3.440   1.671   5.896
 4039SOL    HW112677   3.530   1.701   5.890
 4039SOL    HW212678   3.413   1.655   5.805
 4040SOL     OW12679   2.656   0.617   7.038
 4040SOL    HW112680   2.629   0.591   7.126
 4040SOL    HW212681   2.619   0.550   6.980
 4041SOL     OW12682   3.254   0.476   7.263
 4041SOL    HW112683   3.260   0.521   7.347
 4041SOL    HW212684   3.311   0.400   7.273
 4042SOL     OW12685   2.813   0.889   7.170
 4042SOL    HW112686   2.868   0.819   7.134
 4042SOL    HW212687   2.765   0.923   7.095
 4043SOL     OW12688   2.854   0.404   6.824
 4043SOL    HW112689   2.769   0.423   6.863
 4043SOL    HW212690   2.834   0.374   6.735
 4044SOL     OW12691   2.914   0.699   6.011
 4044SOL    HW112692   2.931   0.693   6.105
 4044SOL    HW212693   2.831   0.653   5.998
 4045SOL     OW12694   1.950   0.823   6.361
 4045SOL    HW112695   2.030   0.815   6.413
 4045SOL    HW212696   1.905   0.898   6.398
 4046SOL     OW12697   2.757   0.352   5.786
 4046SOL    HW112698   2.799   0.411   5.723
 4046SOL    HW212699   2.750   0.269   5.739
 4047SOL     OW12700   3.569   0.574   7.416
 4047SOL    HW112701   3.532   0.648   7.368
 4047SOL    HW212702   3.595   0.512   7.347
 4048SOL     OW12703   3.238   1.140   6.125
 4048SOL    HW112704   3.319   1.130   6.075
 4048SOL    HW212705   3.187   1.204   6.075
 4049SOL     OW12706   2.419   0.199   6.467
 4049SOL    HW112707   2.423   0.218   6.560
 4049SOL    HW212708   2.416   0.285   6.425
 4050SOL     OW12709   2.868   1.441   6.056
 4050SOL    HW112710   2.829   1.517   6.012
 4050SOL    HW212711   2.854   1.459   6.149
 4051SOL     OW12712   3.667   1.061   6.454
 4051SOL    HW112713   3.613   1.038   6.378
 4051SOL    HW212714   3.605   1.065   6.527
 4052SOL     OW12715   3.095   1.538   7.097
 4052SOL    HW112716   3.077   1.463   7.154
 4052SOL    HW212717   3.015   1.549   7.045
 4053SOL     OW12718   2.179   0.958   5.837
 4053SOL    HW112719   2.262   0.978   5.794
 4053SOL    HW212720   2.150   0.875   5.799
 4054SOL     OW12721   3.342   0.746   6.315
 4054SOL    HW112722   3.337   0.705   6.401
 4054SOL    HW212723   3.419   0.803   6.319
 4055SOL     OW12724   2.985   1.777   5.814
 4055SOL    HW112725   2.918   1.730   5.865
 4055SOL    HW212726   3.010   1.716   5.745
 4056SOL     OW12727   2.032   0.275   7.086
 4056SOL    HW112728   1.976   0.351   7.075
 4056SOL    HW212729   2.038   0.262   7.180
 4057SOL     OW12730   3.487   1.383   5.672
 4057SOL    HW112731   3.444   1.467   5.659
 4057SOL    HW212732   3.420   1.318   5.653
 4058SOL     OW12733   3.297   0.170   5.987
 4058SOL    HW112734   3.251   0.095   5.949
 4058SOL    HW212735   3.372   0.131   6.032
 4059SOL     OW12736   2.179   1.783   6.813
 4059SOL    HW112737   2.177   1.716   6.881
 4059SOL    HW212738   2.156   1.737   6.732
 4060SOL     OW12739   2.810   1.700   6.469
 4060SOL    HW112740   2.871   1.640   6.511
 4060SOL    HW212741   2.765   1.646   6.404
 4061SOL     OW12742   2.256   0.696   6.061
 4061SOL    HW112743   2.276   0.603   6.073
 4061SOL    HW212744   2.162   0.703   6.078
 4062SOL     OW12745   3.392   0.229   7.313
 4062SOL    HW112746   3.385   0.254   7.405
 4062SOL    HW212747   3.374   0.135   7.312
 4063SOL     OW12748   2.505   0.130   5.694
 4063SOL    HW112749   2.529   0.046   5.734
 4063SOL    HW212750   2.443   0.108   5.625
 4064SOL     OW12751   2.637   0.282   7.355
 4064SOL    HW112752   2.709   0.220   7.357
 4064SOL    HW212753   2.580   0.256   7.427
 4065SOL     OW12754   2.779   1.521   6.736
 4065SOL    HW112755   2.756   1.470   6.658
 4065SOL    HW212756   2.840   1.466   6.783
 4066SOL     OW12757   3.201   0.588   7.017
 4066SOL    HW112758   3.232   0.559   7.103
 4066SOL    HW212759   3.236   0.676   7.007
 4067SOL     OW12760   2.689   1.372   6.509
 4067SOL    HW112761   2.776   1.365   6.470
 4067SOL    HW212762   2.630   1.373   6.434
 4068SOL     OW12763   2.792   0.511   6.486
 4068SOL    HW112764   2.767   0.503   6.394
 4068SOL    HW212765   2.818   0.423   6.512
 4069SOL     OW12766   2.407   0.057   6.077
 4069SOL    HW112767   2.332   0.062   6.137
 4069SOL    HW212768   2.402   0.138   6.026
 4070SOL     OW12769   3.289   1.199   5.626
 4070SOL    HW112770   3.319   1.124   5.677
 4070SOL    HW212771   3.204   1.221   5.664
 4071SOL     OW12772   2.191   0.044   5.797
 4071SOL    HW112773   2.200   0.111   5.729
 4071SOL    HW212774   2.274   0.048   5.845
 4072SOL     OW12775   2.804   0.250   6.046
 4072SOL    HW112776   2.779   0.290   5.962
 4072SOL    HW212777   2.900   0.254   6.047
 4073SOL     OW12778   2.941   0.684   7.045
 4073SOL    HW112779   2.873   0.618   7.052
 4073SOL    HW212780   3.023   0.634   7.039
 4074SOL     OW12781   3.094   1.564   6.373
 4074SOL    HW112782   3.101   1.636   6.310
 4074SOL    HW212783   3.151   1.589   6.445
 4075SOL     OW12784   2.325   1.148   6.321
 4075SOL    HW112785   2.255   1.132   6.384
 4075SOL    HW212786   2.284   1.133   6.236
 4076SOL     OW12787   3.127   1.791   6.195
 4076SOL    HW112788   3.174   1.855   6.141
 4076SOL    HW212789   3.057   1.841   6.237
 4077SOL     OW12790   2.884   0.543   5.614
 4077SOL    HW112791   2.840   0.625   5.595
 4077SOL    HW212792   2.947   0.565   5.682
 4078SOL     OW12793   1.943   0.550   6.980
 4078SOL    HW112794   2.035   0.552   6.952
 4078SOL    HW212795   1.936   0.623   7.042
 4079SOL     OW12796   2.425   0.231   6.747
 4079SOL    HW112797   2.450   0.139   6.757
 4079SOL    HW212798   2.336   0.236   6.780
 4080SOL     OW12799   2.731   0.461   6.224
 4080SOL    HW112800   2.685   0.515   6.160
 4080SOL    HW212801   2.753   0.381   6.176
 4081SOL     OW12802   2.858   0.040   6.366
 4081SOL    HW112803   2.821   0.068   6.282
 4081SOL    HW212804   2.869   3.945   6.357
 4082SOL     OW12805   3.303   1.160   6.444
 4082SOL    HW112806   3.230   1.098   6.441
 4082SOL    HW212807   3.328   1.172   6.352
 4083SOL     OW12808   3.326   0.608   6.560
 4083SOL    HW112809   3.273   0.528   6.565
 4083SOL    HW212810   3.386   0.601   6.634
 4084SOL     OW12811   3.722   0.824   5.960
 4084SOL    HW112812   3.763   0.767   6.025
 4084SOL    HW212813   3.684   0.764   5.897
 4085SOL     OW12814   2.345   1.423   5.742
 4085SOL    HW112815   2.278   1.380   5.795
 4085SOL    HW212816   2.340   1.379   5.657
 4086SOL     OW12817   3.529   1.265   6.231
 4086SOL    HW112818   3.624   1.269   6.240
 4086SOL    HW212819   3.499   1.354   6.251
 4087SOL     OW12820   3.257   0.575   5.655
 4087SOL    HW112821   3.193   0.556   5.724
 4087SOL    HW212822   3.342   0.559   5.695
 4088SOL     OW12823   2.388   0.267   5.902
 4088SOL    HW112824   2.443   0.228   5.834
 4088SOL    HW212825   2.360   0.350   5.865
 4089SOL     OW12826   3.613   1.234   7.153
 4089SOL    HW112827   3.701   1.199   7.135
 4089SOL    HW212828   3.629   1.323   7.182
 4090SOL     OW12829   2.919   1.340   6.906
 4090SOL    HW112830   2.845   1.320   6.962
 4090SOL    HW212831   2.996   1.309   6.954
 4091SOL     OW12832   3.468   1.627   7.242
 4091SOL    HW112833   3.459   1.662   7.153
 4091SOL    HW212834   3.549   1.576   7.240
 4092SOL     OW12835   2.991   1.195   6.685
 4092SOL    HW112836   2.940   1.241   6.751
 4092SOL    HW212837   2.967   1.238   6.603
 4093SOL     OW12838   3.490   1.096   6.661
 4093SOL    HW112839   3.481   1.158   6.733
 4093SOL    HW212840   3.414   1.113   6.605
 4094SOL     OW12841   2.774   0.117   6.987
 4094SOL    HW112842   2.794   0.088   6.898
 4094SOL    HW212843   2.855   0.158   7.018
 4095SOL     OW12844   2.841   1.118   7.308
 4095SOL    HW112845   2.750   1.129   7.333
 4095SOL    HW212846   2.842   1.039   7.254
 4096SOL     OW12847   2.570   1.062   5.957
 4096SOL    HW112848   2.557   1.044   6.050
 4096SOL    HW212849   2.646   1.008   5.933
 4097SOL     OW12850   2.283   0.816   6.837
 4097SOL    HW112851   2.351   0.824   6.905
 4097SOL    HW212852   2.247   0.728   6.849
 4098SOL     OW12853   3.128   0.375   6.863
 4098SOL    HW112854   3.162   0.453   6.907
 4098SOL    HW212855   3.041   0.401   6.832
 4099SOL     OW12856   2.204   1.114   6.077
 4099SOL    HW112857   2.204   1.181   6.008
 4099SOL    HW212858   2.205   1.031   6.030
 4100SOL     OW12859   2.416   0.532   6.443
 4100SOL    HW112860   2.430   0.592   6.370
 4100SOL    HW212861   2.481   0.558   6.508
 4101SOL     OW12862   3.111   1.348   5.974
 4101SOL    HW112863   3.167   1.420   6.006
 4101SOL    HW212864   3.024   1.369   6.008
 4102SOL     OW12865   3.150   1.453   6.735
 4102SOL    HW112866   3.206   1.462   6.812
 4102SOL    HW212867   3.092   1.380   6.755
 4103SOL     OW12868   3.434   0.632   6.071
 4103SOL    HW112869   3.393   0.688   6.137
 4103SOL    HW212870   3.482   0.693   6.015
 4104SOL     OW12871   2.281   0.744   7.190
 4104SOL    HW112872   2.341   0.789   7.131
 4104SOL    HW212873   2.321   0.659   7.207
 4105SOL     OW12874   3.465   0.778   7.269
 4105SOL    HW112875   3.380   0.821   7.263
 4105SOL    HW212876   3.518   0.821   7.202
 4106SOL     OW12877   2.875   0.132   7.366
 4106SOL    HW112878   2.925   0.205   7.328
 4106SOL    HW212879   2.860   0.073   7.293
 4107SOL     OW12880   2.350   0.034   7.348
 4107SOL    HW112881   2.353   0.047   7.253
 4107SOL    HW212882   2.291   0.103   7.379
 4108SOL     OW12883   2.444   0.869   6.615
 4108SOL    HW112884   2.477   0.959   6.615
 4108SOL    HW212885   2.389   0.863   6.692
 4109SOL     OW12886   3.216   0.858   6.613
 4109SOL    HW112887   3.132   0.847   6.568
 4109SOL    HW212888   3.259   0.773   6.605
 4110SOL     OW12889   3.062   0.537   5.844
 4110SOL    HW112890   3.071   0.458   5.897
 4110SOL    HW212891   3.020   0.600   5.901
 4111SOL     OW12892   2.162   0.210   6.829
 4111SOL    HW112893   2.120   0.238   6.910
 4111SOL    HW212894   2.150   0.115   6.829
 4112SOL     OW12895   2.586   0.631   6.639
 4112SOL    HW112896   2.661   0.617   6.581
 4112SOL    HW212897   2.556   0.719   6.618
 4113SOL     OW12898   3.594   0.956   7.449
 4113SOL    HW112899   3.551   0.895   7.389
 4113SOL    HW212900   3.530   0.971   7.518
 4114SOL     OW12901   2.184   0.056   6.237
 4114SOL    HW112902   2.164   0.149   6.249
 4114SOL    HW212903   2.150   0.014   6.316
 4115SOL     OW12904   3.474   0.392   5.965
 4115SOL    HW112905   3.436   0.323   6.020
 4115SOL    HW212906   3.452   0.473   6.011
 4116SOL     OW12907   2.891   0.760   6.545
 4116SOL    HW112908   2.884   0.777   6.639
 4116SOL    HW212909   2.864   0.668   6.536
 4117SOL     OW12910   2.837   1.563   7.308
 4117SOL    HW112911   2.826   1.610   7.225
 4117SOL    HW212912   2.889   1.486   7.285
 4118SOL     OW12913   3.705   1.498   7.184
 4118SOL    HW112914   3.728   1.528   7.096
 4118SOL    HW212915   3.786   1.509   7.235
 4119SOL     OW12916   2.226   0.918   7.401
 4119SOL    HW112917   2.309   0.926   7.449
 4119SOL    HW212918   2.245   0.855   7.332
 4120SOL     OW12919   3.364   0.274   5.720
 4120SOL    HW112920   3.290   0.214   5.731
 4120SOL    HW212921   3.376   0.312   5.807
 4121SOL     OW12922   3.150   0.826   5.614
 4121SOL    HW112923   3.193   0.741   5.618
 4121SOL    HW212924   3.183   0.866   5.534
 4122SOL     OW12925   2.944   1.334   6.440
 4122SOL    HW112926   2.946   1.263   6.376
 4122SOL    HW212927   3.003   1.401   6.404
 4123SOL     OW12928   2.172   0.813   6.528
 4123SOL    HW112929   2.266   0.830   6.524
 4123SOL    HW212930   2.165   0.723   6.561
 4124SOL     OW12931   2.197   0.537   6.599
 4124SOL    HW112932   2.156   0.452   6.584
 4124SOL    HW212933   2.273   0.538   6.541
 4125SOL     OW12934   2.995   0.381   7.282
 4125SOL    HW112935   2.946   0.435   7.344
 4125SOL    HW212936   3.082   0.421   7.278
 4126SOL     OW12937   3.014   0.226   7.067
 4126SOL    HW112938   3.004   0.280   7.145
 4126SOL    HW212939   3.039   0.287   6.998
 4127SOL     OW12940   1.870   1.315   5.780
 4127SOL    HW112941   1.782   1.331   5.746
 4127SOL    HW212942   1.867   1.226   5.814
 4128SOL     OW12943   2.838   0.791   6.812
 4128SOL    HW112944   2.896   0.770   6.885
 4128SOL    HW212945   2.755   0.748   6.834
 4129SOL     OW12946   1.895   0.547   6.702
 4129SOL    HW112947   1.970   0.521   6.650
 4129SOL    HW212948   1.928   0.547   6.792
 4130SOL     OW12949   2.065   0.526   7.298
 4130SOL    HW112950   2.135   0.506   7.237
 4130SOL    HW212951   2.020   0.601   7.259
 4131SOL     OW12952   3.241   0.937   7.243
 4131SOL    HW112953   3.263   1.030   7.241
 4131SOL    HW212954   3.237   0.910   7.151
 4132SOL     OW12955   2.679   0.572   5.950
 4132SOL    HW112956   2.685   0.497   5.891
 4132SOL    HW212957   2.604   0.622   5.917
 4133SOL     OW12958   3.501   0.602   6.769
 4133SOL    HW112959   3.491   0.541   6.842
 4133SOL    HW212960   3.588   0.581   6.733
 4134SOL     OW12961   2.570   0.453   6.842
 4134SOL    HW112962   2.519   0.375   6.818
 4134SOL    HW212963   2.561   0.512   6.768
 4135SOL     OW12964   2.831   1.656   7.042
 4135SOL    HW112965   2.757   1.629   6.988
 4135SOL    HW212966   2.838   1.750   7.027
 4136SOL     OW12967   2.324   0.494   5.769
 4136SOL    HW112968   2.383   0.566   5.793
 4136SOL    HW212969   2.239   0.535   5.757
 4137SOL     OW12970   2.004   1.140   7.060
 4137SOL    HW112971   2.016   1.084   7.136
 4137SOL    HW212972   2.029   1.085   6.986
 4138SOL     OW12973   3.184   1.044   6.808
 4138SOL    HW112974   3.209   0.981   6.740
 4138SOL    HW212975   3.115   1.097   6.768
 4139SOL     OW12976   3.176   0.854   5.891
 4139SOL    HW112977   3.100   0.827   5.942
 4139SOL    HW212978   3.148   0.843   5.800
 4140SOL     OW12979   3.641   1.742   6.742
 4140SOL    HW112980   3.697   1.769   6.669
 4140SOL    HW212981   3.613   1.654   6.719
 4141SOL     OW12982   3.115   1.724   6.695
 4141SOL    HW112983   3.197   1.746   6.650
 4141SOL    HW212984   3.122   1.630   6.713
 4142SOL     OW12985   3.551   0.120   6.073
 4142SOL    HW112986   3.632   0.135   6.026
 4142SOL    HW212987   3.553   0.027   6.095
 4143SOL     OW12988   3.251   1.568   6.071
 4143SOL    HW112989   3.312   1.602   6.006
 4143SOL    HW212990   3.204   1.645   6.103
 4144SOL     OW12991   3.139   0.926   6.257
 4144SOL    HW112992   3.214   0.867   6.267
 4144SOL    HW212993   3.173   0.999   6.204
 4145SOL     OW12994   2.669   1.291   7.021
 4145SOL    HW112995   2.671   1.310   7.115
 4145SOL    HW212996   2.629   1.368   6.981
 4146SOL     OW12997   2.554   1.604   5.734
 4146SOL    HW112998   2.553   1.623   5.641
 4146SOL    HW212999   2.483   1.541   5.746
 4147SOL     OW13000   3.483   1.727   6.977
 4147SOL    HW113001   3.537   1.732   6.898
 4147SOL    HW213002   3.470   1.818   7.004
 4148SOL     OW13003   3.703   0.181   6.557
 4148SOL    HW113004   3.727   0.096   6.520
 4148SOL    HW213005   3.617   0.201   6.520
 4149SOL     OW13006   2.126   0.316   6.301
 4149SOL    HW113007   2.039   0.351   6.279
 4149SOL    HW213008   2.125   0.308   6.396
 4150SOL     OW13009   3.069   1.604   5.618
 4150SOL    HW113010   3.059   1.512   5.644
 4150SOL    HW213011   3.004   1.617   5.549
 4151SOL     OW13012   2.683   1.013   6.959
 4151SOL    HW113013   2.734   1.003   6.879
 4151SOL    HW213014   2.680   1.108   6.973
 4152SOL     OW13015   2.777   0.911   5.876
 4152SOL    HW113016   2.838   0.943   5.810
 4152SOL    HW213017   2.826   0.842   5.922
 4153SOL     OW13018   3.351   1.628   5.629
 4153SOL    HW113019   3.257   1.619   5.614
 4153SOL    HW213020   3.389   1.634   5.541
 4154SOL     OW13021   3.463   1.279   6.864
 4154SOL    HW113022   3.532   1.272   6.929
 4154SOL    HW213023   3.407   1.350   6.896
 4155SOL     OW13024   2.919   1.108   6.292
 4155SOL    HW113025   2.847   1.058   6.330
 4155SOL    HW213026   2.982   1.042   6.264
 4156SOL     OW13027   2.876   0.248   6.556
 4156SOL    HW113028   2.866   0.198   6.475
 4156SOL    HW213029   2.872   0.183   6.625
 4157SOL     OW13030   2.452   1.473   6.064
 4157SOL    HW113031   2.499   1.434   5.990
 4157SOL    HW213032   2.420   1.557   6.031
 4158SOL     OW13033   3.582   0.394   6.958
 4158SOL    HW113034   3.654   0.457   6.958
 4158SOL    HW213035   3.614   0.321   6.904
 4159SOL     OW13036   2.124   1.323   5.894
 4159SOL    HW113037   2.033   1.320   5.867
 4159SOL    HW213038   2.125   1.383   5.968
 4160SOL     OW13039   1.977   0.997   7.297
 4160SOL    HW113040   1.901   0.998   7.355
 4160SOL    HW213041   2.052   0.981   7.355
 4161SOL     OW13042   2.555   0.255   7.087
 4161SOL    HW113043   2.622   0.200   7.046
 4161SOL    HW213044   2.582   0.261   7.179
 4162SOL     OW13045   1.962   0.318   5.578
 4162SOL    HW113046   1.894   0.337   5.642
 4162SOL    HW213047   1.970   0.398   5.526
 4163SOL     OW13048   3.287   0.857   6.984
 4163SOL    HW113049   3.238   0.919   6.931
 4163SOL    HW213050   3.376   0.859   6.948
 4164SOL     OW13051   1.943   0.152   5.926
 4164SOL    HW113052   1.912   0.212   5.857
 4164SOL    HW213053   2.029   0.124   5.896
 4165SOL     OW13054   3.040   1.338   5.703
 4165SOL    HW113055   2.949   1.307   5.706
 4165SOL    HW213056   3.068   1.338   5.795
 4166SOL     OW13057   2.484   0.830   7.020
 4166SOL    HW113058   2.542   0.905   7.004
 4166SOL    HW213059   2.543   0.756   7.028
 4167SOL     OW13060   3.350   1.778   6.563
 4167SOL    HW113061   3.369   1.842   6.495
 4167SOL    HW213062   3.435   1.758   6.602
 4168SOL     OW13063   2.580   0.560   7.290
 4168SOL    HW113064   2.623   0.622   7.350
 4168SOL    HW213065   2.605   0.474   7.324
 4169SOL     OW13066   3.335   1.197   7.216
 4169SOL    HW113067   3.324   1.212   7.310
 4169SOL    HW213068   3.428   1.214   7.200
 4170SOL     OW13069   3.526   0.881   6.845
 4170SOL    HW113070   3.526   0.796   6.801
 4170SOL    HW213071   3.520   0.945   6.774
 4171SOL     OW13072   3.083   0.337   6.029
 4171SOL    HW113073   3.151   0.271   6.019
 4171SOL    HW213074   3.103   0.381   6.112
 4172SOL     OW13075   2.451   0.736   6.258
 4172SOL    HW113076   2.490   0.822   6.242
 4172SOL    HW213077   2.384   0.727   6.189
 4173SOL     OW13078   3.616   0.381   7.228
 4173SOL    HW113079   3.595   0.390   7.135
 4173SOL    HW213080   3.556   0.313   7.260
 4174SOL     OW13081   3.616   0.930   7.100
 4174SOL    HW113082   3.607   1.024   7.117
 4174SOL    HW213083   3.592   0.921   7.007
 4175SOL     OW13084   2.725   1.367   5.623
 4175SOL    HW113085   2.684   1.398   5.704
 4175SOL    HW213086   2.743   1.447   5.573
 4176SOL     OW13087   2.731   0.967   6.438
 4176SOL    HW113088   2.782   0.896   6.477
 4176SOL    HW213089   2.696   1.014   6.513
 4177SOL     OW13090   2.940   0.989   5.675
 4177SOL    HW113091   2.918   1.040   5.597
 4177SOL    HW213092   3.014   0.935   5.648
 4178SOL     OW13093   3.714   1.556   6.427
 4178SOL    HW113094   3.634   1.541   6.376
 4178SOL    HW213095   3.711   1.490   6.497
 4179SOL     OW13096   1.944   1.210   6.239
 4179SOL    HW113097   1.951   1.164   6.323
 4179SOL    HW213098   2.022   1.183   6.190
 4180SOL     OW13099   3.676   0.181   6.830
 4180SOL    HW113100   3.678   0.086   6.839
 4180SOL    HW213101   3.694   0.198   6.738
 4181SOL     OW13102   2.290   0.435   6.111
 4181SOL    HW113103   2.325   0.364   6.057
 4181SOL    HW213104   2.243   0.391   6.182
 4182SOL     OW13105   3.560   1.490   6.682
 4182SOL    HW113106   3.481   1.468   6.632
 4182SOL    HW213107   3.569   1.419   6.745
 4183SOL     OW13108   2.194   0.557   6.880
 4183SOL    HW113109   2.246   0.498   6.934
 4183SOL    HW213110   2.212   0.530   6.790
 4184SOL     OW13111   2.688   1.575   6.255
 4184SOL    HW113112   2.675   1.595   6.162
 4184SOL    HW213113   2.607   1.531   6.282
 4185SOL     OW13114   3.323   0.253   6.696
 4185SOL    HW113115   3.337   0.165   6.731
 4185SOL    HW213116   3.267   0.296   6.761
 4186SOL     OW13117   2.866   0.027   6.733
 4186SOL    HW113118   2.786   3.990   6.697
 4186SOL    HW213119   2.925   3.952   6.741
 4187SOL     OW13120   2.635   1.332   5.904
 4187SOL    HW113121   2.605   1.241   5.912
 4187SOL    HW213122   2.716   1.335   5.954
 4188SOL     OW13123   2.593   1.546   6.924
 4188SOL    HW113124   2.525   1.613   6.911
 4188SOL    HW213125   2.644   1.548   6.844
 4189SOL     OW13126   3.172   0.071   5.744
 4189SOL    HW113127   3.180   3.988   5.696
 4189SOL    HW213128   3.088   0.065   5.789
 4190SOL     OW13129   3.143   0.457   6.271
 4190SOL    HW113130   3.097   0.540   6.266
 4190SOL    HW213131   3.146   0.437   6.365
 4191SOL     OW13132   3.452   0.210   6.453
 4191SOL    HW113133   3.404   0.234   6.532
 4191SOL    HW213134   3.451   0.290   6.400
 4192SOL     OW13135   1.908   1.069   5.892
 4192SOL    HW113136   2.002   1.058   5.875
 4192SOL    HW213137   1.878   0.981   5.917
 4193SOL     OW13138   2.737   1.651   5.940
 4193SOL    HW113139   2.679   1.623   5.869
 4193SOL    HW213140   2.712   1.742   5.957
 4194SOL     OW13141   2.089   0.619   7.568
 4194SOL    HW113142   1.999   0.629   7.600
 4194SOL    HW213143   2.080   0.599   7.475
 4195SOL     OW13144   2.079   0.300   8.439
 4195SOL    HW113145   2.116   0.257   8.516
 4195SOL    HW213146   1.994   0.258   8.426
 4196SOL     OW13147   1.870   0.396   8.082
 4196SOL    HW113148   1.784   0.412   8.119
 4196SOL    HW213149   1.856   0.328   8.016
 4197SOL     OW13150   2.430   1.292   8.625
 4197SOL    HW113151   2.343   1.296   8.586
 4197SOL    HW213152   2.445   1.380   8.658
 4198SOL     OW13153   3.426   1.512   8.155
 4198SOL    HW113154   3.383   1.491   8.238
 4198SOL    HW213155   3.355   1.518   8.092
 4199SOL     OW13156   2.994   0.698   8.145
 4199SOL    HW113157   3.042   0.780   8.132
 4199SOL    HW213158   2.947   0.711   8.227
 4200SOL     OW13159   3.623   0.623   7.674
 4200SOL    HW113160   3.605   0.612   7.581
 4200SOL    HW213161   3.606   0.537   7.713
 4201SOL     OW13162   2.614   1.140   8.492
 4201SOL    HW113163   2.546   1.176   8.549
 4201SOL    HW213164   2.651   1.217   8.448
 4202SOL     OW13165   2.732   0.770   9.272
 4202SOL    HW113166   2.718   0.840   9.334
 4202SOL    HW213167   2.755   0.814   9.190
 4203SOL     OW13168   2.549   1.000   8.092
 4203SOL    HW113169   2.613   0.990   8.162
 4203SOL    HW213170   2.479   1.052   8.132
 4204SOL     OW13171   2.574   1.150   9.263
 4204SOL    HW113172   2.622   1.228   9.292
 4204SOL    HW213173   2.493   1.184   9.226
 4205SOL     OW13174   2.194   1.418   8.516
 4205SOL    HW113175   2.118   1.383   8.470
 4205SOL    HW213176   2.238   1.473   8.451
 4206SOL     OW13177   3.321   1.501   8.805
 4206SOL    HW113178   3.375   1.580   8.814
 4206SOL    HW213179   3.256   1.508   8.876
 4207SOL     OW13180   2.307   0.393   8.941
 4207SOL    HW113181   2.397   0.362   8.940
 4207SOL    HW213182   2.254   0.314   8.949
 4208SOL     OW13183   3.473   0.450   8.183
 4208SOL    HW113184   3.403   0.484   8.126
 4208SOL    HW213185   3.495   0.524   8.240
 4209SOL     OW13186   2.999   1.342   9.142
 4209SOL    HW113187   3.040   1.337   9.228
 4209SOL    HW213188   2.947   1.262   9.135
 4210SOL     OW13189   2.117   1.430   8.011
 4210SOL    HW113190   2.071   1.514   8.000
 4210SOL    HW213191   2.056   1.375   8.059
 4211SOL     OW13192   2.124   1.090   8.339
 4211SOL    HW113193   2.120   1.003   8.377
 4211SOL    HW213194   2.067   1.144   8.393
 4212SOL     OW13195   2.469   1.793   8.878
 4212SOL    HW113196   2.390   1.776   8.928
 4212SOL    HW213197   2.494   1.882   8.900
 4213SOL     OW13198   2.450   0.982   7.580
 4213SOL    HW113199   2.496   1.033   7.513
 4213SOL    HW213200   2.485   1.014   7.663
 4214SOL     OW13201   3.444   0.141   8.904
 4214SOL    HW113202   3.470   0.213   8.848
 4214SOL    HW213203   3.408   0.183   8.982
 4215SOL     OW13204   1.983   0.651   8.012
 4215SOL    HW113205   1.954   0.563   8.036
 4215SOL    HW213206   1.974   0.702   8.092
 4216SOL     OW13207   3.702   1.757   7.784
 4216SOL    HW113208   3.772   1.733   7.845
 4216SOL    HW213209   3.720   1.849   7.762
 4217SOL     OW13210   3.549   0.917   8.094
 4217SOL    HW113211   3.634   0.875   8.078
 4217SOL    HW213212   3.532   0.968   8.014
 4218SOL     OW13213   3.504   1.104   7.880
 4218SOL    HW113214   3.589   1.110   7.836
 4218SOL    HW213215   3.510   1.167   7.952
 4219SOL     OW13216   1.985   0.750   9.028
 4219SOL    HW113217   2.075   0.780   9.033
 4219SOL    HW213218   1.932   0.829   9.035
 4220SOL     OW13219   2.472   1.391   8.169
 4220SOL    HW113220   2.441   1.304   8.195
 4220SOL    HW213221   2.423   1.410   8.089
 4221SOL     OW13222   3.149   1.237   8.870
 4221SOL    HW113223   3.181   1.171   8.810
 4221SOL    HW213224   3.208   1.232   8.946
 4222SOL     OW13225   2.682   0.004   7.965
 4222SOL    HW113226   2.727   0.085   7.940
 4222SOL    HW213227   2.589   0.028   7.965
 4223SOL     OW13228   2.051   0.963   8.724
 4223SOL    HW113229   2.136   0.923   8.708
 4223SOL    HW213230   1.991   0.913   8.668
 4224SOL     OW13231   3.390   0.996   7.649
 4224SOL    HW113232   3.321   0.939   7.683
 4224SOL    HW213233   3.433   1.031   7.727
 4225SOL     OW13234   3.046   1.809   9.071
 4225SOL    HW113235   3.056   1.868   8.997
 4225SOL    HW213236   3.064   1.722   9.035
 4226SOL     OW13237   2.219   0.253   9.287
 4226SOL    HW113238   2.263   0.338   9.286
 4226SOL    HW213239   2.126   0.274   9.291
 4227SOL     OW13240   3.328   1.420   8.397
 4227SOL    HW113241   3.261   1.435   8.464
 4227SOL    HW213242   3.316   1.329   8.372
 4228SOL     OW13243   3.516   1.746   8.027
 4228SOL    HW113244   3.500   1.714   7.938
 4228SOL    HW213245   3.496   1.671   8.083
 4229SOL     OW13246   2.456   0.721   7.716
 4229SOL    HW113247   2.460   0.804   7.669
 4229SOL    HW213248   2.391   0.736   7.785
 4230SOL     OW13249   3.137   0.368   8.389
 4230SOL    HW113250   3.049   0.330   8.396
 4230SOL    HW213251   3.194   0.307   8.434
 4231SOL     OW13252   3.440   1.668   7.758
 4231SOL    HW113253   3.530   1.700   7.751
 4231SOL    HW213254   3.413   1.654   7.668
 4232SOL     OW13255   2.658   0.616   8.900
 4232SOL    HW113256   2.629   0.590   8.988
 4232SOL    HW213257   2.619   0.550   8.842
 4233SOL     OW13258   3.254   0.476   9.125
 4233SOL    HW113259   3.260   0.521   9.209
 4233SOL    HW213260   3.311   0.400   9.135
 4234SOL     OW13261   2.814   0.887   9.032
 4234SOL    HW113262   2.869   0.818   8.995
 4234SOL    HW213263   2.766   0.922   8.957
 4235SOL     OW13264   2.854   0.402   8.686
 4235SOL    HW113265   2.770   0.423   8.725
 4235SOL    HW213266   2.834   0.375   8.597
 4236SOL     OW13267   2.914   0.699   7.873
 4236SOL    HW113268   2.931   0.693   7.967
 4236SOL    HW213269   2.831   0.654   7.860
 4237SOL     OW13270   1.950   0.822   8.225
 4237SOL    HW113271   2.030   0.814   8.277
 4237SOL    HW213272   1.906   0.899   8.259
 4238SOL     OW13273   2.757   0.352   7.648
 4238SOL    HW113274   2.799   0.411   7.585
 4238SOL    HW213275   2.750   0.269   7.601
 4239SOL     OW13276   3.570   0.574   9.277
 4239SOL    HW113277   3.532   0.648   9.230
 4239SOL    HW213278   3.595   0.512   9.209
 4240SOL     OW13279   3.239   1.141   7.987
 4240SOL    HW113280   3.319   1.130   7.937
 4240SOL    HW213281   3.188   1.205   7.937
 4241SOL     OW13282   2.420   0.199   8.329
 4241SOL    HW113283   2.423   0.218   8.422
 4241SOL    HW213284   2.416   0.284   8.287
 4242SOL     OW13285   2.864   1.443   7.918
 4242SOL    HW113286   2.829   1.517   7.869
 4242SOL    HW213287   2.849   1.466   8.010
 4243SOL     OW13288   2.221   1.805   8.284
 4243SOL    HW113289   2.258   1.720   8.307
 4243SOL    HW213290   2.287   1.869   8.310
 4244SOL     OW13291   3.667   1.062   8.316
 4244SOL    HW113292   3.614   1.037   8.240
 4244SOL    HW213293   3.605   1.065   8.389
 4245SOL     OW13294   3.089   1.539   8.962
 4245SOL    HW113295   3.076   1.467   9.023
 4245SOL    HW213296   3.025   1.524   8.893
 4246SOL     OW13297   2.180   0.946   7.706
 4246SOL    HW113298   2.254   0.981   7.655
 4246SOL    HW213299   2.152   0.868   7.658
 4247SOL     OW13300   3.342   0.747   8.177
 4247SOL    HW113301   3.336   0.705   8.263
 4247SOL    HW213302   3.419   0.803   8.182
 4248SOL     OW13303   2.331   1.265   9.185
 4248SOL    HW113304   2.304   1.269   9.093
 4248SOL    HW213305   2.248   1.261   9.234
 4249SOL     OW13306   2.986   1.770   7.689
 4249SOL    HW113307   2.904   1.731   7.721
 4249SOL    HW213308   3.011   1.716   7.614
 4250SOL     OW13309   2.032   0.275   8.947
 4250SOL    HW113310   1.976   0.352   8.937
 4250SOL    HW213311   2.038   0.262   9.042
 4251SOL     OW13312   3.487   1.382   7.535
 4251SOL    HW113313   3.445   1.467   7.521
 4251SOL    HW213314   3.419   1.318   7.515
 4252SOL     OW13315   3.297   0.170   7.850
 4252SOL    HW113316   3.252   0.096   7.809
 4252SOL    HW213317   3.372   0.130   7.894
 4253SOL     OW13318   2.166   1.785   8.668
 4253SOL    HW113319   2.200   1.704   8.705
 4253SOL    HW213320   2.120   1.758   8.589
 4254SOL     OW13321   2.803   1.696   8.350
 4254SOL    HW113322   2.884   1.648   8.370
 4254SOL    HW213323   2.761   1.645   8.282
 4255SOL     OW13324   2.259   0.694   7.924
 4255SOL    HW113325   2.276   0.601   7.936
 4255SOL    HW213326   2.165   0.704   7.941
 4256SOL     OW13327   3.392   0.229   9.175
 4256SOL    HW113328   3.385   0.255   9.267
 4256SOL    HW213329   3.373   0.136   9.174
 4257SOL     OW13330   2.505   0.130   7.556
 4257SOL    HW113331   2.529   0.046   7.596
 4257SOL    HW213332   2.443   0.107   7.487
 4258SOL     OW13333   2.637   0.282   9.216
 4258SOL    HW113334   2.709   0.219   9.220
 4258SOL    HW213335   2.579   0.256   9.288
 4259SOL     OW13336   2.738   1.522   8.643
 4259SOL    HW113337   2.722   1.486   8.556
 4259SOL    HW213338   2.808   1.468   8.679
 4260SOL     OW13339   3.202   0.587   8.878
 4260SOL    HW113340   3.232   0.559   8.965
 4260SOL    HW213341   3.236   0.676   8.869
 4261SOL     OW13342   2.679   1.391   8.388
 4261SOL    HW113343   2.765   1.380   8.349
 4261SOL    HW213344   2.619   1.397   8.314
 4262SOL     OW13345   2.792   0.511   8.348
 4262SOL    HW113346   2.767   0.503   8.256
 4262SOL    HW213347   2.818   0.423   8.374
 4263SOL     OW13348   2.407   0.057   7.939
 4263SOL    HW113349   2.332   0.062   7.999
 4263SOL    HW213350   2.402   0.137   7.888
 4264SOL     OW13351   3.289   1.198   7.488
 4264SOL    HW113352   3.320   1.124   7.539
 4264SOL    HW213353   3.205   1.221   7.528
 4265SOL     OW13354   2.192   0.043   7.659
 4265SOL    HW113355   2.200   0.109   7.591
 4265SOL    HW213356   2.274   0.048   7.707
 4266SOL     OW13357   2.804   0.250   7.908
 4266SOL    HW113358   2.779   0.290   7.824
 4266SOL    HW213359   2.900   0.254   7.909
 4267SOL     OW13360   2.942   0.684   8.906
 4267SOL    HW113361   2.872   0.619   8.913
 4267SOL    HW213362   3.022   0.632   8.901
 4268SOL     OW13363   3.082   1.573   8.243
 4268SOL    HW113364   3.099   1.638   8.174
 4268SOL    HW213365   3.153   1.585   8.306
 4269SOL     OW13366   2.335   1.150   8.180
 4269SOL    HW113367   2.266   1.131   8.243
 4269SOL    HW213368   2.295   1.136   8.094
 4270SOL     OW13369   3.129   1.793   8.058
 4270SOL    HW113370   3.178   1.851   8.000
 4270SOL    HW213371   3.064   1.849   8.100
 4271SOL     OW13372   2.884   0.542   7.476
 4271SOL    HW113373   2.840   0.625   7.457
 4271SOL    HW213374   2.948   0.564   7.545
 4272SOL     OW13375   1.944   0.550   8.844
 4272SOL    HW113376   2.035   0.552   8.815
 4272SOL    HW213377   1.937   0.623   8.906
 4273SOL     OW13378   2.425   0.231   8.609
 4273SOL    HW113379   2.450   0.139   8.619
 4273SOL    HW213380   2.336   0.236   8.641
 4274SOL     OW13381   2.732   0.461   8.086
 4274SOL    HW113382   2.684   0.515   8.023
 4274SOL    HW213383   2.753   0.381   8.038
 4275SOL     OW13384   2.858   0.040   8.228
 4275SOL    HW113385   2.822   0.068   8.145
 4275SOL    HW213386   2.869   3.945   8.218
 4276SOL     OW13387   3.302   1.161   8.306
 4276SOL    HW113388   3.230   1.097   8.303
 4276SOL    HW213389   3.328   1.172   8.214
 4277SOL     OW13390   3.326   0.608   8.422
 4277SOL    HW113391   3.273   0.529   8.427
 4277SOL    HW213392   3.386   0.601   8.496
 4278SOL     OW13393   3.722   0.824   7.823
 4278SOL    HW113394   3.763   0.767   7.887
 4278SOL    HW213395   3.683   0.764   7.759
 4279SOL     OW13396   3.529   1.264   8.093
 4279SOL    HW113397   3.624   1.268   8.102
 4279SOL    HW213398   3.500   1.354   8.113
 4280SOL     OW13399   3.257   0.576   7.517
 4280SOL    HW113400   3.194   0.556   7.586
 4280SOL    HW213401   3.342   0.559   7.557
 4281SOL     OW13402   2.388   0.266   7.764
 4281SOL    HW113403   2.443   0.227   7.696
 4281SOL    HW213404   2.360   0.350   7.727
 4282SOL     OW13405   3.613   1.234   9.014
 4282SOL    HW113406   3.701   1.199   8.997
 4282SOL    HW213407   3.629   1.323   9.044
 4283SOL     OW13408   2.918   1.353   8.781
 4283SOL    HW113409   2.844   1.322   8.832
 4283SOL    HW213410   2.994   1.312   8.822
 4284SOL     OW13411   3.468   1.628   9.104
 4284SOL    HW113412   3.460   1.663   9.015
 4284SOL    HW213413   3.548   1.577   9.103
 4285SOL     OW13414   2.994   1.206   8.552
 4285SOL    HW113415   2.934   1.244   8.617
 4285SOL    HW213416   2.962   1.239   8.468
 4286SOL     OW13417   3.490   1.096   8.523
 4286SOL    HW113418   3.481   1.157   8.596
 4286SOL    HW213419   3.413   1.112   8.468
 4287SOL     OW13420   2.774   0.116   8.849
 4287SOL    HW113421   2.794   0.089   8.760
 4287SOL    HW213422   2.855   0.158   8.880
 4288SOL     OW13423   2.846   1.115   9.172
 4288SOL    HW113424   2.755   1.132   9.194
 4288SOL    HW213425   2.843   1.037   9.116
 4289SOL     OW13426   2.572   1.064   7.817
 4289SOL    HW113427   2.555   1.046   7.909
 4289SOL    HW213428   2.647   1.009   7.795
 4290SOL     OW13429   2.283   0.816   8.699
 4290SOL    HW113430   2.351   0.824   8.766
 4290SOL    HW213431   2.247   0.728   8.712
 4291SOL     OW13432   3.128   0.375   8.724
 4291SOL    HW113433   3.162   0.453   8.768
 4291SOL    HW213434   3.041   0.400   8.694
 4292SOL     OW13435   1.937   1.578   8.803
 4292SOL    HW113436   1.903   1.637   8.736
 4292SOL    HW213437   2.031   1.575   8.787
 4293SOL     OW13438   2.213   1.104   7.940
 4293SOL    HW113439   2.192   1.175   7.880
 4293SOL    HW213440   2.215   1.026   7.885
 4294SOL     OW13441   2.416   0.532   8.305
 4294SOL    HW113442   2.430   0.592   8.231
 4294SOL    HW213443   2.481   0.559   8.370
 4295SOL     OW13444   3.110   1.349   7.837
 4295SOL    HW113445   3.166   1.421   7.868
 4295SOL    HW213446   3.023   1.370   7.871
 4296SOL     OW13447   3.146   1.459   8.596
 4296SOL    HW113448   3.203   1.463   8.673
 4296SOL    HW213449   3.092   1.382   8.610
 4297SOL     OW13450   3.434   0.632   7.933
 4297SOL    HW113451   3.393   0.688   7.999
 4297SOL    HW213452   3.482   0.693   7.877
 4298SOL     OW13453   2.211   1.525   8.761
 4298SOL    HW113454   2.198   1.480   8.677
 4298SOL    HW213455   2.306   1.533   8.769
 4299SOL     OW13456   2.279   0.744   9.050
 4299SOL    HW113457   2.340   0.789   8.992
 4299SOL    HW213458   2.320   0.660   9.067
 4300SOL     OW13459   3.466   0.778   9.131
 4300SOL    HW113460   3.380   0.821   9.125
 4300SOL    HW213461   3.519   0.821   9.064
 4301SOL     OW13462   2.876   0.132   9.228
 4301SOL    HW113463   2.925   0.205   9.190
 4301SOL    HW213464   2.860   0.073   9.154
 4302SOL     OW13465   2.350   0.034   9.210
 4302SOL    HW113466   2.353   0.047   9.115
 4302SOL    HW213467   2.291   0.102   9.241
 4303SOL     OW13468   2.446   0.873   8.480
 4303SOL    HW113469   2.475   0.965   8.481
 4303SOL    HW213470   2.389   0.866   8.556
 4304SOL     OW13471   3.215   0.859   8.474
 4304SOL    HW113472   3.131   0.847   8.431
 4304SOL    HW213473   3.259   0.774   8.467
 4305SOL     OW13474   3.062   0.537   7.706
 4305SOL    HW113475   3.071   0.458   7.759
 4305SOL    HW213476   3.019   0.600   7.764
 4306SOL     OW13477   2.161   0.209   8.691
 4306SOL    HW113478   2.120   0.238   8.772
 4306SOL    HW213479   2.150   0.114   8.691
 4307SOL     OW13480   1.908   1.313   8.725
 4307SOL    HW113481   1.941   1.256   8.796
 4307SOL    HW213482   1.914   1.401   8.761
 4308SOL     OW13483   2.584   0.632   8.500
 4308SOL    HW113484   2.660   0.619   8.443
 4308SOL    HW213485   2.555   0.721   8.481
 4309SOL     OW13486   3.594   0.957   9.310
 4309SOL    HW113487   3.551   0.895   9.251
 4309SOL    HW213488   3.530   0.972   9.380
 4310SOL     OW13489   2.185   0.055   8.099
 4310SOL    HW113490   2.165   0.148   8.111
 4310SOL    HW213491   2.149   0.013   8.178
 4311SOL     OW13492   3.474   0.392   7.827
 4311SOL    HW113493   3.436   0.323   7.882
 4311SOL    HW213494   3.452   0.473   7.873
 4312SOL     OW13495   2.891   0.759   8.407
 4312SOL    HW113496   2.885   0.776   8.501
 4312SOL    HW213497   2.864   0.668   8.397
 4313SOL     OW13498   2.843   1.567   9.167
 4313SOL    HW113499   2.828   1.610   9.083
 4313SOL    HW213500   2.887   1.485   9.144
 4314SOL     OW13501   3.705   1.499   9.046
 4314SOL    HW113502   3.728   1.528   8.958
 4314SOL    HW213503   3.785   1.509   9.097
 4315SOL     OW13504   2.214   0.915   9.257
 4315SOL    HW113505   2.296   0.935   9.303
 4315SOL    HW213506   2.240   0.853   9.189
 4316SOL     OW13507   3.363   0.274   7.582
 4316SOL    HW113508   3.290   0.214   7.593
 4316SOL    HW213509   3.376   0.312   7.669
 4317SOL     OW13510   3.150   0.826   7.476
 4317SOL    HW113511   3.192   0.741   7.480
 4317SOL    HW213512   3.183   0.866   7.396
 4318SOL     OW13513   2.929   1.337   8.304
 4318SOL    HW113514   2.933   1.265   8.241
 4318SOL    HW213515   2.989   1.403   8.268
 4319SOL     OW13516   2.170   0.810   8.395
 4319SOL    HW113517   2.263   0.830   8.387
 4319SOL    HW213518   2.167   0.719   8.426
 4320SOL     OW13519   2.198   0.536   8.462
 4320SOL    HW113520   2.157   0.451   8.446
 4320SOL    HW213521   2.274   0.537   8.404
 4321SOL     OW13522   2.995   0.381   9.145
 4321SOL    HW113523   2.946   0.435   9.206
 4321SOL    HW213524   3.081   0.421   9.140
 4322SOL     OW13525   3.013   0.226   8.929
 4322SOL    HW113526   3.004   0.280   9.008
 4322SOL    HW213527   3.038   0.288   8.860
 4323SOL     OW13528   1.853   1.270   7.634
 4323SOL    HW113529   1.759   1.262   7.615
 4323SOL    HW213530   1.875   1.189   7.680
 4324SOL     OW13531   1.983   1.725   8.438
 4324SOL    HW113532   1.940   1.666   8.376
 4324SOL    HW213533   2.029   1.788   8.383
 4325SOL     OW13534   2.359   1.572   8.356
 4325SOL    HW113535   2.425   1.637   8.380
 4325SOL    HW213536   2.404   1.511   8.298
 4326SOL     OW13537   2.841   0.788   8.672
 4326SOL    HW113538   2.897   0.769   8.747
 4326SOL    HW213539   2.755   0.752   8.697
 4327SOL     OW13540   1.895   0.547   8.565
 4327SOL    HW113541   1.970   0.522   8.511
 4327SOL    HW213542   1.929   0.547   8.654
 4328SOL     OW13543   2.065   0.527   9.160
 4328SOL    HW113544   2.136   0.506   9.099
 4328SOL    HW213545   2.021   0.602   9.122
 4329SOL     OW13546   3.242   0.936   9.105
 4329SOL    HW113547   3.263   1.030   9.103
 4329SOL    HW213548   3.237   0.910   9.014
 4330SOL     OW13549   2.679   0.573   7.812
 4330SOL    HW113550   2.684   0.497   7.753
 4330SOL    HW213551   2.604   0.623   7.779
 4331SOL     OW13552   3.502   0.602   8.631
 4331SOL    HW113553   3.491   0.541   8.704
 4331SOL    HW213554   3.588   0.581   8.595
 4332SOL     OW13555   2.114   1.536   9.155
 4332SOL    HW113556   2.096   1.606   9.218
 4332SOL    HW213557   2.117   1.456   9.208
 4333SOL     OW13558   2.569   0.453   8.704
 4333SOL    HW113559   2.519   0.376   8.679
 4333SOL    HW213560   2.561   0.513   8.630
 4334SOL     OW13561   2.786   1.679   8.917
 4334SOL    HW113562   2.762   1.642   8.832
 4334SOL    HW213563   2.781   1.774   8.904
 4335SOL     OW13564   2.325   0.494   7.631
 4335SOL    HW113565   2.382   0.567   7.656
 4335SOL    HW213566   2.239   0.534   7.618
 4336SOL     OW13567   2.005   1.141   8.921
 4336SOL    HW113568   2.007   1.092   9.003
 4336SOL    HW213569   2.023   1.076   8.853
 4337SOL     OW13570   3.184   1.044   8.670
 4337SOL    HW113571   3.208   0.982   8.602
 4337SOL    HW213572   3.116   1.099   8.630
 4338SOL     OW13573   3.175   0.855   7.753
 4338SOL    HW113574   3.100   0.826   7.805
 4338SOL    HW213575   3.148   0.842   7.662
 4339SOL     OW13576   3.642   1.741   8.605
 4339SOL    HW113577   3.697   1.769   8.532
 4339SOL    HW213578   3.613   1.654   8.581
 4340SOL     OW13579   3.102   1.733   8.557
 4340SOL    HW113580   3.185   1.756   8.514
 4340SOL    HW213581   3.110   1.640   8.577
 4341SOL     OW13582   1.950   1.264   8.461
 4341SOL    HW113583   1.932   1.280   8.554
 4341SOL    HW213584   1.875   1.213   8.431
 4342SOL     OW13585   2.538   1.668   9.179
 4342SOL    HW113586   2.486   1.748   9.178
 4342SOL    HW213587   2.606   1.682   9.113
 4343SOL     OW13588   3.551   0.120   7.936
 4343SOL    HW113589   3.632   0.135   7.887
 4343SOL    HW213590   3.553   0.027   7.957
 4344SOL     OW13591   3.252   1.567   7.936
 4344SOL    HW113592   3.313   1.599   7.868
 4344SOL    HW213593   3.203   1.645   7.962
 4345SOL     OW13594   2.035   1.739   9.307
 4345SOL    HW113595   1.971   1.697   9.364
 4345SOL    HW213596   2.005   1.830   9.300
 4346SOL     OW13597   3.139   0.927   8.119
 4346SOL    HW113598   3.214   0.868   8.129
 4346SOL    HW213599   3.173   0.999   8.066
 4347SOL     OW13600   2.672   1.274   8.875
 4347SOL    HW113601   2.644   1.314   8.958
 4347SOL    HW213602   2.602   1.295   8.814
 4348SOL     OW13603   3.482   1.727   8.839
 4348SOL    HW113604   3.537   1.732   8.761
 4348SOL    HW213605   3.469   1.818   8.865
 4349SOL     OW13606   3.703   0.182   8.419
 4349SOL    HW113607   3.728   0.097   8.381
 4349SOL    HW213608   3.617   0.201   8.382
 4350SOL     OW13609   2.126   0.316   8.163
 4350SOL    HW113610   2.039   0.350   8.141
 4350SOL    HW213611   2.125   0.308   8.258
 4351SOL     OW13612   3.071   1.607   7.480
 4351SOL    HW113613   3.057   1.516   7.505
 4351SOL    HW213614   3.006   1.623   7.411
 4352SOL     OW13615   2.686   1.006   8.821
 4352SOL    HW113616   2.728   1.002   8.735
 4352SOL    HW213617   2.684   1.099   8.842
 4353SOL     OW13618   2.778   0.910   7.737
 4353SOL    HW113619   2.840   0.943   7.672
 4353SOL    HW213620   2.826   0.842   7.784
 4354SOL     OW13621   3.352   1.625   7.492
 4354SOL    HW113622   3.258   1.621   7.478
 4354SOL    HW213623   3.390   1.633   7.404
 4355SOL     OW13624   2.232   1.300   8.939
 4355SOL    HW113625   2.217   1.379   8.886
 4355SOL    HW213626   2.154   1.246   8.924
 4356SOL     OW13627   3.463   1.280   8.725
 4356SOL    HW113628   3.532   1.272   8.791
 4356SOL    HW213629   3.406   1.349   8.758
 4357SOL     OW13630   2.918   1.109   8.157
 4357SOL    HW113631   2.846   1.058   8.194
 4357SOL    HW213632   2.981   1.044   8.127
 4358SOL     OW13633   2.876   0.249   8.417
 4358SOL    HW113634   2.867   0.198   8.337
 4358SOL    HW213635   2.872   0.183   8.487
 4359SOL     OW13636   3.582   0.394   8.820
 4359SOL    HW113637   3.654   0.457   8.820
 4359SOL    HW213638   3.614   0.321   8.766
 4360SOL     OW13639   2.122   1.290   7.766
 4360SOL    HW113640   2.059   1.320   7.700
 4360SOL    HW213641   2.121   1.359   7.832
 4361SOL     OW13642   1.975   1.027   9.169
 4361SOL    HW113643   1.899   1.002   9.221
 4361SOL    HW213644   2.049   0.986   9.215
 4362SOL     OW13645   2.555   0.255   8.949
 4362SOL    HW113646   2.622   0.200   8.908
 4362SOL    HW213647   2.582   0.261   9.041
 4363SOL     OW13648   1.962   0.318   7.440
 4363SOL    HW113649   1.894   0.337   7.504
 4363SOL    HW213650   1.970   0.398   7.389
 4364SOL     OW13651   3.287   0.857   8.846
 4364SOL    HW113652   3.238   0.919   8.793
 4364SOL    HW213653   3.376   0.859   8.810
 4365SOL     OW13654   1.943   0.151   7.788
 4365SOL    HW113655   1.912   0.211   7.720
 4365SOL    HW213656   2.030   0.124   7.758
 4366SOL     OW13657   3.041   1.338   7.567
 4366SOL    HW113658   2.954   1.298   7.574
 4366SOL    HW213659   3.073   1.343   7.657
 4367SOL     OW13660   2.483   0.829   8.882
 4367SOL    HW113661   2.539   0.905   8.867
 4367SOL    HW213662   2.544   0.755   8.891
 4368SOL     OW13663   3.344   1.781   8.428
 4368SOL    HW113664   3.367   1.843   8.359
 4368SOL    HW213665   3.428   1.754   8.465
 4369SOL     OW13666   2.580   0.561   9.152
 4369SOL    HW113667   2.622   0.623   9.211
 4369SOL    HW213668   2.606   0.475   9.186
 4370SOL     OW13669   3.335   1.197   9.078
 4370SOL    HW113670   3.323   1.212   9.172
 4370SOL    HW213671   3.428   1.213   9.062
 4371SOL     OW13672   2.237   1.746   9.019
 4371SOL    HW113673   2.157   1.761   8.968
 4371SOL    HW213674   2.222   1.662   9.063
 4372SOL     OW13675   3.526   0.881   8.707
 4372SOL    HW113676   3.526   0.795   8.663
 4372SOL    HW213677   3.520   0.944   8.636
 4373SOL     OW13678   3.083   0.337   7.891
 4373SOL    HW113679   3.151   0.271   7.882
 4373SOL    HW213680   3.103   0.381   7.973
 4374SOL     OW13681   2.452   0.736   8.119
 4374SOL    HW113682   2.491   0.823   8.103
 4374SOL    HW213683   2.385   0.727   8.051
 4375SOL     OW13684   3.616   0.381   9.090
 4375SOL    HW113685   3.595   0.390   8.997
 4375SOL    HW213686   3.556   0.314   9.122
 4376SOL     OW13687   3.616   0.930   8.961
 4376SOL    HW113688   3.607   1.024   8.979
 4376SOL    HW213689   3.592   0.920   8.869
 4377SOL     OW13690   2.695   1.373   7.465
 4377SOL    HW113691   2.686   1.384   7.560
 4377SOL    HW213692   2.734   1.455   7.435
 4378SOL     OW13693   2.524   1.789   8.387
 4378SOL    HW113694   2.505   1.880   8.364
 4378SOL    HW213695   2.620   1.783   8.384
 4379SOL     OW13696   2.730   0.969   8.303
 4379SOL    HW113697   2.780   0.897   8.341
 4379SOL    HW213698   2.693   1.015   8.378
 4380SOL     OW13699   2.940   0.990   7.535
 4380SOL    HW113700   2.920   1.040   7.456
 4380SOL    HW213701   3.014   0.935   7.510
 4381SOL     OW13702   3.714   1.557   8.290
 4381SOL    HW113703   3.636   1.540   8.237
 4381SOL    HW213704   3.713   1.488   8.357
 4382SOL     OW13705   2.089   1.300   9.304
 4382SOL    HW113706   2.022   1.238   9.277
 4382SOL    HW213707   2.075   1.312   9.397
 4383SOL     OW13708   1.952   1.228   8.109
 4383SOL    HW113709   1.959   1.184   8.193
 4383SOL    HW213710   2.009   1.178   8.051
 4384SOL     OW13711   2.544   1.405   9.076
 4384SOL    HW113712   2.465   1.362   9.109
 4384SOL    HW213713   2.540   1.493   9.114
 4385SOL     OW13714   3.676   0.181   8.692
 4385SOL    HW113715   3.678   0.086   8.701
 4385SOL    HW213716   3.694   0.198   8.600
 4386SOL     OW13717   2.291   0.433   7.974
 4386SOL    HW113718   2.324   0.362   7.920
 4386SOL    HW213719   2.243   0.390   8.044
 4387SOL     OW13720   3.558   1.491   8.545
 4387SOL    HW113721   3.480   1.468   8.495
 4387SOL    HW213722   3.569   1.419   8.607
 4388SOL     OW13723   2.193   0.556   8.742
 4388SOL    HW113724   2.246   0.497   8.796
 4388SOL    HW213725   2.212   0.530   8.652
 4389SOL     OW13726   2.692   1.573   8.129
 4389SOL    HW113727   2.672   1.640   8.065
 4389SOL    HW213728   2.616   1.515   8.128
 4390SOL     OW13729   3.323   0.253   8.558
 4390SOL    HW113730   3.337   0.165   8.593
 4390SOL    HW213731   3.267   0.296   8.623
 4391SOL     OW13732   2.866   0.027   8.594
 4391SOL    HW113733   2.785   3.990   8.559
 4391SOL    HW213734   2.925   3.953   8.603
 4392SOL     OW13735   2.660   1.325   7.740
 4392SOL    HW113736   2.616   1.242   7.761
 4392SOL    HW213737   2.725   1.337   7.809
 4393SOL     OW13738   2.482   1.556   8.735
 4393SOL    HW113739   2.484   1.638   8.784
 4393SOL    HW213740   2.570   1.548   8.698
 4394SOL     OW13741   3.173   0.071   7.607
 4394SOL    HW113742   3.180   3.989   7.558
 4394SOL    HW213743   3.088   0.065   7.651
 4395SOL     OW13744   3.143   0.457   8.133
 4395SOL    HW113745   3.097   0.540   8.128
 4395SOL    HW213746   3.146   0.437   8.227
 4396SOL     OW13747   3.452   0.210   8.315
 4396SOL    HW113748   3.404   0.234   8.394
 4396SOL    HW213749   3.451   0.290   8.262
 4397SOL     OW13750   1.908   1.054   7.778
 4397SOL    HW113751   2.002   1.052   7.759
 4397SOL    HW213752   1.885   0.962   7.796
 4398SOL     OW13753   2.736   1.650   7.791
 4398SOL    HW113754   2.657   1.627   7.742
 4398SOL    HW213755   2.708   1.722   7.848
 4399SOL     OW13756   2.089   0.619   9.431
 4399SOL    HW113757   1.999   0.628   9.462
 4399SOL    HW213758   2.080   0.600   9.338
 4400SOL     OW13759   2.079   0.300  10.301
 4400SOL    HW113760   2.116   0.257  10.378
 4400SOL    HW213761   1.994   0.258  10.288
 4401SOL     OW13762   1.871   0.397   9.943
 4401SOL    HW113763   1.784   0.412   9.981
 4401SOL    HW213764   1.857   0.328   9.879
 4402SOL     OW13765   2.430   1.291  10.487
 4402SOL    HW113766   2.344   1.296  10.446
 4402SOL    HW213767   2.447   1.380  10.519
 4403SOL     OW13768   3.426   1.513  10.018
 4403SOL    HW113769   3.383   1.491  10.101
 4403SOL    HW213770   3.354   1.517   9.954
 4404SOL     OW13771   2.994   0.698  10.007
 4404SOL    HW113772   3.042   0.780   9.994
 4404SOL    HW213773   2.947   0.711  10.089
 4405SOL     OW13774   3.623   0.623   9.536
 4405SOL    HW113775   3.605   0.612   9.443
 4405SOL    HW213776   3.606   0.537   9.575
 4406SOL     OW13777   2.615   1.140  10.354
 4406SOL    HW113778   2.546   1.176  10.411
 4406SOL    HW213779   2.651   1.217  10.309
 4407SOL     OW13780   2.732   0.770  11.133
 4407SOL    HW113781   2.718   0.840  11.196
 4407SOL    HW213782   2.755   0.814  11.052
 4408SOL     OW13783   2.548   1.000   9.955
 4408SOL    HW113784   2.613   0.991  10.025
 4408SOL    HW213785   2.479   1.053   9.994
 4409SOL     OW13786   2.575   1.150  11.125
 4409SOL    HW113787   2.622   1.228  11.154
 4409SOL    HW213788   2.493   1.184  11.088
 4410SOL     OW13789   2.194   1.417  10.378
 4410SOL    HW113790   2.118   1.384  10.331
 4410SOL    HW213791   2.240   1.472  10.314
 4411SOL     OW13792   3.321   1.501  10.668
 4411SOL    HW113793   3.375   1.580  10.677
 4411SOL    HW213794   3.256   1.508  10.737
 4412SOL     OW13795   2.307   0.393  10.803
 4412SOL    HW113796   2.397   0.362  10.802
 4412SOL    HW213797   2.254   0.314  10.811
 4413SOL     OW13798   3.473   0.450  10.045
 4413SOL    HW113799   3.403   0.483   9.988
 4413SOL    HW213800   3.495   0.524  10.102
 4414SOL     OW13801   2.091   1.693   9.768
 4414SOL    HW113802   2.103   1.763   9.832
 4414SOL    HW213803   2.171   1.695   9.715
 4415SOL     OW13804   2.999   1.342  11.004
 4415SOL    HW113805   3.040   1.336  11.090
 4415SOL    HW213806   2.947   1.262  10.997
 4416SOL     OW13807   2.091   1.432   9.846
 4416SOL    HW113808   2.081   1.527   9.837
 4416SOL    HW213809   2.030   1.408   9.915
 4417SOL     OW13810   2.123   1.090  10.200
 4417SOL    HW113811   2.119   1.003  10.240
 4417SOL    HW213812   2.066   1.144  10.255
 4418SOL     OW13813   2.471   1.792  10.741
 4418SOL    HW113814   2.391   1.775  10.790
 4418SOL    HW213815   2.496   1.881  10.765
 4419SOL     OW13816   2.444   0.984   9.447
 4419SOL    HW113817   2.492   1.030   9.378
 4419SOL    HW213818   2.483   1.015   9.528
 4420SOL     OW13819   3.444   0.141  10.766
 4420SOL    HW113820   3.470   0.213  10.710
 4420SOL    HW213821   3.408   0.183  10.844
 4421SOL     OW13822   1.979   0.656   9.870
 4421SOL    HW113823   1.952   0.568   9.894
 4421SOL    HW213824   1.971   0.706   9.952
 4422SOL     OW13825   3.702   1.757   9.646
 4422SOL    HW113826   3.772   1.733   9.707
 4422SOL    HW213827   3.721   1.849   9.624
 4423SOL     OW13828   1.864   1.607   9.472
 4423SOL    HW113829   1.853   1.514   9.453
 4423SOL    HW213830   1.895   1.609   9.563
 4424SOL     OW13831   3.550   0.918   9.956
 4424SOL    HW113832   3.634   0.875   9.939
 4424SOL    HW213833   3.532   0.968   9.876
 4425SOL     OW13834   3.504   1.104   9.742
 4425SOL    HW113835   3.589   1.110   9.697
 4425SOL    HW213836   3.510   1.167   9.813
 4426SOL     OW13837   1.985   0.750  10.890
 4426SOL    HW113838   2.076   0.780  10.895
 4426SOL    HW213839   1.932   0.829  10.897
 4427SOL     OW13840   2.477   1.388  10.044
 4427SOL    HW113841   2.431   1.305  10.054
 4427SOL    HW213842   2.459   1.416   9.954
 4428SOL     OW13843   3.149   1.237  10.732
 4428SOL    HW113844   3.181   1.170  10.672
 4428SOL    HW213845   3.208   1.232  10.808
 4429SOL     OW13846   2.682   0.004   9.827
 4429SOL    HW113847   2.727   0.085   9.802
 4429SOL    HW213848   2.589   0.028   9.827
 4430SOL     OW13849   2.051   0.962  10.586
 4430SOL    HW113850   2.136   0.923  10.570
 4430SOL    HW213851   1.991   0.913  10.530
 4431SOL     OW13852   3.390   0.996   9.511
 4431SOL    HW113853   3.321   0.939   9.544
 4431SOL    HW213854   3.432   1.031   9.589
 4432SOL     OW13855   3.047   1.809  10.933
 4432SOL    HW113856   3.055   1.868  10.859
 4432SOL    HW213857   3.064   1.722  10.897
 4433SOL     OW13858   2.219   0.253  11.149
 4433SOL    HW113859   2.263   0.338  11.148
 4433SOL    HW213860   2.126   0.274  11.153
 4434SOL     OW13861   3.328   1.420  10.259
 4434SOL    HW113862   3.261   1.435  10.326
 4434SOL    HW213863   3.317   1.328  10.234
 4435SOL     OW13864   3.515   1.746   9.889
 4435SOL    HW113865   3.500   1.713   9.800
 4435SOL    HW213866   3.495   1.671   9.946
 4436SOL     OW13867   2.457   0.720   9.578
 4436SOL    HW113868   2.461   0.803   9.530
 4436SOL    HW213869   2.393   0.735   9.647
 4437SOL     OW13870   3.137   0.368  10.251
 4437SOL    HW113871   3.049   0.330  10.258
 4437SOL    HW213872   3.194   0.307  10.296
 4438SOL     OW13873   3.439   1.671   9.620
 4438SOL    HW113874   3.530   1.701   9.613
 4438SOL    HW213875   3.413   1.655   9.529
 4439SOL     OW13876   2.658   0.616  10.762
 4439SOL    HW113877   2.629   0.590  10.850
 4439SOL    HW213878   2.619   0.550  10.704
 4440SOL     OW13879   3.254   0.476  10.987
 4440SOL    HW113880   3.260   0.521  11.071
 4440SOL    HW213881   3.311   0.400  10.997
 4441SOL     OW13882   2.814   0.887  10.894
 4441SOL    HW113883   2.869   0.818  10.857
 4441SOL    HW213884   2.766   0.923  10.819
 4442SOL     OW13885   2.854   0.402  10.548
 4442SOL    HW113886   2.770   0.424  10.588
 4442SOL    HW213887   2.834   0.375  10.459
 4443SOL     OW13888   2.914   0.699   9.735
 4443SOL    HW113889   2.931   0.692   9.829
 4443SOL    HW213890   2.831   0.653   9.722
 4444SOL     OW13891   1.949   0.823  10.087
 4444SOL    HW113892   2.030   0.815  10.138
 4444SOL    HW213893   1.906   0.900  10.122
 4445SOL     OW13894   2.757   0.352   9.509
 4445SOL    HW113895   2.799   0.411   9.447
 4445SOL    HW213896   2.750   0.269   9.463
 4446SOL     OW13897   3.570   0.574  11.139
 4446SOL    HW113898   3.533   0.648  11.092
 4446SOL    HW213899   3.595   0.512  11.071
 4447SOL     OW13900   3.239   1.141   9.850
 4447SOL    HW113901   3.319   1.130   9.799
 4447SOL    HW213902   3.187   1.204   9.800
 4448SOL     OW13903   2.420   0.199  10.191
 4448SOL    HW113904   2.423   0.218  10.284
 4448SOL    HW213905   2.416   0.285  10.149
 4449SOL     OW13906   2.865   1.444   9.780
 4449SOL    HW113907   2.830   1.518   9.731
 4449SOL    HW213908   2.844   1.464   9.871
 4450SOL     OW13909   2.227   1.800  10.140
 4450SOL    HW113910   2.259   1.714  10.166
 4450SOL    HW213911   2.293   1.861  10.175
 4451SOL     OW13912   3.667   1.062  10.177
 4451SOL    HW113913   3.613   1.037  10.102
 4451SOL    HW213914   3.605   1.065  10.251
 4452SOL     OW13915   3.089   1.539  10.823
 4452SOL    HW113916   3.076   1.467  10.885
 4452SOL    HW213917   3.024   1.524  10.755
 4453SOL     OW13918   2.180   0.960   9.562
 4453SOL    HW113919   2.263   0.979   9.517
 4453SOL    HW213920   2.151   0.877   9.524
 4454SOL     OW13921   3.342   0.746  10.038
 4454SOL    HW113922   3.336   0.705  10.125
 4454SOL    HW213923   3.419   0.803  10.044
 4455SOL     OW13924   2.331   1.264  11.049
 4455SOL    HW113925   2.304   1.268  10.957
 4455SOL    HW213926   2.249   1.261  11.097
 4456SOL     OW13927   2.985   1.778   9.540
 4456SOL    HW113928   2.910   1.737   9.585
 4456SOL    HW213929   3.009   1.715   9.472
 4457SOL     OW13930   2.032   0.274  10.809
 4457SOL    HW113931   1.976   0.352  10.799
 4457SOL    HW213932   2.038   0.262  10.904
 4458SOL     OW13933   3.487   1.383   9.397
 4458SOL    HW113934   3.444   1.468   9.382
 4458SOL    HW213935   3.420   1.318   9.378
 4459SOL     OW13936   2.339   1.713   9.654
 4459SOL    HW113937   2.374   1.789   9.700
 4459SOL    HW213938   2.395   1.705   9.576
 4460SOL     OW13939   3.297   0.170   9.712
 4460SOL    HW113940   3.252   0.096   9.671
 4460SOL    HW213941   3.372   0.130   9.756
 4461SOL     OW13942   2.160   1.766  10.533
 4461SOL    HW113943   2.198   1.684  10.563
 4461SOL    HW213944   2.118   1.744  10.450
 4462SOL     OW13945   2.799   1.699  10.207
 4462SOL    HW113946   2.877   1.649  10.229
 4462SOL    HW213947   2.757   1.649  10.137
 4463SOL     OW13948   2.257   0.695   9.784
 4463SOL    HW113949   2.275   0.602   9.797
 4463SOL    HW213950   2.163   0.704   9.802
 4464SOL     OW13951   3.392   0.230  11.037
 4464SOL    HW113952   3.385   0.255  11.129
 4464SOL    HW213953   3.373   0.136  11.036
 4465SOL     OW13954   2.505   0.130   9.418
 4465SOL    HW113955   2.529   0.046   9.458
 4465SOL    HW213956   2.443   0.108   9.349
 4466SOL     OW13957   2.637   0.282  11.078
 4466SOL    HW113958   2.709   0.219  11.082
 4466SOL    HW213959   2.579   0.256  11.150
 4467SOL     OW13960   2.738   1.523  10.504
 4467SOL    HW113961   2.722   1.486  10.417
 4467SOL    HW213962   2.808   1.468  10.540
 4468SOL     OW13963   3.202   0.587  10.740
 4468SOL    HW113964   3.232   0.559  10.827
 4468SOL    HW213965   3.236   0.676  10.731
 4469SOL     OW13966   2.679   1.393  10.252
 4469SOL    HW113967   2.763   1.381  10.209
 4469SOL    HW213968   2.615   1.396  10.181
 4470SOL     OW13969   2.792   0.511  10.210
 4470SOL    HW113970   2.767   0.503  10.118
 4470SOL    HW213971   2.818   0.423  10.236
 4471SOL     OW13972   2.407   0.057   9.801
 4471SOL    HW113973   2.333   0.062   9.861
 4471SOL    HW213974   2.402   0.138   9.750
 4472SOL     OW13975   3.289   1.199   9.350
 4472SOL    HW113976   3.319   1.124   9.401
 4472SOL    HW213977   3.204   1.221   9.388
 4473SOL     OW13978   2.191   0.044   9.521
 4473SOL    HW113979   2.200   0.110   9.453
 4473SOL    HW213980   2.274   0.048   9.570
 4474SOL     OW13981   2.804   0.250   9.770
 4474SOL    HW113982   2.779   0.290   9.686
 4474SOL    HW213983   2.900   0.254   9.771
 4475SOL     OW13984   2.942   0.684  10.769
 4475SOL    HW113985   2.871   0.619  10.775
 4475SOL    HW213986   3.022   0.632  10.763
 4476SOL     OW13987   3.083   1.571  10.104
 4476SOL    HW113988   3.099   1.637  10.036
 4476SOL    HW213989   3.153   1.586  10.168
 4477SOL     OW13990   2.333   1.151  10.041
 4477SOL    HW113991   2.265   1.132  10.105
 4477SOL    HW213992   2.291   1.136   9.956
 4478SOL     OW13993   3.129   1.793   9.920
 4478SOL    HW113994   3.177   1.854   9.864
 4478SOL    HW213995   3.063   1.847   9.962
 4479SOL     OW13996   2.884   0.543   9.338
 4479SOL    HW113997   2.840   0.625   9.319
 4479SOL    HW213998   2.947   0.565   9.406
 4480SOL     OW13999   1.944   0.550  10.706
 4480SOL    HW114000   2.035   0.552  10.677
 4480SOL    HW214001   1.937   0.623  10.768
 4481SOL     OW14002   2.425   0.231  10.471
 4481SOL    HW114003   2.449   0.139  10.481
 4481SOL    HW214004   2.336   0.236  10.503
 4482SOL     OW14005   2.732   0.461   9.948
 4482SOL    HW114006   2.684   0.515   9.885
 4482SOL    HW214007   2.753   0.381   9.900
 4483SOL     OW14008   2.858   0.039  10.090
 4483SOL    HW114009   2.821   0.068  10.007
 4483SOL    HW214010   2.869   3.945  10.080
 4484SOL     OW14011   3.302   1.161  10.168
 4484SOL    HW114012   3.230   1.098  10.166
 4484SOL    HW214013   3.327   1.171  10.076
 4485SOL     OW14014   3.326   0.608  10.284
 4485SOL    HW114015   3.273   0.529  10.289
 4485SOL    HW214016   3.386   0.601  10.358
 4486SOL     OW14017   3.722   0.824   9.685
 4486SOL    HW114018   3.763   0.767   9.749
 4486SOL    HW214019   3.684   0.764   9.621
 4487SOL     OW14020   2.354   1.420   9.463
 4487SOL    HW114021   2.279   1.394   9.517
 4487SOL    HW214022   2.341   1.375   9.380
 4488SOL     OW14023   3.529   1.265   9.954
 4488SOL    HW114024   3.624   1.268   9.964
 4488SOL    HW214025   3.500   1.354   9.975
 4489SOL     OW14026   3.257   0.575   9.379
 4489SOL    HW114027   3.193   0.556   9.448
 4489SOL    HW214028   3.342   0.560   9.420
 4490SOL     OW14029   2.388   0.266   9.626
 4490SOL    HW114030   2.443   0.228   9.558
 4490SOL    HW214031   2.360   0.350   9.589
 4491SOL     OW14032   3.613   1.234  10.876
 4491SOL    HW114033   3.701   1.199  10.859
 4491SOL    HW214034   3.629   1.323  10.906
 4492SOL     OW14035   2.918   1.354  10.643
 4492SOL    HW114036   2.843   1.322  10.694
 4492SOL    HW214037   2.994   1.312  10.684
 4493SOL     OW14038   3.468   1.628  10.966
 4493SOL    HW114039   3.460   1.663  10.877
 4493SOL    HW214040   3.548   1.577  10.965
 4494SOL     OW14041   2.994   1.206  10.414
 4494SOL    HW114042   2.934   1.244  10.478
 4494SOL    HW214043   2.962   1.240  10.330
 4495SOL     OW14044   3.490   1.096  10.385
 4495SOL    HW114045   3.481   1.158  10.457
 4495SOL    HW214046   3.413   1.112  10.330
 4496SOL     OW14047   2.774   0.116  10.711
 4496SOL    HW114048   2.794   0.089  10.622
 4496SOL    HW214049   2.855   0.158  10.742
 4497SOL     OW14050   2.846   1.115  11.034
 4497SOL    HW114051   2.755   1.132  11.056
 4497SOL    HW214052   2.843   1.037  10.978
 4498SOL     OW14053   2.571   1.062   9.681
 4498SOL    HW114054   2.557   1.044   9.774
 4498SOL    HW214055   2.646   1.008   9.657
 4499SOL     OW14056   2.282   0.816  10.562
 4499SOL    HW114057   2.351   0.824  10.628
 4499SOL    HW214058   2.247   0.728  10.574
 4500SOL     OW14059   3.128   0.375  10.586
 4500SOL    HW114060   3.162   0.453  10.630
 4500SOL    HW214061   3.041   0.400  10.556
 4501SOL     OW14062   1.936   1.577  10.664
 4501SOL    HW114063   1.903   1.641  10.601
 4501SOL    HW214064   2.031   1.577  10.651
 4502SOL     OW14065   2.208   1.112   9.800
 4502SOL    HW114066   2.212   1.187   9.741
 4502SOL    HW214067   2.204   1.036   9.742
 4503SOL     OW14068   2.416   0.532  10.167
 4503SOL    HW114069   2.430   0.592  10.093
 4503SOL    HW214070   2.481   0.559  10.232
 4504SOL     OW14071   3.110   1.349   9.699
 4504SOL    HW114072   3.165   1.420   9.730
 4504SOL    HW214073   3.023   1.370   9.733
 4505SOL     OW14074   3.146   1.459  10.458
 4505SOL    HW114075   3.202   1.463  10.535
 4505SOL    HW214076   3.091   1.382  10.471
 4506SOL     OW14077   3.434   0.632   9.795
 4506SOL    HW114078   3.392   0.688   9.861
 4506SOL    HW214079   3.481   0.693   9.739
 4507SOL     OW14080   2.215   1.514  10.626
 4507SOL    HW114081   2.201   1.471  10.542
 4507SOL    HW214082   2.310   1.525  10.632
 4508SOL     OW14083   2.279   0.744  10.912
 4508SOL    HW114084   2.340   0.790  10.854
 4508SOL    HW214085   2.321   0.660  10.929
 4509SOL     OW14086   3.466   0.778  10.993
 4509SOL    HW114087   3.381   0.821  10.987
 4509SOL    HW214088   3.519   0.821  10.926
 4510SOL     OW14089   2.876   0.131  11.090
 4510SOL    HW114090   2.925   0.204  11.052
 4510SOL    HW214091   2.859   0.073  11.016
 4511SOL     OW14092   2.350   0.034  11.072
 4511SOL    HW114093   2.353   0.047  10.977
 4511SOL    HW214094   2.291   0.102  11.104
 4512SOL     OW14095   2.446   0.874  10.342
 4512SOL    HW114096   2.475   0.965  10.342
 4512SOL    HW214097   2.389   0.866  10.418
 4513SOL     OW14098   3.215   0.859  10.336
 4513SOL    HW114099   3.131   0.847  10.293
 4513SOL    HW214100   3.258   0.774  10.329
 4514SOL     OW14101   3.063   0.537   9.568
 4514SOL    HW114102   3.070   0.458   9.621
 4514SOL    HW214103   3.020   0.600   9.625
 4515SOL     OW14104   2.162   0.209  10.553
 4515SOL    HW114105   2.120   0.238  10.634
 4515SOL    HW214106   2.150   0.114  10.553
 4516SOL     OW14107   1.906   1.313  10.588
 4516SOL    HW114108   1.940   1.257  10.658
 4516SOL    HW214109   1.914   1.402  10.622
 4517SOL     OW14110   2.584   0.632  10.362
 4517SOL    HW114111   2.660   0.619  10.305
 4517SOL    HW214112   2.555   0.721  10.344
 4518SOL     OW14113   3.594   0.957  11.172
 4518SOL    HW114114   3.551   0.895  11.113
 4518SOL    HW214115   3.530   0.972  11.242
 4519SOL     OW14116   2.185   0.056   9.961
 4519SOL    HW114117   2.165   0.149   9.973
 4519SOL    HW214118   2.149   0.014  10.040
 4520SOL     OW14119   3.474   0.392   9.689
 4520SOL    HW114120   3.436   0.323   9.744
 4520SOL    HW214121   3.452   0.473   9.735
 4521SOL     OW14122   2.892   0.759  10.269
 4521SOL    HW114123   2.885   0.776  10.363
 4521SOL    HW214124   2.864   0.668  10.259
 4522SOL     OW14125   2.844   1.567  11.029
 4522SOL    HW114126   2.828   1.610  10.945
 4522SOL    HW214127   2.887   1.485  11.006
 4523SOL     OW14128   3.705   1.499  10.908
 4523SOL    HW114129   3.728   1.528  10.820
 4523SOL    HW214130   3.786   1.509  10.959
 4524SOL     OW14131   2.214   0.914  11.120
 4524SOL    HW114132   2.296   0.935  11.165
 4524SOL    HW214133   2.240   0.853  11.051
 4525SOL     OW14134   3.364   0.274   9.444
 4525SOL    HW114135   3.290   0.214   9.455
 4525SOL    HW214136   3.376   0.313   9.531
 4526SOL     OW14137   3.150   0.826   9.338
 4526SOL    HW114138   3.193   0.741   9.342
 4526SOL    HW214139   3.183   0.866   9.258
 4527SOL     OW14140   2.929   1.337  10.165
 4527SOL    HW114141   2.933   1.265  10.103
 4527SOL    HW214142   2.989   1.403  10.130
 4528SOL     OW14143   2.170   0.810  10.256
 4528SOL    HW114144   2.263   0.831  10.249
 4528SOL    HW214145   2.168   0.719  10.288
 4529SOL     OW14146   2.198   0.536  10.324
 4529SOL    HW114147   2.157   0.451  10.308
 4529SOL    HW214148   2.274   0.537  10.266
 4530SOL     OW14149   2.995   0.381  11.007
 4530SOL    HW114150   2.946   0.435  11.068
 4530SOL    HW214151   3.081   0.421  11.002
 4531SOL     OW14152   3.013   0.226  10.791
 4531SOL    HW114153   3.004   0.280  10.870
 4531SOL    HW214154   3.038   0.288  10.722
 4532SOL     OW14155   1.867   1.319   9.503
 4532SOL    HW114156   1.779   1.332   9.467
 4532SOL    HW214157   1.865   1.229   9.538
 4533SOL     OW14158   1.981   1.727  10.300
 4533SOL    HW114159   1.944   1.664  10.238
 4533SOL    HW214160   2.017   1.796  10.245
 4534SOL     OW14161   2.360   1.570  10.221
 4534SOL    HW114162   2.427   1.635  10.243
 4534SOL    HW214163   2.404   1.510  10.161
 4535SOL     OW14164   2.841   0.788  10.534
 4535SOL    HW114165   2.897   0.769  10.609
 4535SOL    HW214166   2.755   0.753  10.559
 4536SOL     OW14167   1.895   0.547  10.427
 4536SOL    HW114168   1.970   0.522  10.373
 4536SOL    HW214169   1.929   0.547  10.516
 4537SOL     OW14170   2.065   0.526  11.022
 4537SOL    HW114171   2.136   0.506  10.961
 4537SOL    HW214172   2.021   0.602  10.984
 4538SOL     OW14173   3.242   0.936  10.967
 4538SOL    HW114174   3.263   1.030  10.965
 4538SOL    HW214175   3.237   0.910  10.876
 4539SOL     OW14176   2.679   0.572   9.674
 4539SOL    HW114177   2.685   0.497   9.615
 4539SOL    HW214178   2.604   0.622   9.641
 4540SOL     OW14179   3.502   0.602  10.493
 4540SOL    HW114180   3.491   0.541  10.566
 4540SOL    HW214181   3.588   0.581  10.457
 4541SOL     OW14182   2.114   1.536  11.016
 4541SOL    HW114183   2.097   1.605  11.080
 4541SOL    HW214184   2.118   1.456  11.068
 4542SOL     OW14185   2.569   0.453  10.566
 4542SOL    HW114186   2.518   0.376  10.541
 4542SOL    HW214187   2.561   0.513  10.492
 4543SOL     OW14188   2.787   1.679  10.779
 4543SOL    HW114189   2.763   1.642  10.694
 4543SOL    HW214190   2.781   1.774  10.766
 4544SOL     OW14191   2.325   0.494   9.493
 4544SOL    HW114192   2.383   0.566   9.517
 4544SOL    HW214193   2.239   0.535   9.481
 4545SOL     OW14194   2.004   1.141  10.783
 4545SOL    HW114195   2.007   1.092  10.865
 4545SOL    HW214196   2.022   1.076  10.715
 4546SOL     OW14197   3.184   1.045  10.532
 4546SOL    HW114198   3.207   0.982  10.464
 4546SOL    HW214199   3.116   1.099  10.492
 4547SOL     OW14200   3.176   0.854   9.615
 4547SOL    HW114201   3.100   0.827   9.667
 4547SOL    HW214202   3.148   0.843   9.524
 4548SOL     OW14203   3.642   1.741  10.467
 4548SOL    HW114204   3.697   1.769  10.394
 4548SOL    HW214205   3.613   1.654  10.443
 4549SOL     OW14206   3.102   1.734  10.420
 4549SOL    HW114207   3.185   1.756  10.376
 4549SOL    HW214208   3.110   1.640  10.439
 4550SOL     OW14209   1.949   1.263  10.324
 4550SOL    HW114210   1.931   1.280  10.417
 4550SOL    HW214211   1.874   1.211  10.294
 4551SOL     OW14212   2.539   1.668  11.041
 4551SOL    HW114213   2.485   1.747  11.039
 4551SOL    HW214214   2.606   1.682  10.974
 4552SOL     OW14215   3.551   0.120   9.798
 4552SOL    HW114216   3.632   0.135   9.749
 4552SOL    HW214217   3.553   0.027   9.819
 4553SOL     OW14218   3.253   1.567   9.798
 4553SOL    HW114219   3.312   1.600   9.730
 4553SOL    HW214220   3.203   1.644   9.826
 4554SOL     OW14221   2.037   1.737  11.171
 4554SOL    HW114222   1.970   1.698  11.228
 4554SOL    HW214223   2.007   1.827  11.157
 4555SOL     OW14224   3.139   0.927   9.981
 4555SOL    HW114225   3.214   0.867   9.991
 4555SOL    HW214226   3.173   0.999   9.928
 4556SOL     OW14227   2.672   1.274  10.737
 4556SOL    HW114228   2.644   1.314  10.820
 4556SOL    HW214229   2.602   1.295  10.675
 4557SOL     OW14230   2.537   1.622   9.461
 4557SOL    HW114231   2.545   1.633   9.366
 4557SOL    HW214232   2.479   1.546   9.471
 4558SOL     OW14233   3.482   1.727  10.701
 4558SOL    HW114234   3.537   1.732  10.623
 4558SOL    HW214235   3.469   1.818  10.727
 4559SOL     OW14236   3.703   0.182  10.281
 4559SOL    HW114237   3.727   0.097  10.243
 4559SOL    HW214238   3.617   0.201  10.244
 4560SOL     OW14239   2.126   0.316  10.025
 4560SOL    HW114240   2.039   0.351  10.003
 4560SOL    HW214241   2.125   0.308  10.120
 4561SOL     OW14242   3.070   1.604   9.342
 4561SOL    HW114243   3.059   1.513   9.369
 4561SOL    HW214244   3.004   1.617   9.274
 4562SOL     OW14245   2.686   1.006  10.683
 4562SOL    HW114246   2.728   1.002  10.597
 4562SOL    HW214247   2.684   1.099  10.704
 4563SOL     OW14248   2.778   0.910   9.600
 4563SOL    HW114249   2.839   0.943   9.534
 4563SOL    HW214250   2.827   0.842   9.646
 4564SOL     OW14251   3.351   1.628   9.353
 4564SOL    HW114252   3.257   1.619   9.338
 4564SOL    HW214253   3.389   1.634   9.265
 4565SOL     OW14254   2.232   1.296  10.803
 4565SOL    HW114255   2.220   1.375  10.749
 4565SOL    HW214256   2.153   1.244  10.787
 4566SOL     OW14257   3.463   1.280  10.587
 4566SOL    HW114258   3.531   1.272  10.654
 4566SOL    HW214259   3.406   1.349  10.620
 4567SOL     OW14260   2.918   1.109  10.019
 4567SOL    HW114261   2.846   1.058  10.056
 4567SOL    HW214262   2.981   1.043   9.989
 4568SOL     OW14263   2.876   0.249  10.279
 4568SOL    HW114264   2.867   0.198  10.199
 4568SOL    HW214265   2.872   0.183  10.349
 4569SOL     OW14266   2.465   1.489   9.791
 4569SOL    HW114267   2.508   1.440   9.721
 4569SOL    HW214268   2.404   1.547   9.745
 4570SOL     OW14269   3.582   0.394  10.682
 4570SOL    HW114270   3.654   0.457  10.682
 4570SOL    HW214271   3.614   0.321  10.628
 4571SOL     OW14272   2.122   1.344   9.596
 4571SOL    HW114273   2.028   1.340   9.575
 4571SOL    HW214274   2.125   1.378   9.685
 4572SOL     OW14275   1.975   1.026  11.031
 4572SOL    HW114276   1.899   1.001  11.083
 4572SOL    HW214277   2.049   0.986  11.077
 4573SOL     OW14278   2.555   0.255  10.811
 4573SOL    HW114279   2.622   0.200  10.770
 4573SOL    HW214280   2.582   0.261  10.903
 4574SOL     OW14281   1.962   0.317   9.301
 4574SOL    HW114282   1.894   0.337   9.366
 4574SOL    HW214283   1.970   0.398   9.250
 4575SOL     OW14284   3.287   0.857  10.708
 4575SOL    HW114285   3.238   0.919  10.655
 4575SOL    HW214286   3.376   0.859  10.672
 4576SOL     OW14287   1.943   0.152   9.650
 4576SOL    HW114288   1.912   0.212   9.581
 4576SOL    HW214289   2.029   0.124   9.620
 4577SOL     OW14290   3.040   1.338   9.427
 4577SOL    HW114291   2.949   1.307   9.430
 4577SOL    HW214292   3.067   1.338   9.519
 4578SOL     OW14293   2.483   0.829  10.744
 4578SOL    HW114294   2.539   0.905  10.729
 4578SOL    HW214295   2.544   0.755  10.753
 4579SOL     OW14296   3.344   1.781  10.290
 4579SOL    HW114297   3.367   1.843  10.221
 4579SOL    HW214298   3.428   1.754  10.327
 4580SOL     OW14299   2.580   0.561  11.014
 4580SOL    HW114300   2.622   0.624  11.073
 4580SOL    HW214301   2.606   0.475  11.048
 4581SOL     OW14302   3.335   1.197  10.940
 4581SOL    HW114303   3.323   1.212  11.034
 4581SOL    HW214304   3.428   1.213  10.925
 4582SOL     OW14305   2.237   1.747  10.881
 4582SOL    HW114306   2.167   1.759  10.816
 4582SOL    HW214307   2.216   1.664  10.924
 4583SOL     OW14308   3.526   0.881  10.569
 4583SOL    HW114309   3.525   0.796  10.525
 4583SOL    HW214310   3.520   0.944  10.498
 4584SOL     OW14311   3.082   0.337   9.753
 4584SOL    HW114312   3.151   0.271   9.744
 4584SOL    HW214313   3.103   0.381   9.836
 4585SOL     OW14314   2.451   0.736   9.981
 4585SOL    HW114315   2.490   0.822   9.966
 4585SOL    HW214316   2.385   0.728   9.913
 4586SOL     OW14317   3.616   0.381  10.952
 4586SOL    HW114318   3.595   0.390  10.859
 4586SOL    HW214319   3.556   0.314  10.984
 4587SOL     OW14320   3.616   0.930  10.823
 4587SOL    HW114321   3.607   1.024  10.841
 4587SOL    HW214322   3.592   0.920  10.731
 4588SOL     OW14323   2.724   1.366   9.347
 4588SOL    HW114324   2.686   1.393   9.431
 4588SOL    HW214325   2.741   1.449   9.302
 4589SOL     OW14326   2.524   1.792  10.252
 4589SOL    HW114327   2.509   1.884  10.227
 4589SOL    HW214328   2.619   1.781  10.244
 4590SOL     OW14329   2.730   0.969  10.164
 4590SOL    HW114330   2.781   0.897  10.203
 4590SOL    HW214331   2.694   1.016  10.240
 4591SOL     OW14332   2.940   0.989   9.399
 4591SOL    HW114333   2.918   1.040   9.322
 4591SOL    HW214334   3.014   0.935   9.372
 4592SOL     OW14335   3.714   1.556  10.151
 4592SOL    HW114336   3.635   1.540  10.100
 4592SOL    HW214337   3.713   1.489  10.219
 4593SOL     OW14338   2.089   1.300  11.166
 4593SOL    HW114339   2.022   1.238  11.139
 4593SOL    HW214340   2.075   1.312  11.259
 4594SOL     OW14341   1.943   1.224   9.976
 4594SOL    HW114342   1.957   1.179  10.059
 4594SOL    HW214343   2.015   1.195   9.920
 4595SOL     OW14344   2.544   1.405  10.939
 4595SOL    HW114345   2.465   1.362  10.971
 4595SOL    HW214346   2.540   1.493  10.976
 4596SOL     OW14347   3.676   0.181  10.554
 4596SOL    HW114348   3.678   0.086  10.563
 4596SOL    HW214349   3.694   0.198  10.462
 4597SOL     OW14350   2.290   0.435   9.835
 4597SOL    HW114351   2.324   0.363   9.782
 4597SOL    HW214352   2.243   0.391   9.906
 4598SOL     OW14353   3.558   1.491  10.407
 4598SOL    HW114354   3.480   1.468  10.357
 4598SOL    HW214355   3.568   1.419  10.469
 4599SOL     OW14356   2.193   0.556  10.604
 4599SOL    HW114357   2.246   0.497  10.658
 4599SOL    HW214358   2.212   0.530  10.514
 4600SOL     OW14359   2.690   1.578   9.986
 4600SOL    HW114360   2.672   1.635   9.911
 4600SOL    HW214361   2.616   1.518   9.989
 4601SOL     OW14362   3.323   0.253  10.420
 4601SOL    HW114363   3.337   0.165  10.455
 4601SOL    HW214364   3.267   0.296  10.485
 4602SOL     OW14365   2.866   0.027  10.456
 4602SOL    HW114366   2.785   3.991  10.421
 4602SOL    HW214367   2.925   3.952  10.465
 4603SOL     OW14368   2.636   1.333   9.626
 4603SOL    HW114369   2.606   1.243   9.634
 4603SOL    HW214370   2.717   1.336   9.678
 4604SOL     OW14371   2.483   1.555  10.597
 4604SOL    HW114372   2.484   1.637  10.645
 4604SOL    HW214373   2.571   1.548  10.559
 4605SOL     OW14374   3.173   0.071   9.470
 4605SOL    HW114375   3.179   3.989   9.420
 4605SOL    HW214376   3.088   0.065   9.514
 4606SOL     OW14377   3.143   0.457   9.995
 4606SOL    HW114378   3.097   0.540   9.990
 4606SOL    HW214379   3.146   0.437  10.089
 4607SOL     OW14380   3.452   0.210  10.177
 4607SOL    HW114381   3.404   0.234  10.256
 4607SOL    HW214382   3.451   0.290  10.124
 4608SOL     OW14383   1.906   1.070   9.616
 4608SOL    HW114384   2.000   1.062   9.599
 4608SOL    HW214385   1.878   0.982   9.640
 4609SOL     OW14386   2.748   1.656   9.651
 4609SOL    HW114387   2.675   1.639   9.591
 4609SOL    HW214388   2.718   1.730   9.704
 4610SOL     OW14389   2.089   0.619  11.293
 4610SOL    HW114390   1.999   0.628  11.324
 4610SOL    HW214391   2.080   0.600  11.200
 4611SOL     OW14392   2.079   0.301  12.163
 4611SOL    HW114393   2.116   0.257  12.240
 4611SOL    HW214394   1.994   0.258  12.150
 4612SOL     OW14395   1.871   0.397  11.805
 4612SOL    HW114396   1.784   0.412  11.843
 4612SOL    HW214397   1.857   0.328  11.740
 4613SOL     OW14398   2.430   1.291  12.349
 4613SOL    HW114399   2.344   1.296  12.308
 4613SOL    HW214400   2.447   1.380  12.380
 4614SOL     OW14401   3.426   1.513  11.880
 4614SOL    HW114402   3.383   1.491  11.963
 4614SOL    HW214403   3.354   1.518  11.816
 4615SOL     OW14404   2.995   0.698  11.869
 4615SOL    HW114405   3.042   0.780  11.856
 4615SOL    HW214406   2.947   0.711  11.951
 4616SOL     OW14407   3.623   0.623  11.398
 4616SOL    HW114408   3.605   0.612  11.305
 4616SOL    HW214409   3.606   0.537  11.437
 4617SOL     OW14410   2.615   1.140  12.216
 4617SOL    HW114411   2.546   1.176  12.273
 4617SOL    HW214412   2.651   1.217  12.171
 4618SOL     OW14413   2.733   0.770  12.995
 4618SOL    HW114414   2.718   0.842  13.057
 4618SOL    HW214415   2.755   0.813  12.913
 4619SOL     OW14416   2.548   1.000  11.817
 4619SOL    HW114417   2.613   0.991  11.887
 4619SOL    HW214418   2.479   1.053  11.856
 4620SOL     OW14419   2.575   1.150  12.987
 4620SOL    HW114420   2.622   1.228  13.016
 4620SOL    HW214421   2.493   1.184  12.950
 4621SOL     OW14422   2.194   1.418  12.240
 4621SOL    HW114423   2.118   1.384  12.193
 4621SOL    HW214424   2.240   1.472  12.176
 4622SOL     OW14425   3.321   1.501  12.530
 4622SOL    HW114426   3.375   1.580  12.539
 4622SOL    HW214427   3.256   1.508  12.599
 4623SOL     OW14428   2.307   0.393  12.665
 4623SOL    HW114429   2.397   0.362  12.664
 4623SOL    HW214430   2.254   0.314  12.673
 4624SOL     OW14431   3.473   0.450  11.907
 4624SOL    HW114432   3.403   0.483  11.850
 4624SOL    HW214433   3.494   0.524  11.964
 4625SOL     OW14434   2.093   1.690  11.629
 4625SOL    HW114435   2.106   1.759  11.695
 4625SOL    HW214436   2.172   1.693  11.576
 4626SOL     OW14437   2.999   1.342  12.865
 4626SOL    HW114438   3.040   1.337  12.952
 4626SOL    HW214439   2.947   1.262  12.858
 4627SOL     OW14440   2.092   1.430  11.708
 4627SOL    HW114441   2.083   1.525  11.698
 4627SOL    HW214442   2.030   1.407  11.777
 4628SOL     OW14443   2.123   1.090  12.062
 4628SOL    HW114444   2.119   1.003  12.102
 4628SOL    HW214445   2.066   1.144  12.117
 4629SOL     OW14446   2.471   1.792  12.603
 4629SOL    HW114447   2.391   1.775  12.651
 4629SOL    HW214448   2.496   1.881  12.627
 4630SOL     OW14449   2.445   0.984  11.308
 4630SOL    HW114450   2.492   1.030  11.240
 4630SOL    HW214451   2.484   1.015  11.390
 4631SOL     OW14452   3.444   0.141  12.628
 4631SOL    HW114453   3.469   0.213  12.572
 4631SOL    HW214454   3.407   0.183  12.706
 4632SOL     OW14455   1.979   0.656  11.732
 4632SOL    HW114456   1.952   0.568  11.756
 4632SOL    HW214457   1.971   0.706  11.814
 4633SOL     OW14458   3.702   1.757  11.508
 4633SOL    HW114459   3.772   1.733  11.569
 4633SOL    HW214460   3.721   1.849  11.486
 4634SOL     OW14461   1.861   1.609  11.336
 4634SOL    HW114462   1.851   1.516  11.315
 4634SOL    HW214463   1.895   1.609  11.426
 4635SOL     OW14464   3.550   0.918  11.818
 4635SOL    HW114465   3.634   0.875  11.801
 4635SOL    HW214466   3.532   0.968  11.738
 4636SOL     OW14467   3.504   1.104  11.604
 4636SOL    HW114468   3.589   1.110  11.559
 4636SOL    HW214469   3.510   1.167  11.675
 4637SOL     OW14470   1.985   0.749  12.753
 4637SOL    HW114471   2.076   0.780  12.756
 4637SOL    HW214472   1.932   0.829  12.759
 4638SOL     OW14473   2.477   1.388  11.906
 4638SOL    HW114474   2.431   1.305  11.916
 4638SOL    HW214475   2.459   1.416  11.816
 4639SOL     OW14476   3.149   1.237  12.595
 4639SOL    HW114477   3.181   1.170  12.534
 4639SOL    HW214478   3.208   1.232  12.670
 4640SOL     OW14479   2.682   0.004  11.689
 4640SOL    HW114480   2.727   0.085  11.664
 4640SOL    HW214481   2.589   0.028  11.689
 4641SOL     OW14482   2.051   0.962  12.448
 4641SOL    HW114483   2.136   0.923  12.432
 4641SOL    HW214484   1.991   0.913  12.392
 4642SOL     OW14485   3.390   0.996  11.373
 4642SOL    HW114486   3.321   0.939  11.406
 4642SOL    HW214487   3.432   1.031  11.451
 4643SOL     OW14488   3.047   1.809  12.795
 4643SOL    HW114489   3.055   1.868  12.721
 4643SOL    HW214490   3.064   1.722  12.759
 4644SOL     OW14491   2.219   0.253  13.011
 4644SOL    HW114492   2.263   0.338  13.010
 4644SOL    HW214493   2.126   0.274  13.016
 4645SOL     OW14494   3.329   1.420  12.121
 4645SOL    HW114495   3.261   1.435  12.188
 4645SOL    HW214496   3.317   1.328  12.096
 4646SOL     OW14497   3.515   1.746  11.751
 4646SOL    HW114498   3.500   1.713  11.662
 4646SOL    HW214499   3.495   1.671  11.808
 4647SOL     OW14500   2.457   0.720  11.440
 4647SOL    HW114501   2.461   0.803  11.392
 4647SOL    HW214502   2.392   0.735  11.509
 4648SOL     OW14503   3.137   0.368  12.113
 4648SOL    HW114504   3.049   0.330  12.120
 4648SOL    HW214505   3.194   0.307  12.158
 4649SOL     OW14506   3.439   1.671  11.482
 4649SOL    HW114507   3.530   1.701  11.475
 4649SOL    HW214508   3.413   1.655  11.391
 4650SOL     OW14509   2.658   0.616  12.624
 4650SOL    HW114510   2.629   0.590  12.712
 4650SOL    HW214511   2.619   0.550  12.566
 4651SOL     OW14512   3.254   0.476  12.849
 4651SOL    HW114513   3.260   0.521  12.933
 4651SOL    HW214514   3.311   0.400  12.859
 4652SOL     OW14515   2.814   0.887  12.756
 4652SOL    HW114516   2.869   0.818  12.719
 4652SOL    HW214517   2.766   0.923  12.681
 4653SOL     OW14518   2.854   0.402  12.410
 4653SOL    HW114519   2.770   0.423  12.449
 4653SOL    HW214520   2.834   0.375  12.321
 4654SOL     OW14521   2.914   0.699  11.597
 4654SOL    HW114522   2.931   0.692  11.691
 4654SOL    HW214523   2.831   0.653  11.584
 4655SOL     OW14524   1.949   0.823  11.949
 4655SOL    HW114525   2.030   0.815  12.000
 4655SOL    HW214526   1.906   0.900  11.984
 4656SOL     OW14527   2.757   0.352  11.371
 4656SOL    HW114528   2.799   0.411  11.309
 4656SOL    HW214529   2.750   0.269  11.325
 4657SOL     OW14530   3.569   0.575  13.002
 4657SOL    HW114531   3.532   0.649  12.954
 4657SOL    HW214532   3.595   0.512  12.933
 4658SOL     OW14533   3.239   1.141  11.712
 4658SOL    HW114534   3.319   1.130  11.661
 4658SOL    HW214535   3.187   1.204  11.662
 4659SOL     OW14536   2.420   0.199  12.053
 4659SOL    HW114537   2.423   0.218  12.147
 4659SOL    HW214538   2.416   0.285  12.011
 4660SOL     OW14539   2.865   1.444  11.642
 4660SOL    HW114540   2.830   1.518  11.592
 4660SOL    HW214541   2.844   1.464  11.733
 4661SOL     OW14542   2.228   1.800  12.003
 4661SOL    HW114543   2.260   1.714  12.028
 4661SOL    HW214544   2.294   1.861  12.037
 4662SOL     OW14545   3.667   1.062  12.039
 4662SOL    HW114546   3.614   1.037  11.964
 4662SOL    HW214547   3.605   1.065  12.113
 4663SOL     OW14548   3.089   1.539  12.685
 4663SOL    HW114549   3.076   1.467  12.747
 4663SOL    HW214550   3.024   1.524  12.616
 4664SOL     OW14551   2.180   0.960  11.424
 4664SOL    HW114552   2.263   0.979  11.379
 4664SOL    HW214553   2.151   0.877  11.386
 4665SOL     OW14554   3.342   0.746  11.900
 4665SOL    HW114555   3.336   0.705  11.987
 4665SOL    HW214556   3.419   0.803  11.906
 4666SOL     OW14557   2.331   1.264  12.911
 4666SOL    HW114558   2.304   1.268  12.819
 4666SOL    HW214559   2.249   1.261  12.960
 4667SOL     OW14560   2.985   1.778  11.402
 4667SOL    HW114561   2.910   1.737  11.447
 4667SOL    HW214562   3.009   1.715  11.334
 4668SOL     OW14563   2.032   0.275  12.671
 4668SOL    HW114564   1.976   0.352  12.661
 4668SOL    HW214565   2.038   0.261  12.766
 4669SOL     OW14566   3.487   1.383  11.259
 4669SOL    HW114567   3.444   1.468  11.244
 4669SOL    HW214568   3.420   1.318  11.240
 4670SOL     OW14569   2.340   1.713  11.515
 4670SOL    HW114570   2.374   1.789  11.561
 4670SOL    HW214571   2.396   1.705  11.437
 4671SOL     OW14572   3.297   0.170  11.574
 4671SOL    HW114573   3.252   0.096  11.533
 4671SOL    HW214574   3.372   0.130  11.618
 4672SOL     OW14575   2.158   1.763  12.401
 4672SOL    HW114576   2.198   1.681  12.429
 4672SOL    HW214577   2.119   1.743  12.315
 4673SOL     OW14578   2.799   1.699  12.069
 4673SOL    HW114579   2.877   1.649  12.091
 4673SOL    HW214580   2.757   1.649  11.999
 4674SOL     OW14581   2.257   0.695  11.646
 4674SOL    HW114582   2.275   0.602  11.659
 4674SOL    HW214583   2.163   0.704  11.664
 4675SOL     OW14584   3.392   0.229  12.898
 4675SOL    HW114585   3.385   0.254  12.990
 4675SOL    HW214586   3.374   0.135  12.898
 4676SOL     OW14587   2.505   0.130  11.280
 4676SOL    HW114588   2.529   0.046  11.320
 4676SOL    HW214589   2.443   0.108  11.211
 4677SOL     OW14590   2.637   0.282  12.940
 4677SOL    HW114591   2.709   0.219  12.943
 4677SOL    HW214592   2.579   0.256  13.012
 4678SOL     OW14593   2.738   1.523  12.366
 4678SOL    HW114594   2.722   1.486  12.279
 4678SOL    HW214595   2.808   1.468  12.402
 4679SOL     OW14596   3.202   0.587  12.602
 4679SOL    HW114597   3.232   0.559  12.689
 4679SOL    HW214598   3.236   0.676  12.593
 4680SOL     OW14599   2.679   1.393  12.114
 4680SOL    HW114600   2.763   1.381  12.071
 4680SOL    HW214601   2.615   1.396  12.043
 4681SOL     OW14602   2.792   0.511  12.072
 4681SOL    HW114603   2.767   0.503  11.980
 4681SOL    HW214604   2.818   0.423  12.098
 4682SOL     OW14605   2.407   0.057  11.663
 4682SOL    HW114606   2.333   0.062  11.723
 4682SOL    HW214607   2.402   0.138  11.612
 4683SOL     OW14608   3.289   1.199  11.212
 4683SOL    HW114609   3.319   1.124  11.263
 4683SOL    HW214610   3.204   1.221  11.250
 4684SOL     OW14611   2.191   0.044  11.383
 4684SOL    HW114612   2.200   0.111  11.315
 4684SOL    HW214613   2.274   0.048  11.431
 4685SOL     OW14614   2.804   0.250  11.632
 4685SOL    HW114615   2.779   0.290  11.548
 4685SOL    HW214616   2.900   0.254  11.633
 4686SOL     OW14617   2.942   0.684  12.631
 4686SOL    HW114618   2.871   0.619  12.637
 4686SOL    HW214619   3.022   0.632  12.625
 4687SOL     OW14620   3.083   1.571  11.966
 4687SOL    HW114621   3.099   1.637  11.898
 4687SOL    HW214622   3.153   1.586  12.030
 4688SOL     OW14623   2.333   1.151  11.903
 4688SOL    HW114624   2.265   1.132  11.967
 4688SOL    HW214625   2.291   1.136  11.818
 4689SOL     OW14626   3.129   1.793  11.782
 4689SOL    HW114627   3.177   1.854  11.726
 4689SOL    HW214628   3.063   1.847  11.824
 4690SOL     OW14629   2.884   0.543  11.200
 4690SOL    HW114630   2.840   0.625  11.181
 4690SOL    HW214631   2.947   0.565  11.268
 4691SOL     OW14632   1.944   0.550  12.568
 4691SOL    HW114633   2.035   0.552  12.539
 4691SOL    HW214634   1.937   0.623  12.630
 4692SOL     OW14635   2.425   0.231  12.333
 4692SOL    HW114636   2.449   0.139  12.343
 4692SOL    HW214637   2.336   0.236  12.366
 4693SOL     OW14638   2.732   0.461  11.810
 4693SOL    HW114639   2.684   0.515  11.747
 4693SOL    HW214640   2.753   0.381  11.762
 4694SOL     OW14641   2.858   0.039  11.952
 4694SOL    HW114642   2.821   0.068  11.869
 4694SOL    HW214643   2.869   3.945  11.942
 4695SOL     OW14644   3.302   1.161  12.030
 4695SOL    HW114645   3.230   1.098  12.028
 4695SOL    HW214646   3.327   1.171  11.938
 4696SOL     OW14647   3.326   0.608  12.146
 4696SOL    HW114648   3.273   0.529  12.151
 4696SOL    HW214649   3.386   0.601  12.220
 4697SOL     OW14650   3.722   0.824  11.547
 4697SOL    HW114651   3.763   0.767  11.611
 4697SOL    HW214652   3.684   0.764  11.483
 4698SOL     OW14653   2.355   1.420  11.325
 4698SOL    HW114654   2.279   1.394  11.379
 4698SOL    HW214655   2.341   1.376  11.242
 4699SOL     OW14656   3.529   1.265  11.816
 4699SOL    HW114657   3.624   1.268  11.826
 4699SOL    HW214658   3.500   1.354  11.837
 4700SOL     OW14659   3.257   0.575  11.241
 4700SOL    HW114660   3.193   0.556  11.310
 4700SOL    HW214661   3.342   0.560  11.282
 4701SOL     OW14662   2.388   0.266  11.488
 4701SOL    HW114663   2.443   0.228  11.420
 4701SOL    HW214664   2.360   0.350  11.451
 4702SOL     OW14665   3.614   1.234  12.739
 4702SOL    HW114666   3.701   1.199  12.721
 4702SOL    HW214667   3.629   1.323  12.768
 4703SOL     OW14668   2.918   1.354  12.505
 4703SOL    HW114669   2.843   1.322  12.556
 4703SOL    HW214670   2.994   1.312  12.546
 4704SOL     OW14671   3.468   1.628  12.828
 4704SOL    HW114672   3.460   1.662  12.739
 4704SOL    HW214673   3.548   1.577  12.827
 4705SOL     OW14674   2.994   1.207  12.276
 4705SOL    HW114675   2.933   1.244  12.340
 4705SOL    HW214676   2.962   1.240  12.192
 4706SOL     OW14677   3.490   1.096  12.247
 4706SOL    HW114678   3.481   1.158  12.319
 4706SOL    HW214679   3.414   1.112  12.192
 4707SOL     OW14680   2.774   0.116  12.573
 4707SOL    HW114681   2.794   0.089  12.484
 4707SOL    HW214682   2.855   0.158  12.604
 4708SOL     OW14683   2.846   1.115  12.896
 4708SOL    HW114684   2.755   1.132  12.918
 4708SOL    HW214685   2.844   1.037  12.841
 4709SOL     OW14686   2.571   1.062  11.543
 4709SOL    HW114687   2.556   1.044  11.636
 4709SOL    HW214688   2.647   1.008  11.519
 4710SOL     OW14689   2.283   0.816  12.424
 4710SOL    HW114690   2.351   0.824  12.490
 4710SOL    HW214691   2.247   0.728  12.436
 4711SOL     OW14692   3.128   0.375  12.448
 4711SOL    HW114693   3.162   0.453  12.492
 4711SOL    HW214694   3.041   0.400  12.418
 4712SOL     OW14695   1.936   1.577  12.526
 4712SOL    HW114696   1.901   1.642  12.464
 4712SOL    HW214697   2.030   1.579  12.513
 4713SOL     OW14698   2.208   1.111  11.662
 4713SOL    HW114699   2.213   1.187  11.604
 4713SOL    HW214700   2.205   1.036  11.604
 4714SOL     OW14701   2.416   0.532  12.029
 4714SOL    HW114702   2.430   0.592  11.955
 4714SOL    HW214703   2.481   0.559  12.094
 4715SOL     OW14704   3.110   1.349  11.562
 4715SOL    HW114705   3.166   1.420  11.592
 4715SOL    HW214706   3.023   1.370  11.595
 4716SOL     OW14707   3.146   1.459  12.320
 4716SOL    HW114708   3.202   1.463  12.397
 4716SOL    HW214709   3.091   1.382  12.333
 4717SOL     OW14710   3.434   0.632  11.657
 4717SOL    HW114711   3.392   0.688  11.723
 4717SOL    HW214712   3.481   0.694  11.601
 4718SOL     OW14713   2.216   1.511  12.489
 4718SOL    HW114714   2.201   1.470  12.404
 4718SOL    HW214715   2.311   1.523  12.494
 4719SOL     OW14716   2.279   0.745  12.774
 4719SOL    HW114717   2.340   0.790  12.716
 4719SOL    HW214718   2.320   0.660  12.791
 4720SOL     OW14719   3.466   0.779  12.855
 4720SOL    HW114720   3.380   0.821  12.849
 4720SOL    HW214721   3.519   0.821  12.787
 4721SOL     OW14722   2.877   0.132  12.952
 4721SOL    HW114723   2.925   0.205  12.914
 4721SOL    HW214724   2.860   0.073  12.879
 4722SOL     OW14725   2.350   0.034  12.934
 4722SOL    HW114726   2.352   0.047  12.839
 4722SOL    HW214727   2.290   0.102  12.965
 4723SOL     OW14728   2.446   0.873  12.204
 4723SOL    HW114729   2.475   0.965  12.204
 4723SOL    HW214730   2.389   0.866  12.280
 4724SOL     OW14731   3.215   0.859  12.198
 4724SOL    HW114732   3.131   0.847  12.155
 4724SOL    HW214733   3.258   0.774  12.191
 4725SOL     OW14734   3.063   0.537  11.430
 4725SOL    HW114735   3.071   0.458  11.483
 4725SOL    HW214736   3.020   0.600  11.487
 4726SOL     OW14737   2.161   0.209  12.415
 4726SOL    HW114738   2.120   0.238  12.496
 4726SOL    HW214739   2.150   0.114  12.415
 4727SOL     OW14740   1.905   1.313  12.450
 4727SOL    HW114741   1.940   1.257  12.520
 4727SOL    HW214742   1.915   1.402  12.483
 4728SOL     OW14743   2.584   0.632  12.224
 4728SOL    HW114744   2.660   0.619  12.167
 4728SOL    HW214745   2.555   0.721  12.206
 4729SOL     OW14746   3.595   0.955  13.036
 4729SOL    HW114747   3.551   0.895  12.975
 4729SOL    HW214748   3.530   0.971  13.104
 4730SOL     OW14749   2.185   0.056  11.823
 4730SOL    HW114750   2.165   0.149  11.835
 4730SOL    HW214751   2.149   0.014  11.902
 4731SOL     OW14752   3.474   0.392  11.551
 4731SOL    HW114753   3.436   0.323  11.606
 4731SOL    HW214754   3.452   0.473  11.597
 4732SOL     OW14755   2.892   0.759  12.131
 4732SOL    HW114756   2.885   0.776  12.225
 4732SOL    HW214757   2.864   0.668  12.121
 4733SOL     OW14758   2.844   1.567  12.891
 4733SOL    HW114759   2.828   1.610  12.807
 4733SOL    HW214760   2.887   1.485  12.868
 4734SOL     OW14761   3.705   1.499  12.770
 4734SOL    HW114762   3.728   1.528  12.682
 4734SOL    HW214763   3.786   1.510  12.821
 4735SOL     OW14764   2.214   0.914  12.982
 4735SOL    HW114765   2.296   0.935  13.027
 4735SOL    HW214766   2.240   0.853  12.914
 4736SOL     OW14767   3.364   0.274  11.306
 4736SOL    HW114768   3.290   0.214  11.317
 4736SOL    HW214769   3.376   0.312  11.393
 4737SOL     OW14770   3.150   0.827  11.201
 4737SOL    HW114771   3.193   0.741  11.204
 4737SOL    HW214772   3.183   0.866  11.120
 4738SOL     OW14773   2.929   1.337  12.028
 4738SOL    HW114774   2.933   1.265  11.965
 4738SOL    HW214775   2.989   1.403  11.992
 4739SOL     OW14776   2.170   0.810  12.118
 4739SOL    HW114777   2.263   0.831  12.111
 4739SOL    HW214778   2.168   0.719  12.150
 4740SOL     OW14779   2.198   0.536  12.186
 4740SOL    HW114780   2.157   0.451  12.170
 4740SOL    HW214781   2.274   0.537  12.128
 4741SOL     OW14782   2.995   0.381  12.868
 4741SOL    HW114783   2.946   0.435  12.930
 4741SOL    HW214784   3.081   0.421  12.864
 4742SOL     OW14785   3.013   0.226  12.653
 4742SOL    HW114786   3.004   0.280  12.731
 4742SOL    HW214787   3.038   0.288  12.584
 4743SOL     OW14788   1.867   1.319  11.366
 4743SOL    HW114789   1.779   1.332  11.329
 4743SOL    HW214790   1.865   1.229  11.400
 4744SOL     OW14791   1.979   1.728  12.159
 4744SOL    HW114792   1.942   1.664  12.098
 4744SOL    HW214793   2.015   1.797  12.102
 4745SOL     OW14794   2.360   1.570  12.083
 4745SOL    HW114795   2.427   1.635  12.105
 4745SOL    HW214796   2.404   1.510  12.022
 4746SOL     OW14797   2.841   0.788  12.396
 4746SOL    HW114798   2.897   0.769  12.471
 4746SOL    HW214799   2.755   0.753  12.421
 4747SOL     OW14800   1.895   0.547  12.289
 4747SOL    HW114801   1.970   0.522  12.235
 4747SOL    HW214802   1.929   0.547  12.378
 4748SOL     OW14803   2.066   0.527  12.885
 4748SOL    HW114804   2.136   0.506  12.823
 4748SOL    HW214805   2.021   0.602  12.846
 4749SOL     OW14806   3.242   0.936  12.829
 4749SOL    HW114807   3.262   1.030  12.827
 4749SOL    HW214808   3.237   0.910  12.737
 4750SOL     OW14809   2.679   0.572  11.536
 4750SOL    HW114810   2.685   0.497  11.477
 4750SOL    HW214811   2.604   0.622  11.503
 4751SOL     OW14812   3.501   0.602  12.355
 4751SOL    HW114813   3.491   0.541  12.428
 4751SOL    HW214814   3.587   0.581  12.319
 4752SOL     OW14815   2.115   1.535  12.878
 4752SOL    HW114816   2.097   1.604  12.942
 4752SOL    HW214817   2.118   1.455  12.930
 4753SOL     OW14818   2.569   0.453  12.428
 4753SOL    HW114819   2.519   0.376  12.403
 4753SOL    HW214820   2.561   0.513  12.354
 4754SOL     OW14821   2.787   1.679  12.641
 4754SOL    HW114822   2.763   1.642  12.556
 4754SOL    HW214823   2.781   1.774  12.628
 4755SOL     OW14824   2.325   0.494  11.355
 4755SOL    HW114825   2.383   0.566  11.379
 4755SOL    HW214826   2.239   0.534  11.343
 4756SOL     OW14827   2.004   1.141  12.645
 4756SOL    HW114828   2.006   1.091  12.727
 4756SOL    HW214829   2.021   1.076  12.577
 4757SOL     OW14830   3.184   1.045  12.394
 4757SOL    HW114831   3.207   0.982  12.326
 4757SOL    HW214832   3.116   1.099  12.354
 4758SOL     OW14833   3.176   0.854  11.477
 4758SOL    HW114834   3.100   0.827  11.528
 4758SOL    HW214835   3.148   0.843  11.386
 4759SOL     OW14836   3.642   1.741  12.329
 4759SOL    HW114837   3.697   1.769  12.256
 4759SOL    HW214838   3.613   1.654  12.305
 4760SOL     OW14839   3.102   1.734  12.282
 4760SOL    HW114840   3.185   1.756  12.238
 4760SOL    HW214841   3.110   1.640  12.301
 4761SOL     OW14842   1.949   1.263  12.186
 4761SOL    HW114843   1.931   1.280  12.279
 4761SOL    HW214844   1.874   1.211  12.156
 4762SOL     OW14845   2.539   1.668  12.903
 4762SOL    HW114846   2.485   1.747  12.901
 4762SOL    HW214847   2.606   1.682  12.836
 4763SOL     OW14848   3.551   0.120  11.660
 4763SOL    HW114849   3.632   0.135  11.611
 4763SOL    HW214850   3.553   0.027  11.681
 4764SOL     OW14851   3.253   1.567  11.660
 4764SOL    HW114852   3.312   1.600  11.592
 4764SOL    HW214853   3.203   1.644  11.688
 4765SOL     OW14854   2.037   1.734  13.034
 4765SOL    HW114855   1.969   1.698  13.090
 4765SOL    HW214856   2.009   1.825  13.018
 4766SOL     OW14857   3.139   0.927  11.843
 4766SOL    HW114858   3.214   0.867  11.853
 4766SOL    HW214859   3.173   0.999  11.790
 4767SOL     OW14860   2.672   1.274  12.600
 4767SOL    HW114861   2.644   1.314  12.682
 4767SOL    HW214862   2.602   1.295  12.537
 4768SOL     OW14863   2.537   1.622  11.323
 4768SOL    HW114864   2.545   1.633  11.228
 4768SOL    HW214865   2.480   1.546  11.333
 4769SOL     OW14866   3.482   1.727  12.563
 4769SOL    HW114867   3.537   1.732  12.485
 4769SOL    HW214868   3.469   1.818  12.589
 4770SOL     OW14869   3.703   0.182  12.143
 4770SOL    HW114870   3.727   0.097  12.105
 4770SOL    HW214871   3.617   0.201  12.106
 4771SOL     OW14872   2.126   0.316  11.887
 4771SOL    HW114873   2.039   0.351  11.865
 4771SOL    HW214874   2.125   0.308  11.982
 4772SOL     OW14875   3.070   1.604  11.204
 4772SOL    HW114876   3.059   1.513  11.231
 4772SOL    HW214877   3.004   1.617  11.136
 4773SOL     OW14878   2.686   1.006  12.545
 4773SOL    HW114879   2.727   1.002  12.459
 4773SOL    HW214880   2.684   1.099  12.566
 4774SOL     OW14881   2.778   0.911  11.462
 4774SOL    HW114882   2.839   0.943  11.396
 4774SOL    HW214883   2.827   0.842  11.508
 4775SOL     OW14884   3.351   1.628  11.215
 4775SOL    HW114885   3.257   1.619  11.200
 4775SOL    HW214886   3.389   1.634  11.127
 4776SOL     OW14887   2.232   1.296  12.666
 4776SOL    HW114888   2.221   1.374  12.611
 4776SOL    HW214889   2.153   1.244  12.649
 4777SOL     OW14890   3.463   1.280  12.449
 4777SOL    HW114891   3.531   1.272  12.516
 4777SOL    HW214892   3.406   1.349  12.482
 4778SOL     OW14893   2.918   1.109  11.881
 4778SOL    HW114894   2.846   1.058  11.918
 4778SOL    HW214895   2.981   1.043  11.851
 4779SOL     OW14896   2.876   0.249  12.141
 4779SOL    HW114897   2.867   0.198  12.061
 4779SOL    HW214898   2.872   0.183  12.211
 4780SOL     OW14899   2.465   1.489  11.653
 4780SOL    HW114900   2.508   1.439  11.583
 4780SOL    HW214901   2.404   1.547  11.607
 4781SOL     OW14902   3.582   0.394  12.544
 4781SOL    HW114903   3.654   0.457  12.544
 4781SOL    HW214904   3.614   0.321  12.490
 4782SOL     OW14905   2.122   1.344  11.458
 4782SOL    HW114906   2.028   1.341  11.437
 4782SOL    HW214907   2.125   1.378  11.547
 4783SOL     OW14908   1.975   1.026  12.894
 4783SOL    HW114909   1.899   1.001  12.945
 4783SOL    HW214910   2.049   0.986  12.939
 4784SOL     OW14911   2.555   0.255  12.673
 4784SOL    HW114912   2.622   0.200  12.632
 4784SOL    HW214913   2.582   0.261  12.765
 4785SOL     OW14914   1.962   0.317  11.163
 4785SOL    HW114915   1.894   0.337  11.228
 4785SOL    HW214916   1.970   0.398  11.112
 4786SOL     OW14917   3.287   0.857  12.570
 4786SOL    HW114918   3.238   0.919  12.517
 4786SOL    HW214919   3.376   0.859  12.534
 4787SOL     OW14920   1.943   0.152  11.512
 4787SOL    HW114921   1.912   0.212  11.444
 4787SOL    HW214922   2.029   0.124  11.482
 4788SOL     OW14923   3.040   1.337  11.289
 4788SOL    HW114924   2.949   1.308  11.291
 4788SOL    HW214925   3.067   1.338  11.381
 4789SOL     OW14926   2.483   0.829  12.606
 4789SOL    HW114927   2.539   0.905  12.591
 4789SOL    HW214928   2.544   0.755  12.615
 4790SOL     OW14929   3.344   1.781  12.152
 4790SOL    HW114930   3.367   1.843  12.083
 4790SOL    HW214931   3.428   1.754  12.189
 4791SOL     OW14932   2.580   0.561  12.876
 4791SOL    HW114933   2.622   0.623  12.935
 4791SOL    HW214934   2.605   0.475  12.910
 4792SOL     OW14935   3.335   1.197  12.803
 4792SOL    HW114936   3.323   1.212  12.896
 4792SOL    HW214937   3.428   1.214  12.787
 4793SOL     OW14938   2.237   1.746  12.742
 4793SOL    HW114939   2.168   1.757  12.676
 4793SOL    HW214940   2.216   1.663  12.785
 4794SOL     OW14941   3.527   0.881  12.431
 4794SOL    HW114942   3.526   0.796  12.387
 4794SOL    HW214943   3.520   0.944  12.360
 4795SOL     OW14944   3.082   0.337  11.615
 4795SOL    HW114945   3.151   0.271  11.606
 4795SOL    HW214946   3.103   0.381  11.698
 4796SOL     OW14947   2.451   0.736  11.843
 4796SOL    HW114948   2.490   0.822  11.828
 4796SOL    HW214949   2.385   0.728  11.775
 4797SOL     OW14950   3.616   0.381  12.814
 4797SOL    HW114951   3.595   0.390  12.721
 4797SOL    HW214952   3.556   0.314  12.846
 4798SOL     OW14953   3.616   0.930  12.685
 4798SOL    HW114954   3.607   1.024  12.703
 4798SOL    HW214955   3.592   0.920  12.593
 4799SOL     OW14956   2.725   1.366  11.210
 4799SOL    HW114957   2.686   1.393  11.293
 4799SOL    HW214958   2.741   1.448  11.164
 4800SOL     OW14959   2.524   1.793  12.114
 4800SOL    HW114960   2.509   1.884  12.089
 4800SOL    HW214961   2.619   1.781  12.106
 4801SOL     OW14962   2.730   0.969  12.027
 4801SOL    HW114963   2.781   0.897  12.065
 4801SOL    HW214964   2.694   1.015  12.102
 4802SOL     OW14965   2.940   0.989  11.261
 4802SOL    HW114966   2.918   1.040  11.184
 4802SOL    HW214967   3.014   0.935  11.234
 4803SOL     OW14968   3.714   1.556  12.013
 4803SOL    HW114969   3.635   1.540  11.962
 4803SOL    HW214970   3.713   1.489  12.081
 4804SOL     OW14971   2.089   1.300  13.027
 4804SOL    HW114972   2.021   1.238  13.000
 4804SOL    HW214973   2.075   1.312  13.121
 4805SOL     OW14974   1.942   1.224  11.838
 4805SOL    HW114975   1.957   1.179  11.921
 4805SOL    HW214976   2.015   1.196  11.782
 4806SOL     OW14977   2.544   1.405  12.801
 4806SOL    HW114978   2.465   1.362  12.833
 4806SOL    HW214979   2.540   1.493  12.838
 4807SOL     OW14980   3.677   0.181  12.416
 4807SOL    HW114981   3.678   0.086  12.425
 4807SOL    HW214982   3.694   0.198  12.324
 4808SOL     OW14983   2.290   0.435  11.697
 4808SOL    HW114984   2.324   0.363  11.644
 4808SOL    HW214985   2.243   0.391  11.768
 4809SOL     OW14986   3.558   1.491  12.269
 4809SOL    HW114987   3.480   1.468  12.219
 4809SOL    HW214988   3.568   1.419  12.331
 4810SOL     OW14989   2.193   0.556  12.466
 4810SOL    HW114990   2.246   0.497  12.520
 4810SOL    HW214991   2.212   0.530  12.376
 4811SOL     OW14992   2.690   1.578  11.848
 4811SOL    HW114993   2.672   1.635  11.773
 4811SOL    HW214994   2.616   1.518  11.851
 4812SOL     OW14995   3.323   0.253  12.282
 4812SOL    HW114996   3.336   0.165  12.317
 4812SOL    HW214997   3.267   0.296  12.347
 4813SOL     OW14998   2.866   0.027  12.318
 4813SOL    HW114999   2.785   3.991  12.283
 4813SOL    HW215000   2.925   3.952  12.327
 4814SOL     OW15001   2.636   1.333  11.488
 4814SOL    HW115002   2.605   1.243  11.496
 4814SOL    HW215003   2.717   1.335  11.540
 4815SOL     OW15004   2.484   1.555  12.459
 4815SOL    HW115005   2.484   1.637  12.507
 4815SOL    HW215006   2.571   1.548  12.421
 4816SOL     OW15007   3.173   0.071  11.332
 4816SOL    HW115008   3.179   3.989  11.282
 4816SOL    HW215009   3.088   0.066  11.376
 4817SOL     OW15010   3.143   0.457  11.857
 4817SOL    HW115011   3.097   0.540  11.852
 4817SOL    HW215012   3.146   0.437  11.951
 4818SOL     OW15013   3.452   0.210  12.039
 4818SOL    HW115014   3.404   0.234  12.118
 4818SOL    HW215015   3.451   0.290  11.986
 4819SOL     OW15016   1.906   1.070  11.478
 4819SOL    HW115017   2.000   1.062  11.461
 4819SOL    HW215018   1.878   0.982  11.502
 4820SOL     OW15019   2.748   1.656  11.513
 4820SOL    HW115020   2.676   1.639  11.453
 4820SOL    HW215021   2.718   1.730  11.566
 4821SOL     OW15022   2.089   0.620  13.156
 4821SOL    HW115023   1.998   0.626  13.186
 4821SOL    HW215024   2.081   0.600  13.062
 4822SOL     OW15025   2.114   0.264   0.127
 4822SOL    HW115026   2.154   0.328   0.185
 4822SOL    HW215027   2.020   0.282   0.132
 4823SOL     OW15028   1.871   0.389  13.645
 4823SOL    HW115029   1.777   0.399  13.663
 4823SOL    HW215030   1.879   0.300  13.610
 4824SOL     OW15031   3.387   1.498  13.727
 4824SOL    HW115032   3.331   1.432  13.767
 4824SOL    HW215033   3.343   1.520  13.645
 4825SOL     OW15034   2.993   0.699  13.732
 4825SOL    HW115035   3.046   0.775  13.708
 4825SOL    HW215036   2.937   0.730  13.803
 4826SOL     OW15037   3.632   0.621  13.259
 4826SOL    HW115038   3.610   0.612  13.166
 4826SOL    HW215039   3.605   0.537  13.298
 4827SOL     OW15040   2.546   1.012  13.671
 4827SOL    HW115041   2.600   0.991  13.748
 4827SOL    HW215042   2.472   1.060  13.707
 4828SOL     OW15043   3.477   0.460  13.763
 4828SOL    HW115044   3.391   0.470  13.722
 4828SOL    HW215045   3.498   0.548  13.795
 4829SOL     OW15046   2.096   1.688  13.496
 4829SOL    HW115047   2.110   1.759  13.559
 4829SOL    HW215048   2.172   1.692  13.438
 4830SOL     OW15049   2.097   1.427  13.570
 4830SOL    HW115050   2.087   1.522  13.560
 4830SOL    HW215051   2.032   1.403  13.636
 4831SOL     OW15052   2.101   1.108   0.027
 4831SOL    HW115053   2.121   1.045   0.096
 4831SOL    HW215054   2.034   1.165   0.065
 4832SOL     OW15055   2.444   0.983  13.169
 4832SOL    HW115056   2.491   1.030  13.100
 4832SOL    HW215057   2.483   1.015  13.250
 4833SOL     OW15058   1.981   0.658  13.588
 4833SOL    HW115059   1.951   0.568  13.601
 4833SOL    HW215060   1.965   0.701  13.672
 4834SOL     OW15061   3.702   1.758  13.369
 4834SOL    HW115062   3.773   1.732  13.428
 4834SOL    HW215063   3.721   1.849  13.348
 4835SOL     OW15064   1.859   1.610  13.200
 4835SOL    HW115065   1.848   1.517  13.177
 4835SOL    HW215066   1.896   1.608  13.288
 4836SOL     OW15067   3.546   0.914  13.667
 4836SOL    HW115068   3.634   0.883  13.648
 4836SOL    HW215069   3.525   0.972  13.594
 4837SOL     OW15070   3.504   1.104  13.463
 4837SOL    HW115071   3.588   1.109  13.418
 4837SOL    HW215072   3.511   1.168  13.534
 4838SOL     OW15073   2.466   1.384  13.759
 4838SOL    HW115074   2.423   1.299  13.766
 4838SOL    HW215075   2.444   1.415  13.672
 4839SOL     OW15076   2.683   0.005  13.551
 4839SOL    HW115077   2.727   0.085  13.524
 4839SOL    HW215078   2.590   0.026  13.548
 4840SOL     OW15079   3.389   0.995  13.235
 4840SOL    HW115080   3.321   0.937  13.269
 4840SOL    HW215081   3.430   1.032  13.313
 4841SOL     OW15082   3.515   1.744  13.613
 4841SOL    HW115083   3.496   1.713  13.525
 4841SOL    HW215084   3.510   1.665  13.668
 4842SOL     OW15085   2.455   0.721  13.300
 4842SOL    HW115086   2.459   0.804  13.252
 4842SOL    HW215087   2.390   0.736  13.369
 4843SOL     OW15088   3.102   0.340   0.052
 4843SOL    HW115089   3.013   0.326   0.086
 4843SOL    HW215090   3.159   0.296   0.115
 4844SOL     OW15091   3.439   1.675  13.342
 4844SOL    HW115092   3.531   1.703  13.337
 4844SOL    HW215093   3.414   1.657  13.252
 4845SOL     OW15094   2.911   0.696  13.459
 4845SOL    HW115095   2.926   0.684  13.553
 4845SOL    HW215096   2.829   0.651  13.441
 4846SOL     OW15097   1.941   0.817  13.812
 4846SOL    HW115098   2.023   0.815  13.863
 4846SOL    HW215099   1.895   0.894  13.844
 4847SOL     OW15100   2.757   0.351  13.232
 4847SOL    HW115101   2.798   0.411  13.170
 4847SOL    HW215102   2.750   0.268  13.186
 4848SOL     OW15103   3.224   1.134  13.551
 4848SOL    HW115104   3.314   1.135  13.519
 4848SOL    HW215105   3.182   1.206  13.505
 4849SOL     OW15106   2.861   1.440  13.502
 4849SOL    HW115107   2.830   1.516  13.453
 4849SOL    HW215108   2.831   1.455  13.592
 4850SOL     OW15109   2.270   1.787  13.847
 4850SOL    HW115110   2.240   1.705  13.886
 4850SOL    HW215111   2.345   1.813   0.000
 4851SOL     OW15112   3.653   1.053  13.898
 4851SOL    HW115113   3.594   1.047  13.823
 4851SOL    HW215114   3.595   1.049   0.074
 4852SOL     OW15115   2.181   0.960  13.287
 4852SOL    HW115116   2.262   0.979  13.241
 4852SOL    HW215117   2.151   0.878  13.248
 4853SOL     OW15118   3.355   0.732  13.752
 4853SOL    HW115119   3.341   0.696  13.840
 4853SOL    HW215120   3.422   0.799  13.764
 4854SOL     OW15121   2.985   1.778  13.263
 4854SOL    HW115122   2.910   1.738  13.309
 4854SOL    HW215123   3.008   1.715  13.195
 4855SOL     OW15124   3.487   1.383  13.121
 4855SOL    HW115125   3.444   1.467  13.106
 4855SOL    HW215126   3.420   1.318  13.102
 4856SOL     OW15127   2.341   1.713  13.374
 4856SOL    HW115128   2.375   1.789  13.422
 4856SOL    HW215129   2.396   1.706  13.297
 4857SOL     OW15130   3.284   0.167  13.440
 4857SOL    HW115131   3.248   0.107  13.375
 4857SOL    HW215132   3.373   0.134  13.457
 4858SOL     OW15133   2.784   1.689   0.009
 4858SOL    HW115134   2.810   1.623   0.074
 4858SOL    HW215135   2.746   1.639  13.837
 4859SOL     OW15136   2.256   0.698  13.506
 4859SOL    HW115137   2.276   0.605  13.517
 4859SOL    HW215138   2.162   0.705  13.523
 4860SOL     OW15139   2.506   0.130  13.142
 4860SOL    HW115140   2.529   0.046  13.181
 4860SOL    HW215141   2.443   0.108  13.072
 4861SOL     OW15142   2.411   0.056  13.526
 4861SOL    HW115143   2.336   0.059  13.585
 4861SOL    HW215144   2.404   0.136  13.474
 4862SOL     OW15145   3.289   1.199  13.075
 4862SOL    HW115146   3.319   1.124  13.126
 4862SOL    HW215147   3.204   1.221  13.112
 4863SOL     OW15148   2.193   0.045  13.242
 4863SOL    HW115149   2.203   0.111  13.174
 4863SOL    HW215150   2.277   0.046  13.289
 4864SOL     OW15151   2.803   0.249  13.492
 4864SOL    HW115152   2.777   0.289  13.410
 4864SOL    HW215153   2.899   0.257  13.494
 4865SOL     OW15154   2.325   1.143  13.770
 4865SOL    HW115155   2.252   1.130  13.831
 4865SOL    HW215156   2.287   1.131  13.684
 4866SOL     OW15157   3.131   1.796  13.634
 4866SOL    HW115158   3.175   1.863  13.582
 4866SOL    HW215159   3.063   1.844  13.682
 4867SOL     OW15160   2.884   0.543  13.062
 4867SOL    HW115161   2.839   0.626  13.042
 4867SOL    HW215162   2.947   0.565  13.130
 4868SOL     OW15163   2.761   0.474  13.668
 4868SOL    HW115164   2.691   0.519  13.621
 4868SOL    HW215165   2.767   0.389  13.626
 4869SOL     OW15166   2.863   0.039  13.795
 4869SOL    HW115167   2.830   0.064  13.709
 4869SOL    HW215168   2.886   3.946  13.786
 4870SOL     OW15169   3.728   0.822  13.410
 4870SOL    HW115170   3.774   0.765  13.472
 4870SOL    HW215171   3.689   0.762  13.346
 4871SOL     OW15172   2.355   1.420  13.187
 4871SOL    HW115173   2.280   1.394  13.240
 4871SOL    HW215174   2.342   1.376  13.103
 4872SOL     OW15175   3.539   1.269  13.667
 4872SOL    HW115176   3.634   1.272  13.683
 4872SOL    HW215177   3.506   1.352  13.700
 4873SOL     OW15178   3.256   0.576  13.103
 4873SOL    HW115179   3.193   0.556  13.173
 4873SOL    HW215180   3.341   0.556  13.142
 4874SOL     OW15181   2.390   0.266  13.350
 4874SOL    HW115182   2.444   0.227  13.281
 4874SOL    HW215183   2.361   0.349  13.312
 4875SOL     OW15184   2.571   1.064  13.400
 4875SOL    HW115185   2.556   1.048  13.493
 4875SOL    HW215186   2.647   1.010  13.378
 4876SOL     OW15187   2.211   1.111  13.525
 4876SOL    HW115188   2.214   1.187  13.468
 4876SOL    HW215189   2.206   1.036  13.465
 4877SOL     OW15190   2.431   0.541  13.864
 4877SOL    HW115191   2.442   0.609  13.797
 4877SOL    HW215192   2.489   0.568   0.035
 4878SOL     OW15193   3.107   1.352  13.419
 4878SOL    HW115194   3.162   1.426  13.446
 4878SOL    HW215195   3.020   1.372  13.454
 4879SOL     OW15196   3.445   0.633  13.511
 4879SOL    HW115197   3.406   0.680  13.585
 4879SOL    HW215198   3.480   0.702  13.455
 4880SOL     OW15199   3.063   0.533  13.294
 4880SOL    HW115200   3.069   0.454  13.347
 4880SOL    HW215201   3.020   0.597  13.350
 4881SOL     OW15202   2.195   0.052  13.686
 4881SOL    HW115203   2.174   0.145  13.698
 4881SOL    HW215204   2.117   0.006  13.718
 4882SOL     OW15205   3.463   0.392  13.406
 4882SOL    HW115206   3.436   0.324  13.469
 4882SOL    HW215207   3.447   0.474  13.453
 4883SOL     OW15208   3.362   0.278  13.166
 4883SOL    HW115209   3.290   0.216  13.179
 4883SOL    HW215210   3.377   0.317  13.252
 4884SOL     OW15211   3.150   0.827  13.062
 4884SOL    HW115212   3.193   0.741  13.065
 4884SOL    HW215213   3.183   0.866  12.981
 4885SOL     OW15214   1.867   1.319  13.228
 4885SOL    HW115215   1.779   1.332  13.191
 4885SOL    HW215216   1.865   1.230  13.262
 4886SOL     OW15217   2.679   0.575  13.389
 4886SOL    HW115218   2.682   0.497  13.334
 4886SOL    HW215219   2.602   0.623  13.358
 4887SOL     OW15220   2.325   0.493  13.216
 4887SOL    HW115221   2.382   0.566  13.240
 4887SOL    HW215222   2.239   0.534  13.204
 4888SOL     OW15223   3.178   0.848  13.338
 4888SOL    HW115224   3.099   0.828  13.389
 4888SOL    HW215225   3.150   0.840  13.247
 4889SOL     OW15226   3.540   0.111  13.470
 4889SOL    HW115227   3.632   0.127  13.445
 4889SOL    HW215228   3.545   0.044  13.538
 4890SOL     OW15229   3.244   1.574  13.508
 4890SOL    HW115230   3.304   1.611  13.444
 4890SOL    HW215231   3.198   1.649  13.544
 4891SOL     OW15232   3.152   0.912  13.684
 4891SOL    HW115233   3.230   0.858  13.669
 4891SOL    HW215234   3.173   0.996  13.643
 4892SOL     OW15235   2.537   1.622  13.184
 4892SOL    HW115236   2.545   1.634  13.089
 4892SOL    HW215237   2.480   1.546  13.194
 4893SOL     OW15238   3.672   0.164   0.061
 4893SOL    HW115239   3.707   0.075   0.063
 4893SOL    HW215240   3.582   0.154   0.030
 4894SOL     OW15241   2.139   0.311  13.745
 4894SOL    HW115242   2.048   0.330  13.722
 4894SOL    HW215243   2.138   0.305  13.840
 4895SOL     OW15244   3.070   1.604  13.066
 4895SOL    HW115245   3.059   1.512  13.092
 4895SOL    HW215246   3.004   1.617  12.998
 4896SOL     OW15247   2.781   0.914  13.330
 4896SOL    HW115248   2.840   0.943  13.260
 4896SOL    HW215249   2.827   0.839  13.369
 4897SOL     OW15250   3.351   1.628  13.077
 4897SOL    HW115251   3.257   1.619  13.062
 4897SOL    HW215252   3.389   1.634  12.989
 4898SOL     OW15253   2.912   1.090  13.755
 4898SOL    HW115254   2.825   1.054  13.740
 4898SOL    HW215255   2.966   1.055  13.684
 4899SOL     OW15256   2.459   1.488  13.507
 4899SOL    HW115257   2.504   1.440  13.438
 4899SOL    HW215258   2.402   1.550  13.461
 4900SOL     OW15259   2.122   1.343  13.318
 4900SOL    HW115260   2.028   1.340  13.298
 4900SOL    HW215261   2.126   1.377  13.408
 4901SOL     OW15262   1.961   0.318  13.026
 4901SOL    HW115263   1.892   0.337  13.089
 4901SOL    HW215264   1.970   0.398  12.975
 4902SOL     OW15265   1.952   0.153  13.366
 4902SOL    HW115266   1.923   0.214  13.298
 4902SOL    HW215267   2.038   0.123  13.335
 4903SOL     OW15268   3.040   1.337  13.149
 4903SOL    HW115269   2.948   1.309  13.151
 4903SOL    HW215270   3.067   1.339  13.241
 4904SOL     OW15271   3.078   0.333  13.485
 4904SOL    HW115272   3.148   0.269  13.471
 4904SOL    HW215273   3.107   0.384  13.561
 4905SOL     OW15274   2.455   0.750  13.691
 4905SOL    HW115275   2.489   0.837  13.671
 4905SOL    HW215276   2.385   0.736  13.627
 4906SOL     OW15277   2.726   1.366  13.072
 4906SOL    HW115278   2.686   1.393  13.155
 4906SOL    HW215279   2.741   1.448  13.025
 4907SOL     OW15280   2.517   1.850   0.067
 4907SOL    HW115281   2.530   1.943   0.051
 4907SOL    HW215282   2.605   1.815   0.080
 4908SOL     OW15283   2.688   0.966  13.897
 4908SOL    HW115284   2.716   0.884   0.036
 4908SOL    HW215285   2.718   1.034   0.057
 4909SOL     OW15286   2.939   0.987  13.124
 4909SOL    HW115287   2.917   1.040  13.047
 4909SOL    HW215288   3.014   0.934  13.096
 4910SOL     OW15289   1.947   1.226  13.702
 4910SOL    HW115290   1.951   1.169  13.779
 4910SOL    HW215291   2.018   1.195  13.646
 4911SOL     OW15292   2.291   0.438  13.552
 4911SOL    HW115293   2.327   0.366  13.500
 4911SOL    HW215294   2.252   0.395  13.628
 4912SOL     OW15295   3.543   1.456   0.350
 4912SOL    HW115296   3.512   1.435   0.262
 4912SOL    HW215297   3.632   1.421   0.352
 4913SOL     OW15298   2.680   1.549  13.707
 4913SOL    HW115299   2.656   1.605  13.634
 4913SOL    HW215300   2.603   1.494  13.722
 4914SOL     OW15301   2.635   1.334  13.347
 4914SOL    HW115302   2.606   1.243  13.355
 4914SOL    HW215303   2.716   1.338  13.399
 4915SOL     OW15304   3.173   0.073  13.201
 4915SOL    HW115305   3.190   3.994  13.150
 4915SOL    HW215306   3.084   0.062  13.234
 4916SOL     OW15307   3.156   0.461  13.716
 4916SOL    HW115308   3.106   0.542  13.715
 4916SOL    HW215309   3.147   0.428  13.805
 4917SOL     OW15310   1.907   1.071  13.339
 4917SOL    HW115311   2.001   1.062  13.321
 4917SOL    HW215312   1.879   0.982  13.362
 4918SOL     OW15313   2.748   1.655  13.375
 4918SOL    HW115314   2.676   1.639  13.314
 4918SOL    HW215315   2.718   1.728  13.429
 4919SOL     OW15316   2.096   2.501   0.104
 4919SOL    HW115317   2.010   2.473   0.135
 4919SOL    HW215318   2.114   2.446   0.028
 4920SOL     OW15319   1.871   2.285   0.631
 4920SOL    HW115320   1.781   2.281   0.662
 4920SOL    HW215321   1.881   2.207   0.576
 4921SOL     OW15322   2.429   3.154   1.178
 4921SOL    HW115323   2.342   3.159   1.138
 4921SOL    HW215324   2.445   3.242   1.212
 4922SOL     OW15325   3.426   3.374   0.708
 4922SOL    HW115326   3.381   3.350   0.790
 4922SOL    HW215327   3.356   3.376   0.643
 4923SOL     OW15328   2.992   2.560   0.699
 4923SOL    HW115329   3.041   2.641   0.686
 4923SOL    HW215330   2.946   2.574   0.782
 4924SOL     OW15331   3.626   2.462   0.229
 4924SOL    HW115332   3.640   2.421   0.144
 4924SOL    HW215333   3.586   2.394   0.283
 4925SOL     OW15334   2.612   3.002   1.043
 4925SOL    HW115335   2.545   3.038   1.100
 4925SOL    HW215336   2.650   3.078   0.999
 4926SOL     OW15337   2.731   2.630   1.822
 4926SOL    HW115338   2.718   2.701   1.886
 4926SOL    HW215339   2.755   2.676   1.741
 4927SOL     OW15340   2.547   2.859   0.647
 4927SOL    HW115341   2.613   2.851   0.716
 4927SOL    HW215342   2.479   2.914   0.685
 4928SOL     OW15343   2.574   3.012   1.815
 4928SOL    HW115344   2.622   3.090   1.844
 4928SOL    HW215345   2.493   3.046   1.778
 4929SOL     OW15346   2.194   3.283   1.067
 4929SOL    HW115347   2.119   3.247   1.019
 4929SOL    HW215348   2.240   3.336   1.002
 4930SOL     OW15349   3.321   3.363   1.357
 4930SOL    HW115350   3.375   3.441   1.367
 4930SOL    HW215351   3.255   3.370   1.426
 4931SOL     OW15352   2.283   2.230   1.472
 4931SOL    HW115353   2.371   2.195   1.487
 4931SOL    HW215354   2.224   2.155   1.485
 4932SOL     OW15355   3.472   2.307   0.743
 4932SOL    HW115356   3.398   2.329   0.686
 4932SOL    HW215357   3.485   2.386   0.797
 4933SOL     OW15358   2.082   3.573   0.483
 4933SOL    HW115359   2.109   3.642   0.543
 4933SOL    HW215360   2.145   3.578   0.411
 4934SOL     OW15361   2.999   3.204   1.694
 4934SOL    HW115362   3.040   3.197   1.780
 4934SOL    HW215363   2.946   3.124   1.686
 4935SOL     OW15364   2.081   3.303   0.530
 4935SOL    HW115365   2.074   3.398   0.534
 4935SOL    HW215366   2.027   3.272   0.602
 4936SOL     OW15367   2.123   2.954   0.890
 4936SOL    HW115368   2.118   2.867   0.931
 4936SOL    HW215369   2.066   3.009   0.944
 4937SOL     OW15370   2.470   3.648   1.428
 4937SOL    HW115371   2.389   3.633   1.476
 4937SOL    HW215372   2.496   3.737   1.453
 4938SOL     OW15373   2.428   2.841   0.163
 4938SOL    HW115374   2.459   2.883   0.082
 4938SOL    HW215375   2.481   2.881   0.232
 4939SOL     OW15376   3.456   1.988   1.466
 4939SOL    HW115377   3.471   2.069   1.418
 4939SOL    HW215378   3.442   2.015   1.556
 4940SOL     OW15379   1.985   2.525   0.560
 4940SOL    HW115380   1.950   2.438   0.581
 4940SOL    HW215381   1.974   2.575   0.640
 4941SOL     OW15382   3.697   3.614   0.341
 4941SOL    HW115383   3.765   3.580   0.399
 4941SOL    HW215384   3.721   3.706   0.327
 4942SOL     OW15385   1.882   3.465   0.104
 4942SOL    HW115386   1.890   3.374   0.133
 4942SOL    HW215387   1.868   3.514   0.185
 4943SOL     OW15388   3.549   2.781   0.648
 4943SOL    HW115389   3.632   2.738   0.630
 4943SOL    HW215390   3.530   2.830   0.568
 4944SOL     OW15391   3.505   2.966   0.433
 4944SOL    HW115392   3.591   2.971   0.392
 4944SOL    HW215393   3.509   3.029   0.505
 4945SOL     OW15394   1.984   2.608   1.582
 4945SOL    HW115395   2.075   2.637   1.591
 4945SOL    HW215396   1.932   2.688   1.592
 4946SOL     OW15397   2.477   3.251   0.735
 4946SOL    HW115398   2.431   3.167   0.744
 4946SOL    HW215399   2.460   3.278   0.644
 4947SOL     OW15400   3.149   3.099   1.423
 4947SOL    HW115401   3.181   3.032   1.362
 4947SOL    HW215402   3.208   3.094   1.498
 4948SOL     OW15403   2.705   1.862   0.518
 4948SOL    HW115404   2.744   1.946   0.494
 4948SOL    HW215405   2.610   1.878   0.514
 4949SOL     OW15406   2.052   2.827   1.275
 4949SOL    HW115407   2.136   2.785   1.258
 4949SOL    HW215408   1.989   2.774   1.226
 4950SOL     OW15409   3.392   2.859   0.205
 4950SOL    HW115410   3.323   2.801   0.238
 4950SOL    HW215411   3.431   2.896   0.284
 4951SOL     OW15412   3.080   3.666   1.627
 4951SOL    HW115413   3.056   3.726   1.557
 4951SOL    HW215414   3.081   3.580   1.586
 4952SOL     OW15415   3.327   3.282   0.949
 4952SOL    HW115416   3.260   3.296   1.016
 4952SOL    HW215417   3.316   3.191   0.924
 4953SOL     OW15418   3.515   3.606   0.588
 4953SOL    HW115419   3.506   3.578   0.497
 4953SOL    HW215420   3.495   3.527   0.639
 4954SOL     OW15421   2.458   2.581   0.266
 4954SOL    HW115422   2.461   2.663   0.218
 4954SOL    HW215423   2.399   2.597   0.339
 4955SOL     OW15424   3.140   2.220   0.933
 4955SOL    HW115425   3.051   2.185   0.942
 4955SOL    HW215426   3.192   2.167   0.992
 4956SOL     OW15427   3.421   3.595   0.314
 4956SOL    HW115428   3.517   3.596   0.313
 4956SOL    HW215429   3.397   3.559   0.228
 4957SOL     OW15430   2.654   2.480   1.448
 4957SOL    HW115431   2.630   2.456   1.537
 4957SOL    HW215432   2.615   2.412   1.393
 4958SOL     OW15433   3.255   2.335   1.678
 4958SOL    HW115434   3.259   2.380   1.763
 4958SOL    HW215435   3.314   2.261   1.688
 4959SOL     OW15436   2.814   2.748   1.584
 4959SOL    HW115437   2.869   2.679   1.547
 4959SOL    HW215438   2.767   2.784   1.509
 4960SOL     OW15439   2.855   2.275   1.237
 4960SOL    HW115440   2.768   2.294   1.271
 4960SOL    HW215441   2.839   2.229   1.154
 4961SOL     OW15442   2.913   2.563   0.429
 4961SOL    HW115443   2.931   2.555   0.523
 4961SOL    HW215444   2.831   2.517   0.415
 4962SOL     OW15445   1.951   2.687   0.776
 4962SOL    HW115446   2.031   2.681   0.828
 4962SOL    HW215447   1.905   2.763   0.812
 4963SOL     OW15448   1.983   3.709   1.577
 4963SOL    HW115449   1.986   3.688   1.670
 4963SOL    HW215450   1.890   3.704   1.554
 4964SOL     OW15451   2.731   2.221   0.216
 4964SOL    HW115452   2.769   2.282   0.153
 4964SOL    HW215453   2.745   2.135   0.177
 4965SOL     OW15454   3.571   2.435   1.829
 4965SOL    HW115455   3.533   2.509   1.780
 4965SOL    HW215456   3.596   2.372   1.761
 4966SOL     OW15457   3.239   3.003   0.543
 4966SOL    HW115458   3.317   2.991   0.490
 4966SOL    HW215459   3.186   3.067   0.494
 4967SOL     OW15460   2.412   2.051   0.896
 4967SOL    HW115461   2.412   2.076   0.989
 4967SOL    HW215462   2.429   2.132   0.849
 4968SOL     OW15463   2.865   3.304   0.474
 4968SOL    HW115464   2.833   3.380   0.424
 4968SOL    HW215465   2.844   3.325   0.565
 4969SOL     OW15466   2.213   3.674   0.841
 4969SOL    HW115467   2.263   3.594   0.859
 4969SOL    HW215468   2.274   3.745   0.863
 4970SOL     OW15469   3.667   2.921   0.869
 4970SOL    HW115470   3.613   2.898   0.793
 4970SOL    HW215471   3.605   2.926   0.942
 4971SOL     OW15472   3.089   3.399   1.512
 4971SOL    HW115473   3.076   3.327   1.573
 4971SOL    HW215474   3.022   3.386   1.445
 4972SOL     OW15475   2.171   2.800   0.232
 4972SOL    HW115476   2.263   2.812   0.207
 4972SOL    HW215477   2.157   2.706   0.226
 4973SOL     OW15478   3.341   2.607   0.726
 4973SOL    HW115479   3.335   2.566   0.812
 4973SOL    HW215480   3.418   2.663   0.731
 4974SOL     OW15481   2.330   3.127   1.737
 4974SOL    HW115482   2.303   3.133   1.645
 4974SOL    HW215483   2.248   3.125   1.786
 4975SOL     OW15484   2.989   3.640   0.231
 4975SOL    HW115485   2.925   3.595   0.286
 4975SOL    HW215486   3.015   3.574   0.166
 4976SOL     OW15487   3.493   3.240   0.087
 4976SOL    HW115488   3.456   3.322   0.055
 4976SOL    HW215489   3.426   3.174   0.068
 4977SOL     OW15490   2.337   3.596   0.325
 4977SOL    HW115491   2.371   3.659   0.388
 4977SOL    HW215492   2.414   3.569   0.274
 4978SOL     OW15493   3.266   1.972   0.439
 4978SOL    HW115494   3.261   1.939   0.349
 4978SOL    HW215495   3.359   1.970   0.460
 4979SOL     OW15496   2.122   3.653   1.223
 4979SOL    HW115497   2.169   3.583   1.268
 4979SOL    HW215498   2.106   3.619   1.135
 4980SOL     OW15499   2.800   3.563   0.899
 4980SOL    HW115500   2.878   3.511   0.921
 4980SOL    HW215501   2.757   3.513   0.830
 4981SOL     OW15502   2.256   2.556   0.473
 4981SOL    HW115503   2.275   2.463   0.485
 4981SOL    HW215504   2.163   2.564   0.494
 4982SOL     OW15505   3.395   2.087   1.725
 4982SOL    HW115506   3.405   2.107   1.818
 4982SOL    HW215507   3.327   2.019   1.723
 4983SOL     OW15508   2.626   2.139   1.754
 4983SOL    HW115509   2.705   2.086   1.752
 4983SOL    HW215510   2.582   2.113   1.835
 4984SOL     OW15511   2.738   3.382   1.195
 4984SOL    HW115512   2.721   3.347   1.107
 4984SOL    HW215513   2.808   3.328   1.230
 4985SOL     OW15514   3.202   2.451   1.433
 4985SOL    HW115515   3.233   2.420   1.518
 4985SOL    HW215516   3.238   2.539   1.424
 4986SOL     OW15517   2.679   3.254   0.942
 4986SOL    HW115518   2.763   3.242   0.899
 4986SOL    HW215519   2.615   3.258   0.871
 4987SOL     OW15520   2.789   2.370   0.902
 4987SOL    HW115521   2.765   2.362   0.810
 4987SOL    HW215522   2.822   2.283   0.925
 4988SOL     OW15523   2.448   1.923   0.480
 4988SOL    HW115524   2.375   1.914   0.541
 4988SOL    HW215525   2.429   2.002   0.430
 4989SOL     OW15526   3.292   3.068   0.045
 4989SOL    HW115527   3.311   2.987   0.092
 4989SOL    HW215528   3.201   3.087   0.064
 4990SOL     OW15529   2.808   2.112   0.460
 4990SOL    HW115530   2.776   2.151   0.379
 4990SOL    HW215531   2.902   2.131   0.460
 4991SOL     OW15532   2.943   2.545   1.459
 4991SOL    HW115533   2.877   2.476   1.463
 4991SOL    HW215534   3.026   2.498   1.453
 4992SOL     OW15535   3.082   3.433   0.795
 4992SOL    HW115536   3.099   3.499   0.727
 4992SOL    HW215537   3.153   3.445   0.858
 4993SOL     OW15538   2.332   3.014   0.729
 4993SOL    HW115539   2.264   2.994   0.794
 4993SOL    HW215540   2.290   3.001   0.645
 4994SOL     OW15541   3.128   3.657   0.608
 4994SOL    HW115542   3.175   3.722   0.555
 4994SOL    HW215543   3.055   3.706   0.646
 4995SOL     OW15544   2.858   2.404   0.056
 4995SOL    HW115545   2.856   2.392  13.861
 4995SOL    HW215546   2.951   2.401   0.079
 4996SOL     OW15547   1.940   2.424   1.386
 4996SOL    HW115548   2.033   2.420   1.365
 4996SOL    HW215549   1.933   2.490   1.455
 4997SOL     OW15550   2.417   2.083   1.172
 4997SOL    HW115551   2.468   2.006   1.197
 4997SOL    HW215552   2.333   2.072   1.218
 4998SOL     OW15553   2.726   2.319   0.639
 4998SOL    HW115554   2.687   2.375   0.572
 4998SOL    HW215555   2.751   2.240   0.592
 4999SOL     OW15556   2.875   1.916   0.751
 4999SOL    HW115557   2.820   1.905   0.673
 4999SOL    HW215558   2.854   1.840   0.806
 5000SOL     OW15559   3.301   3.024   0.857
 5000SOL    HW115560   3.230   2.959   0.856
 5000SOL    HW215561   3.326   3.034   0.765
 5001SOL     OW15562   3.327   2.470   0.973
 5001SOL    HW115563   3.275   2.390   0.976
 5001SOL    HW215564   3.386   2.463   1.048
 5002SOL     OW15565   3.724   2.676   0.371
 5002SOL    HW115566   3.765   2.622   0.438
 5002SOL    HW215567   3.683   2.614   0.311
 5003SOL     OW15568   2.351   3.267   0.157
 5003SOL    HW115569   2.276   3.235   0.207
 5003SOL    HW215570   2.333   3.240   0.067
 5004SOL     OW15571   3.529   3.126   0.645
 5004SOL    HW115572   3.624   3.129   0.655
 5004SOL    HW215573   3.500   3.216   0.661
 5005SOL     OW15574   3.284   2.447   0.086
 5005SOL    HW115575   3.217   2.439   0.154
 5005SOL    HW215576   3.320   2.359   0.077
 5006SOL     OW15577   2.384   2.127   0.317
 5006SOL    HW115578   2.442   2.094   0.248
 5006SOL    HW215579   2.350   2.209   0.283
 5007SOL     OW15580   3.613   3.096   1.566
 5007SOL    HW115581   3.700   3.061   1.549
 5007SOL    HW215582   3.629   3.186   1.595
 5008SOL     OW15583   2.919   3.214   1.332
 5008SOL    HW115584   2.844   3.183   1.383
 5008SOL    HW215585   2.995   3.173   1.374
 5009SOL     OW15586   3.469   3.491   1.657
 5009SOL    HW115587   3.459   3.524   1.567
 5009SOL    HW215588   3.549   3.440   1.655
 5010SOL     OW15589   2.993   3.067   1.103
 5010SOL    HW115590   2.934   3.106   1.168
 5010SOL    HW215591   2.962   3.102   1.019
 5011SOL     OW15592   3.490   2.958   1.075
 5011SOL    HW115593   3.482   3.019   1.148
 5011SOL    HW215594   3.413   2.974   1.020
 5012SOL     OW15595   2.778   1.959   1.393
 5012SOL    HW115596   2.803   1.939   1.303
 5012SOL    HW215597   2.857   1.998   1.431
 5013SOL     OW15598   2.846   2.977   1.723
 5013SOL    HW115599   2.755   2.993   1.746
 5013SOL    HW215600   2.843   2.899   1.668
 5014SOL     OW15601   2.578   2.921   0.377
 5014SOL    HW115602   2.563   2.902   0.470
 5014SOL    HW215603   2.653   2.866   0.353
 5015SOL     OW15604   2.281   2.676   1.251
 5015SOL    HW115605   2.349   2.688   1.317
 5015SOL    HW215606   2.247   2.588   1.267
 5016SOL     OW15607   3.127   2.238   1.279
 5016SOL    HW115608   3.160   2.315   1.324
 5016SOL    HW215609   3.036   2.260   1.256
 5017SOL     OW15610   1.934   3.435   1.354
 5017SOL    HW115611   1.906   3.510   1.301
 5017SOL    HW215612   2.030   3.437   1.349
 5018SOL     OW15613   2.206   2.976   0.486
 5018SOL    HW115614   2.204   3.048   0.423
 5018SOL    HW215615   2.213   2.897   0.433
 5019SOL     OW15616   2.406   2.397   0.864
 5019SOL    HW115617   2.419   2.454   0.788
 5019SOL    HW215618   2.473   2.423   0.926
 5020SOL     OW15619   3.110   3.209   0.398
 5020SOL    HW115620   3.166   3.282   0.425
 5020SOL    HW215621   3.023   3.232   0.430
 5021SOL     OW15622   3.146   3.322   1.148
 5021SOL    HW115623   3.203   3.326   1.225
 5021SOL    HW215624   3.091   3.245   1.163
 5022SOL     OW15625   3.442   2.485   0.485
 5022SOL    HW115626   3.392   2.533   0.551
 5022SOL    HW215627   3.470   2.551   0.422
 5023SOL     OW15628   2.207   3.392   1.312
 5023SOL    HW115629   2.196   3.347   1.228
 5023SOL    HW215630   2.302   3.402   1.320
 5024SOL     OW15631   2.278   2.608   1.603
 5024SOL    HW115632   2.340   2.651   1.544
 5024SOL    HW215633   2.323   2.528   1.630
 5025SOL     OW15634   3.466   2.640   1.683
 5025SOL    HW115635   3.381   2.683   1.677
 5025SOL    HW215636   3.519   2.684   1.615
 5026SOL     OW15637   2.857   1.990   1.752
 5026SOL    HW115638   2.916   2.062   1.729
 5026SOL    HW215639   2.905   1.911   1.728
 5027SOL     OW15640   2.374   1.894   1.748
 5027SOL    HW115641   2.325   1.839   1.687
 5027SOL    HW215642   2.317   1.969   1.763
 5028SOL     OW15643   2.446   2.735   1.032
 5028SOL    HW115644   2.479   2.825   1.032
 5028SOL    HW215645   2.390   2.730   1.109
 5029SOL     OW15646   3.216   2.721   1.026
 5029SOL    HW115647   3.132   2.709   0.982
 5029SOL    HW215648   3.260   2.636   1.019
 5030SOL     OW15649   3.081   2.405   0.272
 5030SOL    HW115650   3.086   2.325   0.324
 5030SOL    HW215651   3.025   2.463   0.323
 5031SOL     OW15652   1.908   3.173   1.275
 5031SOL    HW115653   1.941   3.118   1.347
 5031SOL    HW215654   1.914   3.263   1.309
 5032SOL     OW15655   2.582   2.489   1.054
 5032SOL    HW115656   2.659   2.475   1.000
 5032SOL    HW215657   2.556   2.580   1.037
 5033SOL     OW15658   3.593   2.821   1.861
 5033SOL    HW115659   3.552   2.757   1.803
 5033SOL    HW215660   3.529   2.835   1.931
 5034SOL     OW15661   2.224   1.906   0.614
 5034SOL    HW115662   2.145   1.954   0.591
 5034SOL    HW215663   2.207   1.874   0.703
 5035SOL     OW15664   3.483   2.239   0.371
 5035SOL    HW115665   3.506   2.172   0.435
 5035SOL    HW215666   3.458   2.315   0.423
 5036SOL     OW15667   2.889   2.620   0.959
 5036SOL    HW115668   2.884   2.637   1.053
 5036SOL    HW215669   2.863   2.528   0.950
 5037SOL     OW15670   2.847   3.430   1.720
 5037SOL    HW115671   2.829   3.471   1.636
 5037SOL    HW215672   2.889   3.347   1.698
 5038SOL     OW15673   3.705   3.361   1.598
 5038SOL    HW115674   3.729   3.390   1.510
 5038SOL    HW215675   3.785   3.371   1.649
 5039SOL     OW15676   2.216   2.782   1.809
 5039SOL    HW115677   2.297   2.799   1.856
 5039SOL    HW215678   2.240   2.718   1.741
 5040SOL     OW15679   3.413   2.121   0.137
 5040SOL    HW115680   3.352   2.050   0.161
 5040SOL    HW215681   3.435   2.162   0.220
 5041SOL     OW15682   3.152   2.691   0.055
 5041SOL    HW115683   3.200   2.608   0.060
 5041SOL    HW215684   3.170   2.724  13.867
 5042SOL     OW15685   2.929   3.198   0.855
 5042SOL    HW115686   2.933   3.126   0.792
 5042SOL    HW215687   2.989   3.264   0.820
 5043SOL     OW15688   2.172   2.673   0.946
 5043SOL    HW115689   2.264   2.695   0.937
 5043SOL    HW215690   2.171   2.585   0.985
 5044SOL     OW15691   2.185   2.359   1.013
 5044SOL    HW115692   2.144   2.287   0.965
 5044SOL    HW215693   2.264   2.379   0.964
 5045SOL     OW15694   2.996   2.237   1.683
 5045SOL    HW115695   2.948   2.291   1.746
 5045SOL    HW215696   3.083   2.275   1.680
 5046SOL     OW15697   3.021   2.063   1.470
 5046SOL    HW115698   3.011   2.126   1.542
 5046SOL    HW215699   3.064   2.113   1.401
 5047SOL     OW15700   1.883   3.174   0.180
 5047SOL    HW115701   1.801   3.187   0.132
 5047SOL    HW215702   1.873   3.087   0.219
 5048SOL     OW15703   1.959   3.640   0.939
 5048SOL    HW115704   1.928   3.562   0.893
 5048SOL    HW215705   2.044   3.659   0.899
 5049SOL     OW15706   2.356   3.438   0.905
 5049SOL    HW115707   2.424   3.501   0.930
 5049SOL    HW215708   2.401   3.375   0.849
 5050SOL     OW15709   2.841   2.651   1.225
 5050SOL    HW115710   2.901   2.631   1.297
 5050SOL    HW215711   2.756   2.616   1.254
 5051SOL     OW15712   1.900   2.399   1.118
 5051SOL    HW115713   1.984   2.400   1.072
 5051SOL    HW215714   1.922   2.414   1.210
 5052SOL     OW15715   2.059   2.388   1.724
 5052SOL    HW115716   2.119   2.354   1.658
 5052SOL    HW215717   2.014   2.460   1.681
 5053SOL     OW15718   3.241   2.799   1.658
 5053SOL    HW115719   3.262   2.892   1.655
 5053SOL    HW215720   3.237   2.772   1.566
 5054SOL     OW15721   2.676   2.438   0.376
 5054SOL    HW115722   2.687   2.363   0.318
 5054SOL    HW215723   2.605   2.489   0.337
 5055SOL     OW15724   3.502   2.463   1.183
 5055SOL    HW115725   3.491   2.403   1.257
 5055SOL    HW215726   3.588   2.442   1.148
 5056SOL     OW15727   2.104   3.411   1.725
 5056SOL    HW115728   2.081   3.477   1.790
 5056SOL    HW215729   2.108   3.329   1.774
 5057SOL     OW15730   2.563   2.310   1.258
 5057SOL    HW115731   2.511   2.236   1.227
 5057SOL    HW215732   2.559   2.373   1.186
 5058SOL     OW15733   2.789   3.534   1.469
 5058SOL    HW115734   2.763   3.496   1.385
 5058SOL    HW215735   2.781   3.628   1.456
 5059SOL     OW15736   2.302   2.360   0.227
 5059SOL    HW115737   2.367   2.430   0.238
 5059SOL    HW215738   2.226   2.404   0.188
 5060SOL     OW15739   2.007   3.004   1.474
 5060SOL    HW115740   2.007   2.954   1.555
 5060SOL    HW215741   2.024   2.939   1.405
 5061SOL     OW15742   3.184   2.907   1.222
 5061SOL    HW115743   3.208   2.844   1.154
 5061SOL    HW215744   3.116   2.961   1.182
 5062SOL     OW15745   3.176   2.720   0.326
 5062SOL    HW115746   3.103   2.686   0.377
 5062SOL    HW215747   3.152   2.705   0.235
 5063SOL     OW15748   3.639   3.602   1.155
 5063SOL    HW115749   3.697   3.629   1.083
 5063SOL    HW215750   3.612   3.514   1.132
 5064SOL     OW15751   3.106   3.595   1.110
 5064SOL    HW115752   3.189   3.617   1.066
 5064SOL    HW215753   3.112   3.502   1.129
 5065SOL     OW15754   1.948   3.127   1.012
 5065SOL    HW115755   1.932   3.142   1.105
 5065SOL    HW215756   1.873   3.074   0.983
 5066SOL     OW15757   2.541   3.527   1.733
 5066SOL    HW115758   2.484   3.603   1.737
 5066SOL    HW215759   2.601   3.545   1.661
 5067SOL     OW15760   2.789   1.971   0.129
 5067SOL    HW115761   2.822   1.960   0.040
 5067SOL    HW215762   2.839   1.908   0.181
 5068SOL     OW15763   3.568   2.010   0.514
 5068SOL    HW115764   3.647   2.003   0.460
 5068SOL    HW215765   3.559   1.924   0.555
 5069SOL     OW15766   3.251   3.434   0.486
 5069SOL    HW115767   3.314   3.468   0.423
 5069SOL    HW215768   3.204   3.511   0.518
 5070SOL     OW15769   1.996   3.652   1.839
 5070SOL    HW115770   1.944   3.588   1.887
 5070SOL    HW215771   2.045   3.700   1.906
 5071SOL     OW15772   3.138   2.788   0.671
 5071SOL    HW115773   3.213   2.728   0.680
 5071SOL    HW215774   3.172   2.860   0.618
 5072SOL     OW15775   2.672   3.136   1.428
 5072SOL    HW115776   2.644   3.176   1.510
 5072SOL    HW215777   2.603   3.159   1.366
 5073SOL     OW15778   2.543   3.454   0.183
 5073SOL    HW115779   2.524   3.501   0.102
 5073SOL    HW215780   2.487   3.376   0.180
 5074SOL     OW15781   3.481   3.588   1.390
 5074SOL    HW115782   3.537   3.592   1.312
 5074SOL    HW215783   3.469   3.680   1.415
 5075SOL     OW15784   3.700   2.043   0.967
 5075SOL    HW115785   3.731   1.956   0.942
 5075SOL    HW215786   3.614   2.050   0.926
 5076SOL     OW15787   3.084   3.460   0.034
 5076SOL    HW115788   3.072   3.369   0.061
 5076SOL    HW215789   3.039   3.467  13.850
 5077SOL     OW15790   2.686   2.868   1.373
 5077SOL    HW115791   2.730   2.864   1.288
 5077SOL    HW215792   2.684   2.961   1.394
 5078SOL     OW15793   2.784   2.773   0.289
 5078SOL    HW115794   2.854   2.812   0.236
 5078SOL    HW215795   2.828   2.702   0.336
 5079SOL     OW15796   3.349   3.509   0.065
 5079SOL    HW115797   3.256   3.487   0.057
 5079SOL    HW215798   3.383   3.500  13.876
 5080SOL     OW15799   2.231   3.166   1.491
 5080SOL    HW115800   2.217   3.243   1.436
 5080SOL    HW215801   2.154   3.111   1.476
 5081SOL     OW15802   3.463   3.142   1.277
 5081SOL    HW115803   3.532   3.134   1.343
 5081SOL    HW215804   3.406   3.211   1.310
 5082SOL     OW15805   2.917   2.970   0.708
 5082SOL    HW115806   2.846   2.919   0.746
 5082SOL    HW215807   2.981   2.905   0.680
 5083SOL     OW15808   2.883   2.102   0.966
 5083SOL    HW115809   2.879   2.055   0.883
 5083SOL    HW215810   2.879   2.034   1.033
 5084SOL     OW15811   2.467   3.351   0.480
 5084SOL    HW115812   2.512   3.299   0.413
 5084SOL    HW215813   2.399   3.398   0.432
 5085SOL     OW15814   3.586   2.251   1.378
 5085SOL    HW115815   3.658   2.315   1.375
 5085SOL    HW215816   3.615   2.179   1.322
 5086SOL     OW15817   2.132   3.184   0.297
 5086SOL    HW115818   2.049   3.192   0.252
 5086SOL    HW215819   2.120   3.231   0.380
 5087SOL     OW15820   1.975   2.888   1.720
 5087SOL    HW115821   1.898   2.863   1.772
 5087SOL    HW215822   2.049   2.849   1.767
 5088SOL     OW15823   2.535   2.059   1.500
 5088SOL    HW115824   2.619   2.038   1.458
 5088SOL    HW215825   2.560   2.091   1.587
 5089SOL     OW15826   1.866   2.288   0.051
 5089SOL    HW115827   1.858   2.193   0.057
 5089SOL    HW215828   1.935   2.302  13.886
 5090SOL     OW15829   3.288   2.720   1.399
 5090SOL    HW115830   3.239   2.782   1.345
 5090SOL    HW215831   3.377   2.722   1.362
 5091SOL     OW15832   3.048   3.207   0.122
 5091SOL    HW115833   2.954   3.196   0.111
 5091SOL    HW215834   3.063   3.195   0.216
 5092SOL     OW15835   2.482   2.692   1.433
 5092SOL    HW115836   2.537   2.769   1.419
 5092SOL    HW215837   2.543   2.619   1.441
 5093SOL     OW15838   3.347   3.644   0.983
 5093SOL    HW115839   3.371   3.696   0.906
 5093SOL    HW215840   3.431   3.612   1.017
 5094SOL     OW15841   2.579   2.423   1.700
 5094SOL    HW115842   2.621   2.485   1.760
 5094SOL    HW215843   2.601   2.337   1.736
 5095SOL     OW15844   3.335   3.060   1.630
 5095SOL    HW115845   3.324   3.074   1.724
 5095SOL    HW215846   3.428   3.075   1.614
 5096SOL     OW15847   2.237   3.602   1.565
 5096SOL    HW115848   2.153   3.644   1.549
 5096SOL    HW215849   2.215   3.519   1.606
 5097SOL     OW15850   3.527   2.742   1.259
 5097SOL    HW115851   3.525   2.657   1.215
 5097SOL    HW215852   3.520   2.806   1.187
 5098SOL     OW15853   3.081   2.183   0.454
 5098SOL    HW115854   3.144   2.111   0.448
 5098SOL    HW215855   3.108   2.232   0.532
 5099SOL     OW15856   2.446   2.597   0.674
 5099SOL    HW115857   2.488   2.682   0.660
 5099SOL    HW215858   2.381   2.590   0.603
 5100SOL     OW15859   3.621   2.228   1.650
 5100SOL    HW115860   3.604   2.241   1.557
 5100SOL    HW215861   3.551   2.169   1.679
 5101SOL     OW15862   3.618   2.790   1.513
 5101SOL    HW115863   3.609   2.884   1.531
 5101SOL    HW215864   3.594   2.781   1.421
 5102SOL     OW15865   2.770   3.260   0.066
 5102SOL    HW115866   2.701   3.246   0.130
 5102SOL    HW215867   2.724   3.265  13.882
 5103SOL     OW15868   2.523   3.651   0.940
 5103SOL    HW115869   2.502   3.742   0.919
 5103SOL    HW215870   2.618   3.647   0.934
 5104SOL     OW15871   2.730   2.830   0.854
 5104SOL    HW115872   2.780   2.759   0.893
 5104SOL    HW215873   2.694   2.878   0.929
 5105SOL     OW15874   2.960   2.873   0.110
 5105SOL    HW115875   2.950   2.919   0.026
 5105SOL    HW215876   3.034   2.814   0.096
 5106SOL     OW15877   3.713   3.415   0.840
 5106SOL    HW115878   3.634   3.399   0.789
 5106SOL    HW215879   3.711   3.349   0.910
 5107SOL     OW15880   2.088   3.163   1.855
 5107SOL    HW115881   2.022   3.101   1.825
 5107SOL    HW215882   2.068   3.175   1.948
 5108SOL     OW15883   1.947   3.091   0.667
 5108SOL    HW115884   1.955   3.044   0.749
 5108SOL    HW215885   2.018   3.058   0.612
 5109SOL     OW15886   2.545   3.266   1.630
 5109SOL    HW115887   2.465   3.224   1.661
 5109SOL    HW215888   2.542   3.355   1.667
 5110SOL     OW15889   3.674   2.040   1.238
 5110SOL    HW115890   3.667   1.945   1.241
 5110SOL    HW215891   3.689   2.060   1.146
 5111SOL     OW15892   2.291   2.292   0.533
 5111SOL    HW115893   2.325   2.235   0.463
 5111SOL    HW215894   2.250   2.232   0.595
 5112SOL     OW15895   3.558   3.351   1.095
 5112SOL    HW115896   3.479   3.328   1.047
 5112SOL    HW215897   3.570   3.281   1.159
 5113SOL     OW15898   2.194   2.417   1.289
 5113SOL    HW115899   2.238   2.355   1.348
 5113SOL    HW215900   2.210   2.382   1.202
 5114SOL     OW15901   2.691   3.441   0.677
 5114SOL    HW115902   2.674   3.495   0.600
 5114SOL    HW215903   2.616   3.381   0.681
 5115SOL     OW15904   3.292   2.090   1.117
 5115SOL    HW115905   3.314   2.007   1.159
 5115SOL    HW215906   3.242   2.138   1.182
 5116SOL     OW15907   2.870   1.879   1.139
 5116SOL    HW115908   2.817   1.811   1.097
 5116SOL    HW215909   2.958   1.841   1.142
 5117SOL     OW15910   2.637   3.185   0.320
 5117SOL    HW115911   2.608   3.095   0.337
 5117SOL    HW215912   2.719   3.193   0.368
 5118SOL     OW15913   2.482   3.415   1.285
 5118SOL    HW115914   2.483   3.497   1.335
 5118SOL    HW215915   2.570   3.409   1.248
 5119SOL     OW15916   3.211   1.927   0.164
 5119SOL    HW115917   3.245   1.865   0.101
 5119SOL    HW215918   3.128   1.889   0.193
 5120SOL     OW15919   3.156   2.324   0.679
 5120SOL    HW115920   3.104   2.404   0.686
 5120SOL    HW215921   3.153   2.285   0.766
 5121SOL     OW15922   3.444   2.060   0.878
 5121SOL    HW115923   3.388   2.084   0.952
 5121SOL    HW215924   3.445   2.139   0.823
 5122SOL     OW15925   1.902   2.930   0.310
 5122SOL    HW115926   1.997   2.926   0.307
 5122SOL    HW215927   1.874   2.840   0.328
 5123SOL     OW15928   2.757   3.520   0.345
 5123SOL    HW115929   2.684   3.491   0.291
 5123SOL    HW215930   2.723   3.595   0.393
 5124SOL     OW15931   2.093   2.493   1.984
 5124SOL    HW115932   2.009   2.465   2.019
 5124SOL    HW215933   2.092   2.466   1.892
 5125SOL     OW15934   1.869   2.289   2.491
 5125SOL    HW115935   1.779   2.283   2.524
 5125SOL    HW215936   1.880   2.210   2.438
 5126SOL     OW15937   2.429   3.154   3.040
 5126SOL    HW115938   2.342   3.159   3.000
 5126SOL    HW215939   2.445   3.242   3.074
 5127SOL     OW15940   3.425   3.374   2.571
 5127SOL    HW115941   3.383   3.351   2.654
 5127SOL    HW215942   3.354   3.377   2.507
 5128SOL     OW15943   2.992   2.560   2.560
 5128SOL    HW115944   3.041   2.641   2.547
 5128SOL    HW215945   2.946   2.574   2.643
 5129SOL     OW15946   3.629   2.468   2.091
 5129SOL    HW115947   3.609   2.460   1.998
 5129SOL    HW215948   3.595   2.388   2.130
 5130SOL     OW15949   2.613   3.002   2.906
 5130SOL    HW115950   2.545   3.038   2.963
 5130SOL    HW215951   2.651   3.078   2.862
 5131SOL     OW15952   2.731   2.630   3.684
 5131SOL    HW115953   2.718   2.701   3.748
 5131SOL    HW215954   2.755   2.676   3.603
 5132SOL     OW15955   2.548   2.861   2.507
 5132SOL    HW115956   2.613   2.852   2.577
 5132SOL    HW215957   2.479   2.915   2.546
 5133SOL     OW15958   2.574   3.012   3.677
 5133SOL    HW115959   2.622   3.090   3.706
 5133SOL    HW215960   2.493   3.046   3.640
 5134SOL     OW15961   2.193   3.283   2.929
 5134SOL    HW115962   2.119   3.246   2.881
 5134SOL    HW215963   2.240   3.336   2.864
 5135SOL     OW15964   3.321   3.363   3.219
 5135SOL    HW115965   3.375   3.441   3.229
 5135SOL    HW215966   3.255   3.370   3.288
 5136SOL     OW15967   2.284   2.231   3.335
 5136SOL    HW115968   2.371   2.196   3.350
 5136SOL    HW215969   2.226   2.156   3.345
 5137SOL     OW15970   3.472   2.308   2.606
 5137SOL    HW115971   3.399   2.330   2.547
 5137SOL    HW215972   3.484   2.386   2.659
 5138SOL     OW15973   2.083   3.578   2.341
 5138SOL    HW115974   2.114   3.638   2.409
 5138SOL    HW215975   2.155   3.575   2.277
 5139SOL     OW15976   2.999   3.204   3.556
 5139SOL    HW115977   3.040   3.197   3.642
 5139SOL    HW215978   2.947   3.124   3.548
 5140SOL     OW15979   2.092   3.304   2.398
 5140SOL    HW115980   2.073   3.398   2.402
 5140SOL    HW215981   2.033   3.265   2.463
 5141SOL     OW15982   2.124   2.954   2.754
 5141SOL    HW115983   2.119   2.867   2.794
 5141SOL    HW215984   2.065   3.008   2.807
 5142SOL     OW15985   2.470   3.648   3.290
 5142SOL    HW115986   2.389   3.633   3.338
 5142SOL    HW215987   2.496   3.737   3.315
 5143SOL     OW15988   2.445   2.845   1.998
 5143SOL    HW115989   2.492   2.892   1.929
 5143SOL    HW215990   2.483   2.877   2.080
 5144SOL     OW15991   3.456   1.988   3.328
 5144SOL    HW115992   3.471   2.069   3.280
 5144SOL    HW215993   3.442   2.015   3.418
 5145SOL     OW15994   1.986   2.526   2.422
 5145SOL    HW115995   1.950   2.440   2.442
 5145SOL    HW215996   1.975   2.576   2.503
 5146SOL     OW15997   3.700   3.613   2.204
 5146SOL    HW115998   3.771   3.588   2.263
 5146SOL    HW215999   3.719   3.704   2.180
 5147SOL     OW16000   1.892   3.453   1.984
 5147SOL    HW116001   1.877   3.361   2.005
 5147SOL    HW216002   1.871   3.500   2.064
 5148SOL     OW16003   3.550   2.782   2.508
 5148SOL    HW116004   3.633   2.738   2.490
 5148SOL    HW216005   3.531   2.831   2.428
 5149SOL     OW16006   3.503   2.966   2.293
 5149SOL    HW116007   3.588   2.971   2.250
 5149SOL    HW216008   3.510   3.029   2.365
 5150SOL     OW16009   1.984   2.609   3.444
 5150SOL    HW116010   2.074   2.638   3.453
 5150SOL    HW216011   1.932   2.689   3.453
 5151SOL     OW16012   2.477   3.251   2.597
 5151SOL    HW116013   2.432   3.167   2.606
 5151SOL    HW216014   2.460   3.278   2.506
 5152SOL     OW16015   3.149   3.099   3.285
 5152SOL    HW116016   3.181   3.032   3.224
 5152SOL    HW216017   3.208   3.094   3.360
 5153SOL     OW16018   2.702   1.863   2.379
 5153SOL    HW116019   2.743   1.946   2.355
 5153SOL    HW216020   2.608   1.880   2.374
 5154SOL     OW16021   2.052   2.827   3.136
 5154SOL    HW116022   2.136   2.785   3.120
 5154SOL    HW216023   1.989   2.774   3.087
 5155SOL     OW16024   3.390   2.858   2.062
 5155SOL    HW116025   3.321   2.801   2.096
 5155SOL    HW216026   3.432   2.893   2.141
 5156SOL     OW16027   3.080   3.666   3.489
 5156SOL    HW116028   3.056   3.726   3.419
 5156SOL    HW216029   3.081   3.580   3.448
 5157SOL     OW16030   3.327   3.282   2.811
 5157SOL    HW116031   3.261   3.297   2.878
 5157SOL    HW216032   3.316   3.191   2.785
 5158SOL     OW16033   3.509   3.606   2.442
 5158SOL    HW116034   3.501   3.572   2.353
 5158SOL    HW216035   3.492   3.531   2.499
 5159SOL     OW16036   2.459   2.585   2.132
 5159SOL    HW116037   2.462   2.667   2.082
 5159SOL    HW216038   2.393   2.600   2.199
 5160SOL     OW16039   3.139   2.220   2.795
 5160SOL    HW116040   3.051   2.185   2.804
 5160SOL    HW216041   3.192   2.167   2.855
 5161SOL     OW16042   3.436   3.538   2.170
 5161SOL    HW116043   3.528   3.562   2.166
 5161SOL    HW216044   3.412   3.518   2.080
 5162SOL     OW16045   2.654   2.480   3.309
 5162SOL    HW116046   2.630   2.456   3.399
 5162SOL    HW216047   2.615   2.412   3.255
 5163SOL     OW16048   3.255   2.335   3.540
 5163SOL    HW116049   3.259   2.380   3.625
 5163SOL    HW216050   3.314   2.261   3.550
 5164SOL     OW16051   2.814   2.748   3.446
 5164SOL    HW116052   2.869   2.679   3.409
 5164SOL    HW216053   2.767   2.784   3.371
 5165SOL     OW16054   2.855   2.275   3.099
 5165SOL    HW116055   2.768   2.294   3.133
 5165SOL    HW216056   2.839   2.230   3.016
 5166SOL     OW16057   2.914   2.560   2.287
 5166SOL    HW116058   2.931   2.554   2.381
 5166SOL    HW216059   2.831   2.515   2.274
 5167SOL     OW16060   1.951   2.686   2.641
 5167SOL    HW116061   2.031   2.681   2.691
 5167SOL    HW216062   1.906   2.763   2.675
 5168SOL     OW16063   1.983   3.709   3.439
 5168SOL    HW116064   1.986   3.688   3.532
 5168SOL    HW216065   1.890   3.704   3.416
 5169SOL     OW16066   2.759   2.213   2.058
 5169SOL    HW116067   2.800   2.275   1.997
 5169SOL    HW216068   2.767   2.128   2.015
 5170SOL     OW16069   3.571   2.435   3.691
 5170SOL    HW116070   3.533   2.509   3.642
 5170SOL    HW216071   3.596   2.372   3.623
 5171SOL     OW16072   3.239   3.003   2.402
 5171SOL    HW116073   3.319   2.991   2.351
 5171SOL    HW216074   3.187   3.066   2.351
 5172SOL     OW16075   2.410   2.051   2.758
 5172SOL    HW116076   2.411   2.075   2.850
 5172SOL    HW216077   2.428   2.132   2.711
 5173SOL     OW16078   2.866   3.307   2.333
 5173SOL    HW116079   2.829   3.381   2.284
 5173SOL    HW216080   2.845   3.326   2.424
 5174SOL     OW16081   2.213   3.673   2.701
 5174SOL    HW116082   2.263   3.594   2.720
 5174SOL    HW216083   2.273   3.745   2.724
 5175SOL     OW16084   3.667   2.922   2.729
 5175SOL    HW116085   3.614   2.897   2.654
 5175SOL    HW216086   3.605   2.926   2.802
 5176SOL     OW16087   3.089   3.399   3.374
 5176SOL    HW116088   3.076   3.327   3.435
 5176SOL    HW216089   3.022   3.386   3.307
 5177SOL     OW16090   2.179   2.819   2.114
 5177SOL    HW116091   2.260   2.838   2.067
 5177SOL    HW216092   2.147   2.737   2.076
 5178SOL     OW16093   3.342   2.608   2.587
 5178SOL    HW116094   3.336   2.566   2.673
 5178SOL    HW216095   3.420   2.663   2.593
 5179SOL     OW16096   2.330   3.128   3.599
 5179SOL    HW116097   2.303   3.133   3.507
 5179SOL    HW216098   2.248   3.125   3.648
 5180SOL     OW16099   2.976   3.643   2.084
 5180SOL    HW116100   2.912   3.597   2.138
 5180SOL    HW216101   3.006   3.577   2.021
 5181SOL     OW16102   3.486   3.247   1.951
 5181SOL    HW116103   3.443   3.330   1.933
 5181SOL    HW216104   3.420   3.181   1.931
 5182SOL     OW16105   2.329   3.597   2.187
 5182SOL    HW116106   2.367   3.662   2.246
 5182SOL    HW216107   2.402   3.571   2.130
 5183SOL     OW16108   3.263   1.969   2.298
 5183SOL    HW116109   3.256   1.944   2.206
 5183SOL    HW216110   3.357   1.975   2.314
 5184SOL     OW16111   2.122   3.653   3.085
 5184SOL    HW116112   2.169   3.584   3.131
 5184SOL    HW216113   2.107   3.619   2.997
 5185SOL     OW16114   2.800   3.563   2.761
 5185SOL    HW116115   2.877   3.511   2.784
 5185SOL    HW216116   2.756   3.513   2.692
 5186SOL     OW16117   2.258   2.556   2.337
 5186SOL    HW116118   2.275   2.462   2.348
 5186SOL    HW216119   2.164   2.565   2.354
 5187SOL     OW16120   3.395   2.087   3.587
 5187SOL    HW116121   3.405   2.107   3.680
 5187SOL    HW216122   3.327   2.019   3.585
 5188SOL     OW16123   2.511   1.985   1.967
 5188SOL    HW116124   2.571   1.916   1.996
 5188SOL    HW216125   2.462   1.945   1.895
 5189SOL     OW16126   2.626   2.139   3.616
 5189SOL    HW116127   2.705   2.086   3.614
 5189SOL    HW216128   2.581   2.112   3.697
 5190SOL     OW16129   2.738   3.383   3.057
 5190SOL    HW116130   2.721   3.347   2.969
 5190SOL    HW216131   2.808   3.328   3.092
 5191SOL     OW16132   3.202   2.451   3.295
 5191SOL    HW116133   3.233   2.420   3.380
 5191SOL    HW216134   3.238   2.539   3.286
 5192SOL     OW16135   2.679   3.254   2.805
 5192SOL    HW116136   2.763   3.242   2.761
 5192SOL    HW216137   2.615   3.258   2.733
 5193SOL     OW16138   2.789   2.370   2.764
 5193SOL    HW116139   2.765   2.362   2.672
 5193SOL    HW216140   2.822   2.283   2.788
 5194SOL     OW16141   2.447   1.925   2.336
 5194SOL    HW116142   2.373   1.916   2.396
 5194SOL    HW216143   2.428   2.005   2.287
 5195SOL     OW16144   3.290   3.062   1.902
 5195SOL    HW116145   3.320   2.986   1.953
 5195SOL    HW216146   3.204   3.082   1.940
 5196SOL     OW16147   2.807   2.113   2.319
 5196SOL    HW116148   2.780   2.152   2.236
 5196SOL    HW216149   2.901   2.129   2.324
 5197SOL     OW16150   2.943   2.545   3.321
 5197SOL    HW116151   2.877   2.476   3.325
 5197SOL    HW216152   3.026   2.498   3.315
 5198SOL     OW16153   3.083   3.432   2.656
 5198SOL    HW116154   3.099   3.500   2.590
 5198SOL    HW216155   3.153   3.445   2.720
 5199SOL     OW16156   2.333   3.013   2.592
 5199SOL    HW116157   2.265   2.994   2.656
 5199SOL    HW216158   2.291   2.998   2.507
 5200SOL     OW16159   3.128   3.657   2.470
 5200SOL    HW116160   3.174   3.721   2.417
 5200SOL    HW216161   3.055   3.705   2.509
 5201SOL     OW16162   2.885   2.401   1.886
 5201SOL    HW116163   2.842   2.484   1.867
 5201SOL    HW216164   2.950   2.422   1.953
 5202SOL     OW16165   1.939   2.424   3.248
 5202SOL    HW116166   2.033   2.420   3.227
 5202SOL    HW216167   1.933   2.490   3.317
 5203SOL     OW16168   2.416   2.082   3.034
 5203SOL    HW116169   2.468   2.006   3.059
 5203SOL    HW216170   2.332   2.071   3.079
 5204SOL     OW16171   2.726   2.319   2.501
 5204SOL    HW116172   2.685   2.375   2.436
 5204SOL    HW216173   2.751   2.240   2.453
 5205SOL     OW16174   2.874   1.916   2.613
 5205SOL    HW116175   2.820   1.905   2.535
 5205SOL    HW216176   2.854   1.840   2.668
 5206SOL     OW16177   3.301   3.024   2.719
 5206SOL    HW116178   3.230   2.959   2.718
 5206SOL    HW216179   3.326   3.033   2.627
 5207SOL     OW16180   3.327   2.470   2.835
 5207SOL    HW116181   3.275   2.390   2.838
 5207SOL    HW216182   3.386   2.463   2.910
 5208SOL     OW16183   3.723   2.678   2.237
 5208SOL    HW116184   3.767   2.623   2.301
 5208SOL    HW216185   3.686   2.617   2.173
 5209SOL     OW16186   2.352   3.281   2.015
 5209SOL    HW116187   2.277   3.253   2.068
 5209SOL    HW216188   2.340   3.237   1.931
 5210SOL     OW16189   3.529   3.127   2.506
 5210SOL    HW116190   3.624   3.129   2.515
 5210SOL    HW216191   3.501   3.216   2.527
 5211SOL     OW16192   3.256   2.434   1.933
 5211SOL    HW116193   3.194   2.414   2.004
 5211SOL    HW216194   3.340   2.402   1.966
 5212SOL     OW16195   2.385   2.130   2.171
 5212SOL    HW116196   2.430   2.082   2.102
 5212SOL    HW216197   2.361   2.214   2.130
 5213SOL     OW16198   3.613   3.096   3.428
 5213SOL    HW116199   3.700   3.061   3.411
 5213SOL    HW216200   3.629   3.186   3.457
 5214SOL     OW16201   2.919   3.214   3.194
 5214SOL    HW116202   2.844   3.184   3.245
 5214SOL    HW216203   2.995   3.173   3.236
 5215SOL     OW16204   3.469   3.491   3.519
 5215SOL    HW116205   3.459   3.524   3.429
 5215SOL    HW216206   3.549   3.440   3.517
 5216SOL     OW16207   2.993   3.068   2.965
 5216SOL    HW116208   2.934   3.106   3.030
 5216SOL    HW216209   2.962   3.102   2.882
 5217SOL     OW16210   3.490   2.958   2.937
 5217SOL    HW116211   3.482   3.019   3.010
 5217SOL    HW216212   3.413   2.974   2.882
 5218SOL     OW16213   2.778   1.959   3.255
 5218SOL    HW116214   2.803   1.939   3.165
 5218SOL    HW216215   2.857   1.998   3.293
 5219SOL     OW16216   2.846   2.977   3.585
 5219SOL    HW116217   2.754   2.993   3.608
 5219SOL    HW216218   2.843   2.899   3.530
 5220SOL     OW16219   2.571   2.924   2.233
 5220SOL    HW116220   2.557   2.905   2.325
 5220SOL    HW216221   2.647   2.870   2.209
 5221SOL     OW16222   2.281   2.676   3.113
 5221SOL    HW116223   2.349   2.688   3.179
 5221SOL    HW216224   2.247   2.588   3.129
 5222SOL     OW16225   3.127   2.238   3.140
 5222SOL    HW116226   3.160   2.315   3.186
 5222SOL    HW216227   3.036   2.260   3.118
 5223SOL     OW16228   1.934   3.435   3.216
 5223SOL    HW116229   1.907   3.510   3.163
 5223SOL    HW216230   2.030   3.436   3.211
 5224SOL     OW16231   2.207   2.975   2.351
 5224SOL    HW116232   2.211   3.048   2.290
 5224SOL    HW216233   2.203   2.897   2.295
 5225SOL     OW16234   2.406   2.397   2.725
 5225SOL    HW116235   2.420   2.455   2.650
 5225SOL    HW216236   2.474   2.423   2.788
 5226SOL     OW16237   3.110   3.211   2.251
 5226SOL    HW116238   3.166   3.282   2.283
 5226SOL    HW216239   3.023   3.232   2.285
 5227SOL     OW16240   3.146   3.322   3.010
 5227SOL    HW116241   3.202   3.325   3.087
 5227SOL    HW216242   3.091   3.245   3.024
 5228SOL     OW16243   3.440   2.482   2.344
 5228SOL    HW116244   3.393   2.534   2.408
 5228SOL    HW216245   3.483   2.546   2.287
 5229SOL     OW16246   2.207   3.392   3.174
 5229SOL    HW116247   2.196   3.347   3.090
 5229SOL    HW216248   2.302   3.402   3.182
 5230SOL     OW16249   2.279   2.609   3.465
 5230SOL    HW116250   2.341   2.651   3.406
 5230SOL    HW216251   2.322   2.528   3.492
 5231SOL     OW16252   3.466   2.641   3.545
 5231SOL    HW116253   3.381   2.683   3.539
 5231SOL    HW216254   3.519   2.684   3.477
 5232SOL     OW16255   2.857   1.990   3.614
 5232SOL    HW116256   2.916   2.062   3.591
 5232SOL    HW216257   2.905   1.911   3.590
 5233SOL     OW16258   2.372   1.894   3.611
 5233SOL    HW116259   2.324   1.839   3.549
 5233SOL    HW216260   2.314   1.968   3.627
 5234SOL     OW16261   2.447   2.735   2.895
 5234SOL    HW116262   2.479   2.825   2.893
 5234SOL    HW216263   2.390   2.730   2.971
 5235SOL     OW16264   3.216   2.721   2.888
 5235SOL    HW116265   3.132   2.709   2.844
 5235SOL    HW216266   3.260   2.636   2.881
 5236SOL     OW16267   3.064   2.390   2.126
 5236SOL    HW116268   3.073   2.312   2.181
 5236SOL    HW216269   3.021   2.454   2.183
 5237SOL     OW16270   1.908   3.173   3.137
 5237SOL    HW116271   1.941   3.118   3.209
 5237SOL    HW216272   1.914   3.262   3.171
 5238SOL     OW16273   2.582   2.489   2.916
 5238SOL    HW116274   2.659   2.475   2.862
 5238SOL    HW216275   2.556   2.580   2.899
 5239SOL     OW16276   3.593   2.821   3.723
 5239SOL    HW116277   3.552   2.757   3.665
 5239SOL    HW216278   3.529   2.835   3.793
 5240SOL     OW16279   2.223   1.901   2.473
 5240SOL    HW116280   2.147   1.954   2.452
 5240SOL    HW216281   2.209   1.872   2.563
 5241SOL     OW16282   3.481   2.238   2.226
 5241SOL    HW116283   3.508   2.173   2.291
 5241SOL    HW216284   3.458   2.315   2.278
 5242SOL     OW16285   2.889   2.620   2.821
 5242SOL    HW116286   2.884   2.637   2.915
 5242SOL    HW216287   2.864   2.528   2.812
 5243SOL     OW16288   2.847   3.430   3.582
 5243SOL    HW116289   2.829   3.471   3.498
 5243SOL    HW216290   2.889   3.347   3.560
 5244SOL     OW16291   3.705   3.361   3.460
 5244SOL    HW116292   3.729   3.390   3.372
 5244SOL    HW216293   3.785   3.371   3.511
 5245SOL     OW16294   2.216   2.782   3.671
 5245SOL    HW116295   2.297   2.799   3.718
 5245SOL    HW216296   2.240   2.718   3.603
 5246SOL     OW16297   3.391   2.134   1.989
 5246SOL    HW116298   3.326   2.069   2.016
 5246SOL    HW216299   3.424   2.170   2.071
 5247SOL     OW16300   3.151   2.687   1.891
 5247SOL    HW116301   3.195   2.602   1.896
 5247SOL    HW216302   3.183   2.726   1.811
 5248SOL     OW16303   2.929   3.199   2.717
 5248SOL    HW116304   2.933   3.126   2.654
 5248SOL    HW216305   2.989   3.264   2.682
 5249SOL     OW16306   2.172   2.673   2.809
 5249SOL    HW116307   2.264   2.695   2.798
 5249SOL    HW216308   2.172   2.586   2.847
 5250SOL     OW16309   2.185   2.360   2.874
 5250SOL    HW116310   2.143   2.289   2.826
 5250SOL    HW216311   2.265   2.379   2.825
 5251SOL     OW16312   2.996   2.237   3.545
 5251SOL    HW116313   2.948   2.291   3.608
 5251SOL    HW216314   3.083   2.275   3.542
 5252SOL     OW16315   3.021   2.063   3.332
 5252SOL    HW116316   3.011   2.126   3.404
 5252SOL    HW216317   3.064   2.113   3.263
 5253SOL     OW16318   1.867   3.181   2.057
 5253SOL    HW116319   1.780   3.196   2.020
 5253SOL    HW216320   1.864   3.092   2.091
 5254SOL     OW16321   1.959   3.641   2.800
 5254SOL    HW116322   1.927   3.562   2.755
 5254SOL    HW216323   2.044   3.659   2.760
 5255SOL     OW16324   2.356   3.438   2.767
 5255SOL    HW116325   2.423   3.501   2.792
 5255SOL    HW216326   2.401   3.375   2.710
 5256SOL     OW16327   2.841   2.651   3.087
 5256SOL    HW116328   2.900   2.631   3.159
 5256SOL    HW216329   2.756   2.616   3.116
 5257SOL     OW16330   1.899   2.399   2.980
 5257SOL    HW116331   1.984   2.401   2.934
 5257SOL    HW216332   1.921   2.413   3.072
 5258SOL     OW16333   2.061   2.390   3.586
 5258SOL    HW116334   2.122   2.356   3.520
 5258SOL    HW216335   2.016   2.462   3.542
 5259SOL     OW16336   3.241   2.799   3.520
 5259SOL    HW116337   3.262   2.892   3.517
 5259SOL    HW216338   3.237   2.772   3.428
 5260SOL     OW16339   2.678   2.432   2.227
 5260SOL    HW116340   2.683   2.358   2.166
 5260SOL    HW216341   2.605   2.484   2.195
 5261SOL     OW16342   3.502   2.463   3.046
 5261SOL    HW116343   3.491   2.403   3.119
 5261SOL    HW216344   3.588   2.442   3.010
 5262SOL     OW16345   2.104   3.411   3.587
 5262SOL    HW116346   2.081   3.477   3.652
 5262SOL    HW216347   2.108   3.329   3.636
 5263SOL     OW16348   2.563   2.310   3.120
 5263SOL    HW116349   2.510   2.236   3.089
 5263SOL    HW216350   2.559   2.373   3.048
 5264SOL     OW16351   2.789   3.534   3.331
 5264SOL    HW116352   2.763   3.496   3.247
 5264SOL    HW216353   2.780   3.628   3.318
 5265SOL     OW16354   2.325   2.361   2.051
 5265SOL    HW116355   2.382   2.434   2.073
 5265SOL    HW216356   2.240   2.402   2.033
 5266SOL     OW16357   2.007   3.004   3.335
 5266SOL    HW116358   2.007   2.954   3.417
 5266SOL    HW216359   2.024   2.939   3.267
 5267SOL     OW16360   3.184   2.907   3.084
 5267SOL    HW116361   3.207   2.844   3.016
 5267SOL    HW216362   3.116   2.961   3.044
 5268SOL     OW16363   3.175   2.718   2.167
 5268SOL    HW116364   3.100   2.687   2.218
 5268SOL    HW216365   3.149   2.704   2.076
 5269SOL     OW16366   3.639   3.603   3.017
 5269SOL    HW116367   3.697   3.629   2.945
 5269SOL    HW216368   3.612   3.514   2.994
 5270SOL     OW16369   3.106   3.595   2.971
 5270SOL    HW116370   3.189   3.616   2.928
 5270SOL    HW216371   3.112   3.502   2.991
 5271SOL     OW16372   1.947   3.128   2.873
 5271SOL    HW116373   1.932   3.142   2.967
 5271SOL    HW216374   1.874   3.074   2.845
 5272SOL     OW16375   2.541   3.527   3.595
 5272SOL    HW116376   2.484   3.604   3.599
 5272SOL    HW216377   2.601   3.545   3.523
 5273SOL     OW16378   3.572   2.012   2.374
 5273SOL    HW116379   3.640   2.000   2.308
 5273SOL    HW216380   3.561   1.926   2.413
 5274SOL     OW16381   3.252   3.430   2.349
 5274SOL    HW116382   3.311   3.464   2.282
 5274SOL    HW216383   3.204   3.508   2.380
 5275SOL     OW16384   1.996   3.652   3.701
 5275SOL    HW116385   1.944   3.588   3.749
 5275SOL    HW216386   2.045   3.700   3.768
 5276SOL     OW16387   3.139   2.788   2.533
 5276SOL    HW116388   3.213   2.728   2.542
 5276SOL    HW216389   3.173   2.860   2.480
 5277SOL     OW16390   2.672   3.136   3.290
 5277SOL    HW116391   2.644   3.176   3.372
 5277SOL    HW216392   2.603   3.159   3.227
 5278SOL     OW16393   2.537   3.479   2.020
 5278SOL    HW116394   2.546   3.497   1.926
 5278SOL    HW216395   2.478   3.404   2.024
 5279SOL     OW16396   3.481   3.589   3.252
 5279SOL    HW116397   3.537   3.592   3.174
 5279SOL    HW216398   3.469   3.680   3.277
 5280SOL     OW16399   3.700   2.043   2.829
 5280SOL    HW116400   3.731   1.956   2.804
 5280SOL    HW216401   3.614   2.051   2.788
 5281SOL     OW16402   3.069   3.466   1.898
 5281SOL    HW116403   3.059   3.374   1.922
 5281SOL    HW216404   3.008   3.479   1.825
 5282SOL     OW16405   2.686   2.868   3.235
 5282SOL    HW116406   2.730   2.864   3.150
 5282SOL    HW216407   2.684   2.961   3.256
 5283SOL     OW16408   2.779   2.773   2.153
 5283SOL    HW116409   2.839   2.805   2.086
 5283SOL    HW216410   2.828   2.704   2.198
 5284SOL     OW16411   3.350   3.494   1.904
 5284SOL    HW116412   3.256   3.481   1.888
 5284SOL    HW216413   3.389   3.498   1.817
 5285SOL     OW16414   2.231   3.166   3.353
 5285SOL    HW116415   2.217   3.243   3.298
 5285SOL    HW216416   2.154   3.111   3.338
 5286SOL     OW16417   3.463   3.141   3.139
 5286SOL    HW116418   3.531   3.133   3.206
 5286SOL    HW216419   3.406   3.211   3.172
 5287SOL     OW16420   2.918   2.970   2.570
 5287SOL    HW116421   2.846   2.920   2.608
 5287SOL    HW216422   2.981   2.905   2.541
 5288SOL     OW16423   2.883   2.102   2.828
 5288SOL    HW116424   2.879   2.055   2.745
 5288SOL    HW216425   2.879   2.034   2.895
 5289SOL     OW16426   2.467   3.353   2.342
 5289SOL    HW116427   2.512   3.302   2.275
 5289SOL    HW216428   2.397   3.398   2.294
 5290SOL     OW16429   3.586   2.251   3.240
 5290SOL    HW116430   3.658   2.315   3.237
 5290SOL    HW216431   3.615   2.180   3.184
 5291SOL     OW16432   2.122   3.205   2.152
 5291SOL    HW116433   2.030   3.202   2.129
 5291SOL    HW216434   2.124   3.244   2.240
 5292SOL     OW16435   1.975   2.888   3.583
 5292SOL    HW116436   1.898   2.863   3.635
 5292SOL    HW216437   2.049   2.849   3.629
 5293SOL     OW16438   2.536   2.059   3.362
 5293SOL    HW116439   2.619   2.038   3.320
 5293SOL    HW216440   2.560   2.090   3.449
 5294SOL     OW16441   1.898   2.282   1.928
 5294SOL    HW116442   1.859   2.199   1.902
 5294SOL    HW216443   1.946   2.312   1.851
 5295SOL     OW16444   3.288   2.720   3.261
 5295SOL    HW116445   3.239   2.782   3.207
 5295SOL    HW216446   3.377   2.722   3.224
 5296SOL     OW16447   3.040   3.199   1.979
 5296SOL    HW116448   2.949   3.170   1.981
 5296SOL    HW216449   3.067   3.199   2.071
 5297SOL     OW16450   2.482   2.692   3.295
 5297SOL    HW116451   2.537   2.769   3.281
 5297SOL    HW216452   2.543   2.619   3.303
 5298SOL     OW16453   3.347   3.643   2.844
 5298SOL    HW116454   3.371   3.697   2.769
 5298SOL    HW216455   3.431   3.612   2.879
 5299SOL     OW16456   2.579   2.423   3.562
 5299SOL    HW116457   2.621   2.485   3.622
 5299SOL    HW216458   2.601   2.337   3.598
 5300SOL     OW16459   3.335   3.060   3.492
 5300SOL    HW116460   3.324   3.074   3.586
 5300SOL    HW216461   3.428   3.075   3.476
 5301SOL     OW16462   2.237   3.602   3.427
 5301SOL    HW116463   2.152   3.644   3.411
 5301SOL    HW216464   2.215   3.519   3.468
 5302SOL     OW16465   3.527   2.742   3.121
 5302SOL    HW116466   3.525   2.657   3.077
 5302SOL    HW216467   3.520   2.806   3.049
 5303SOL     OW16468   3.079   2.182   2.319
 5303SOL    HW116469   3.142   2.109   2.312
 5303SOL    HW216470   3.108   2.231   2.396
 5304SOL     OW16471   2.447   2.597   2.536
 5304SOL    HW116472   2.489   2.682   2.521
 5304SOL    HW216473   2.383   2.589   2.465
 5305SOL     OW16474   3.621   2.228   3.512
 5305SOL    HW116475   3.604   2.241   3.419
 5305SOL    HW216476   3.551   2.169   3.541
 5306SOL     OW16477   3.618   2.790   3.375
 5306SOL    HW116478   3.609   2.884   3.393
 5306SOL    HW216479   3.594   2.781   3.283
 5307SOL     OW16480   2.726   3.229   1.901
 5307SOL    HW116481   2.685   3.257   1.983
 5307SOL    HW216482   2.741   3.310   1.853
 5308SOL     OW16483   2.522   3.651   2.802
 5308SOL    HW116484   2.502   3.742   2.780
 5308SOL    HW216485   2.618   3.646   2.796
 5309SOL     OW16486   2.730   2.831   2.717
 5309SOL    HW116487   2.780   2.759   2.755
 5309SOL    HW216488   2.694   2.878   2.792
 5310SOL     OW16489   2.940   2.850   1.951
 5310SOL    HW116490   2.919   2.902   1.873
 5310SOL    HW216491   3.015   2.796   1.924
 5311SOL     OW16492   3.712   3.417   2.702
 5311SOL    HW116493   3.633   3.397   2.653
 5311SOL    HW216494   3.715   3.349   2.770
 5312SOL     OW16495   2.088   3.163   3.717
 5312SOL    HW116496   2.022   3.101   3.687
 5312SOL    HW216497   2.068   3.175   3.810
 5313SOL     OW16498   1.948   3.094   2.527
 5313SOL    HW116499   1.955   3.047   2.610
 5313SOL    HW216500   2.014   3.054   2.471
 5314SOL     OW16501   2.545   3.266   3.492
 5314SOL    HW116502   2.465   3.224   3.523
 5314SOL    HW216503   2.542   3.355   3.529
 5315SOL     OW16504   3.674   2.040   3.100
 5315SOL    HW116505   3.667   1.945   3.103
 5315SOL    HW216506   3.689   2.060   3.008
 5316SOL     OW16507   2.292   2.291   2.384
 5316SOL    HW116508   2.326   2.233   2.317
 5316SOL    HW216509   2.250   2.232   2.447
 5317SOL     OW16510   3.558   3.352   2.958
 5317SOL    HW116511   3.479   3.327   2.909
 5317SOL    HW216512   3.570   3.281   3.021
 5318SOL     OW16513   2.194   2.417   3.151
 5318SOL    HW116514   2.239   2.356   3.210
 5318SOL    HW216515   2.210   2.382   3.063
 5319SOL     OW16516   2.690   3.440   2.539
 5319SOL    HW116517   2.673   3.492   2.460
 5319SOL    HW216518   2.616   3.380   2.545
 5320SOL     OW16519   3.292   2.090   2.979
 5320SOL    HW116520   3.314   2.007   3.022
 5320SOL    HW216521   3.242   2.138   3.044
 5321SOL     OW16522   2.870   1.879   3.001
 5321SOL    HW116523   2.817   1.811   2.959
 5321SOL    HW216524   2.958   1.841   3.004
 5322SOL     OW16525   2.635   3.195   2.181
 5322SOL    HW116526   2.605   3.104   2.187
 5322SOL    HW216527   2.717   3.196   2.229
 5323SOL     OW16528   2.482   3.415   3.147
 5323SOL    HW116529   2.483   3.497   3.197
 5323SOL    HW216530   2.570   3.409   3.110
 5324SOL     OW16531   3.216   1.915   2.029
 5324SOL    HW116532   3.247   1.847   1.970
 5324SOL    HW216533   3.128   1.888   2.053
 5325SOL     OW16534   3.157   2.324   2.541
 5325SOL    HW116535   3.105   2.404   2.548
 5325SOL    HW216536   3.153   2.286   2.629
 5326SOL     OW16537   3.444   2.060   2.740
 5326SOL    HW116538   3.388   2.084   2.814
 5326SOL    HW216539   3.445   2.139   2.684
 5327SOL     OW16540   1.906   2.931   2.169
 5327SOL    HW116541   1.999   2.923   2.150
 5327SOL    HW216542   1.877   2.843   2.192
 5328SOL     OW16543   2.748   3.521   2.205
 5328SOL    HW116544   2.677   3.501   2.144
 5328SOL    HW216545   2.717   3.596   2.255
 5329SOL     OW16546   2.093   2.493   3.846
 5329SOL    HW116547   2.008   2.466   3.881
 5329SOL    HW216548   2.092   2.466   3.755
 5330SOL     OW16549   1.866   2.291   4.350
 5330SOL    HW116550   1.777   2.286   4.384
 5330SOL    HW216551   1.873   2.215   4.291
 5331SOL     OW16552   2.429   3.154   4.902
 5331SOL    HW116553   2.342   3.159   4.862
 5331SOL    HW216554   2.445   3.242   4.936
 5332SOL     OW16555   3.425   3.374   4.433
 5332SOL    HW116556   3.383   3.351   4.516
 5332SOL    HW216557   3.354   3.377   4.369
 5333SOL     OW16558   2.992   2.560   4.422
 5333SOL    HW116559   3.041   2.641   4.409
 5333SOL    HW216560   2.946   2.574   4.505
 5334SOL     OW16561   3.629   2.468   3.953
 5334SOL    HW116562   3.609   2.460   3.860
 5334SOL    HW216563   3.595   2.388   3.992
 5335SOL     OW16564   2.613   3.002   4.767
 5335SOL    HW116565   2.545   3.038   4.825
 5335SOL    HW216566   2.650   3.078   4.723
 5336SOL     OW16567   2.731   2.632   5.548
 5336SOL    HW116568   2.723   2.703   5.612
 5336SOL    HW216569   2.754   2.676   5.466
 5337SOL     OW16570   2.548   2.861   4.369
 5337SOL    HW116571   2.613   2.852   4.439
 5337SOL    HW216572   2.479   2.915   4.408
 5338SOL     OW16573   2.574   3.012   5.539
 5338SOL    HW116574   2.622   3.090   5.568
 5338SOL    HW216575   2.493   3.046   5.502
 5339SOL     OW16576   2.193   3.283   4.791
 5339SOL    HW116577   2.119   3.246   4.742
 5339SOL    HW216578   2.240   3.336   4.726
 5340SOL     OW16579   3.321   3.363   5.081
 5340SOL    HW116580   3.375   3.441   5.091
 5340SOL    HW216581   3.255   3.370   5.150
 5341SOL     OW16582   2.285   2.233   5.196
 5341SOL    HW116583   2.374   2.201   5.213
 5341SOL    HW216584   2.229   2.156   5.205
 5342SOL     OW16585   3.472   2.308   4.468
 5342SOL    HW116586   3.399   2.330   4.409
 5342SOL    HW216587   3.484   2.386   4.522
 5343SOL     OW16588   2.083   3.578   4.203
 5343SOL    HW116589   2.114   3.638   4.271
 5343SOL    HW216590   2.155   3.575   4.139
 5344SOL     OW16591   2.999   3.204   5.418
 5344SOL    HW116592   3.040   3.197   5.504
 5344SOL    HW216593   2.947   3.124   5.410
 5345SOL     OW16594   2.092   3.304   4.260
 5345SOL    HW116595   2.073   3.398   4.264
 5345SOL    HW216596   2.033   3.265   4.325
 5346SOL     OW16597   2.123   2.954   4.615
 5346SOL    HW116598   2.119   2.867   4.655
 5346SOL    HW216599   2.065   3.008   4.669
 5347SOL     OW16600   2.470   3.648   5.152
 5347SOL    HW116601   2.389   3.633   5.200
 5347SOL    HW216602   2.496   3.737   5.177
 5348SOL     OW16603   2.445   2.845   3.860
 5348SOL    HW116604   2.492   2.892   3.791
 5348SOL    HW216605   2.483   2.877   3.942
 5349SOL     OW16606   3.457   1.988   5.190
 5349SOL    HW116607   3.471   2.069   5.142
 5349SOL    HW216608   3.442   2.015   5.280
 5350SOL     OW16609   1.986   2.527   4.284
 5350SOL    HW116610   1.950   2.441   4.304
 5350SOL    HW216611   1.975   2.577   4.365
 5351SOL     OW16612   3.700   3.613   4.065
 5351SOL    HW116613   3.771   3.588   4.125
 5351SOL    HW216614   3.719   3.704   4.042
 5352SOL     OW16615   1.892   3.453   3.846
 5352SOL    HW116616   1.877   3.361   3.867
 5352SOL    HW216617   1.871   3.500   3.926
 5353SOL     OW16618   3.550   2.782   4.370
 5353SOL    HW116619   3.633   2.738   4.352
 5353SOL    HW216620   3.531   2.831   4.290
 5354SOL     OW16621   3.503   2.966   4.155
 5354SOL    HW116622   3.588   2.971   4.112
 5354SOL    HW216623   3.510   3.029   4.227
 5355SOL     OW16624   1.984   2.609   5.306
 5355SOL    HW116625   2.076   2.638   5.313
 5355SOL    HW216626   1.933   2.690   5.314
 5356SOL     OW16627   2.477   3.251   4.459
 5356SOL    HW116628   2.432   3.167   4.468
 5356SOL    HW216629   2.460   3.278   4.368
 5357SOL     OW16630   3.149   3.099   5.146
 5357SOL    HW116631   3.181   3.032   5.086
 5357SOL    HW216632   3.208   3.094   5.222
 5358SOL     OW16633   2.703   1.863   4.242
 5358SOL    HW116634   2.744   1.946   4.217
 5358SOL    HW216635   2.609   1.880   4.236
 5359SOL     OW16636   2.052   2.827   4.999
 5359SOL    HW116637   2.136   2.785   4.983
 5359SOL    HW216638   1.989   2.775   4.948
 5360SOL     OW16639   3.390   2.858   3.924
 5360SOL    HW116640   3.321   2.801   3.958
 5360SOL    HW216641   3.432   2.893   4.003
 5361SOL     OW16642   3.080   3.666   5.351
 5361SOL    HW116643   3.056   3.726   5.280
 5361SOL    HW216644   3.081   3.580   5.310
 5362SOL     OW16645   3.327   3.282   4.673
 5362SOL    HW116646   3.261   3.297   4.740
 5362SOL    HW216647   3.316   3.191   4.647
 5363SOL     OW16648   3.509   3.606   4.304
 5363SOL    HW116649   3.501   3.572   4.215
 5363SOL    HW216650   3.492   3.531   4.361
 5364SOL     OW16651   2.459   2.585   3.994
 5364SOL    HW116652   2.462   2.667   3.944
 5364SOL    HW216653   2.393   2.600   4.061
 5365SOL     OW16654   3.139   2.220   4.657
 5365SOL    HW116655   3.051   2.185   4.666
 5365SOL    HW216656   3.192   2.166   4.717
 5366SOL     OW16657   3.436   3.538   4.032
 5366SOL    HW116658   3.528   3.562   4.028
 5366SOL    HW216659   3.412   3.518   3.942
 5367SOL     OW16660   2.655   2.481   5.170
 5367SOL    HW116661   2.632   2.456   5.260
 5367SOL    HW216662   2.616   2.412   5.116
 5368SOL     OW16663   3.256   2.336   5.402
 5368SOL    HW116664   3.258   2.380   5.487
 5368SOL    HW216665   3.314   2.261   5.413
 5369SOL     OW16666   2.814   2.748   5.308
 5369SOL    HW116667   2.869   2.679   5.272
 5369SOL    HW216668   2.766   2.783   5.233
 5370SOL     OW16669   2.856   2.275   4.960
 5370SOL    HW116670   2.769   2.294   4.996
 5370SOL    HW216671   2.838   2.229   4.878
 5371SOL     OW16672   2.914   2.560   4.149
 5371SOL    HW116673   2.931   2.554   4.243
 5371SOL    HW216674   2.831   2.515   4.136
 5372SOL     OW16675   1.950   2.686   4.503
 5372SOL    HW116676   2.031   2.681   4.554
 5372SOL    HW216677   1.906   2.763   4.537
 5373SOL     OW16678   1.983   3.708   5.300
 5373SOL    HW116679   1.986   3.688   5.394
 5373SOL    HW216680   1.890   3.704   5.278
 5374SOL     OW16681   2.759   2.213   3.920
 5374SOL    HW116682   2.800   2.274   3.859
 5374SOL    HW216683   2.766   2.128   3.877
 5375SOL     OW16684   3.572   2.435   5.552
 5375SOL    HW116685   3.533   2.509   5.504
 5375SOL    HW216686   3.596   2.372   5.485
 5376SOL     OW16687   3.239   3.003   4.264
 5376SOL    HW116688   3.319   2.991   4.213
 5376SOL    HW216689   3.187   3.066   4.213
 5377SOL     OW16690   2.409   2.051   4.620
 5377SOL    HW116691   2.410   2.075   4.712
 5377SOL    HW216692   2.428   2.132   4.573
 5378SOL     OW16693   2.866   3.307   4.195
 5378SOL    HW116694   2.829   3.381   4.146
 5378SOL    HW216695   2.845   3.326   4.286
 5379SOL     OW16696   2.213   3.673   4.563
 5379SOL    HW116697   2.263   3.594   4.582
 5379SOL    HW216698   2.273   3.745   4.586
 5380SOL     OW16699   3.667   2.923   4.591
 5380SOL    HW116700   3.614   2.897   4.516
 5380SOL    HW216701   3.605   2.926   4.664
 5381SOL     OW16702   3.089   3.399   5.236
 5381SOL    HW116703   3.076   3.327   5.297
 5381SOL    HW216704   3.022   3.386   5.169
 5382SOL     OW16705   2.179   2.819   3.976
 5382SOL    HW116706   2.260   2.838   3.929
 5382SOL    HW216707   2.147   2.737   3.939
 5383SOL     OW16708   3.342   2.608   4.449
 5383SOL    HW116709   3.336   2.566   4.535
 5383SOL    HW216710   3.420   2.663   4.455
 5384SOL     OW16711   2.330   3.128   5.461
 5384SOL    HW116712   2.303   3.133   5.369
 5384SOL    HW216713   2.247   3.126   5.510
 5385SOL     OW16714   2.976   3.643   3.946
 5385SOL    HW116715   2.912   3.597   4.000
 5385SOL    HW216716   3.006   3.577   3.883
 5386SOL     OW16717   3.486   3.247   3.813
 5386SOL    HW116718   3.443   3.330   3.795
 5386SOL    HW216719   3.420   3.181   3.793
 5387SOL     OW16720   2.329   3.597   4.049
 5387SOL    HW116721   2.367   3.662   4.108
 5387SOL    HW216722   2.402   3.571   3.992
 5388SOL     OW16723   3.263   1.969   4.160
 5388SOL    HW116724   3.256   1.944   4.068
 5388SOL    HW216725   3.357   1.975   4.176
 5389SOL     OW16726   2.122   3.653   4.947
 5389SOL    HW116727   2.169   3.584   4.993
 5389SOL    HW216728   2.107   3.619   4.859
 5390SOL     OW16729   2.800   3.563   4.623
 5390SOL    HW116730   2.877   3.511   4.646
 5390SOL    HW216731   2.756   3.513   4.554
 5391SOL     OW16732   2.258   2.556   4.199
 5391SOL    HW116733   2.275   2.463   4.209
 5391SOL    HW216734   2.164   2.566   4.216
 5392SOL     OW16735   3.395   2.087   5.449
 5392SOL    HW116736   3.405   2.107   5.542
 5392SOL    HW216737   3.327   2.020   5.447
 5393SOL     OW16738   2.511   1.985   3.829
 5393SOL    HW116739   2.571   1.916   3.857
 5393SOL    HW216740   2.462   1.946   3.756
 5394SOL     OW16741   2.628   2.143   5.475
 5394SOL    HW116742   2.707   2.088   5.473
 5394SOL    HW216743   2.581   2.114   5.553
 5395SOL     OW16744   2.738   3.383   4.919
 5395SOL    HW116745   2.721   3.347   4.832
 5395SOL    HW216746   2.808   3.328   4.954
 5396SOL     OW16747   3.202   2.451   5.157
 5396SOL    HW116748   3.233   2.420   5.242
 5396SOL    HW216749   3.238   2.539   5.149
 5397SOL     OW16750   2.679   3.254   4.667
 5397SOL    HW116751   2.763   3.242   4.623
 5397SOL    HW216752   2.615   3.258   4.595
 5398SOL     OW16753   2.789   2.370   4.626
 5398SOL    HW116754   2.765   2.362   4.534
 5398SOL    HW216755   2.822   2.283   4.650
 5399SOL     OW16756   2.448   1.925   4.198
 5399SOL    HW116757   2.373   1.914   4.256
 5399SOL    HW216758   2.429   2.005   4.149
 5400SOL     OW16759   3.290   3.062   3.764
 5400SOL    HW116760   3.320   2.986   3.815
 5400SOL    HW216761   3.204   3.082   3.802
 5401SOL     OW16762   2.807   2.113   4.181
 5401SOL    HW116763   2.780   2.152   4.098
 5401SOL    HW216764   2.901   2.129   4.185
 5402SOL     OW16765   2.943   2.545   5.183
 5402SOL    HW116766   2.877   2.476   5.189
 5402SOL    HW216767   3.026   2.497   5.177
 5403SOL     OW16768   3.083   3.432   4.518
 5403SOL    HW116769   3.099   3.500   4.452
 5403SOL    HW216770   3.153   3.445   4.582
 5404SOL     OW16771   2.333   3.013   4.454
 5404SOL    HW116772   2.264   2.994   4.518
 5404SOL    HW216773   2.291   2.998   4.369
 5405SOL     OW16774   3.128   3.657   4.332
 5405SOL    HW116775   3.174   3.721   4.279
 5405SOL    HW216776   3.055   3.705   4.371
 5406SOL     OW16777   2.885   2.401   3.748
 5406SOL    HW116778   2.842   2.484   3.729
 5406SOL    HW216779   2.950   2.422   3.815
 5407SOL     OW16780   1.939   2.424   5.111
 5407SOL    HW116781   2.033   2.420   5.089
 5407SOL    HW216782   1.934   2.491   5.179
 5408SOL     OW16783   2.415   2.082   4.896
 5408SOL    HW116784   2.467   2.006   4.921
 5408SOL    HW216785   2.332   2.071   4.942
 5409SOL     OW16786   2.726   2.319   4.363
 5409SOL    HW116787   2.685   2.375   4.297
 5409SOL    HW216788   2.751   2.240   4.315
 5410SOL     OW16789   2.875   1.916   4.475
 5410SOL    HW116790   2.820   1.905   4.397
 5410SOL    HW216791   2.854   1.840   4.530
 5411SOL     OW16792   3.301   3.024   4.581
 5411SOL    HW116793   3.231   2.959   4.580
 5411SOL    HW216794   3.326   3.033   4.489
 5412SOL     OW16795   3.327   2.470   4.697
 5412SOL    HW116796   3.275   2.390   4.700
 5412SOL    HW216797   3.386   2.463   4.772
 5413SOL     OW16798   3.723   2.678   4.099
 5413SOL    HW116799   3.767   2.623   4.163
 5413SOL    HW216800   3.686   2.617   4.035
 5414SOL     OW16801   2.352   3.281   3.877
 5414SOL    HW116802   2.277   3.253   3.930
 5414SOL    HW216803   2.340   3.237   3.793
 5415SOL     OW16804   3.529   3.127   4.367
 5415SOL    HW116805   3.624   3.129   4.377
 5415SOL    HW216806   3.501   3.216   4.389
 5416SOL     OW16807   3.256   2.434   3.795
 5416SOL    HW116808   3.194   2.414   3.866
 5416SOL    HW216809   3.340   2.402   3.828
 5417SOL     OW16810   2.384   2.130   4.033
 5417SOL    HW116811   2.430   2.082   3.964
 5417SOL    HW216812   2.361   2.213   3.992
 5418SOL     OW16813   3.613   3.097   5.289
 5418SOL    HW116814   3.700   3.061   5.272
 5418SOL    HW216815   3.629   3.186   5.319
 5419SOL     OW16816   2.919   3.214   5.056
 5419SOL    HW116817   2.844   3.184   5.107
 5419SOL    HW216818   2.995   3.174   5.098
 5420SOL     OW16819   3.469   3.491   5.381
 5420SOL    HW116820   3.459   3.524   5.291
 5420SOL    HW216821   3.549   3.440   5.379
 5421SOL     OW16822   2.993   3.068   4.827
 5421SOL    HW116823   2.934   3.106   4.892
 5421SOL    HW216824   2.962   3.102   4.744
 5422SOL     OW16825   3.491   2.958   4.799
 5422SOL    HW116826   3.482   3.019   4.872
 5422SOL    HW216827   3.413   2.974   4.745
 5423SOL     OW16828   2.778   1.959   5.117
 5423SOL    HW116829   2.803   1.939   5.027
 5423SOL    HW216830   2.857   1.997   5.155
 5424SOL     OW16831   2.846   2.977   5.446
 5424SOL    HW116832   2.754   2.993   5.469
 5424SOL    HW216833   2.844   2.899   5.392
 5425SOL     OW16834   2.571   2.924   4.095
 5425SOL    HW116835   2.557   2.905   4.187
 5425SOL    HW216836   2.647   2.870   4.071
 5426SOL     OW16837   2.281   2.676   4.975
 5426SOL    HW116838   2.349   2.688   5.042
 5426SOL    HW216839   2.247   2.588   4.991
 5427SOL     OW16840   3.127   2.238   5.002
 5427SOL    HW116841   3.160   2.315   5.048
 5427SOL    HW216842   3.036   2.260   4.980
 5428SOL     OW16843   1.934   3.435   5.077
 5428SOL    HW116844   1.907   3.510   5.025
 5428SOL    HW216845   2.030   3.437   5.073
 5429SOL     OW16846   2.207   2.975   4.213
 5429SOL    HW116847   2.211   3.048   4.152
 5429SOL    HW216848   2.203   2.897   4.157
 5430SOL     OW16849   2.406   2.397   4.587
 5430SOL    HW116850   2.420   2.455   4.511
 5430SOL    HW216851   2.474   2.423   4.649
 5431SOL     OW16852   3.110   3.211   4.113
 5431SOL    HW116853   3.166   3.282   4.145
 5431SOL    HW216854   3.023   3.232   4.147
 5432SOL     OW16855   3.146   3.322   4.872
 5432SOL    HW116856   3.202   3.325   4.949
 5432SOL    HW216857   3.091   3.245   4.886
 5433SOL     OW16858   3.440   2.482   4.206
 5433SOL    HW116859   3.393   2.534   4.271
 5433SOL    HW216860   3.483   2.546   4.149
 5434SOL     OW16861   2.207   3.391   5.036
 5434SOL    HW116862   2.196   3.347   4.952
 5434SOL    HW216863   2.302   3.402   5.044
 5435SOL     OW16864   2.279   2.608   5.328
 5435SOL    HW116865   2.340   2.650   5.269
 5435SOL    HW216866   2.324   2.528   5.357
 5436SOL     OW16867   3.466   2.640   5.407
 5436SOL    HW116868   3.381   2.683   5.402
 5436SOL    HW216869   3.519   2.684   5.339
 5437SOL     OW16870   2.857   1.990   5.472
 5437SOL    HW116871   2.917   2.062   5.453
 5437SOL    HW216872   2.907   1.911   5.450
 5438SOL     OW16873   2.372   1.891   5.473
 5438SOL    HW116874   2.321   1.837   5.411
 5438SOL    HW216875   2.317   1.968   5.488
 5439SOL     OW16876   2.447   2.735   4.757
 5439SOL    HW116877   2.479   2.825   4.755
 5439SOL    HW216878   2.390   2.731   4.833
 5440SOL     OW16879   3.216   2.721   4.750
 5440SOL    HW116880   3.132   2.708   4.706
 5440SOL    HW216881   3.260   2.636   4.743
 5441SOL     OW16882   3.064   2.390   3.988
 5441SOL    HW116883   3.073   2.312   4.043
 5441SOL    HW216884   3.021   2.454   4.045
 5442SOL     OW16885   1.907   3.173   5.000
 5442SOL    HW116886   1.940   3.118   5.071
 5442SOL    HW216887   1.914   3.262   5.033
 5443SOL     OW16888   2.581   2.489   4.778
 5443SOL    HW116889   2.659   2.475   4.724
 5443SOL    HW216890   2.556   2.580   4.761
 5444SOL     OW16891   3.592   2.822   5.584
 5444SOL    HW116892   3.552   2.756   5.527
 5444SOL    HW216893   3.529   2.835   5.655
 5445SOL     OW16894   2.223   1.896   4.331
 5445SOL    HW116895   2.148   1.952   4.310
 5445SOL    HW216896   2.209   1.870   4.422
 5446SOL     OW16897   3.481   2.238   4.088
 5446SOL    HW116898   3.508   2.173   4.153
 5446SOL    HW216899   3.458   2.316   4.140
 5447SOL     OW16900   2.889   2.620   4.683
 5447SOL    HW116901   2.884   2.637   4.777
 5447SOL    HW216902   2.864   2.528   4.674
 5448SOL     OW16903   2.847   3.430   5.444
 5448SOL    HW116904   2.829   3.471   5.360
 5448SOL    HW216905   2.889   3.347   5.422
 5449SOL     OW16906   3.705   3.361   5.322
 5449SOL    HW116907   3.729   3.390   5.234
 5449SOL    HW216908   3.785   3.371   5.373
 5450SOL     OW16909   2.215   2.780   5.534
 5450SOL    HW116910   2.297   2.799   5.580
 5450SOL    HW216911   2.240   2.718   5.465
 5451SOL     OW16912   3.391   2.134   3.851
 5451SOL    HW116913   3.326   2.069   3.878
 5451SOL    HW216914   3.424   2.170   3.933
 5452SOL     OW16915   3.151   2.687   3.753
 5452SOL    HW116916   3.195   2.602   3.758
 5452SOL    HW216917   3.183   2.726   3.673
 5453SOL     OW16918   2.928   3.199   4.579
 5453SOL    HW116919   2.933   3.126   4.516
 5453SOL    HW216920   2.989   3.264   4.544
 5454SOL     OW16921   2.172   2.673   4.671
 5454SOL    HW116922   2.264   2.695   4.661
 5454SOL    HW216923   2.172   2.585   4.709
 5455SOL     OW16924   2.185   2.361   4.735
 5455SOL    HW116925   2.143   2.290   4.687
 5455SOL    HW216926   2.265   2.380   4.687
 5456SOL     OW16927   2.996   2.237   5.407
 5456SOL    HW116928   2.948   2.290   5.470
 5456SOL    HW216929   3.083   2.276   5.404
 5457SOL     OW16930   3.022   2.063   5.194
 5457SOL    HW116931   3.011   2.125   5.266
 5457SOL    HW216932   3.064   2.113   5.125
 5458SOL     OW16933   1.867   3.181   3.919
 5458SOL    HW116934   1.780   3.196   3.882
 5458SOL    HW216935   1.864   3.092   3.953
 5459SOL     OW16936   1.959   3.641   4.662
 5459SOL    HW116937   1.927   3.562   4.617
 5459SOL    HW216938   2.044   3.659   4.622
 5460SOL     OW16939   2.356   3.438   4.629
 5460SOL    HW116940   2.423   3.501   4.654
 5460SOL    HW216941   2.401   3.375   4.572
 5461SOL     OW16942   2.840   2.651   4.949
 5461SOL    HW116943   2.900   2.631   5.021
 5461SOL    HW216944   2.756   2.616   4.978
 5462SOL     OW16945   1.900   2.399   4.842
 5462SOL    HW116946   1.984   2.401   4.796
 5462SOL    HW216947   1.922   2.413   4.934
 5463SOL     OW16948   2.059   2.391   5.449
 5463SOL    HW116949   2.125   2.357   5.388
 5463SOL    HW216950   2.016   2.461   5.401
 5464SOL     OW16951   3.241   2.799   5.382
 5464SOL    HW116952   3.262   2.892   5.379
 5464SOL    HW216953   3.237   2.772   5.290
 5465SOL     OW16954   2.678   2.432   4.089
 5465SOL    HW116955   2.683   2.358   4.028
 5465SOL    HW216956   2.605   2.484   4.057
 5466SOL     OW16957   3.502   2.464   4.907
 5466SOL    HW116958   3.491   2.403   4.981
 5466SOL    HW216959   3.588   2.442   4.872
 5467SOL     OW16960   2.104   3.411   5.448
 5467SOL    HW116961   2.082   3.478   5.514
 5467SOL    HW216962   2.108   3.329   5.498
 5468SOL     OW16963   2.562   2.310   4.981
 5468SOL    HW116964   2.510   2.235   4.951
 5468SOL    HW216965   2.559   2.373   4.910
 5469SOL     OW16966   2.789   3.534   5.193
 5469SOL    HW116967   2.763   3.496   5.109
 5469SOL    HW216968   2.780   3.628   5.180
 5470SOL     OW16969   2.325   2.361   3.913
 5470SOL    HW116970   2.382   2.434   3.935
 5470SOL    HW216971   2.240   2.402   3.895
 5471SOL     OW16972   2.006   3.004   5.198
 5471SOL    HW116973   2.007   2.954   5.279
 5471SOL    HW216974   2.023   2.939   5.129
 5472SOL     OW16975   3.184   2.907   4.946
 5472SOL    HW116976   3.208   2.844   4.877
 5472SOL    HW216977   3.116   2.961   4.906
 5473SOL     OW16978   3.175   2.718   4.029
 5473SOL    HW116979   3.100   2.687   4.080
 5473SOL    HW216980   3.149   2.704   3.938
 5474SOL     OW16981   3.639   3.603   4.878
 5474SOL    HW116982   3.697   3.629   4.807
 5474SOL    HW216983   3.612   3.514   4.856
 5475SOL     OW16984   3.106   3.595   4.833
 5475SOL    HW116985   3.189   3.616   4.790
 5475SOL    HW216986   3.112   3.502   4.853
 5476SOL     OW16987   1.947   3.128   4.735
 5476SOL    HW116988   1.931   3.142   4.829
 5476SOL    HW216989   1.874   3.074   4.707
 5477SOL     OW16990   2.541   3.526   5.457
 5477SOL    HW116991   2.484   3.604   5.461
 5477SOL    HW216992   2.602   3.545   5.385
 5478SOL     OW16993   3.572   2.012   4.236
 5478SOL    HW116994   3.640   2.000   4.170
 5478SOL    HW216995   3.561   1.926   4.275
 5479SOL     OW16996   3.252   3.430   4.211
 5479SOL    HW116997   3.311   3.464   4.144
 5479SOL    HW216998   3.204   3.508   4.242
 5480SOL     OW16999   1.997   3.653   5.562
 5480SOL    HW117000   1.945   3.589   5.611
 5480SOL    HW217001   2.045   3.700   5.630
 5481SOL     OW17002   3.139   2.788   4.395
 5481SOL    HW117003   3.213   2.728   4.404
 5481SOL    HW217004   3.173   2.860   4.342
 5482SOL     OW17005   2.672   3.136   5.151
 5482SOL    HW117006   2.644   3.176   5.234
 5482SOL    HW217007   2.603   3.159   5.089
 5483SOL     OW17008   2.537   3.480   3.882
 5483SOL    HW117009   2.546   3.497   3.788
 5483SOL    HW217010   2.478   3.404   3.886
 5484SOL     OW17011   3.481   3.589   5.114
 5484SOL    HW117012   3.537   3.592   5.036
 5484SOL    HW217013   3.469   3.680   5.138
 5485SOL     OW17014   3.700   2.043   4.691
 5485SOL    HW117015   3.731   1.956   4.666
 5485SOL    HW217016   3.614   2.051   4.650
 5486SOL     OW17017   3.069   3.466   3.760
 5486SOL    HW117018   3.059   3.374   3.784
 5486SOL    HW217019   3.008   3.479   3.687
 5487SOL     OW17020   2.685   2.868   5.097
 5487SOL    HW117021   2.730   2.863   5.012
 5487SOL    HW217022   2.684   2.961   5.118
 5488SOL     OW17023   2.779   2.773   4.014
 5488SOL    HW117024   2.839   2.805   3.948
 5488SOL    HW217025   2.828   2.704   4.060
 5489SOL     OW17026   3.350   3.494   3.766
 5489SOL    HW117027   3.256   3.481   3.750
 5489SOL    HW217028   3.389   3.498   3.679
 5490SOL     OW17029   2.231   3.166   5.215
 5490SOL    HW117030   2.217   3.243   5.160
 5490SOL    HW217031   2.153   3.111   5.200
 5491SOL     OW17032   3.463   3.142   5.002
 5491SOL    HW117033   3.531   3.133   5.068
 5491SOL    HW217034   3.406   3.211   5.034
 5492SOL     OW17035   2.918   2.970   4.432
 5492SOL    HW117036   2.846   2.919   4.470
 5492SOL    HW217037   2.981   2.905   4.403
 5493SOL     OW17038   2.883   2.102   4.690
 5493SOL    HW117039   2.879   2.055   4.607
 5493SOL    HW217040   2.879   2.034   4.757
 5494SOL     OW17041   2.467   3.353   4.204
 5494SOL    HW117042   2.512   3.301   4.137
 5494SOL    HW217043   2.397   3.398   4.156
 5495SOL     OW17044   3.586   2.252   5.102
 5495SOL    HW117045   3.658   2.315   5.099
 5495SOL    HW217046   3.615   2.179   5.046
 5496SOL     OW17047   2.122   3.205   4.014
 5496SOL    HW117048   2.030   3.202   3.991
 5496SOL    HW217049   2.124   3.244   4.102
 5497SOL     OW17050   1.975   2.887   5.445
 5497SOL    HW117051   1.899   2.862   5.497
 5497SOL    HW217052   2.050   2.849   5.491
 5498SOL     OW17053   2.536   2.059   5.225
 5498SOL    HW117054   2.619   2.038   5.183
 5498SOL    HW217055   2.560   2.091   5.311
 5499SOL     OW17056   1.897   2.283   3.784
 5499SOL    HW117057   1.860   2.199   3.757
 5499SOL    HW217058   1.947   2.313   3.709
 5500SOL     OW17059   3.288   2.720   5.123
 5500SOL    HW117060   3.239   2.782   5.069
 5500SOL    HW217061   3.377   2.722   5.086
 5501SOL     OW17062   3.040   3.199   3.841
 5501SOL    HW117063   2.949   3.169   3.843
 5501SOL    HW217064   3.067   3.199   3.933
 5502SOL     OW17065   2.481   2.692   5.158
 5502SOL    HW117066   2.537   2.769   5.143
 5502SOL    HW217067   2.542   2.619   5.165
 5503SOL     OW17068   3.347   3.643   4.706
 5503SOL    HW117069   3.371   3.697   4.631
 5503SOL    HW217070   3.431   3.612   4.742
 5504SOL     OW17071   2.581   2.423   5.422
 5504SOL    HW117072   2.619   2.483   5.485
 5504SOL    HW217073   2.598   2.336   5.458
 5505SOL     OW17074   3.335   3.060   5.355
 5505SOL    HW117075   3.324   3.074   5.449
 5505SOL    HW217076   3.428   3.075   5.338
 5506SOL     OW17077   2.237   3.602   5.289
 5506SOL    HW117078   2.152   3.644   5.273
 5506SOL    HW217079   2.215   3.519   5.330
 5507SOL     OW17080   3.527   2.742   4.983
 5507SOL    HW117081   3.525   2.657   4.940
 5507SOL    HW217082   3.520   2.805   4.911
 5508SOL     OW17083   3.080   2.182   4.181
 5508SOL    HW117084   3.142   2.109   4.174
 5508SOL    HW217085   3.108   2.231   4.258
 5509SOL     OW17086   2.447   2.597   4.398
 5509SOL    HW117087   2.489   2.682   4.383
 5509SOL    HW217088   2.383   2.590   4.327
 5510SOL     OW17089   3.621   2.228   5.373
 5510SOL    HW117090   3.604   2.241   5.280
 5510SOL    HW217091   3.551   2.169   5.403
 5511SOL     OW17092   3.618   2.790   5.237
 5511SOL    HW117093   3.609   2.884   5.255
 5511SOL    HW217094   3.594   2.781   5.145
 5512SOL     OW17095   2.726   3.229   3.763
 5512SOL    HW117096   2.685   3.257   3.845
 5512SOL    HW217097   2.741   3.310   3.715
 5513SOL     OW17098   2.522   3.651   4.664
 5513SOL    HW117099   2.502   3.742   4.642
 5513SOL    HW217100   2.618   3.646   4.658
 5514SOL     OW17101   2.730   2.831   4.579
 5514SOL    HW117102   2.780   2.759   4.617
 5514SOL    HW217103   2.694   2.878   4.654
 5515SOL     OW17104   2.940   2.851   3.813
 5515SOL    HW117105   2.919   2.902   3.735
 5515SOL    HW217106   3.015   2.796   3.786
 5516SOL     OW17107   3.712   3.417   4.564
 5516SOL    HW117108   3.633   3.397   4.515
 5516SOL    HW217109   3.715   3.349   4.632
 5517SOL     OW17110   2.088   3.163   5.579
 5517SOL    HW117111   2.022   3.101   5.548
 5517SOL    HW217112   2.067   3.176   5.672
 5518SOL     OW17113   1.948   3.094   4.389
 5518SOL    HW117114   1.956   3.047   4.472
 5518SOL    HW217115   2.014   3.054   4.333
 5519SOL     OW17116   2.545   3.267   5.353
 5519SOL    HW117117   2.465   3.224   5.385
 5519SOL    HW217118   2.542   3.354   5.391
 5520SOL     OW17119   3.675   2.040   4.962
 5520SOL    HW117120   3.667   1.945   4.965
 5520SOL    HW217121   3.689   2.060   4.870
 5521SOL     OW17122   2.292   2.292   4.246
 5521SOL    HW117123   2.326   2.233   4.178
 5521SOL    HW217124   2.252   2.233   4.310
 5522SOL     OW17125   3.558   3.352   4.820
 5522SOL    HW117126   3.479   3.327   4.771
 5522SOL    HW217127   3.570   3.281   4.884
 5523SOL     OW17128   2.193   2.417   5.013
 5523SOL    HW117129   2.238   2.356   5.072
 5523SOL    HW217130   2.210   2.382   4.925
 5524SOL     OW17131   2.690   3.441   4.401
 5524SOL    HW117132   2.672   3.492   4.322
 5524SOL    HW217133   2.616   3.380   4.407
 5525SOL     OW17134   3.293   2.090   4.841
 5525SOL    HW117135   3.314   2.007   4.884
 5525SOL    HW217136   3.242   2.138   4.906
 5526SOL     OW17137   2.871   1.879   4.863
 5526SOL    HW117138   2.817   1.811   4.821
 5526SOL    HW217139   2.959   1.841   4.866
 5527SOL     OW17140   2.635   3.195   4.043
 5527SOL    HW117141   2.605   3.104   4.049
 5527SOL    HW217142   2.717   3.196   4.091
 5528SOL     OW17143   2.482   3.415   5.009
 5528SOL    HW117144   2.483   3.497   5.059
 5528SOL    HW217145   2.570   3.409   4.972
 5529SOL     OW17146   3.216   1.915   3.891
 5529SOL    HW117147   3.247   1.847   3.832
 5529SOL    HW217148   3.128   1.888   3.915
 5530SOL     OW17149   3.157   2.324   4.403
 5530SOL    HW117150   3.105   2.404   4.410
 5530SOL    HW217151   3.153   2.286   4.491
 5531SOL     OW17152   3.444   2.060   4.602
 5531SOL    HW117153   3.388   2.084   4.676
 5531SOL    HW217154   3.445   2.138   4.547
 5532SOL     OW17155   1.906   2.931   4.031
 5532SOL    HW117156   1.999   2.923   4.012
 5532SOL    HW217157   1.877   2.843   4.054
 5533SOL     OW17158   2.748   3.521   4.067
 5533SOL    HW117159   2.677   3.501   4.006
 5533SOL    HW217160   2.717   3.596   4.117
 5534SOL     OW17161   2.083   2.507   5.698
 5534SOL    HW117162   1.999   2.469   5.721
 5534SOL    HW217163   2.097   2.481   5.607
 5535SOL     OW17164   1.866   2.199   6.195
 5535SOL    HW117165   1.801   2.268   6.206
 5535SOL    HW217166   1.885   2.198   6.101
 5536SOL     OW17167   2.429   3.154   6.763
 5536SOL    HW117168   2.343   3.162   6.719
 5536SOL    HW217169   2.447   3.242   6.796
 5537SOL     OW17170   3.425   3.375   6.295
 5537SOL    HW117171   3.383   3.351   6.378
 5537SOL    HW217172   3.353   3.377   6.232
 5538SOL     OW17173   2.996   2.560   6.279
 5538SOL    HW117174   3.044   2.642   6.267
 5538SOL    HW217175   2.954   2.569   6.364
 5539SOL     OW17176   3.632   2.468   5.814
 5539SOL    HW117177   3.610   2.459   5.721
 5539SOL    HW217178   3.595   2.389   5.855
 5540SOL     OW17179   2.631   3.010   6.631
 5540SOL    HW117180   2.554   3.031   6.685
 5540SOL    HW217181   2.655   3.094   6.591
 5541SOL     OW17182   2.737   2.640   7.411
 5541SOL    HW117183   2.728   2.715   7.469
 5541SOL    HW217184   2.758   2.677   7.326
 5542SOL     OW17185   2.551   2.870   6.232
 5542SOL    HW117186   2.616   2.856   6.301
 5542SOL    HW217187   2.482   2.922   6.273
 5543SOL     OW17188   2.573   3.012   7.403
 5543SOL    HW117189   2.622   3.090   7.430
 5543SOL    HW217190   2.493   3.046   7.364
 5544SOL     OW17191   2.194   3.284   6.652
 5544SOL    HW117192   2.118   3.251   6.604
 5544SOL    HW217193   2.242   3.337   6.589
 5545SOL     OW17194   3.321   3.363   6.943
 5545SOL    HW117195   3.374   3.441   6.953
 5545SOL    HW217196   3.255   3.369   7.012
 5546SOL     OW17197   3.472   2.308   6.330
 5546SOL    HW117198   3.399   2.329   6.271
 5546SOL    HW217199   3.481   2.385   6.386
 5547SOL     OW17200   2.084   3.577   6.065
 5547SOL    HW117201   2.114   3.637   6.133
 5547SOL    HW217202   2.156   3.575   6.001
 5548SOL     OW17203   2.999   3.204   7.281
 5548SOL    HW117204   3.040   3.196   7.367
 5548SOL    HW217205   2.947   3.124   7.271
 5549SOL     OW17206   2.091   3.304   6.122
 5549SOL    HW117207   2.075   3.398   6.125
 5549SOL    HW217208   2.031   3.267   6.186
 5550SOL     OW17209   2.118   2.959   6.481
 5550SOL    HW117210   2.075   2.880   6.513
 5550SOL    HW217211   2.069   3.031   6.521
 5551SOL     OW17212   2.469   3.649   7.013
 5551SOL    HW117213   2.388   3.634   7.062
 5551SOL    HW217214   2.496   3.737   7.038
 5552SOL     OW17215   2.445   2.846   5.722
 5552SOL    HW117216   2.493   2.893   5.653
 5552SOL    HW217217   2.484   2.877   5.804
 5553SOL     OW17218   3.460   1.986   7.053
 5553SOL    HW117219   3.466   2.068   7.004
 5553SOL    HW217220   3.443   2.013   7.144
 5554SOL     OW17221   3.700   3.613   5.927
 5554SOL    HW117222   3.771   3.588   5.987
 5554SOL    HW217223   3.719   3.704   5.904
 5555SOL     OW17224   1.891   3.454   5.707
 5555SOL    HW117225   1.878   3.362   5.729
 5555SOL    HW217226   1.871   3.501   5.788
 5556SOL     OW17227   3.551   2.784   6.233
 5556SOL    HW117228   3.634   2.738   6.214
 5556SOL    HW217229   3.531   2.831   6.152
 5557SOL     OW17230   3.504   2.967   6.016
 5557SOL    HW117231   3.589   2.971   5.973
 5557SOL    HW217232   3.510   3.030   6.088
 5558SOL     OW17233   2.477   3.252   6.320
 5558SOL    HW117234   2.432   3.168   6.330
 5558SOL    HW217235   2.460   3.278   6.230
 5559SOL     OW17236   3.150   3.099   7.008
 5559SOL    HW117237   3.181   3.032   6.947
 5559SOL    HW217238   3.209   3.093   7.083
 5560SOL     OW17239   2.061   2.820   6.858
 5560SOL    HW117240   2.148   2.794   6.826
 5560SOL    HW217241   2.000   2.777   6.798
 5561SOL     OW17242   3.390   2.858   5.786
 5561SOL    HW117243   3.320   2.801   5.819
 5561SOL    HW217244   3.432   2.893   5.865
 5562SOL     OW17245   3.080   3.665   7.213
 5562SOL    HW117246   3.056   3.725   7.142
 5562SOL    HW217247   3.080   3.579   7.172
 5563SOL     OW17248   3.327   3.282   6.534
 5563SOL    HW117249   3.261   3.297   6.602
 5563SOL    HW217250   3.316   3.190   6.509
 5564SOL     OW17251   3.509   3.606   6.166
 5564SOL    HW117252   3.501   3.571   6.078
 5564SOL    HW217253   3.492   3.531   6.223
 5565SOL     OW17254   2.458   2.586   5.850
 5565SOL    HW117255   2.469   2.667   5.801
 5565SOL    HW217256   2.394   2.607   5.918
 5566SOL     OW17257   3.162   2.232   6.527
 5566SOL    HW117258   3.076   2.190   6.518
 5566SOL    HW217259   3.211   2.175   6.586
 5567SOL     OW17260   3.436   3.539   5.894
 5567SOL    HW117261   3.528   3.563   5.890
 5567SOL    HW217262   3.412   3.519   5.804
 5568SOL     OW17263   2.684   2.439   7.050
 5568SOL    HW117264   2.634   2.431   7.132
 5568SOL    HW217265   2.625   2.405   6.983
 5569SOL     OW17266   3.257   2.336   7.263
 5569SOL    HW117267   3.258   2.380   7.348
 5569SOL    HW217268   3.315   2.261   7.275
 5570SOL     OW17269   2.814   2.747   7.171
 5570SOL    HW117270   2.869   2.680   7.131
 5570SOL    HW217271   2.762   2.781   7.098
 5571SOL     OW17272   2.913   2.561   6.010
 5571SOL    HW117273   2.932   2.554   6.104
 5571SOL    HW217274   2.830   2.514   5.999
 5572SOL     OW17275   1.982   3.706   7.162
 5572SOL    HW117276   1.985   3.686   7.255
 5572SOL    HW217277   1.889   3.708   7.141
 5573SOL     OW17278   2.759   2.215   5.787
 5573SOL    HW117279   2.802   2.272   5.723
 5573SOL    HW217280   2.745   2.132   5.740
 5574SOL     OW17281   3.574   2.436   7.414
 5574SOL    HW117282   3.535   2.509   7.367
 5574SOL    HW217283   3.596   2.372   7.347
 5575SOL     OW17284   3.240   3.005   6.127
 5575SOL    HW117285   3.319   2.992   6.075
 5575SOL    HW217286   3.188   3.066   6.075
 5576SOL     OW17287   2.865   3.306   6.056
 5576SOL    HW117288   2.829   3.381   6.009
 5576SOL    HW217289   2.846   3.325   6.148
 5577SOL     OW17290   2.213   3.673   6.426
 5577SOL    HW117291   2.264   3.594   6.444
 5577SOL    HW217292   2.273   3.745   6.448
 5578SOL     OW17293   3.667   2.923   6.453
 5578SOL    HW117294   3.614   2.896   6.378
 5578SOL    HW217295   3.605   2.927   6.526
 5579SOL     OW17296   3.088   3.399   7.098
 5579SOL    HW117297   3.076   3.327   7.160
 5579SOL    HW217298   3.024   3.382   7.029
 5580SOL     OW17299   2.179   2.817   5.837
 5580SOL    HW117300   2.261   2.839   5.793
 5580SOL    HW217301   2.148   2.738   5.793
 5581SOL     OW17302   3.343   2.607   6.309
 5581SOL    HW117303   3.333   2.567   6.396
 5581SOL    HW217304   3.419   2.664   6.317
 5582SOL     OW17305   2.329   3.128   7.323
 5582SOL    HW117306   2.302   3.133   7.231
 5582SOL    HW217307   2.247   3.131   7.372
 5583SOL     OW17308   2.976   3.643   5.808
 5583SOL    HW117309   2.912   3.597   5.862
 5583SOL    HW217310   3.006   3.577   5.745
 5584SOL     OW17311   3.487   3.247   5.674
 5584SOL    HW117312   3.443   3.330   5.657
 5584SOL    HW217313   3.420   3.181   5.655
 5585SOL     OW17314   2.329   3.597   5.911
 5585SOL    HW117315   2.367   3.662   5.970
 5585SOL    HW217316   2.402   3.572   5.854
 5586SOL     OW17317   3.263   1.969   6.023
 5586SOL    HW117318   3.256   1.944   5.931
 5586SOL    HW217319   3.357   1.975   6.039
 5587SOL     OW17320   2.121   3.653   6.810
 5587SOL    HW117321   2.170   3.585   6.855
 5587SOL    HW217322   2.108   3.619   6.721
 5588SOL     OW17323   2.800   3.563   6.485
 5588SOL    HW117324   2.875   3.510   6.510
 5588SOL    HW217325   2.756   3.513   6.416
 5589SOL     OW17326   2.261   2.563   6.052
 5589SOL    HW117327   2.278   2.471   6.031
 5589SOL    HW217328   2.187   2.560   6.112
 5590SOL     OW17329   3.394   2.087   7.311
 5590SOL    HW117330   3.404   2.106   7.404
 5590SOL    HW217331   3.321   2.026   7.307
 5591SOL     OW17332   2.521   1.993   5.677
 5591SOL    HW117333   2.560   1.922   5.729
 5591SOL    HW217334   2.467   1.948   5.612
 5592SOL     OW17335   2.738   3.384   6.782
 5592SOL    HW117336   2.723   3.348   6.694
 5592SOL    HW217337   2.808   3.329   6.818
 5593SOL     OW17338   3.203   2.447   7.017
 5593SOL    HW117339   3.233   2.418   7.103
 5593SOL    HW217340   3.235   2.537   7.010
 5594SOL     OW17341   2.678   3.261   6.528
 5594SOL    HW117342   2.763   3.245   6.485
 5594SOL    HW217343   2.615   3.260   6.456
 5595SOL     OW17344   2.820   2.376   6.482
 5595SOL    HW117345   2.789   2.370   6.392
 5595SOL    HW217346   2.855   2.290   6.501
 5596SOL     OW17347   3.290   3.061   5.626
 5596SOL    HW117348   3.321   2.986   5.677
 5596SOL    HW217349   3.204   3.082   5.664
 5597SOL     OW17350   2.805   2.108   6.054
 5597SOL    HW117351   2.775   2.142   5.970
 5597SOL    HW217352   2.900   2.123   6.054
 5598SOL     OW17353   2.938   2.545   7.039
 5598SOL    HW117354   2.865   2.485   7.053
 5598SOL    HW217355   3.016   2.489   7.043
 5599SOL     OW17356   3.084   3.432   6.379
 5599SOL    HW117357   3.101   3.500   6.314
 5599SOL    HW217358   3.152   3.443   6.444
 5600SOL     OW17359   2.331   3.014   6.317
 5600SOL    HW117360   2.263   2.995   6.383
 5600SOL    HW217361   2.288   2.997   6.233
 5601SOL     OW17362   3.128   3.657   6.194
 5601SOL    HW117363   3.174   3.722   6.141
 5601SOL    HW217364   3.055   3.705   6.233
 5602SOL     OW17365   2.887   2.401   5.609
 5602SOL    HW117366   2.842   2.484   5.591
 5602SOL    HW217367   2.950   2.422   5.678
 5603SOL     OW17368   2.737   2.325   6.225
 5603SOL    HW117369   2.692   2.378   6.159
 5603SOL    HW217370   2.750   2.240   6.183
 5604SOL     OW17371   2.895   1.910   6.322
 5604SOL    HW117372   2.825   1.927   6.258
 5604SOL    HW217373   2.862   1.837   6.375
 5605SOL     OW17374   3.300   3.024   6.443
 5605SOL    HW117375   3.231   2.957   6.446
 5605SOL    HW217376   3.321   3.031   6.350
 5606SOL     OW17377   3.328   2.471   6.557
 5606SOL    HW117378   3.275   2.391   6.557
 5606SOL    HW217379   3.385   2.462   6.633
 5607SOL     OW17380   3.724   2.678   5.961
 5607SOL    HW117381   3.768   2.623   6.025
 5607SOL    HW217382   3.687   2.617   5.897
 5608SOL     OW17383   2.352   3.281   5.739
 5608SOL    HW117384   2.277   3.253   5.791
 5608SOL    HW217385   2.341   3.237   5.655
 5609SOL     OW17386   3.530   3.129   6.227
 5609SOL    HW117387   3.625   3.131   6.239
 5609SOL    HW217388   3.501   3.217   6.251
 5610SOL     OW17389   3.256   2.434   5.658
 5610SOL    HW117390   3.193   2.415   5.727
 5610SOL    HW217391   3.339   2.402   5.691
 5611SOL     OW17392   3.613   3.097   7.151
 5611SOL    HW117393   3.700   3.061   7.134
 5611SOL    HW217394   3.629   3.186   7.181
 5612SOL     OW17395   2.919   3.220   6.924
 5612SOL    HW117396   2.844   3.185   6.971
 5612SOL    HW217397   2.995   3.175   6.961
 5613SOL     OW17398   3.469   3.492   7.243
 5613SOL    HW117399   3.459   3.524   7.154
 5613SOL    HW217400   3.550   3.440   7.241
 5614SOL     OW17401   2.998   3.075   6.690
 5614SOL    HW117402   2.931   3.098   6.754
 5614SOL    HW217403   2.961   3.099   6.605
 5615SOL     OW17404   3.491   2.958   6.661
 5615SOL    HW117405   3.483   3.019   6.734
 5615SOL    HW217406   3.413   2.973   6.608
 5616SOL     OW17407   2.846   2.976   7.308
 5616SOL    HW117408   2.754   2.992   7.329
 5616SOL    HW217409   2.845   2.899   7.252
 5617SOL     OW17410   2.571   2.923   5.957
 5617SOL    HW117411   2.560   2.908   6.051
 5617SOL    HW217412   2.646   2.870   5.933
 5618SOL     OW17413   3.126   2.237   6.863
 5618SOL    HW117414   3.159   2.310   6.915
 5618SOL    HW217415   3.061   2.277   6.805
 5619SOL     OW17416   1.935   3.434   6.938
 5619SOL    HW117417   1.907   3.511   6.888
 5619SOL    HW217418   2.030   3.437   6.935
 5620SOL     OW17419   2.203   2.971   6.076
 5620SOL    HW117420   2.211   3.048   6.019
 5620SOL    HW217421   2.203   2.896   6.017
 5621SOL     OW17422   3.110   3.211   5.974
 5621SOL    HW117423   3.166   3.282   6.007
 5621SOL    HW217424   3.023   3.232   6.009
 5622SOL     OW17425   3.145   3.322   6.732
 5622SOL    HW117426   3.199   3.322   6.811
 5622SOL    HW217427   3.091   3.243   6.740
 5623SOL     OW17428   3.440   2.483   6.067
 5623SOL    HW117429   3.392   2.532   6.134
 5623SOL    HW217430   3.480   2.550   6.012
 5624SOL     OW17431   2.209   3.390   6.899
 5624SOL    HW117432   2.197   3.346   6.814
 5624SOL    HW217433   2.303   3.402   6.906
 5625SOL     OW17434   3.467   2.641   7.270
 5625SOL    HW117435   3.381   2.683   7.264
 5625SOL    HW217436   3.519   2.684   7.201
 5626SOL     OW17437   2.927   1.989   7.395
 5626SOL    HW117438   2.945   2.067   7.343
 5626SOL    HW217439   2.963   1.917   7.343
 5627SOL     OW17440   3.212   2.721   6.609
 5627SOL    HW117441   3.124   2.705   6.576
 5627SOL    HW217442   3.256   2.637   6.601
 5628SOL     OW17443   3.064   2.391   5.850
 5628SOL    HW117444   3.072   2.312   5.904
 5628SOL    HW217445   3.020   2.455   5.907
 5629SOL     OW17446   2.240   2.091   6.880
 5629SOL    HW117447   2.159   2.081   6.930
 5629SOL    HW217448   2.256   2.004   6.844
 5630SOL     OW17449   1.904   3.174   6.859
 5630SOL    HW117450   1.937   3.119   6.929
 5630SOL    HW217451   1.913   3.263   6.892
 5631SOL     OW17452   2.654   2.545   6.662
 5631SOL    HW117453   2.692   2.481   6.602
 5631SOL    HW217454   2.559   2.531   6.654
 5632SOL     OW17455   3.592   2.822   7.447
 5632SOL    HW117456   3.553   2.757   7.389
 5632SOL    HW217457   3.528   2.835   7.517
 5633SOL     OW17458   3.482   2.239   5.950
 5633SOL    HW117459   3.508   2.174   6.015
 5633SOL    HW217460   3.458   2.316   6.001
 5634SOL     OW17461   2.920   2.629   6.544
 5634SOL    HW117462   2.905   2.653   6.635
 5634SOL    HW217463   2.881   2.541   6.535
 5635SOL     OW17464   2.846   3.429   7.306
 5635SOL    HW117465   2.828   3.470   7.222
 5635SOL    HW217466   2.889   3.347   7.284
 5636SOL     OW17467   3.705   3.361   7.184
 5636SOL    HW117468   3.728   3.390   7.096
 5636SOL    HW217469   3.785   3.371   7.235
 5637SOL     OW17470   3.392   2.134   5.713
 5637SOL    HW117471   3.326   2.070   5.740
 5637SOL    HW217472   3.424   2.171   5.796
 5638SOL     OW17473   3.150   2.687   5.615
 5638SOL    HW117474   3.194   2.602   5.620
 5638SOL    HW217475   3.183   2.726   5.534
 5639SOL     OW17476   2.925   3.199   6.437
 5639SOL    HW117477   2.930   3.126   6.377
 5639SOL    HW217478   2.987   3.263   6.403
 5640SOL     OW17479   2.997   2.240   7.261
 5640SOL    HW117480   2.949   2.300   7.319
 5640SOL    HW217481   3.085   2.275   7.257
 5641SOL     OW17482   3.040   2.050   7.064
 5641SOL    HW117483   3.014   2.116   7.128
 5641SOL    HW217484   3.064   2.100   6.986
 5642SOL     OW17485   1.867   3.186   5.779
 5642SOL    HW117486   1.780   3.199   5.743
 5642SOL    HW217487   1.866   3.097   5.815
 5643SOL     OW17488   1.959   3.641   6.524
 5643SOL    HW117489   1.928   3.562   6.479
 5643SOL    HW217490   2.044   3.659   6.484
 5644SOL     OW17491   2.356   3.438   6.491
 5644SOL    HW117492   2.424   3.501   6.516
 5644SOL    HW217493   2.401   3.375   6.435
 5645SOL     OW17494   2.860   2.670   6.806
 5645SOL    HW117495   2.890   2.634   6.889
 5645SOL    HW217496   2.777   2.626   6.789
 5646SOL     OW17497   3.241   2.799   7.245
 5646SOL    HW117498   3.262   2.892   7.241
 5646SOL    HW217499   3.236   2.771   7.153
 5647SOL     OW17500   2.676   2.431   5.952
 5647SOL    HW117501   2.686   2.356   5.893
 5647SOL    HW217502   2.604   2.482   5.915
 5648SOL     OW17503   3.501   2.463   6.769
 5648SOL    HW117504   3.490   2.403   6.843
 5648SOL    HW217505   3.588   2.442   6.734
 5649SOL     OW17506   2.104   3.412   7.310
 5649SOL    HW117507   2.082   3.480   7.375
 5649SOL    HW217508   2.108   3.331   7.361
 5650SOL     OW17509   2.785   3.535   7.058
 5650SOL    HW117510   2.764   3.495   6.973
 5650SOL    HW217511   2.778   3.630   7.042
 5651SOL     OW17512   2.330   2.386   5.710
 5651SOL    HW117513   2.390   2.447   5.754
 5651SOL    HW217514   2.244   2.427   5.719
 5652SOL     OW17515   1.999   3.003   7.053
 5652SOL    HW117516   2.012   2.962   7.138
 5652SOL    HW217517   2.022   2.935   6.989
 5653SOL     OW17518   3.187   2.908   6.806
 5653SOL    HW117519   3.207   2.843   6.738
 5653SOL    HW217520   3.119   2.963   6.768
 5654SOL     OW17521   3.175   2.719   5.891
 5654SOL    HW117522   3.101   2.687   5.944
 5654SOL    HW217523   3.148   2.704   5.801
 5655SOL     OW17524   3.639   3.602   6.741
 5655SOL    HW117525   3.697   3.629   6.669
 5655SOL    HW217526   3.611   3.514   6.718
 5656SOL     OW17527   3.106   3.596   6.696
 5656SOL    HW117528   3.189   3.616   6.653
 5656SOL    HW217529   3.112   3.502   6.716
 5657SOL     OW17530   1.947   3.136   6.594
 5657SOL    HW117531   1.929   3.147   6.687
 5657SOL    HW217532   1.877   3.079   6.562
 5658SOL     OW17533   2.541   3.526   7.319
 5658SOL    HW117534   2.485   3.604   7.322
 5658SOL    HW217535   2.603   3.544   7.248
 5659SOL     OW17536   3.572   2.012   6.098
 5659SOL    HW117537   3.640   1.999   6.032
 5659SOL    HW217538   3.561   1.925   6.138
 5660SOL     OW17539   3.252   3.430   6.073
 5660SOL    HW117540   3.311   3.464   6.006
 5660SOL    HW217541   3.204   3.507   6.104
 5661SOL     OW17542   1.997   3.653   7.424
 5661SOL    HW117543   1.945   3.589   7.473
 5661SOL    HW217544   2.046   3.700   7.491
 5662SOL     OW17545   3.139   2.789   6.255
 5662SOL    HW117546   3.213   2.729   6.265
 5662SOL    HW217547   3.174   2.862   6.203
 5663SOL     OW17548   2.673   3.136   7.012
 5663SOL    HW117549   2.643   3.176   7.094
 5663SOL    HW217550   2.601   3.153   6.950
 5664SOL     OW17551   2.536   3.480   5.744
 5664SOL    HW117552   2.546   3.497   5.650
 5664SOL    HW217553   2.478   3.404   5.748
 5665SOL     OW17554   3.481   3.589   6.976
 5665SOL    HW117555   3.537   3.592   6.898
 5665SOL    HW217556   3.469   3.680   7.001
 5666SOL     OW17557   3.700   2.043   6.553
 5666SOL    HW117558   3.731   1.956   6.528
 5666SOL    HW217559   3.614   2.051   6.512
 5667SOL     OW17560   3.069   3.466   5.622
 5667SOL    HW117561   3.059   3.374   5.646
 5667SOL    HW217562   3.008   3.479   5.549
 5668SOL     OW17563   2.688   2.864   6.963
 5668SOL    HW117564   2.726   2.853   6.876
 5668SOL    HW217565   2.685   2.958   6.977
 5669SOL     OW17566   2.777   2.772   5.875
 5669SOL    HW117567   2.839   2.804   5.810
 5669SOL    HW217568   2.825   2.704   5.922
 5670SOL     OW17569   3.350   3.494   5.628
 5670SOL    HW117570   3.256   3.481   5.612
 5670SOL    HW217571   3.389   3.498   5.541
 5671SOL     OW17572   2.226   3.166   7.078
 5671SOL    HW117573   2.219   3.244   7.023
 5671SOL    HW217574   2.148   3.115   7.057
 5672SOL     OW17575   3.464   3.142   6.864
 5672SOL    HW117576   3.530   3.133   6.932
 5672SOL    HW217577   3.406   3.211   6.896
 5673SOL     OW17578   2.917   2.968   6.295
 5673SOL    HW117579   2.846   2.917   6.335
 5673SOL    HW217580   2.981   2.902   6.269
 5674SOL     OW17581   2.930   2.092   6.524
 5674SOL    HW117582   2.922   2.037   6.447
 5674SOL    HW217583   2.915   2.033   6.598
 5675SOL     OW17584   2.466   3.352   6.065
 5675SOL    HW117585   2.512   3.301   5.999
 5675SOL    HW217586   2.398   3.398   6.016
 5676SOL     OW17587   3.586   2.252   6.964
 5676SOL    HW117588   3.658   2.315   6.960
 5676SOL    HW217589   3.615   2.180   6.909
 5677SOL     OW17590   2.122   3.205   5.876
 5677SOL    HW117591   2.030   3.204   5.852
 5677SOL    HW217592   2.124   3.243   5.964
 5678SOL     OW17593   1.994   2.908   7.313
 5678SOL    HW117594   1.908   2.877   7.341
 5678SOL    HW217595   2.051   2.831   7.318
 5679SOL     OW17596   1.897   2.282   5.650
 5679SOL    HW117597   1.858   2.202   5.615
 5679SOL    HW217598   1.950   2.316   5.577
 5680SOL     OW17599   3.288   2.720   6.986
 5680SOL    HW117600   3.237   2.780   6.931
 5680SOL    HW217601   3.376   2.722   6.948
 5681SOL     OW17602   3.040   3.199   5.703
 5681SOL    HW117603   2.949   3.168   5.705
 5681SOL    HW217604   3.067   3.199   5.795
 5682SOL     OW17605   3.347   3.644   6.569
 5682SOL    HW117606   3.372   3.697   6.493
 5682SOL    HW217607   3.430   3.611   6.603
 5683SOL     OW17608   3.335   3.060   7.217
 5683SOL    HW117609   3.324   3.074   7.311
 5683SOL    HW217610   3.428   3.075   7.200
 5684SOL     OW17611   2.237   3.603   7.151
 5684SOL    HW117612   2.152   3.644   7.135
 5684SOL    HW217613   2.216   3.519   7.192
 5685SOL     OW17614   3.527   2.742   6.845
 5685SOL    HW117615   3.524   2.657   6.802
 5685SOL    HW217616   3.520   2.805   6.773
 5686SOL     OW17617   3.081   2.182   6.042
 5686SOL    HW117618   3.142   2.109   6.036
 5686SOL    HW217619   3.108   2.231   6.119
 5687SOL     OW17620   2.463   2.609   6.233
 5687SOL    HW117621   2.503   2.696   6.226
 5687SOL    HW217622   2.394   2.608   6.167
 5688SOL     OW17623   3.620   2.227   7.236
 5688SOL    HW117624   3.603   2.241   7.142
 5688SOL    HW217625   3.550   2.169   7.265
 5689SOL     OW17626   3.620   2.790   7.098
 5689SOL    HW117627   3.608   2.884   7.116
 5689SOL    HW217628   3.594   2.780   7.007
 5690SOL     OW17629   2.724   3.229   5.624
 5690SOL    HW117630   2.685   3.257   5.707
 5690SOL    HW217631   2.741   3.311   5.577
 5691SOL     OW17632   2.522   3.651   6.526
 5691SOL    HW117633   2.502   3.742   6.504
 5691SOL    HW217634   2.618   3.645   6.521
 5692SOL     OW17635   2.727   2.830   6.443
 5692SOL    HW117636   2.775   2.757   6.483
 5692SOL    HW217637   2.694   2.880   6.517
 5693SOL     OW17638   2.940   2.851   5.674
 5693SOL    HW117639   2.919   2.902   5.596
 5693SOL    HW217640   3.014   2.796   5.649
 5694SOL     OW17641   3.712   3.417   6.427
 5694SOL    HW117642   3.633   3.397   6.377
 5694SOL    HW217643   3.715   3.349   6.494
 5695SOL     OW17644   2.089   3.165   7.440
 5695SOL    HW117645   2.031   3.097   7.404
 5695SOL    HW217646   2.056   3.178   7.530
 5696SOL     OW17647   1.944   3.094   6.250
 5696SOL    HW117648   1.942   3.043   6.330
 5696SOL    HW217649   2.016   3.055   6.199
 5697SOL     OW17650   2.544   3.266   7.214
 5697SOL    HW117651   2.465   3.223   7.248
 5697SOL    HW217652   2.542   3.354   7.252
 5698SOL     OW17653   3.678   2.041   6.825
 5698SOL    HW117654   3.665   1.946   6.828
 5698SOL    HW217655   3.691   2.061   6.732
 5699SOL     OW17656   3.557   3.352   6.683
 5699SOL    HW117657   3.479   3.327   6.633
 5699SOL    HW217658   3.569   3.281   6.746
 5700SOL     OW17659   2.689   3.442   6.262
 5700SOL    HW117660   2.671   3.492   6.182
 5700SOL    HW217661   2.616   3.381   6.270
 5701SOL     OW17662   3.298   2.085   6.709
 5701SOL    HW117663   3.309   1.997   6.746
 5701SOL    HW217664   3.245   2.131   6.774
 5702SOL     OW17665   2.892   1.871   6.728
 5702SOL    HW117666   2.827   1.808   6.695
 5702SOL    HW217667   2.974   1.822   6.727
 5703SOL     OW17668   2.635   3.194   5.905
 5703SOL    HW117669   2.606   3.103   5.911
 5703SOL    HW217670   2.717   3.196   5.954
 5704SOL     OW17671   2.482   3.416   6.870
 5704SOL    HW117672   2.483   3.498   6.920
 5704SOL    HW217673   2.570   3.409   6.834
 5705SOL     OW17674   3.217   1.916   5.753
 5705SOL    HW117675   3.247   1.847   5.693
 5705SOL    HW217676   3.128   1.890   5.777
 5706SOL     OW17677   3.158   2.324   6.264
 5706SOL    HW117678   3.105   2.403   6.269
 5706SOL    HW217679   3.160   2.292   6.355
 5707SOL     OW17680   3.445   2.060   6.464
 5707SOL    HW117681   3.390   2.084   6.539
 5707SOL    HW217682   3.445   2.138   6.409
 5708SOL     OW17683   1.908   2.942   5.890
 5708SOL    HW117684   2.002   2.931   5.874
 5708SOL    HW217685   1.877   2.853   5.907
 5709SOL     OW17686   2.748   3.521   5.929
 5709SOL    HW117687   2.677   3.502   5.868
 5709SOL    HW217688   2.717   3.596   5.979
 5710SOL     OW17689   2.429   3.154   8.626
 5710SOL    HW117690   2.342   3.159   8.586
 5710SOL    HW217691   2.446   3.242   8.660
 5711SOL     OW17692   3.425   3.375   8.157
 5711SOL    HW117693   3.383   3.351   8.239
 5711SOL    HW217694   3.354   3.377   8.093
 5712SOL     OW17695   2.990   2.560   8.147
 5712SOL    HW117696   3.040   2.640   8.131
 5712SOL    HW217697   2.946   2.576   8.230
 5713SOL     OW17698   3.628   2.468   7.678
 5713SOL    HW117699   3.609   2.460   7.584
 5713SOL    HW217700   3.594   2.387   7.716
 5714SOL     OW17701   2.612   3.002   8.490
 5714SOL    HW117702   2.545   3.038   8.548
 5714SOL    HW217703   2.650   3.078   8.447
 5715SOL     OW17704   2.732   2.630   9.270
 5715SOL    HW117705   2.719   2.701   9.334
 5715SOL    HW217706   2.755   2.675   9.189
 5716SOL     OW17707   2.546   2.857   8.096
 5716SOL    HW117708   2.613   2.851   8.164
 5716SOL    HW217709   2.479   2.914   8.134
 5717SOL     OW17710   2.574   3.012   9.263
 5717SOL    HW117711   2.622   3.090   9.292
 5717SOL    HW217712   2.493   3.046   9.226
 5718SOL     OW17713   2.194   3.283   8.515
 5718SOL    HW117714   2.119   3.247   8.467
 5718SOL    HW217715   2.240   3.336   8.450
 5719SOL     OW17716   3.321   3.363   8.805
 5719SOL    HW117717   3.375   3.441   8.815
 5719SOL    HW217718   3.256   3.370   8.875
 5720SOL     OW17719   2.295   2.257   8.947
 5720SOL    HW117720   2.388   2.235   8.947
 5720SOL    HW217721   2.250   2.173   8.952
 5721SOL     OW17722   3.472   2.307   8.192
 5721SOL    HW117723   3.399   2.328   8.133
 5721SOL    HW217724   3.486   2.387   8.243
 5722SOL     OW17725   2.084   3.577   7.927
 5722SOL    HW117726   2.113   3.637   7.995
 5722SOL    HW217727   2.156   3.575   7.864
 5723SOL     OW17728   2.999   3.204   9.142
 5723SOL    HW117729   3.040   3.197   9.228
 5723SOL    HW217730   2.946   3.124   9.134
 5724SOL     OW17731   2.091   3.303   7.984
 5724SOL    HW117732   2.075   3.398   7.987
 5724SOL    HW217733   2.031   3.267   8.050
 5725SOL     OW17734   2.124   2.953   8.339
 5725SOL    HW117735   2.117   2.866   8.377
 5725SOL    HW217736   2.066   3.008   8.392
 5726SOL     OW17737   2.470   3.648   8.876
 5726SOL    HW117738   2.389   3.633   8.924
 5726SOL    HW217739   2.496   3.737   8.901
 5727SOL     OW17740   2.448   2.847   7.589
 5727SOL    HW117741   2.490   2.891   7.515
 5727SOL    HW217742   2.493   2.881   7.666
 5728SOL     OW17743   3.456   1.988   8.914
 5728SOL    HW117744   3.472   2.069   8.866
 5728SOL    HW217745   3.442   2.015   9.004
 5729SOL     OW17746   3.700   3.613   7.790
 5729SOL    HW117747   3.771   3.588   7.849
 5729SOL    HW217748   3.719   3.704   7.766
 5730SOL     OW17749   1.892   3.454   7.569
 5730SOL    HW117750   1.876   3.362   7.591
 5730SOL    HW217751   1.871   3.501   7.650
 5731SOL     OW17752   3.551   2.782   8.095
 5731SOL    HW117753   3.633   2.737   8.075
 5731SOL    HW217754   3.530   2.830   8.015
 5732SOL     OW17755   3.503   2.966   7.880
 5732SOL    HW117756   3.588   2.971   7.836
 5732SOL    HW217757   3.510   3.029   7.951
 5733SOL     OW17758   1.982   2.604   9.032
 5733SOL    HW117759   2.074   2.629   9.043
 5733SOL    HW217760   1.933   2.685   9.041
 5734SOL     OW17761   2.477   3.251   8.183
 5734SOL    HW117762   2.432   3.168   8.192
 5734SOL    HW217763   2.460   3.278   8.092
 5735SOL     OW17764   3.149   3.099   8.871
 5735SOL    HW117765   3.181   3.032   8.810
 5735SOL    HW217766   3.208   3.094   8.946
 5736SOL     OW17767   2.672   1.841   7.987
 5736SOL    HW117768   2.709   1.916   7.941
 5736SOL    HW217769   2.579   1.862   7.998
 5737SOL     OW17770   2.053   2.828   8.722
 5737SOL    HW117771   2.136   2.784   8.706
 5737SOL    HW217772   1.988   2.773   8.676
 5738SOL     OW17773   3.390   2.858   7.648
 5738SOL    HW117774   3.320   2.801   7.681
 5738SOL    HW217775   3.432   2.892   7.727
 5739SOL     OW17776   3.080   3.666   9.075
 5739SOL    HW117777   3.056   3.726   9.005
 5739SOL    HW217778   3.081   3.580   9.034
 5740SOL     OW17779   2.263   2.160   9.263
 5740SOL    HW117780   2.315   2.229   9.305
 5740SOL    HW217781   2.173   2.189   9.272
 5741SOL     OW17782   3.327   3.282   8.396
 5741SOL    HW117783   3.260   3.297   8.464
 5741SOL    HW217784   3.316   3.191   8.371
 5742SOL     OW17785   3.509   3.606   8.028
 5742SOL    HW117786   3.501   3.572   7.939
 5742SOL    HW217787   3.492   3.531   8.085
 5743SOL     OW17788   2.466   2.598   7.732
 5743SOL    HW117789   2.492   2.658   7.661
 5743SOL    HW217790   2.402   2.648   7.783
 5744SOL     OW17791   3.138   2.220   8.383
 5744SOL    HW117792   3.050   2.184   8.392
 5744SOL    HW217793   3.192   2.167   8.442
 5745SOL     OW17794   3.436   3.539   7.756
 5745SOL    HW117795   3.528   3.562   7.752
 5745SOL    HW217796   3.412   3.518   7.666
 5746SOL     OW17797   2.655   2.482   8.898
 5746SOL    HW117798   2.630   2.456   8.987
 5746SOL    HW217799   2.616   2.415   8.842
 5747SOL     OW17800   3.255   2.336   9.126
 5747SOL    HW117801   3.259   2.380   9.211
 5747SOL    HW217802   3.314   2.261   9.136
 5748SOL     OW17803   2.814   2.748   9.032
 5748SOL    HW117804   2.869   2.679   8.995
 5748SOL    HW217805   2.766   2.783   8.957
 5749SOL     OW17806   2.855   2.275   8.685
 5749SOL    HW117807   2.769   2.295   8.721
 5749SOL    HW217808   2.836   2.229   8.603
 5750SOL     OW17809   2.914   2.563   7.872
 5750SOL    HW117810   2.930   2.554   7.966
 5750SOL    HW217811   2.833   2.514   7.856
 5751SOL     OW17812   1.946   2.699   8.210
 5751SOL    HW117813   2.026   2.679   8.258
 5751SOL    HW217814   1.907   2.773   8.257
 5752SOL     OW17815   1.983   3.708   9.024
 5752SOL    HW117816   1.986   3.688   9.118
 5752SOL    HW217817   1.890   3.704   9.002
 5753SOL     OW17818   2.797   2.232   7.612
 5753SOL    HW117819   2.834   2.292   7.547
 5753SOL    HW217820   2.818   2.145   7.578
 5754SOL     OW17821   3.571   2.435   9.277
 5754SOL    HW117822   3.533   2.509   9.228
 5754SOL    HW217823   3.596   2.372   9.209
 5755SOL     OW17824   3.238   3.003   7.989
 5755SOL    HW117825   3.318   2.990   7.937
 5755SOL    HW217826   3.187   3.065   7.937
 5756SOL     OW17827   2.409   2.047   8.337
 5756SOL    HW117828   2.424   2.069   8.429
 5756SOL    HW217829   2.423   2.129   8.290
 5757SOL     OW17830   2.865   3.307   7.919
 5757SOL    HW117831   2.829   3.381   7.870
 5757SOL    HW217832   2.846   3.326   8.010
 5758SOL     OW17833   2.213   3.673   8.287
 5758SOL    HW117834   2.263   3.594   8.306
 5758SOL    HW217835   2.272   3.745   8.310
 5759SOL     OW17836   3.668   2.923   8.315
 5759SOL    HW117837   3.615   2.896   8.240
 5759SOL    HW217838   3.605   2.926   8.388
 5760SOL     OW17839   3.089   3.399   8.960
 5760SOL    HW117840   3.076   3.327   9.021
 5760SOL    HW217841   3.022   3.386   8.893
 5761SOL     OW17842   2.199   2.818   7.700
 5761SOL    HW117843   2.281   2.839   7.656
 5761SOL    HW217844   2.164   2.743   7.652
 5762SOL     OW17845   3.340   2.610   8.175
 5762SOL    HW117846   3.336   2.566   8.260
 5762SOL    HW217847   3.420   2.663   8.179
 5763SOL     OW17848   2.330   3.127   9.185
 5763SOL    HW117849   2.303   3.132   9.093
 5763SOL    HW217850   2.247   3.125   9.234
 5764SOL     OW17851   2.976   3.643   7.670
 5764SOL    HW117852   2.912   3.597   7.724
 5764SOL    HW217853   3.006   3.578   7.607
 5765SOL     OW17854   3.486   3.247   7.537
 5765SOL    HW117855   3.443   3.331   7.519
 5765SOL    HW217856   3.420   3.181   7.517
 5766SOL     OW17857   2.329   3.597   7.773
 5766SOL    HW117858   2.367   3.662   7.832
 5766SOL    HW217859   2.402   3.572   7.716
 5767SOL     OW17860   3.263   1.965   7.886
 5767SOL    HW117861   3.254   1.944   7.793
 5767SOL    HW217862   3.358   1.974   7.899
 5768SOL     OW17863   2.122   3.653   8.671
 5768SOL    HW117864   2.169   3.584   8.717
 5768SOL    HW217865   2.107   3.618   8.584
 5769SOL     OW17866   2.800   3.563   8.348
 5769SOL    HW117867   2.878   3.511   8.369
 5769SOL    HW217868   2.756   3.513   8.278
 5770SOL     OW17869   3.395   2.087   9.173
 5770SOL    HW117870   3.405   2.107   9.266
 5770SOL    HW217871   3.327   2.020   9.170
 5771SOL     OW17872   2.627   2.141   9.205
 5771SOL    HW117873   2.705   2.086   9.202
 5771SOL    HW217874   2.578   2.108   9.281
 5772SOL     OW17875   2.738   3.383   8.643
 5772SOL    HW117876   2.722   3.347   8.556
 5772SOL    HW217877   2.808   3.328   8.678
 5773SOL     OW17878   3.202   2.451   8.881
 5773SOL    HW117879   3.233   2.420   8.966
 5773SOL    HW217880   3.238   2.539   8.872
 5774SOL     OW17881   2.679   3.254   8.391
 5774SOL    HW117882   2.763   3.242   8.347
 5774SOL    HW217883   2.616   3.258   8.319
 5775SOL     OW17884   2.787   2.370   8.349
 5775SOL    HW117885   2.763   2.362   8.257
 5775SOL    HW217886   2.821   2.284   8.372
 5776SOL     OW17887   2.406   1.920   7.992
 5776SOL    HW117888   2.327   1.901   8.043
 5776SOL    HW217889   2.378   1.984   7.927
 5777SOL     OW17890   3.291   3.062   7.489
 5777SOL    HW117891   3.321   2.986   7.538
 5777SOL    HW217892   3.204   3.081   7.525
 5778SOL     OW17893   2.943   2.545   8.907
 5778SOL    HW117894   2.877   2.476   8.913
 5778SOL    HW217895   3.026   2.497   8.901
 5779SOL     OW17896   3.082   3.433   8.242
 5779SOL    HW117897   3.099   3.500   8.176
 5779SOL    HW217898   3.153   3.444   8.306
 5780SOL     OW17899   2.332   3.013   8.177
 5780SOL    HW117900   2.265   2.995   8.242
 5780SOL    HW217901   2.289   2.998   8.093
 5781SOL     OW17902   3.128   3.657   8.056
 5781SOL    HW117903   3.174   3.721   8.003
 5781SOL    HW217904   3.055   3.706   8.095
 5782SOL     OW17905   2.903   2.422   7.448
 5782SOL    HW117906   2.844   2.496   7.436
 5782SOL    HW217907   2.958   2.446   7.523
 5783SOL     OW17908   1.941   2.422   8.834
 5783SOL    HW117909   2.034   2.419   8.813
 5783SOL    HW217910   1.934   2.487   8.904
 5784SOL     OW17911   2.460   2.085   8.603
 5784SOL    HW117912   2.505   2.008   8.638
 5784SOL    HW217913   2.376   2.087   8.649
 5785SOL     OW17914   2.725   2.323   8.082
 5785SOL    HW117915   2.684   2.377   8.015
 5785SOL    HW217916   2.785   2.266   8.033
 5786SOL     OW17917   2.865   1.914   8.200
 5786SOL    HW117918   2.809   1.893   8.126
 5786SOL    HW217919   2.855   1.841   8.260
 5787SOL     OW17920   3.301   3.024   8.305
 5787SOL    HW117921   3.231   2.959   8.303
 5787SOL    HW217922   3.327   3.033   8.213
 5788SOL     OW17923   3.327   2.471   8.422
 5788SOL    HW117924   3.276   2.390   8.424
 5788SOL    HW217925   3.386   2.463   8.497
 5789SOL     OW17926   3.724   2.678   7.823
 5789SOL    HW117927   3.767   2.622   7.887
 5789SOL    HW217928   3.686   2.617   7.760
 5790SOL     OW17929   2.351   3.281   7.603
 5790SOL    HW117930   2.276   3.252   7.654
 5790SOL    HW217931   2.341   3.237   7.519
 5791SOL     OW17932   3.529   3.127   8.092
 5791SOL    HW117933   3.624   3.129   8.102
 5791SOL    HW217934   3.501   3.216   8.113
 5792SOL     OW17935   3.258   2.434   7.518
 5792SOL    HW117936   3.194   2.416   7.587
 5792SOL    HW217937   3.340   2.398   7.552
 5793SOL     OW17938   3.613   3.096   9.014
 5793SOL    HW117939   3.700   3.061   8.997
 5793SOL    HW217940   3.629   3.186   9.043
 5794SOL     OW17941   2.919   3.214   8.780
 5794SOL    HW117942   2.844   3.184   8.831
 5794SOL    HW217943   2.995   3.173   8.822
 5795SOL     OW17944   3.469   3.491   9.105
 5795SOL    HW117945   3.459   3.524   9.015
 5795SOL    HW217946   3.549   3.440   9.103
 5796SOL     OW17947   2.993   3.067   8.551
 5796SOL    HW117948   2.934   3.106   8.616
 5796SOL    HW217949   2.962   3.102   8.468
 5797SOL     OW17950   3.490   2.958   8.523
 5797SOL    HW117951   3.482   3.019   8.596
 5797SOL    HW217952   3.413   2.974   8.468
 5798SOL     OW17953   2.781   1.958   8.841
 5798SOL    HW117954   2.805   1.938   8.750
 5798SOL    HW217955   2.859   1.997   8.879
 5799SOL     OW17956   2.846   2.977   9.171
 5799SOL    HW117957   2.754   2.993   9.194
 5799SOL    HW217958   2.844   2.899   9.116
 5800SOL     OW17959   2.573   2.924   7.823
 5800SOL    HW117960   2.561   2.905   7.916
 5800SOL    HW217961   2.649   2.872   7.798
 5801SOL     OW17962   2.281   2.674   8.698
 5801SOL    HW117963   2.348   2.687   8.765
 5801SOL    HW217964   2.247   2.586   8.714
 5802SOL     OW17965   3.126   2.238   8.727
 5802SOL    HW117966   3.159   2.315   8.772
 5802SOL    HW217967   3.036   2.260   8.704
 5803SOL     OW17968   1.934   3.435   8.802
 5803SOL    HW117969   1.906   3.510   8.750
 5803SOL    HW217970   2.030   3.437   8.797
 5804SOL     OW17971   2.207   2.976   7.933
 5804SOL    HW117972   2.213   3.057   7.883
 5804SOL    HW217973   2.209   2.906   7.868
 5805SOL     OW17974   2.407   2.398   8.309
 5805SOL    HW117975   2.425   2.457   8.236
 5805SOL    HW217976   2.473   2.420   8.375
 5806SOL     OW17977   3.109   3.211   7.838
 5806SOL    HW117978   3.166   3.282   7.869
 5806SOL    HW217979   3.022   3.232   7.871
 5807SOL     OW17980   3.146   3.322   8.596
 5807SOL    HW117981   3.203   3.326   8.673
 5807SOL    HW217982   3.091   3.245   8.611
 5808SOL     OW17983   3.442   2.482   7.932
 5808SOL    HW117984   3.392   2.535   7.993
 5808SOL    HW217985   3.481   2.544   7.871
 5809SOL     OW17986   2.207   3.392   8.760
 5809SOL    HW117987   2.196   3.347   8.676
 5809SOL    HW217988   2.302   3.402   8.769
 5810SOL     OW17989   2.276   2.610   9.051
 5810SOL    HW117990   2.341   2.651   8.993
 5810SOL    HW217991   2.314   2.524   9.071
 5811SOL     OW17992   3.466   2.641   9.131
 5811SOL    HW117993   3.381   2.683   9.125
 5811SOL    HW217994   3.519   2.684   9.063
 5812SOL     OW17995   2.857   1.990   9.199
 5812SOL    HW117996   2.916   2.062   9.177
 5812SOL    HW217997   2.905   1.911   9.175
 5813SOL     OW17998   2.371   1.906   9.201
 5813SOL    HW117999   2.314   1.856   9.142
 5813SOL    HW218000   2.328   1.991   9.210
 5814SOL     OW18001   2.443   2.736   8.478
 5814SOL    HW118002   2.478   2.825   8.480
 5814SOL    HW218003   2.389   2.729   8.557
 5815SOL     OW18004   3.216   2.721   8.475
 5815SOL    HW118005   3.133   2.709   8.428
 5815SOL    HW218006   3.260   2.636   8.467
 5816SOL     OW18007   3.070   2.396   7.711
 5816SOL    HW118008   3.076   2.316   7.763
 5816SOL    HW218009   3.021   2.457   7.767
 5817SOL     OW18010   2.232   2.054   8.734
 5817SOL    HW118011   2.148   2.075   8.774
 5817SOL    HW218012   2.227   1.961   8.713
 5818SOL     OW18013   1.909   3.173   8.723
 5818SOL    HW118014   1.941   3.118   8.795
 5818SOL    HW218015   1.915   3.262   8.757
 5819SOL     OW18016   2.581   2.490   8.501
 5819SOL    HW118017   2.659   2.475   8.448
 5819SOL    HW218018   2.557   2.581   8.483
 5820SOL     OW18019   3.593   2.821   9.309
 5820SOL    HW118020   3.552   2.757   9.251
 5820SOL    HW218021   3.529   2.835   9.379
 5821SOL     OW18022   3.483   2.238   7.812
 5821SOL    HW118023   3.509   2.173   7.877
 5821SOL    HW218024   3.459   2.315   7.864
 5822SOL     OW18025   2.888   2.620   8.407
 5822SOL    HW118026   2.884   2.637   8.501
 5822SOL    HW218027   2.863   2.528   8.399
 5823SOL     OW18028   2.847   3.430   9.168
 5823SOL    HW118029   2.828   3.471   9.084
 5823SOL    HW218030   2.889   3.347   9.146
 5824SOL     OW18031   3.705   3.361   9.046
 5824SOL    HW118032   3.729   3.390   8.958
 5824SOL    HW218033   3.785   3.371   9.097
 5825SOL     OW18034   2.214   2.778   9.259
 5825SOL    HW118035   2.297   2.798   9.303
 5825SOL    HW218036   2.238   2.717   9.190
 5826SOL     OW18037   3.392   2.134   7.575
 5826SOL    HW118038   3.325   2.071   7.602
 5826SOL    HW218039   3.424   2.170   7.658
 5827SOL     OW18040   3.152   2.688   7.479
 5827SOL    HW118041   3.194   2.602   7.482
 5827SOL    HW218042   3.183   2.727   7.398
 5828SOL     OW18043   2.929   3.199   8.303
 5828SOL    HW118044   2.933   3.126   8.240
 5828SOL    HW218045   2.989   3.264   8.268
 5829SOL     OW18046   2.170   2.670   8.389
 5829SOL    HW118047   2.262   2.694   8.390
 5829SOL    HW218048   2.167   2.583   8.429
 5830SOL     OW18049   2.184   2.365   8.457
 5830SOL    HW118050   2.151   2.283   8.420
 5830SOL    HW218051   2.263   2.383   8.407
 5831SOL     OW18052   2.996   2.237   9.131
 5831SOL    HW118053   2.948   2.291   9.194
 5831SOL    HW218054   3.083   2.276   9.128
 5832SOL     OW18055   3.022   2.063   8.918
 5832SOL    HW118056   3.011   2.125   8.990
 5832SOL    HW218057   3.064   2.114   8.849
 5833SOL     OW18058   1.869   3.182   7.639
 5833SOL    HW118059   1.781   3.199   7.604
 5833SOL    HW218060   1.863   3.094   7.676
 5834SOL     OW18061   1.958   3.640   8.386
 5834SOL    HW118062   1.928   3.562   8.340
 5834SOL    HW218063   2.044   3.659   8.346
 5835SOL     OW18064   2.356   3.438   8.353
 5835SOL    HW118065   2.423   3.501   8.378
 5835SOL    HW218066   2.401   3.375   8.297
 5836SOL     OW18067   2.840   2.651   8.673
 5836SOL    HW118068   2.901   2.631   8.745
 5836SOL    HW218069   2.756   2.616   8.703
 5837SOL     OW18070   1.903   2.396   8.565
 5837SOL    HW118071   1.988   2.401   8.521
 5837SOL    HW218072   1.923   2.410   8.658
 5838SOL     OW18073   2.073   2.382   9.179
 5838SOL    HW118074   2.128   2.354   9.106
 5838SOL    HW218075   2.011   2.443   9.139
 5839SOL     OW18076   3.241   2.799   9.106
 5839SOL    HW118077   3.262   2.892   9.103
 5839SOL    HW218078   3.237   2.772   9.014
 5840SOL     OW18079   2.684   2.427   7.810
 5840SOL    HW118080   2.698   2.358   7.745
 5840SOL    HW218081   2.607   2.474   7.778
 5841SOL     OW18082   3.502   2.464   8.632
 5841SOL    HW118083   3.491   2.403   8.705
 5841SOL    HW218084   3.588   2.442   8.596
 5842SOL     OW18085   2.104   3.411   9.173
 5842SOL    HW118086   2.081   3.477   9.238
 5842SOL    HW218087   2.108   3.329   9.222
 5843SOL     OW18088   2.563   2.316   8.709
 5843SOL    HW118089   2.525   2.236   8.674
 5843SOL    HW218090   2.559   2.378   8.636
 5844SOL     OW18091   2.789   3.534   8.917
 5844SOL    HW118092   2.763   3.496   8.833
 5844SOL    HW218093   2.781   3.628   8.904
 5845SOL     OW18094   2.006   3.004   8.921
 5845SOL    HW118095   2.007   2.954   9.003
 5845SOL    HW218096   2.024   2.939   8.853
 5846SOL     OW18097   3.184   2.907   8.670
 5846SOL    HW118098   3.207   2.844   8.602
 5846SOL    HW218099   3.116   2.961   8.630
 5847SOL     OW18100   3.174   2.720   7.754
 5847SOL    HW118101   3.099   2.685   7.804
 5847SOL    HW218102   3.151   2.705   7.663
 5848SOL     OW18103   3.639   3.603   8.603
 5848SOL    HW118104   3.697   3.629   8.531
 5848SOL    HW218105   3.612   3.514   8.580
 5849SOL     OW18106   3.106   3.595   8.557
 5849SOL    HW118107   3.189   3.617   8.514
 5849SOL    HW218108   3.112   3.502   8.577
 5850SOL     OW18109   1.948   3.128   8.459
 5850SOL    HW118110   1.933   3.142   8.553
 5850SOL    HW218111   1.875   3.074   8.430
 5851SOL     OW18112   2.541   3.527   9.181
 5851SOL    HW118113   2.484   3.604   9.185
 5851SOL    HW218114   2.601   3.545   9.109
 5852SOL     OW18115   3.573   2.012   7.961
 5852SOL    HW118116   3.641   2.000   7.894
 5852SOL    HW218117   3.562   1.926   8.000
 5853SOL     OW18118   3.252   3.430   7.936
 5853SOL    HW118119   3.311   3.464   7.868
 5853SOL    HW218120   3.204   3.508   7.966
 5854SOL     OW18121   1.996   3.652   9.287
 5854SOL    HW118122   1.944   3.588   9.335
 5854SOL    HW218123   2.045   3.700   9.354
 5855SOL     OW18124   3.138   2.788   8.119
 5855SOL    HW118125   3.212   2.728   8.129
 5855SOL    HW218126   3.172   2.860   8.066
 5856SOL     OW18127   2.672   3.136   8.876
 5856SOL    HW118128   2.644   3.176   8.958
 5856SOL    HW218129   2.603   3.159   8.814
 5857SOL     OW18130   2.537   3.479   7.606
 5857SOL    HW118131   2.546   3.497   7.512
 5857SOL    HW218132   2.478   3.404   7.610
 5858SOL     OW18133   3.481   3.589   8.838
 5858SOL    HW118134   3.537   3.592   8.760
 5858SOL    HW218135   3.469   3.680   8.862
 5859SOL     OW18136   3.700   2.043   8.415
 5859SOL    HW118137   3.731   1.956   8.390
 5859SOL    HW218138   3.614   2.051   8.374
 5860SOL     OW18139   3.069   3.466   7.484
 5860SOL    HW118140   3.059   3.374   7.508
 5860SOL    HW218141   3.009   3.478   7.411
 5861SOL     OW18142   2.686   2.868   8.821
 5861SOL    HW118143   2.732   2.864   8.737
 5861SOL    HW218144   2.684   2.961   8.842
 5862SOL     OW18145   2.779   2.776   7.739
 5862SOL    HW118146   2.840   2.808   7.672
 5862SOL    HW218147   2.827   2.705   7.782
 5863SOL     OW18148   3.350   3.495   7.490
 5863SOL    HW118149   3.256   3.481   7.474
 5863SOL    HW218150   3.389   3.499   7.403
 5864SOL     OW18151   2.231   3.165   8.939
 5864SOL    HW118152   2.217   3.243   8.884
 5864SOL    HW218153   2.154   3.111   8.924
 5865SOL     OW18154   3.462   3.141   8.725
 5865SOL    HW118155   3.532   3.133   8.791
 5865SOL    HW218156   3.406   3.211   8.758
 5866SOL     OW18157   2.917   2.970   8.156
 5866SOL    HW118158   2.846   2.918   8.194
 5866SOL    HW218159   2.981   2.906   8.127
 5867SOL     OW18160   2.882   2.102   8.413
 5867SOL    HW118161   2.876   2.054   8.331
 5867SOL    HW218162   2.879   2.034   8.481
 5868SOL     OW18163   2.465   3.351   7.928
 5868SOL    HW118164   2.513   3.301   7.862
 5868SOL    HW218165   2.398   3.399   7.878
 5869SOL     OW18166   3.586   2.251   8.827
 5869SOL    HW118167   3.658   2.315   8.823
 5869SOL    HW218168   3.615   2.179   8.770
 5870SOL     OW18169   2.122   3.202   7.741
 5870SOL    HW118170   2.030   3.204   7.715
 5870SOL    HW218171   2.123   3.243   7.827
 5871SOL     OW18172   1.975   2.887   9.169
 5871SOL    HW118173   1.898   2.863   9.220
 5871SOL    HW218174   2.049   2.848   9.215
 5872SOL     OW18175   2.541   2.058   8.948
 5872SOL    HW118176   2.625   2.036   8.909
 5872SOL    HW218177   2.562   2.089   9.036
 5873SOL     OW18178   3.288   2.720   8.847
 5873SOL    HW118179   3.239   2.782   8.793
 5873SOL    HW218180   3.377   2.722   8.810
 5874SOL     OW18181   3.040   3.199   7.565
 5874SOL    HW118182   2.950   3.166   7.567
 5874SOL    HW218183   3.067   3.198   7.657
 5875SOL     OW18184   2.481   2.692   8.881
 5875SOL    HW118185   2.537   2.769   8.867
 5875SOL    HW218186   2.542   2.620   8.890
 5876SOL     OW18187   3.347   3.643   8.431
 5876SOL    HW118188   3.371   3.697   8.355
 5876SOL    HW218189   3.431   3.612   8.465
 5877SOL     OW18190   2.580   2.421   9.150
 5877SOL    HW118191   2.621   2.483   9.209
 5877SOL    HW218192   2.603   2.335   9.184
 5878SOL     OW18193   3.335   3.060   9.078
 5878SOL    HW118194   3.324   3.074   9.172
 5878SOL    HW218195   3.428   3.075   9.062
 5879SOL     OW18196   2.237   3.602   9.013
 5879SOL    HW118197   2.152   3.644   8.997
 5879SOL    HW218198   2.215   3.519   9.054
 5880SOL     OW18199   3.527   2.742   8.707
 5880SOL    HW118200   3.525   2.657   8.664
 5880SOL    HW218201   3.520   2.805   8.635
 5881SOL     OW18202   3.094   2.193   7.901
 5881SOL    HW118203   3.147   2.113   7.897
 5881SOL    HW218204   3.122   2.237   7.981
 5882SOL     OW18205   2.448   2.595   8.119
 5882SOL    HW118206   2.499   2.675   8.112
 5882SOL    HW218207   2.377   2.606   8.055
 5883SOL     OW18208   3.621   2.228   9.098
 5883SOL    HW118209   3.604   2.241   9.005
 5883SOL    HW218210   3.551   2.169   9.127
 5884SOL     OW18211   3.618   2.790   8.961
 5884SOL    HW118212   3.609   2.884   8.979
 5884SOL    HW218213   3.594   2.781   8.869
 5885SOL     OW18214   2.723   3.230   7.486
 5885SOL    HW118215   2.684   3.261   7.568
 5885SOL    HW218216   2.742   3.309   7.436
 5886SOL     OW18217   2.522   3.651   8.387
 5886SOL    HW118218   2.501   3.742   8.366
 5886SOL    HW218219   2.618   3.646   8.383
 5887SOL     OW18220   2.729   2.829   8.303
 5887SOL    HW118221   2.781   2.759   8.341
 5887SOL    HW218222   2.695   2.877   8.378
 5888SOL     OW18223   2.941   2.854   7.537
 5888SOL    HW118224   2.919   2.902   7.457
 5888SOL    HW218225   3.014   2.797   7.512
 5889SOL     OW18226   3.712   3.417   8.289
 5889SOL    HW118227   3.633   3.397   8.238
 5889SOL    HW218228   3.716   3.348   8.356
 5890SOL     OW18229   2.088   3.163   9.303
 5890SOL    HW118230   2.022   3.101   9.272
 5890SOL    HW218231   2.068   3.175   9.396
 5891SOL     OW18232   1.947   3.093   8.114
 5891SOL    HW118233   1.950   3.047   8.198
 5891SOL    HW218234   2.018   3.053   8.063
 5892SOL     OW18235   2.545   3.266   9.078
 5892SOL    HW118236   2.465   3.224   9.109
 5892SOL    HW218237   2.542   3.354   9.115
 5893SOL     OW18238   3.674   2.040   8.686
 5893SOL    HW118239   3.667   1.944   8.689
 5893SOL    HW218240   3.689   2.060   8.594
 5894SOL     OW18241   3.557   3.352   8.545
 5894SOL    HW118242   3.479   3.327   8.496
 5894SOL    HW218243   3.570   3.281   8.607
 5895SOL     OW18244   2.196   2.414   8.739
 5895SOL    HW118245   2.242   2.357   8.799
 5895SOL    HW218246   2.213   2.376   8.652
 5896SOL     OW18247   2.690   3.441   8.125
 5896SOL    HW118248   2.674   3.493   8.046
 5896SOL    HW218249   2.616   3.381   8.130
 5897SOL     OW18250   3.292   2.090   8.565
 5897SOL    HW118251   3.315   2.007   8.608
 5897SOL    HW218252   3.242   2.138   8.631
 5898SOL     OW18253   2.871   1.879   8.587
 5898SOL    HW118254   2.818   1.810   8.546
 5898SOL    HW218255   2.959   1.842   8.590
 5899SOL     OW18256   2.634   3.195   7.769
 5899SOL    HW118257   2.605   3.104   7.774
 5899SOL    HW218258   2.718   3.197   7.814
 5900SOL     OW18259   2.482   3.415   8.733
 5900SOL    HW118260   2.482   3.497   8.783
 5900SOL    HW218261   2.570   3.409   8.696
 5901SOL     OW18262   3.215   1.918   7.617
 5901SOL    HW118263   3.239   1.854   7.550
 5901SOL    HW218264   3.125   1.894   7.641
 5902SOL     OW18265   3.162   2.326   8.132
 5902SOL    HW118266   3.108   2.405   8.137
 5902SOL    HW218267   3.156   2.288   8.219
 5903SOL     OW18268   3.444   2.060   8.326
 5903SOL    HW118269   3.387   2.085   8.400
 5903SOL    HW218270   3.446   2.138   8.270
 5904SOL     OW18271   1.903   2.932   7.749
 5904SOL    HW118272   1.999   2.932   7.747
 5904SOL    HW218273   1.880   2.843   7.774
 5905SOL     OW18274   2.748   3.521   7.791
 5905SOL    HW118275   2.677   3.502   7.730
 5905SOL    HW218276   2.717   3.596   7.841
 5906SOL     OW18277   2.086   2.476   9.438
 5906SOL    HW118278   1.995   2.483   9.467
 5906SOL    HW218279   2.080   2.450   9.346
 5907SOL     OW18280   1.856   2.290   9.931
 5907SOL    HW118281   1.771   2.288   9.974
 5907SOL    HW218282   1.854   2.215   9.871
 5908SOL     OW18283   2.429   3.154  10.488
 5908SOL    HW118284   2.342   3.159  10.448
 5908SOL    HW218285   2.445   3.242  10.522
 5909SOL     OW18286   3.425   3.374  10.019
 5909SOL    HW118287   3.383   3.351  10.102
 5909SOL    HW218288   3.354   3.377   9.955
 5910SOL     OW18289   2.992   2.561  10.008
 5910SOL    HW118290   3.041   2.641   9.995
 5910SOL    HW218291   2.946   2.574  10.091
 5911SOL     OW18292   3.629   2.468   9.539
 5911SOL    HW118293   3.609   2.460   9.446
 5911SOL    HW218294   3.595   2.388   9.578
 5912SOL     OW18295   2.613   3.002  10.354
 5912SOL    HW118296   2.545   3.038  10.411
 5912SOL    HW218297   2.651   3.078  10.310
 5913SOL     OW18298   2.731   2.630  11.132
 5913SOL    HW118299   2.719   2.701  11.196
 5913SOL    HW218300   2.755   2.675  11.051
 5914SOL     OW18301   2.548   2.861   9.956
 5914SOL    HW118302   2.613   2.852  10.025
 5914SOL    HW218303   2.479   2.915   9.995
 5915SOL     OW18304   2.574   3.012  11.125
 5915SOL    HW118305   2.622   3.090  11.154
 5915SOL    HW218306   2.493   3.046  11.088
 5916SOL     OW18307   2.193   3.283  10.377
 5916SOL    HW118308   2.119   3.246  10.329
 5916SOL    HW218309   2.240   3.336  10.312
 5917SOL     OW18310   3.321   3.363  10.667
 5917SOL    HW118311   3.375   3.441  10.677
 5917SOL    HW218312   3.255   3.370  10.736
 5918SOL     OW18313   2.293   2.236  10.778
 5918SOL    HW118314   2.383   2.207  10.795
 5918SOL    HW218315   2.239   2.163  10.809
 5919SOL     OW18316   3.472   2.308  10.054
 5919SOL    HW118317   3.399   2.330   9.995
 5919SOL    HW218318   3.484   2.386  10.107
 5920SOL     OW18319   2.083   3.578   9.789
 5920SOL    HW118320   2.114   3.638   9.857
 5920SOL    HW218321   2.155   3.575   9.725
 5921SOL     OW18322   2.999   3.204  11.004
 5921SOL    HW118323   3.040   3.197  11.090
 5921SOL    HW218324   2.947   3.124  10.996
 5922SOL     OW18325   2.091   3.304   9.846
 5922SOL    HW118326   2.074   3.398   9.850
 5922SOL    HW218327   2.033   3.266   9.911
 5923SOL     OW18328   2.123   2.954  10.201
 5923SOL    HW118329   2.119   2.867  10.241
 5923SOL    HW218330   2.065   3.008  10.255
 5924SOL     OW18331   2.470   3.648  10.738
 5924SOL    HW118332   2.389   3.633  10.786
 5924SOL    HW218333   2.496   3.737  10.763
 5925SOL     OW18334   2.445   2.845   9.446
 5925SOL    HW118335   2.492   2.892   9.378
 5925SOL    HW218336   2.484   2.877   9.528
 5926SOL     OW18337   3.457   1.988  10.776
 5926SOL    HW118338   3.471   2.069  10.728
 5926SOL    HW218339   3.442   2.015  10.866
 5927SOL     OW18340   1.985   2.524   9.870
 5927SOL    HW118341   1.946   2.439   9.888
 5927SOL    HW218342   1.974   2.573   9.952
 5928SOL     OW18343   3.700   3.613   9.652
 5928SOL    HW118344   3.771   3.588   9.711
 5928SOL    HW218345   3.719   3.704   9.628
 5929SOL     OW18346   1.892   3.453   9.432
 5929SOL    HW118347   1.877   3.361   9.453
 5929SOL    HW218348   1.871   3.500   9.512
 5930SOL     OW18349   3.550   2.782   9.956
 5930SOL    HW118350   3.633   2.738   9.938
 5930SOL    HW218351   3.531   2.830   9.876
 5931SOL     OW18352   3.503   2.966   9.741
 5931SOL    HW118353   3.588   2.971   9.698
 5931SOL    HW218354   3.510   3.029   9.813
 5932SOL     OW18355   1.982   2.604  10.895
 5932SOL    HW118356   2.074   2.629  10.905
 5932SOL    HW218357   1.934   2.686  10.904
 5933SOL     OW18358   2.477   3.251  10.045
 5933SOL    HW118359   2.432   3.167  10.054
 5933SOL    HW218360   2.460   3.278   9.954
 5934SOL     OW18361   3.149   3.099  10.733
 5934SOL    HW118362   3.181   3.032  10.672
 5934SOL    HW218363   3.208   3.094  10.808
 5935SOL     OW18364   2.676   1.865   9.819
 5935SOL    HW118365   2.716   1.949   9.798
 5935SOL    HW218366   2.582   1.884   9.826
 5936SOL     OW18367   2.052   2.828  10.584
 5936SOL    HW118368   2.136   2.785  10.569
 5936SOL    HW218369   1.989   2.773  10.536
 5937SOL     OW18370   3.390   2.858   9.510
 5937SOL    HW118371   3.321   2.801   9.544
 5937SOL    HW218372   3.432   2.893   9.589
 5938SOL     OW18373   3.080   3.666  10.937
 5938SOL    HW118374   3.056   3.726  10.867
 5938SOL    HW218375   3.081   3.580  10.895
 5939SOL     OW18376   2.266   2.166  11.117
 5939SOL    HW118377   2.315   2.230  11.168
 5939SOL    HW218378   2.175   2.194  11.125
 5940SOL     OW18379   3.327   3.282  10.259
 5940SOL    HW118380   3.261   3.297  10.326
 5940SOL    HW218381   3.316   3.191  10.233
 5941SOL     OW18382   3.509   3.606   9.890
 5941SOL    HW118383   3.501   3.572   9.801
 5941SOL    HW218384   3.492   3.531   9.947
 5942SOL     OW18385   2.457   2.582   9.578
 5942SOL    HW118386   2.462   2.664   9.529
 5942SOL    HW218387   2.392   2.598   9.646
 5943SOL     OW18388   3.140   2.220  10.243
 5943SOL    HW118389   3.051   2.185  10.252
 5943SOL    HW218390   3.192   2.167  10.303
 5944SOL     OW18391   3.436   3.538   9.618
 5944SOL    HW118392   3.528   3.562   9.614
 5944SOL    HW218393   3.412   3.518   9.528
 5945SOL     OW18394   2.653   2.480  10.759
 5945SOL    HW118395   2.629   2.455  10.848
 5945SOL    HW218396   2.615   2.411  10.703
 5946SOL     OW18397   3.255   2.336  10.988
 5946SOL    HW118398   3.259   2.380  11.073
 5946SOL    HW218399   3.314   2.261  10.998
 5947SOL     OW18400   2.814   2.748  10.894
 5947SOL    HW118401   2.869   2.679  10.857
 5947SOL    HW218402   2.767   2.784  10.819
 5948SOL     OW18403   2.855   2.275  10.547
 5948SOL    HW118404   2.768   2.293  10.581
 5948SOL    HW218405   2.839   2.229  10.464
 5949SOL     OW18406   2.914   2.560   9.735
 5949SOL    HW118407   2.931   2.554   9.829
 5949SOL    HW218408   2.831   2.515   9.723
 5950SOL     OW18409   1.950   2.686  10.088
 5950SOL    HW118410   2.031   2.680  10.139
 5950SOL    HW218411   1.906   2.763  10.123
 5951SOL     OW18412   1.983   3.708  10.887
 5951SOL    HW118413   1.986   3.688  10.980
 5951SOL    HW218414   1.890   3.704  10.864
 5952SOL     OW18415   2.758   2.215   9.508
 5952SOL    HW118416   2.800   2.273   9.445
 5952SOL    HW218417   2.756   2.130   9.464
 5953SOL     OW18418   3.571   2.435  11.139
 5953SOL    HW118419   3.533   2.509  11.090
 5953SOL    HW218420   3.596   2.372  11.071
 5954SOL     OW18421   3.239   3.003   9.850
 5954SOL    HW118422   3.319   2.991   9.799
 5954SOL    HW218423   3.187   3.066   9.799
 5955SOL     OW18424   2.413   2.053  10.202
 5955SOL    HW118425   2.409   2.072  10.296
 5955SOL    HW218426   2.430   2.138  10.161
 5956SOL     OW18427   2.866   3.307   9.781
 5956SOL    HW118428   2.829   3.381   9.732
 5956SOL    HW218429   2.845   3.326   9.872
 5957SOL     OW18430   2.213   3.673  10.149
 5957SOL    HW118431   2.263   3.594  10.168
 5957SOL    HW218432   2.272   3.745  10.172
 5958SOL     OW18433   3.667   2.923  10.177
 5958SOL    HW118434   3.614   2.897  10.102
 5958SOL    HW218435   3.605   2.926  10.250
 5959SOL     OW18436   3.089   3.399  10.822
 5959SOL    HW118437   3.076   3.327  10.883
 5959SOL    HW218438   3.022   3.386  10.755
 5960SOL     OW18439   2.180   2.821   9.563
 5960SOL    HW118440   2.262   2.841   9.517
 5960SOL    HW218441   2.149   2.740   9.523
 5961SOL     OW18442   3.342   2.608  10.036
 5961SOL    HW118443   3.336   2.566  10.121
 5961SOL    HW218444   3.420   2.663  10.041
 5962SOL     OW18445   2.330   3.127  11.047
 5962SOL    HW118446   2.303   3.132  10.955
 5962SOL    HW218447   2.247   3.125  11.096
 5963SOL     OW18448   2.976   3.643   9.532
 5963SOL    HW118449   2.912   3.597   9.586
 5963SOL    HW218450   3.006   3.577   9.469
 5964SOL     OW18451   3.486   3.247   9.399
 5964SOL    HW118452   3.443   3.330   9.381
 5964SOL    HW218453   3.420   3.181   9.379
 5965SOL     OW18454   2.329   3.597   9.635
 5965SOL    HW118455   2.367   3.662   9.694
 5965SOL    HW218456   2.402   3.572   9.578
 5966SOL     OW18457   3.263   1.969   9.746
 5966SOL    HW118458   3.255   1.944   9.654
 5966SOL    HW218459   3.357   1.975   9.762
 5967SOL     OW18460   2.122   3.653  10.533
 5967SOL    HW118461   2.169   3.584  10.579
 5967SOL    HW218462   2.107   3.619  10.445
 5968SOL     OW18463   2.800   3.563  10.209
 5968SOL    HW118464   2.877   3.511  10.231
 5968SOL    HW218465   2.756   3.513  10.140
 5969SOL     OW18466   2.257   2.556   9.785
 5969SOL    HW118467   2.276   2.463   9.797
 5969SOL    HW218468   2.163   2.565   9.802
 5970SOL     OW18469   3.395   2.087  11.035
 5970SOL    HW118470   3.405   2.107  11.128
 5970SOL    HW218471   3.327   2.020  11.032
 5971SOL     OW18472   2.514   1.983   9.421
 5971SOL    HW118473   2.573   1.909   9.434
 5971SOL    HW218474   2.454   1.954   9.352
 5972SOL     OW18475   2.627   2.140  11.066
 5972SOL    HW118476   2.705   2.086  11.063
 5972SOL    HW218477   2.578   2.108  11.142
 5973SOL     OW18478   2.738   3.383  10.505
 5973SOL    HW118479   2.721   3.347  10.418
 5973SOL    HW218480   2.808   3.328  10.540
 5974SOL     OW18481   3.202   2.451  10.743
 5974SOL    HW118482   3.233   2.420  10.828
 5974SOL    HW218483   3.238   2.539  10.734
 5975SOL     OW18484   2.679   3.254  10.253
 5975SOL    HW118485   2.763   3.242  10.209
 5975SOL    HW218486   2.615   3.258  10.181
 5976SOL     OW18487   2.789   2.370  10.212
 5976SOL    HW118488   2.765   2.362  10.120
 5976SOL    HW218489   2.822   2.283  10.236
 5977SOL     OW18490   2.408   1.928   9.813
 5977SOL    HW118491   2.349   1.942   9.887
 5977SOL    HW218492   2.394   2.004   9.757
 5978SOL     OW18493   3.290   3.062   9.350
 5978SOL    HW118494   3.320   2.986   9.401
 5978SOL    HW218495   3.204   3.082   9.388
 5979SOL     OW18496   2.802   2.111   9.768
 5979SOL    HW118497   2.777   2.150   9.684
 5979SOL    HW218498   2.897   2.124   9.774
 5980SOL     OW18499   2.943   2.544  10.769
 5980SOL    HW118500   2.877   2.475  10.773
 5980SOL    HW218501   3.026   2.497  10.763
 5981SOL     OW18502   3.083   3.433  10.104
 5981SOL    HW118503   3.099   3.500  10.038
 5981SOL    HW218504   3.153   3.445  10.168
 5982SOL     OW18505   2.333   3.013  10.040
 5982SOL    HW118506   2.265   2.994  10.105
 5982SOL    HW218507   2.291   2.998   9.956
 5983SOL     OW18508   3.128   3.657   9.918
 5983SOL    HW118509   3.174   3.721   9.865
 5983SOL    HW218510   3.055   3.705   9.957
 5984SOL     OW18511   2.885   2.401   9.334
 5984SOL    HW118512   2.842   2.484   9.315
 5984SOL    HW218513   2.951   2.422   9.401
 5985SOL     OW18514   1.939   2.423  10.696
 5985SOL    HW118515   2.032   2.420  10.675
 5985SOL    HW218516   1.933   2.488  10.766
 5986SOL     OW18517   2.412   2.082  10.480
 5986SOL    HW118518   2.463   2.005  10.507
 5986SOL    HW218519   2.330   2.074  10.529
 5987SOL     OW18520   2.725   2.319   9.949
 5987SOL    HW118521   2.685   2.376   9.884
 5987SOL    HW218522   2.751   2.240   9.901
 5988SOL     OW18523   2.875   1.917  10.061
 5988SOL    HW118524   2.820   1.909   9.983
 5988SOL    HW218525   2.854   1.841  10.114
 5989SOL     OW18526   3.301   3.024  10.167
 5989SOL    HW118527   3.231   2.959  10.166
 5989SOL    HW218528   3.327   3.033  10.075
 5990SOL     OW18529   3.327   2.470  10.283
 5990SOL    HW118530   3.275   2.390  10.285
 5990SOL    HW218531   3.386   2.463  10.358
 5991SOL     OW18532   3.723   2.678   9.685
 5991SOL    HW118533   3.767   2.623   9.749
 5991SOL    HW218534   3.686   2.617   9.621
 5992SOL     OW18535   2.352   3.281   9.463
 5992SOL    HW118536   2.277   3.253   9.516
 5992SOL    HW218537   2.340   3.237   9.379
 5993SOL     OW18538   3.529   3.127   9.954
 5993SOL    HW118539   3.624   3.129   9.963
 5993SOL    HW218540   3.501   3.216   9.975
 5994SOL     OW18541   3.256   2.434   9.382
 5994SOL    HW118542   3.194   2.414   9.452
 5994SOL    HW218543   3.340   2.402   9.414
 5995SOL     OW18544   2.385   2.127   9.626
 5995SOL    HW118545   2.432   2.076   9.560
 5995SOL    HW218546   2.362   2.208   9.580
 5996SOL     OW18547   3.613   3.096  10.876
 5996SOL    HW118548   3.700   3.061  10.859
 5996SOL    HW218549   3.629   3.186  10.905
 5997SOL     OW18550   2.919   3.214  10.642
 5997SOL    HW118551   2.844   3.184  10.693
 5997SOL    HW218552   2.995   3.173  10.684
 5998SOL     OW18553   3.469   3.491  10.967
 5998SOL    HW118554   3.459   3.524  10.877
 5998SOL    HW218555   3.549   3.440  10.965
 5999SOL     OW18556   2.993   3.068  10.413
 5999SOL    HW118557   2.934   3.106  10.478
 5999SOL    HW218558   2.962   3.102  10.330
 6000SOL     OW18559   3.490   2.958  10.385
 6000SOL    HW118560   3.482   3.019  10.458
 6000SOL    HW218561   3.413   2.974  10.330
 6001SOL     OW18562   2.779   1.958  10.704
 6001SOL    HW118563   2.803   1.939  10.613
 6001SOL    HW218564   2.858   1.997  10.741
 6002SOL     OW18565   2.846   2.977  11.033
 6002SOL    HW118566   2.754   2.993  11.056
 6002SOL    HW218567   2.844   2.899  10.978
 6003SOL     OW18568   2.571   2.924   9.681
 6003SOL    HW118569   2.557   2.905   9.774
 6003SOL    HW218570   2.647   2.870   9.657
 6004SOL     OW18571   2.281   2.676  10.561
 6004SOL    HW118572   2.349   2.688  10.628
 6004SOL    HW218573   2.247   2.588  10.577
 6005SOL     OW18574   3.127   2.238  10.588
 6005SOL    HW118575   3.159   2.316  10.634
 6005SOL    HW218576   3.036   2.260  10.566
 6006SOL     OW18577   1.934   3.435  10.664
 6006SOL    HW118578   1.906   3.510  10.611
 6006SOL    HW218579   2.030   3.437  10.659
 6007SOL     OW18580   2.206   2.975   9.800
 6007SOL    HW118581   2.211   3.049   9.739
 6007SOL    HW218582   2.204   2.898   9.743
 6008SOL     OW18583   2.408   2.396  10.172
 6008SOL    HW118584   2.421   2.454  10.097
 6008SOL    HW218585   2.475   2.422  10.235
 6009SOL     OW18586   3.110   3.211   9.699
 6009SOL    HW118587   3.166   3.282   9.731
 6009SOL    HW218588   3.023   3.232   9.733
 6010SOL     OW18589   3.146   3.322  10.458
 6010SOL    HW118590   3.202   3.325  10.535
 6010SOL    HW218591   3.091   3.245  10.472
 6011SOL     OW18592   3.440   2.482   9.792
 6011SOL    HW118593   3.393   2.534   9.856
 6011SOL    HW218594   3.483   2.546   9.735
 6012SOL     OW18595   2.207   3.391  10.622
 6012SOL    HW118596   2.196   3.347  10.538
 6012SOL    HW218597   2.302   3.402  10.630
 6013SOL     OW18598   2.277   2.610  10.913
 6013SOL    HW118599   2.340   2.652  10.854
 6013SOL    HW218600   2.318   2.527  10.937
 6014SOL     OW18601   3.466   2.641  10.993
 6014SOL    HW118602   3.381   2.683  10.987
 6014SOL    HW218603   3.519   2.684  10.925
 6015SOL     OW18604   2.857   1.990  11.061
 6015SOL    HW118605   2.916   2.062  11.039
 6015SOL    HW218606   2.905   1.911  11.038
 6016SOL     OW18607   2.371   1.907  11.062
 6016SOL    HW118608   2.314   1.856  11.005
 6016SOL    HW218609   2.329   1.992  11.068
 6017SOL     OW18610   2.447   2.735  10.342
 6017SOL    HW118611   2.479   2.825  10.342
 6017SOL    HW218612   2.390   2.730  10.419
 6018SOL     OW18613   3.216   2.721  10.336
 6018SOL    HW118614   3.132   2.709  10.292
 6018SOL    HW218615   3.260   2.636  10.329
 6019SOL     OW18616   3.064   2.390   9.574
 6019SOL    HW118617   3.072   2.312   9.629
 6019SOL    HW218618   3.022   2.454   9.631
 6020SOL     OW18619   1.908   3.173  10.585
 6020SOL    HW118620   1.941   3.118  10.657
 6020SOL    HW218621   1.914   3.262  10.619
 6021SOL     OW18622   2.582   2.489  10.364
 6021SOL    HW118623   2.659   2.475  10.310
 6021SOL    HW218624   2.556   2.580  10.347
 6022SOL     OW18625   3.593   2.821  11.171
 6022SOL    HW118626   3.552   2.757  11.113
 6022SOL    HW218627   3.529   2.835  11.241
 6023SOL     OW18628   3.481   2.238   9.674
 6023SOL    HW118629   3.508   2.173   9.739
 6023SOL    HW218630   3.458   2.315   9.726
 6024SOL     OW18631   2.889   2.620  10.269
 6024SOL    HW118632   2.884   2.637  10.363
 6024SOL    HW218633   2.864   2.528  10.260
 6025SOL     OW18634   2.847   3.430  11.030
 6025SOL    HW118635   2.828   3.471  10.946
 6025SOL    HW218636   2.889   3.347  11.008
 6026SOL     OW18637   3.705   3.361  10.908
 6026SOL    HW118638   3.729   3.390  10.820
 6026SOL    HW218639   3.785   3.371  10.959
 6027SOL     OW18640   2.214   2.779  11.121
 6027SOL    HW118641   2.297   2.798  11.166
 6027SOL    HW218642   2.238   2.717  11.052
 6028SOL     OW18643   3.391   2.134   9.437
 6028SOL    HW118644   3.326   2.069   9.464
 6028SOL    HW218645   3.424   2.170   9.520
 6029SOL     OW18646   3.151   2.687   9.339
 6029SOL    HW118647   3.195   2.602   9.344
 6029SOL    HW218648   3.183   2.726   9.259
 6030SOL     OW18649   2.929   3.199  10.165
 6030SOL    HW118650   2.933   3.126  10.102
 6030SOL    HW218651   2.989   3.264  10.130
 6031SOL     OW18652   2.171   2.673  10.256
 6031SOL    HW118653   2.264   2.695  10.247
 6031SOL    HW218654   2.171   2.585  10.295
 6032SOL     OW18655   2.185   2.365  10.319
 6032SOL    HW118656   2.143   2.293  10.272
 6032SOL    HW218657   2.266   2.382  10.272
 6033SOL     OW18658   2.996   2.237  10.993
 6033SOL    HW118659   2.948   2.291  11.056
 6033SOL    HW218660   3.083   2.276  10.990
 6034SOL     OW18661   3.022   2.063  10.780
 6034SOL    HW118662   3.011   2.125  10.852
 6034SOL    HW218663   3.064   2.113  10.711
 6035SOL     OW18664   1.867   3.181   9.505
 6035SOL    HW118665   1.780   3.196   9.468
 6035SOL    HW218666   1.864   3.091   9.539
 6036SOL     OW18667   1.959   3.641  10.248
 6036SOL    HW118668   1.928   3.562  10.203
 6036SOL    HW218669   2.044   3.659  10.208
 6037SOL     OW18670   2.356   3.438  10.215
 6037SOL    HW118671   2.423   3.501  10.240
 6037SOL    HW218672   2.401   3.375  10.158
 6038SOL     OW18673   2.841   2.651  10.535
 6038SOL    HW118674   2.900   2.631  10.607
 6038SOL    HW218675   2.756   2.616  10.563
 6039SOL     OW18676   1.901   2.397  10.427
 6039SOL    HW118677   1.986   2.402  10.383
 6039SOL    HW218678   1.922   2.410  10.520
 6040SOL     OW18679   2.069   2.383  11.042
 6040SOL    HW118680   2.120   2.353  10.967
 6040SOL    HW218681   2.006   2.445  11.005
 6041SOL     OW18682   3.241   2.799  10.968
 6041SOL    HW118683   3.262   2.892  10.965
 6041SOL    HW218684   3.237   2.772  10.876
 6042SOL     OW18685   2.678   2.432   9.676
 6042SOL    HW118686   2.686   2.358   9.615
 6042SOL    HW218687   2.605   2.483   9.642
 6043SOL     OW18688   3.502   2.464  10.494
 6043SOL    HW118689   3.491   2.403  10.567
 6043SOL    HW218690   3.588   2.442  10.458
 6044SOL     OW18691   2.104   3.411  11.035
 6044SOL    HW118692   2.081   3.477  11.100
 6044SOL    HW218693   2.108   3.329  11.084
 6045SOL     OW18694   2.564   2.309  10.567
 6045SOL    HW118695   2.510   2.236  10.538
 6045SOL    HW218696   2.560   2.372  10.496
 6046SOL     OW18697   2.789   3.534  10.779
 6046SOL    HW118698   2.763   3.496  10.695
 6046SOL    HW218699   2.780   3.628  10.766
 6047SOL     OW18700   2.326   2.355   9.490
 6047SOL    HW118701   2.383   2.427   9.516
 6047SOL    HW218702   2.239   2.396   9.481
 6048SOL     OW18703   2.006   3.004  10.783
 6048SOL    HW118704   2.007   2.954  10.865
 6048SOL    HW218705   2.024   2.939  10.715
 6049SOL     OW18706   3.184   2.907  10.532
 6049SOL    HW118707   3.207   2.844  10.464
 6049SOL    HW218708   3.116   2.961  10.492
 6050SOL     OW18709   3.175   2.718   9.615
 6050SOL    HW118710   3.100   2.687   9.666
 6050SOL    HW218711   3.149   2.704   9.524
 6051SOL     OW18712   3.639   3.603  10.465
 6051SOL    HW118713   3.697   3.629  10.393
 6051SOL    HW218714   3.612   3.514  10.442
 6052SOL     OW18715   3.106   3.595  10.419
 6052SOL    HW118716   3.189   3.617  10.376
 6052SOL    HW218717   3.112   3.502  10.439
 6053SOL     OW18718   1.947   3.128  10.321
 6053SOL    HW118719   1.932   3.142  10.415
 6053SOL    HW218720   1.874   3.074  10.293
 6054SOL     OW18721   2.541   3.527  11.043
 6054SOL    HW118722   2.484   3.604  11.047
 6054SOL    HW218723   2.601   3.545  10.971
 6055SOL     OW18724   3.572   2.012   9.822
 6055SOL    HW118725   3.640   2.000   9.756
 6055SOL    HW218726   3.561   1.926   9.861
 6056SOL     OW18727   3.252   3.430   9.797
 6056SOL    HW118728   3.311   3.464   9.730
 6056SOL    HW218729   3.204   3.508   9.827
 6057SOL     OW18730   1.996   3.652  11.149
 6057SOL    HW118731   1.944   3.588  11.197
 6057SOL    HW218732   2.045   3.700  11.216
 6058SOL     OW18733   3.139   2.788   9.981
 6058SOL    HW118734   3.213   2.728   9.990
 6058SOL    HW218735   3.173   2.860   9.928
 6059SOL     OW18736   2.672   3.136  10.738
 6059SOL    HW118737   2.644   3.176  10.820
 6059SOL    HW218738   2.603   3.159  10.675
 6060SOL     OW18739   2.537   3.479   9.468
 6060SOL    HW118740   2.546   3.497   9.374
 6060SOL    HW218741   2.478   3.404   9.472
 6061SOL     OW18742   3.481   3.589  10.700
 6061SOL    HW118743   3.537   3.592  10.622
 6061SOL    HW218744   3.469   3.680  10.725
 6062SOL     OW18745   3.700   2.043  10.277
 6062SOL    HW118746   3.731   1.956  10.252
 6062SOL    HW218747   3.614   2.051  10.236
 6063SOL     OW18748   3.069   3.466   9.346
 6063SOL    HW118749   3.059   3.374   9.370
 6063SOL    HW218750   3.008   3.479   9.273
 6064SOL     OW18751   2.686   2.868  10.683
 6064SOL    HW118752   2.730   2.864  10.598
 6064SOL    HW218753   2.684   2.961  10.704
 6065SOL     OW18754   2.778   2.772   9.600
 6065SOL    HW118755   2.839   2.805   9.534
 6065SOL    HW218756   2.828   2.704   9.646
 6066SOL     OW18757   3.350   3.494   9.352
 6066SOL    HW118758   3.256   3.481   9.336
 6066SOL    HW218759   3.389   3.498   9.265
 6067SOL     OW18760   2.231   3.166  10.801
 6067SOL    HW118761   2.217   3.243  10.746
 6067SOL    HW218762   2.153   3.111  10.786
 6068SOL     OW18763   3.463   3.141  10.588
 6068SOL    HW118764   3.531   3.133  10.654
 6068SOL    HW218765   3.406   3.211  10.620
 6069SOL     OW18766   2.918   2.970  10.018
 6069SOL    HW118767   2.846   2.919  10.056
 6069SOL    HW218768   2.981   2.905   9.989
 6070SOL     OW18769   2.883   2.102  10.277
 6070SOL    HW118770   2.880   2.055  10.193
 6070SOL    HW218771   2.879   2.034  10.343
 6071SOL     OW18772   2.466   3.353   9.790
 6071SOL    HW118773   2.512   3.301   9.723
 6071SOL    HW218774   2.397   3.398   9.742
 6072SOL     OW18775   3.586   2.251  10.688
 6072SOL    HW118776   3.658   2.315  10.685
 6072SOL    HW218777   3.615   2.179  10.632
 6073SOL     OW18778   2.122   3.205   9.600
 6073SOL    HW118779   2.030   3.203   9.577
 6073SOL    HW218780   2.124   3.244   9.688
 6074SOL     OW18781   1.975   2.887  11.030
 6074SOL    HW118782   1.898   2.863  11.083
 6074SOL    HW218783   2.049   2.848  11.077
 6075SOL     OW18784   2.538   2.060  10.809
 6075SOL    HW118785   2.622   2.038  10.770
 6075SOL    HW218786   2.560   2.090  10.898
 6076SOL     OW18787   3.288   2.720  10.709
 6076SOL    HW118788   3.239   2.782  10.655
 6076SOL    HW218789   3.377   2.722  10.672
 6077SOL     OW18790   3.040   3.199   9.427
 6077SOL    HW118791   2.949   3.169   9.429
 6077SOL    HW218792   3.067   3.199   9.519
 6078SOL     OW18793   2.482   2.692  10.743
 6078SOL    HW118794   2.538   2.769  10.729
 6078SOL    HW218795   2.543   2.619  10.751
 6079SOL     OW18796   3.347   3.643  10.292
 6079SOL    HW118797   3.371   3.697  10.217
 6079SOL    HW218798   3.431   3.612  10.327
 6080SOL     OW18799   2.578   2.422  11.011
 6080SOL    HW118800   2.621   2.484  11.071
 6080SOL    HW218801   2.602   2.336  11.045
 6081SOL     OW18802   3.335   3.060  10.940
 6081SOL    HW118803   3.324   3.074  11.034
 6081SOL    HW218804   3.428   3.075  10.924
 6082SOL     OW18805   2.237   3.602  10.875
 6082SOL    HW118806   2.153   3.644  10.859
 6082SOL    HW218807   2.215   3.519  10.916
 6083SOL     OW18808   3.527   2.742  10.569
 6083SOL    HW118809   3.525   2.657  10.526
 6083SOL    HW218810   3.520   2.805  10.497
 6084SOL     OW18811   3.078   2.181   9.768
 6084SOL    HW118812   3.141   2.109   9.760
 6084SOL    HW218813   3.107   2.230   9.844
 6085SOL     OW18814   2.447   2.597   9.983
 6085SOL    HW118815   2.489   2.682   9.969
 6085SOL    HW218816   2.383   2.590   9.913
 6086SOL     OW18817   3.621   2.228  10.960
 6086SOL    HW118818   3.604   2.241  10.867
 6086SOL    HW218819   3.551   2.169  10.989
 6087SOL     OW18820   3.618   2.790  10.823
 6087SOL    HW118821   3.609   2.884  10.841
 6087SOL    HW218822   3.594   2.781  10.731
 6088SOL     OW18823   2.725   3.229   9.349
 6088SOL    HW118824   2.685   3.257   9.431
 6088SOL    HW218825   2.741   3.310   9.300
 6089SOL     OW18826   2.522   3.651  10.250
 6089SOL    HW118827   2.502   3.742  10.228
 6089SOL    HW218828   2.618   3.646  10.244
 6090SOL     OW18829   2.730   2.831  10.165
 6090SOL    HW118830   2.780   2.759  10.203
 6090SOL    HW218831   2.694   2.878  10.240
 6091SOL     OW18832   2.940   2.851   9.399
 6091SOL    HW118833   2.919   2.902   9.321
 6091SOL    HW218834   3.014   2.796   9.372
 6092SOL     OW18835   3.712   3.417  10.151
 6092SOL    HW118836   3.633   3.397  10.101
 6092SOL    HW218837   3.715   3.349  10.218
 6093SOL     OW18838   2.088   3.163  11.165
 6093SOL    HW118839   2.022   3.101  11.134
 6093SOL    HW218840   2.068   3.175  11.258
 6094SOL     OW18841   1.948   3.093   9.975
 6094SOL    HW118842   1.956   3.047  10.059
 6094SOL    HW218843   2.015   3.054   9.919
 6095SOL     OW18844   2.545   3.266  10.940
 6095SOL    HW118845   2.465   3.224  10.971
 6095SOL    HW218846   2.542   3.354  10.977
 6096SOL     OW18847   3.675   2.040  10.548
 6096SOL    HW118848   3.667   1.945  10.551
 6096SOL    HW218849   3.689   2.060  10.456
 6097SOL     OW18850   2.294   2.293   9.834
 6097SOL    HW118851   2.326   2.233   9.766
 6097SOL    HW218852   2.240   2.239   9.891
 6098SOL     OW18853   3.558   3.352  10.407
 6098SOL    HW118854   3.479   3.328  10.357
 6098SOL    HW218855   3.570   3.281  10.469
 6099SOL     OW18856   2.194   2.417  10.598
 6099SOL    HW118857   2.238   2.355  10.656
 6099SOL    HW218858   2.209   2.382  10.510
 6100SOL     OW18859   2.690   3.441   9.987
 6100SOL    HW118860   2.673   3.493   9.908
 6100SOL    HW218861   2.616   3.380   9.993
 6101SOL     OW18862   3.293   2.090  10.427
 6101SOL    HW118863   3.313   2.007  10.470
 6101SOL    HW218864   3.242   2.138  10.492
 6102SOL     OW18865   2.871   1.879  10.450
 6102SOL    HW118866   2.817   1.812  10.408
 6102SOL    HW218867   2.959   1.841  10.452
 6103SOL     OW18868   2.635   3.195   9.629
 6103SOL    HW118869   2.605   3.104   9.635
 6103SOL    HW218870   2.717   3.196   9.677
 6104SOL     OW18871   2.482   3.415  10.595
 6104SOL    HW118872   2.483   3.497  10.645
 6104SOL    HW218873   2.570   3.409  10.558
 6105SOL     OW18874   3.216   1.915   9.477
 6105SOL    HW118875   3.247   1.847   9.417
 6105SOL    HW218876   3.128   1.888   9.502
 6106SOL     OW18877   3.157   2.324   9.989
 6106SOL    HW118878   3.105   2.404   9.996
 6106SOL    HW218879   3.153   2.286  10.077
 6107SOL     OW18880   3.444   2.060  10.188
 6107SOL    HW118881   3.388   2.084  10.262
 6107SOL    HW218882   3.445   2.138  10.132
 6108SOL     OW18883   1.905   2.931   9.618
 6108SOL    HW118884   1.999   2.923   9.600
 6108SOL    HW218885   1.877   2.842   9.640
 6109SOL     OW18886   2.748   3.521   9.653
 6109SOL    HW118887   2.677   3.502   9.592
 6109SOL    HW218888   2.717   3.596   9.703
 6110SOL     OW18889   2.085   2.477  11.300
 6110SOL    HW118890   1.995   2.483  11.330
 6110SOL    HW218891   2.078   2.450  11.208
 6111SOL     OW18892   1.854   2.290  11.795
 6111SOL    HW118893   1.769   2.290  11.839
 6111SOL    HW218894   1.850   2.215  11.735
 6112SOL     OW18895   2.429   3.154  12.350
 6112SOL    HW118896   2.342   3.159  12.310
 6112SOL    HW218897   2.445   3.242  12.384
 6113SOL     OW18898   3.425   3.374  11.881
 6113SOL    HW118899   3.383   3.351  11.964
 6113SOL    HW218900   3.354   3.377  11.817
 6114SOL     OW18901   2.992   2.561  11.870
 6114SOL    HW118902   3.041   2.641  11.857
 6114SOL    HW218903   2.946   2.574  11.953
 6115SOL     OW18904   3.629   2.468  11.401
 6115SOL    HW118905   3.609   2.460  11.308
 6115SOL    HW218906   3.595   2.388  11.440
 6116SOL     OW18907   2.613   3.002  12.215
 6116SOL    HW118908   2.545   3.038  12.273
 6116SOL    HW218909   2.651   3.078  12.172
 6117SOL     OW18910   2.731   2.631  12.994
 6117SOL    HW118911   2.719   2.702  13.057
 6117SOL    HW218912   2.755   2.675  12.912
 6118SOL     OW18913   2.548   2.860  11.818
 6118SOL    HW118914   2.613   2.852  11.887
 6118SOL    HW218915   2.479   2.915  11.857
 6119SOL     OW18916   2.574   3.012  12.987
 6119SOL    HW118917   2.622   3.090  13.015
 6119SOL    HW218918   2.493   3.046  12.950
 6120SOL     OW18919   2.193   3.283  12.239
 6120SOL    HW118920   2.119   3.246  12.191
 6120SOL    HW218921   2.240   3.336  12.174
 6121SOL     OW18922   3.321   3.363  12.529
 6121SOL    HW118923   3.375   3.441  12.539
 6121SOL    HW218924   3.255   3.370  12.598
 6122SOL     OW18925   2.296   2.236  12.639
 6122SOL    HW118926   2.386   2.208  12.654
 6122SOL    HW218927   2.242   2.167  12.678
 6123SOL     OW18928   3.472   2.308  11.916
 6123SOL    HW118929   3.399   2.330  11.857
 6123SOL    HW218930   3.484   2.386  11.969
 6124SOL     OW18931   2.083   3.578  11.651
 6124SOL    HW118932   2.114   3.638  11.719
 6124SOL    HW218933   2.155   3.575  11.587
 6125SOL     OW18934   2.999   3.204  12.865
 6125SOL    HW118935   3.040   3.198  12.952
 6125SOL    HW218936   2.947   3.124  12.858
 6126SOL     OW18937   2.091   3.304  11.708
 6126SOL    HW118938   2.074   3.398  11.712
 6126SOL    HW218939   2.033   3.266  11.773
 6127SOL     OW18940   2.123   2.954  12.063
 6127SOL    HW118941   2.119   2.867  12.103
 6127SOL    HW218942   2.065   3.008  12.117
 6128SOL     OW18943   2.470   3.648  12.600
 6128SOL    HW118944   2.389   3.633  12.648
 6128SOL    HW218945   2.496   3.737  12.625
 6129SOL     OW18946   2.445   2.845  11.308
 6129SOL    HW118947   2.492   2.892  11.240
 6129SOL    HW218948   2.484   2.876  11.390
 6130SOL     OW18949   3.457   1.988  12.638
 6130SOL    HW118950   3.471   2.069  12.590
 6130SOL    HW218951   3.442   2.015  12.728
 6131SOL     OW18952   1.985   2.524  11.732
 6131SOL    HW118953   1.945   2.438  11.750
 6131SOL    HW218954   1.974   2.573  11.814
 6132SOL     OW18955   3.700   3.613  11.514
 6132SOL    HW118956   3.771   3.588  11.573
 6132SOL    HW218957   3.719   3.704  11.490
 6133SOL     OW18958   1.892   3.453  11.294
 6133SOL    HW118959   1.877   3.361  11.315
 6133SOL    HW218960   1.871   3.500  11.374
 6134SOL     OW18961   3.550   2.782  11.818
 6134SOL    HW118962   3.633   2.738  11.800
 6134SOL    HW218963   3.531   2.831  11.738
 6135SOL     OW18964   3.503   2.966  11.603
 6135SOL    HW118965   3.588   2.971  11.560
 6135SOL    HW218966   3.510   3.029  11.675
 6136SOL     OW18967   1.982   2.604  12.757
 6136SOL    HW118968   2.074   2.629  12.767
 6136SOL    HW218969   1.934   2.686  12.766
 6137SOL     OW18970   2.477   3.251  11.907
 6137SOL    HW118971   2.432   3.167  11.916
 6137SOL    HW218972   2.460   3.278  11.816
 6138SOL     OW18973   3.149   3.099  12.594
 6138SOL    HW118974   3.181   3.032  12.534
 6138SOL    HW218975   3.208   3.094  12.670
 6139SOL     OW18976   2.676   1.865  11.682
 6139SOL    HW118977   2.717   1.949  11.660
 6139SOL    HW218978   2.583   1.884  11.688
 6140SOL     OW18979   2.052   2.828  12.446
 6140SOL    HW118980   2.136   2.785  12.430
 6140SOL    HW218981   1.989   2.773  12.399
 6141SOL     OW18982   3.390   2.858  11.372
 6141SOL    HW118983   3.321   2.801  11.406
 6141SOL    HW218984   3.432   2.893  11.451
 6142SOL     OW18985   3.080   3.666  12.799
 6142SOL    HW118986   3.056   3.726  12.728
 6142SOL    HW218987   3.081   3.580  12.757
 6143SOL     OW18988   2.264   2.167  12.976
 6143SOL    HW118989   2.313   2.227  13.032
 6143SOL    HW218990   2.173   2.196  12.982
 6144SOL     OW18991   3.327   3.282  12.121
 6144SOL    HW118992   3.261   3.297  12.188
 6144SOL    HW218993   3.316   3.191  12.095
 6145SOL     OW18994   3.510   3.606  11.752
 6145SOL    HW118995   3.501   3.572  11.663
 6145SOL    HW218996   3.492   3.531  11.809
 6146SOL     OW18997   2.456   2.581  11.439
 6146SOL    HW118998   2.462   2.663  11.391
 6146SOL    HW218999   2.392   2.597  11.508
 6147SOL     OW19000   3.140   2.220  12.105
 6147SOL    HW119001   3.051   2.185  12.114
 6147SOL    HW219002   3.192   2.167  12.165
 6148SOL     OW19003   3.436   3.538  11.480
 6148SOL    HW119004   3.528   3.562  11.476
 6148SOL    HW219005   3.412   3.518  11.390
 6149SOL     OW19006   2.653   2.480  12.620
 6149SOL    HW119007   2.629   2.455  12.709
 6149SOL    HW219008   2.616   2.411  12.565
 6150SOL     OW19009   3.255   2.336  12.850
 6150SOL    HW119010   3.259   2.380  12.935
 6150SOL    HW219011   3.314   2.261  12.860
 6151SOL     OW19012   2.814   2.748  12.756
 6151SOL    HW119013   2.869   2.679  12.719
 6151SOL    HW219014   2.767   2.784  12.681
 6152SOL     OW19015   2.855   2.274  12.409
 6152SOL    HW119016   2.768   2.293  12.443
 6152SOL    HW219017   2.839   2.229  12.326
 6153SOL     OW19018   2.914   2.560  11.597
 6153SOL    HW119019   2.931   2.554  11.691
 6153SOL    HW219020   2.831   2.515  11.585
 6154SOL     OW19021   1.950   2.686  11.950
 6154SOL    HW119022   2.031   2.680  12.001
 6154SOL    HW219023   1.906   2.763  11.985
 6155SOL     OW19024   1.983   3.709  12.749
 6155SOL    HW119025   1.986   3.688  12.842
 6155SOL    HW219026   1.890   3.704  12.726
 6156SOL     OW19027   2.758   2.214  11.370
 6156SOL    HW119028   2.800   2.273  11.307
 6156SOL    HW219029   2.756   2.130  11.325
 6157SOL     OW19030   3.571   2.436  13.001
 6157SOL    HW119031   3.533   2.509  12.952
 6157SOL    HW219032   3.595   2.373  12.934
 6158SOL     OW19033   3.239   3.003  11.713
 6158SOL    HW119034   3.319   2.991  11.661
 6158SOL    HW219035   3.187   3.066  11.661
 6159SOL     OW19036   2.413   2.053  12.065
 6159SOL    HW119037   2.409   2.072  12.158
 6159SOL    HW219038   2.430   2.138  12.024
 6160SOL     OW19039   2.866   3.307  11.643
 6160SOL    HW119040   2.829   3.381  11.594
 6160SOL    HW219041   2.845   3.326  11.734
 6161SOL     OW19042   2.213   3.673  12.011
 6161SOL    HW119043   2.263   3.594  12.030
 6161SOL    HW219044   2.272   3.745  12.034
 6162SOL     OW19045   3.667   2.923  12.039
 6162SOL    HW119046   3.614   2.897  11.964
 6162SOL    HW219047   3.605   2.926  12.112
 6163SOL     OW19048   3.089   3.399  12.684
 6163SOL    HW119049   3.076   3.327  12.745
 6163SOL    HW219050   3.022   3.386  12.617
 6164SOL     OW19051   2.180   2.821  11.425
 6164SOL    HW119052   2.262   2.840  11.379
 6164SOL    HW219053   2.149   2.740  11.385
 6165SOL     OW19054   3.342   2.608  11.897
 6165SOL    HW119055   3.336   2.566  11.983
 6165SOL    HW219056   3.420   2.663  11.903
 6166SOL     OW19057   2.330   3.127  12.909
 6166SOL    HW119058   2.303   3.132  12.817
 6166SOL    HW219059   2.247   3.125  12.958
 6167SOL     OW19060   2.976   3.643  11.394
 6167SOL    HW119061   2.912   3.597  11.448
 6167SOL    HW219062   3.006   3.577  11.331
 6168SOL     OW19063   3.486   3.247  11.261
 6168SOL    HW119064   3.443   3.330  11.243
 6168SOL    HW219065   3.420   3.181  11.241
 6169SOL     OW19066   2.329   3.597  11.497
 6169SOL    HW119067   2.367   3.662  11.556
 6169SOL    HW219068   2.402   3.572  11.440
 6170SOL     OW19069   3.263   1.969  11.608
 6170SOL    HW119070   3.255   1.944  11.516
 6170SOL    HW219071   3.357   1.975  11.624
 6171SOL     OW19072   2.122   3.653  12.395
 6171SOL    HW119073   2.169   3.584  12.441
 6171SOL    HW219074   2.107   3.619  12.307
 6172SOL     OW19075   2.800   3.563  12.071
 6172SOL    HW119076   2.877   3.511  12.094
 6172SOL    HW219077   2.756   3.513  12.002
 6173SOL     OW19078   2.257   2.557  11.646
 6173SOL    HW119079   2.275   2.464  11.658
 6173SOL    HW219080   2.163   2.565  11.664
 6174SOL     OW19081   3.395   2.087  12.897
 6174SOL    HW119082   3.405   2.107  12.990
 6174SOL    HW219083   3.327   2.020  12.894
 6175SOL     OW19084   2.513   1.983  11.282
 6175SOL    HW119085   2.573   1.909  11.296
 6175SOL    HW219086   2.454   1.954  11.213
 6176SOL     OW19087   2.627   2.140  12.928
 6176SOL    HW119088   2.705   2.086  12.925
 6176SOL    HW219089   2.579   2.109  13.004
 6177SOL     OW19090   2.738   3.383  12.367
 6177SOL    HW119091   2.721   3.347  12.280
 6177SOL    HW219092   2.808   3.328  12.402
 6178SOL     OW19093   3.202   2.451  12.605
 6178SOL    HW119094   3.233   2.420  12.690
 6178SOL    HW219095   3.238   2.539  12.596
 6179SOL     OW19096   2.679   3.254  12.115
 6179SOL    HW119097   2.763   3.242  12.071
 6179SOL    HW219098   2.615   3.258  12.043
 6180SOL     OW19099   2.789   2.370  12.074
 6180SOL    HW119100   2.765   2.362  11.982
 6180SOL    HW219101   2.822   2.283  12.098
 6181SOL     OW19102   2.408   1.928  11.675
 6181SOL    HW119103   2.349   1.941  11.749
 6181SOL    HW219104   2.394   2.004  11.619
 6182SOL     OW19105   3.290   3.062  11.212
 6182SOL    HW119106   3.320   2.986  11.263
 6182SOL    HW219107   3.204   3.082  11.250
 6183SOL     OW19108   2.802   2.111  11.630
 6183SOL    HW119109   2.777   2.150  11.546
 6183SOL    HW219110   2.897   2.124  11.636
 6184SOL     OW19111   2.943   2.544  12.631
 6184SOL    HW119112   2.877   2.475  12.636
 6184SOL    HW219113   3.026   2.497  12.625
 6185SOL     OW19114   3.083   3.432  11.966
 6185SOL    HW119115   3.099   3.500  11.900
 6185SOL    HW219116   3.153   3.445  12.030
 6186SOL     OW19117   2.333   3.013  11.902
 6186SOL    HW119118   2.265   2.994  11.967
 6186SOL    HW219119   2.291   2.998  11.818
 6187SOL     OW19120   3.128   3.657  11.780
 6187SOL    HW119121   3.174   3.721  11.727
 6187SOL    HW219122   3.055   3.705  11.819
 6188SOL     OW19123   2.885   2.401  11.196
 6188SOL    HW119124   2.842   2.484  11.177
 6188SOL    HW219125   2.951   2.422  11.263
 6189SOL     OW19126   1.939   2.423  12.558
 6189SOL    HW119127   2.032   2.420  12.537
 6189SOL    HW219128   1.933   2.488  12.628
 6190SOL     OW19129   2.411   2.082  12.343
 6190SOL    HW119130   2.461   2.006  12.370
 6190SOL    HW219131   2.329   2.076  12.393
 6191SOL     OW19132   2.725   2.319  11.811
 6191SOL    HW119133   2.685   2.376  11.746
 6191SOL    HW219134   2.751   2.240  11.763
 6192SOL     OW19135   2.875   1.917  11.923
 6192SOL    HW119136   2.820   1.909  11.845
 6192SOL    HW219137   2.854   1.841  11.976
 6193SOL     OW19138   3.301   3.024  12.029
 6193SOL    HW119139   3.231   2.959  12.028
 6193SOL    HW219140   3.326   3.033  11.937
 6194SOL     OW19141   3.327   2.470  12.145
 6194SOL    HW119142   3.275   2.390  12.148
 6194SOL    HW219143   3.386   2.463  12.220
 6195SOL     OW19144   3.723   2.678  11.547
 6195SOL    HW119145   3.767   2.623  11.611
 6195SOL    HW219146   3.686   2.617  11.483
 6196SOL     OW19147   2.352   3.281  11.325
 6196SOL    HW119148   2.277   3.253  11.378
 6196SOL    HW219149   2.340   3.237  11.241
 6197SOL     OW19150   3.529   3.127  11.816
 6197SOL    HW119151   3.624   3.129  11.825
 6197SOL    HW219152   3.501   3.216  11.837
 6198SOL     OW19153   3.256   2.434  11.244
 6198SOL    HW119154   3.194   2.414  11.314
 6198SOL    HW219155   3.340   2.402  11.276
 6199SOL     OW19156   2.386   2.127  11.488
 6199SOL    HW119157   2.432   2.076  11.422
 6199SOL    HW219158   2.362   2.208  11.442
 6200SOL     OW19159   3.613   3.096  12.738
 6200SOL    HW119160   3.700   3.061  12.720
 6200SOL    HW219161   3.629   3.186  12.768
 6201SOL     OW19162   2.919   3.214  12.504
 6201SOL    HW119163   2.844   3.184  12.555
 6201SOL    HW219164   2.995   3.174  12.546
 6202SOL     OW19165   3.469   3.491  12.828
 6202SOL    HW119166   3.460   3.524  12.739
 6202SOL    HW219167   3.549   3.440  12.827
 6203SOL     OW19168   2.993   3.068  12.275
 6203SOL    HW119169   2.934   3.106  12.340
 6203SOL    HW219170   2.962   3.102  12.192
 6204SOL     OW19171   3.490   2.958  12.247
 6204SOL    HW119172   3.482   3.019  12.320
 6204SOL    HW219173   3.413   2.974  12.193
 6205SOL     OW19174   2.780   1.958  12.566
 6205SOL    HW119175   2.803   1.939  12.475
 6205SOL    HW219176   2.859   1.997  12.603
 6206SOL     OW19177   2.846   2.977  12.895
 6206SOL    HW119178   2.754   2.993  12.917
 6206SOL    HW219179   2.844   2.899  12.840
 6207SOL     OW19180   2.571   2.924  11.543
 6207SOL    HW119181   2.557   2.905  11.636
 6207SOL    HW219182   2.647   2.870  11.519
 6208SOL     OW19183   2.281   2.676  12.423
 6208SOL    HW119184   2.349   2.688  12.490
 6208SOL    HW219185   2.247   2.588  12.439
 6209SOL     OW19186   3.127   2.238  12.450
 6209SOL    HW119187   3.159   2.316  12.496
 6209SOL    HW219188   3.036   2.260  12.428
 6210SOL     OW19189   1.934   3.435  12.526
 6210SOL    HW119190   1.907   3.510  12.473
 6210SOL    HW219191   2.030   3.436  12.521
 6211SOL     OW19192   2.206   2.975  11.662
 6211SOL    HW119193   2.211   3.049  11.601
 6211SOL    HW219194   2.204   2.898  11.605
 6212SOL     OW19195   2.408   2.396  12.033
 6212SOL    HW119196   2.422   2.454  11.959
 6212SOL    HW219197   2.475   2.422  12.097
 6213SOL     OW19198   3.109   3.211  11.561
 6213SOL    HW119199   3.166   3.282  11.593
 6213SOL    HW219200   3.023   3.232  11.595
 6214SOL     OW19201   3.146   3.322  12.320
 6214SOL    HW119202   3.202   3.325  12.397
 6214SOL    HW219203   3.091   3.245  12.334
 6215SOL     OW19204   3.440   2.482  11.654
 6215SOL    HW119205   3.393   2.534  11.718
 6215SOL    HW219206   3.483   2.546  11.597
 6216SOL     OW19207   2.207   3.392  12.484
 6216SOL    HW119208   2.196   3.347  12.400
 6216SOL    HW219209   2.302   3.402  12.492
 6217SOL     OW19210   2.277   2.610  12.775
 6217SOL    HW119211   2.340   2.652  12.716
 6217SOL    HW219212   2.318   2.527  12.800
 6218SOL     OW19213   3.466   2.641  12.855
 6218SOL    HW119214   3.381   2.684  12.849
 6218SOL    HW219215   3.519   2.684  12.787
 6219SOL     OW19216   2.857   1.990  12.923
 6219SOL    HW119217   2.916   2.062  12.901
 6219SOL    HW219218   2.905   1.911  12.900
 6220SOL     OW19219   2.371   1.906  12.923
 6220SOL    HW119220   2.314   1.855  12.866
 6220SOL    HW219221   2.329   1.992  12.929
 6221SOL     OW19222   2.447   2.735  12.204
 6221SOL    HW119223   2.478   2.825  12.204
 6221SOL    HW219224   2.390   2.730  12.281
 6222SOL     OW19225   3.216   2.721  12.198
 6222SOL    HW119226   3.132   2.709  12.154
 6222SOL    HW219227   3.260   2.636  12.191
 6223SOL     OW19228   3.064   2.390  11.436
 6223SOL    HW119229   3.072   2.312  11.491
 6223SOL    HW219230   3.022   2.454  11.493
 6224SOL     OW19231   1.908   3.173  12.447
 6224SOL    HW119232   1.941   3.118  12.519
 6224SOL    HW219233   1.914   3.262  12.481
 6225SOL     OW19234   2.581   2.489  12.226
 6225SOL    HW119235   2.659   2.476  12.172
 6225SOL    HW219236   2.556   2.580  12.209
 6226SOL     OW19237   3.593   2.820  13.034
 6226SOL    HW119238   3.552   2.757  12.976
 6226SOL    HW219239   3.529   2.834  13.104
 6227SOL     OW19240   3.481   2.238  11.536
 6227SOL    HW119241   3.508   2.173  11.601
 6227SOL    HW219242   3.458   2.315  11.588
 6228SOL     OW19243   2.889   2.620  12.131
 6228SOL    HW119244   2.884   2.637  12.225
 6228SOL    HW219245   2.864   2.528  12.122
 6229SOL     OW19246   2.847   3.430  12.892
 6229SOL    HW119247   2.829   3.471  12.808
 6229SOL    HW219248   2.889   3.347  12.870
 6230SOL     OW19249   3.705   3.361  12.770
 6230SOL    HW119250   3.729   3.390  12.682
 6230SOL    HW219251   3.785   3.371  12.821
 6231SOL     OW19252   2.214   2.779  12.983
 6231SOL    HW119253   2.297   2.798  13.028
 6231SOL    HW219254   2.238   2.717  12.914
 6232SOL     OW19255   3.391   2.134  11.299
 6232SOL    HW119256   3.326   2.069  11.326
 6232SOL    HW219257   3.424   2.170  11.382
 6233SOL     OW19258   3.151   2.687  11.202
 6233SOL    HW119259   3.195   2.602  11.206
 6233SOL    HW219260   3.183   2.726  11.121
 6234SOL     OW19261   2.929   3.199  12.027
 6234SOL    HW119262   2.933   3.126  11.964
 6234SOL    HW219263   2.989   3.264  11.992
 6235SOL     OW19264   2.171   2.672  12.118
 6235SOL    HW119265   2.264   2.695  12.109
 6235SOL    HW219266   2.171   2.585  12.157
 6236SOL     OW19267   2.185   2.366  12.181
 6236SOL    HW119268   2.144   2.294  12.134
 6236SOL    HW219269   2.266   2.383  12.134
 6237SOL     OW19270   2.996   2.237  12.855
 6237SOL    HW119271   2.948   2.291  12.918
 6237SOL    HW219272   3.083   2.276  12.851
 6238SOL     OW19273   3.022   2.063  12.642
 6238SOL    HW119274   3.011   2.125  12.714
 6238SOL    HW219275   3.064   2.113  12.573
 6239SOL     OW19276   1.867   3.181  11.367
 6239SOL    HW119277   1.780   3.196  11.330
 6239SOL    HW219278   1.864   3.091  11.401
 6240SOL     OW19279   1.959   3.641  12.110
 6240SOL    HW119280   1.928   3.562  12.065
 6240SOL    HW219281   2.044   3.659  12.070
 6241SOL     OW19282   2.356   3.438  12.077
 6241SOL    HW119283   2.423   3.501  12.102
 6241SOL    HW219284   2.401   3.375  12.020
 6242SOL     OW19285   2.841   2.651  12.397
 6242SOL    HW119286   2.900   2.631  12.469
 6242SOL    HW219287   2.756   2.616  12.425
 6243SOL     OW19288   1.901   2.396  12.289
 6243SOL    HW119289   1.986   2.402  12.245
 6243SOL    HW219290   1.921   2.409  12.382
 6244SOL     OW19291   2.068   2.382  12.904
 6244SOL    HW119292   2.120   2.355  12.828
 6244SOL    HW219293   2.004   2.444  12.868
 6245SOL     OW19294   3.241   2.799  12.830
 6245SOL    HW119295   3.262   2.892  12.827
 6245SOL    HW219296   3.237   2.772  12.738
 6246SOL     OW19297   2.678   2.432  11.538
 6246SOL    HW119298   2.686   2.358  11.477
 6246SOL    HW219299   2.605   2.483  11.504
 6247SOL     OW19300   3.502   2.464  12.356
 6247SOL    HW119301   3.491   2.403  12.429
 6247SOL    HW219302   3.588   2.442  12.320
 6248SOL     OW19303   2.104   3.411  12.897
 6248SOL    HW119304   2.081   3.477  12.962
 6248SOL    HW219305   2.108   3.329  12.946
 6249SOL     OW19306   2.565   2.309  12.429
 6249SOL    HW119307   2.510   2.236  12.400
 6249SOL    HW219308   2.560   2.372  12.358
 6250SOL     OW19309   2.789   3.534  12.641
 6250SOL    HW119310   2.763   3.496  12.557
 6250SOL    HW219311   2.780   3.628  12.628
 6251SOL     OW19312   2.326   2.354  11.349
 6251SOL    HW119313   2.383   2.426  11.376
 6251SOL    HW219314   2.239   2.395  11.342
 6252SOL     OW19315   2.006   3.004  12.645
 6252SOL    HW119316   2.007   2.953  12.727
 6252SOL    HW219317   2.024   2.939  12.577
 6253SOL     OW19318   3.184   2.907  12.394
 6253SOL    HW119319   3.207   2.844  12.326
 6253SOL    HW219320   3.116   2.961  12.354
 6254SOL     OW19321   3.175   2.718  11.477
 6254SOL    HW119322   3.100   2.687  11.528
 6254SOL    HW219323   3.149   2.704  11.386
 6255SOL     OW19324   3.639   3.603  12.327
 6255SOL    HW119325   3.697   3.629  12.255
 6255SOL    HW219326   3.612   3.514  12.304
 6256SOL     OW19327   3.106   3.595  12.281
 6256SOL    HW119328   3.189   3.616  12.238
 6256SOL    HW219329   3.112   3.502  12.301
 6257SOL     OW19330   1.947   3.128  12.183
 6257SOL    HW119331   1.932   3.142  12.277
 6257SOL    HW219332   1.874   3.074  12.155
 6258SOL     OW19333   2.541   3.526  12.904
 6258SOL    HW119334   2.484   3.603  12.909
 6258SOL    HW219335   2.601   3.545  12.833
 6259SOL     OW19336   3.572   2.012  11.684
 6259SOL    HW119337   3.640   2.000  11.618
 6259SOL    HW219338   3.561   1.926  11.723
 6260SOL     OW19339   3.252   3.430  11.659
 6260SOL    HW119340   3.311   3.464  11.592
 6260SOL    HW219341   3.204   3.508  11.689
 6261SOL     OW19342   1.996   3.652  13.011
 6261SOL    HW119343   1.944   3.588  13.059
 6261SOL    HW219344   2.045   3.700  13.078
 6262SOL     OW19345   3.139   2.788  11.843
 6262SOL    HW119346   3.213   2.728  11.852
 6262SOL    HW219347   3.173   2.860  11.790
 6263SOL     OW19348   2.672   3.136  12.600
 6263SOL    HW119349   2.644   3.176  12.682
 6263SOL    HW219350   2.603   3.159  12.538
 6264SOL     OW19351   2.537   3.479  11.330
 6264SOL    HW119352   2.546   3.497  11.236
 6264SOL    HW219353   2.478   3.404  11.334
 6265SOL     OW19354   3.481   3.589  12.562
 6265SOL    HW119355   3.537   3.592  12.484
 6265SOL    HW219356   3.469   3.680  12.586
 6266SOL     OW19357   3.700   2.043  12.139
 6266SOL    HW119358   3.731   1.956  12.114
 6266SOL    HW219359   3.614   2.051  12.098
 6267SOL     OW19360   3.069   3.466  11.208
 6267SOL    HW119361   3.059   3.374  11.232
 6267SOL    HW219362   3.008   3.479  11.135
 6268SOL     OW19363   2.686   2.868  12.545
 6268SOL    HW119364   2.730   2.864  12.460
 6268SOL    HW219365   2.684   2.961  12.566
 6269SOL     OW19366   2.778   2.772  11.462
 6269SOL    HW119367   2.839   2.805  11.396
 6269SOL    HW219368   2.828   2.704  11.508
 6270SOL     OW19369   3.350   3.494  11.214
 6270SOL    HW119370   3.256   3.481  11.198
 6270SOL    HW219371   3.389   3.498  11.127
 6271SOL     OW19372   2.231   3.166  12.663
 6271SOL    HW119373   2.217   3.243  12.608
 6271SOL    HW219374   2.153   3.111  12.648
 6272SOL     OW19375   3.463   3.142  12.450
 6272SOL    HW119376   3.531   3.133  12.516
 6272SOL    HW219377   3.406   3.211  12.482
 6273SOL     OW19378   2.918   2.970  11.880
 6273SOL    HW119379   2.846   2.919  11.918
 6273SOL    HW219380   2.981   2.905  11.851
 6274SOL     OW19381   2.883   2.102  12.139
 6274SOL    HW119382   2.880   2.055  12.055
 6274SOL    HW219383   2.879   2.034  12.205
 6275SOL     OW19384   2.466   3.353  11.652
 6275SOL    HW119385   2.512   3.302  11.585
 6275SOL    HW219386   2.397   3.398  11.604
 6276SOL     OW19387   3.586   2.251  12.551
 6276SOL    HW119388   3.658   2.315  12.547
 6276SOL    HW219389   3.615   2.179  12.494
 6277SOL     OW19390   2.122   3.205  11.462
 6277SOL    HW119391   2.030   3.203  11.439
 6277SOL    HW219392   2.124   3.244  11.550
 6278SOL     OW19393   1.975   2.887  12.892
 6278SOL    HW119394   1.898   2.863  12.944
 6278SOL    HW219395   2.049   2.848  12.939
 6279SOL     OW19396   2.538   2.060  12.671
 6279SOL    HW119397   2.622   2.037  12.632
 6279SOL    HW219398   2.560   2.090  12.759
 6280SOL     OW19399   3.288   2.720  12.571
 6280SOL    HW119400   3.239   2.782  12.517
 6280SOL    HW219401   3.377   2.722  12.534
 6281SOL     OW19402   3.040   3.199  11.289
 6281SOL    HW119403   2.949   3.169  11.291
 6281SOL    HW219404   3.067   3.199  11.381
 6282SOL     OW19405   2.482   2.692  12.605
 6282SOL    HW119406   2.538   2.769  12.591
 6282SOL    HW219407   2.542   2.619  12.613
 6283SOL     OW19408   3.347   3.643  12.154
 6283SOL    HW119409   3.371   3.697  12.079
 6283SOL    HW219410   3.431   3.612  12.189
 6284SOL     OW19411   2.579   2.422  12.873
 6284SOL    HW119412   2.621   2.484  12.933
 6284SOL    HW219413   2.602   2.336  12.907
 6285SOL     OW19414   3.335   3.060  12.803
 6285SOL    HW119415   3.324   3.074  12.897
 6285SOL    HW219416   3.428   3.075  12.786
 6286SOL     OW19417   2.237   3.602  12.737
 6286SOL    HW119418   2.152   3.644  12.721
 6286SOL    HW219419   2.215   3.519  12.778
 6287SOL     OW19420   3.527   2.742  12.431
 6287SOL    HW119421   3.525   2.657  12.388
 6287SOL    HW219422   3.520   2.806  12.359
 6288SOL     OW19423   3.078   2.181  11.630
 6288SOL    HW119424   3.141   2.109  11.622
 6288SOL    HW219425   3.107   2.230  11.706
 6289SOL     OW19426   2.447   2.597  11.845
 6289SOL    HW119427   2.489   2.682  11.831
 6289SOL    HW219428   2.383   2.590  11.775
 6290SOL     OW19429   3.621   2.228  12.822
 6290SOL    HW119430   3.604   2.241  12.729
 6290SOL    HW219431   3.550   2.170  12.851
 6291SOL     OW19432   3.618   2.790  12.685
 6291SOL    HW119433   3.609   2.884  12.703
 6291SOL    HW219434   3.594   2.781  12.593
 6292SOL     OW19435   2.726   3.229  11.211
 6292SOL    HW119436   2.685   3.257  11.293
 6292SOL    HW219437   2.741   3.310  11.162
 6293SOL     OW19438   2.522   3.651  12.112
 6293SOL    HW119439   2.502   3.742  12.090
 6293SOL    HW219440   2.618   3.646  12.106
 6294SOL     OW19441   2.730   2.831  12.027
 6294SOL    HW119442   2.780   2.759  12.065
 6294SOL    HW219443   2.694   2.878  12.102
 6295SOL     OW19444   2.940   2.850  11.261
 6295SOL    HW119445   2.919   2.902  11.183
 6295SOL    HW219446   3.014   2.796  11.234
 6296SOL     OW19447   3.712   3.417  12.013
 6296SOL    HW119448   3.633   3.397  11.963
 6296SOL    HW219449   3.715   3.349  12.080
 6297SOL     OW19450   2.088   3.163  13.027
 6297SOL    HW119451   2.022   3.102  12.996
 6297SOL    HW219452   2.067   3.176  13.120
 6298SOL     OW19453   1.948   3.093  11.837
 6298SOL    HW119454   1.956   3.047  11.921
 6298SOL    HW219455   2.015   3.054  11.781
 6299SOL     OW19456   2.545   3.266  12.802
 6299SOL    HW119457   2.465   3.224  12.833
 6299SOL    HW219458   2.542   3.354  12.839
 6300SOL     OW19459   3.675   2.040  12.410
 6300SOL    HW119460   3.667   1.945  12.413
 6300SOL    HW219461   3.689   2.060  12.318
 6301SOL     OW19462   2.294   2.294  11.695
 6301SOL    HW119463   2.325   2.233  11.628
 6301SOL    HW219464   2.245   2.240  11.757
 6302SOL     OW19465   3.558   3.352  12.269
 6302SOL    HW119466   3.479   3.328  12.219
 6302SOL    HW219467   3.570   3.281  12.332
 6303SOL     OW19468   2.194   2.417  12.460
 6303SOL    HW119469   2.238   2.355  12.518
 6303SOL    HW219470   2.209   2.382  12.372
 6304SOL     OW19471   2.690   3.441  11.849
 6304SOL    HW119472   2.673   3.493  11.770
 6304SOL    HW219473   2.616   3.380  11.855
 6305SOL     OW19474   3.293   2.090  12.289
 6305SOL    HW119475   3.313   2.007  12.332
 6305SOL    HW219476   3.242   2.138  12.354
 6306SOL     OW19477   2.871   1.879  12.311
 6306SOL    HW119478   2.817   1.812  12.270
 6306SOL    HW219479   2.959   1.841  12.314
 6307SOL     OW19480   2.635   3.195  11.491
 6307SOL    HW119481   2.605   3.104  11.497
 6307SOL    HW219482   2.717   3.196  11.539
 6308SOL     OW19483   2.482   3.415  12.457
 6308SOL    HW119484   2.483   3.497  12.507
 6308SOL    HW219485   2.570   3.409  12.420
 6309SOL     OW19486   3.216   1.915  11.339
 6309SOL    HW119487   3.247   1.847  11.279
 6309SOL    HW219488   3.128   1.887  11.364
 6310SOL     OW19489   3.157   2.324  11.851
 6310SOL    HW119490   3.105   2.404  11.858
 6310SOL    HW219491   3.153   2.286  11.939
 6311SOL     OW19492   3.444   2.060  12.050
 6311SOL    HW119493   3.388   2.084  12.124
 6311SOL    HW219494   3.445   2.138  11.994
 6312SOL     OW19495   1.905   2.931  11.480
 6312SOL    HW119496   1.999   2.923  11.462
 6312SOL    HW219497   1.877   2.842  11.502
 6313SOL     OW19498   2.748   3.521  11.515
 6313SOL    HW119499   2.677   3.502  11.454
 6313SOL    HW219500   2.717   3.596  11.565
 6314SOL     OW19501   2.084   2.477  13.162
 6314SOL    HW119502   1.994   2.482  13.194
 6314SOL    HW219503   2.077   2.449  13.071
 6315SOL     OW19504   1.878   2.275  13.648
 6315SOL    HW119505   1.790   2.286  13.683
 6315SOL    HW219506   1.866   2.220  13.571
 6316SOL     OW19507   3.385   3.358  13.728
 6316SOL    HW119508   3.330   3.290  13.766
 6316SOL    HW219509   3.341   3.381  13.646
 6317SOL     OW19510   2.991   2.560  13.730
 6317SOL    HW119511   3.044   2.638  13.709
 6317SOL    HW219512   2.943   2.585  13.809
 6318SOL     OW19513   3.639   2.466  13.261
 6318SOL    HW119514   3.615   2.459  13.169
 6318SOL    HW219515   3.596   2.392  13.303
 6319SOL     OW19516   2.545   2.872  13.672
 6319SOL    HW119517   2.600   2.853  13.748
 6319SOL    HW219518   2.471   2.921  13.707
 6320SOL     OW19519   3.484   2.322  13.755
 6320SOL    HW119520   3.396   2.313  13.717
 6320SOL    HW219521   3.477   2.398  13.813
 6321SOL     OW19522   2.085   3.579  13.518
 6321SOL    HW119523   2.121   3.627  13.593
 6321SOL    HW219524   2.156   3.578  13.454
 6322SOL     OW19525   2.094   3.303  13.570
 6322SOL    HW119526   2.073   3.397  13.574
 6322SOL    HW219527   2.033   3.263  13.632
 6323SOL     OW19528   2.103   2.971   0.028
 6323SOL    HW119529   2.122   2.907   0.097
 6323SOL    HW219530   2.032   3.024   0.063
 6324SOL     OW19531   2.445   2.844  13.168
 6324SOL    HW119532   2.492   2.892  13.100
 6324SOL    HW219533   2.483   2.876  13.250
 6325SOL     OW19534   1.981   2.527  13.591
 6325SOL    HW119535   1.950   2.438  13.609
 6325SOL    HW219536   1.968   2.574  13.673
 6326SOL     OW19537   3.699   3.613  13.374
 6326SOL    HW119538   3.771   3.587  13.431
 6326SOL    HW219539   3.716   3.705  13.354
 6327SOL     OW19540   1.891   3.453  13.156
 6327SOL    HW119541   1.876   3.361  13.177
 6327SOL    HW219542   1.872   3.500  13.237
 6328SOL     OW19543   3.548   2.779  13.670
 6328SOL    HW119544   3.634   2.744  13.648
 6328SOL    HW219545   3.525   2.834  13.595
 6329SOL     OW19546   3.503   2.966  13.463
 6329SOL    HW119547   3.588   2.969  13.418
 6329SOL    HW219548   3.511   3.030  13.533
 6330SOL     OW19549   2.468   3.245  13.759
 6330SOL    HW119550   2.423   3.161  13.766
 6330SOL    HW219551   2.445   3.277  13.672
 6331SOL     OW19552   2.676   1.863  13.543
 6331SOL    HW119553   2.716   1.948  13.521
 6331SOL    HW219554   2.583   1.882  13.550
 6332SOL     OW19555   3.389   2.857  13.234
 6332SOL    HW119556   3.320   2.800  13.268
 6332SOL    HW219557   3.430   2.894  13.313
 6333SOL     OW19558   3.512   3.599  13.614
 6333SOL    HW119559   3.497   3.569  13.525
 6333SOL    HW219560   3.506   3.519  13.667
 6334SOL     OW19561   2.454   2.580  13.300
 6334SOL    HW119562   2.460   2.663  13.251
 6334SOL    HW219563   2.389   2.597  13.368
 6335SOL     OW19564   3.119   2.191   0.046
 6335SOL    HW119565   3.039   2.143   0.070
 6335SOL    HW219566   3.190   2.141   0.087
 6336SOL     OW19567   3.436   3.541  13.340
 6336SOL    HW119568   3.529   3.564  13.337
 6336SOL    HW219569   3.413   3.520  13.250
 6337SOL     OW19570   2.911   2.558  13.459
 6337SOL    HW119571   2.927   2.547  13.552
 6337SOL    HW219572   2.829   2.512  13.443
 6338SOL     OW19573   1.947   2.687  13.808
 6338SOL    HW119574   2.022   2.674  13.866
 6338SOL    HW219575   1.900   2.761  13.846
 6339SOL     OW19576   2.757   2.214  13.231
 6339SOL    HW119577   2.800   2.273  13.169
 6339SOL    HW219578   2.758   2.128  13.187
 6340SOL     OW19579   3.225   2.997  13.553
 6340SOL    HW119580   3.314   2.995  13.519
 6340SOL    HW219581   3.183   3.068  13.504
 6341SOL     OW19582   2.862   3.303  13.502
 6341SOL    HW119583   2.829   3.379  13.455
 6341SOL    HW219584   2.831   3.316  13.592
 6342SOL     OW19585   2.256   3.666  13.799
 6342SOL    HW119586   2.213   3.597  13.850
 6342SOL    HW219587   2.317   3.706  13.861
 6343SOL     OW19588   3.651   2.916  13.899
 6343SOL    HW119589   3.595   2.903  13.822
 6343SOL    HW219590   3.592   2.909   0.074
 6344SOL     OW19591   2.180   2.822  13.287
 6344SOL    HW119592   2.261   2.841  13.240
 6344SOL    HW219593   2.149   2.740  13.249
 6345SOL     OW19594   3.352   2.595  13.745
 6345SOL    HW119595   3.341   2.556  13.832
 6345SOL    HW219596   3.424   2.657  13.755
 6346SOL     OW19597   2.976   3.644  13.255
 6346SOL    HW119598   2.912   3.598  13.310
 6346SOL    HW219599   3.006   3.578  13.193
 6347SOL     OW19600   3.487   3.246  13.122
 6347SOL    HW119601   3.444   3.330  13.105
 6347SOL    HW219602   3.420   3.181  13.102
 6348SOL     OW19603   2.329   3.597  13.357
 6348SOL    HW119604   2.366   3.660  13.418
 6348SOL    HW219605   2.402   3.572  13.301
 6349SOL     OW19606   3.264   1.974  13.467
 6349SOL    HW119607   3.255   1.947  13.376
 6349SOL    HW219608   3.358   1.975  13.483
 6350SOL     OW19609   2.793   3.547   0.009
 6350SOL    HW119610   2.809   3.480   0.075
 6350SOL    HW219611   2.749   3.501  13.838
 6351SOL     OW19612   2.252   2.564  13.504
 6351SOL    HW119613   2.267   2.470  13.511
 6351SOL    HW219614   2.159   2.576  13.523
 6352SOL     OW19615   2.513   1.984  13.143
 6352SOL    HW119616   2.573   1.910  13.157
 6352SOL    HW219617   2.454   1.954  13.073
 6353SOL     OW19618   2.409   1.926  13.537
 6353SOL    HW119619   2.343   1.934  13.606
 6353SOL    HW219620   2.394   2.002  13.481
 6354SOL     OW19621   3.290   3.061  13.075
 6354SOL    HW119622   3.320   2.986  13.125
 6354SOL    HW219623   3.204   3.082  13.112
 6355SOL     OW19624   2.802   2.108  13.493
 6355SOL    HW119625   2.776   2.149  13.410
 6355SOL    HW219626   2.896   2.123  13.498
 6356SOL     OW19627   2.325   3.006  13.769
 6356SOL    HW119628   2.253   2.993  13.831
 6356SOL    HW219629   2.286   2.994  13.683
 6357SOL     OW19630   3.130   3.660  13.629
 6357SOL    HW119631   3.175   3.728  13.579
 6357SOL    HW219632   3.062   3.707  13.676
 6358SOL     OW19633   2.885   2.400  13.058
 6358SOL    HW119634   2.842   2.484  13.039
 6358SOL    HW219635   2.950   2.422  13.125
 6359SOL     OW19636   2.757   2.332  13.671
 6359SOL    HW119637   2.695   2.381  13.618
 6359SOL    HW219638   2.766   2.247  13.626
 6360SOL     OW19639   2.887   1.900  13.775
 6360SOL    HW119640   2.829   1.909  13.699
 6360SOL    HW219641   2.857   1.820  13.819
 6361SOL     OW19642   3.728   2.677  13.410
 6361SOL    HW119643   3.776   2.622  13.472
 6361SOL    HW219644   3.692   2.615  13.346
 6362SOL     OW19645   2.352   3.280  13.188
 6362SOL    HW119646   2.277   3.253  13.240
 6362SOL    HW219647   2.340   3.237  13.103
 6363SOL     OW19648   3.540   3.132  13.665
 6363SOL    HW119649   3.634   3.134  13.682
 6363SOL    HW219650   3.507   3.215  13.701
 6364SOL     OW19651   3.256   2.434  13.105
 6364SOL    HW119652   3.194   2.414  13.176
 6364SOL    HW219653   3.340   2.401  13.138
 6365SOL     OW19654   2.389   2.125  13.352
 6365SOL    HW119655   2.434   2.076  13.284
 6365SOL    HW219656   2.362   2.206  13.309
 6366SOL     OW19657   2.572   2.926  13.400
 6366SOL    HW119658   2.556   2.909  13.493
 6366SOL    HW219659   2.647   2.872  13.378
 6367SOL     OW19660   2.210   2.975  13.524
 6367SOL    HW119661   2.211   3.049  13.464
 6367SOL    HW219662   2.205   2.898  13.467
 6368SOL     OW19663   2.446   2.392  13.853
 6368SOL    HW119664   2.449   2.467  13.794
 6368SOL    HW219665   2.485   2.423   0.034
 6369SOL     OW19666   3.107   3.214  13.418
 6369SOL    HW119667   3.162   3.287  13.446
 6369SOL    HW219668   3.021   3.234  13.454
 6370SOL     OW19669   3.443   2.486  13.501
 6370SOL    HW119670   3.401   2.526  13.577
 6370SOL    HW219671   3.476   2.561  13.451
 6371SOL     OW19672   3.063   2.390  13.298
 6371SOL    HW119673   3.072   2.311  13.352
 6371SOL    HW219674   3.021   2.454  13.354
 6372SOL     OW19675   3.482   2.237  13.398
 6372SOL    HW119676   3.506   2.174  13.465
 6372SOL    HW219677   3.459   2.317  13.446
 6373SOL     OW19678   3.391   2.134  13.161
 6373SOL    HW119679   3.326   2.070  13.188
 6373SOL    HW219680   3.424   2.170  13.243
 6374SOL     OW19681   3.150   2.686  13.063
 6374SOL    HW119682   3.194   2.602  13.067
 6374SOL    HW219683   3.183   2.726  12.982
 6375SOL     OW19684   1.868   3.181  13.228
 6375SOL    HW119685   1.781   3.196  13.192
 6375SOL    HW219686   1.864   3.092  13.263
 6376SOL     OW19687   2.677   2.434  13.393
 6376SOL    HW119688   2.683   2.358  13.334
 6376SOL    HW219689   2.602   2.483  13.360
 6377SOL     OW19690   2.326   2.352  13.208
 6377SOL    HW119691   2.383   2.423  13.234
 6377SOL    HW219692   2.239   2.391  13.203
 6378SOL     OW19693   3.176   2.714  13.338
 6378SOL    HW119694   3.099   2.688  13.389
 6378SOL    HW219695   3.150   2.702  13.247
 6379SOL     OW19696   3.576   2.011  13.548
 6379SOL    HW119697   3.642   1.999  13.479
 6379SOL    HW219698   3.564   1.923  13.585
 6380SOL     OW19699   3.245   3.436  13.508
 6380SOL    HW119700   3.304   3.473  13.444
 6380SOL    HW219701   3.199   3.512  13.545
 6381SOL     OW19702   3.150   2.776  13.685
 6381SOL    HW119703   3.226   2.720  13.671
 6381SOL    HW219704   3.173   2.858  13.643
 6382SOL     OW19705   2.536   3.480  13.191
 6382SOL    HW119706   2.546   3.497  13.098
 6382SOL    HW219707   2.478   3.404  13.196
 6383SOL     OW19708   3.681   2.022   0.087
 6383SOL    HW119709   3.694   1.936   0.048
 6383SOL    HW219710   3.587   2.038   0.081
 6384SOL     OW19711   2.104   2.292  13.812
 6384SOL    HW119712   2.060   2.277  13.729
 6384SOL    HW219713   2.149   2.209  13.831
 6385SOL     OW19714   3.070   3.466  13.070
 6385SOL    HW119715   3.059   3.374  13.093
 6385SOL    HW219716   3.008   3.479  12.997
 6386SOL     OW19717   2.781   2.775  13.329
 6386SOL    HW119718   2.840   2.805  13.260
 6386SOL    HW219719   2.828   2.702  13.370
 6387SOL     OW19720   3.350   3.494  13.076
 6387SOL    HW119721   3.256   3.481  13.060
 6387SOL    HW219722   3.389   3.498  12.989
 6388SOL     OW19723   2.912   2.953  13.755
 6388SOL    HW119724   2.826   2.914  13.740
 6388SOL    HW219725   2.968   2.914  13.687
 6389SOL     OW19726   2.461   3.354  13.506
 6389SOL    HW119727   2.508   3.303  13.439
 6389SOL    HW219728   2.394   3.401  13.458
 6390SOL     OW19729   2.123   3.205  13.324
 6390SOL    HW119730   2.030   3.202  13.301
 6390SOL    HW219731   2.125   3.244  13.411
 6391SOL     OW19732   3.039   3.199  13.149
 6391SOL    HW119733   2.948   3.170  13.151
 6391SOL    HW219734   3.066   3.200  13.241
 6392SOL     OW19735   3.078   2.181  13.491
 6392SOL    HW119736   3.141   2.110  13.481
 6392SOL    HW219737   3.109   2.230  13.567
 6393SOL     OW19738   2.451   2.610  13.691
 6393SOL    HW119739   2.488   2.696  13.674
 6393SOL    HW219740   2.380   2.601  13.628
 6394SOL     OW19741   2.726   3.229  13.072
 6394SOL    HW119742   2.685   3.256  13.154
 6394SOL    HW219743   2.741   3.311  13.024
 6395SOL     OW19744   2.512   3.715   0.065
 6395SOL    HW119745   2.509   3.808   0.085
 6395SOL    HW219746   2.604   3.691   0.078
 6396SOL     OW19747   2.688   2.827  13.896
 6396SOL    HW119748   2.717   2.744   0.032
 6396SOL    HW219749   2.720   2.893   0.058
 6397SOL     OW19750   2.939   2.849  13.123
 6397SOL    HW119751   2.918   2.901  13.045
 6397SOL    HW219752   3.014   2.795  13.096
 6398SOL     OW19753   1.953   3.093  13.699
 6398SOL    HW119754   1.948   3.036  13.776
 6398SOL    HW219755   2.020   3.052  13.644
 6399SOL     OW19756   2.277   2.300  13.550
 6399SOL    HW119757   2.322   2.230  13.501
 6399SOL    HW219758   2.302   2.286  13.641
 6400SOL     OW19759   3.542   3.323   0.347
 6400SOL    HW119760   3.511   3.295   0.260
 6400SOL    HW219761   3.629   3.284   0.355
 6401SOL     OW19762   2.679   3.412  13.708
 6401SOL    HW119763   2.653   3.463  13.631
 6401SOL    HW219764   2.604   3.356  13.726
 6402SOL     OW19765   2.634   3.196  13.349
 6402SOL    HW119766   2.605   3.105  13.356
 6402SOL    HW219767   2.717   3.198  13.398
 6403SOL     OW19768   3.216   1.915  13.200
 6403SOL    HW119769   3.247   1.847  13.140
 6403SOL    HW219770   3.128   1.887  13.225
 6404SOL     OW19771   3.166   2.322  13.712
 6404SOL    HW119772   3.111   2.401  13.718
 6404SOL    HW219773   3.151   2.276  13.794
 6405SOL     OW19774   1.906   2.931  13.340
 6405SOL    HW119775   2.000   2.922  13.322
 6405SOL    HW219776   1.878   2.842  13.361
 6406SOL     OW19777   2.748   3.520  13.377
 6406SOL    HW119778   2.677   3.502  13.316
 6406SOL    HW219779   2.718   3.594  13.429
 6407SOL     OW19780   2.094   3.983   0.984
 6407SOL    HW119781   2.117   3.962   1.075
 6407SOL    HW219782   2.003   3.953   0.976
 6408SOL     OW19783   1.877   0.063   0.712
 6408SOL    HW119784   1.799   0.107   0.677
 6408SOL    HW219785   1.912   0.013   0.638
 6409SOL     OW19786   3.660   0.360   0.255
 6409SOL    HW119787   3.637   0.305   0.180
 6409SOL    HW219788   3.580   0.363   0.307
 6410SOL     OW19789   2.302   0.095   1.506
 6410SOL    HW119790   2.373   0.053   1.459
 6410SOL    HW219791   2.225   0.042   1.485
 6411SOL     OW19792   3.458   3.850   1.460
 6411SOL    HW119793   3.461   3.937   1.420
 6411SOL    HW219794   3.444   3.868   1.553
 6412SOL     OW19795   2.668   3.727   0.506
 6412SOL    HW119796   2.696   3.818   0.497
 6412SOL    HW219797   2.573   3.732   0.516
 6413SOL     OW19798   3.130   0.062   0.936
 6413SOL    HW119799   3.057   0.008   0.905
 6413SOL    HW219800   3.185   0.002   0.986
 6414SOL     OW19801   2.416   3.904   0.892
 6414SOL    HW119802   2.410   3.924   0.985
 6414SOL    HW219803   2.411   3.989   0.848
 6415SOL     OW19804   2.053   3.983   1.489
 6415SOL    HW119805   1.999   0.061   1.499
 6415SOL    HW219806   2.015   3.920   1.550
 6416SOL     OW19807   3.270   3.839   0.429
 6416SOL    HW119808   3.263   3.798   0.343
 6416SOL    HW219809   3.360   3.821   0.456
 6417SOL     OW19810   3.398   3.939   1.724
 6417SOL    HW119811   3.423   3.941   1.816
 6417SOL    HW219812   3.329   3.872   1.719
 6418SOL     OW19813   2.635   3.958   1.744
 6418SOL    HW119814   2.687   3.928   1.818
 6418SOL    HW219815   2.548   3.975   1.780
 6419SOL     OW19816   2.397   3.782   0.514
 6419SOL    HW119817   2.347   3.781   0.596
 6419SOL    HW219818   2.406   3.875   0.493
 6420SOL     OW19819   2.134   3.744   0.210
 6420SOL    HW119820   2.166   3.831   0.185
 6420SOL    HW219821   2.212   3.695   0.234
 6421SOL     OW19822   2.420   3.944   1.169
 6421SOL    HW119823   2.462   3.871   1.216
 6421SOL    HW219824   2.328   3.939   1.196
 6422SOL     OW19825   2.882   3.767   0.735
 6422SOL    HW119826   2.817   3.756   0.666
 6422SOL    HW219827   2.859   3.702   0.801
 6423SOL     OW19828   2.785   3.803   1.398
 6423SOL    HW119829   2.814   3.782   1.309
 6423SOL    HW219830   2.858   3.851   1.436
 6424SOL     OW19831   3.129   0.075   1.265
 6424SOL    HW119832   3.140   0.143   1.331
 6424SOL    HW219833   3.061   0.108   1.207
 6425SOL     OW19834   2.371   3.749   1.756
 6425SOL    HW119835   2.315   3.704   1.693
 6425SOL    HW219836   2.340   3.840   1.754
 6426SOL     OW19837   2.157   3.920   1.251
 6426SOL    HW119838   2.112   3.939   1.334
 6426SOL    HW219839   2.145   3.826   1.238
 6427SOL     OW19840   3.461   3.936   0.155
 6427SOL    HW119841   3.381   3.885   0.156
 6427SOL    HW219842   3.436   0.021   0.193
 6428SOL     OW19843   3.025   3.922   1.473
 6428SOL    HW119844   3.028   3.996   1.534
 6428SOL    HW219845   3.067   3.954   1.393
 6429SOL     OW19846   2.782   3.824   0.150
 6429SOL    HW119847   2.812   3.815   0.059
 6429SOL    HW219848   2.842   3.769   0.200
 6430SOL     OW19849   3.588   3.863   0.532
 6430SOL    HW119850   3.656   3.849   0.466
 6430SOL    HW219851   3.568   3.775   0.564
 6431SOL     OW19852   3.697   3.895   0.963
 6431SOL    HW119853   3.730   3.808   0.939
 6431SOL    HW219854   3.611   3.900   0.921
 6432SOL     OW19855   2.538   3.910   1.490
 6432SOL    HW119856   2.621   3.901   1.443
 6432SOL    HW219857   2.564   3.932   1.580
 6433SOL     OW19858   1.925   3.858   0.341
 6433SOL    HW119859   1.908   3.937   0.291
 6433SOL    HW219860   2.006   3.822   0.303
 6434SOL     OW19861   3.052   0.010   0.466
 6434SOL    HW119862   3.117   3.939   0.468
 6434SOL    HW219863   3.074   0.064   0.542
 6435SOL     OW19864   3.647   0.048   1.629
 6435SOL    HW119865   3.604   0.081   1.550
 6435SOL    HW219866   3.577   0.003   1.677
 6436SOL     OW19867   3.678   3.910   1.235
 6436SOL    HW119868   3.666   3.818   1.259
 6436SOL    HW219869   3.687   3.909   1.140
 6437SOL     OW19870   3.301   3.933   1.117
 6437SOL    HW119871   3.328   3.851   1.158
 6437SOL    HW219872   3.243   3.973   1.181
 6438SOL     OW19873   2.877   3.736   1.148
 6438SOL    HW119874   2.820   3.681   1.095
 6438SOL    HW219875   2.963   3.693   1.143
 6439SOL     OW19876   3.215   3.783   0.151
 6439SOL    HW119877   3.254   3.711   0.101
 6439SOL    HW219878   3.131   3.747   0.182
 6440SOL     OW19879   3.146   0.163   0.679
 6440SOL    HW119880   3.143   0.258   0.687
 6440SOL    HW219881   3.149   0.132   0.770
 6441SOL     OW19882   3.441   3.930   0.880
 6441SOL    HW119883   3.390   3.932   0.960
 6441SOL    HW219884   3.437   0.020   0.847
 6442SOL     OW19885   2.094   3.981   2.845
 6442SOL    HW119886   2.118   3.962   2.936
 6442SOL    HW219887   2.003   3.953   2.837
 6443SOL     OW19888   1.875   0.061   2.576
 6443SOL    HW119889   1.802   0.111   2.540
 6443SOL    HW219890   1.909   0.011   2.502
 6444SOL     OW19891   3.634   0.320   2.044
 6444SOL    HW119892   3.558   0.303   1.989
 6444SOL    HW219893   3.597   0.341   2.130
 6445SOL     OW19894   2.302   0.095   3.368
 6445SOL    HW119895   2.374   0.052   3.322
 6445SOL    HW219896   2.225   0.042   3.347
 6446SOL     OW19897   3.458   3.850   3.322
 6446SOL    HW119898   3.461   3.937   3.282
 6446SOL    HW219899   3.444   3.868   3.415
 6447SOL     OW19900   2.668   3.729   2.367
 6447SOL    HW119901   2.695   3.821   2.361
 6447SOL    HW219902   2.573   3.732   2.376
 6448SOL     OW19903   3.129   0.062   2.801
 6448SOL    HW119904   3.058   0.008   2.767
 6448SOL    HW219905   3.185   0.001   2.849
 6449SOL     OW19906   2.416   3.904   2.753
 6449SOL    HW119907   2.410   3.924   2.847
 6449SOL    HW219908   2.411   3.990   2.711
 6450SOL     OW19909   2.053   3.983   3.351
 6450SOL    HW119910   2.000   0.062   3.361
 6450SOL    HW219911   2.015   3.920   3.412
 6451SOL     OW19912   3.268   3.833   2.292
 6451SOL    HW119913   3.259   3.799   2.203
 6451SOL    HW219914   3.360   3.819   2.314
 6452SOL     OW19915   3.398   3.938   3.586
 6452SOL    HW119916   3.423   3.941   3.678
 6452SOL    HW219917   3.329   3.872   3.581
 6453SOL     OW19918   2.490   3.848   1.989
 6453SOL    HW119919   2.581   3.819   1.989
 6453SOL    HW219920   2.449   3.801   1.917
 6454SOL     OW19921   2.635   3.958   3.606
 6454SOL    HW119922   2.687   3.928   3.680
 6454SOL    HW219923   2.548   3.975   3.642
 6455SOL     OW19924   2.397   3.785   2.376
 6455SOL    HW119925   2.349   3.787   2.459
 6455SOL    HW219926   2.405   3.877   2.351
 6456SOL     OW19927   2.147   3.759   2.041
 6456SOL    HW119928   2.188   3.845   2.033
 6456SOL    HW219929   2.216   3.703   2.080
 6457SOL     OW19930   2.419   3.943   3.031
 6457SOL    HW119931   2.462   3.872   3.078
 6457SOL    HW219932   2.328   3.939   3.058
 6458SOL     OW19933   2.882   3.767   2.597
 6458SOL    HW119934   2.817   3.754   2.527
 6458SOL    HW219935   2.859   3.702   2.663
 6459SOL     OW19936   2.785   3.803   3.260
 6459SOL    HW119937   2.814   3.782   3.171
 6459SOL    HW219938   2.858   3.851   3.298
 6460SOL     OW19939   3.129   0.075   3.127
 6460SOL    HW119940   3.140   0.143   3.193
 6460SOL    HW219941   3.061   0.108   3.069
 6461SOL     OW19942   2.371   3.749   3.618
 6461SOL    HW119943   2.315   3.704   3.555
 6461SOL    HW219944   2.340   3.840   3.616
 6462SOL     OW19945   2.157   3.920   3.113
 6462SOL    HW119946   2.112   3.939   3.196
 6462SOL    HW219947   2.145   3.826   3.100
 6463SOL     OW19948   3.444   3.954   1.985
 6463SOL    HW119949   3.379   3.897   2.027
 6463SOL    HW219950   3.457   0.026   2.047
 6464SOL     OW19951   3.025   3.922   3.335
 6464SOL    HW119952   3.028   3.995   3.396
 6464SOL    HW219953   3.067   3.955   3.255
 6465SOL     OW19954   2.763   3.811   1.964
 6465SOL    HW119955   2.823   3.772   1.901
 6465SOL    HW219956   2.803   3.795   2.049
 6466SOL     OW19957   3.590   3.860   2.387
 6466SOL    HW119958   3.659   3.845   2.321
 6466SOL    HW219959   3.570   3.772   2.419
 6467SOL     OW19960   3.697   3.896   2.825
 6467SOL    HW119961   3.730   3.809   2.802
 6467SOL    HW219962   3.611   3.901   2.783
 6468SOL     OW19963   2.538   3.910   3.352
 6468SOL    HW119964   2.621   3.901   3.305
 6468SOL    HW219965   2.564   3.932   3.442
 6469SOL     OW19966   1.906   0.053   1.897
 6469SOL    HW119967   1.868   0.029   1.812
 6469SOL    HW219968   1.937   0.143   1.885
 6470SOL     OW19969   1.924   3.865   2.171
 6470SOL    HW119970   1.913   3.954   2.139
 6470SOL    HW219971   2.005   3.835   2.130
 6471SOL     OW19972   3.055   0.012   2.328
 6471SOL    HW119973   3.123   3.944   2.326
 6471SOL    HW219974   3.077   0.066   2.404
 6472SOL     OW19975   3.647   0.048   3.491
 6472SOL    HW119976   3.604   0.081   3.412
 6472SOL    HW219977   3.577   0.003   3.539
 6473SOL     OW19978   3.678   3.910   3.098
 6473SOL    HW119979   3.666   3.818   3.121
 6473SOL    HW219980   3.687   3.910   3.002
 6474SOL     OW19981   3.301   3.932   2.979
 6474SOL    HW119982   3.329   3.850   3.021
 6474SOL    HW219983   3.243   3.973   3.043
 6475SOL     OW19984   2.877   3.736   3.010
 6475SOL    HW119985   2.819   3.681   2.958
 6475SOL    HW219986   2.963   3.693   3.005
 6476SOL     OW19987   3.217   3.770   2.021
 6476SOL    HW119988   3.250   3.700   1.966
 6476SOL    HW219989   3.129   3.742   2.047
 6477SOL     OW19990   3.144   0.162   2.544
 6477SOL    HW119991   3.145   0.257   2.549
 6477SOL    HW219992   3.149   0.133   2.636
 6478SOL     OW19993   3.441   3.930   2.741
 6478SOL    HW119994   3.390   3.932   2.822
 6478SOL    HW219995   3.437   0.020   2.709
 6479SOL     OW19996   2.094   3.981   4.707
 6479SOL    HW119997   2.118   3.962   4.798
 6479SOL    HW219998   2.003   3.953   4.699
 6480SOL     OW19999   1.875   0.061   4.438
 6480SOL    HW120000   1.802   0.111   4.402
 6480SOL    HW220001   1.910   0.011   4.364
 6481SOL     OW20002   3.634   0.319   3.906
 6481SOL    HW120003   3.558   0.303   3.851
 6481SOL    HW220004   3.597   0.341   3.992
 6482SOL     OW20005   2.301   0.095   5.230
 6482SOL    HW120006   2.374   0.053   5.184
 6482SOL    HW220007   2.225   0.042   5.209
 6483SOL     OW20008   3.458   3.850   5.184
 6483SOL    HW120009   3.461   3.937   5.144
 6483SOL    HW220010   3.444   3.867   5.277
 6484SOL     OW20011   2.668   3.729   4.229
 6484SOL    HW120012   2.695   3.821   4.223
 6484SOL    HW220013   2.573   3.732   4.238
 6485SOL     OW20014   3.129   0.062   4.662
 6485SOL    HW120015   3.058   0.008   4.629
 6485SOL    HW220016   3.185   0.001   4.711
 6486SOL     OW20017   2.416   3.904   4.615
 6486SOL    HW120018   2.410   3.924   4.709
 6486SOL    HW220019   2.411   3.990   4.573
 6487SOL     OW20020   2.053   3.983   5.213
 6487SOL    HW120021   2.000   0.062   5.223
 6487SOL    HW220022   2.015   3.920   5.275
 6488SOL     OW20023   3.268   3.833   4.154
 6488SOL    HW120024   3.259   3.799   4.065
 6488SOL    HW220025   3.360   3.819   4.176
 6489SOL     OW20026   3.398   3.938   5.448
 6489SOL    HW120027   3.423   3.941   5.540
 6489SOL    HW220028   3.329   3.872   5.443
 6490SOL     OW20029   2.490   3.848   3.851
 6490SOL    HW120030   2.581   3.819   3.851
 6490SOL    HW220031   2.449   3.801   3.779
 6491SOL     OW20032   2.634   3.958   5.467
 6491SOL    HW120033   2.687   3.928   5.542
 6491SOL    HW220034   2.548   3.975   5.505
 6492SOL     OW20035   2.397   3.785   4.239
 6492SOL    HW120036   2.349   3.787   4.321
 6492SOL    HW220037   2.405   3.877   4.213
 6493SOL     OW20038   2.147   3.759   3.903
 6493SOL    HW120039   2.188   3.845   3.895
 6493SOL    HW220040   2.216   3.704   3.942
 6494SOL     OW20041   2.419   3.943   4.893
 6494SOL    HW120042   2.462   3.872   4.940
 6494SOL    HW220043   2.328   3.939   4.920
 6495SOL     OW20044   2.882   3.767   4.459
 6495SOL    HW120045   2.817   3.754   4.390
 6495SOL    HW220046   2.859   3.702   4.525
 6496SOL     OW20047   2.785   3.803   5.122
 6496SOL    HW120048   2.814   3.782   5.033
 6496SOL    HW220049   2.858   3.851   5.160
 6497SOL     OW20050   3.129   0.075   4.989
 6497SOL    HW120051   3.140   0.143   5.055
 6497SOL    HW220052   3.061   0.108   4.931
 6498SOL     OW20053   2.371   3.749   5.480
 6498SOL    HW120054   2.315   3.704   5.417
 6498SOL    HW220055   2.341   3.840   5.478
 6499SOL     OW20056   2.156   3.920   4.975
 6499SOL    HW120057   2.112   3.939   5.058
 6499SOL    HW220058   2.145   3.826   4.962
 6500SOL     OW20059   3.444   3.954   3.847
 6500SOL    HW120060   3.379   3.897   3.889
 6500SOL    HW220061   3.457   0.026   3.909
 6501SOL     OW20062   3.025   3.922   5.197
 6501SOL    HW120063   3.029   3.995   5.258
 6501SOL    HW220064   3.067   3.955   5.117
 6502SOL     OW20065   2.763   3.811   3.826
 6502SOL    HW120066   2.823   3.772   3.763
 6502SOL    HW220067   2.803   3.795   3.911
 6503SOL     OW20068   3.590   3.860   4.249
 6503SOL    HW120069   3.659   3.845   4.183
 6503SOL    HW220070   3.570   3.772   4.281
 6504SOL     OW20071   3.697   3.896   4.687
 6504SOL    HW120072   3.730   3.809   4.664
 6504SOL    HW220073   3.611   3.901   4.645
 6505SOL     OW20074   2.538   3.910   5.214
 6505SOL    HW120075   2.621   3.901   5.167
 6505SOL    HW220076   2.564   3.932   5.304
 6506SOL     OW20077   1.906   0.053   3.758
 6506SOL    HW120078   1.868   0.029   3.674
 6506SOL    HW220079   1.937   0.143   3.747
 6507SOL     OW20080   1.924   3.865   4.033
 6507SOL    HW120081   1.913   3.954   4.001
 6507SOL    HW220082   2.005   3.835   3.992
 6508SOL     OW20083   3.055   0.012   4.189
 6508SOL    HW120084   3.123   3.944   4.188
 6508SOL    HW220085   3.077   0.066   4.266
 6509SOL     OW20086   3.647   0.048   5.353
 6509SOL    HW120087   3.604   0.081   5.274
 6509SOL    HW220088   3.577   0.003   5.401
 6510SOL     OW20089   3.678   3.910   4.960
 6510SOL    HW120090   3.666   3.818   4.983
 6510SOL    HW220091   3.687   3.909   4.864
 6511SOL     OW20092   3.301   3.932   4.841
 6511SOL    HW120093   3.329   3.850   4.883
 6511SOL    HW220094   3.243   3.973   4.905
 6512SOL     OW20095   2.877   3.736   4.872
 6512SOL    HW120096   2.819   3.681   4.820
 6512SOL    HW220097   2.963   3.693   4.867
 6513SOL     OW20098   3.217   3.770   3.883
 6513SOL    HW120099   3.250   3.700   3.828
 6513SOL    HW220100   3.129   3.742   3.908
 6514SOL     OW20101   3.144   0.162   4.406
 6514SOL    HW120102   3.145   0.257   4.411
 6514SOL    HW220103   3.149   0.133   4.498
 6515SOL     OW20104   3.441   3.930   4.603
 6515SOL    HW120105   3.390   3.931   4.684
 6515SOL    HW220106   3.437   0.020   4.571
 6516SOL     OW20107   2.094   3.981   6.569
 6516SOL    HW120108   2.118   3.962   6.660
 6516SOL    HW220109   2.003   3.953   6.561
 6517SOL     OW20110   1.875   0.061   6.301
 6517SOL    HW120111   1.802   0.111   6.264
 6517SOL    HW220112   1.910   0.012   6.226
 6518SOL     OW20113   3.634   0.319   5.768
 6518SOL    HW120114   3.557   0.303   5.713
 6518SOL    HW220115   3.597   0.341   5.854
 6519SOL     OW20116   2.302   0.095   7.092
 6519SOL    HW120117   2.374   0.052   7.046
 6519SOL    HW220118   2.225   0.042   7.071
 6520SOL     OW20119   3.458   3.850   7.046
 6520SOL    HW120120   3.461   3.937   7.006
 6520SOL    HW220121   3.444   3.868   7.139
 6521SOL     OW20122   2.668   3.730   6.090
 6521SOL    HW120123   2.694   3.822   6.085
 6521SOL    HW220124   2.573   3.733   6.100
 6522SOL     OW20125   3.129   0.062   6.525
 6522SOL    HW120126   3.058   0.007   6.491
 6522SOL    HW220127   3.185   0.002   6.573
 6523SOL     OW20128   2.415   3.905   6.477
 6523SOL    HW120129   2.410   3.924   6.571
 6523SOL    HW220130   2.411   3.991   6.435
 6524SOL     OW20131   2.053   3.984   7.075
 6524SOL    HW120132   2.001   0.064   7.084
 6524SOL    HW220133   2.014   3.923   7.139
 6525SOL     OW20134   3.268   3.834   6.016
 6525SOL    HW120135   3.259   3.799   5.927
 6525SOL    HW220136   3.360   3.819   6.038
 6526SOL     OW20137   3.398   3.939   7.310
 6526SOL    HW120138   3.423   3.941   7.402
 6526SOL    HW220139   3.329   3.872   7.305
 6527SOL     OW20140   2.490   3.848   5.713
 6527SOL    HW120141   2.581   3.819   5.713
 6527SOL    HW220142   2.449   3.801   5.641
 6528SOL     OW20143   2.634   3.958   7.329
 6528SOL    HW120144   2.687   3.928   7.404
 6528SOL    HW220145   2.548   3.975   7.367
 6529SOL     OW20146   2.396   3.785   6.100
 6529SOL    HW120147   2.350   3.787   6.184
 6529SOL    HW220148   2.405   3.877   6.075
 6530SOL     OW20149   2.148   3.759   5.766
 6530SOL    HW120150   2.189   3.845   5.757
 6530SOL    HW220151   2.216   3.704   5.804
 6531SOL     OW20152   2.419   3.943   6.754
 6531SOL    HW120153   2.462   3.872   6.801
 6531SOL    HW220154   2.328   3.939   6.782
 6532SOL     OW20155   2.882   3.767   6.321
 6532SOL    HW120156   2.818   3.754   6.252
 6532SOL    HW220157   2.860   3.702   6.388
 6533SOL     OW20158   2.784   3.804   6.983
 6533SOL    HW120159   2.813   3.782   6.894
 6533SOL    HW220160   2.858   3.851   7.022
 6534SOL     OW20161   3.129   0.075   6.851
 6534SOL    HW120162   3.140   0.143   6.917
 6534SOL    HW220163   3.061   0.108   6.793
 6535SOL     OW20164   2.371   3.750   7.342
 6535SOL    HW120165   2.315   3.704   7.279
 6535SOL    HW220166   2.341   3.841   7.340
 6536SOL     OW20167   2.156   3.920   6.837
 6536SOL    HW120168   2.112   3.939   6.920
 6536SOL    HW220169   2.144   3.826   6.824
 6537SOL     OW20170   3.444   3.954   5.709
 6537SOL    HW120171   3.380   3.897   5.751
 6537SOL    HW220172   3.457   0.026   5.772
 6538SOL     OW20173   3.025   3.922   7.059
 6538SOL    HW120174   3.029   3.996   7.120
 6538SOL    HW220175   3.067   3.954   6.979
 6539SOL     OW20176   2.763   3.811   5.688
 6539SOL    HW120177   2.823   3.772   5.625
 6539SOL    HW220178   2.803   3.795   5.774
 6540SOL     OW20179   3.590   3.860   6.111
 6540SOL    HW120180   3.659   3.845   6.045
 6540SOL    HW220181   3.570   3.772   6.143
 6541SOL     OW20182   3.697   3.896   6.549
 6541SOL    HW120183   3.730   3.809   6.526
 6541SOL    HW220184   3.611   3.901   6.507
 6542SOL     OW20185   2.538   3.910   7.076
 6542SOL    HW120186   2.621   3.901   7.029
 6542SOL    HW220187   2.564   3.932   7.166
 6543SOL     OW20188   1.906   0.053   5.620
 6543SOL    HW120189   1.868   0.029   5.536
 6543SOL    HW220190   1.937   0.143   5.609
 6544SOL     OW20191   1.924   3.865   5.895
 6544SOL    HW120192   1.913   3.954   5.863
 6544SOL    HW220193   2.005   3.835   5.854
 6545SOL     OW20194   3.056   0.012   6.051
 6545SOL    HW120195   3.123   3.944   6.050
 6545SOL    HW220196   3.077   0.066   6.128
 6546SOL     OW20197   3.647   0.048   7.215
 6546SOL    HW120198   3.604   0.081   7.136
 6546SOL    HW220199   3.577   0.003   7.263
 6547SOL     OW20200   3.678   3.910   6.822
 6547SOL    HW120201   3.666   3.818   6.845
 6547SOL    HW220202   3.687   3.909   6.726
 6548SOL     OW20203   3.302   3.932   6.703
 6548SOL    HW120204   3.328   3.850   6.743
 6548SOL    HW220205   3.243   3.973   6.767
 6549SOL     OW20206   2.877   3.736   6.734
 6549SOL    HW120207   2.819   3.680   6.682
 6549SOL    HW220208   2.963   3.693   6.729
 6550SOL     OW20209   3.217   3.771   5.745
 6550SOL    HW120210   3.250   3.700   5.690
 6550SOL    HW220211   3.129   3.742   5.770
 6551SOL     OW20212   3.144   0.162   6.268
 6551SOL    HW120213   3.145   0.257   6.273
 6551SOL    HW220214   3.148   0.133   6.360
 6552SOL     OW20215   3.441   3.930   6.465
 6552SOL    HW120216   3.390   3.931   6.546
 6552SOL    HW220217   3.437   0.020   6.433
 6553SOL     OW20218   2.094   3.980   8.431
 6553SOL    HW120219   2.118   3.962   8.522
 6553SOL    HW220220   2.003   3.953   8.423
 6554SOL     OW20221   1.875   0.061   8.163
 6554SOL    HW120222   1.803   0.112   8.127
 6554SOL    HW220223   1.910   0.012   8.088
 6555SOL     OW20224   3.634   0.320   7.630
 6555SOL    HW120225   3.558   0.304   7.575
 6555SOL    HW220226   3.597   0.341   7.716
 6556SOL     OW20227   2.302   0.095   8.954
 6556SOL    HW120228   2.374   0.052   8.908
 6556SOL    HW220229   2.225   0.042   8.933
 6557SOL     OW20230   3.458   3.850   8.908
 6557SOL    HW120231   3.461   3.937   8.868
 6557SOL    HW220232   3.444   3.868   9.001
 6558SOL     OW20233   2.668   3.729   7.953
 6558SOL    HW120234   2.695   3.821   7.947
 6558SOL    HW220235   2.573   3.733   7.962
 6559SOL     OW20236   3.129   0.062   8.387
 6559SOL    HW120237   3.058   0.008   8.353
 6559SOL    HW220238   3.185   0.001   8.435
 6560SOL     OW20239   2.416   3.904   8.339
 6560SOL    HW120240   2.410   3.924   8.433
 6560SOL    HW220241   2.411   3.990   8.297
 6561SOL     OW20242   2.053   3.983   8.937
 6561SOL    HW120243   2.000   0.062   8.947
 6561SOL    HW220244   2.015   3.921   8.999
 6562SOL     OW20245   3.268   3.833   7.878
 6562SOL    HW120246   3.259   3.799   7.789
 6562SOL    HW220247   3.360   3.819   7.900
 6563SOL     OW20248   3.398   3.938   9.172
 6563SOL    HW120249   3.423   3.941   9.264
 6563SOL    HW220250   3.329   3.872   9.167
 6564SOL     OW20251   2.490   3.848   7.576
 6564SOL    HW120252   2.581   3.819   7.575
 6564SOL    HW220253   2.449   3.801   7.503
 6565SOL     OW20254   2.635   3.958   9.192
 6565SOL    HW120255   2.687   3.928   9.266
 6565SOL    HW220256   2.548   3.975   9.228
 6566SOL     OW20257   2.396   3.785   7.962
 6566SOL    HW120258   2.349   3.787   8.046
 6566SOL    HW220259   2.405   3.877   7.937
 6567SOL     OW20260   2.148   3.759   7.627
 6567SOL    HW120261   2.188   3.846   7.619
 6567SOL    HW220262   2.216   3.704   7.665
 6568SOL     OW20263   2.419   3.943   8.617
 6568SOL    HW120264   2.462   3.872   8.664
 6568SOL    HW220265   2.328   3.939   8.644
 6569SOL     OW20266   2.882   3.767   8.183
 6569SOL    HW120267   2.817   3.754   8.114
 6569SOL    HW220268   2.859   3.702   8.250
 6570SOL     OW20269   2.785   3.803   8.846
 6570SOL    HW120270   2.814   3.782   8.757
 6570SOL    HW220271   2.858   3.851   8.884
 6571SOL     OW20272   3.129   0.075   8.713
 6571SOL    HW120273   3.140   0.143   8.779
 6571SOL    HW220274   3.062   0.109   8.654
 6572SOL     OW20275   2.371   3.749   9.204
 6572SOL    HW120276   2.315   3.704   9.141
 6572SOL    HW220277   2.340   3.840   9.202
 6573SOL     OW20278   2.156   3.920   8.699
 6573SOL    HW120279   2.112   3.939   8.781
 6573SOL    HW220280   2.144   3.826   8.686
 6574SOL     OW20281   3.444   3.954   7.571
 6574SOL    HW120282   3.380   3.897   7.613
 6574SOL    HW220283   3.458   0.025   7.634
 6575SOL     OW20284   3.025   3.922   8.921
 6575SOL    HW120285   3.028   3.996   8.982
 6575SOL    HW220286   3.067   3.954   8.841
 6576SOL     OW20287   2.763   3.811   7.550
 6576SOL    HW120288   2.822   3.771   7.487
 6576SOL    HW220289   2.804   3.794   7.635
 6577SOL     OW20290   3.590   3.860   7.972
 6577SOL    HW120291   3.659   3.845   7.907
 6577SOL    HW220292   3.570   3.772   8.005
 6578SOL     OW20293   3.697   3.896   8.411
 6578SOL    HW120294   3.730   3.809   8.388
 6578SOL    HW220295   3.611   3.900   8.369
 6579SOL     OW20296   2.538   3.910   8.938
 6579SOL    HW120297   2.621   3.901   8.891
 6579SOL    HW220298   2.564   3.932   9.028
 6580SOL     OW20299   1.908   0.053   7.481
 6580SOL    HW120300   1.869   0.029   7.397
 6580SOL    HW220301   1.937   0.143   7.470
 6581SOL     OW20302   1.924   3.865   7.757
 6581SOL    HW120303   1.913   3.955   7.727
 6581SOL    HW220304   2.005   3.835   7.716
 6582SOL     OW20305   3.055   0.012   7.914
 6582SOL    HW120306   3.123   3.944   7.912
 6582SOL    HW220307   3.077   0.066   7.990
 6583SOL     OW20308   3.647   0.048   9.077
 6583SOL    HW120309   3.604   0.081   8.998
 6583SOL    HW220310   3.577   0.003   9.125
 6584SOL     OW20311   3.678   3.910   8.684
 6584SOL    HW120312   3.666   3.818   8.707
 6584SOL    HW220313   3.687   3.910   8.588
 6585SOL     OW20314   3.301   3.932   8.565
 6585SOL    HW120315   3.329   3.850   8.607
 6585SOL    HW220316   3.243   3.973   8.629
 6586SOL     OW20317   2.877   3.736   8.596
 6586SOL    HW120318   2.820   3.681   8.543
 6586SOL    HW220319   2.963   3.693   8.591
 6587SOL     OW20320   3.217   3.770   7.607
 6587SOL    HW120321   3.251   3.699   7.552
 6587SOL    HW220322   3.129   3.741   7.632
 6588SOL     OW20323   3.144   0.162   8.131
 6588SOL    HW120324   3.145   0.257   8.135
 6588SOL    HW220325   3.148   0.133   8.222
 6589SOL     OW20326   3.441   3.930   8.327
 6589SOL    HW120327   3.390   3.932   8.408
 6589SOL    HW220328   3.437   0.020   8.295
 6590SOL     OW20329   2.094   3.981  10.293
 6590SOL    HW120330   2.118   3.962  10.384
 6590SOL    HW220331   2.003   3.953  10.285
 6591SOL     OW20332   1.875   0.061  10.025
 6591SOL    HW120333   1.802   0.112   9.988
 6591SOL    HW220334   1.910   0.011   9.950
 6592SOL     OW20335   3.634   0.320   9.492
 6592SOL    HW120336   3.558   0.303   9.437
 6592SOL    HW220337   3.597   0.341   9.578
 6593SOL     OW20338   2.301   0.095  10.816
 6593SOL    HW120339   2.374   0.053  10.770
 6593SOL    HW220340   2.225   0.042  10.795
 6594SOL     OW20341   3.458   3.850  10.770
 6594SOL    HW120342   3.461   3.937  10.730
 6594SOL    HW220343   3.444   3.868  10.863
 6595SOL     OW20344   2.668   3.729   9.815
 6595SOL    HW120345   2.695   3.821   9.809
 6595SOL    HW220346   2.573   3.732   9.824
 6596SOL     OW20347   3.129   0.062  10.249
 6596SOL    HW120348   3.058   0.008  10.215
 6596SOL    HW220349   3.185   0.001  10.297
 6597SOL     OW20350   2.416   3.904  10.201
 6597SOL    HW120351   2.410   3.924  10.295
 6597SOL    HW220352   2.411   3.990  10.159
 6598SOL     OW20353   2.053   3.983  10.799
 6598SOL    HW120354   2.000   0.062  10.809
 6598SOL    HW220355   2.015   3.921  10.861
 6599SOL     OW20356   3.268   3.833   9.740
 6599SOL    HW120357   3.259   3.799   9.651
 6599SOL    HW220358   3.360   3.819   9.762
 6600SOL     OW20359   3.398   3.938  11.034
 6600SOL    HW120360   3.423   3.941  11.126
 6600SOL    HW220361   3.329   3.872  11.029
 6601SOL     OW20362   2.490   3.848   9.437
 6601SOL    HW120363   2.581   3.819   9.437
 6601SOL    HW220364   2.449   3.801   9.365
 6602SOL     OW20365   2.635   3.958  11.054
 6602SOL    HW120366   2.687   3.928  11.128
 6602SOL    HW220367   2.548   3.975  11.090
 6603SOL     OW20368   2.397   3.785   9.825
 6603SOL    HW120369   2.349   3.787   9.907
 6603SOL    HW220370   2.405   3.877   9.799
 6604SOL     OW20371   2.148   3.759   9.489
 6604SOL    HW120372   2.188   3.845   9.481
 6604SOL    HW220373   2.216   3.704   9.528
 6605SOL     OW20374   2.419   3.943  10.479
 6605SOL    HW120375   2.462   3.872  10.526
 6605SOL    HW220376   2.328   3.939  10.506
 6606SOL     OW20377   2.882   3.767  10.045
 6606SOL    HW120378   2.817   3.754   9.975
 6606SOL    HW220379   2.859   3.702  10.111
 6607SOL     OW20380   2.785   3.803  10.708
 6607SOL    HW120381   2.814   3.782  10.619
 6607SOL    HW220382   2.858   3.851  10.746
 6608SOL     OW20383   3.129   0.075  10.575
 6608SOL    HW120384   3.140   0.143  10.641
 6608SOL    HW220385   3.061   0.108  10.516
 6609SOL     OW20386   2.371   3.749  11.066
 6609SOL    HW120387   2.315   3.704  11.003
 6609SOL    HW220388   2.340   3.840  11.064
 6610SOL     OW20389   2.156   3.920  10.561
 6610SOL    HW120390   2.112   3.939  10.643
 6610SOL    HW220391   2.145   3.826  10.548
 6611SOL     OW20392   3.444   3.954   9.433
 6611SOL    HW120393   3.379   3.897   9.475
 6611SOL    HW220394   3.457   0.026   9.495
 6612SOL     OW20395   3.025   3.922  10.783
 6612SOL    HW120396   3.028   3.996  10.844
 6612SOL    HW220397   3.067   3.954  10.703
 6613SOL     OW20398   2.763   3.811   9.412
 6613SOL    HW120399   2.823   3.772   9.349
 6613SOL    HW220400   2.803   3.795   9.497
 6614SOL     OW20401   3.590   3.860   9.834
 6614SOL    HW120402   3.659   3.845   9.769
 6614SOL    HW220403   3.570   3.772   9.867
 6615SOL     OW20404   3.697   3.896  10.273
 6615SOL    HW120405   3.730   3.809  10.250
 6615SOL    HW220406   3.611   3.901  10.231
 6616SOL     OW20407   2.538   3.910  10.800
 6616SOL    HW120408   2.621   3.901  10.753
 6616SOL    HW220409   2.564   3.932  10.890
 6617SOL     OW20410   1.907   0.053   9.344
 6617SOL    HW120411   1.868   0.029   9.260
 6617SOL    HW220412   1.937   0.143   9.333
 6618SOL     OW20413   1.924   3.865   9.619
 6618SOL    HW120414   1.913   3.954   9.587
 6618SOL    HW220415   2.005   3.835   9.578
 6619SOL     OW20416   3.055   0.012   9.776
 6619SOL    HW120417   3.123   3.944   9.774
 6619SOL    HW220418   3.077   0.066   9.852
 6620SOL     OW20419   3.647   0.048  10.939
 6620SOL    HW120420   3.604   0.081  10.860
 6620SOL    HW220421   3.577   0.003  10.987
 6621SOL     OW20422   3.678   3.910  10.546
 6621SOL    HW120423   3.666   3.818  10.569
 6621SOL    HW220424   3.687   3.910  10.450
 6622SOL     OW20425   3.301   3.932  10.427
 6622SOL    HW120426   3.329   3.850  10.469
 6622SOL    HW220427   3.243   3.973  10.491
 6623SOL     OW20428   2.877   3.736  10.458
 6623SOL    HW120429   2.819   3.681  10.405
 6623SOL    HW220430   2.963   3.693  10.453
 6624SOL     OW20431   3.217   3.770   9.469
 6624SOL    HW120432   3.250   3.700   9.414
 6624SOL    HW220433   3.129   3.742   9.495
 6625SOL     OW20434   3.144   0.162   9.992
 6625SOL    HW120435   3.145   0.257   9.997
 6625SOL    HW220436   3.149   0.133  10.084
 6626SOL     OW20437   3.441   3.930  10.189
 6626SOL    HW120438   3.390   3.932  10.270
 6626SOL    HW220439   3.437   0.020  10.157
 6627SOL     OW20440   2.094   3.981  12.155
 6627SOL    HW120441   2.118   3.962  12.246
 6627SOL    HW220442   2.003   3.953  12.147
 6628SOL     OW20443   1.875   0.061  11.886
 6628SOL    HW120444   1.802   0.112  11.850
 6628SOL    HW220445   1.910   0.011  11.812
 6629SOL     OW20446   3.634   0.319  11.354
 6629SOL    HW120447   3.558   0.303  11.299
 6629SOL    HW220448   3.597   0.341  11.440
 6630SOL     OW20449   2.302   0.095  12.678
 6630SOL    HW120450   2.373   0.052  12.632
 6630SOL    HW220451   2.225   0.042  12.657
 6631SOL     OW20452   3.458   3.850  12.632
 6631SOL    HW120453   3.461   3.937  12.592
 6631SOL    HW220454   3.444   3.867  12.725
 6632SOL     OW20455   2.668   3.729  11.677
 6632SOL    HW120456   2.695   3.821  11.671
 6632SOL    HW220457   2.573   3.732  11.686
 6633SOL     OW20458   3.129   0.062  12.111
 6633SOL    HW120459   3.058   0.008  12.077
 6633SOL    HW220460   3.185   0.001  12.159
 6634SOL     OW20461   2.416   3.904  12.063
 6634SOL    HW120462   2.410   3.924  12.157
 6634SOL    HW220463   2.411   3.990  12.021
 6635SOL     OW20464   2.053   3.983  12.661
 6635SOL    HW120465   1.999   0.062  12.671
 6635SOL    HW220466   2.015   3.920  12.722
 6636SOL     OW20467   3.268   3.833  11.602
 6636SOL    HW120468   3.259   3.800  11.513
 6636SOL    HW220469   3.360   3.819  11.624
 6637SOL     OW20470   3.398   3.939  12.896
 6637SOL    HW120471   3.421   3.943  12.989
 6637SOL    HW220472   3.329   3.872  12.892
 6638SOL     OW20473   2.490   3.848  11.299
 6638SOL    HW120474   2.581   3.819  11.299
 6638SOL    HW220475   2.449   3.801  11.227
 6639SOL     OW20476   2.635   3.958  12.916
 6639SOL    HW120477   2.687   3.928  12.990
 6639SOL    HW220478   2.548   3.974  12.952
 6640SOL     OW20479   2.397   3.785  11.686
 6640SOL    HW120480   2.349   3.787  11.769
 6640SOL    HW220481   2.405   3.877  11.661
 6641SOL     OW20482   2.147   3.759  11.351
 6641SOL    HW120483   2.188   3.845  11.343
 6641SOL    HW220484   2.216   3.704  11.390
 6642SOL     OW20485   2.419   3.943  12.341
 6642SOL    HW120486   2.462   3.872  12.388
 6642SOL    HW220487   2.328   3.939  12.368
 6643SOL     OW20488   2.882   3.767  11.907
 6643SOL    HW120489   2.817   3.754  11.837
 6643SOL    HW220490   2.859   3.702  11.973
 6644SOL     OW20491   2.785   3.803  12.570
 6644SOL    HW120492   2.814   3.782  12.481
 6644SOL    HW220493   2.858   3.851  12.608
 6645SOL     OW20494   3.129   0.075  12.437
 6645SOL    HW120495   3.139   0.144  12.503
 6645SOL    HW220496   3.061   0.108  12.378
 6646SOL     OW20497   2.371   3.749  12.928
 6646SOL    HW120498   2.315   3.704  12.865
 6646SOL    HW220499   2.340   3.840  12.926
 6647SOL     OW20500   2.156   3.920  12.423
 6647SOL    HW120501   2.112   3.939  12.506
 6647SOL    HW220502   2.145   3.826  12.410
 6648SOL     OW20503   3.444   3.954  11.295
 6648SOL    HW120504   3.379   3.897  11.337
 6648SOL    HW220505   3.457   0.026  11.357
 6649SOL     OW20506   3.025   3.922  12.645
 6649SOL    HW120507   3.028   3.995  12.706
 6649SOL    HW220508   3.067   3.955  12.565
 6650SOL     OW20509   2.763   3.811  11.274
 6650SOL    HW120510   2.823   3.772  11.211
 6650SOL    HW220511   2.803   3.795  11.359
 6651SOL     OW20512   3.590   3.860  11.697
 6651SOL    HW120513   3.659   3.845  11.631
 6651SOL    HW220514   3.570   3.772  11.729
 6652SOL     OW20515   3.697   3.895  12.135
 6652SOL    HW120516   3.730   3.809  12.112
 6652SOL    HW220517   3.611   3.901  12.093
 6653SOL     OW20518   2.538   3.910  12.662
 6653SOL    HW120519   2.621   3.901  12.615
 6653SOL    HW220520   2.564   3.932  12.752
 6654SOL     OW20521   1.906   0.053  11.206
 6654SOL    HW120522   1.868   0.029  11.122
 6654SOL    HW220523   1.937   0.143  11.195
 6655SOL     OW20524   1.924   3.865  11.481
 6655SOL    HW120525   1.913   3.954  11.449
 6655SOL    HW220526   2.005   3.835  11.440
 6656SOL     OW20527   3.055   0.012  11.638
 6656SOL    HW120528   3.123   3.944  11.636
 6656SOL    HW220529   3.077   0.066  11.714
 6657SOL     OW20530   3.646   0.048  12.800
 6657SOL    HW120531   3.603   0.081  12.721
 6657SOL    HW220532   3.577   0.003  12.849
 6658SOL     OW20533   3.678   3.910  12.408
 6658SOL    HW120534   3.666   3.818  12.431
 6658SOL    HW220535   3.687   3.910  12.313
 6659SOL     OW20536   3.301   3.932  12.289
 6659SOL    HW120537   3.329   3.850  12.331
 6659SOL    HW220538   3.243   3.973  12.353
 6660SOL     OW20539   2.877   3.736  12.320
 6660SOL    HW120540   2.819   3.681  12.268
 6660SOL    HW220541   2.963   3.693  12.315
 6661SOL     OW20542   3.217   3.770  11.331
 6661SOL    HW120543   3.250   3.700  11.276
 6661SOL    HW220544   3.129   3.742  11.357
 6662SOL     OW20545   3.144   0.162  11.854
 6662SOL    HW120546   3.145   0.257  11.859
 6662SOL    HW220547   3.149   0.133  11.946
 6663SOL     OW20548   3.441   3.930  12.051
 6663SOL    HW120549   3.390   3.932  12.132
 6663SOL    HW220550   3.437   0.020  12.019
 6664SOL     OW20551   1.881   0.089  13.687
 6664SOL    HW120552   1.799   0.110  13.733
 6664SOL    HW220553   1.869   3.999  13.657
 6665SOL     OW20554   3.634   0.317  13.216
 6665SOL    HW120555   3.557   0.303  13.160
 6665SOL    HW220556   3.597   0.335  13.303
 6666SOL     OW20557   3.465   0.174  13.767
 6666SOL    HW120558   3.377   0.152  13.738
 6666SOL    HW220559   3.457   0.262  13.803
 6667SOL     OW20560   2.670   3.730  13.540
 6667SOL    HW120561   2.694   3.823  13.533
 6667SOL    HW220562   2.575   3.730  13.549
 6668SOL     OW20563   3.268   3.836  13.462
 6668SOL    HW120564   3.263   3.800  13.373
 6668SOL    HW220565   3.361   3.828  13.485
 6669SOL     OW20566   2.490   3.849  13.160
 6669SOL    HW120567   2.581   3.819  13.161
 6669SOL    HW220568   2.449   3.801  13.089
 6670SOL     OW20569   2.398   3.780  13.548
 6670SOL    HW120570   2.345   3.770  13.627
 6670SOL    HW220571   2.401   3.874  13.533
 6671SOL     OW20572   2.147   3.759  13.213
 6671SOL    HW120573   2.189   3.844  13.204
 6671SOL    HW220574   2.214   3.703  13.253
 6672SOL     OW20575   2.874   3.763  13.771
 6672SOL    HW120576   2.817   3.757  13.694
 6672SOL    HW220577   2.854   3.684  13.821
 6673SOL     OW20578   3.443   3.958  13.158
 6673SOL    HW120579   3.385   3.896  13.201
 6673SOL    HW220580   3.476   0.013  13.229
 6674SOL     OW20581   2.763   3.811  13.136
 6674SOL    HW120582   2.823   3.772  13.072
 6674SOL    HW220583   2.803   3.793  13.221
 6675SOL     OW20584   3.591   3.858  13.566
 6675SOL    HW120585   3.659   3.847  13.500
 6675SOL    HW220586   3.573   3.769  13.597
 6676SOL     OW20587   3.712   3.894   0.046
 6676SOL    HW120588   3.746   3.805   0.056
 6676SOL    HW220589   3.623   3.891   0.082
 6677SOL     OW20590   1.907   0.052  13.066
 6677SOL    HW120591   1.869   0.030  12.981
 6677SOL    HW220592   1.936   0.143  13.056
 6678SOL     OW20593   1.921   3.866  13.343
 6678SOL    HW120594   1.914   3.959  13.319
 6678SOL    HW220595   2.002   3.837  13.301
 6679SOL     OW20596   3.050   0.003  13.516
 6679SOL    HW120597   3.123   3.943  13.497
 6679SOL    HW220598   3.083   0.061  13.584
 6680SOL     OW20599   3.218   3.770  13.192
 6680SOL    HW120600   3.250   3.699  13.137
 6680SOL    HW220601   3.130   3.742  13.219
 6681SOL     OW20602   3.174   0.156  13.735
 6681SOL    HW120603   3.139   0.243  13.717
 6681SOL    HW220604   3.155   0.140  13.827
 6682SOL     OW20605   3.954   0.630   0.127
 6682SOL    HW120606   3.891   0.631   0.199
 6682SOL    HW220607   3.913   0.575   0.060
 6683SOL     OW20608   3.954   0.298   0.993
 6683SOL    HW120609   3.964   0.273   1.085
 6683SOL    HW220610   3.868   0.263   0.968
 6684SOL     OW20611   3.731   0.394   0.638
 6684SOL    HW120612   3.644   0.408   0.674
 6684SOL    HW220613   3.722   0.317   0.582
 6685SOL     OW20614   0.012   1.524   1.050
 6685SOL    HW120615   3.960   1.446   1.036
 6685SOL    HW220616   0.080   1.521   0.982
 6686SOL     OW20617   3.947   1.717   0.474
 6686SOL    HW120618   3.945   1.791   0.534
 6686SOL    HW220619   0.040   1.706   0.453
 6687SOL     OW20620   3.936   1.438   0.507
 6687SOL    HW120621   3.926   1.533   0.510
 6687SOL    HW220622   3.883   1.406   0.580
 6688SOL     OW20623   3.807   0.649   0.557
 6688SOL    HW120624   3.791   0.558   0.582
 6688SOL    HW220625   3.811   0.696   0.640
 6689SOL     OW20626   3.696   1.616   0.100
 6689SOL    HW120627   3.730   1.529   0.118
 6689SOL    HW220628   3.699   1.662   0.184
 6690SOL     OW20629   3.825   0.750   1.577
 6690SOL    HW120630   3.907   0.795   1.599
 6690SOL    HW220631   3.760   0.821   1.571
 6691SOL     OW20632   3.804   0.818   0.771
 6691SOL    HW120633   3.898   0.814   0.791
 6691SOL    HW220634   3.772   0.891   0.825
 6692SOL     OW20635   3.847   1.873   1.569
 6692SOL    HW120636   3.848   1.844   1.660
 6692SOL    HW220637   3.767   1.836   1.532
 6693SOL     OW20638   3.924   0.310   1.520
 6693SOL    HW120639   3.850   0.358   1.484
 6693SOL    HW220640   3.885   0.247   1.580
 6694SOL     OW20641   3.808   0.548   1.391
 6694SOL    HW120642   3.903   0.546   1.379
 6694SOL    HW220643   3.793   0.624   1.448
 6695SOL     OW20644   3.791   1.573   1.350
 6695SOL    HW120645   3.764   1.636   1.282
 6695SOL    HW220646   3.887   1.580   1.352
 6696SOL     OW20647   0.070   1.096   0.536
 6696SOL    HW120648   0.081   1.151   0.458
 6696SOL    HW220649   0.143   1.034   0.532
 6697SOL     OW20650   0.005   0.215   1.247
 6697SOL    HW120651   3.978   0.239   1.335
 6697SOL    HW220652   0.004   0.119   1.247
 6698SOL     OW20653   3.751   1.312   1.277
 6698SOL    HW120654   3.794   1.262   1.347
 6698SOL    HW220655   3.765   1.404   1.301
 6699SOL     OW20656   3.743   1.318   0.171
 6699SOL    HW120657   3.659   1.333   0.127
 6699SOL    HW220658   3.731   1.235   0.218
 6700SOL     OW20659   3.801   1.794   0.939
 6700SOL    HW120660   3.778   1.713   0.892
 6700SOL    HW220661   3.895   1.804   0.924
 6701SOL     OW20662   0.212   1.551   0.867
 6701SOL    HW120663   0.291   1.605   0.867
 6701SOL    HW220664   0.226   1.488   0.796
 6702SOL     OW20665   3.752   0.536   1.117
 6702SOL    HW120666   3.832   0.528   1.064
 6702SOL    HW220667   3.784   0.545   1.207
 6703SOL     OW20668   3.905   0.531   1.713
 6703SOL    HW120669   3.941   0.477   1.643
 6703SOL    HW220670   3.862   0.603   1.668
 6704SOL     OW20671   3.942   1.532   1.726
 6704SOL    HW120672   3.932   1.615   1.773
 6704SOL    HW220673   3.990   1.476   1.787
 6705SOL     OW20674   3.860   1.134   1.473
 6705SOL    HW120675   3.933   1.130   1.534
 6705SOL    HW220676   3.892   1.092   1.393
 6706SOL     OW20677   3.811   1.268   1.012
 6706SOL    HW120678   3.782   1.279   1.103
 6706SOL    HW220679   3.751   1.202   0.977
 6707SOL     OW20680   3.843   1.790   1.825
 6707SOL    HW120681   3.791   1.725   1.873
 6707SOL    HW220682   3.893   1.835   1.893
 6708SOL     OW20683   3.802   0.404   0.003
 6708SOL    HW120684   3.764   0.323   0.037
 6708SOL    HW220685   3.775   0.406  13.811
 6709SOL     OW20686   3.793   0.145   0.350
 6709SOL    HW120687   3.757   0.222   0.306
 6709SOL    HW220688   3.888   0.159   0.348
 6710SOL     OW20689   3.800   1.235   0.665
 6710SOL    HW120690   3.792   1.187   0.747
 6710SOL    HW220691   3.884   1.205   0.628
 6711SOL     OW20692   3.753   1.080   0.306
 6711SOL    HW120693   3.848   1.086   0.311
 6711SOL    HW220694   3.734   0.989   0.327
 6712SOL     OW20695   3.956   0.631   1.970
 6712SOL    HW120696   3.875   0.634   2.020
 6712SOL    HW220697   3.930   0.599   1.884
 6713SOL     OW20698   3.954   0.296   2.854
 6713SOL    HW120699   3.964   0.273   2.947
 6713SOL    HW220700   3.868   0.262   2.830
 6714SOL     OW20701   3.731   0.393   2.500
 6714SOL    HW120702   3.644   0.408   2.536
 6714SOL    HW220703   3.721   0.316   2.443
 6715SOL     OW20704   0.012   1.525   2.912
 6715SOL    HW120705   3.960   1.445   2.899
 6715SOL    HW220706   0.080   1.521   2.844
 6716SOL     OW20707   3.942   1.720   2.337
 6716SOL    HW120708   3.945   1.792   2.400
 6716SOL    HW220709   0.033   1.704   2.313
 6717SOL     OW20710   3.944   1.439   2.370
 6717SOL    HW120711   3.923   1.532   2.371
 6717SOL    HW220712   3.887   1.401   2.437
 6718SOL     OW20713   3.806   0.649   2.421
 6718SOL    HW120714   3.792   0.558   2.446
 6718SOL    HW220715   3.810   0.696   2.504
 6719SOL     OW20716   3.757   1.596   1.991
 6719SOL    HW120717   3.736   1.504   2.008
 6719SOL    HW220718   3.726   1.643   2.068
 6720SOL     OW20719   3.825   0.751   3.439
 6720SOL    HW120720   3.906   0.795   3.461
 6720SOL    HW220721   3.760   0.821   3.433
 6721SOL     OW20722   3.804   0.818   2.635
 6721SOL    HW120723   3.898   0.814   2.653
 6721SOL    HW220724   3.772   0.891   2.688
 6722SOL     OW20725   3.847   1.873   3.431
 6722SOL    HW120726   3.848   1.844   3.522
 6722SOL    HW220727   3.767   1.836   3.394
 6723SOL     OW20728   3.924   0.310   3.382
 6723SOL    HW120729   3.850   0.359   3.346
 6723SOL    HW220730   3.884   0.247   3.442
 6724SOL     OW20731   3.808   0.548   3.253
 6724SOL    HW120732   3.903   0.546   3.241
 6724SOL    HW220733   3.793   0.624   3.310
 6725SOL     OW20734   0.267   0.291   2.195
 6725SOL    HW120735   0.316   0.225   2.146
 6725SOL    HW220736   0.304   0.375   2.166
 6726SOL     OW20737   3.791   1.573   3.212
 6726SOL    HW120738   3.764   1.636   3.144
 6726SOL    HW220739   3.887   1.580   3.214
 6727SOL     OW20740   0.065   1.095   2.392
 6727SOL    HW120741   0.062   1.136   2.306
 6727SOL    HW220742   0.129   1.024   2.382
 6728SOL     OW20743   0.005   0.215   3.109
 6728SOL    HW120744   3.977   0.240   3.197
 6728SOL    HW220745   0.004   0.119   3.109
 6729SOL     OW20746   3.751   1.312   3.140
 6729SOL    HW120747   3.794   1.262   3.209
 6729SOL    HW220748   3.765   1.404   3.163
 6730SOL     OW20749   3.728   1.327   2.049
 6730SOL    HW120750   3.642   1.340   2.009
 6730SOL    HW220751   3.720   1.243   2.095
 6731SOL     OW20752   3.801   1.794   2.800
 6731SOL    HW120753   3.778   1.714   2.754
 6731SOL    HW220754   3.895   1.804   2.787
 6732SOL     OW20755   0.212   1.551   2.729
 6732SOL    HW120756   0.292   1.604   2.729
 6732SOL    HW220757   0.226   1.488   2.659
 6733SOL     OW20758   3.753   0.535   2.979
 6733SOL    HW120759   3.832   0.529   2.926
 6733SOL    HW220760   3.784   0.545   3.069
 6734SOL     OW20761   3.904   0.531   3.575
 6734SOL    HW120762   3.941   0.477   3.505
 6734SOL    HW220763   3.862   0.604   3.530
 6735SOL     OW20764   3.942   1.532   3.588
 6735SOL    HW120765   3.932   1.615   3.635
 6735SOL    HW220766   3.990   1.476   3.649
 6736SOL     OW20767   3.860   1.134   3.335
 6736SOL    HW120768   3.933   1.130   3.396
 6736SOL    HW220769   3.892   1.092   3.255
 6737SOL     OW20770   3.810   1.268   2.874
 6737SOL    HW120771   3.782   1.279   2.965
 6737SOL    HW220772   3.751   1.202   2.839
 6738SOL     OW20773   3.843   1.790   3.687
 6738SOL    HW120774   3.791   1.725   3.735
 6738SOL    HW220775   3.893   1.835   3.755
 6739SOL     OW20776   3.823   0.316   1.857
 6739SOL    HW120777   3.755   0.333   1.922
 6739SOL    HW220778   3.822   0.393   1.800
 6740SOL     OW20779   3.777   0.151   2.207
 6740SOL    HW120780   3.745   0.207   2.136
 6740SOL    HW220781   3.872   0.154   2.198
 6741SOL     OW20782   3.801   1.237   2.527
 6741SOL    HW120783   3.794   1.188   2.609
 6741SOL    HW220784   3.879   1.202   2.485
 6742SOL     OW20785   3.752   1.082   2.173
 6742SOL    HW120786   3.843   1.083   2.141
 6742SOL    HW220787   3.735   0.990   2.193
 6743SOL     OW20788   3.956   0.631   3.832
 6743SOL    HW120789   3.875   0.634   3.882
 6743SOL    HW220790   3.930   0.599   3.746
 6744SOL     OW20791   3.954   0.295   4.716
 6744SOL    HW120792   3.964   0.273   4.809
 6744SOL    HW220793   3.868   0.262   4.692
 6745SOL     OW20794   3.731   0.393   4.362
 6745SOL    HW120795   3.644   0.408   4.398
 6745SOL    HW220796   3.721   0.316   4.305
 6746SOL     OW20797   0.012   1.525   4.774
 6746SOL    HW120798   3.960   1.445   4.761
 6746SOL    HW220799   0.080   1.521   4.706
 6747SOL     OW20800   3.942   1.720   4.199
 6747SOL    HW120801   3.945   1.792   4.262
 6747SOL    HW220802   0.033   1.704   4.175
 6748SOL     OW20803   3.944   1.439   4.232
 6748SOL    HW120804   3.923   1.532   4.233
 6748SOL    HW220805   3.886   1.401   4.299
 6749SOL     OW20806   3.806   0.649   4.283
 6749SOL    HW120807   3.791   0.558   4.308
 6749SOL    HW220808   3.810   0.696   4.366
 6750SOL     OW20809   3.757   1.596   3.853
 6750SOL    HW120810   3.736   1.504   3.870
 6750SOL    HW220811   3.726   1.643   3.930
 6751SOL     OW20812   3.825   0.751   5.301
 6751SOL    HW120813   3.906   0.795   5.323
 6751SOL    HW220814   3.760   0.821   5.295
 6752SOL     OW20815   3.804   0.818   4.497
 6752SOL    HW120816   3.898   0.814   4.515
 6752SOL    HW220817   3.772   0.891   4.550
 6753SOL     OW20818   3.847   1.873   5.293
 6753SOL    HW120819   3.848   1.843   5.384
 6753SOL    HW220820   3.766   1.837   5.256
 6754SOL     OW20821   3.924   0.310   5.244
 6754SOL    HW120822   3.850   0.359   5.208
 6754SOL    HW220823   3.884   0.247   5.304
 6755SOL     OW20824   3.808   0.548   5.115
 6755SOL    HW120825   3.903   0.546   5.103
 6755SOL    HW220826   3.793   0.624   5.172
 6756SOL     OW20827   0.267   0.291   4.057
 6756SOL    HW120828   0.316   0.225   4.008
 6756SOL    HW220829   0.304   0.375   4.029
 6757SOL     OW20830   3.791   1.573   5.074
 6757SOL    HW120831   3.764   1.636   5.006
 6757SOL    HW220832   3.887   1.580   5.076
 6758SOL     OW20833   0.065   1.095   4.254
 6758SOL    HW120834   0.062   1.136   4.168
 6758SOL    HW220835   0.130   1.024   4.244
 6759SOL     OW20836   0.005   0.215   4.971
 6759SOL    HW120837   3.977   0.240   5.059
 6759SOL    HW220838   0.004   0.119   4.971
 6760SOL     OW20839   3.751   1.312   5.001
 6760SOL    HW120840   3.794   1.262   5.071
 6760SOL    HW220841   3.765   1.403   5.026
 6761SOL     OW20842   3.728   1.327   3.911
 6761SOL    HW120843   3.642   1.340   3.871
 6761SOL    HW220844   3.720   1.243   3.957
 6762SOL     OW20845   3.801   1.794   4.662
 6762SOL    HW120846   3.778   1.714   4.616
 6762SOL    HW220847   3.895   1.804   4.649
 6763SOL     OW20848   0.212   1.551   4.591
 6763SOL    HW120849   0.292   1.604   4.591
 6763SOL    HW220850   0.226   1.488   4.521
 6764SOL     OW20851   3.753   0.535   4.841
 6764SOL    HW120852   3.832   0.529   4.788
 6764SOL    HW220853   3.784   0.545   4.931
 6765SOL     OW20854   3.904   0.531   5.437
 6765SOL    HW120855   3.941   0.478   5.367
 6765SOL    HW220856   3.861   0.604   5.392
 6766SOL     OW20857   3.942   1.532   5.450
 6766SOL    HW120858   3.931   1.615   5.497
 6766SOL    HW220859   3.989   1.476   5.512
 6767SOL     OW20860   3.860   1.134   5.197
 6767SOL    HW120861   3.933   1.130   5.258
 6767SOL    HW220862   3.892   1.092   5.117
 6768SOL     OW20863   3.810   1.268   4.736
 6768SOL    HW120864   3.782   1.279   4.827
 6768SOL    HW220865   3.751   1.202   4.701
 6769SOL     OW20866   3.843   1.790   5.549
 6769SOL    HW120867   3.791   1.725   5.597
 6769SOL    HW220868   3.893   1.835   5.617
 6770SOL     OW20869   3.823   0.316   3.719
 6770SOL    HW120870   3.755   0.333   3.784
 6770SOL    HW220871   3.822   0.393   3.662
 6771SOL     OW20872   3.777   0.151   4.069
 6771SOL    HW120873   3.745   0.207   3.998
 6771SOL    HW220874   3.872   0.154   4.060
 6772SOL     OW20875   3.801   1.237   4.389
 6772SOL    HW120876   3.794   1.188   4.471
 6772SOL    HW220877   3.879   1.202   4.347
 6773SOL     OW20878   3.752   1.082   4.035
 6773SOL    HW120879   3.843   1.083   4.003
 6773SOL    HW220880   3.735   0.990   4.055
 6774SOL     OW20881   3.956   0.631   5.694
 6774SOL    HW120882   3.875   0.635   5.744
 6774SOL    HW220883   3.930   0.599   5.608
 6775SOL     OW20884   3.954   0.295   6.578
 6775SOL    HW120885   3.964   0.273   6.671
 6775SOL    HW220886   3.868   0.262   6.554
 6776SOL     OW20887   3.731   0.393   6.224
 6776SOL    HW120888   3.644   0.407   6.260
 6776SOL    HW220889   3.721   0.316   6.168
 6777SOL     OW20890   0.012   1.525   6.636
 6777SOL    HW120891   3.960   1.446   6.622
 6777SOL    HW220892   0.080   1.521   6.568
 6778SOL     OW20893   3.942   1.720   6.061
 6778SOL    HW120894   3.945   1.792   6.124
 6778SOL    HW220895   0.033   1.704   6.037
 6779SOL     OW20896   3.944   1.439   6.094
 6779SOL    HW120897   3.923   1.532   6.095
 6779SOL    HW220898   3.886   1.401   6.161
 6780SOL     OW20899   3.806   0.649   6.145
 6780SOL    HW120900   3.791   0.558   6.170
 6780SOL    HW220901   3.810   0.697   6.227
 6781SOL     OW20902   3.757   1.596   5.715
 6781SOL    HW120903   3.736   1.504   5.732
 6781SOL    HW220904   3.726   1.643   5.792
 6782SOL     OW20905   3.825   0.751   7.163
 6782SOL    HW120906   3.907   0.795   7.185
 6782SOL    HW220907   3.760   0.821   7.157
 6783SOL     OW20908   3.804   0.818   6.359
 6783SOL    HW120909   3.898   0.814   6.377
 6783SOL    HW220910   3.772   0.891   6.411
 6784SOL     OW20911   3.847   1.873   7.155
 6784SOL    HW120912   3.848   1.843   7.246
 6784SOL    HW220913   3.765   1.839   7.119
 6785SOL     OW20914   3.924   0.310   7.106
 6785SOL    HW120915   3.850   0.359   7.070
 6785SOL    HW220916   3.885   0.247   7.166
 6786SOL     OW20917   3.808   0.548   6.978
 6786SOL    HW120918   3.903   0.546   6.965
 6786SOL    HW220919   3.793   0.624   7.034
 6787SOL     OW20920   0.267   0.291   5.919
 6787SOL    HW120921   0.316   0.226   5.870
 6787SOL    HW220922   0.304   0.375   5.891
 6788SOL     OW20923   3.791   1.573   6.935
 6788SOL    HW120924   3.764   1.636   6.869
 6788SOL    HW220925   3.886   1.580   6.938
 6789SOL     OW20926   0.066   1.094   6.116
 6789SOL    HW120927   0.062   1.137   6.030
 6789SOL    HW220928   0.130   1.024   6.106
 6790SOL     OW20929   0.005   0.215   6.833
 6790SOL    HW120930   3.978   0.240   6.921
 6790SOL    HW220931   0.004   0.119   6.833
 6791SOL     OW20932   3.751   1.312   6.864
 6791SOL    HW120933   3.794   1.262   6.933
 6791SOL    HW220934   3.765   1.403   6.887
 6792SOL     OW20935   3.728   1.326   5.773
 6792SOL    HW120936   3.642   1.340   5.733
 6792SOL    HW220937   3.720   1.243   5.819
 6793SOL     OW20938   3.801   1.794   6.524
 6793SOL    HW120939   3.778   1.713   6.478
 6793SOL    HW220940   3.895   1.804   6.510
 6794SOL     OW20941   0.213   1.551   6.453
 6794SOL    HW120942   0.292   1.605   6.453
 6794SOL    HW220943   0.227   1.487   6.382
 6795SOL     OW20944   3.753   0.535   6.703
 6795SOL    HW120945   3.832   0.529   6.650
 6795SOL    HW220946   3.784   0.545   6.793
 6796SOL     OW20947   3.904   0.531   7.299
 6796SOL    HW120948   3.942   0.478   7.229
 6796SOL    HW220949   3.862   0.604   7.254
 6797SOL     OW20950   3.942   1.532   7.312
 6797SOL    HW120951   3.931   1.616   7.357
 6797SOL    HW220952   3.989   1.477   7.375
 6798SOL     OW20953   3.860   1.133   7.059
 6798SOL    HW120954   3.934   1.130   7.120
 6798SOL    HW220955   3.892   1.092   6.979
 6799SOL     OW20956   3.811   1.267   6.599
 6799SOL    HW120957   3.782   1.279   6.689
 6799SOL    HW220958   3.751   1.202   6.563
 6800SOL     OW20959   3.844   1.789   7.411
 6800SOL    HW120960   3.791   1.725   7.459
 6800SOL    HW220961   3.894   1.835   7.479
 6801SOL     OW20962   3.823   0.316   5.581
 6801SOL    HW120963   3.755   0.333   5.646
 6801SOL    HW220964   3.822   0.393   5.524
 6802SOL     OW20965   3.777   0.151   5.930
 6802SOL    HW120966   3.745   0.207   5.860
 6802SOL    HW220967   3.872   0.154   5.922
 6803SOL     OW20968   3.801   1.237   6.250
 6803SOL    HW120969   3.794   1.189   6.333
 6803SOL    HW220970   3.879   1.202   6.209
 6804SOL     OW20971   3.752   1.082   5.897
 6804SOL    HW120972   3.843   1.083   5.865
 6804SOL    HW220973   3.735   0.990   5.917
 6805SOL     OW20974   3.956   0.631   7.556
 6805SOL    HW120975   3.875   0.635   7.606
 6805SOL    HW220976   3.930   0.599   7.470
 6806SOL     OW20977   3.954   0.296   8.440
 6806SOL    HW120978   3.964   0.273   8.533
 6806SOL    HW220979   3.868   0.262   8.416
 6807SOL     OW20980   3.731   0.393   8.086
 6807SOL    HW120981   3.644   0.407   8.122
 6807SOL    HW220982   3.721   0.316   8.029
 6808SOL     OW20983   0.012   1.524   8.499
 6808SOL    HW120984   3.960   1.445   8.484
 6808SOL    HW220985   0.080   1.521   8.431
 6809SOL     OW20986   3.942   1.719   7.923
 6809SOL    HW120987   3.945   1.792   7.986
 6809SOL    HW220988   0.033   1.704   7.898
 6810SOL     OW20989   3.944   1.439   7.957
 6810SOL    HW120990   3.923   1.532   7.956
 6810SOL    HW220991   3.886   1.401   8.023
 6811SOL     OW20992   3.806   0.649   8.007
 6811SOL    HW120993   3.792   0.558   8.032
 6811SOL    HW220994   3.810   0.696   8.090
 6812SOL     OW20995   3.758   1.596   7.577
 6812SOL    HW120996   3.736   1.504   7.595
 6812SOL    HW220997   3.726   1.643   7.654
 6813SOL     OW20998   3.825   0.751   9.025
 6813SOL    HW120999   3.907   0.795   9.047
 6813SOL    HW221000   3.760   0.821   9.019
 6814SOL     OW21001   3.804   0.818   8.221
 6814SOL    HW121002   3.898   0.814   8.239
 6814SOL    HW221003   3.772   0.891   8.274
 6815SOL     OW21004   3.847   1.873   9.017
 6815SOL    HW121005   3.847   1.844   9.108
 6815SOL    HW221006   3.767   1.836   8.980
 6816SOL     OW21007   3.924   0.310   8.968
 6816SOL    HW121008   3.850   0.359   8.932
 6816SOL    HW221009   3.884   0.247   9.028
 6817SOL     OW21010   3.808   0.548   8.840
 6817SOL    HW121011   3.903   0.546   8.827
 6817SOL    HW221012   3.793   0.624   8.896
 6818SOL     OW21013   0.267   0.291   7.781
 6818SOL    HW121014   0.316   0.226   7.732
 6818SOL    HW221015   0.304   0.375   7.753
 6819SOL     OW21016   3.791   1.573   8.798
 6819SOL    HW121017   3.765   1.636   8.730
 6819SOL    HW221018   3.887   1.580   8.800
 6820SOL     OW21019   0.066   1.094   7.978
 6820SOL    HW121020   0.063   1.137   7.892
 6820SOL    HW221021   0.131   1.026   7.968
 6821SOL     OW21022   0.005   0.215   8.695
 6821SOL    HW121023   3.977   0.240   8.783
 6821SOL    HW221024   0.004   0.119   8.695
 6822SOL     OW21025   3.751   1.312   8.726
 6822SOL    HW121026   3.795   1.262   8.795
 6822SOL    HW221027   3.765   1.404   8.749
 6823SOL     OW21028   3.728   1.326   7.635
 6823SOL    HW121029   3.642   1.340   7.595
 6823SOL    HW221030   3.720   1.243   7.681
 6824SOL     OW21031   3.801   1.794   8.387
 6824SOL    HW121032   3.778   1.714   8.341
 6824SOL    HW221033   3.895   1.804   8.373
 6825SOL     OW21034   0.212   1.551   8.315
 6825SOL    HW121035   0.292   1.604   8.315
 6825SOL    HW221036   0.226   1.488   8.244
 6826SOL     OW21037   3.752   0.535   8.565
 6826SOL    HW121038   3.832   0.529   8.512
 6826SOL    HW221039   3.784   0.545   8.655
 6827SOL     OW21040   3.904   0.531   9.161
 6827SOL    HW121041   3.942   0.478   9.091
 6827SOL    HW221042   3.862   0.604   9.116
 6828SOL     OW21043   3.942   1.532   9.174
 6828SOL    HW121044   3.932   1.615   9.221
 6828SOL    HW221045   3.990   1.476   9.235
 6829SOL     OW21046   3.860   1.134   8.921
 6829SOL    HW121047   3.934   1.130   8.982
 6829SOL    HW221048   3.892   1.092   8.841
 6830SOL     OW21049   3.810   1.268   8.460
 6830SOL    HW121050   3.782   1.279   8.551
 6830SOL    HW221051   3.751   1.202   8.425
 6831SOL     OW21052   3.843   1.790   9.273
 6831SOL    HW121053   3.791   1.725   9.321
 6831SOL    HW221054   3.893   1.835   9.341
 6832SOL     OW21055   3.823   0.316   7.443
 6832SOL    HW121056   3.755   0.334   7.508
 6832SOL    HW221057   3.822   0.393   7.386
 6833SOL     OW21058   3.777   0.152   7.793
 6833SOL    HW121059   3.745   0.207   7.722
 6833SOL    HW221060   3.872   0.154   7.784
 6834SOL     OW21061   3.801   1.237   8.113
 6834SOL    HW121062   3.794   1.188   8.195
 6834SOL    HW221063   3.879   1.203   8.070
 6835SOL     OW21064   3.752   1.082   7.759
 6835SOL    HW121065   3.842   1.083   7.727
 6835SOL    HW221066   3.735   0.990   7.779
 6836SOL     OW21067   3.956   0.631   9.418
 6836SOL    HW121068   3.875   0.635   9.468
 6836SOL    HW221069   3.930   0.599   9.332
 6837SOL     OW21070   3.954   0.296  10.302
 6837SOL    HW121071   3.964   0.273  10.395
 6837SOL    HW221072   3.868   0.262  10.278
 6838SOL     OW21073   3.731   0.393   9.948
 6838SOL    HW121074   3.644   0.408   9.984
 6838SOL    HW221075   3.721   0.317   9.891
 6839SOL     OW21076   0.012   1.525  10.360
 6839SOL    HW121077   3.960   1.445  10.347
 6839SOL    HW221078   0.080   1.521  10.292
 6840SOL     OW21079   3.942   1.720   9.785
 6840SOL    HW121080   3.945   1.792   9.848
 6840SOL    HW221081   0.033   1.704   9.761
 6841SOL     OW21082   3.944   1.439   9.819
 6841SOL    HW121083   3.923   1.532   9.819
 6841SOL    HW221084   3.886   1.401   9.885
 6842SOL     OW21085   3.806   0.649   9.869
 6842SOL    HW121086   3.792   0.558   9.894
 6842SOL    HW221087   3.810   0.696   9.952
 6843SOL     OW21088   3.757   1.596   9.439
 6843SOL    HW121089   3.736   1.504   9.456
 6843SOL    HW221090   3.726   1.643   9.516
 6844SOL     OW21091   3.825   0.751  10.887
 6844SOL    HW121092   3.906   0.795  10.909
 6844SOL    HW221093   3.760   0.821  10.880
 6845SOL     OW21094   3.804   0.818  10.083
 6845SOL    HW121095   3.898   0.814  10.101
 6845SOL    HW221096   3.772   0.891  10.135
 6846SOL     OW21097   3.847   1.873  10.879
 6846SOL    HW121098   3.847   1.844  10.970
 6846SOL    HW221099   3.767   1.836  10.842
 6847SOL     OW21100   3.924   0.310  10.830
 6847SOL    HW121101   3.850   0.359  10.794
 6847SOL    HW221102   3.884   0.247  10.890
 6848SOL     OW21103   3.808   0.548  10.702
 6848SOL    HW121104   3.903   0.546  10.689
 6848SOL    HW221105   3.793   0.624  10.758
 6849SOL     OW21106   0.267   0.291   9.643
 6849SOL    HW121107   0.316   0.225   9.594
 6849SOL    HW221108   0.304   0.375   9.614
 6850SOL     OW21109   3.791   1.573  10.660
 6850SOL    HW121110   3.764   1.636  10.592
 6850SOL    HW221111   3.887   1.580  10.662
 6851SOL     OW21112   0.066   1.095   9.840
 6851SOL    HW121113   0.062   1.136   9.754
 6851SOL    HW221114   0.130   1.024   9.830
 6852SOL     OW21115   0.005   0.215  10.557
 6852SOL    HW121116   3.977   0.240  10.645
 6852SOL    HW221117   0.004   0.119  10.557
 6853SOL     OW21118   3.751   1.312  10.588
 6853SOL    HW121119   3.795   1.262  10.657
 6853SOL    HW221120   3.765   1.404  10.611
 6854SOL     OW21121   3.728   1.327   9.497
 6854SOL    HW121122   3.642   1.340   9.457
 6854SOL    HW221123   3.720   1.243   9.543
 6855SOL     OW21124   3.801   1.794  10.248
 6855SOL    HW121125   3.778   1.714  10.202
 6855SOL    HW221126   3.895   1.804  10.235
 6856SOL     OW21127   0.212   1.551  10.177
 6856SOL    HW121128   0.292   1.604  10.177
 6856SOL    HW221129   0.226   1.488  10.106
 6857SOL     OW21130   3.753   0.535  10.427
 6857SOL    HW121131   3.832   0.529  10.374
 6857SOL    HW221132   3.784   0.545  10.517
 6858SOL     OW21133   3.905   0.531  11.023
 6858SOL    HW121134   3.941   0.478  10.953
 6858SOL    HW221135   3.862   0.604  10.978
 6859SOL     OW21136   3.942   1.532  11.036
 6859SOL    HW121137   3.932   1.615  11.083
 6859SOL    HW221138   3.989   1.476  11.097
 6860SOL     OW21139   3.860   1.134  10.783
 6860SOL    HW121140   3.934   1.130  10.844
 6860SOL    HW221141   3.892   1.092  10.703
 6861SOL     OW21142   3.810   1.268  10.322
 6861SOL    HW121143   3.782   1.279  10.413
 6861SOL    HW221144   3.751   1.202  10.287
 6862SOL     OW21145   3.843   1.790  11.135
 6862SOL    HW121146   3.791   1.725  11.183
 6862SOL    HW221147   3.893   1.835  11.203
 6863SOL     OW21148   3.823   0.316   9.305
 6863SOL    HW121149   3.755   0.333   9.370
 6863SOL    HW221150   3.822   0.393   9.248
 6864SOL     OW21151   3.777   0.151   9.655
 6864SOL    HW121152   3.745   0.207   9.584
 6864SOL    HW221153   3.872   0.154   9.646
 6865SOL     OW21154   3.801   1.238   9.975
 6865SOL    HW121155   3.794   1.188  10.057
 6865SOL    HW221156   3.879   1.202   9.933
 6866SOL     OW21157   3.752   1.082   9.621
 6866SOL    HW121158   3.843   1.083   9.589
 6866SOL    HW221159   3.735   0.990   9.641
 6867SOL     OW21160   3.956   0.631  11.280
 6867SOL    HW121161   3.875   0.635  11.330
 6867SOL    HW221162   3.930   0.599  11.194
 6868SOL     OW21163   3.954   0.296  12.164
 6868SOL    HW121164   3.964   0.273  12.257
 6868SOL    HW221165   3.868   0.262  12.141
 6869SOL     OW21166   3.731   0.393  11.810
 6869SOL    HW121167   3.644   0.408  11.846
 6869SOL    HW221168   3.721   0.317  11.752
 6870SOL     OW21169   0.012   1.525  12.222
 6870SOL    HW121170   3.960   1.445  12.209
 6870SOL    HW221171   0.080   1.521  12.154
 6871SOL     OW21172   3.942   1.720  11.647
 6871SOL    HW121173   3.945   1.792  11.710
 6871SOL    HW221174   0.033   1.704  11.623
 6872SOL     OW21175   3.944   1.439  11.681
 6872SOL    HW121176   3.923   1.532  11.681
 6872SOL    HW221177   3.887   1.401  11.747
 6873SOL     OW21178   3.806   0.649  11.731
 6873SOL    HW121179   3.792   0.558  11.756
 6873SOL    HW221180   3.810   0.696  11.814
 6874SOL     OW21181   3.757   1.596  11.301
 6874SOL    HW121182   3.736   1.504  11.318
 6874SOL    HW221183   3.726   1.643  11.378
 6875SOL     OW21184   3.825   0.751  12.749
 6875SOL    HW121185   3.906   0.795  12.770
 6875SOL    HW221186   3.760   0.821  12.742
 6876SOL     OW21187   3.804   0.818  11.945
 6876SOL    HW121188   3.898   0.814  11.964
 6876SOL    HW221189   3.772   0.891  11.997
 6877SOL     OW21190   3.847   1.873  12.742
 6877SOL    HW121191   3.848   1.844  12.833
 6877SOL    HW221192   3.767   1.836  12.705
 6878SOL     OW21193   3.924   0.310  12.693
 6878SOL    HW121194   3.850   0.359  12.656
 6878SOL    HW221195   3.884   0.247  12.752
 6879SOL     OW21196   3.808   0.548  12.564
 6879SOL    HW121197   3.903   0.546  12.551
 6879SOL    HW221198   3.793   0.624  12.620
 6880SOL     OW21199   0.267   0.291  11.505
 6880SOL    HW121200   0.316   0.225  11.456
 6880SOL    HW221201   0.304   0.375  11.476
 6881SOL     OW21202   3.791   1.573  12.522
 6881SOL    HW121203   3.764   1.636  12.454
 6881SOL    HW221204   3.887   1.580  12.524
 6882SOL     OW21205   0.066   1.095  11.702
 6882SOL    HW121206   0.062   1.136  11.616
 6882SOL    HW221207   0.130   1.024  11.692
 6883SOL     OW21208   0.005   0.215  12.419
 6883SOL    HW121209   3.977   0.239  12.507
 6883SOL    HW221210   0.004   0.119  12.419
 6884SOL     OW21211   3.751   1.312  12.450
 6884SOL    HW121212   3.795   1.262  12.519
 6884SOL    HW221213   3.765   1.404  12.473
 6885SOL     OW21214   3.728   1.326  11.359
 6885SOL    HW121215   3.642   1.340  11.319
 6885SOL    HW221216   3.720   1.243  11.405
 6886SOL     OW21217   3.801   1.794  12.110
 6886SOL    HW121218   3.778   1.714  12.064
 6886SOL    HW221219   3.895   1.804  12.097
 6887SOL     OW21220   0.212   1.551  12.039
 6887SOL    HW121221   0.292   1.604  12.039
 6887SOL    HW221222   0.226   1.488  11.968
 6888SOL     OW21223   3.752   0.535  12.289
 6888SOL    HW121224   3.832   0.529  12.236
 6888SOL    HW221225   3.784   0.545  12.379
 6889SOL     OW21226   3.906   0.531  12.885
 6889SOL    HW121227   3.941   0.477  12.815
 6889SOL    HW221228   3.862   0.604  12.841
 6890SOL     OW21229   3.942   1.532  12.899
 6890SOL    HW121230   3.932   1.615  12.945
 6890SOL    HW221231   3.988   1.476  12.960
 6891SOL     OW21232   3.860   1.134  12.645
 6891SOL    HW121233   3.934   1.130  12.705
 6891SOL    HW221234   3.892   1.092  12.565
 6892SOL     OW21235   3.810   1.268  12.184
 6892SOL    HW121236   3.782   1.279  12.275
 6892SOL    HW221237   3.751   1.202  12.148
 6893SOL     OW21238   3.844   1.791  12.999
 6893SOL    HW121239   3.792   1.726  13.046
 6893SOL    HW221240   3.893   1.836  13.067
 6894SOL     OW21241   3.823   0.316  11.167
 6894SOL    HW121242   3.755   0.333  11.232
 6894SOL    HW221243   3.822   0.393  11.110
 6895SOL     OW21244   3.777   0.151  11.517
 6895SOL    HW121245   3.745   0.207  11.446
 6895SOL    HW221246   3.872   0.154  11.508
 6896SOL     OW21247   3.801   1.238  11.837
 6896SOL    HW121248   3.794   1.188  11.919
 6896SOL    HW221249   3.879   1.202  11.795
 6897SOL     OW21250   3.752   1.082  11.483
 6897SOL    HW121251   3.843   1.083  11.451
 6897SOL    HW221252   3.735   0.990  11.503
 6898SOL     OW21253   3.954   0.630  13.143
 6898SOL    HW121254   3.871   0.634  13.190
 6898SOL    HW221255   3.931   0.598  13.056
 6899SOL     OW21256   3.721   0.388  13.646
 6899SOL    HW121257   3.630   0.406  13.671
 6899SOL    HW221258   3.720   0.297  13.616
 6900SOL     OW21259   3.941   1.715  13.503
 6900SOL    HW121260   3.941   1.790  13.563
 6900SOL    HW221261   0.033   1.701  13.483
 6901SOL     OW21262   3.943   1.435  13.539
 6901SOL    HW121263   3.925   1.529  13.540
 6901SOL    HW221264   3.885   1.399  13.606
 6902SOL     OW21265   3.946   1.096   0.005
 6902SOL    HW121266   3.983   1.051   0.081
 6902SOL    HW221267   3.860   1.126   0.033
 6903SOL     OW21268   3.824   0.647  13.594
 6903SOL    HW121269   3.781   0.564  13.610
 6903SOL    HW221270   3.813   0.696  13.676
 6904SOL     OW21271   3.755   1.596  13.162
 6904SOL    HW121272   3.735   1.504  13.180
 6904SOL    HW221273   3.725   1.643  13.240
 6905SOL     OW21274   3.797   0.809  13.812
 6905SOL    HW121275   3.891   0.816  13.827
 6905SOL    HW221276   3.761   0.888  13.851
 6906SOL     OW21277   0.098   1.810  13.884
 6906SOL    HW121278   0.057   1.735   0.028
 6906SOL    HW221279   0.168   1.837   0.044
 6907SOL     OW21280   0.267   0.294  13.368
 6907SOL    HW121281   0.315   0.223  13.325
 6907SOL    HW221282   0.310   0.374  13.338
 6908SOL     OW21283   0.069   1.095  13.557
 6908SOL    HW121284   0.066   1.140  13.472
 6908SOL    HW221285   0.136   1.027  13.546
 6909SOL     OW21286   3.728   1.327  13.220
 6909SOL    HW121287   3.642   1.340  13.180
 6909SOL    HW221288   3.720   1.244  13.268
 6910SOL     OW21289   0.313   1.534   0.014
 6910SOL    HW121290   0.257   1.606   0.045
 6910SOL    HW221291   0.255   1.481  13.860
 6911SOL     OW21292   3.823   0.317  13.029
 6911SOL    HW121293   3.754   0.333  13.093
 6911SOL    HW221294   3.821   0.393  12.972
 6912SOL     OW21295   3.787   0.152  13.372
 6912SOL    HW121296   3.751   0.208  13.303
 6912SOL    HW221297   3.881   0.154  13.358
 6913SOL     OW21298   3.808   1.232  13.690
 6913SOL    HW121299   3.798   1.170  13.762
 6913SOL    HW221300   3.886   1.202  13.643
 6914SOL     OW21301   3.752   1.081  13.343
 6914SOL    HW121302   3.842   1.083  13.310
 6914SOL    HW221303   3.737   0.989  13.364
 6915SOL     OW21304   3.954   2.496   0.130
 6915SOL    HW121305   3.884   2.497   0.195
 6915SOL    HW221306   3.918   2.447   0.057
 6916SOL     OW21307   3.961   2.126   0.986
 6916SOL    HW121308   3.966   2.121   1.082
 6916SOL    HW221309   3.869   2.112   0.967
 6917SOL     OW21310   3.724   2.245   0.636
 6917SOL    HW121311   3.644   2.267   0.683
 6917SOL    HW221312   3.706   2.162   0.594
 6918SOL     OW21313   0.013   3.383   1.052
 6918SOL    HW121314   3.961   3.305   1.033
 6918SOL    HW221315   0.079   3.385   0.983
 6919SOL     OW21316   3.939   3.575   0.479
 6919SOL    HW121317   3.951   3.649   0.539
 6919SOL    HW221318   0.026   3.561   0.440
 6920SOL     OW21319   3.935   3.297   0.508
 6920SOL    HW121320   3.926   3.393   0.507
 6920SOL    HW221321   3.882   3.269   0.583
 6921SOL     OW21322   3.814   2.503   0.559
 6921SOL    HW121323   3.784   2.415   0.584
 6921SOL    HW221324   3.811   2.553   0.641
 6922SOL     OW21325   3.747   3.468   0.116
 6922SOL    HW121326   3.726   3.376   0.135
 6922SOL    HW221327   3.714   3.516   0.192
 6923SOL     OW21328   3.825   2.604   1.583
 6923SOL    HW121329   3.908   2.646   1.606
 6923SOL    HW221330   3.763   2.676   1.577
 6924SOL     OW21331   3.804   2.679   0.769
 6924SOL    HW121332   3.897   2.676   0.790
 6924SOL    HW221333   3.770   2.751   0.822
 6925SOL     OW21334   3.849   3.723   1.568
 6925SOL    HW121335   3.848   3.695   1.660
 6925SOL    HW221336   3.762   3.699   1.535
 6926SOL     OW21337   3.923   2.154   1.515
 6926SOL    HW121338   3.842   2.197   1.489
 6926SOL    HW221339   3.894   2.070   1.552
 6927SOL     OW21340   3.809   2.410   1.390
 6927SOL    HW121341   3.904   2.405   1.380
 6927SOL    HW221342   3.794   2.483   1.450
 6928SOL     OW21343   3.792   3.435   1.349
 6928SOL    HW121344   3.766   3.499   1.283
 6928SOL    HW221345   3.887   3.442   1.353
 6929SOL     OW21346   0.073   2.954   0.535
 6929SOL    HW121347   0.080   3.014   0.460
 6929SOL    HW221348   0.151   2.900   0.529
 6930SOL     OW21349   0.005   2.074   1.251
 6930SOL    HW121350   3.976   2.105   1.337
 6930SOL    HW221351   0.011   1.979   1.260
 6931SOL     OW21352   3.751   3.174   1.277
 6931SOL    HW121353   3.794   3.124   1.346
 6931SOL    HW221354   3.765   3.266   1.300
 6932SOL     OW21355   3.993   1.921   0.654
 6932SOL    HW121356   0.014   2.014   0.667
 6932SOL    HW221357   0.017   1.880   0.737
 6933SOL     OW21358   3.740   3.177   0.174
 6933SOL    HW121359   3.657   3.188   0.127
 6933SOL    HW221360   3.729   3.093   0.220
 6934SOL     OW21361   3.803   3.651   0.938
 6934SOL    HW121362   3.781   3.571   0.892
 6934SOL    HW221363   3.897   3.661   0.926
 6935SOL     OW21364   0.212   3.419   0.868
 6935SOL    HW121365   0.279   3.488   0.864
 6935SOL    HW221366   0.236   3.358   0.798
 6936SOL     OW21367   3.756   2.401   1.119
 6936SOL    HW121368   3.839   2.397   1.071
 6936SOL    HW221369   3.781   2.407   1.211
 6937SOL     OW21370   3.900   2.377   1.723
 6937SOL    HW121371   3.927   2.317   1.654
 6937SOL    HW221372   3.858   2.450   1.676
 6938SOL     OW21373   3.941   3.392   1.727
 6938SOL    HW121374   3.932   3.478   1.770
 6938SOL    HW221375   3.990   3.339   1.790
 6939SOL     OW21376   3.859   2.996   1.473
 6939SOL    HW121377   3.932   2.992   1.535
 6939SOL    HW221378   3.894   2.956   1.393
 6940SOL     OW21379   3.810   3.129   1.012
 6940SOL    HW121380   3.783   3.142   1.103
 6940SOL    HW221381   3.750   3.063   0.977
 6941SOL     OW21382   3.840   3.648   1.825
 6941SOL    HW121383   3.790   3.584   1.874
 6941SOL    HW221384   3.888   3.698   1.892
 6942SOL     OW21385   3.778   2.270   0.030
 6942SOL    HW121386   3.742   2.187   0.061
 6942SOL    HW221387   3.759   2.271  13.836
 6943SOL     OW21388   3.785   2.020   0.347
 6943SOL    HW121389   3.760   2.044   0.258
 6943SOL    HW221390   3.881   2.022   0.347
 6944SOL     OW21391   3.798   3.096   0.666
 6944SOL    HW121392   3.793   3.049   0.749
 6944SOL    HW221393   3.884   3.072   0.630
 6945SOL     OW21394   3.751   2.937   0.308
 6945SOL    HW121395   3.847   2.944   0.310
 6945SOL    HW221396   3.733   2.845   0.327
 6946SOL     OW21397   3.954   2.495   1.972
 6946SOL    HW121398   3.873   2.491   2.023
 6946SOL    HW221399   3.930   2.458   1.887
 6947SOL     OW21400   3.961   2.125   2.849
 6947SOL    HW121401   3.966   2.121   2.944
 6947SOL    HW221402   3.869   2.112   2.829
 6948SOL     OW21403   3.724   2.242   2.498
 6948SOL    HW121404   3.644   2.268   2.545
 6948SOL    HW221405   3.702   2.159   2.457
 6949SOL     OW21406   0.012   3.384   2.913
 6949SOL    HW121407   3.962   3.304   2.896
 6949SOL    HW221408   0.079   3.385   2.845
 6950SOL     OW21409   3.941   3.582   2.338
 6950SOL    HW121410   3.951   3.655   2.398
 6950SOL    HW221411   0.031   3.563   2.310
 6951SOL     OW21412   3.941   3.301   2.369
 6951SOL    HW121413   3.924   3.395   2.373
 6951SOL    HW221414   3.886   3.264   2.438
 6952SOL     OW21415   3.816   2.502   2.422
 6952SOL    HW121416   3.785   2.415   2.446
 6952SOL    HW221417   3.811   2.552   2.504
 6953SOL     OW21418   3.754   3.457   1.992
 6953SOL    HW121419   3.735   3.365   2.009
 6953SOL    HW221420   3.724   3.503   2.071
 6954SOL     OW21421   3.825   2.604   3.445
 6954SOL    HW121422   3.908   2.646   3.468
 6954SOL    HW221423   3.763   2.676   3.439
 6955SOL     OW21424   3.804   2.678   2.633
 6955SOL    HW121425   3.898   2.675   2.652
 6955SOL    HW221426   3.771   2.751   2.685
 6956SOL     OW21427   3.849   3.723   3.430
 6956SOL    HW121428   3.848   3.695   3.522
 6956SOL    HW221429   3.762   3.699   3.397
 6957SOL     OW21430   3.923   2.154   3.377
 6957SOL    HW121431   3.842   2.197   3.351
 6957SOL    HW221432   3.894   2.070   3.414
 6958SOL     OW21433   0.001   1.887   2.025
 6958SOL    HW121434   0.034   1.976   2.010
 6958SOL    HW221435   0.063   1.848   2.085
 6959SOL     OW21436   3.809   2.409   3.252
 6959SOL    HW121437   3.904   2.405   3.242
 6959SOL    HW221438   3.794   2.483   3.312
 6960SOL     OW21439   0.280   2.150   2.184
 6960SOL    HW121440   0.298   2.076   2.126
 6960SOL    HW221441   0.318   2.226   2.139
 6961SOL     OW21442   3.792   3.435   3.211
 6961SOL    HW121443   3.766   3.499   3.145
 6961SOL    HW221444   3.887   3.442   3.215
 6962SOL     OW21445   0.067   2.954   2.391
 6962SOL    HW121446   0.063   3.000   2.307
 6962SOL    HW221447   0.135   2.889   2.379
 6963SOL     OW21448   0.006   2.074   3.114
 6963SOL    HW121449   3.976   2.104   3.200
 6963SOL    HW221450   0.011   1.979   3.123
 6964SOL     OW21451   3.751   3.174   3.139
 6964SOL    HW121452   3.794   3.124   3.209
 6964SOL    HW221453   3.765   3.266   3.163
 6965SOL     OW21454   3.998   1.920   2.515
 6965SOL    HW121455   0.010   2.014   2.528
 6965SOL    HW221456   0.019   1.881   2.600
 6966SOL     OW21457   3.728   3.188   2.050
 6966SOL    HW121458   3.642   3.201   2.010
 6966SOL    HW221459   3.720   3.104   2.096
 6967SOL     OW21460   3.803   3.652   2.800
 6967SOL    HW121461   3.780   3.571   2.754
 6967SOL    HW221462   3.897   3.661   2.788
 6968SOL     OW21463   0.212   3.419   2.730
 6968SOL    HW121464   0.280   3.486   2.725
 6968SOL    HW221465   0.235   3.356   2.661
 6969SOL     OW21466   3.756   2.401   2.981
 6969SOL    HW121467   3.839   2.397   2.933
 6969SOL    HW221468   3.781   2.407   3.073
 6970SOL     OW21469   3.900   2.377   3.585
 6970SOL    HW121470   3.927   2.317   3.516
 6970SOL    HW221471   3.859   2.450   3.538
 6971SOL     OW21472   3.941   3.392   3.589
 6971SOL    HW121473   3.932   3.478   3.632
 6971SOL    HW221474   3.990   3.339   3.652
 6972SOL     OW21475   3.859   2.996   3.335
 6972SOL    HW121476   3.932   2.992   3.397
 6972SOL    HW221477   3.893   2.955   3.255
 6973SOL     OW21478   3.810   3.130   2.874
 6973SOL    HW121479   3.782   3.142   2.965
 6973SOL    HW221480   3.750   3.064   2.839
 6974SOL     OW21481   3.840   3.648   3.687
 6974SOL    HW121482   3.790   3.584   3.736
 6974SOL    HW221483   3.888   3.698   3.754
 6975SOL     OW21484   3.801   2.196   1.905
 6975SOL    HW121485   3.717   2.161   1.875
 6975SOL    HW221486   3.821   2.267   1.844
 6976SOL     OW21487   3.763   2.023   2.175
 6976SOL    HW121488   3.755   2.086   2.104
 6976SOL    HW221489   3.855   2.029   2.202
 6977SOL     OW21490   3.800   3.100   2.528
 6977SOL    HW121491   3.794   3.051   2.610
 6977SOL    HW221492   3.879   3.066   2.486
 6978SOL     OW21493   3.751   2.940   2.173
 6978SOL    HW121494   3.841   2.943   2.141
 6978SOL    HW221495   3.735   2.848   2.192
 6979SOL     OW21496   3.954   2.495   3.834
 6979SOL    HW121497   3.873   2.491   3.885
 6979SOL    HW221498   3.930   2.458   3.749
 6980SOL     OW21499   3.961   2.125   4.711
 6980SOL    HW121500   3.966   2.121   4.806
 6980SOL    HW221501   3.869   2.112   4.691
 6981SOL     OW21502   3.724   2.242   4.360
 6981SOL    HW121503   3.644   2.268   4.407
 6981SOL    HW221504   3.702   2.159   4.319
 6982SOL     OW21505   0.012   3.384   4.774
 6982SOL    HW121506   3.962   3.304   4.758
 6982SOL    HW221507   0.079   3.385   4.707
 6983SOL     OW21508   3.941   3.582   4.200
 6983SOL    HW121509   3.951   3.655   4.260
 6983SOL    HW221510   0.031   3.563   4.172
 6984SOL     OW21511   3.941   3.301   4.231
 6984SOL    HW121512   3.924   3.395   4.235
 6984SOL    HW221513   3.886   3.264   4.300
 6985SOL     OW21514   3.816   2.502   4.284
 6985SOL    HW121515   3.785   2.415   4.308
 6985SOL    HW221516   3.811   2.552   4.366
 6986SOL     OW21517   3.754   3.457   3.854
 6986SOL    HW121518   3.735   3.365   3.871
 6986SOL    HW221519   3.724   3.503   3.933
 6987SOL     OW21520   3.825   2.604   5.307
 6987SOL    HW121521   3.908   2.646   5.331
 6987SOL    HW221522   3.762   2.676   5.300
 6988SOL     OW21523   3.804   2.678   4.495
 6988SOL    HW121524   3.898   2.675   4.514
 6988SOL    HW221525   3.771   2.751   4.547
 6989SOL     OW21526   3.849   3.723   5.292
 6989SOL    HW121527   3.848   3.695   5.384
 6989SOL    HW221528   3.762   3.699   5.260
 6990SOL     OW21529   3.922   2.154   5.240
 6990SOL    HW121530   3.841   2.197   5.213
 6990SOL    HW221531   3.894   2.070   5.276
 6991SOL     OW21532   0.001   1.887   3.887
 6991SOL    HW121533   0.034   1.976   3.872
 6991SOL    HW221534   0.063   1.848   3.947
 6992SOL     OW21535   3.809   2.409   5.114
 6992SOL    HW121536   3.904   2.405   5.104
 6992SOL    HW221537   3.794   2.483   5.174
 6993SOL     OW21538   0.280   2.150   4.046
 6993SOL    HW121539   0.298   2.076   3.988
 6993SOL    HW221540   0.318   2.225   4.001
 6994SOL     OW21541   3.792   3.435   5.073
 6994SOL    HW121542   3.766   3.499   5.007
 6994SOL    HW221543   3.887   3.442   5.077
 6995SOL     OW21544   0.067   2.954   4.253
 6995SOL    HW121545   0.062   3.000   4.169
 6995SOL    HW221546   0.135   2.888   4.241
 6996SOL     OW21547   0.006   2.074   4.976
 6996SOL    HW121548   3.975   2.105   5.062
 6996SOL    HW221549   0.010   1.979   4.984
 6997SOL     OW21550   3.751   3.174   5.001
 6997SOL    HW121551   3.794   3.124   5.071
 6997SOL    HW221552   3.766   3.265   5.025
 6998SOL     OW21553   3.998   1.920   4.377
 6998SOL    HW121554   0.010   2.014   4.390
 6998SOL    HW221555   0.019   1.881   4.462
 6999SOL     OW21556   3.728   3.188   3.912
 6999SOL    HW121557   3.642   3.201   3.872
 6999SOL    HW221558   3.720   3.104   3.958
 7000SOL     OW21559   3.803   3.652   4.662
 7000SOL    HW121560   3.780   3.571   4.616
 7000SOL    HW221561   3.897   3.661   4.650
 7001SOL     OW21562   0.212   3.419   4.592
 7001SOL    HW121563   0.280   3.486   4.587
 7001SOL    HW221564   0.235   3.356   4.523
 7002SOL     OW21565   3.756   2.401   4.843
 7002SOL    HW121566   3.839   2.398   4.795
 7002SOL    HW221567   3.781   2.407   4.935
 7003SOL     OW21568   3.901   2.378   5.446
 7003SOL    HW121569   3.927   2.316   5.377
 7003SOL    HW221570   3.858   2.450   5.400
 7004SOL     OW21571   3.941   3.393   5.451
 7004SOL    HW121572   3.932   3.478   5.494
 7004SOL    HW221573   3.989   3.339   5.515
 7005SOL     OW21574   3.859   2.997   5.197
 7005SOL    HW121575   3.932   2.992   5.259
 7005SOL    HW221576   3.893   2.955   5.117
 7006SOL     OW21577   3.810   3.130   4.736
 7006SOL    HW121578   3.783   3.142   4.827
 7006SOL    HW221579   3.750   3.064   4.701
 7007SOL     OW21580   3.840   3.648   5.549
 7007SOL    HW121581   3.790   3.584   5.598
 7007SOL    HW221582   3.888   3.698   5.615
 7008SOL     OW21583   3.801   2.196   3.767
 7008SOL    HW121584   3.717   2.161   3.737
 7008SOL    HW221585   3.821   2.267   3.706
 7009SOL     OW21586   3.763   2.023   4.037
 7009SOL    HW121587   3.755   2.086   3.966
 7009SOL    HW221588   3.855   2.029   4.064
 7010SOL     OW21589   3.800   3.100   4.390
 7010SOL    HW121590   3.794   3.051   4.472
 7010SOL    HW221591   3.879   3.066   4.348
 7011SOL     OW21592   3.751   2.940   4.035
 7011SOL    HW121593   3.841   2.943   4.003
 7011SOL    HW221594   3.735   2.848   4.054
 7012SOL     OW21595   3.954   2.495   5.696
 7012SOL    HW121596   3.873   2.491   5.747
 7012SOL    HW221597   3.930   2.458   5.611
 7013SOL     OW21598   3.962   2.125   6.573
 7013SOL    HW121599   3.967   2.121   6.668
 7013SOL    HW221600   3.869   2.112   6.553
 7014SOL     OW21601   3.723   2.243   6.222
 7014SOL    HW121602   3.644   2.269   6.269
 7014SOL    HW221603   3.700   2.159   6.182
 7015SOL     OW21604   0.011   3.385   6.637
 7015SOL    HW121605   3.961   3.305   6.621
 7015SOL    HW221606   0.079   3.385   6.569
 7016SOL     OW21607   3.941   3.582   6.061
 7016SOL    HW121608   3.951   3.655   6.122
 7016SOL    HW221609   0.031   3.562   6.034
 7017SOL     OW21610   3.941   3.301   6.093
 7017SOL    HW121611   3.924   3.395   6.097
 7017SOL    HW221612   3.887   3.263   6.162
 7018SOL     OW21613   3.817   2.502   6.146
 7018SOL    HW121614   3.785   2.415   6.170
 7018SOL    HW221615   3.812   2.552   6.228
 7019SOL     OW21616   3.754   3.457   5.716
 7019SOL    HW121617   3.735   3.365   5.733
 7019SOL    HW221618   3.724   3.503   5.795
 7020SOL     OW21619   3.825   2.604   7.169
 7020SOL    HW121620   3.907   2.646   7.193
 7020SOL    HW221621   3.762   2.675   7.162
 7021SOL     OW21622   3.804   2.678   6.356
 7021SOL    HW121623   3.898   2.675   6.376
 7021SOL    HW221624   3.770   2.750   6.409
 7022SOL     OW21625   3.849   3.723   7.155
 7022SOL    HW121626   3.848   3.695   7.246
 7022SOL    HW221627   3.763   3.698   7.121
 7023SOL     OW21628   3.922   2.154   7.101
 7023SOL    HW121629   3.841   2.197   7.074
 7023SOL    HW221630   3.894   2.070   7.138
 7024SOL     OW21631   0.000   1.887   5.748
 7024SOL    HW121632   0.033   1.976   5.735
 7024SOL    HW221633   0.062   1.847   5.810
 7025SOL     OW21634   3.809   2.410   6.976
 7025SOL    HW121635   3.904   2.406   6.966
 7025SOL    HW221636   3.794   2.483   7.035
 7026SOL     OW21637   0.282   2.150   5.910
 7026SOL    HW121638   0.297   2.075   5.851
 7026SOL    HW221639   0.315   2.225   5.862
 7027SOL     OW21640   3.791   3.435   6.936
 7027SOL    HW121641   3.765   3.499   6.869
 7027SOL    HW221642   3.887   3.442   6.940
 7028SOL     OW21643   0.066   2.955   6.116
 7028SOL    HW121644   0.062   3.000   6.031
 7028SOL    HW221645   0.133   2.887   6.103
 7029SOL     OW21646   0.007   2.075   6.838
 7029SOL    HW121647   3.975   2.106   6.923
 7029SOL    HW221648   0.008   1.980   6.846
 7030SOL     OW21649   3.753   3.174   6.863
 7030SOL    HW121650   3.794   3.124   6.934
 7030SOL    HW221651   3.766   3.265   6.887
 7031SOL     OW21652   3.998   1.921   6.239
 7031SOL    HW121653   0.009   2.015   6.253
 7031SOL    HW221654   0.019   1.881   6.324
 7032SOL     OW21655   3.728   3.188   5.774
 7032SOL    HW121656   3.642   3.201   5.734
 7032SOL    HW221657   3.720   3.104   5.820
 7033SOL     OW21658   3.803   3.652   6.524
 7033SOL    HW121659   3.780   3.571   6.478
 7033SOL    HW221660   3.897   3.661   6.512
 7034SOL     OW21661   0.212   3.418   6.454
 7034SOL    HW121662   0.280   3.486   6.449
 7034SOL    HW221663   0.235   3.356   6.386
 7035SOL     OW21664   3.756   2.401   6.704
 7035SOL    HW121665   3.839   2.398   6.657
 7035SOL    HW221666   3.781   2.407   6.797
 7036SOL     OW21667   3.901   2.377   7.308
 7036SOL    HW121668   3.926   2.316   7.239
 7036SOL    HW221669   3.858   2.449   7.262
 7037SOL     OW21670   3.941   3.393   7.313
 7037SOL    HW121671   3.932   3.478   7.357
 7037SOL    HW221672   3.990   3.339   7.376
 7038SOL     OW21673   3.859   2.998   7.059
 7038SOL    HW121674   3.932   2.992   7.120
 7038SOL    HW221675   3.891   2.954   6.979
 7039SOL     OW21676   3.810   3.131   6.598
 7039SOL    HW121677   3.783   3.142   6.689
 7039SOL    HW221678   3.750   3.064   6.563
 7040SOL     OW21679   3.840   3.649   7.411
 7040SOL    HW121680   3.790   3.584   7.460
 7040SOL    HW221681   3.887   3.698   7.478
 7041SOL     OW21682   3.802   2.195   5.629
 7041SOL    HW121683   3.717   2.161   5.600
 7041SOL    HW221684   3.821   2.267   5.568
 7042SOL     OW21685   3.764   2.022   5.899
 7042SOL    HW121686   3.755   2.087   5.829
 7042SOL    HW221687   3.856   2.029   5.926
 7043SOL     OW21688   3.801   3.100   6.252
 7043SOL    HW121689   3.792   3.050   6.333
 7043SOL    HW221690   3.880   3.065   6.211
 7044SOL     OW21691   3.751   2.940   5.897
 7044SOL    HW121692   3.841   2.942   5.865
 7044SOL    HW221693   3.735   2.848   5.916
 7045SOL     OW21694   3.954   2.495   7.558
 7045SOL    HW121695   3.873   2.491   7.609
 7045SOL    HW221696   3.931   2.458   7.473
 7046SOL     OW21697   3.961   2.125   8.435
 7046SOL    HW121698   3.966   2.121   8.530
 7046SOL    HW221699   3.869   2.113   8.415
 7047SOL     OW21700   3.724   2.242   8.084
 7047SOL    HW121701   3.644   2.268   8.131
 7047SOL    HW221702   3.702   2.159   8.043
 7048SOL     OW21703   0.012   3.384   8.499
 7048SOL    HW121704   3.962   3.304   8.482
 7048SOL    HW221705   0.079   3.385   8.431
 7049SOL     OW21706   3.941   3.582   7.924
 7049SOL    HW121707   3.951   3.655   7.984
 7049SOL    HW221708   0.031   3.563   7.895
 7050SOL     OW21709   3.941   3.301   7.955
 7050SOL    HW121710   3.924   3.395   7.959
 7050SOL    HW221711   3.886   3.263   8.024
 7051SOL     OW21712   3.817   2.502   8.009
 7051SOL    HW121713   3.785   2.415   8.031
 7051SOL    HW221714   3.811   2.552   8.090
 7052SOL     OW21715   3.754   3.457   7.578
 7052SOL    HW121716   3.735   3.365   7.595
 7052SOL    HW221717   3.724   3.502   7.657
 7053SOL     OW21718   3.826   2.604   9.031
 7053SOL    HW121719   3.908   2.646   9.054
 7053SOL    HW221720   3.763   2.676   9.025
 7054SOL     OW21721   3.804   2.677   8.220
 7054SOL    HW121722   3.898   2.675   8.238
 7054SOL    HW221723   3.771   2.751   8.271
 7055SOL     OW21724   3.849   3.723   9.016
 7055SOL    HW121725   3.848   3.695   9.108
 7055SOL    HW221726   3.762   3.699   8.983
 7056SOL     OW21727   3.923   2.153   8.964
 7056SOL    HW121728   3.842   2.197   8.936
 7056SOL    HW221729   3.894   2.070   9.000
 7057SOL     OW21730   0.001   1.887   7.611
 7057SOL    HW121731   0.034   1.976   7.595
 7057SOL    HW221732   0.064   1.848   7.671
 7058SOL     OW21733   3.809   2.409   8.839
 7058SOL    HW121734   3.904   2.405   8.828
 7058SOL    HW221735   3.794   2.483   8.898
 7059SOL     OW21736   0.279   2.150   7.770
 7059SOL    HW121737   0.298   2.076   7.712
 7059SOL    HW221738   0.318   2.225   7.725
 7060SOL     OW21739   3.792   3.435   8.797
 7060SOL    HW121740   3.766   3.499   8.731
 7060SOL    HW221741   3.887   3.442   8.801
 7061SOL     OW21742   0.066   2.955   7.977
 7061SOL    HW121743   0.062   2.999   7.893
 7061SOL    HW221744   0.133   2.888   7.965
 7062SOL     OW21745   0.006   2.074   8.700
 7062SOL    HW121746   3.976   2.104   8.786
 7062SOL    HW221747   0.011   1.979   8.708
 7063SOL     OW21748   3.750   3.174   8.725
 7063SOL    HW121749   3.794   3.124   8.794
 7063SOL    HW221750   3.765   3.266   8.749
 7064SOL     OW21751   3.998   1.920   8.101
 7064SOL    HW121752   0.009   2.014   8.114
 7064SOL    HW221753   0.020   1.882   8.186
 7065SOL     OW21754   3.728   3.188   7.636
 7065SOL    HW121755   3.642   3.201   7.596
 7065SOL    HW221756   3.720   3.104   7.682
 7066SOL     OW21757   3.803   3.652   8.386
 7066SOL    HW121758   3.780   3.571   8.340
 7066SOL    HW221759   3.898   3.661   8.374
 7067SOL     OW21760   0.212   3.419   8.316
 7067SOL    HW121761   0.280   3.486   8.311
 7067SOL    HW221762   0.235   3.356   8.247
 7068SOL     OW21763   3.756   2.401   8.567
 7068SOL    HW121764   3.838   2.397   8.519
 7068SOL    HW221765   3.782   2.407   8.659
 7069SOL     OW21766   3.901   2.377   9.171
 7069SOL    HW121767   3.927   2.316   9.102
 7069SOL    HW221768   3.859   2.450   9.124
 7070SOL     OW21769   3.941   3.392   9.175
 7070SOL    HW121770   3.932   3.478   9.218
 7070SOL    HW221771   3.990   3.339   9.238
 7071SOL     OW21772   3.859   2.996   8.921
 7071SOL    HW121773   3.932   2.992   8.983
 7071SOL    HW221774   3.893   2.955   8.841
 7072SOL     OW21775   3.810   3.131   8.460
 7072SOL    HW121776   3.782   3.142   8.551
 7072SOL    HW221777   3.751   3.064   8.425
 7073SOL     OW21778   3.840   3.648   9.273
 7073SOL    HW121779   3.790   3.584   9.322
 7073SOL    HW221780   3.888   3.698   9.340
 7074SOL     OW21781   3.801   2.196   7.491
 7074SOL    HW121782   3.717   2.161   7.462
 7074SOL    HW221783   3.820   2.267   7.430
 7075SOL     OW21784   3.763   2.022   7.761
 7075SOL    HW121785   3.754   2.086   7.690
 7075SOL    HW221786   3.855   2.029   7.788
 7076SOL     OW21787   3.800   3.100   8.114
 7076SOL    HW121788   3.793   3.050   8.195
 7076SOL    HW221789   3.879   3.066   8.071
 7077SOL     OW21790   3.751   2.941   7.760
 7077SOL    HW121791   3.841   2.942   7.727
 7077SOL    HW221792   3.734   2.848   7.779
 7078SOL     OW21793   3.954   2.495   9.420
 7078SOL    HW121794   3.873   2.491   9.471
 7078SOL    HW221795   3.931   2.458   9.335
 7079SOL     OW21796   3.961   2.125  10.297
 7079SOL    HW121797   3.966   2.121  10.392
 7079SOL    HW221798   3.869   2.112  10.277
 7080SOL     OW21799   3.724   2.242   9.946
 7080SOL    HW121800   3.644   2.268   9.993
 7080SOL    HW221801   3.702   2.159   9.905
 7081SOL     OW21802   0.012   3.384  10.361
 7081SOL    HW121803   3.962   3.304  10.344
 7081SOL    HW221804   0.079   3.385  10.293
 7082SOL     OW21805   3.941   3.582   9.786
 7082SOL    HW121806   3.951   3.655   9.846
 7082SOL    HW221807   0.031   3.563   9.757
 7083SOL     OW21808   3.941   3.301   9.817
 7083SOL    HW121809   3.924   3.395   9.821
 7083SOL    HW221810   3.886   3.264   9.886
 7084SOL     OW21811   3.816   2.502   9.870
 7084SOL    HW121812   3.785   2.415   9.894
 7084SOL    HW221813   3.811   2.552   9.952
 7085SOL     OW21814   3.754   3.457   9.440
 7085SOL    HW121815   3.735   3.365   9.457
 7085SOL    HW221816   3.724   3.503   9.519
 7086SOL     OW21817   3.825   2.604  10.893
 7086SOL    HW121818   3.908   2.646  10.916
 7086SOL    HW221819   3.763   2.676  10.887
 7087SOL     OW21820   3.804   2.677  10.081
 7087SOL    HW121821   3.898   2.675  10.100
 7087SOL    HW221822   3.771   2.751  10.133
 7088SOL     OW21823   3.849   3.723  10.878
 7088SOL    HW121824   3.848   3.695  10.970
 7088SOL    HW221825   3.762   3.699  10.845
 7089SOL     OW21826   3.923   2.154  10.826
 7089SOL    HW121827   3.841   2.197  10.799
 7089SOL    HW221828   3.894   2.070  10.862
 7090SOL     OW21829   0.000   1.887   9.473
 7090SOL    HW121830   0.035   1.976   9.457
 7090SOL    HW221831   0.063   1.848   9.533
 7091SOL     OW21832   3.809   2.409  10.700
 7091SOL    HW121833   3.904   2.405  10.690
 7091SOL    HW221834   3.794   2.483  10.760
 7092SOL     OW21835   0.280   2.150   9.632
 7092SOL    HW121836   0.298   2.076   9.574
 7092SOL    HW221837   0.318   2.225   9.587
 7093SOL     OW21838   3.792   3.435  10.659
 7093SOL    HW121839   3.766   3.499  10.593
 7093SOL    HW221840   3.887   3.442  10.663
 7094SOL     OW21841   0.067   2.954   9.839
 7094SOL    HW121842   0.062   3.000   9.755
 7094SOL    HW221843   0.135   2.888   9.827
 7095SOL     OW21844   0.006   2.074  10.562
 7095SOL    HW121845   3.976   2.104  10.648
 7095SOL    HW221846   0.011   1.979  10.570
 7096SOL     OW21847   3.751   3.174  10.587
 7096SOL    HW121848   3.794   3.124  10.657
 7096SOL    HW221849   3.765   3.266  10.611
 7097SOL     OW21850   3.998   1.920   9.963
 7097SOL    HW121851   0.010   2.014   9.976
 7097SOL    HW221852   0.019   1.881  10.048
 7098SOL     OW21853   3.728   3.188   9.498
 7098SOL    HW121854   3.642   3.201   9.458
 7098SOL    HW221855   3.720   3.104   9.544
 7099SOL     OW21856   3.803   3.652  10.248
 7099SOL    HW121857   3.780   3.571  10.202
 7099SOL    HW221858   3.897   3.661  10.236
 7100SOL     OW21859   0.212   3.419  10.178
 7100SOL    HW121860   0.280   3.486  10.173
 7100SOL    HW221861   0.235   3.356  10.109
 7101SOL     OW21862   3.756   2.401  10.429
 7101SOL    HW121863   3.839   2.397  10.381
 7101SOL    HW221864   3.781   2.407  10.521
 7102SOL     OW21865   3.901   2.377  11.032
 7102SOL    HW121866   3.927   2.316  10.964
 7102SOL    HW221867   3.859   2.450  10.986
 7103SOL     OW21868   3.941   3.392  11.037
 7103SOL    HW121869   3.932   3.478  11.080
 7103SOL    HW221870   3.990   3.339  11.100
 7104SOL     OW21871   3.859   2.996  10.783
 7104SOL    HW121872   3.932   2.992  10.845
 7104SOL    HW221873   3.893   2.955  10.703
 7105SOL     OW21874   3.810   3.131  10.322
 7105SOL    HW121875   3.782   3.142  10.413
 7105SOL    HW221876   3.750   3.064  10.287
 7106SOL     OW21877   3.840   3.648  11.135
 7106SOL    HW121878   3.790   3.584  11.184
 7106SOL    HW221879   3.888   3.698  11.202
 7107SOL     OW21880   3.801   2.196   9.353
 7107SOL    HW121881   3.717   2.161   9.323
 7107SOL    HW221882   3.821   2.267   9.292
 7108SOL     OW21883   3.763   2.023   9.623
 7108SOL    HW121884   3.755   2.086   9.552
 7108SOL    HW221885   3.855   2.029   9.650
 7109SOL     OW21886   3.800   3.100   9.976
 7109SOL    HW121887   3.794   3.051  10.058
 7109SOL    HW221888   3.879   3.066   9.934
 7110SOL     OW21889   3.751   2.940   9.621
 7110SOL    HW121890   3.841   2.943   9.589
 7110SOL    HW221891   3.735   2.848   9.640
 7111SOL     OW21892   3.954   2.495  11.282
 7111SOL    HW121893   3.873   2.491  11.333
 7111SOL    HW221894   3.931   2.458  11.197
 7112SOL     OW21895   3.961   2.125  12.159
 7112SOL    HW121896   3.966   2.121  12.254
 7112SOL    HW221897   3.869   2.112  12.139
 7113SOL     OW21898   3.724   2.242  11.808
 7113SOL    HW121899   3.644   2.268  11.855
 7113SOL    HW221900   3.702   2.159  11.767
 7114SOL     OW21901   0.012   3.384  12.223
 7114SOL    HW121902   3.962   3.304  12.206
 7114SOL    HW221903   0.079   3.385  12.155
 7115SOL     OW21904   3.941   3.582  11.648
 7115SOL    HW121905   3.951   3.655  11.708
 7115SOL    HW221906   0.031   3.563  11.619
 7116SOL     OW21907   3.941   3.301  11.679
 7116SOL    HW121908   3.924   3.395  11.683
 7116SOL    HW221909   3.886   3.264  11.748
 7117SOL     OW21910   3.816   2.502  11.732
 7117SOL    HW121911   3.785   2.415  11.756
 7117SOL    HW221912   3.811   2.552  11.814
 7118SOL     OW21913   3.754   3.457  11.302
 7118SOL    HW121914   3.735   3.365  11.319
 7118SOL    HW221915   3.724   3.503  11.381
 7119SOL     OW21916   3.825   2.604  12.755
 7119SOL    HW121917   3.908   2.646  12.778
 7119SOL    HW221918   3.763   2.676  12.749
 7120SOL     OW21919   3.804   2.677  11.943
 7120SOL    HW121920   3.898   2.675  11.962
 7120SOL    HW221921   3.771   2.751  11.995
 7121SOL     OW21922   3.849   3.723  12.742
 7121SOL    HW121923   3.848   3.696  12.833
 7121SOL    HW221924   3.762   3.698  12.709
 7122SOL     OW21925   3.923   2.153  12.688
 7122SOL    HW121926   3.842   2.197  12.661
 7122SOL    HW221927   3.894   2.070  12.724
 7123SOL     OW21928   0.000   1.887  11.335
 7123SOL    HW121929   0.035   1.976  11.320
 7123SOL    HW221930   0.063   1.848  11.395
 7124SOL     OW21931   3.809   2.409  12.562
 7124SOL    HW121932   3.904   2.405  12.552
 7124SOL    HW221933   3.794   2.483  12.622
 7125SOL     OW21934   0.280   2.150  11.494
 7125SOL    HW121935   0.298   2.076  11.436
 7125SOL    HW221936   0.318   2.225  11.449
 7126SOL     OW21937   3.792   3.435  12.521
 7126SOL    HW121938   3.766   3.499  12.455
 7126SOL    HW221939   3.887   3.442  12.525
 7127SOL     OW21940   0.067   2.954  11.701
 7127SOL    HW121941   0.062   3.000  11.617
 7127SOL    HW221942   0.135   2.888  11.689
 7128SOL     OW21943   0.006   2.074  12.424
 7128SOL    HW121944   3.976   2.104  12.510
 7128SOL    HW221945   0.011   1.979  12.432
 7129SOL     OW21946   3.751   3.174  12.449
 7129SOL    HW121947   3.794   3.124  12.519
 7129SOL    HW221948   3.766   3.266  12.473
 7130SOL     OW21949   3.998   1.920  11.825
 7130SOL    HW121950   0.010   2.014  11.838
 7130SOL    HW221951   0.020   1.881  11.910
 7131SOL     OW21952   3.728   3.188  11.360
 7131SOL    HW121953   3.642   3.201  11.320
 7131SOL    HW221954   3.720   3.104  11.406
 7132SOL     OW21955   3.803   3.652  12.110
 7132SOL    HW121956   3.780   3.571  12.064
 7132SOL    HW221957   3.898   3.661  12.098
 7133SOL     OW21958   0.212   3.419  12.040
 7133SOL    HW121959   0.280   3.486  12.035
 7133SOL    HW221960   0.235   3.356  11.971
 7134SOL     OW21961   3.756   2.401  12.291
 7134SOL    HW121962   3.839   2.397  12.243
 7134SOL    HW221963   3.781   2.407  12.383
 7135SOL     OW21964   3.901   2.378  12.895
 7135SOL    HW121965   3.927   2.316  12.826
 7135SOL    HW221966   3.859   2.450  12.848
 7136SOL     OW21967   3.941   3.393  12.900
 7136SOL    HW121968   3.932   3.478  12.944
 7136SOL    HW221969   3.988   3.339  12.963
 7137SOL     OW21970   3.859   2.996  12.645
 7137SOL    HW121971   3.932   2.992  12.706
 7137SOL    HW221972   3.893   2.955  12.565
 7138SOL     OW21973   3.810   3.131  12.184
 7138SOL    HW121974   3.782   3.142  12.275
 7138SOL    HW221975   3.750   3.064  12.149
 7139SOL     OW21976   3.842   3.650  12.999
 7139SOL    HW121977   3.791   3.585  13.047
 7139SOL    HW221978   3.888   3.700  13.066
 7140SOL     OW21979   3.801   2.196  11.215
 7140SOL    HW121980   3.717   2.161  11.185
 7140SOL    HW221981   3.821   2.267  11.154
 7141SOL     OW21982   3.763   2.023  11.485
 7141SOL    HW121983   3.755   2.086  11.414
 7141SOL    HW221984   3.855   2.029  11.512
 7142SOL     OW21985   3.800   3.100  11.838
 7142SOL    HW121986   3.794   3.051  11.920
 7142SOL    HW221987   3.879   3.066  11.796
 7143SOL     OW21988   3.751   2.940  11.483
 7143SOL    HW121989   3.841   2.943  11.451
 7143SOL    HW221990   3.735   2.848  11.502
 7144SOL     OW21991   3.952   2.494  13.145
 7144SOL    HW121992   3.869   2.490  13.194
 7144SOL    HW221993   3.931   2.457  13.059
 7145SOL     OW21994   3.722   2.244  13.661
 7145SOL    HW121995   3.635   2.274  13.687
 7145SOL    HW221996   3.706   2.159  13.619
 7146SOL     OW21997   3.942   3.578  13.502
 7146SOL    HW121998   3.939   3.656  13.558
 7146SOL    HW221999   0.035   3.565  13.484
 7147SOL     OW22000   3.941   3.297  13.538
 7147SOL    HW122001   3.927   3.392  13.541
 7147SOL    HW222002   3.884   3.263  13.607
 7148SOL     OW22003   3.946   2.955   0.004
 7148SOL    HW122004   3.983   2.914   0.081
 7148SOL    HW222005   3.861   2.988   0.032
 7149SOL     OW22006   3.832   2.503  13.597
 7149SOL    HW122007   3.782   2.423  13.612
 7149SOL    HW222008   3.816   2.556  13.675
 7150SOL     OW22009   3.751   3.458  13.162
 7150SOL    HW122010   3.734   3.365  13.180
 7150SOL    HW222011   3.722   3.503  13.242
 7151SOL     OW22012   3.800   2.673  13.808
 7151SOL    HW122013   3.894   2.682  13.824
 7151SOL    HW222014   3.761   2.749  13.850
 7152SOL     OW22015   0.115   3.637  13.843
 7152SOL    HW122016   0.072   3.578   0.005
 7152SOL    HW222017   0.187   3.676  13.891
 7153SOL     OW22018   0.001   1.890  13.198
 7153SOL    HW122019   0.042   1.974  13.176
 7153SOL    HW222020   0.064   1.848  13.258
 7154SOL     OW22021   0.278   2.151  13.349
 7154SOL    HW122022   0.300   2.075  13.295
 7154SOL    HW222023   0.323   2.224  13.307
 7155SOL     OW22024   0.068   2.956  13.557
 7155SOL    HW122025   0.065   3.004  13.474
 7155SOL    HW222026   0.139   2.892  13.545
 7156SOL     OW22027   3.982   1.925  13.670
 7156SOL    HW122028   0.007   2.017  13.681
 7156SOL    HW222029   0.023   1.880  13.744
 7157SOL     OW22030   3.728   3.188  13.221
 7157SOL    HW122031   3.642   3.202  13.181
 7157SOL    HW222032   3.719   3.105  13.268
 7158SOL     OW22033   0.321   3.404   0.010
 7158SOL    HW122034   0.262   3.473   0.042
 7158SOL    HW222035   0.266   3.347  13.857
 7159SOL     OW22036   3.801   2.195  13.077
 7159SOL    HW122037   3.717   2.161  13.047
 7159SOL    HW222038   3.821   2.267  13.016
 7160SOL     OW22039   3.764   2.024  13.347
 7160SOL    HW122040   3.756   2.085  13.274
 7160SOL    HW222041   3.856   2.030  13.374
 7161SOL     OW22042   3.807   3.094  13.692
 7161SOL    HW122043   3.797   3.030  13.762
 7161SOL    HW222044   3.885   3.065  13.644
 7162SOL     OW22045   3.751   2.940  13.344
 7162SOL    HW122046   3.841   2.943  13.310
 7162SOL    HW222047   3.736   2.847  13.363
 7163SOL     OW22048   3.963   3.975   0.989
 7163SOL    HW122049   3.966   3.968   1.085
 7163SOL    HW222050   3.873   3.952   0.967
 7164SOL     OW22051   3.749   0.059   0.689
 7164SOL    HW122052   3.672   0.115   0.691
 7164SOL    HW222053   3.720   3.979   0.645
 7165SOL     OW22054   3.913   0.002   1.509
 7165SOL    HW122055   3.823   0.034   1.506
 7165SOL    HW222056   3.909   3.925   1.567
 7166SOL     OW22057   3.979   3.771   0.180
 7166SOL    HW122058   0.015   3.836   0.120
 7166SOL    HW222059   0.048   3.706   0.189
 7167SOL     OW22060   3.999   3.934   1.256
 7167SOL    HW122061   3.962   3.943   1.344
 7167SOL    HW222062   0.028   3.843   1.252
 7168SOL     OW22063   0.023   3.777   0.648
 7168SOL    HW122064   0.044   3.870   0.652
 7168SOL    HW222065   0.033   3.747   0.739
 7169SOL     OW22066   3.786   3.868   0.343
 7169SOL    HW122067   3.788   3.963   0.330
 7169SOL    HW222068   3.862   3.836   0.295
 7170SOL     OW22069   3.964   3.973   2.850
 7170SOL    HW122070   3.967   3.968   2.946
 7170SOL    HW222071   3.873   3.951   2.828
 7171SOL     OW22072   3.747   0.057   2.555
 7171SOL    HW122073   3.671   0.116   2.555
 7171SOL    HW222074   3.717   3.979   2.509
 7172SOL     OW22075   3.913   0.001   3.371
 7172SOL    HW122076   3.823   0.035   3.368
 7172SOL    HW222077   3.909   3.925   3.428
 7173SOL     OW22078   3.989   3.760   2.023
 7173SOL    HW122079   0.028   3.835   1.979
 7173SOL    HW222080   0.058   3.726   2.079
 7174SOL     OW22081   3.999   3.935   3.118
 7174SOL    HW122082   3.962   3.944   3.206
 7174SOL    HW222083   0.028   3.844   3.113
 7175SOL     OW22084   0.017   3.778   2.514
 7175SOL    HW122085   0.047   3.868   2.518
 7175SOL    HW222086   0.029   3.744   2.603
 7176SOL     OW22087   3.805   0.050   1.892
 7176SOL    HW122088   3.740   0.018   1.828
 7176SOL    HW222089   3.806   0.145   1.879
 7177SOL     OW22090   3.782   3.869   2.187
 7177SOL    HW122091   3.778   3.962   2.165
 7177SOL    HW222092   3.869   3.842   2.156
 7178SOL     OW22093   3.964   3.973   4.712
 7178SOL    HW122094   3.967   3.968   4.808
 7178SOL    HW222095   3.873   3.951   4.690
 7179SOL     OW22096   3.747   0.057   4.417
 7179SOL    HW122097   3.671   0.116   4.417
 7179SOL    HW222098   3.717   3.979   4.371
 7180SOL     OW22099   3.913   0.001   5.233
 7180SOL    HW122100   3.823   0.035   5.231
 7180SOL    HW222101   3.909   3.925   5.290
 7181SOL     OW22102   3.989   3.759   3.885
 7181SOL    HW122103   0.028   3.835   3.841
 7181SOL    HW222104   0.058   3.726   3.941
 7182SOL     OW22105   3.999   3.935   4.980
 7182SOL    HW122106   3.962   3.944   5.068
 7182SOL    HW222107   0.028   3.844   4.975
 7183SOL     OW22108   0.017   3.778   4.376
 7183SOL    HW122109   0.047   3.868   4.380
 7183SOL    HW222110   0.029   3.744   4.465
 7184SOL     OW22111   3.805   0.050   3.754
 7184SOL    HW122112   3.740   0.018   3.691
 7184SOL    HW222113   3.807   0.145   3.741
 7185SOL     OW22114   3.782   3.869   4.049
 7185SOL    HW122115   3.778   3.962   4.027
 7185SOL    HW222116   3.869   3.842   4.018
 7186SOL     OW22117   3.964   3.973   6.574
 7186SOL    HW122118   3.967   3.968   6.670
 7186SOL    HW222119   3.874   3.951   6.552
 7187SOL     OW22120   3.747   0.058   6.278
 7187SOL    HW122121   3.671   0.116   6.280
 7187SOL    HW222122   3.717   3.979   6.233
 7188SOL     OW22123   3.913   0.001   7.095
 7188SOL    HW122124   3.824   0.035   7.092
 7188SOL    HW222125   3.908   3.924   7.152
 7189SOL     OW22126   3.989   3.759   5.747
 7189SOL    HW122127   0.028   3.835   5.703
 7189SOL    HW222128   0.057   3.725   5.804
 7190SOL     OW22129   3.999   3.935   6.842
 7190SOL    HW122130   3.962   3.944   6.930
 7190SOL    HW222131   0.027   3.844   6.837
 7191SOL     OW22132   0.017   3.778   6.238
 7191SOL    HW122133   0.047   3.869   6.243
 7191SOL    HW222134   0.029   3.744   6.327
 7192SOL     OW22135   3.805   0.050   5.616
 7192SOL    HW122136   3.740   0.018   5.553
 7192SOL    HW222137   3.807   0.144   5.603
 7193SOL     OW22138   3.782   3.869   5.911
 7193SOL    HW122139   3.778   3.963   5.890
 7193SOL    HW222140   3.869   3.842   5.880
 7194SOL     OW22141   3.964   3.973   8.436
 7194SOL    HW122142   3.967   3.968   8.532
 7194SOL    HW222143   3.873   3.951   8.414
 7195SOL     OW22144   3.747   0.057   8.141
 7195SOL    HW122145   3.671   0.116   8.141
 7195SOL    HW222146   3.717   3.979   8.095
 7196SOL     OW22147   3.913   0.001   8.957
 7196SOL    HW122148   3.824   0.035   8.954
 7196SOL    HW222149   3.909   3.925   9.014
 7197SOL     OW22150   3.988   3.760   7.609
 7197SOL    HW122151   0.028   3.835   7.565
 7197SOL    HW222152   0.058   3.725   7.665
 7198SOL     OW22153   3.999   3.935   8.704
 7198SOL    HW122154   3.962   3.944   8.792
 7198SOL    HW222155   0.028   3.844   8.699
 7199SOL     OW22156   0.017   3.778   8.100
 7199SOL    HW122157   0.047   3.868   8.104
 7199SOL    HW222158   0.029   3.744   8.189
 7200SOL     OW22159   3.805   0.050   7.478
 7200SOL    HW122160   3.740   0.018   7.414
 7200SOL    HW222161   3.806   0.145   7.465
 7201SOL     OW22162   3.782   3.869   7.772
 7201SOL    HW122163   3.778   3.962   7.751
 7201SOL    HW222164   3.868   3.842   7.742
 7202SOL     OW22165   3.964   3.973  10.298
 7202SOL    HW122166   3.967   3.968  10.394
 7202SOL    HW222167   3.873   3.951  10.276
 7203SOL     OW22168   3.747   0.057  10.003
 7203SOL    HW122169   3.672   0.116  10.003
 7203SOL    HW222170   3.717   3.979   9.957
 7204SOL     OW22171   3.913   0.001  10.819
 7204SOL    HW122172   3.824   0.035  10.816
 7204SOL    HW222173   3.909   3.925  10.876
 7205SOL     OW22174   3.989   3.760   9.471
 7205SOL    HW122175   0.028   3.835   9.427
 7205SOL    HW222176   0.058   3.726   9.527
 7206SOL     OW22177   3.999   3.935  10.566
 7206SOL    HW122178   3.962   3.944  10.654
 7206SOL    HW222179   0.028   3.844  10.561
 7207SOL     OW22180   0.017   3.778   9.962
 7207SOL    HW122181   0.047   3.868   9.966
 7207SOL    HW222182   0.029   3.744  10.051
 7208SOL     OW22183   3.805   0.050   9.340
 7208SOL    HW122184   3.740   0.018   9.276
 7208SOL    HW222185   3.806   0.145   9.327
 7209SOL     OW22186   3.782   3.869   9.635
 7209SOL    HW122187   3.778   3.962   9.613
 7209SOL    HW222188   3.869   3.842   9.604
 7210SOL     OW22189   3.964   3.973  12.160
 7210SOL    HW122190   3.967   3.968  12.256
 7210SOL    HW222191   3.873   3.951  12.138
 7211SOL     OW22192   3.747   0.057  11.865
 7211SOL    HW122193   3.672   0.116  11.865
 7211SOL    HW222194   3.717   3.979  11.819
 7212SOL     OW22195   3.913   0.001  12.681
 7212SOL    HW122196   3.823   0.034  12.678
 7212SOL    HW222197   3.908   3.924  12.738
 7213SOL     OW22198   3.989   3.760  11.333
 7213SOL    HW122199   0.028   3.835  11.289
 7213SOL    HW222200   0.058   3.726  11.389
 7214SOL     OW22201   3.999   3.935  12.428
 7214SOL    HW122202   3.962   3.944  12.516
 7214SOL    HW222203   0.027   3.844  12.423
 7215SOL     OW22204   0.017   3.778  11.824
 7215SOL    HW122205   0.047   3.868  11.828
 7215SOL    HW222206   0.029   3.744  11.913
 7216SOL     OW22207   3.805   0.050  11.202
 7216SOL    HW122208   3.740   0.018  11.139
 7216SOL    HW222209   3.806   0.145  11.189
 7217SOL     OW22210   3.782   3.869  11.497
 7217SOL    HW122211   3.778   3.962  11.475
 7217SOL    HW222212   3.869   3.842  11.466
 7218SOL     OW22213   3.741   0.081  13.686
 7218SOL    HW122214   3.670   0.110  13.743
 7218SOL    HW222215   3.719   3.990  13.665
 7219SOL     OW22216   3.990   3.764  13.199
 7219SOL    HW122217   0.033   3.834  13.151
 7219SOL    HW222218   0.058   3.726  13.254
 7220SOL     OW22219   3.979   3.791  13.670
 7220SOL    HW122220   0.025   3.874  13.676
 7220SOL    HW222221   0.023   3.734  13.733
 7221SOL     OW22222   3.806   0.050  13.062
 7221SOL    HW122223   3.740   0.018  13.000
 7221SOL    HW222224   3.807   0.145  13.050
 7222SOL     OW22225   3.779   3.870  13.357
 7222SOL    HW122226   3.777   3.965  13.341
 7222SOL    HW222227   3.863   3.841  13.323
   4.00000   4.00000  13.90000
