Built with Packmol
22215
    1LIG      O    1   2.161   2.087   0.066
    1LIG      C    2   2.089   2.125   0.217
    1LIG     C1    3   2.166   2.083   0.377
    1LIG     O1    4   2.095   2.120   0.530
    1LIG     C2    5   2.166   2.082   0.681
    1LIG     C3    6   2.086   2.123   0.838
    1LIG     O2    7   2.157   2.085   0.990
    1LIG     C4    8   2.085   2.122   1.142
    1LIG     C5    9   2.165   2.079   1.300
    1LIG     O3   10   2.093   2.115   1.452
    1LIG     C6   11   2.164   2.077   1.603
    1LIG     C7   12   2.084   2.119   1.760
    1LIG     O4   13   2.154   2.081   1.913
    1LIG     C8   14   2.083   2.118   2.065
    1LIG     C9   15   2.163   2.075   2.221
    1LIG     O5   16   2.092   2.112   2.373
    1LIG    C10   17   2.163   2.074   2.525
    1LIG    C11   18   2.082   2.117   2.682
    1LIG     O6   19   2.153   2.079   2.833
    1LIG    C12   20   2.082   2.116   2.985
    1LIG    C13   21   2.163   2.073   3.142
    1LIG     O7   22   2.091   2.110   3.294
    1LIG    C14   23   2.162   2.073   3.446
    1LIG    C15   24   2.083   2.115   3.604
    1LIG     O8   25   2.153   2.077   3.757
    1LIG    C16   26   2.081   2.115   3.908
    1LIG    C17   27   2.161   2.072   4.066
    1LIG     O9   28   2.090   2.109   4.219
    1LIG    C18   29   2.162   2.071   4.369
    1LIG    C19   30   2.082   2.114   4.526
    1LIG    O10   31   2.153   2.076   4.678
    1LIG    C20   32   2.081   2.114   4.830
    1LIG    C21   33   2.162   2.071   4.986
    1LIG    O11   34   2.091   2.109   5.138
    1LIG    C22   35   2.162   2.071   5.290
    1LIG    C23   36   2.081   2.113   5.447
    1LIG    O12   37   2.152   2.075   5.598
    1LIG    C24   38   2.081   2.113   5.751
    1LIG    C25   39   2.161   2.070   5.909
    1LIG    O13   40   2.090   2.108   6.061
    1LIG    C26   41   2.162   2.070   6.212
    1LIG    C27   42   2.082   2.112   6.369
    1LIG    O14   43   2.153   2.075   6.521
    1LIG    C28   44   2.082   2.113   6.673
    1LIG    C29   45   2.162   2.071   6.831
    1LIG    O15   46   2.090   2.109   6.983
    1LIG    C30   47   2.162   2.071   7.134
    1LIG    C31   48   2.082   2.114   7.291
    1LIG    O16   49   2.153   2.076   7.442
    1LIG    C32   50   2.082   2.113   7.594
    1LIG    C33   51   2.162   2.071   7.752
    1LIG    O17   52   2.091   2.109   7.904
    1LIG    C34   53   2.163   2.071   8.056
    1LIG    C35   54   2.083   2.113   8.213
    1LIG    O18   55   2.154   2.076   8.365
    1LIG    C36   56   2.082   2.114   8.516
    1LIG    C37   57   2.162   2.072   8.674
    1LIG    O19   58   2.091   2.110   8.827
    1LIG    C38   59   2.163   2.073   8.978
    1LIG    C39   60   2.084   2.115   9.136
    1LIG    O20   61   2.155   2.077   9.288
    1LIG    C40   62   2.083   2.115   9.439
    1LIG    C41   63   2.163   2.074   9.597
    1LIG    O21   64   2.092   2.111   9.749
    1LIG    C42   65   2.164   2.073   9.900
    1LIG    C43   66   2.084   2.116  10.057
    1LIG    O22   67   2.155   2.079  10.209
    1LIG    C44   68   2.084   2.116  10.361
    1LIG    C45   69   2.165   2.074  10.518
    1LIG    O23   70   2.094   2.112  10.670
    1LIG    C46   71   2.165   2.075  10.822
    1LIG    C47   72   2.084   2.117  10.979
    1LIG    O24   73   2.156   2.080  11.130
    1LIG    C48   74   2.085   2.117  11.282
    1LIG    C49   75   2.166   2.075  11.439
    1LIG    O25   76   2.095   2.113  11.591
    1LIG    C50   77   2.166   2.076  11.743
    1LIG    C51   78   2.085   2.118  11.900
    1LIG    O26   79   2.157   2.081  12.051
    1LIG    C52   80   2.086   2.118  12.204
    1LIG    C53   81   2.167   2.077  12.360
    1LIG    O27   82   2.095   2.114  12.512
    1LIG    C54   83   2.166   2.077  12.664
    1LIG    C55   84   2.086   2.120  12.822
    1LIG    O28   85   2.158   2.083  12.974
    1LIG    C56   86   2.087   2.120  13.127
    1LIG    C57   87   2.167   2.079  13.285
    1LIG    O29   88   2.096   2.117  13.438
    1LIG    C58   89   2.168   2.079  13.589
    1LIG    C59   90   2.089   2.121  13.747
    1LIG      H   91   1.990   2.077   0.214
    1LIG     H1   92   2.073   2.233   0.215
    1LIG     H2   93   2.265   2.131   0.377
    1LIG     H3   94   2.182   1.975   0.375
    1LIG     H4   95   2.265   2.130   0.683
    1LIG     H5   96   2.182   1.973   0.682
    1LIG     H6   97   1.987   2.076   0.836
    1LIG     H7   98   2.071   2.232   0.837
    1LIG     H8   99   1.987   2.074   1.143
    1LIG     H9  100   2.070   2.230   1.145
    1LIG    H10  101   2.263   2.127   1.299
    1LIG    H11  102   2.180   1.970   1.297
    1LIG    H12  103   2.263   2.125   1.606
    1LIG    H13  104   2.180   1.968   1.604
    1LIG    H14  105   1.985   2.071   1.758
    1LIG    H15  106   2.068   2.227   1.759
    1LIG    H16  107   1.984   2.070   2.066
    1LIG    H17  108   2.067   2.227   2.067
    1LIG    H18  109   2.262   2.123   2.219
    1LIG    H19  110   2.179   1.966   2.219
    1LIG    H20  111   2.261   2.122   2.527
    1LIG    H21  112   2.178   1.966   2.527
    1LIG    H22  113   1.984   2.068   2.679
    1LIG    H23  114   2.067   2.225   2.680
    1LIG    H24  115   1.984   2.068   2.987
    1LIG    H25  116   2.067   2.224   2.988
    1LIG    H26  117   2.261   2.121   3.141
    1LIG    H27  118   2.178   1.964   3.140
    1LIG    H28  119   2.261   2.121   3.448
    1LIG    H29  120   2.178   1.964   3.448
    1LIG    H30  121   1.984   2.066   3.602
    1LIG    H31  122   2.067   2.223   3.603
    1LIG    H32  123   1.983   2.066   3.909
    1LIG    H33  124   2.066   2.223   3.910
    1LIG    H34  125   2.260   2.120   4.064
    1LIG    H35  126   2.177   1.964   4.064
    1LIG    H36  127   2.261   2.120   4.371
    1LIG    H37  128   2.178   1.963   4.371
    1LIG    H38  129   1.984   2.065   4.524
    1LIG    H39  130   2.066   2.222   4.524
    1LIG    H40  131   1.983   2.066   4.832
    1LIG    H41  132   2.066   2.222   4.832
    1LIG    H42  133   2.260   2.119   4.985
    1LIG    H43  134   2.177   1.963   4.984
    1LIG    H44  135   2.260   2.119   5.292
    1LIG    H45  136   2.177   1.962   5.292
    1LIG    H46  137   1.983   2.065   5.445
    1LIG    H47  138   2.066   2.222   5.445
    1LIG    H48  139   1.983   2.065   5.753
    1LIG    H49  140   2.066   2.221   5.753
    1LIG    H50  141   2.260   2.119   5.907
    1LIG    H51  142   2.177   1.962   5.907
    1LIG    H52  143   2.260   2.118   6.214
    1LIG    H53  144   2.177   1.961   6.214
    1LIG    H54  145   1.983   2.064   6.368
    1LIG    H55  146   2.066   2.221   6.367
    1LIG    H56  147   1.983   2.065   6.675
    1LIG    H57  148   2.066   2.221   6.675
    1LIG    H58  149   2.260   2.119   6.829
    1LIG    H59  150   2.178   1.962   6.830
    1LIG    H60  151   2.261   2.119   7.136
    1LIG    H61  152   2.178   1.963   7.136
    1LIG    H62  153   1.983   2.065   7.289
    1LIG    H63  154   2.066   2.222   7.289
    1LIG    H64  155   1.984   2.065   7.596
    1LIG    H65  156   2.067   2.222   7.596
    1LIG    H66  157   2.261   2.120   7.750
    1LIG    H67  158   2.178   1.963   7.751
    1LIG    H68  159   2.261   2.120   8.057
    1LIG    H69  160   2.178   1.963   8.057
    1LIG    H70  161   1.984   2.065   8.212
    1LIG    H71  162   2.067   2.222   8.211
    1LIG    H72  163   1.984   2.066   8.518
    1LIG    H73  164   2.067   2.223   8.518
    1LIG    H74  165   2.261   2.120   8.673
    1LIG    H75  166   2.178   1.964   8.673
    1LIG    H76  167   2.262   2.121   8.979
    1LIG    H77  168   2.179   1.964   8.979
    1LIG    H78  169   1.986   2.066   9.134
    1LIG    H79  170   2.068   2.223   9.134
    1LIG    H80  171   1.985   2.067   9.441
    1LIG    H81  172   2.067   2.224   9.440
    1LIG    H82  173   2.262   2.122   9.595
    1LIG    H83  174   2.179   1.965   9.595
    1LIG    H84  175   2.263   2.122   9.902
    1LIG    H85  176   2.180   1.965   9.902
    1LIG    H86  177   1.986   2.067  10.055
    1LIG    H87  178   2.068   2.224  10.055
    1LIG    H88  179   1.986   2.068  10.363
    1LIG    H89  180   2.068   2.225  10.363
    1LIG    H90  181   2.263   2.123  10.516
    1LIG    H91  182   2.181   1.966  10.516
    1LIG    H92  183   2.263   2.123  10.824
    1LIG    H93  184   2.181   1.966  10.824
    1LIG    H94  185   1.986   2.069  10.977
    1LIG    H95  186   2.068   2.226  10.977
    1LIG    H96  187   1.987   2.069  11.285
    1LIG    H97  188   2.069   2.226  11.284
    1LIG    H98  189   2.264   2.124  11.437
    1LIG    H99  190   2.182   1.967  11.438
    1LIG   H100  191   2.264   2.124  11.745
    1LIG   H101  192   2.182   1.967  11.746
    1LIG   H102  193   1.987   2.069  11.898
    1LIG   H103  194   2.069   2.227  11.898
    1LIG   H104  195   1.988   2.070  12.206
    1LIG   H105  196   2.070   2.227  12.206
    1LIG   H106  197   2.265   2.125  12.358
    1LIG   H107  198   2.183   1.968  12.359
    1LIG   H108  199   2.265   2.126  12.666
    1LIG   H109  200   2.182   1.969  12.666
    1LIG   H110  201   1.988   2.071  12.821
    1LIG   H111  202   2.070   2.228  12.820
    1LIG   H112  203   1.988   2.071  13.128
    1LIG   H113  204   2.070   2.229  13.128
    1LIG   H114  205   2.265   2.128  13.283
    1LIG   H115  206   2.183   1.971  13.284
    1LIG   H116  207   2.266   2.129  13.589
    1LIG   H117  208   2.183   1.971  13.590
    1LIG   H118  209   2.072   2.229  13.747
    1LIG   H119  210   2.142   2.094  13.866
    1LIG      O  211   1.861   1.866   0.066
    1LIG      C  212   1.926   1.916   0.217
    1LIG     C1  213   1.856   1.863   0.377
    1LIG     O1  214   1.919   1.912   0.530
    1LIG     C2  215   1.854   1.863   0.681
    1LIG     C3  216   1.926   1.919   0.838
    1LIG     O2  217   1.861   1.871   0.990
    1LIG     C4  218   1.925   1.920   1.142
    1LIG     C5  219   1.852   1.866   1.300
    1LIG     O3  220   1.916   1.916   1.452
    1LIG     C6  221   1.851   1.867   1.603
    1LIG     C7  222   1.922   1.923   1.760
    1LIG     O4  223   1.859   1.875   1.913
    1LIG     C8  224   1.922   1.924   2.065
    1LIG     C9  225   1.849   1.869   2.221
    1LIG     O5  226   1.913   1.918   2.373
    1LIG    C10  227   1.849   1.870   2.525
    1LIG    C11  228   1.921   1.925   2.682
    1LIG     O6  229   1.857   1.876   2.833
    1LIG    C12  230   1.920   1.925   2.985
    1LIG    C13  231   1.848   1.870   3.142
    1LIG     O7  232   1.912   1.919   3.294
    1LIG    C14  233   1.848   1.871   3.446
    1LIG    C15  234   1.919   1.926   3.604
    1LIG     O8  235   1.855   1.877   3.757
    1LIG    C16  236   1.920   1.927   3.908
    1LIG    C17  237   1.848   1.872   4.066
    1LIG     O9  238   1.911   1.921   4.219
    1LIG    C18  239   1.847   1.871   4.369
    1LIG    C19  240   1.918   1.927   4.526
    1LIG    O10  241   1.855   1.878   4.678
    1LIG    C20  242   1.919   1.927   4.830
    1LIG    C21  243   1.847   1.872   4.986
    1LIG    O11  244   1.910   1.921   5.138
    1LIG    C22  245   1.847   1.872   5.290
    1LIG    C23  246   1.919   1.928   5.447
    1LIG    O12  247   1.854   1.878   5.598
    1LIG    C24  248   1.918   1.927   5.751
    1LIG    C25  249   1.846   1.873   5.909
    1LIG    O13  250   1.910   1.922   6.061
    1LIG    C26  251   1.846   1.872   6.212
    1LIG    C27  252   1.918   1.928   6.369
    1LIG    O14  253   1.854   1.878   6.521
    1LIG    C28  254   1.918   1.927   6.673
    1LIG    C29  255   1.847   1.872   6.831
    1LIG    O15  256   1.910   1.921   6.983
    1LIG    C30  257   1.846   1.872   7.134
    1LIG    C31  258   1.919   1.927   7.291
    1LIG    O16  259   1.855   1.878   7.442
    1LIG    C32  260   1.918   1.927   7.594
    1LIG    C33  261   1.847   1.871   7.752
    1LIG    O17  262   1.911   1.920   7.904
    1LIG    C34  263   1.847   1.871   8.056
    1LIG    C35  264   1.918   1.926   8.213
    1LIG    O18  265   1.854   1.877   8.365
    1LIG    C36  266   1.919   1.926   8.516
    1LIG    C37  267   1.847   1.871   8.674
    1LIG    O19  268   1.912   1.920   8.827
    1LIG    C38  269   1.847   1.870   8.978
    1LIG    C39  270   1.919   1.924   9.136
    1LIG    O20  271   1.855   1.875   9.288
    1LIG    C40  272   1.919   1.925   9.439
    1LIG    C41  273   1.848   1.869   9.597
    1LIG    O21  274   1.912   1.918   9.749
    1LIG    C42  275   1.848   1.868   9.900
    1LIG    C43  276   1.920   1.924  10.057
    1LIG    O22  277   1.857   1.875  10.209
    1LIG    C44  278   1.920   1.924  10.361
    1LIG    C45  279   1.848   1.868  10.518
    1LIG    O23  280   1.912   1.917  10.670
    1LIG    C46  281   1.849   1.867  10.822
    1LIG    C47  282   1.921   1.923  10.979
    1LIG    O24  283   1.857   1.874  11.130
    1LIG    C48  284   1.921   1.922  11.282
    1LIG    C49  285   1.849   1.866  11.439
    1LIG    O25  286   1.912   1.916  11.591
    1LIG    C50  287   1.849   1.866  11.743
    1LIG    C51  288   1.922   1.922  11.900
    1LIG    O26  289   1.858   1.872  12.051
    1LIG    C52  290   1.921   1.921  12.204
    1LIG    C53  291   1.850   1.865  12.360
    1LIG    O27  292   1.914   1.914  12.512
    1LIG    C54  293   1.851   1.865  12.664
    1LIG    C55  294   1.922   1.920  12.822
    1LIG    O28  295   1.859   1.870  12.974
    1LIG    C56  296   1.923   1.920  13.127
    1LIG    C57  297   1.852   1.864  13.285
    1LIG    O29  298   1.915   1.913  13.438
    1LIG    C58  299   1.851   1.863  13.589
    1LIG    C59  300   1.922   1.917  13.747
    1LIG      H  301   1.924   2.025   0.214
    1LIG     H1  302   2.031   1.885   0.215
    1LIG     H2  303   1.858   1.753   0.377
    1LIG     H3  304   1.751   1.894   0.375
    1LIG     H4  305   1.857   1.754   0.683
    1LIG     H5  306   1.749   1.895   0.682
    1LIG     H6  307   1.923   2.029   0.836
    1LIG     H7  308   2.031   1.888   0.837
    1LIG     H8  309   1.922   2.030   1.143
    1LIG     H9  310   2.030   1.889   1.145
    1LIG    H10  311   1.855   1.756   1.299
    1LIG    H11  312   1.747   1.897   1.297
    1LIG    H12  313   1.854   1.757   1.606
    1LIG    H13  314   1.746   1.898   1.604
    1LIG    H14  315   1.920   2.032   1.758
    1LIG    H15  316   2.028   1.892   1.759
    1LIG    H16  317   1.919   2.034   2.066
    1LIG    H17  318   2.027   1.893   2.067
    1LIG    H18  319   1.852   1.759   2.219
    1LIG    H19  320   1.744   1.900   2.219
    1LIG    H20  321   1.852   1.760   2.527
    1LIG    H21  322   1.744   1.901   2.527
    1LIG    H22  323   1.918   2.035   2.679
    1LIG    H23  324   2.026   1.894   2.680
    1LIG    H24  325   1.918   2.035   2.987
    1LIG    H25  326   2.026   1.894   2.988
    1LIG    H26  327   1.851   1.761   3.141
    1LIG    H27  328   1.743   1.901   3.140
    1LIG    H28  329   1.851   1.761   3.448
    1LIG    H29  330   1.743   1.902   3.448
    1LIG    H30  331   1.916   2.035   3.602
    1LIG    H31  332   2.024   1.895   3.603
    1LIG    H32  333   1.917   2.036   3.909
    1LIG    H33  334   2.025   1.896   3.910
    1LIG    H34  335   1.851   1.762   4.064
    1LIG    H35  336   1.743   1.903   4.064
    1LIG    H36  337   1.850   1.762   4.371
    1LIG    H37  338   1.741   1.902   4.371
    1LIG    H38  339   1.916   2.036   4.524
    1LIG    H39  340   2.024   1.896   4.524
    1LIG    H40  341   1.916   2.037   4.832
    1LIG    H41  342   2.024   1.896   4.832
    1LIG    H42  343   1.850   1.762   4.985
    1LIG    H43  344   1.742   1.903   4.984
    1LIG    H44  345   1.849   1.762   5.292
    1LIG    H45  346   1.741   1.903   5.292
    1LIG    H46  347   1.916   2.037   5.445
    1LIG    H47  348   2.024   1.896   5.445
    1LIG    H48  349   1.915   2.037   5.753
    1LIG    H49  350   2.023   1.896   5.753
    1LIG    H50  351   1.849   1.763   5.907
    1LIG    H51  352   1.741   1.903   5.907
    1LIG    H52  353   1.848   1.763   6.214
    1LIG    H53  354   1.740   1.903   6.214
    1LIG    H54  355   1.915   2.037   6.368
    1LIG    H55  356   2.023   1.897   6.367
    1LIG    H56  357   1.915   2.037   6.675
    1LIG    H57  358   2.023   1.896   6.675
    1LIG    H58  359   1.850   1.762   6.829
    1LIG    H59  360   1.741   1.903   6.830
    1LIG    H60  361   1.849   1.762   7.136
    1LIG    H61  362   1.741   1.902   7.136
    1LIG    H62  363   1.916   2.037   7.289
    1LIG    H63  364   2.024   1.896   7.289
    1LIG    H64  365   1.915   2.036   7.596
    1LIG    H65  366   2.023   1.896   7.596
    1LIG    H66  367   1.850   1.762   7.750
    1LIG    H67  368   1.741   1.902   7.751
    1LIG    H68  369   1.850   1.761   8.057
    1LIG    H69  370   1.741   1.902   8.057
    1LIG    H70  371   1.915   2.036   8.212
    1LIG    H71  372   2.023   1.895   8.211
    1LIG    H72  373   1.916   2.036   8.518
    1LIG    H73  374   2.024   1.895   8.518
    1LIG    H74  375   1.850   1.761   8.673
    1LIG    H75  376   1.742   1.902   8.673
    1LIG    H76  377   1.851   1.760   8.979
    1LIG    H77  378   1.742   1.900   8.979
    1LIG    H78  379   1.916   2.034   9.134
    1LIG    H79  380   2.024   1.894   9.134
    1LIG    H80  381   1.916   2.034   9.441
    1LIG    H81  382   2.025   1.894   9.440
    1LIG    H82  383   1.851   1.760   9.595
    1LIG    H83  384   1.743   1.900   9.595
    1LIG    H84  385   1.851   1.759   9.902
    1LIG    H85  386   1.742   1.899   9.902
    1LIG    H86  387   1.916   2.034  10.055
    1LIG    H87  388   2.025   1.894  10.055
    1LIG    H88  389   1.917   2.033  10.363
    1LIG    H89  390   2.026   1.893  10.363
    1LIG    H90  391   1.852   1.758  10.516
    1LIG    H91  392   1.743   1.898  10.516
    1LIG    H92  393   1.852   1.758  10.824
    1LIG    H93  394   1.743   1.898  10.824
    1LIG    H94  395   1.918   2.033  10.977
    1LIG    H95  396   2.026   1.893  10.977
    1LIG    H96  397   1.917   2.032  11.285
    1LIG    H97  398   2.026   1.892  11.284
    1LIG    H98  399   1.852   1.757  11.437
    1LIG    H99  400   1.743   1.897  11.438
    1LIG   H100  401   1.853   1.757  11.745
    1LIG   H101  402   1.744   1.897  11.746
    1LIG   H102  403   1.918   2.032  11.898
    1LIG   H103  404   2.027   1.892  11.898
    1LIG   H104  405   1.918   2.031  12.206
    1LIG   H105  406   2.027   1.891  12.206
    1LIG   H106  407   1.853   1.755  12.358
    1LIG   H107  408   1.744   1.896  12.359
    1LIG   H108  409   1.854   1.755  12.666
    1LIG   H109  410   1.745   1.895  12.666
    1LIG   H110  411   1.919   2.030  12.821
    1LIG   H111  412   2.027   1.890  12.820
    1LIG   H112  413   1.919   2.029  13.128
    1LIG   H113  414   2.028   1.889  13.128
    1LIG   H114  415   1.855   1.754  13.283
    1LIG   H115  416   1.746   1.894  13.284
    1LIG   H116  417   1.856   1.753  13.589
    1LIG   H117  418   1.746   1.894  13.590
    1LIG   H118  419   2.028   1.887  13.747
    1LIG   H119  420   1.875   1.880  13.866
    1MOL     C1  421   1.315   2.203   6.364
    1MOL     H1  422   1.210   2.173   6.372
    1MOL     O1  423   1.347   2.263   6.488
    1MOL     C2  424   1.481   2.316   6.497
    1MOL     H2  425   1.553   2.234   6.485
    1MOL     C3  426   1.498   2.373   6.637
    1MOL     H3  427   1.605   2.394   6.652
    1MOL     H4  428   1.467   2.296   6.710
    1MOL     O2  429   1.420   2.491   6.650
    1MOL     H5  430   1.444   2.533   6.734
    1MOL     C4  431   1.333   2.304   6.249
    1MOL     H6  432   1.265   2.387   6.268
    1MOL     O3  433   1.299   2.253   6.122
    1MOL     H7  434   1.332   2.160   6.113
    1MOL     C5  435   1.476   2.359   6.251
    1MOL     H8  436   1.547   2.277   6.232
    1MOL     O4  437   1.490   2.458   6.150
    1MOL     H9  438   1.443   2.424   6.072
    1MOL     C6  439   1.505   2.420   6.386
    1MOL    H10  440   1.438   2.505   6.402
    1MOL     O5  441   1.641   2.464   6.387
    1MOL     C7  442   1.670   2.591   6.443
    1MOL    H11  443   1.580   2.633   6.490
    1MOL     O6  444   1.764   2.579   6.547
    1MOL     C8  445   1.893   2.528   6.507
    1MOL    H12  446   1.878   2.429   6.461
    1MOL     C9  447   1.979   2.509   6.634
    1MOL    H13  448   2.051   2.429   6.614
    1MOL    H14  449   1.912   2.475   6.714
    1MOL     O7  450   2.044   2.626   6.679
    1MOL    H15  451   2.131   2.629   6.636
    1MOL    C10  452   1.723   2.683   6.332
    1MOL    H16  453   1.735   2.784   6.374
    1MOL     O8  454   1.634   2.697   6.222
    1MOL    H17  455   1.602   2.609   6.195
    1MOL    C11  456   1.861   2.636   6.285
    1MOL    H18  457   1.851   2.536   6.238
    1MOL     O9  458   1.917   2.728   6.192
    1MOL    H19  459   1.845   2.751   6.131
    1MOL    C12  460   1.954   2.624   6.405
    1MOL    H20  461   1.964   2.722   6.453
    1MOL    O10  462   2.082   2.580   6.359
    1MOL    C13  463   2.193   2.661   6.386
    1MOL    H21  464   2.162   2.761   6.418
    1MOL    O11  465   2.270   2.609   6.494
    1MOL    C14  466   2.325   2.477   6.470
    1MOL    H22  467   2.242   2.409   6.448
    1MOL    C15  468   2.394   2.430   6.599
    1MOL    H23  469   2.387   2.320   6.603
    1MOL    H24  470   2.336   2.468   6.684
    1MOL    O12  471   2.527   2.473   6.614
    1MOL    H25  472   2.584   2.403   6.579
    1MOL    C16  473   2.278   2.670   6.259
    1MOL    H26  474   2.360   2.741   6.278
    1MOL    O13  475   2.207   2.720   6.147
    1MOL    H27  476   2.112   2.699   6.157
    1MOL    C17  477   2.340   2.534   6.228
    1MOL    H28  478   2.260   2.462   6.205
    1MOL    O14  479   2.429   2.543   6.117
    1MOL    H29  480   2.382   2.594   6.048
    1MOL    C18  481   2.418   2.485   6.349
    1MOL    H30  482   2.499   2.556   6.372
    1MOL    O15  483   2.474   2.357   6.317
    1MOL    C19  484   2.613   2.338   6.332
    1MOL    H31  485   2.663   2.434   6.346
    1MOL    O16  486   2.643   2.263   6.448
    1MOL    C20  487   2.586   2.129   6.449
    1MOL    H32  488   2.477   2.139   6.438
    1MOL    C21  489   2.615   2.064   6.585
    1MOL    H33  490   2.533   1.995   6.608
    1MOL    H34  491   2.614   2.143   6.661
    1MOL    O17  492   2.740   1.999   6.593
    1MOL    H35  493   2.724   1.905   6.572
    1MOL    C22  494   2.664   2.268   6.206
    1MOL    H36  495   2.774   2.261   6.214
    1MOL    O18  496   2.637   2.338   6.087
    1MOL    H37  497   2.553   2.388   6.097
    1MOL    C23  498   2.609   2.125   6.200
    1MOL    H38  499   2.499   2.130   6.189
    1MOL    O19  500   2.666   2.054   6.091
    1MOL    H39  501   2.661   2.114   6.014
    1MOL    C24  502   2.642   2.052   6.329
    1MOL    H40  503   2.751   2.045   6.341
    1MOL    O20  504   2.586   1.921   6.322
    1MOL    C25  505   2.671   1.810   6.340
    1MOL    H41  506   2.776   1.841   6.338
    1MOL    O21  507   2.651   1.750   6.467
    1MOL    C26  508   2.518   1.698   6.489
    1MOL    H42  509   2.446   1.781   6.483
    1MOL    C27  510   2.512   1.642   6.630
    1MOL    H43  511   2.406   1.621   6.654
    1MOL    H44  512   2.550   1.718   6.700
    1MOL    O22  513   2.590   1.523   6.636
    1MOL    H45  514   2.581   1.485   6.725
    1MOL    C28  515   2.643   1.709   6.228
    1MOL    H46  516   2.712   1.625   6.240
    1MOL    O23  517   2.664   1.762   6.098
    1MOL    H47  518   2.641   1.857   6.097
    1MOL    C29  519   2.500   1.655   6.242
    1MOL    H48  520   2.429   1.738   6.229
    1MOL    O24  521   2.476   1.555   6.144
    1MOL    H49  522   2.514   1.589   6.061
    1MOL    C30  523   2.481   1.595   6.381
    1MOL    H50  524   2.546   1.507   6.391
    1MOL    O25  525   2.344   1.558   6.393
    1MOL    C31  526   2.313   1.433   6.455
    1MOL    H51  527   2.401   1.394   6.506
    1MOL    O26  528   2.216   1.452   6.555
    1MOL    C32  529   2.088   1.503   6.508
    1MOL    H52  530   2.106   1.599   6.457
    1MOL    C33  531   2.000   1.528   6.630
    1MOL    H53  532   1.923   1.602   6.602
    1MOL    H54  533   2.063   1.573   6.707
    1MOL    O27  534   1.940   1.410   6.681
    1MOL    H55  535   1.843   1.422   6.674
    1MOL    C34  536   2.263   1.335   6.347
    1MOL    H56  537   2.249   1.237   6.395
    1MOL    O28  538   2.355   1.314   6.242
    1MOL    H57  539   2.383   1.400   6.205
    1MOL    C35  540   2.128   1.382   6.293
    1MOL    H58  541   2.142   1.478   6.242
    1MOL    O29  542   2.074   1.286   6.202
    1MOL    H59  543   2.149   1.258   6.147
    1MOL    C36  544   2.030   1.401   6.408
    1MOL    H60  545   2.015   1.307   6.462
    1MOL    O30  546   1.906   1.447   6.354
    1MOL    C37  547   1.798   1.355   6.357
    1MOL    H61  548   1.835   1.254   6.376
    1MOL    O31  549   1.708   1.383   6.462
    1MOL    C38  550   1.648   1.513   6.457
    1MOL    H62  551   1.726   1.591   6.454
    1MOL    C39  552   1.571   1.529   6.586
    1MOL    H63  553   1.503   1.444   6.599
    1MOL    H64  554   1.512   1.622   6.585
    1MOL    O32  555   1.669   1.532   6.691
    1MOL    H65  556   1.624   1.553   6.774
    1MOL    C40  557   1.724   1.361   6.223
    1MOL    H66  558   1.646   1.284   6.226
    1MOL    O33  559   1.806   1.337   6.110
    1MOL    H67  560   1.900   1.337   6.136
    1MOL    C41  561   1.655   1.497   6.209
    1MOL    H68  562   1.732   1.576   6.205
    1MOL    O34  563   1.577   1.501   6.090
    1MOL    H69  564   1.634   1.467   6.019
    1MOL    C42  565   1.564   1.524   6.328
    1MOL    H70  566   1.483   1.450   6.330
    1MOL    O35  567   1.509   1.655   6.312
    1MOL    C43  568   1.369   1.672   6.316
    1MOL    H71  569   1.319   1.575   6.319
    1MOL    O36  570   1.328   1.738   6.434
    1MOL    C44  571   1.380   1.872   6.451
    1MOL    H72  572   1.490   1.869   6.453
    1MOL    C45  573   1.330   1.921   6.585
    1MOL    H73  574   1.222   1.901   6.592
    1MOL    H74  575   1.346   2.029   6.593
    1MOL    O37  576   1.402   1.851   6.687
    1MOL    H75  577   1.365   1.877   6.772
    1MOL    C46  578   1.326   1.752   6.193
    1MOL    H76  579   1.216   1.757   6.193
    1MOL    O38  580   1.363   1.692   6.070
    1MOL    H77  581   1.448   1.645   6.080
    1MOL    C47  582   1.380   1.895   6.202
    1MOL    H78  583   1.490   1.892   6.200
    1MOL    O39  584   1.332   1.972   6.092
    1MOL    H79  585   1.343   1.915   6.014
    1MOL    C48  586   1.336   1.960   6.332
    1MOL    H80  587   1.226   1.970   6.332
    1MOL    O40  588   1.396   2.090   6.339
    1MOL     C1  589   1.315   2.203   7.504
    1MOL     H1  590   1.210   2.173   7.512
    1MOL     O1  591   1.347   2.263   7.628
    1MOL     C2  592   1.481   2.316   7.637
    1MOL     H2  593   1.553   2.234   7.625
    1MOL     C3  594   1.498   2.373   7.777
    1MOL     H3  595   1.605   2.394   7.792
    1MOL     H4  596   1.467   2.296   7.850
    1MOL     O2  597   1.420   2.491   7.790
    1MOL     H5  598   1.444   2.533   7.874
    1MOL     C4  599   1.333   2.304   7.389
    1MOL     H6  600   1.265   2.387   7.408
    1MOL     O3  601   1.299   2.253   7.262
    1MOL     H7  602   1.332   2.160   7.253
    1MOL     C5  603   1.476   2.359   7.391
    1MOL     H8  604   1.547   2.277   7.372
    1MOL     O4  605   1.490   2.458   7.290
    1MOL     H9  606   1.443   2.424   7.212
    1MOL     C6  607   1.505   2.420   7.526
    1MOL    H10  608   1.438   2.505   7.542
    1MOL     O5  609   1.641   2.464   7.527
    1MOL     C7  610   1.670   2.591   7.583
    1MOL    H11  611   1.580   2.633   7.630
    1MOL     O6  612   1.764   2.579   7.687
    1MOL     C8  613   1.893   2.528   7.647
    1MOL    H12  614   1.878   2.429   7.601
    1MOL     C9  615   1.979   2.509   7.774
    1MOL    H13  616   2.051   2.429   7.754
    1MOL    H14  617   1.912   2.475   7.854
    1MOL     O7  618   2.044   2.626   7.819
    1MOL    H15  619   2.131   2.629   7.776
    1MOL    C10  620   1.723   2.683   7.472
    1MOL    H16  621   1.735   2.784   7.514
    1MOL     O8  622   1.634   2.697   7.362
    1MOL    H17  623   1.602   2.609   7.335
    1MOL    C11  624   1.861   2.636   7.425
    1MOL    H18  625   1.851   2.536   7.378
    1MOL     O9  626   1.917   2.728   7.332
    1MOL    H19  627   1.845   2.751   7.271
    1MOL    C12  628   1.954   2.624   7.545
    1MOL    H20  629   1.964   2.722   7.593
    1MOL    O10  630   2.082   2.580   7.499
    1MOL    C13  631   2.193   2.661   7.526
    1MOL    H21  632   2.162   2.761   7.558
    1MOL    O11  633   2.270   2.609   7.634
    1MOL    C14  634   2.325   2.477   7.610
    1MOL    H22  635   2.242   2.409   7.588
    1MOL    C15  636   2.394   2.430   7.739
    1MOL    H23  637   2.387   2.320   7.743
    1MOL    H24  638   2.336   2.468   7.824
    1MOL    O12  639   2.527   2.473   7.754
    1MOL    H25  640   2.584   2.403   7.719
    1MOL    C16  641   2.278   2.670   7.399
    1MOL    H26  642   2.360   2.741   7.418
    1MOL    O13  643   2.207   2.720   7.287
    1MOL    H27  644   2.112   2.699   7.297
    1MOL    C17  645   2.340   2.534   7.368
    1MOL    H28  646   2.260   2.462   7.345
    1MOL    O14  647   2.429   2.543   7.257
    1MOL    H29  648   2.382   2.594   7.188
    1MOL    C18  649   2.418   2.485   7.489
    1MOL    H30  650   2.499   2.556   7.512
    1MOL    O15  651   2.474   2.357   7.457
    1MOL    C19  652   2.613   2.338   7.472
    1MOL    H31  653   2.663   2.434   7.486
    1MOL    O16  654   2.643   2.263   7.588
    1MOL    C20  655   2.586   2.129   7.589
    1MOL    H32  656   2.477   2.139   7.578
    1MOL    C21  657   2.615   2.064   7.725
    1MOL    H33  658   2.533   1.995   7.748
    1MOL    H34  659   2.614   2.143   7.801
    1MOL    O17  660   2.740   1.999   7.733
    1MOL    H35  661   2.724   1.905   7.712
    1MOL    C22  662   2.664   2.268   7.346
    1MOL    H36  663   2.774   2.261   7.354
    1MOL    O18  664   2.637   2.338   7.227
    1MOL    H37  665   2.553   2.388   7.237
    1MOL    C23  666   2.609   2.125   7.340
    1MOL    H38  667   2.499   2.130   7.329
    1MOL    O19  668   2.666   2.054   7.231
    1MOL    H39  669   2.661   2.114   7.154
    1MOL    C24  670   2.642   2.052   7.469
    1MOL    H40  671   2.751   2.045   7.481
    1MOL    O20  672   2.586   1.921   7.462
    1MOL    C25  673   2.671   1.810   7.480
    1MOL    H41  674   2.776   1.841   7.478
    1MOL    O21  675   2.651   1.750   7.607
    1MOL    C26  676   2.518   1.698   7.629
    1MOL    H42  677   2.446   1.781   7.623
    1MOL    C27  678   2.512   1.642   7.770
    1MOL    H43  679   2.406   1.621   7.794
    1MOL    H44  680   2.550   1.718   7.840
    1MOL    O22  681   2.590   1.523   7.776
    1MOL    H45  682   2.581   1.485   7.865
    1MOL    C28  683   2.643   1.709   7.368
    1MOL    H46  684   2.712   1.625   7.380
    1MOL    O23  685   2.664   1.762   7.238
    1MOL    H47  686   2.641   1.857   7.237
    1MOL    C29  687   2.500   1.655   7.382
    1MOL    H48  688   2.429   1.738   7.369
    1MOL    O24  689   2.476   1.555   7.284
    1MOL    H49  690   2.514   1.589   7.201
    1MOL    C30  691   2.481   1.595   7.521
    1MOL    H50  692   2.546   1.507   7.531
    1MOL    O25  693   2.344   1.558   7.533
    1MOL    C31  694   2.313   1.433   7.595
    1MOL    H51  695   2.401   1.394   7.646
    1MOL    O26  696   2.216   1.452   7.695
    1MOL    C32  697   2.088   1.503   7.648
    1MOL    H52  698   2.106   1.599   7.597
    1MOL    C33  699   2.000   1.528   7.770
    1MOL    H53  700   1.923   1.602   7.742
    1MOL    H54  701   2.063   1.573   7.847
    1MOL    O27  702   1.940   1.410   7.821
    1MOL    H55  703   1.843   1.422   7.814
    1MOL    C34  704   2.263   1.335   7.487
    1MOL    H56  705   2.249   1.237   7.535
    1MOL    O28  706   2.355   1.314   7.382
    1MOL    H57  707   2.383   1.400   7.345
    1MOL    C35  708   2.128   1.382   7.433
    1MOL    H58  709   2.142   1.478   7.382
    1MOL    O29  710   2.074   1.286   7.342
    1MOL    H59  711   2.149   1.258   7.287
    1MOL    C36  712   2.030   1.401   7.548
    1MOL    H60  713   2.015   1.307   7.602
    1MOL    O30  714   1.906   1.447   7.494
    1MOL    C37  715   1.798   1.355   7.497
    1MOL    H61  716   1.835   1.254   7.516
    1MOL    O31  717   1.708   1.383   7.602
    1MOL    C38  718   1.648   1.513   7.597
    1MOL    H62  719   1.726   1.591   7.594
    1MOL    C39  720   1.571   1.529   7.726
    1MOL    H63  721   1.503   1.444   7.739
    1MOL    H64  722   1.512   1.622   7.725
    1MOL    O32  723   1.669   1.532   7.831
    1MOL    H65  724   1.624   1.553   7.914
    1MOL    C40  725   1.724   1.361   7.363
    1MOL    H66  726   1.646   1.284   7.366
    1MOL    O33  727   1.806   1.337   7.250
    1MOL    H67  728   1.900   1.337   7.276
    1MOL    C41  729   1.655   1.497   7.349
    1MOL    H68  730   1.732   1.576   7.345
    1MOL    O34  731   1.577   1.501   7.230
    1MOL    H69  732   1.634   1.467   7.159
    1MOL    C42  733   1.564   1.524   7.468
    1MOL    H70  734   1.483   1.450   7.470
    1MOL    O35  735   1.509   1.655   7.452
    1MOL    C43  736   1.369   1.672   7.456
    1MOL    H71  737   1.319   1.575   7.459
    1MOL    O36  738   1.328   1.738   7.574
    1MOL    C44  739   1.380   1.872   7.591
    1MOL    H72  740   1.490   1.869   7.593
    1MOL    C45  741   1.330   1.921   7.725
    1MOL    H73  742   1.222   1.901   7.732
    1MOL    H74  743   1.346   2.029   7.733
    1MOL    O37  744   1.402   1.851   7.827
    1MOL    H75  745   1.365   1.877   7.912
    1MOL    C46  746   1.326   1.752   7.333
    1MOL    H76  747   1.216   1.757   7.333
    1MOL    O38  748   1.363   1.692   7.210
    1MOL    H77  749   1.448   1.645   7.220
    1MOL    C47  750   1.380   1.895   7.342
    1MOL    H78  751   1.490   1.892   7.340
    1MOL    O39  752   1.332   1.972   7.232
    1MOL    H79  753   1.343   1.915   7.154
    1MOL    C48  754   1.336   1.960   7.472
    1MOL    H80  755   1.226   1.970   7.472
    1MOL    O40  756   1.396   2.090   7.479
    2SOL     OW  757   0.230   0.628   0.113
    2SOL    HW1  758   0.137   0.626   0.150
    2SOL    HW2  759   0.231   0.589   0.021
    3SOL     OW  760   0.225   0.275   0.996
    3SOL    HW1  761   0.260   0.258   1.088
    3SOL    HW2  762   0.137   0.230   0.984
    4SOL     OW  763   0.019   0.368   0.647
    4SOL    HW1  764  -0.063   0.411   0.686
    4SOL    HW2  765  -0.009   0.295   0.584
    5SOL     OW  766   0.569   1.275   1.165
    5SOL    HW1  767   0.476   1.268   1.128
    5SOL    HW2  768   0.580   1.364   1.209
    6SOL     OW  769   1.555   1.511   0.703
    6SOL    HW1  770   1.498   1.495   0.784
    6SOL    HW2  771   1.496   1.521   0.623
    7SOL     OW  772   1.135   0.703   0.717
    7SOL    HW1  773   1.192   0.781   0.692
    7SOL    HW2  774   1.075   0.729   0.793
    8SOL     OW  775   1.755   0.607   0.231
    8SOL    HW1  776   1.743   0.594   0.132
    8SOL    HW2  777   1.725   0.526   0.280
    9SOL     OW  778   0.768   1.144   1.023
    9SOL    HW1  779   0.690   1.161   1.083
    9SOL    HW2  780   0.802   1.231   0.987
   10SOL     OW  781   0.850   0.798   1.823
   10SOL    HW1  782   0.846   0.874   1.888
   10SOL    HW2  783   0.872   0.834   1.732
   11SOL     OW  784   0.685   1.012   0.665
   11SOL    HW1  785   0.754   0.996   0.735
   11SOL    HW2  786   0.612   1.069   0.703
   12SOL     OW  787   0.686   1.161   1.803
   12SOL    HW1  788   0.746   1.240   1.817
   12SOL    HW2  789   0.600   1.192   1.762
   13SOL     OW  790   0.335   1.435   1.061
   13SOL    HW1  791   0.257   1.404   1.008
   13SOL    HW2  792   0.393   1.493   1.004
   14SOL     OW  793   1.460   1.505   1.339
   14SOL    HW1  794   1.484   1.599   1.365
   14SOL    HW2  795   1.444   1.451   1.421
   15SOL     OW  796   0.438   0.392   1.499
   15SOL    HW1  797   0.520   0.336   1.508
   15SOL    HW2  798   0.357   0.334   1.503
   16SOL     OW  799   1.603   0.447   0.737
   16SOL    HW1  800   1.529   0.493   0.687
   16SOL    HW2  801   1.654   0.515   0.790
   17SOL     OW  802   0.231   1.713   0.483
   17SOL    HW1  803   0.265   1.790   0.537
   17SOL    HW2  804   0.275   1.713   0.393
   18SOL     OW  805   1.127   1.341   1.690
   18SOL    HW1  806   1.174   1.341   1.778
   18SOL    HW2  807   1.079   1.254   1.679
   19SOL     OW  808   0.230   1.434   0.538
   19SOL    HW1  809   0.204   1.530   0.538
   19SOL    HW2  810   0.159   1.380   0.583
   20SOL     OW  811   0.240   1.091   0.886
   20SOL    HW1  812   0.254   1.007   0.938
   20SOL    HW2  813   0.185   1.155   0.941
   21SOL     OW  814   0.620   1.786   1.439
   21SOL    HW1  815   0.528   1.769   1.474
   21SOL    HW2  816   0.648   1.878   1.465
   22SOL     OW  817   0.606   0.964   0.123
   22SOL    HW1  818   0.613   1.048   0.069
   22SOL    HW2  819   0.652   0.977   0.211
   23SOL     OW  820   1.594   0.114   1.480
   23SOL    HW1  821   1.576   0.181   1.408
   23SOL    HW2  822   1.591   0.160   1.569
   24SOL     OW  823   0.122   0.643   0.563
   24SOL    HW1  824   0.077   0.555   0.580
   24SOL    HW2  825   0.121   0.697   0.647
   25SOL     OW  826   0.027   1.596   0.117
   25SOL    HW1  827   0.008   1.500   0.138
   25SOL    HW2  828  -0.006   1.654   0.192
   26SOL     OW  829   1.689   0.922   0.612
   26SOL    HW1  830   1.784   0.893   0.620
   26SOL    HW2  831   1.681   0.987   0.537
   27SOL     OW  832   1.641   1.108   0.432
   27SOL    HW1  833   1.727   1.110   0.380
   27SOL    HW2  834   1.655   1.155   0.520
   28SOL     OW  835   0.113   0.737   1.597
   28SOL    HW1  836   0.201   0.724   1.642
   28SOL    HW2  837   0.100   0.834   1.575
   29SOL     OW  838   0.613   1.365   0.726
   29SOL    HW1  839   0.564   1.278   0.735
   29SOL    HW2  840   0.590   1.408   0.639
   30SOL     OW  841   1.293   1.228   1.423
   30SOL    HW1  842   1.330   1.155   1.365
   30SOL    HW2  843   1.345   1.233   1.508
   31SOL     OW  844   0.809   0.004   0.502
   31SOL    HW1  845   0.849   0.095   0.493
   31SOL    HW2  846   0.709   0.012   0.508
   32SOL     OW  847   0.197   0.976   1.264
   32SOL    HW1  848   0.286   0.931   1.250
   32SOL    HW2  849   0.124   0.911   1.245
   33SOL     OW  850   1.525   0.999   0.190
   33SOL    HW1  851   1.462   0.923   0.203
   33SOL    HW2  852   1.573   1.017   0.276
   34SOL     OW  853   1.187   1.792   1.616
   34SOL    HW1  854   1.211   1.852   1.540
   34SOL    HW2  855   1.194   1.697   1.586
   35SOL     OW  856   0.317   0.251   1.801
   35SOL    HW1  857   0.388   0.322   1.807
   35SOL    HW2  858   0.229   0.290   1.829
   36SOL     OW  859   1.466   1.417   0.953
   36SOL    HW1  860   1.407   1.423   1.033
   36SOL    HW2  861   1.451   1.329   0.907
   37SOL     OW  862   1.667   1.714   0.572
   37SOL    HW1  863   1.626   1.691   0.484
   37SOL    HW2  864   1.649   1.640   0.637
   38SOL     OW  865   0.598   0.729   0.270
   38SOL    HW1  866   0.622   0.798   0.202
   38SOL    HW2  867   0.520   0.762   0.324
   39SOL     OW  868   1.281   0.345   0.944
   39SOL    HW1  869   1.195   0.295   0.931
   39SOL    HW2  870   1.343   0.291   1.000
   40SOL     OW  871   1.576   1.662   0.307
   40SOL    HW1  872   1.665   1.708   0.310
   40SOL    HW2  873   1.555   1.638   0.212
   41SOL     OW  874   0.807   0.605   1.465
   41SOL    HW1  875   0.760   0.602   1.554
   41SOL    HW2  876   0.756   0.550   1.399
   42SOL     OW  877   1.394   0.469   1.674
   42SOL    HW1  878   1.374   0.512   1.762
   42SOL    HW2  879   1.472   0.407   1.683
   43SOL     OW  880   0.973   0.890   1.572
   43SOL    HW1  881   1.019   0.806   1.543
   43SOL    HW2  882   0.917   0.924   1.497
   44SOL     OW  883   0.991   0.410   1.242
   44SOL    HW1  884   0.914   0.444   1.296
   44SOL    HW2  885   0.957   0.359   1.163
   45SOL     OW  886   1.041   0.701   0.429
   45SOL    HW1  887   1.067   0.697   0.525
   45SOL    HW2  888   0.956   0.650   0.415
   46SOL     OW  889   0.076   0.811   0.789
   46SOL    HW1  890   0.175   0.799   0.798
   46SOL    HW2  891   0.052   0.906   0.810
   47SOL     OW  892   0.130   1.821   1.571
   47SOL    HW1  893   0.120   1.806   1.670
   47SOL    HW2  894   0.044   1.857   1.535
   48SOL     OW  895   0.865   0.348   0.195
   48SOL    HW1  896   0.924   0.411   0.146
   48SOL    HW2  897   0.884   0.254   0.166
   49SOL     OW  898   1.719   0.585   1.831
   49SOL    HW1  899   1.693   0.674   1.795
   49SOL    HW2  900   1.717   0.517   1.758
   50SOL     OW  901   1.362   1.144   0.545
   50SOL    HW1  902   1.445   1.115   0.497
   50SOL    HW2  903   1.313   1.211   0.489
   51SOL     OW  904   0.550   0.196   0.885
   51SOL    HW1  905   0.545   0.191   0.985
   51SOL    HW2  906   0.552   0.292   0.856
   52SOL     OW  907   1.008   1.456   0.477
   52SOL    HW1  908   0.962   1.528   0.425
   52SOL    HW2  909   1.004   1.476   0.575
   53SOL     OW  910   0.351   1.801   0.853
   53SOL    HW1  911   0.401   1.715   0.859
   53SOL    HW2  912   0.416   1.878   0.850
   54SOL     OW  913   1.795   1.066   0.873
   54SOL    HW1  914   1.733   1.051   0.797
   54SOL    HW2  915   1.743   1.077   0.958
   55SOL     OW  916   1.227   1.550   1.506
   55SOL    HW1  917   1.233   1.473   1.570
   55SOL    HW2  918   1.175   1.524   1.426
   56SOL     OW  919   0.321   0.943   0.242
   56SOL    HW1  920   0.403   0.982   0.200
   56SOL    HW2  921   0.294   0.861   0.193
   57SOL     OW  922   1.458   0.735   0.728
   57SOL    HW1  923   1.453   0.670   0.803
   57SOL    HW2  924   1.538   0.794   0.741
   58SOL     OW  925   0.461   1.266   1.727
   58SOL    HW1  926   0.411   1.267   1.641
   58SOL    HW2  927   0.398   1.248   1.803
   59SOL     OW  928   1.111   1.776   0.237
   59SOL    HW1  929   1.051   1.714   0.287
   59SOL    HW2  930   1.142   1.732   0.152
   60SOL     OW  931   0.202   0.285   1.498
   60SOL    HW1  932   0.122   0.345   1.485
   60SOL    HW2  933   0.192   0.236   1.584
   61SOL     OW  934   1.632   1.377   0.081
   61SOL    HW1  935   1.600   1.471   0.071
   61SOL    HW2  936   1.556   1.314   0.069
   62SOL     OW  937   0.464   1.743   0.323
   62SOL    HW1  938   0.497   1.782   0.409
   62SOL    HW2  939   0.540   1.736   0.258
   63SOL     OW  940   1.400   0.107   0.426
   63SOL    HW1  941   1.376   0.070   0.336
   63SOL    HW2  942   1.499   0.123   0.430
   64SOL     OW  943   0.249   1.785   1.241
   64SOL    HW1  944   0.306   1.720   1.291
   64SOL    HW2  945   0.233   1.752   1.148
   65SOL     OW  946   0.940   1.698   0.904
   65SOL    HW1  947   1.020   1.641   0.925
   65SOL    HW2  948   0.891   1.658   0.827
   66SOL     OW  949   0.382   0.700   0.480
   66SOL    HW1  950   0.427   0.610   0.477
   66SOL    HW2  951   0.288   0.689   0.513
   67SOL     OW  952   1.547   0.222   1.729
   67SOL    HW1  953   1.542   0.259   1.821
   67SOL    HW2  954   1.475   0.153   1.717
   68SOL     OW  955   0.614   0.122   0.117
   68SOL    HW1  956   0.712   0.100   0.124
   68SOL    HW2  957   0.583   0.105   0.024
   69SOL     OW  958   0.781   0.264   1.749
   69SOL    HW1  959   0.848   0.203   1.792
   69SOL    HW2  960   0.708   0.283   1.814
   70SOL     OW  961   0.888   1.514   1.195
   70SOL    HW1  962   0.865   1.489   1.101
   70SOL    HW2  963   0.949   1.445   1.234
   71SOL     OW  964   1.351   0.590   1.433
   71SOL    HW1  965   1.379   0.547   1.518
   71SOL    HW2  966   1.376   0.686   1.434
   72SOL     OW  967   0.803   1.402   0.924
   72SOL    HW1  968   0.893   1.416   0.882
   72SOL    HW2  969   0.732   1.404   0.853
   73SOL     OW  970   0.922   0.503   0.899
   73SOL    HW1  971   0.897   0.494   0.803
   73SOL    HW2  972   0.970   0.421   0.930
   74SOL     OW  973   0.539   0.064   0.512
   74SOL    HW1  974   0.458   0.065   0.570
   74SOL    HW2  975   0.542   0.147   0.457
   75SOL     OW  976   1.434   1.188   0.041
   75SOL    HW1  977   1.466   1.112   0.098
   75SOL    HW2  978   1.342   1.215   0.071
   76SOL     OW  979   0.297   0.035   0.171
   76SOL    HW1  980   0.346   0.119   0.150
   76SOL    HW2  981   0.359  -0.030   0.216
   77SOL     OW  982   0.935   0.236   0.480
   77SOL    HW1  983   0.887   0.277   0.402
   77SOL    HW2  984   1.034   0.234   0.461
   78SOL     OW  985   1.076   0.683   1.464
   78SOL    HW1  986   0.996   0.622   1.467
   78SOL    HW2  987   1.157   0.630   1.440
   79SOL     OW  988   1.227   1.570   0.793
   79SOL    HW1  989   1.248   1.644   0.728
   79SOL    HW2  990   1.295   1.570   0.866
   80SOL     OW  991   0.459   1.152   0.741
   80SOL    HW1  992   0.388   1.125   0.806
   80SOL    HW2  993   0.433   1.124   0.648
   81SOL     OW  994   1.271   1.797   0.591
   81SOL    HW1  995   1.315   1.861   0.527
   81SOL    HW2  996   1.221   1.849   0.661
   82SOL     OW  997   1.032   0.549   0.016
   82SOL    HW1  998   0.991   0.631  -0.023
   82SOL    HW2  999   1.096   0.575   0.089
   83SOL     OW 1000   0.078   0.556   1.386
   83SOL    HW1 1001   0.170   0.555   1.345
   83SOL    HW2 1002   0.072   0.630   1.453
   84SOL     OW 1003   0.561   0.222   1.147
   84SOL    HW1 1004   0.599   0.138   1.184
   84SOL    HW2 1005   0.473   0.241   1.191
   85SOL     OW 1006   0.866   0.454   0.642
   85SOL    HW1 1007   0.834   0.526   0.580
   85SOL    HW2 1008   0.890   0.373   0.589
   86SOL     OW 1009   1.017   0.039   0.753
   86SOL    HW1 1010   0.945   0.044   0.684
   86SOL    HW2 1011   0.993  -0.030   0.822
   87SOL     OW 1012   1.429   1.173   0.867
   87SOL    HW1 1013   1.374   1.089   0.860
   87SOL    HW2 1014   1.455   1.202   0.775
   88SOL     OW 1015   1.466   0.590   0.992
   88SOL    HW1 1016   1.436   0.495   0.999
   88SOL    HW2 1017   1.539   0.606   1.058
   89SOL     OW 1018   1.857   0.833   0.377
   89SOL    HW1 1019   1.899   0.769   0.441
   89SOL    HW2 1020   1.819   0.782   0.299
   90SOL     OW 1021   0.488   1.385   0.174
   90SOL    HW1 1022   0.401   1.370   0.221
   90SOL    HW2 1023   0.471   1.411   0.079
   91SOL     OW 1024   1.664   1.280   0.657
   91SOL    HW1 1025   1.763   1.288   0.671
   91SOL    HW2 1026   1.619   1.364   0.688
   92SOL     OW 1027   1.390   0.575   0.078
   92SOL    HW1 1028   1.336   0.554   0.159
   92SOL    HW2 1029   1.481   0.534   0.087
   93SOL     OW 1030   0.527   0.256   0.328
   93SOL    HW1 1031   0.554   0.197   0.253
   93SOL    HW2 1032   0.527   0.351   0.297
   94SOL     OW 1033   1.754   1.223   1.588
   94SOL    HW1 1034   1.845   1.184   1.575
   94SOL    HW2 1035   1.762   1.319   1.612
   95SOL     OW 1036   1.064   1.347   1.340
   95SOL    HW1 1037   0.984   1.324   1.395
   95SOL    HW2 1038   1.147   1.321   1.389
   96SOL     OW 1039   1.592   1.629   1.625
   96SOL    HW1 1040   1.619   1.663   1.535
   96SOL    HW2 1041   1.671   1.591   1.671
   97SOL     OW 1042   1.111   1.195   1.100
   97SOL    HW1 1043   1.071   1.239   1.181
   97SOL    HW2 1044   1.070   1.232   1.017
   98SOL     OW 1045   1.638   1.099   1.079
   98SOL    HW1 1046   1.643   1.180   1.138
   98SOL    HW2 1047   1.552   1.101   1.028
   99SOL     OW 1048   0.915   0.089   1.402
   99SOL    HW1 1049   0.940   0.069   1.307
   99SOL    HW2 1050   0.987   0.145   1.444
  100SOL     OW 1051   0.980   1.116   1.719
  100SOL    HW1 1052   0.881   1.122   1.729
  100SOL    HW2 1053   1.003   1.036   1.663
  101SOL     OW 1054   0.705   1.050   0.368
  101SOL    HW1 1055   0.691   1.057   0.467
  101SOL    HW2 1056   0.789   0.999   0.350
  102SOL     OW 1057   0.410   0.813   1.251
  102SOL    HW1 1058   0.496   0.825   1.301
  102SOL    HW2 1059   0.368   0.726   1.278
  103SOL     OW 1060   1.274   0.386   1.262
  103SOL    HW1 1061   1.295   0.460   1.326
  103SOL    HW2 1062   1.185   0.403   1.219
  104SOL     OW 1063   0.064   1.564   1.331
  104SOL    HW1 1064   0.018   1.646   1.297
  104SOL    HW2 1065   0.162   1.583   1.340
  105SOL     OW 1066   0.367   1.100   0.501
  105SOL    HW1 1067   0.360   1.183   0.445
  105SOL    HW2 1068   0.371   1.020   0.441
  106SOL     OW 1069   0.566   0.537   0.865
  106SOL    HW1 1070   0.578   0.603   0.791
  106SOL    HW2 1071   0.612   0.571   0.948
  107SOL     OW 1072   1.252   1.348   0.388
  107SOL    HW1 1073   1.302   1.425   0.428
  107SOL    HW2 1074   1.157   1.350   0.420
  108SOL     OW 1075   1.272   1.445   1.142
  108SOL    HW1 1076   1.319   1.458   1.229
  108SOL    HW2 1077   1.206   1.371   1.151
  109SOL     OW 1078   1.582   0.639   0.472
  109SOL    HW1 1079   1.551   0.700   0.545
  109SOL    HW2 1080   1.632   0.691   0.403
  110SOL     OW 1081   0.354   1.510   1.329
  110SOL    HW1 1082   0.333   1.466   1.242
  110SOL    HW2 1083   0.451   1.536   1.332
  111SOL     OW 1084   0.402   0.751   1.598
  111SOL    HW1 1085   0.470   0.806   1.551
  111SOL    HW2 1086   0.442   0.663   1.625
  112SOL     OW 1087   1.587   0.779   1.670
  112SOL    HW1 1088   1.495   0.817   1.665
  112SOL    HW2 1089   1.647   0.826   1.605
  113SOL     OW 1090   1.013   0.105   1.770
  113SOL    HW1 1091   1.019   0.190   1.718
  113SOL    HW2 1092   1.045   0.029   1.713
  114SOL     OW 1093   0.504   0.050   1.740
  114SOL    HW1 1094   0.462  -0.007   1.670
  114SOL    HW2 1095   0.438   0.119   1.772
  115SOL     OW 1096   0.573   0.870   1.029
  115SOL    HW1 1097   0.617   0.959   1.020
  115SOL    HW2 1098   0.510   0.870   1.106
  116SOL     OW 1099   1.360   0.862   1.045
  116SOL    HW1 1100   1.285   0.862   0.979
  116SOL    HW2 1101   1.397   0.770   1.054
  117SOL     OW 1102   1.209   0.525   0.275
  117SOL    HW1 1103   1.222   0.441   0.329
  117SOL    HW2 1104   1.180   0.599   0.335
  118SOL     OW 1105   0.307   0.213   1.231
  118SOL    HW1 1106   0.284   0.250   1.321
  118SOL    HW2 1107   0.277   0.118   1.225
  119SOL     OW 1108   0.037   1.310   1.282
  119SOL    HW1 1109   0.090   1.261   1.350
  119SOL    HW2 1110   0.059   1.408   1.287
  120SOL     OW 1111   0.732   0.634   1.064
  120SOL    HW1 1112   0.791   0.608   0.988
  120SOL    HW2 1113   0.704   0.730   1.053
  121SOL     OW 1114   1.728   0.935   1.854
  121SOL    HW1 1115   1.682   0.928   1.765
  121SOL    HW2 1116   1.666   0.979   1.920
  122SOL     OW 1117   0.307   0.063   0.618
  122SOL    HW1 1118   0.296   0.157   0.651
  122SOL    HW2 1119   0.302   0.000   0.695
  123SOL     OW 1120   1.622   0.367   0.374
  123SOL    HW1 1121   1.624   0.291   0.438
  123SOL    HW2 1122   1.574   0.444   0.414
  124SOL     OW 1123   1.023   0.766   0.966
  124SOL    HW1 1124   1.038   0.787   1.062
  124SOL    HW2 1125   0.993   0.671   0.957
  125SOL     OW 1126   0.980   1.573   1.700
  125SOL    HW1 1127   0.960   1.617   1.612
  125SOL    HW2 1128   1.019   1.482   1.684
  126SOL     OW 1129   1.859   1.518   1.605
  126SOL    HW1 1130   1.873   1.545   1.510
  126SOL    HW2 1131   1.942   1.540   1.658
  127SOL     OW 1132   0.350   0.898   1.804
  127SOL    HW1 1133   0.426   0.942   1.852
  127SOL    HW2 1134   0.385   0.851   1.722
  128SOL     OW 1135   1.540   0.274   0.125
  128SOL    HW1 1136   1.479   0.199   0.148
  128SOL    HW2 1137   1.562   0.326   0.208
  129SOL     OW 1138   1.303   0.838   0.042
  129SOL    HW1 1139   1.337   0.745   0.057
  129SOL    HW2 1140   1.321   0.865  -0.053
  130SOL     OW 1141   1.068   1.333   0.849
  130SOL    HW1 1142   1.075   1.249   0.794
  130SOL    HW2 1143   1.130   1.402   0.813
  131SOL     OW 1144   0.319   0.810   0.949
  131SOL    HW1 1145   0.412   0.846   0.954
  131SOL    HW2 1146   0.313   0.725   1.001
  132SOL     OW 1147   0.339   0.509   1.006
  132SOL    HW1 1148   0.287   0.426   0.989
  132SOL    HW2 1149   0.416   0.514   0.942
  133SOL     OW 1150   1.138   0.380   1.678
  133SOL    HW1 1151   1.093   0.443   1.742
  133SOL    HW2 1152   1.231   0.411   1.661
  134SOL     OW 1153   1.160   0.207   1.477
  134SOL    HW1 1154   1.160   0.271   1.554
  134SOL    HW2 1155   1.188   0.255   1.394
  135SOL     OW 1156   0.008   1.326   0.200
  135SOL    HW1 1157  -0.085   1.347   0.169
  135SOL    HW2 1158   0.018   1.227   0.213
  136SOL     OW 1159   0.088   1.801   0.927
  136SOL    HW1 1160   0.046   1.715   0.900
  136SOL    HW2 1161   0.182   1.804   0.893
  137SOL     OW 1162   0.504   1.568   0.910
  137SOL    HW1 1163   0.570   1.642   0.919
  137SOL    HW2 1164   0.548   1.489   0.868
  138SOL     OW 1165   1.002   0.796   1.238
  138SOL    HW1 1166   1.043   0.764   1.324
  138SOL    HW2 1167   0.906   0.769   1.235
  139SOL     OW 1168   0.040   0.544   1.114
  139SOL    HW1 1169   0.125   0.511   1.073
  139SOL    HW2 1170   0.053   0.559   1.212
  140SOL     OW 1171   0.189   0.520   1.722
  140SOL    HW1 1172   0.248   0.480   1.652
  140SOL    HW2 1173   0.131   0.591   1.681
  141SOL     OW 1174   1.369   0.950   1.660
  141SOL    HW1 1175   1.408   1.039   1.680
  141SOL    HW2 1176   1.379   0.930   1.563
  142SOL     OW 1177   0.815   0.572   0.325
  142SOL    HW1 1178   0.822   0.483   0.279
  142SOL    HW2 1179   0.721   0.606   0.317
  143SOL     OW 1180   1.657   0.604   1.206
  143SOL    HW1 1181   1.619   0.535   1.268
  143SOL    HW2 1182   1.739   0.568   1.162
  144SOL     OW 1183   0.252   1.564   1.744
  144SOL    HW1 1184   0.222   1.621   1.820
  144SOL    HW2 1185   0.245   1.467   1.770
  145SOL     OW 1186   0.671   0.464   1.269
  145SOL    HW1 1187   0.637   0.375   1.239
  145SOL    HW2 1188   0.697   0.518   1.189
  146SOL     OW 1189   0.930   1.678   1.465
  146SOL    HW1 1190   0.906   1.660   1.370
  146SOL    HW2 1191   0.960   1.772   1.475
  147SOL     OW 1192   0.473   0.500   0.191
  147SOL    HW1 1193   0.534   0.580   0.195
  147SOL    HW2 1194   0.378   0.531   0.198
  148SOL     OW 1195   0.159   1.137   1.466
  148SOL    HW1 1196   0.181   1.076   1.542
  148SOL    HW2 1197   0.169   1.088   1.380
  149SOL     OW 1198   1.347   1.059   1.234
  149SOL    HW1 1199   1.371   0.996   1.160
  149SOL    HW2 1200   1.257   1.099   1.216
  150SOL     OW 1201   1.302   0.855   0.309
  150SOL    HW1 1202   1.216   0.824   0.351
  150SOL    HW2 1203   1.298   0.841   0.210
  151SOL     OW 1204   1.252   1.731   1.128
  151SOL    HW1 1205   1.336   1.736   1.074
  151SOL    HW2 1206   1.229   1.635   1.146
  152SOL     OW 1207   0.083   1.258   1.022
  152SOL    HW1 1208   0.078   1.257   1.122
  152SOL    HW2 1209   0.000   1.217   0.984
  153SOL     OW 1210   0.688   1.662   1.716
  153SOL    HW1 1211   0.632   1.743   1.725
  153SOL    HW2 1212   0.740   1.666   1.630
  154SOL     OW 1213   0.903   0.086   0.133
  154SOL    HW1 1214   0.954   0.087   0.047
  154SOL    HW2 1215   0.959   0.044   0.204
  155SOL     OW 1216   1.726   0.135   0.523
  155SOL    HW1 1217   1.799   0.118   0.456
  155SOL    HW2 1218   1.695   0.048   0.561
  156SOL     OW 1219   1.388   1.573   0.477
  156SOL    HW1 1220   1.455   1.585   0.403
  156SOL    HW2 1221   1.348   1.662   0.500
  157SOL     OW 1222   0.130   1.794   1.851
  157SOL    HW1 1223   0.089   1.720   1.904
  157SOL    HW2 1224   0.194   1.845   1.909
  158SOL     OW 1225   1.280   0.927   0.672
  158SOL    HW1 1226   1.340   0.846   0.674
  158SOL    HW2 1227   1.320   0.996   0.612
  159SOL     OW 1228   0.830   1.273   1.422
  159SOL    HW1 1229   0.825   1.306   1.517
  159SOL    HW2 1230   0.744   1.292   1.376
  160SOL     OW 1231   0.672   1.616   0.154
  160SOL    HW1 1232   0.681   1.626   0.055
  160SOL    HW2 1233   0.632   1.527   0.175
  161SOL     OW 1234   1.650   1.720   1.394
  161SOL    HW1 1235   1.703   1.730   1.310
  161SOL    HW2 1236   1.623   1.810   1.428
  162SOL     OW 1237   1.841   0.175   0.963
  162SOL    HW1 1238   1.880   0.090   0.927
  162SOL    HW2 1239   1.743   0.177   0.944
  163SOL     OW 1240   0.263   0.326   0.720
  163SOL    HW1 1241   0.184   0.377   0.686
  163SOL    HW2 1242   0.254   0.311   0.818
  164SOL     OW 1243   1.194   1.612   0.031
  164SOL    HW1 1244   1.200   1.519   0.068
  164SOL    HW2 1245   1.135   1.612  -0.049
  165SOL     OW 1246   0.822   1.002   1.372
  165SOL    HW1 1247   0.862   1.001   1.280
  165SOL    HW2 1248   0.832   1.094   1.412
  166SOL     OW 1249   0.916   0.910   0.291
  166SOL    HW1 1250   0.979   0.948   0.223
  166SOL    HW2 1251   0.956   0.827   0.330
  167SOL     OW 1252   1.504   1.607   0.044
  167SOL    HW1 1253   1.412   1.644   0.051
  167SOL    HW2 1254   1.542   1.627  -0.046
  168SOL     OW 1255   0.372   1.288   1.490
  168SOL    HW1 1256   0.359   1.381   1.456
  168SOL    HW2 1257   0.288   1.236   1.477
  169SOL     OW 1258   1.614   1.292   1.289
  169SOL    HW1 1259   1.674   1.295   1.369
  169SOL    HW2 1260   1.539   1.356   1.302
  170SOL     OW 1261   1.039   1.098   0.696
  170SOL    HW1 1262   0.969   1.051   0.750
  170SOL    HW2 1263   1.098   1.030   0.653
  171SOL     OW 1264   1.014   0.236   0.971
  171SOL    HW1 1265   1.006   0.200   0.878
  171SOL    HW2 1266   1.012   0.160   1.036
  172SOL     OW 1267   0.590   1.487   0.491
  172SOL    HW1 1268   0.632   1.429   0.421
  172SOL    HW2 1269   0.546   1.566   0.447
  173SOL     OW 1270   1.709   0.385   1.381
  173SOL    HW1 1271   1.782   0.454   1.385
  173SOL    HW2 1272   1.737   0.310   1.322
  174SOL     OW 1273   0.255   1.348   0.290
  174SOL    HW1 1274   0.159   1.349   0.263
  174SOL    HW2 1275   0.267   1.401   0.374
  175SOL     OW 1276   0.105   1.013   1.726
  175SOL    HW1 1277   0.028   0.980   1.780
  175SOL    HW2 1278   0.190   0.983   1.768
  176SOL     OW 1279   0.672   0.203   1.489
  176SOL    HW1 1280   0.762   0.187   1.449
  176SOL    HW2 1281   0.680   0.208   1.588
  177SOL     OW 1282   0.075   0.345   0.033
  177SOL    HW1 1283  -0.017   0.317   0.004
  177SOL    HW2 1284   0.106   0.422  -0.023
  178SOL     OW 1285   1.440   0.856   1.398
  178SOL    HW1 1286   1.383   0.908   1.335
  178SOL    HW2 1287   1.536   0.868   1.374
  179SOL     OW 1288   0.072   0.166   0.318
  179SOL    HW1 1289   0.055   0.249   0.264
  179SOL    HW2 1290   0.162   0.129   0.296
  180SOL     OW 1291   1.183   1.335   0.119
  180SOL    HW1 1292   1.084   1.324   0.121
  180SOL    HW2 1293   1.217   1.350   0.212
  181SOL     OW 1294   0.613   0.842   1.431
  181SOL    HW1 1295   0.669   0.923   1.414
  181SOL    HW2 1296   0.672   0.762   1.434
  182SOL     OW 1297   1.493   1.767   0.959
  182SOL    HW1 1298   1.526   1.831   0.890
  182SOL    HW2 1299   1.559   1.761   1.034
  183SOL     OW 1300   0.716   0.565   1.708
  183SOL    HW1 1301   0.735   0.630   1.782
  183SOL    HW2 1302   0.776   0.485   1.717
  184SOL     OW 1303   1.450   1.220   1.633
  184SOL    HW1 1304   1.441   1.210   1.732
  184SOL    HW2 1305   1.546   1.213   1.607
  185SOL     OW 1306   0.390   1.741   1.560
  185SOL    HW1 1307   0.299   1.782   1.558
  185SOL    HW2 1308   0.383   1.647   1.592
  186SOL     OW 1309   1.674   0.883   1.254
  186SOL    HW1 1310   1.647   0.794   1.217
  186SOL    HW2 1311   1.675   0.951   1.181
  187SOL     OW 1312   1.225   0.325   0.449
  187SOL    HW1 1313   1.290   0.251   0.438
  187SOL    HW2 1314   1.245   0.375   0.533
  188SOL     OW 1315   0.594   0.745   0.652
  188SOL    HW1 1316   0.644   0.830   0.633
  188SOL    HW2 1317   0.506   0.747   0.604
  189SOL     OW 1318   1.777   0.342   1.642
  189SOL    HW1 1319   1.760   0.373   1.548
  189SOL    HW2 1320   1.693   0.305   1.680
  190SOL     OW 1321   1.730   0.934   1.517
  190SOL    HW1 1322   1.768   1.025   1.532
  190SOL    HW2 1323   1.722   0.917   1.418
  191SOL     OW 1324   0.859   1.374   0.016
  191SOL    HW1 1325   0.813   1.389   0.104
  191SOL    HW2 1326   0.903   1.459  -0.014
  192SOL     OW 1327   0.661   1.790   0.953
  192SOL    HW1 1328   0.615   1.878   0.940
  192SOL    HW2 1329   0.760   1.802   0.946
  193SOL     OW 1330   0.859   0.956   0.861
  193SOL    HW1 1331   0.913   0.887   0.909
  193SOL    HW2 1332   0.827   1.025   0.927
  194SOL     OW 1333   1.083   0.984   0.087
  194SOL    HW1 1334   1.060   1.037   0.005
  194SOL    HW2 1335   1.164   0.928   0.068
  195SOL     OW 1336   1.861   1.569   0.851
  195SOL    HW1 1337   1.790   1.557   0.781
  195SOL    HW2 1338   1.862   1.490   0.911
  196SOL     OW 1339   0.221   1.314   1.844
  196SOL    HW1 1340   0.156   1.241   1.823
  196SOL    HW2 1341   0.225   1.328   1.942
  197SOL     OW 1342   0.079   1.240   0.653
  197SOL    HW1 1343   0.078   1.193   0.741
  197SOL    HW2 1344   0.161   1.212   0.602
  198SOL     OW 1345   0.672   1.391   1.624
  198SOL    HW1 1346   0.594   1.341   1.662
  198SOL    HW2 1347   0.669   1.486   1.655
  199SOL     OW 1348   1.824   0.192   1.227
  199SOL    HW1 1349   1.820   0.102   1.271
  199SOL    HW2 1350   1.827   0.181   1.128
  200SOL     OW 1351   0.428   0.424   0.520
  200SOL    HW1 1352   0.458   0.352   0.458
  200SOL    HW2 1353   0.389   0.384   0.603
  201SOL     OW 1354   1.705   1.487   1.104
  201SOL    HW1 1355   1.612   1.462   1.077
  201SOL    HW2 1356   1.731   1.437   1.186
  202SOL     OW 1357   0.317   0.547   1.280
  202SOL    HW1 1358   0.355   0.488   1.352
  202SOL    HW2 1359   0.357   0.521   1.192
  203SOL     OW 1360   0.812   1.586   0.687
  203SOL    HW1 1361   0.844   1.596   0.593
  203SOL    HW2 1362   0.733   1.524   0.689
  204SOL     OW 1363   1.424   0.214   1.112
  204SOL    HW1 1364   1.476   0.149   1.167
  204SOL    HW2 1365   1.375   0.277   1.173
  205SOL     OW 1366   1.001   0.034   1.154
  205SOL    HW1 1367   0.938  -0.038   1.123
  205SOL    HW2 1368   1.094  -0.002   1.154
  206SOL     OW 1369   0.770   1.330   0.301
  206SOL    HW1 1370   0.724   1.243   0.318
  206SOL    HW2 1371   0.861   1.327   0.342
  207SOL     OW 1372   0.618   1.567   1.284
  207SOL    HW1 1373   0.613   1.649   1.341
  207SOL    HW2 1374   0.707   1.564   1.239
  208SOL     OW 1375   1.352   0.052   0.168
  208SOL    HW1 1376   1.387   0.011   0.084
  208SOL    HW2 1377   1.262   0.014   0.188
  209SOL     OW 1378   1.300   0.453   0.691
  209SOL    HW1 1379   1.241   0.533   0.695
  209SOL    HW2 1380   1.315   0.418   0.784
  210SOL     OW 1381   1.593   0.221   0.882
  210SOL    HW1 1382   1.509   0.220   0.936
  210SOL    HW2 1383   1.595   0.304   0.826
  211SOL     OW 1384   0.039   1.077   0.300
  211SOL    HW1 1385   0.138   1.066   0.291
  211SOL    HW2 1386  -0.001   0.991   0.332
  212SOL     OW 1387   0.875   1.646   0.337
  212SOL    HW1 1388   0.798   1.611   0.283
  212SOL    HW2 1389   0.843   1.717   0.399
  213SOL     OW 1390   0.230   0.628   1.975
  213SOL    HW1 1391   0.137   0.626   2.012
  213SOL    HW2 1392   0.231   0.589   1.883
  214SOL     OW 1393   0.225   0.275   2.858
  214SOL    HW1 1394   0.260   0.258   2.950
  214SOL    HW2 1395   0.137   0.230   2.846
  215SOL     OW 1396   0.019   0.368   2.509
  215SOL    HW1 1397  -0.063   0.411   2.548
  215SOL    HW2 1398  -0.009   0.295   2.446
  216SOL     OW 1399   0.569   1.275   3.027
  216SOL    HW1 1400   0.476   1.268   2.990
  216SOL    HW2 1401   0.580   1.364   3.071
  217SOL     OW 1402   1.555   1.511   2.565
  217SOL    HW1 1403   1.498   1.495   2.646
  217SOL    HW2 1404   1.496   1.521   2.485
  218SOL     OW 1405   1.135   0.703   2.579
  218SOL    HW1 1406   1.192   0.781   2.554
  218SOL    HW2 1407   1.075   0.729   2.655
  219SOL     OW 1408   1.755   0.607   2.093
  219SOL    HW1 1409   1.743   0.594   1.994
  219SOL    HW2 1410   1.725   0.526   2.142
  220SOL     OW 1411   0.768   1.144   2.885
  220SOL    HW1 1412   0.690   1.161   2.945
  220SOL    HW2 1413   0.802   1.231   2.849
  221SOL     OW 1414   0.850   0.798   3.685
  221SOL    HW1 1415   0.846   0.874   3.750
  221SOL    HW2 1416   0.872   0.834   3.594
  222SOL     OW 1417   0.685   1.012   2.527
  222SOL    HW1 1418   0.754   0.996   2.597
  222SOL    HW2 1419   0.612   1.069   2.565
  223SOL     OW 1420   0.686   1.161   3.665
  223SOL    HW1 1421   0.746   1.240   3.679
  223SOL    HW2 1422   0.600   1.192   3.624
  224SOL     OW 1423   0.335   1.435   2.923
  224SOL    HW1 1424   0.257   1.404   2.870
  224SOL    HW2 1425   0.393   1.493   2.866
  225SOL     OW 1426   1.460   1.505   3.201
  225SOL    HW1 1427   1.484   1.599   3.227
  225SOL    HW2 1428   1.444   1.451   3.283
  226SOL     OW 1429   0.438   0.392   3.361
  226SOL    HW1 1430   0.520   0.336   3.370
  226SOL    HW2 1431   0.357   0.334   3.365
  227SOL     OW 1432   1.603   0.447   2.599
  227SOL    HW1 1433   1.529   0.493   2.549
  227SOL    HW2 1434   1.654   0.515   2.652
  228SOL     OW 1435   0.231   1.713   2.345
  228SOL    HW1 1436   0.265   1.790   2.399
  228SOL    HW2 1437   0.275   1.713   2.255
  229SOL     OW 1438   1.127   1.341   3.552
  229SOL    HW1 1439   1.174   1.341   3.640
  229SOL    HW2 1440   1.079   1.254   3.541
  230SOL     OW 1441   0.230   1.434   2.400
  230SOL    HW1 1442   0.204   1.530   2.400
  230SOL    HW2 1443   0.159   1.380   2.445
  231SOL     OW 1444   0.240   1.091   2.748
  231SOL    HW1 1445   0.254   1.007   2.800
  231SOL    HW2 1446   0.185   1.155   2.803
  232SOL     OW 1447   0.620   1.786   3.301
  232SOL    HW1 1448   0.528   1.769   3.336
  232SOL    HW2 1449   0.648   1.878   3.327
  233SOL     OW 1450   0.606   0.964   1.985
  233SOL    HW1 1451   0.613   1.048   1.931
  233SOL    HW2 1452   0.652   0.977   2.073
  234SOL     OW 1453   1.594   0.114   3.342
  234SOL    HW1 1454   1.576   0.181   3.270
  234SOL    HW2 1455   1.591   0.160   3.431
  235SOL     OW 1456   0.122   0.643   2.425
  235SOL    HW1 1457   0.077   0.555   2.442
  235SOL    HW2 1458   0.121   0.697   2.509
  236SOL     OW 1459   0.027   1.596   1.979
  236SOL    HW1 1460   0.008   1.500   2.000
  236SOL    HW2 1461  -0.006   1.654   2.054
  237SOL     OW 1462   1.689   0.922   2.474
  237SOL    HW1 1463   1.784   0.893   2.482
  237SOL    HW2 1464   1.681   0.987   2.399
  238SOL     OW 1465   1.641   1.108   2.294
  238SOL    HW1 1466   1.727   1.110   2.242
  238SOL    HW2 1467   1.655   1.155   2.382
  239SOL     OW 1468   0.113   0.737   3.459
  239SOL    HW1 1469   0.201   0.724   3.504
  239SOL    HW2 1470   0.100   0.834   3.437
  240SOL     OW 1471   0.613   1.365   2.588
  240SOL    HW1 1472   0.564   1.278   2.597
  240SOL    HW2 1473   0.590   1.408   2.501
  241SOL     OW 1474   1.293   1.228   3.285
  241SOL    HW1 1475   1.330   1.155   3.227
  241SOL    HW2 1476   1.345   1.233   3.370
  242SOL     OW 1477   0.809   0.004   2.364
  242SOL    HW1 1478   0.849   0.095   2.355
  242SOL    HW2 1479   0.709   0.012   2.370
  243SOL     OW 1480   0.197   0.976   3.126
  243SOL    HW1 1481   0.286   0.931   3.112
  243SOL    HW2 1482   0.124   0.911   3.107
  244SOL     OW 1483   1.525   0.999   2.052
  244SOL    HW1 1484   1.462   0.923   2.065
  244SOL    HW2 1485   1.573   1.017   2.138
  245SOL     OW 1486   1.187   1.792   3.478
  245SOL    HW1 1487   1.211   1.852   3.402
  245SOL    HW2 1488   1.194   1.697   3.448
  246SOL     OW 1489   0.317   0.251   3.663
  246SOL    HW1 1490   0.388   0.322   3.669
  246SOL    HW2 1491   0.229   0.290   3.691
  247SOL     OW 1492   1.466   1.417   2.815
  247SOL    HW1 1493   1.407   1.423   2.895
  247SOL    HW2 1494   1.451   1.329   2.769
  248SOL     OW 1495   1.667   1.714   2.434
  248SOL    HW1 1496   1.626   1.691   2.346
  248SOL    HW2 1497   1.649   1.640   2.499
  249SOL     OW 1498   0.598   0.729   2.132
  249SOL    HW1 1499   0.622   0.798   2.064
  249SOL    HW2 1500   0.520   0.762   2.186
  250SOL     OW 1501   1.281   0.345   2.806
  250SOL    HW1 1502   1.195   0.295   2.793
  250SOL    HW2 1503   1.343   0.291   2.862
  251SOL     OW 1504   1.576   1.662   2.169
  251SOL    HW1 1505   1.665   1.708   2.172
  251SOL    HW2 1506   1.555   1.638   2.074
  252SOL     OW 1507   0.807   0.605   3.327
  252SOL    HW1 1508   0.760   0.602   3.416
  252SOL    HW2 1509   0.756   0.550   3.261
  253SOL     OW 1510   1.394   0.469   3.536
  253SOL    HW1 1511   1.374   0.512   3.624
  253SOL    HW2 1512   1.472   0.407   3.545
  254SOL     OW 1513   0.973   0.890   3.434
  254SOL    HW1 1514   1.019   0.806   3.405
  254SOL    HW2 1515   0.917   0.924   3.359
  255SOL     OW 1516   0.991   0.410   3.104
  255SOL    HW1 1517   0.914   0.444   3.158
  255SOL    HW2 1518   0.957   0.359   3.025
  256SOL     OW 1519   1.041   0.701   2.291
  256SOL    HW1 1520   1.067   0.697   2.387
  256SOL    HW2 1521   0.956   0.650   2.277
  257SOL     OW 1522   0.076   0.811   2.651
  257SOL    HW1 1523   0.175   0.799   2.660
  257SOL    HW2 1524   0.052   0.906   2.672
  258SOL     OW 1525   0.130   1.821   3.433
  258SOL    HW1 1526   0.120   1.806   3.532
  258SOL    HW2 1527   0.044   1.857   3.397
  259SOL     OW 1528   0.865   0.348   2.057
  259SOL    HW1 1529   0.924   0.411   2.008
  259SOL    HW2 1530   0.884   0.254   2.028
  260SOL     OW 1531   1.719   0.585   3.693
  260SOL    HW1 1532   1.693   0.674   3.657
  260SOL    HW2 1533   1.717   0.517   3.620
  261SOL     OW 1534   1.362   1.144   2.407
  261SOL    HW1 1535   1.445   1.115   2.359
  261SOL    HW2 1536   1.313   1.211   2.351
  262SOL     OW 1537   0.550   0.196   2.747
  262SOL    HW1 1538   0.545   0.191   2.847
  262SOL    HW2 1539   0.552   0.292   2.718
  263SOL     OW 1540   1.008   1.456   2.339
  263SOL    HW1 1541   0.962   1.528   2.287
  263SOL    HW2 1542   1.004   1.476   2.437
  264SOL     OW 1543   0.351   1.801   2.715
  264SOL    HW1 1544   0.401   1.715   2.721
  264SOL    HW2 1545   0.416   1.878   2.712
  265SOL     OW 1546   1.795   1.066   2.735
  265SOL    HW1 1547   1.733   1.051   2.659
  265SOL    HW2 1548   1.743   1.077   2.820
  266SOL     OW 1549   1.227   1.550   3.368
  266SOL    HW1 1550   1.233   1.473   3.432
  266SOL    HW2 1551   1.175   1.524   3.288
  267SOL     OW 1552   0.321   0.943   2.104
  267SOL    HW1 1553   0.403   0.982   2.062
  267SOL    HW2 1554   0.294   0.861   2.055
  268SOL     OW 1555   1.458   0.735   2.590
  268SOL    HW1 1556   1.453   0.670   2.665
  268SOL    HW2 1557   1.538   0.794   2.603
  269SOL     OW 1558   0.461   1.266   3.589
  269SOL    HW1 1559   0.411   1.267   3.503
  269SOL    HW2 1560   0.398   1.248   3.665
  270SOL     OW 1561   1.111   1.776   2.099
  270SOL    HW1 1562   1.051   1.714   2.149
  270SOL    HW2 1563   1.142   1.732   2.014
  271SOL     OW 1564   0.202   0.285   3.360
  271SOL    HW1 1565   0.122   0.345   3.347
  271SOL    HW2 1566   0.192   0.236   3.446
  272SOL     OW 1567   1.632   1.377   1.943
  272SOL    HW1 1568   1.600   1.471   1.933
  272SOL    HW2 1569   1.556   1.314   1.931
  273SOL     OW 1570   0.464   1.743   2.185
  273SOL    HW1 1571   0.497   1.782   2.271
  273SOL    HW2 1572   0.540   1.736   2.120
  274SOL     OW 1573   1.400   0.107   2.288
  274SOL    HW1 1574   1.376   0.070   2.198
  274SOL    HW2 1575   1.499   0.123   2.292
  275SOL     OW 1576   0.249   1.785   3.103
  275SOL    HW1 1577   0.306   1.720   3.153
  275SOL    HW2 1578   0.233   1.752   3.010
  276SOL     OW 1579   0.940   1.698   2.766
  276SOL    HW1 1580   1.020   1.641   2.787
  276SOL    HW2 1581   0.891   1.658   2.689
  277SOL     OW 1582   0.382   0.700   2.342
  277SOL    HW1 1583   0.427   0.610   2.339
  277SOL    HW2 1584   0.288   0.689   2.375
  278SOL     OW 1585   1.547   0.222   3.591
  278SOL    HW1 1586   1.542   0.259   3.683
  278SOL    HW2 1587   1.475   0.153   3.579
  279SOL     OW 1588   0.614   0.122   1.979
  279SOL    HW1 1589   0.712   0.100   1.986
  279SOL    HW2 1590   0.583   0.105   1.886
  280SOL     OW 1591   0.781   0.264   3.611
  280SOL    HW1 1592   0.848   0.203   3.654
  280SOL    HW2 1593   0.708   0.283   3.676
  281SOL     OW 1594   0.888   1.514   3.057
  281SOL    HW1 1595   0.865   1.489   2.963
  281SOL    HW2 1596   0.949   1.445   3.096
  282SOL     OW 1597   1.351   0.590   3.295
  282SOL    HW1 1598   1.379   0.547   3.380
  282SOL    HW2 1599   1.376   0.686   3.296
  283SOL     OW 1600   0.803   1.402   2.786
  283SOL    HW1 1601   0.893   1.416   2.744
  283SOL    HW2 1602   0.732   1.404   2.715
  284SOL     OW 1603   0.922   0.503   2.761
  284SOL    HW1 1604   0.897   0.494   2.665
  284SOL    HW2 1605   0.970   0.421   2.792
  285SOL     OW 1606   0.539   0.064   2.374
  285SOL    HW1 1607   0.458   0.065   2.432
  285SOL    HW2 1608   0.542   0.147   2.319
  286SOL     OW 1609   1.434   1.188   1.903
  286SOL    HW1 1610   1.466   1.112   1.960
  286SOL    HW2 1611   1.342   1.215   1.933
  287SOL     OW 1612   0.297   0.035   2.033
  287SOL    HW1 1613   0.346   0.119   2.012
  287SOL    HW2 1614   0.359  -0.030   2.078
  288SOL     OW 1615   0.935   0.236   2.342
  288SOL    HW1 1616   0.887   0.277   2.264
  288SOL    HW2 1617   1.034   0.234   2.323
  289SOL     OW 1618   1.076   0.683   3.326
  289SOL    HW1 1619   0.996   0.622   3.329
  289SOL    HW2 1620   1.157   0.630   3.302
  290SOL     OW 1621   1.227   1.570   2.655
  290SOL    HW1 1622   1.248   1.644   2.590
  290SOL    HW2 1623   1.295   1.570   2.728
  291SOL     OW 1624   0.459   1.152   2.603
  291SOL    HW1 1625   0.388   1.125   2.668
  291SOL    HW2 1626   0.433   1.124   2.510
  292SOL     OW 1627   1.271   1.797   2.453
  292SOL    HW1 1628   1.315   1.861   2.389
  292SOL    HW2 1629   1.221   1.849   2.523
  293SOL     OW 1630   1.032   0.549   1.878
  293SOL    HW1 1631   0.991   0.631   1.839
  293SOL    HW2 1632   1.096   0.575   1.951
  294SOL     OW 1633   0.078   0.556   3.248
  294SOL    HW1 1634   0.170   0.555   3.207
  294SOL    HW2 1635   0.072   0.630   3.315
  295SOL     OW 1636   0.561   0.222   3.009
  295SOL    HW1 1637   0.599   0.138   3.046
  295SOL    HW2 1638   0.473   0.241   3.053
  296SOL     OW 1639   0.866   0.454   2.504
  296SOL    HW1 1640   0.834   0.526   2.442
  296SOL    HW2 1641   0.890   0.373   2.451
  297SOL     OW 1642   1.017   0.039   2.615
  297SOL    HW1 1643   0.945   0.044   2.546
  297SOL    HW2 1644   0.993  -0.030   2.684
  298SOL     OW 1645   1.429   1.173   2.729
  298SOL    HW1 1646   1.374   1.089   2.722
  298SOL    HW2 1647   1.455   1.202   2.637
  299SOL     OW 1648   1.466   0.590   2.854
  299SOL    HW1 1649   1.436   0.495   2.861
  299SOL    HW2 1650   1.539   0.606   2.920
  300SOL     OW 1651   1.857   0.833   2.239
  300SOL    HW1 1652   1.899   0.769   2.303
  300SOL    HW2 1653   1.819   0.782   2.161
  301SOL     OW 1654   0.488   1.385   2.036
  301SOL    HW1 1655   0.401   1.370   2.083
  301SOL    HW2 1656   0.471   1.411   1.941
  302SOL     OW 1657   1.664   1.280   2.519
  302SOL    HW1 1658   1.763   1.288   2.533
  302SOL    HW2 1659   1.619   1.364   2.550
  303SOL     OW 1660   1.390   0.575   1.940
  303SOL    HW1 1661   1.336   0.554   2.021
  303SOL    HW2 1662   1.481   0.534   1.949
  304SOL     OW 1663   0.527   0.256   2.190
  304SOL    HW1 1664   0.554   0.197   2.115
  304SOL    HW2 1665   0.527   0.351   2.159
  305SOL     OW 1666   1.754   1.223   3.450
  305SOL    HW1 1667   1.845   1.184   3.437
  305SOL    HW2 1668   1.762   1.319   3.474
  306SOL     OW 1669   1.064   1.347   3.202
  306SOL    HW1 1670   0.984   1.324   3.257
  306SOL    HW2 1671   1.147   1.321   3.251
  307SOL     OW 1672   1.592   1.629   3.487
  307SOL    HW1 1673   1.619   1.663   3.397
  307SOL    HW2 1674   1.671   1.591   3.533
  308SOL     OW 1675   1.111   1.195   2.962
  308SOL    HW1 1676   1.071   1.239   3.043
  308SOL    HW2 1677   1.070   1.232   2.879
  309SOL     OW 1678   1.638   1.099   2.941
  309SOL    HW1 1679   1.643   1.180   3.000
  309SOL    HW2 1680   1.552   1.101   2.890
  310SOL     OW 1681   0.915   0.089   3.264
  310SOL    HW1 1682   0.940   0.069   3.169
  310SOL    HW2 1683   0.987   0.145   3.306
  311SOL     OW 1684   0.980   1.116   3.581
  311SOL    HW1 1685   0.881   1.122   3.591
  311SOL    HW2 1686   1.003   1.036   3.525
  312SOL     OW 1687   0.705   1.050   2.230
  312SOL    HW1 1688   0.691   1.057   2.329
  312SOL    HW2 1689   0.789   0.999   2.212
  313SOL     OW 1690   0.410   0.813   3.113
  313SOL    HW1 1691   0.496   0.825   3.163
  313SOL    HW2 1692   0.368   0.726   3.140
  314SOL     OW 1693   1.274   0.386   3.124
  314SOL    HW1 1694   1.295   0.460   3.188
  314SOL    HW2 1695   1.185   0.403   3.081
  315SOL     OW 1696   0.064   1.564   3.193
  315SOL    HW1 1697   0.018   1.646   3.159
  315SOL    HW2 1698   0.162   1.583   3.202
  316SOL     OW 1699   0.367   1.100   2.363
  316SOL    HW1 1700   0.360   1.183   2.307
  316SOL    HW2 1701   0.371   1.020   2.303
  317SOL     OW 1702   0.566   0.537   2.727
  317SOL    HW1 1703   0.578   0.603   2.653
  317SOL    HW2 1704   0.612   0.571   2.810
  318SOL     OW 1705   1.252   1.348   2.250
  318SOL    HW1 1706   1.302   1.425   2.290
  318SOL    HW2 1707   1.157   1.350   2.282
  319SOL     OW 1708   1.272   1.445   3.004
  319SOL    HW1 1709   1.319   1.458   3.091
  319SOL    HW2 1710   1.206   1.371   3.013
  320SOL     OW 1711   1.582   0.639   2.334
  320SOL    HW1 1712   1.551   0.700   2.407
  320SOL    HW2 1713   1.632   0.691   2.265
  321SOL     OW 1714   0.354   1.510   3.191
  321SOL    HW1 1715   0.333   1.466   3.104
  321SOL    HW2 1716   0.451   1.536   3.194
  322SOL     OW 1717   0.402   0.751   3.460
  322SOL    HW1 1718   0.470   0.806   3.413
  322SOL    HW2 1719   0.442   0.663   3.487
  323SOL     OW 1720   1.587   0.779   3.532
  323SOL    HW1 1721   1.495   0.817   3.527
  323SOL    HW2 1722   1.647   0.826   3.467
  324SOL     OW 1723   1.013   0.105   3.632
  324SOL    HW1 1724   1.019   0.190   3.580
  324SOL    HW2 1725   1.045   0.029   3.575
  325SOL     OW 1726   0.504   0.050   3.602
  325SOL    HW1 1727   0.462  -0.007   3.532
  325SOL    HW2 1728   0.438   0.119   3.634
  326SOL     OW 1729   0.573   0.870   2.891
  326SOL    HW1 1730   0.617   0.959   2.882
  326SOL    HW2 1731   0.510   0.870   2.968
  327SOL     OW 1732   1.360   0.862   2.907
  327SOL    HW1 1733   1.285   0.862   2.841
  327SOL    HW2 1734   1.397   0.770   2.916
  328SOL     OW 1735   1.209   0.525   2.137
  328SOL    HW1 1736   1.222   0.441   2.191
  328SOL    HW2 1737   1.180   0.599   2.197
  329SOL     OW 1738   0.307   0.213   3.093
  329SOL    HW1 1739   0.284   0.250   3.183
  329SOL    HW2 1740   0.277   0.118   3.087
  330SOL     OW 1741   0.037   1.310   3.144
  330SOL    HW1 1742   0.090   1.261   3.212
  330SOL    HW2 1743   0.059   1.408   3.149
  331SOL     OW 1744   0.732   0.634   2.926
  331SOL    HW1 1745   0.791   0.608   2.850
  331SOL    HW2 1746   0.704   0.730   2.915
  332SOL     OW 1747   1.728   0.935   3.716
  332SOL    HW1 1748   1.682   0.928   3.627
  332SOL    HW2 1749   1.666   0.979   3.782
  333SOL     OW 1750   0.307   0.063   2.480
  333SOL    HW1 1751   0.296   0.157   2.513
  333SOL    HW2 1752   0.302   0.000   2.557
  334SOL     OW 1753   1.622   0.367   2.236
  334SOL    HW1 1754   1.624   0.291   2.300
  334SOL    HW2 1755   1.574   0.444   2.276
  335SOL     OW 1756   1.023   0.766   2.828
  335SOL    HW1 1757   1.038   0.787   2.924
  335SOL    HW2 1758   0.993   0.671   2.819
  336SOL     OW 1759   0.980   1.573   3.562
  336SOL    HW1 1760   0.960   1.617   3.474
  336SOL    HW2 1761   1.019   1.482   3.546
  337SOL     OW 1762   1.859   1.518   3.467
  337SOL    HW1 1763   1.873   1.545   3.372
  337SOL    HW2 1764   1.942   1.540   3.520
  338SOL     OW 1765   0.350   0.898   3.666
  338SOL    HW1 1766   0.426   0.942   3.714
  338SOL    HW2 1767   0.385   0.851   3.584
  339SOL     OW 1768   1.540   0.274   1.987
  339SOL    HW1 1769   1.479   0.199   2.010
  339SOL    HW2 1770   1.562   0.326   2.070
  340SOL     OW 1771   1.303   0.838   1.904
  340SOL    HW1 1772   1.337   0.745   1.919
  340SOL    HW2 1773   1.321   0.865   1.809
  341SOL     OW 1774   1.068   1.333   2.711
  341SOL    HW1 1775   1.075   1.249   2.656
  341SOL    HW2 1776   1.130   1.402   2.675
  342SOL     OW 1777   0.319   0.810   2.811
  342SOL    HW1 1778   0.412   0.846   2.816
  342SOL    HW2 1779   0.313   0.725   2.863
  343SOL     OW 1780   0.339   0.509   2.868
  343SOL    HW1 1781   0.287   0.426   2.851
  343SOL    HW2 1782   0.416   0.514   2.804
  344SOL     OW 1783   1.138   0.380   3.540
  344SOL    HW1 1784   1.093   0.443   3.604
  344SOL    HW2 1785   1.231   0.411   3.523
  345SOL     OW 1786   1.160   0.207   3.339
  345SOL    HW1 1787   1.160   0.271   3.416
  345SOL    HW2 1788   1.188   0.255   3.256
  346SOL     OW 1789   0.008   1.326   2.062
  346SOL    HW1 1790  -0.085   1.347   2.031
  346SOL    HW2 1791   0.018   1.227   2.075
  347SOL     OW 1792   0.088   1.801   2.789
  347SOL    HW1 1793   0.046   1.715   2.762
  347SOL    HW2 1794   0.182   1.804   2.755
  348SOL     OW 1795   0.504   1.568   2.772
  348SOL    HW1 1796   0.570   1.642   2.781
  348SOL    HW2 1797   0.548   1.489   2.730
  349SOL     OW 1798   1.002   0.796   3.100
  349SOL    HW1 1799   1.043   0.764   3.186
  349SOL    HW2 1800   0.906   0.769   3.097
  350SOL     OW 1801   0.040   0.544   2.976
  350SOL    HW1 1802   0.125   0.511   2.935
  350SOL    HW2 1803   0.053   0.559   3.074
  351SOL     OW 1804   0.189   0.520   3.584
  351SOL    HW1 1805   0.248   0.480   3.514
  351SOL    HW2 1806   0.131   0.591   3.543
  352SOL     OW 1807   1.369   0.950   3.522
  352SOL    HW1 1808   1.408   1.039   3.542
  352SOL    HW2 1809   1.379   0.930   3.425
  353SOL     OW 1810   0.815   0.572   2.187
  353SOL    HW1 1811   0.822   0.483   2.141
  353SOL    HW2 1812   0.721   0.606   2.179
  354SOL     OW 1813   1.657   0.604   3.068
  354SOL    HW1 1814   1.619   0.535   3.130
  354SOL    HW2 1815   1.739   0.568   3.024
  355SOL     OW 1816   0.252   1.564   3.606
  355SOL    HW1 1817   0.222   1.621   3.682
  355SOL    HW2 1818   0.245   1.467   3.632
  356SOL     OW 1819   0.671   0.464   3.131
  356SOL    HW1 1820   0.637   0.375   3.101
  356SOL    HW2 1821   0.697   0.518   3.051
  357SOL     OW 1822   0.930   1.678   3.327
  357SOL    HW1 1823   0.906   1.660   3.232
  357SOL    HW2 1824   0.960   1.772   3.337
  358SOL     OW 1825   0.473   0.500   2.053
  358SOL    HW1 1826   0.534   0.580   2.057
  358SOL    HW2 1827   0.378   0.531   2.060
  359SOL     OW 1828   0.159   1.137   3.328
  359SOL    HW1 1829   0.181   1.076   3.404
  359SOL    HW2 1830   0.169   1.088   3.242
  360SOL     OW 1831   1.347   1.059   3.096
  360SOL    HW1 1832   1.371   0.996   3.022
  360SOL    HW2 1833   1.257   1.099   3.078
  361SOL     OW 1834   1.302   0.855   2.171
  361SOL    HW1 1835   1.216   0.824   2.213
  361SOL    HW2 1836   1.298   0.841   2.072
  362SOL     OW 1837   1.252   1.731   2.990
  362SOL    HW1 1838   1.336   1.736   2.936
  362SOL    HW2 1839   1.229   1.635   3.008
  363SOL     OW 1840   0.083   1.258   2.884
  363SOL    HW1 1841   0.078   1.257   2.984
  363SOL    HW2 1842   0.000   1.217   2.846
  364SOL     OW 1843   0.688   1.662   3.578
  364SOL    HW1 1844   0.632   1.743   3.587
  364SOL    HW2 1845   0.740   1.666   3.492
  365SOL     OW 1846   1.726   0.135   2.385
  365SOL    HW1 1847   1.799   0.118   2.318
  365SOL    HW2 1848   1.695   0.048   2.423
  366SOL     OW 1849   1.388   1.573   2.339
  366SOL    HW1 1850   1.455   1.585   2.265
  366SOL    HW2 1851   1.348   1.662   2.362
  367SOL     OW 1852   0.130   1.794   3.713
  367SOL    HW1 1853   0.089   1.720   3.766
  367SOL    HW2 1854   0.194   1.845   3.771
  368SOL     OW 1855   1.280   0.927   2.534
  368SOL    HW1 1856   1.340   0.846   2.536
  368SOL    HW2 1857   1.320   0.996   2.474
  369SOL     OW 1858   0.830   1.273   3.284
  369SOL    HW1 1859   0.825   1.306   3.379
  369SOL    HW2 1860   0.744   1.292   3.238
  370SOL     OW 1861   0.672   1.616   2.016
  370SOL    HW1 1862   0.681   1.626   1.917
  370SOL    HW2 1863   0.632   1.527   2.037
  371SOL     OW 1864   1.650   1.720   3.256
  371SOL    HW1 1865   1.703   1.730   3.172
  371SOL    HW2 1866   1.623   1.810   3.290
  372SOL     OW 1867   1.841   0.175   2.825
  372SOL    HW1 1868   1.880   0.090   2.789
  372SOL    HW2 1869   1.743   0.177   2.806
  373SOL     OW 1870   0.263   0.326   2.582
  373SOL    HW1 1871   0.184   0.377   2.548
  373SOL    HW2 1872   0.254   0.311   2.680
  374SOL     OW 1873   1.194   1.612   1.893
  374SOL    HW1 1874   1.200   1.519   1.930
  374SOL    HW2 1875   1.135   1.612   1.813
  375SOL     OW 1876   0.822   1.002   3.234
  375SOL    HW1 1877   0.862   1.001   3.142
  375SOL    HW2 1878   0.832   1.094   3.274
  376SOL     OW 1879   0.916   0.910   2.153
  376SOL    HW1 1880   0.979   0.948   2.085
  376SOL    HW2 1881   0.956   0.827   2.192
  377SOL     OW 1882   1.504   1.607   1.906
  377SOL    HW1 1883   1.412   1.644   1.913
  377SOL    HW2 1884   1.542   1.627   1.816
  378SOL     OW 1885   0.372   1.288   3.352
  378SOL    HW1 1886   0.359   1.381   3.318
  378SOL    HW2 1887   0.288   1.236   3.339
  379SOL     OW 1888   1.614   1.292   3.151
  379SOL    HW1 1889   1.674   1.295   3.231
  379SOL    HW2 1890   1.539   1.356   3.164
  380SOL     OW 1891   1.039   1.098   2.558
  380SOL    HW1 1892   0.969   1.051   2.612
  380SOL    HW2 1893   1.098   1.030   2.515
  381SOL     OW 1894   1.014   0.236   2.833
  381SOL    HW1 1895   1.006   0.200   2.740
  381SOL    HW2 1896   1.012   0.160   2.898
  382SOL     OW 1897   0.590   1.487   2.353
  382SOL    HW1 1898   0.632   1.429   2.283
  382SOL    HW2 1899   0.546   1.566   2.309
  383SOL     OW 1900   1.709   0.385   3.243
  383SOL    HW1 1901   1.782   0.454   3.247
  383SOL    HW2 1902   1.737   0.310   3.184
  384SOL     OW 1903   0.255   1.348   2.152
  384SOL    HW1 1904   0.159   1.349   2.125
  384SOL    HW2 1905   0.267   1.401   2.236
  385SOL     OW 1906   0.105   1.013   3.588
  385SOL    HW1 1907   0.028   0.980   3.642
  385SOL    HW2 1908   0.190   0.983   3.630
  386SOL     OW 1909   0.672   0.203   3.351
  386SOL    HW1 1910   0.762   0.187   3.311
  386SOL    HW2 1911   0.680   0.208   3.450
  387SOL     OW 1912   0.075   0.345   1.895
  387SOL    HW1 1913  -0.017   0.317   1.866
  387SOL    HW2 1914   0.106   0.422   1.839
  388SOL     OW 1915   1.440   0.856   3.260
  388SOL    HW1 1916   1.383   0.908   3.197
  388SOL    HW2 1917   1.536   0.868   3.236
  389SOL     OW 1918   0.072   0.166   2.180
  389SOL    HW1 1919   0.055   0.249   2.126
  389SOL    HW2 1920   0.162   0.129   2.158
  390SOL     OW 1921   1.183   1.335   1.981
  390SOL    HW1 1922   1.084   1.324   1.983
  390SOL    HW2 1923   1.217   1.350   2.074
  391SOL     OW 1924   0.613   0.842   3.293
  391SOL    HW1 1925   0.669   0.923   3.276
  391SOL    HW2 1926   0.672   0.762   3.296
  392SOL     OW 1927   1.493   1.767   2.821
  392SOL    HW1 1928   1.526   1.831   2.752
  392SOL    HW2 1929   1.559   1.761   2.896
  393SOL     OW 1930   0.716   0.565   3.570
  393SOL    HW1 1931   0.735   0.630   3.644
  393SOL    HW2 1932   0.776   0.485   3.579
  394SOL     OW 1933   1.450   1.220   3.495
  394SOL    HW1 1934   1.441   1.210   3.594
  394SOL    HW2 1935   1.546   1.213   3.469
  395SOL     OW 1936   0.390   1.741   3.422
  395SOL    HW1 1937   0.299   1.782   3.420
  395SOL    HW2 1938   0.383   1.647   3.454
  396SOL     OW 1939   1.674   0.883   3.116
  396SOL    HW1 1940   1.647   0.794   3.079
  396SOL    HW2 1941   1.675   0.951   3.043
  397SOL     OW 1942   1.225   0.325   2.311
  397SOL    HW1 1943   1.290   0.251   2.300
  397SOL    HW2 1944   1.245   0.375   2.395
  398SOL     OW 1945   0.594   0.745   2.514
  398SOL    HW1 1946   0.644   0.830   2.495
  398SOL    HW2 1947   0.506   0.747   2.466
  399SOL     OW 1948   1.777   0.342   3.504
  399SOL    HW1 1949   1.760   0.373   3.410
  399SOL    HW2 1950   1.693   0.305   3.542
  400SOL     OW 1951   1.730   0.934   3.379
  400SOL    HW1 1952   1.768   1.025   3.394
  400SOL    HW2 1953   1.722   0.917   3.280
  401SOL     OW 1954   0.859   1.374   1.878
  401SOL    HW1 1955   0.813   1.389   1.966
  401SOL    HW2 1956   0.903   1.459   1.848
  402SOL     OW 1957   0.661   1.790   2.815
  402SOL    HW1 1958   0.615   1.878   2.802
  402SOL    HW2 1959   0.760   1.802   2.808
  403SOL     OW 1960   0.859   0.956   2.723
  403SOL    HW1 1961   0.913   0.887   2.771
  403SOL    HW2 1962   0.827   1.025   2.789
  404SOL     OW 1963   1.083   0.984   1.949
  404SOL    HW1 1964   1.060   1.037   1.867
  404SOL    HW2 1965   1.164   0.928   1.930
  405SOL     OW 1966   1.861   1.569   2.713
  405SOL    HW1 1967   1.790   1.557   2.643
  405SOL    HW2 1968   1.862   1.490   2.773
  406SOL     OW 1969   0.221   1.314   3.706
  406SOL    HW1 1970   0.156   1.241   3.685
  406SOL    HW2 1971   0.225   1.328   3.804
  407SOL     OW 1972   0.079   1.240   2.515
  407SOL    HW1 1973   0.078   1.193   2.603
  407SOL    HW2 1974   0.161   1.212   2.464
  408SOL     OW 1975   0.672   1.391   3.486
  408SOL    HW1 1976   0.594   1.341   3.524
  408SOL    HW2 1977   0.669   1.486   3.517
  409SOL     OW 1978   1.824   0.192   3.089
  409SOL    HW1 1979   1.820   0.102   3.133
  409SOL    HW2 1980   1.827   0.181   2.990
  410SOL     OW 1981   0.428   0.424   2.382
  410SOL    HW1 1982   0.458   0.352   2.320
  410SOL    HW2 1983   0.389   0.384   2.465
  411SOL     OW 1984   1.705   1.487   2.966
  411SOL    HW1 1985   1.612   1.462   2.939
  411SOL    HW2 1986   1.731   1.437   3.048
  412SOL     OW 1987   0.317   0.547   3.142
  412SOL    HW1 1988   0.355   0.488   3.214
  412SOL    HW2 1989   0.357   0.521   3.054
  413SOL     OW 1990   0.812   1.586   2.549
  413SOL    HW1 1991   0.844   1.596   2.455
  413SOL    HW2 1992   0.733   1.524   2.551
  414SOL     OW 1993   1.424   0.214   2.974
  414SOL    HW1 1994   1.476   0.149   3.029
  414SOL    HW2 1995   1.375   0.277   3.035
  415SOL     OW 1996   1.001   0.034   3.016
  415SOL    HW1 1997   0.938  -0.038   2.985
  415SOL    HW2 1998   1.094  -0.002   3.016
  416SOL     OW 1999   0.770   1.330   2.163
  416SOL    HW1 2000   0.724   1.243   2.180
  416SOL    HW2 2001   0.861   1.327   2.204
  417SOL     OW 2002   0.618   1.567   3.146
  417SOL    HW1 2003   0.613   1.649   3.203
  417SOL    HW2 2004   0.707   1.564   3.101
  418SOL     OW 2005   1.352   0.052   2.030
  418SOL    HW1 2006   1.387   0.011   1.946
  418SOL    HW2 2007   1.262   0.014   2.050
  419SOL     OW 2008   1.300   0.453   2.553
  419SOL    HW1 2009   1.241   0.533   2.557
  419SOL    HW2 2010   1.315   0.418   2.646
  420SOL     OW 2011   1.593   0.221   2.744
  420SOL    HW1 2012   1.509   0.220   2.798
  420SOL    HW2 2013   1.595   0.304   2.688
  421SOL     OW 2014   0.039   1.077   2.162
  421SOL    HW1 2015   0.138   1.066   2.153
  421SOL    HW2 2016  -0.001   0.991   2.194
  422SOL     OW 2017   0.875   1.646   2.199
  422SOL    HW1 2018   0.798   1.611   2.145
  422SOL    HW2 2019   0.843   1.717   2.261
  423SOL     OW 2020   0.230   0.628   3.837
  423SOL    HW1 2021   0.137   0.626   3.874
  423SOL    HW2 2022   0.231   0.589   3.745
  424SOL     OW 2023   0.225   0.275   4.720
  424SOL    HW1 2024   0.260   0.258   4.812
  424SOL    HW2 2025   0.137   0.230   4.708
  425SOL     OW 2026   0.019   0.368   4.371
  425SOL    HW1 2027  -0.063   0.411   4.410
  425SOL    HW2 2028  -0.009   0.295   4.308
  426SOL     OW 2029   0.569   1.275   4.889
  426SOL    HW1 2030   0.476   1.268   4.852
  426SOL    HW2 2031   0.580   1.364   4.933
  427SOL     OW 2032   1.555   1.511   4.427
  427SOL    HW1 2033   1.498   1.495   4.508
  427SOL    HW2 2034   1.496   1.521   4.347
  428SOL     OW 2035   1.135   0.703   4.441
  428SOL    HW1 2036   1.192   0.781   4.416
  428SOL    HW2 2037   1.075   0.729   4.517
  429SOL     OW 2038   1.755   0.607   3.955
  429SOL    HW1 2039   1.743   0.594   3.856
  429SOL    HW2 2040   1.725   0.526   4.004
  430SOL     OW 2041   0.768   1.144   4.747
  430SOL    HW1 2042   0.690   1.161   4.807
  430SOL    HW2 2043   0.802   1.231   4.711
  431SOL     OW 2044   0.850   0.798   5.547
  431SOL    HW1 2045   0.846   0.874   5.612
  431SOL    HW2 2046   0.872   0.834   5.456
  432SOL     OW 2047   0.685   1.012   4.389
  432SOL    HW1 2048   0.754   0.996   4.459
  432SOL    HW2 2049   0.612   1.069   4.427
  433SOL     OW 2050   0.686   1.161   5.527
  433SOL    HW1 2051   0.746   1.240   5.541
  433SOL    HW2 2052   0.600   1.192   5.486
  434SOL     OW 2053   0.335   1.435   4.785
  434SOL    HW1 2054   0.257   1.404   4.732
  434SOL    HW2 2055   0.393   1.493   4.728
  435SOL     OW 2056   1.460   1.505   5.063
  435SOL    HW1 2057   1.484   1.599   5.089
  435SOL    HW2 2058   1.444   1.451   5.145
  436SOL     OW 2059   0.438   0.392   5.223
  436SOL    HW1 2060   0.520   0.336   5.232
  436SOL    HW2 2061   0.357   0.334   5.227
  437SOL     OW 2062   1.603   0.447   4.461
  437SOL    HW1 2063   1.529   0.493   4.411
  437SOL    HW2 2064   1.654   0.515   4.514
  438SOL     OW 2065   0.231   1.713   4.207
  438SOL    HW1 2066   0.265   1.790   4.261
  438SOL    HW2 2067   0.275   1.713   4.117
  439SOL     OW 2068   1.127   1.341   5.414
  439SOL    HW1 2069   1.174   1.341   5.502
  439SOL    HW2 2070   1.079   1.254   5.403
  440SOL     OW 2071   0.230   1.434   4.262
  440SOL    HW1 2072   0.204   1.530   4.262
  440SOL    HW2 2073   0.159   1.380   4.307
  441SOL     OW 2074   0.240   1.091   4.610
  441SOL    HW1 2075   0.254   1.007   4.662
  441SOL    HW2 2076   0.185   1.155   4.665
  442SOL     OW 2077   0.620   1.786   5.163
  442SOL    HW1 2078   0.528   1.769   5.198
  442SOL    HW2 2079   0.648   1.878   5.189
  443SOL     OW 2080   0.606   0.964   3.847
  443SOL    HW1 2081   0.613   1.048   3.793
  443SOL    HW2 2082   0.652   0.977   3.935
  444SOL     OW 2083   1.594   0.114   5.204
  444SOL    HW1 2084   1.576   0.181   5.132
  444SOL    HW2 2085   1.591   0.160   5.293
  445SOL     OW 2086   0.122   0.643   4.287
  445SOL    HW1 2087   0.077   0.555   4.304
  445SOL    HW2 2088   0.121   0.697   4.371
  446SOL     OW 2089   0.027   1.596   3.841
  446SOL    HW1 2090   0.008   1.500   3.862
  446SOL    HW2 2091  -0.006   1.654   3.916
  447SOL     OW 2092   1.689   0.922   4.336
  447SOL    HW1 2093   1.784   0.893   4.344
  447SOL    HW2 2094   1.681   0.987   4.261
  448SOL     OW 2095   1.641   1.108   4.156
  448SOL    HW1 2096   1.727   1.110   4.104
  448SOL    HW2 2097   1.655   1.155   4.244
  449SOL     OW 2098   0.113   0.737   5.321
  449SOL    HW1 2099   0.201   0.724   5.366
  449SOL    HW2 2100   0.100   0.834   5.299
  450SOL     OW 2101   0.613   1.365   4.450
  450SOL    HW1 2102   0.564   1.278   4.459
  450SOL    HW2 2103   0.590   1.408   4.363
  451SOL     OW 2104   1.293   1.228   5.147
  451SOL    HW1 2105   1.330   1.155   5.089
  451SOL    HW2 2106   1.345   1.233   5.232
  452SOL     OW 2107   0.809   0.004   4.226
  452SOL    HW1 2108   0.849   0.095   4.217
  452SOL    HW2 2109   0.709   0.012   4.232
  453SOL     OW 2110   0.197   0.976   4.988
  453SOL    HW1 2111   0.286   0.931   4.974
  453SOL    HW2 2112   0.124   0.911   4.969
  454SOL     OW 2113   1.525   0.999   3.914
  454SOL    HW1 2114   1.462   0.923   3.927
  454SOL    HW2 2115   1.573   1.017   4.000
  455SOL     OW 2116   1.187   1.792   5.340
  455SOL    HW1 2117   1.211   1.852   5.264
  455SOL    HW2 2118   1.194   1.697   5.310
  456SOL     OW 2119   0.317   0.251   5.525
  456SOL    HW1 2120   0.388   0.322   5.531
  456SOL    HW2 2121   0.229   0.290   5.553
  457SOL     OW 2122   1.466   1.417   4.677
  457SOL    HW1 2123   1.407   1.423   4.757
  457SOL    HW2 2124   1.451   1.329   4.631
  458SOL     OW 2125   1.667   1.714   4.296
  458SOL    HW1 2126   1.626   1.691   4.208
  458SOL    HW2 2127   1.649   1.640   4.361
  459SOL     OW 2128   0.598   0.729   3.994
  459SOL    HW1 2129   0.622   0.798   3.926
  459SOL    HW2 2130   0.520   0.762   4.048
  460SOL     OW 2131   1.281   0.345   4.668
  460SOL    HW1 2132   1.195   0.295   4.655
  460SOL    HW2 2133   1.343   0.291   4.724
  461SOL     OW 2134   1.576   1.662   4.031
  461SOL    HW1 2135   1.665   1.708   4.034
  461SOL    HW2 2136   1.555   1.638   3.936
  462SOL     OW 2137   0.807   0.605   5.189
  462SOL    HW1 2138   0.760   0.602   5.278
  462SOL    HW2 2139   0.756   0.550   5.123
  463SOL     OW 2140   1.394   0.469   5.398
  463SOL    HW1 2141   1.374   0.512   5.486
  463SOL    HW2 2142   1.472   0.407   5.407
  464SOL     OW 2143   0.973   0.890   5.296
  464SOL    HW1 2144   1.019   0.806   5.267
  464SOL    HW2 2145   0.917   0.924   5.221
  465SOL     OW 2146   0.991   0.410   4.966
  465SOL    HW1 2147   0.914   0.444   5.020
  465SOL    HW2 2148   0.957   0.359   4.887
  466SOL     OW 2149   1.041   0.701   4.153
  466SOL    HW1 2150   1.067   0.697   4.249
  466SOL    HW2 2151   0.956   0.650   4.139
  467SOL     OW 2152   0.076   0.811   4.513
  467SOL    HW1 2153   0.175   0.799   4.522
  467SOL    HW2 2154   0.052   0.906   4.534
  468SOL     OW 2155   0.130   1.821   5.295
  468SOL    HW1 2156   0.120   1.806   5.394
  468SOL    HW2 2157   0.044   1.857   5.259
  469SOL     OW 2158   0.865   0.348   3.919
  469SOL    HW1 2159   0.924   0.411   3.870
  469SOL    HW2 2160   0.884   0.254   3.890
  470SOL     OW 2161   1.719   0.585   5.555
  470SOL    HW1 2162   1.693   0.674   5.519
  470SOL    HW2 2163   1.717   0.517   5.482
  471SOL     OW 2164   1.362   1.144   4.269
  471SOL    HW1 2165   1.445   1.115   4.221
  471SOL    HW2 2166   1.313   1.211   4.213
  472SOL     OW 2167   0.550   0.196   4.609
  472SOL    HW1 2168   0.545   0.191   4.709
  472SOL    HW2 2169   0.552   0.292   4.580
  473SOL     OW 2170   1.008   1.456   4.201
  473SOL    HW1 2171   0.962   1.528   4.149
  473SOL    HW2 2172   1.004   1.476   4.299
  474SOL     OW 2173   0.351   1.801   4.577
  474SOL    HW1 2174   0.401   1.715   4.583
  474SOL    HW2 2175   0.416   1.878   4.574
  475SOL     OW 2176   1.795   1.066   4.597
  475SOL    HW1 2177   1.733   1.051   4.521
  475SOL    HW2 2178   1.743   1.077   4.682
  476SOL     OW 2179   1.227   1.550   5.230
  476SOL    HW1 2180   1.233   1.473   5.294
  476SOL    HW2 2181   1.175   1.524   5.150
  477SOL     OW 2182   0.321   0.943   3.966
  477SOL    HW1 2183   0.403   0.982   3.924
  477SOL    HW2 2184   0.294   0.861   3.917
  478SOL     OW 2185   1.458   0.735   4.452
  478SOL    HW1 2186   1.453   0.670   4.527
  478SOL    HW2 2187   1.538   0.794   4.465
  479SOL     OW 2188   0.461   1.266   5.451
  479SOL    HW1 2189   0.411   1.267   5.365
  479SOL    HW2 2190   0.398   1.248   5.527
  480SOL     OW 2191   1.111   1.776   3.961
  480SOL    HW1 2192   1.051   1.714   4.011
  480SOL    HW2 2193   1.142   1.732   3.876
  481SOL     OW 2194   0.202   0.285   5.222
  481SOL    HW1 2195   0.122   0.345   5.209
  481SOL    HW2 2196   0.192   0.236   5.308
  482SOL     OW 2197   1.632   1.377   3.805
  482SOL    HW1 2198   1.600   1.471   3.795
  482SOL    HW2 2199   1.556   1.314   3.793
  483SOL     OW 2200   0.464   1.743   4.047
  483SOL    HW1 2201   0.497   1.782   4.133
  483SOL    HW2 2202   0.540   1.736   3.982
  484SOL     OW 2203   1.400   0.107   4.150
  484SOL    HW1 2204   1.376   0.070   4.060
  484SOL    HW2 2205   1.499   0.123   4.154
  485SOL     OW 2206   0.249   1.785   4.965
  485SOL    HW1 2207   0.306   1.720   5.015
  485SOL    HW2 2208   0.233   1.752   4.872
  486SOL     OW 2209   0.940   1.698   4.628
  486SOL    HW1 2210   1.020   1.641   4.649
  486SOL    HW2 2211   0.891   1.658   4.551
  487SOL     OW 2212   0.382   0.700   4.204
  487SOL    HW1 2213   0.427   0.610   4.201
  487SOL    HW2 2214   0.288   0.689   4.237
  488SOL     OW 2215   1.547   0.222   5.453
  488SOL    HW1 2216   1.542   0.259   5.545
  488SOL    HW2 2217   1.475   0.153   5.441
  489SOL     OW 2218   0.614   0.122   3.841
  489SOL    HW1 2219   0.712   0.100   3.848
  489SOL    HW2 2220   0.583   0.105   3.748
  490SOL     OW 2221   0.781   0.264   5.473
  490SOL    HW1 2222   0.848   0.203   5.516
  490SOL    HW2 2223   0.708   0.283   5.538
  491SOL     OW 2224   0.888   1.514   4.919
  491SOL    HW1 2225   0.865   1.489   4.825
  491SOL    HW2 2226   0.949   1.445   4.958
  492SOL     OW 2227   1.351   0.590   5.157
  492SOL    HW1 2228   1.379   0.547   5.242
  492SOL    HW2 2229   1.376   0.686   5.158
  493SOL     OW 2230   0.803   1.402   4.648
  493SOL    HW1 2231   0.893   1.416   4.606
  493SOL    HW2 2232   0.732   1.404   4.577
  494SOL     OW 2233   0.922   0.503   4.623
  494SOL    HW1 2234   0.897   0.494   4.527
  494SOL    HW2 2235   0.970   0.421   4.654
  495SOL     OW 2236   0.539   0.064   4.236
  495SOL    HW1 2237   0.458   0.065   4.294
  495SOL    HW2 2238   0.542   0.147   4.181
  496SOL     OW 2239   1.434   1.188   3.765
  496SOL    HW1 2240   1.466   1.112   3.822
  496SOL    HW2 2241   1.342   1.215   3.795
  497SOL     OW 2242   0.297   0.035   3.895
  497SOL    HW1 2243   0.346   0.119   3.874
  497SOL    HW2 2244   0.359  -0.030   3.940
  498SOL     OW 2245   0.935   0.236   4.204
  498SOL    HW1 2246   0.887   0.277   4.126
  498SOL    HW2 2247   1.034   0.234   4.185
  499SOL     OW 2248   1.076   0.683   5.188
  499SOL    HW1 2249   0.996   0.622   5.191
  499SOL    HW2 2250   1.157   0.630   5.164
  500SOL     OW 2251   1.227   1.570   4.517
  500SOL    HW1 2252   1.248   1.644   4.452
  500SOL    HW2 2253   1.295   1.570   4.590
  501SOL     OW 2254   0.459   1.152   4.465
  501SOL    HW1 2255   0.388   1.125   4.530
  501SOL    HW2 2256   0.433   1.124   4.372
  502SOL     OW 2257   1.271   1.797   4.315
  502SOL    HW1 2258   1.315   1.861   4.251
  502SOL    HW2 2259   1.221   1.849   4.385
  503SOL     OW 2260   1.032   0.549   3.740
  503SOL    HW1 2261   0.991   0.631   3.701
  503SOL    HW2 2262   1.096   0.575   3.813
  504SOL     OW 2263   0.078   0.556   5.110
  504SOL    HW1 2264   0.170   0.555   5.069
  504SOL    HW2 2265   0.072   0.630   5.177
  505SOL     OW 2266   0.561   0.222   4.871
  505SOL    HW1 2267   0.599   0.138   4.908
  505SOL    HW2 2268   0.473   0.241   4.915
  506SOL     OW 2269   0.866   0.454   4.366
  506SOL    HW1 2270   0.834   0.526   4.304
  506SOL    HW2 2271   0.890   0.373   4.313
  507SOL     OW 2272   1.017   0.039   4.477
  507SOL    HW1 2273   0.945   0.044   4.408
  507SOL    HW2 2274   0.993  -0.030   4.546
  508SOL     OW 2275   1.429   1.173   4.591
  508SOL    HW1 2276   1.374   1.089   4.584
  508SOL    HW2 2277   1.455   1.202   4.499
  509SOL     OW 2278   1.466   0.590   4.716
  509SOL    HW1 2279   1.436   0.495   4.723
  509SOL    HW2 2280   1.539   0.606   4.782
  510SOL     OW 2281   1.857   0.833   4.101
  510SOL    HW1 2282   1.899   0.769   4.165
  510SOL    HW2 2283   1.819   0.782   4.023
  511SOL     OW 2284   0.488   1.385   3.898
  511SOL    HW1 2285   0.401   1.370   3.945
  511SOL    HW2 2286   0.471   1.411   3.803
  512SOL     OW 2287   1.664   1.280   4.381
  512SOL    HW1 2288   1.763   1.288   4.395
  512SOL    HW2 2289   1.619   1.364   4.412
  513SOL     OW 2290   1.390   0.575   3.802
  513SOL    HW1 2291   1.336   0.554   3.883
  513SOL    HW2 2292   1.481   0.534   3.811
  514SOL     OW 2293   0.527   0.256   4.052
  514SOL    HW1 2294   0.554   0.197   3.977
  514SOL    HW2 2295   0.527   0.351   4.021
  515SOL     OW 2296   1.754   1.223   5.312
  515SOL    HW1 2297   1.845   1.184   5.299
  515SOL    HW2 2298   1.762   1.319   5.336
  516SOL     OW 2299   1.064   1.347   5.064
  516SOL    HW1 2300   0.984   1.324   5.119
  516SOL    HW2 2301   1.147   1.321   5.113
  517SOL     OW 2302   1.592   1.629   5.349
  517SOL    HW1 2303   1.619   1.663   5.259
  517SOL    HW2 2304   1.671   1.591   5.395
  518SOL     OW 2305   1.111   1.195   4.824
  518SOL    HW1 2306   1.071   1.239   4.905
  518SOL    HW2 2307   1.070   1.232   4.741
  519SOL     OW 2308   1.638   1.099   4.803
  519SOL    HW1 2309   1.643   1.180   4.862
  519SOL    HW2 2310   1.552   1.101   4.752
  520SOL     OW 2311   0.915   0.089   5.126
  520SOL    HW1 2312   0.940   0.069   5.031
  520SOL    HW2 2313   0.987   0.145   5.168
  521SOL     OW 2314   0.980   1.116   5.443
  521SOL    HW1 2315   0.881   1.122   5.453
  521SOL    HW2 2316   1.003   1.036   5.387
  522SOL     OW 2317   0.705   1.050   4.092
  522SOL    HW1 2318   0.691   1.057   4.191
  522SOL    HW2 2319   0.789   0.999   4.074
  523SOL     OW 2320   0.410   0.813   4.975
  523SOL    HW1 2321   0.496   0.825   5.025
  523SOL    HW2 2322   0.368   0.726   5.002
  524SOL     OW 2323   1.274   0.386   4.986
  524SOL    HW1 2324   1.295   0.460   5.050
  524SOL    HW2 2325   1.185   0.403   4.943
  525SOL     OW 2326   0.064   1.564   5.055
  525SOL    HW1 2327   0.018   1.646   5.021
  525SOL    HW2 2328   0.162   1.583   5.064
  526SOL     OW 2329   0.367   1.100   4.225
  526SOL    HW1 2330   0.360   1.183   4.169
  526SOL    HW2 2331   0.371   1.020   4.165
  527SOL     OW 2332   0.566   0.537   4.589
  527SOL    HW1 2333   0.578   0.603   4.515
  527SOL    HW2 2334   0.612   0.571   4.672
  528SOL     OW 2335   1.252   1.348   4.112
  528SOL    HW1 2336   1.302   1.425   4.152
  528SOL    HW2 2337   1.157   1.350   4.144
  529SOL     OW 2338   1.272   1.445   4.866
  529SOL    HW1 2339   1.319   1.458   4.953
  529SOL    HW2 2340   1.206   1.371   4.875
  530SOL     OW 2341   1.582   0.639   4.196
  530SOL    HW1 2342   1.551   0.700   4.269
  530SOL    HW2 2343   1.632   0.691   4.127
  531SOL     OW 2344   0.354   1.510   5.053
  531SOL    HW1 2345   0.333   1.466   4.966
  531SOL    HW2 2346   0.451   1.536   5.056
  532SOL     OW 2347   0.402   0.751   5.322
  532SOL    HW1 2348   0.470   0.806   5.275
  532SOL    HW2 2349   0.442   0.663   5.349
  533SOL     OW 2350   1.587   0.779   5.394
  533SOL    HW1 2351   1.495   0.817   5.389
  533SOL    HW2 2352   1.647   0.826   5.329
  534SOL     OW 2353   1.013   0.105   5.494
  534SOL    HW1 2354   1.019   0.190   5.442
  534SOL    HW2 2355   1.045   0.029   5.437
  535SOL     OW 2356   0.504   0.050   5.464
  535SOL    HW1 2357   0.462  -0.007   5.394
  535SOL    HW2 2358   0.438   0.119   5.496
  536SOL     OW 2359   0.573   0.870   4.753
  536SOL    HW1 2360   0.617   0.959   4.744
  536SOL    HW2 2361   0.510   0.870   4.830
  537SOL     OW 2362   1.360   0.862   4.769
  537SOL    HW1 2363   1.285   0.862   4.703
  537SOL    HW2 2364   1.397   0.770   4.778
  538SOL     OW 2365   1.209   0.525   3.999
  538SOL    HW1 2366   1.222   0.441   4.053
  538SOL    HW2 2367   1.180   0.599   4.059
  539SOL     OW 2368   0.307   0.213   4.955
  539SOL    HW1 2369   0.284   0.250   5.045
  539SOL    HW2 2370   0.277   0.118   4.949
  540SOL     OW 2371   0.037   1.310   5.006
  540SOL    HW1 2372   0.090   1.261   5.074
  540SOL    HW2 2373   0.059   1.408   5.011
  541SOL     OW 2374   0.732   0.634   4.788
  541SOL    HW1 2375   0.791   0.608   4.712
  541SOL    HW2 2376   0.704   0.730   4.777
  542SOL     OW 2377   1.728   0.935   5.578
  542SOL    HW1 2378   1.682   0.928   5.489
  542SOL    HW2 2379   1.666   0.979   5.644
  543SOL     OW 2380   0.307   0.063   4.342
  543SOL    HW1 2381   0.296   0.157   4.375
  543SOL    HW2 2382   0.302   0.000   4.419
  544SOL     OW 2383   1.622   0.367   4.098
  544SOL    HW1 2384   1.624   0.291   4.162
  544SOL    HW2 2385   1.574   0.444   4.138
  545SOL     OW 2386   1.023   0.766   4.690
  545SOL    HW1 2387   1.038   0.787   4.786
  545SOL    HW2 2388   0.993   0.671   4.681
  546SOL     OW 2389   0.980   1.573   5.424
  546SOL    HW1 2390   0.960   1.617   5.336
  546SOL    HW2 2391   1.019   1.482   5.408
  547SOL     OW 2392   1.859   1.518   5.329
  547SOL    HW1 2393   1.873   1.545   5.234
  547SOL    HW2 2394   1.942   1.540   5.382
  548SOL     OW 2395   0.350   0.898   5.528
  548SOL    HW1 2396   0.426   0.942   5.576
  548SOL    HW2 2397   0.385   0.851   5.446
  549SOL     OW 2398   1.540   0.274   3.849
  549SOL    HW1 2399   1.479   0.199   3.872
  549SOL    HW2 2400   1.562   0.326   3.932
  550SOL     OW 2401   1.303   0.838   3.766
  550SOL    HW1 2402   1.337   0.745   3.781
  550SOL    HW2 2403   1.321   0.865   3.671
  551SOL     OW 2404   1.068   1.333   4.573
  551SOL    HW1 2405   1.075   1.249   4.518
  551SOL    HW2 2406   1.130   1.402   4.537
  552SOL     OW 2407   0.319   0.810   4.673
  552SOL    HW1 2408   0.412   0.846   4.678
  552SOL    HW2 2409   0.313   0.725   4.725
  553SOL     OW 2410   0.339   0.509   4.730
  553SOL    HW1 2411   0.287   0.426   4.713
  553SOL    HW2 2412   0.416   0.514   4.666
  554SOL     OW 2413   1.138   0.380   5.402
  554SOL    HW1 2414   1.093   0.443   5.466
  554SOL    HW2 2415   1.231   0.411   5.385
  555SOL     OW 2416   1.160   0.207   5.201
  555SOL    HW1 2417   1.160   0.271   5.278
  555SOL    HW2 2418   1.188   0.255   5.118
  556SOL     OW 2419   0.008   1.326   3.924
  556SOL    HW1 2420  -0.085   1.347   3.893
  556SOL    HW2 2421   0.018   1.227   3.937
  557SOL     OW 2422   0.088   1.801   4.651
  557SOL    HW1 2423   0.046   1.715   4.624
  557SOL    HW2 2424   0.182   1.804   4.617
  558SOL     OW 2425   0.504   1.568   4.634
  558SOL    HW1 2426   0.570   1.642   4.643
  558SOL    HW2 2427   0.548   1.489   4.592
  559SOL     OW 2428   1.002   0.796   4.962
  559SOL    HW1 2429   1.043   0.764   5.048
  559SOL    HW2 2430   0.906   0.769   4.959
  560SOL     OW 2431   0.040   0.544   4.838
  560SOL    HW1 2432   0.125   0.511   4.797
  560SOL    HW2 2433   0.053   0.559   4.936
  561SOL     OW 2434   0.189   0.520   5.446
  561SOL    HW1 2435   0.248   0.480   5.376
  561SOL    HW2 2436   0.131   0.591   5.405
  562SOL     OW 2437   1.369   0.950   5.384
  562SOL    HW1 2438   1.408   1.039   5.404
  562SOL    HW2 2439   1.379   0.930   5.287
  563SOL     OW 2440   0.815   0.572   4.049
  563SOL    HW1 2441   0.822   0.483   4.003
  563SOL    HW2 2442   0.721   0.606   4.041
  564SOL     OW 2443   1.657   0.604   4.930
  564SOL    HW1 2444   1.619   0.535   4.992
  564SOL    HW2 2445   1.739   0.568   4.886
  565SOL     OW 2446   0.252   1.564   5.468
  565SOL    HW1 2447   0.222   1.621   5.544
  565SOL    HW2 2448   0.245   1.467   5.494
  566SOL     OW 2449   0.671   0.464   4.993
  566SOL    HW1 2450   0.637   0.375   4.963
  566SOL    HW2 2451   0.697   0.518   4.913
  567SOL     OW 2452   0.930   1.678   5.189
  567SOL    HW1 2453   0.906   1.660   5.094
  567SOL    HW2 2454   0.960   1.772   5.199
  568SOL     OW 2455   0.473   0.500   3.915
  568SOL    HW1 2456   0.534   0.580   3.919
  568SOL    HW2 2457   0.378   0.531   3.922
  569SOL     OW 2458   0.159   1.137   5.190
  569SOL    HW1 2459   0.181   1.076   5.266
  569SOL    HW2 2460   0.169   1.088   5.104
  570SOL     OW 2461   1.347   1.059   4.958
  570SOL    HW1 2462   1.371   0.996   4.884
  570SOL    HW2 2463   1.257   1.099   4.940
  571SOL     OW 2464   1.302   0.855   4.033
  571SOL    HW1 2465   1.216   0.824   4.075
  571SOL    HW2 2466   1.298   0.841   3.934
  572SOL     OW 2467   1.252   1.731   4.852
  572SOL    HW1 2468   1.336   1.736   4.798
  572SOL    HW2 2469   1.229   1.635   4.870
  573SOL     OW 2470   0.083   1.258   4.746
  573SOL    HW1 2471   0.078   1.257   4.846
  573SOL    HW2 2472   0.000   1.217   4.708
  574SOL     OW 2473   0.688   1.662   5.440
  574SOL    HW1 2474   0.632   1.743   5.449
  574SOL    HW2 2475   0.740   1.666   5.354
  575SOL     OW 2476   1.726   0.135   4.247
  575SOL    HW1 2477   1.799   0.118   4.180
  575SOL    HW2 2478   1.695   0.048   4.285
  576SOL     OW 2479   1.388   1.573   4.201
  576SOL    HW1 2480   1.455   1.585   4.127
  576SOL    HW2 2481   1.348   1.662   4.224
  577SOL     OW 2482   0.130   1.794   5.575
  577SOL    HW1 2483   0.089   1.720   5.628
  577SOL    HW2 2484   0.194   1.845   5.633
  578SOL     OW 2485   1.280   0.927   4.396
  578SOL    HW1 2486   1.340   0.846   4.398
  578SOL    HW2 2487   1.320   0.996   4.336
  579SOL     OW 2488   0.830   1.273   5.146
  579SOL    HW1 2489   0.825   1.306   5.241
  579SOL    HW2 2490   0.744   1.292   5.100
  580SOL     OW 2491   0.672   1.616   3.878
  580SOL    HW1 2492   0.681   1.626   3.779
  580SOL    HW2 2493   0.632   1.527   3.899
  581SOL     OW 2494   1.650   1.720   5.118
  581SOL    HW1 2495   1.703   1.730   5.034
  581SOL    HW2 2496   1.623   1.810   5.152
  582SOL     OW 2497   1.841   0.175   4.687
  582SOL    HW1 2498   1.880   0.090   4.651
  582SOL    HW2 2499   1.743   0.177   4.668
  583SOL     OW 2500   0.263   0.326   4.444
  583SOL    HW1 2501   0.184   0.377   4.410
  583SOL    HW2 2502   0.254   0.311   4.542
  584SOL     OW 2503   1.194   1.612   3.755
  584SOL    HW1 2504   1.200   1.519   3.792
  584SOL    HW2 2505   1.135   1.612   3.675
  585SOL     OW 2506   0.822   1.002   5.096
  585SOL    HW1 2507   0.862   1.001   5.004
  585SOL    HW2 2508   0.832   1.094   5.136
  586SOL     OW 2509   0.916   0.910   4.015
  586SOL    HW1 2510   0.979   0.948   3.947
  586SOL    HW2 2511   0.956   0.827   4.054
  587SOL     OW 2512   1.504   1.607   3.768
  587SOL    HW1 2513   1.412   1.644   3.775
  587SOL    HW2 2514   1.542   1.627   3.678
  588SOL     OW 2515   0.372   1.288   5.214
  588SOL    HW1 2516   0.359   1.381   5.180
  588SOL    HW2 2517   0.288   1.236   5.201
  589SOL     OW 2518   1.614   1.292   5.013
  589SOL    HW1 2519   1.674   1.295   5.093
  589SOL    HW2 2520   1.539   1.356   5.026
  590SOL     OW 2521   1.039   1.098   4.420
  590SOL    HW1 2522   0.969   1.051   4.474
  590SOL    HW2 2523   1.098   1.030   4.377
  591SOL     OW 2524   1.014   0.236   4.695
  591SOL    HW1 2525   1.006   0.200   4.602
  591SOL    HW2 2526   1.012   0.160   4.760
  592SOL     OW 2527   0.590   1.487   4.215
  592SOL    HW1 2528   0.632   1.429   4.145
  592SOL    HW2 2529   0.546   1.566   4.171
  593SOL     OW 2530   1.709   0.385   5.105
  593SOL    HW1 2531   1.782   0.454   5.109
  593SOL    HW2 2532   1.737   0.310   5.046
  594SOL     OW 2533   0.255   1.348   4.014
  594SOL    HW1 2534   0.159   1.349   3.987
  594SOL    HW2 2535   0.267   1.401   4.098
  595SOL     OW 2536   0.105   1.013   5.450
  595SOL    HW1 2537   0.028   0.980   5.504
  595SOL    HW2 2538   0.190   0.983   5.492
  596SOL     OW 2539   0.672   0.203   5.213
  596SOL    HW1 2540   0.762   0.187   5.173
  596SOL    HW2 2541   0.680   0.208   5.312
  597SOL     OW 2542   0.075   0.345   3.757
  597SOL    HW1 2543  -0.017   0.317   3.728
  597SOL    HW2 2544   0.106   0.422   3.701
  598SOL     OW 2545   1.440   0.856   5.122
  598SOL    HW1 2546   1.383   0.908   5.059
  598SOL    HW2 2547   1.536   0.868   5.098
  599SOL     OW 2548   0.072   0.166   4.042
  599SOL    HW1 2549   0.055   0.249   3.988
  599SOL    HW2 2550   0.162   0.129   4.020
  600SOL     OW 2551   1.183   1.335   3.843
  600SOL    HW1 2552   1.084   1.324   3.845
  600SOL    HW2 2553   1.217   1.350   3.936
  601SOL     OW 2554   0.613   0.842   5.155
  601SOL    HW1 2555   0.669   0.923   5.138
  601SOL    HW2 2556   0.672   0.762   5.158
  602SOL     OW 2557   1.493   1.767   4.683
  602SOL    HW1 2558   1.526   1.831   4.614
  602SOL    HW2 2559   1.559   1.761   4.758
  603SOL     OW 2560   0.716   0.565   5.432
  603SOL    HW1 2561   0.735   0.630   5.506
  603SOL    HW2 2562   0.776   0.485   5.441
  604SOL     OW 2563   1.450   1.220   5.357
  604SOL    HW1 2564   1.441   1.210   5.456
  604SOL    HW2 2565   1.546   1.213   5.331
  605SOL     OW 2566   0.390   1.741   5.284
  605SOL    HW1 2567   0.299   1.782   5.282
  605SOL    HW2 2568   0.383   1.647   5.316
  606SOL     OW 2569   1.674   0.883   4.978
  606SOL    HW1 2570   1.647   0.794   4.941
  606SOL    HW2 2571   1.675   0.951   4.905
  607SOL     OW 2572   1.225   0.325   4.173
  607SOL    HW1 2573   1.290   0.251   4.162
  607SOL    HW2 2574   1.245   0.375   4.257
  608SOL     OW 2575   0.594   0.745   4.376
  608SOL    HW1 2576   0.644   0.830   4.357
  608SOL    HW2 2577   0.506   0.747   4.328
  609SOL     OW 2578   1.777   0.342   5.366
  609SOL    HW1 2579   1.760   0.373   5.272
  609SOL    HW2 2580   1.693   0.305   5.404
  610SOL     OW 2581   1.730   0.934   5.241
  610SOL    HW1 2582   1.768   1.025   5.256
  610SOL    HW2 2583   1.722   0.917   5.142
  611SOL     OW 2584   0.859   1.374   3.740
  611SOL    HW1 2585   0.813   1.389   3.828
  611SOL    HW2 2586   0.903   1.459   3.710
  612SOL     OW 2587   0.661   1.790   4.677
  612SOL    HW1 2588   0.615   1.878   4.664
  612SOL    HW2 2589   0.760   1.802   4.670
  613SOL     OW 2590   0.859   0.956   4.585
  613SOL    HW1 2591   0.913   0.887   4.633
  613SOL    HW2 2592   0.827   1.025   4.651
  614SOL     OW 2593   1.083   0.984   3.811
  614SOL    HW1 2594   1.060   1.037   3.729
  614SOL    HW2 2595   1.164   0.928   3.792
  615SOL     OW 2596   1.861   1.569   4.575
  615SOL    HW1 2597   1.790   1.557   4.505
  615SOL    HW2 2598   1.862   1.490   4.635
  616SOL     OW 2599   0.221   1.314   5.568
  616SOL    HW1 2600   0.156   1.241   5.547
  616SOL    HW2 2601   0.225   1.328   5.666
  617SOL     OW 2602   0.079   1.240   4.377
  617SOL    HW1 2603   0.078   1.193   4.465
  617SOL    HW2 2604   0.161   1.212   4.326
  618SOL     OW 2605   0.672   1.391   5.348
  618SOL    HW1 2606   0.594   1.341   5.386
  618SOL    HW2 2607   0.669   1.486   5.379
  619SOL     OW 2608   1.824   0.192   4.951
  619SOL    HW1 2609   1.820   0.102   4.995
  619SOL    HW2 2610   1.827   0.181   4.852
  620SOL     OW 2611   0.428   0.424   4.244
  620SOL    HW1 2612   0.458   0.352   4.182
  620SOL    HW2 2613   0.389   0.384   4.327
  621SOL     OW 2614   1.705   1.487   4.828
  621SOL    HW1 2615   1.612   1.462   4.801
  621SOL    HW2 2616   1.731   1.437   4.910
  622SOL     OW 2617   0.317   0.547   5.004
  622SOL    HW1 2618   0.355   0.488   5.076
  622SOL    HW2 2619   0.357   0.521   4.916
  623SOL     OW 2620   0.812   1.586   4.411
  623SOL    HW1 2621   0.844   1.596   4.317
  623SOL    HW2 2622   0.733   1.524   4.413
  624SOL     OW 2623   1.424   0.214   4.836
  624SOL    HW1 2624   1.476   0.149   4.891
  624SOL    HW2 2625   1.375   0.277   4.897
  625SOL     OW 2626   1.001   0.034   4.878
  625SOL    HW1 2627   0.938  -0.038   4.847
  625SOL    HW2 2628   1.094  -0.002   4.878
  626SOL     OW 2629   0.770   1.330   4.025
  626SOL    HW1 2630   0.724   1.243   4.042
  626SOL    HW2 2631   0.861   1.327   4.066
  627SOL     OW 2632   0.618   1.567   5.008
  627SOL    HW1 2633   0.613   1.649   5.065
  627SOL    HW2 2634   0.707   1.564   4.963
  628SOL     OW 2635   1.352   0.052   3.892
  628SOL    HW1 2636   1.387   0.011   3.808
  628SOL    HW2 2637   1.262   0.014   3.912
  629SOL     OW 2638   1.300   0.453   4.415
  629SOL    HW1 2639   1.241   0.533   4.419
  629SOL    HW2 2640   1.315   0.418   4.508
  630SOL     OW 2641   1.593   0.221   4.606
  630SOL    HW1 2642   1.509   0.220   4.660
  630SOL    HW2 2643   1.595   0.304   4.550
  631SOL     OW 2644   0.039   1.077   4.024
  631SOL    HW1 2645   0.138   1.066   4.015
  631SOL    HW2 2646  -0.001   0.991   4.056
  632SOL     OW 2647   0.875   1.646   4.061
  632SOL    HW1 2648   0.798   1.611   4.007
  632SOL    HW2 2649   0.843   1.717   4.123
  633SOL     OW 2650   0.230   0.628   5.699
  633SOL    HW1 2651   0.137   0.626   5.736
  633SOL    HW2 2652   0.231   0.589   5.607
  634SOL     OW 2653   0.225   0.275   6.582
  634SOL    HW1 2654   0.260   0.258   6.674
  634SOL    HW2 2655   0.137   0.230   6.570
  635SOL     OW 2656   0.019   0.368   6.233
  635SOL    HW1 2657  -0.063   0.411   6.272
  635SOL    HW2 2658  -0.009   0.295   6.170
  636SOL     OW 2659   0.569   1.275   6.751
  636SOL    HW1 2660   0.476   1.268   6.714
  636SOL    HW2 2661   0.580   1.364   6.795
  637SOL     OW 2662   1.135   0.703   6.303
  637SOL    HW1 2663   1.192   0.781   6.278
  637SOL    HW2 2664   1.075   0.729   6.379
  638SOL     OW 2665   1.755   0.607   5.817
  638SOL    HW1 2666   1.743   0.594   5.718
  638SOL    HW2 2667   1.725   0.526   5.866
  639SOL     OW 2668   0.768   1.144   6.609
  639SOL    HW1 2669   0.690   1.161   6.669
  639SOL    HW2 2670   0.802   1.231   6.573
  640SOL     OW 2671   0.850   0.798   7.409
  640SOL    HW1 2672   0.846   0.874   7.474
  640SOL    HW2 2673   0.872   0.834   7.318
  641SOL     OW 2674   0.685   1.012   6.251
  641SOL    HW1 2675   0.754   0.996   6.321
  641SOL    HW2 2676   0.612   1.069   6.289
  642SOL     OW 2677   0.686   1.161   7.389
  642SOL    HW1 2678   0.746   1.240   7.403
  642SOL    HW2 2679   0.600   1.192   7.348
  643SOL     OW 2680   0.335   1.435   6.647
  643SOL    HW1 2681   0.257   1.404   6.594
  643SOL    HW2 2682   0.393   1.493   6.590
  644SOL     OW 2683   1.460   1.505   6.925
  644SOL    HW1 2684   1.484   1.599   6.951
  644SOL    HW2 2685   1.444   1.451   7.007
  645SOL     OW 2686   0.438   0.392   7.085
  645SOL    HW1 2687   0.520   0.336   7.094
  645SOL    HW2 2688   0.357   0.334   7.089
  646SOL     OW 2689   1.603   0.447   6.323
  646SOL    HW1 2690   1.529   0.493   6.273
  646SOL    HW2 2691   1.654   0.515   6.376
  647SOL     OW 2692   0.231   1.713   6.069
  647SOL    HW1 2693   0.265   1.790   6.123
  647SOL    HW2 2694   0.275   1.713   5.979
  648SOL     OW 2695   1.127   1.341   7.276
  648SOL    HW1 2696   1.174   1.341   7.364
  648SOL    HW2 2697   1.079   1.254   7.265
  649SOL     OW 2698   0.230   1.434   6.124
  649SOL    HW1 2699   0.204   1.530   6.124
  649SOL    HW2 2700   0.159   1.380   6.169
  650SOL     OW 2701   0.240   1.091   6.472
  650SOL    HW1 2702   0.254   1.007   6.524
  650SOL    HW2 2703   0.185   1.155   6.527
  651SOL     OW 2704   0.620   1.786   7.025
  651SOL    HW1 2705   0.528   1.769   7.060
  651SOL    HW2 2706   0.648   1.878   7.051
  652SOL     OW 2707   0.606   0.964   5.709
  652SOL    HW1 2708   0.613   1.048   5.655
  652SOL    HW2 2709   0.652   0.977   5.797
  653SOL     OW 2710   1.594   0.114   7.066
  653SOL    HW1 2711   1.576   0.181   6.994
  653SOL    HW2 2712   1.591   0.160   7.155
  654SOL     OW 2713   0.122   0.643   6.149
  654SOL    HW1 2714   0.077   0.555   6.166
  654SOL    HW2 2715   0.121   0.697   6.233
  655SOL     OW 2716   0.027   1.596   5.703
  655SOL    HW1 2717   0.008   1.500   5.724
  655SOL    HW2 2718  -0.006   1.654   5.778
  656SOL     OW 2719   1.689   0.922   6.198
  656SOL    HW1 2720   1.784   0.893   6.206
  656SOL    HW2 2721   1.681   0.987   6.123
  657SOL     OW 2722   1.641   1.108   6.018
  657SOL    HW1 2723   1.727   1.110   5.966
  657SOL    HW2 2724   1.655   1.155   6.106
  658SOL     OW 2725   0.113   0.737   7.183
  658SOL    HW1 2726   0.201   0.724   7.228
  658SOL    HW2 2727   0.100   0.834   7.161
  659SOL     OW 2728   0.613   1.365   6.312
  659SOL    HW1 2729   0.564   1.278   6.321
  659SOL    HW2 2730   0.590   1.408   6.225
  660SOL     OW 2731   1.293   1.228   7.009
  660SOL    HW1 2732   1.330   1.155   6.951
  660SOL    HW2 2733   1.345   1.233   7.094
  661SOL     OW 2734   0.809   0.004   6.088
  661SOL    HW1 2735   0.849   0.095   6.079
  661SOL    HW2 2736   0.709   0.012   6.094
  662SOL     OW 2737   0.197   0.976   6.850
  662SOL    HW1 2738   0.286   0.931   6.836
  662SOL    HW2 2739   0.124   0.911   6.831
  663SOL     OW 2740   1.525   0.999   5.776
  663SOL    HW1 2741   1.462   0.923   5.789
  663SOL    HW2 2742   1.573   1.017   5.862
  664SOL     OW 2743   0.317   0.251   7.387
  664SOL    HW1 2744   0.388   0.322   7.393
  664SOL    HW2 2745   0.229   0.290   7.415
  665SOL     OW 2746   0.598   0.729   5.856
  665SOL    HW1 2747   0.622   0.798   5.788
  665SOL    HW2 2748   0.520   0.762   5.910
  666SOL     OW 2749   1.281   0.345   6.530
  666SOL    HW1 2750   1.195   0.295   6.517
  666SOL    HW2 2751   1.343   0.291   6.586
  667SOL     OW 2752   1.576   1.662   5.893
  667SOL    HW1 2753   1.665   1.708   5.896
  667SOL    HW2 2754   1.555   1.638   5.798
  668SOL     OW 2755   0.807   0.605   7.051
  668SOL    HW1 2756   0.760   0.602   7.140
  668SOL    HW2 2757   0.756   0.550   6.985
  669SOL     OW 2758   1.394   0.469   7.260
  669SOL    HW1 2759   1.374   0.512   7.348
  669SOL    HW2 2760   1.472   0.407   7.269
  670SOL     OW 2761   0.973   0.890   7.158
  670SOL    HW1 2762   1.019   0.806   7.129
  670SOL    HW2 2763   0.917   0.924   7.083
  671SOL     OW 2764   0.991   0.410   6.828
  671SOL    HW1 2765   0.914   0.444   6.882
  671SOL    HW2 2766   0.957   0.359   6.749
  672SOL     OW 2767   1.041   0.701   6.015
  672SOL    HW1 2768   1.067   0.697   6.111
  672SOL    HW2 2769   0.956   0.650   6.001
  673SOL     OW 2770   0.076   0.811   6.375
  673SOL    HW1 2771   0.175   0.799   6.384
  673SOL    HW2 2772   0.052   0.906   6.396
  674SOL     OW 2773   0.130   1.821   7.157
  674SOL    HW1 2774   0.120   1.806   7.256
  674SOL    HW2 2775   0.044   1.857   7.121
  675SOL     OW 2776   0.865   0.348   5.781
  675SOL    HW1 2777   0.924   0.411   5.732
  675SOL    HW2 2778   0.884   0.254   5.752
  676SOL     OW 2779   1.719   0.585   7.417
  676SOL    HW1 2780   1.693   0.674   7.381
  676SOL    HW2 2781   1.717   0.517   7.344
  677SOL     OW 2782   1.362   1.144   6.131
  677SOL    HW1 2783   1.445   1.115   6.083
  677SOL    HW2 2784   1.313   1.211   6.075
  678SOL     OW 2785   0.550   0.196   6.471
  678SOL    HW1 2786   0.545   0.191   6.571
  678SOL    HW2 2787   0.552   0.292   6.442
  679SOL     OW 2788   1.008   1.456   6.063
  679SOL    HW1 2789   0.962   1.528   6.011
  679SOL    HW2 2790   1.004   1.476   6.161
  680SOL     OW 2791   0.351   1.801   6.439
  680SOL    HW1 2792   0.401   1.715   6.445
  680SOL    HW2 2793   0.416   1.878   6.436
  681SOL     OW 2794   1.795   1.066   6.459
  681SOL    HW1 2795   1.733   1.051   6.383
  681SOL    HW2 2796   1.743   1.077   6.544
  682SOL     OW 2797   1.227   1.550   7.092
  682SOL    HW1 2798   1.233   1.473   7.156
  682SOL    HW2 2799   1.175   1.524   7.012
  683SOL     OW 2800   0.321   0.943   5.828
  683SOL    HW1 2801   0.403   0.982   5.786
  683SOL    HW2 2802   0.294   0.861   5.779
  684SOL     OW 2803   1.458   0.735   6.314
  684SOL    HW1 2804   1.453   0.670   6.389
  684SOL    HW2 2805   1.538   0.794   6.327
  685SOL     OW 2806   0.461   1.266   7.313
  685SOL    HW1 2807   0.411   1.267   7.227
  685SOL    HW2 2808   0.398   1.248   7.389
  686SOL     OW 2809   1.111   1.776   5.823
  686SOL    HW1 2810   1.051   1.714   5.873
  686SOL    HW2 2811   1.142   1.732   5.738
  687SOL     OW 2812   0.202   0.285   7.084
  687SOL    HW1 2813   0.122   0.345   7.071
  687SOL    HW2 2814   0.192   0.236   7.170
  688SOL     OW 2815   1.632   1.377   5.667
  688SOL    HW1 2816   1.600   1.471   5.657
  688SOL    HW2 2817   1.556   1.314   5.655
  689SOL     OW 2818   0.464   1.743   5.909
  689SOL    HW1 2819   0.497   1.782   5.995
  689SOL    HW2 2820   0.540   1.736   5.844
  690SOL     OW 2821   1.400   0.107   6.012
  690SOL    HW1 2822   1.376   0.070   5.922
  690SOL    HW2 2823   1.499   0.123   6.016
  691SOL     OW 2824   0.249   1.785   6.827
  691SOL    HW1 2825   0.306   1.720   6.877
  691SOL    HW2 2826   0.233   1.752   6.734
  692SOL     OW 2827   0.940   1.698   6.490
  692SOL    HW1 2828   1.020   1.641   6.511
  692SOL    HW2 2829   0.891   1.658   6.413
  693SOL     OW 2830   0.382   0.700   6.066
  693SOL    HW1 2831   0.427   0.610   6.063
  693SOL    HW2 2832   0.288   0.689   6.099
  694SOL     OW 2833   1.547   0.222   7.315
  694SOL    HW1 2834   1.542   0.259   7.407
  694SOL    HW2 2835   1.475   0.153   7.303
  695SOL     OW 2836   0.614   0.122   5.703
  695SOL    HW1 2837   0.712   0.100   5.710
  695SOL    HW2 2838   0.583   0.105   5.610
  696SOL     OW 2839   0.781   0.264   7.335
  696SOL    HW1 2840   0.848   0.203   7.378
  696SOL    HW2 2841   0.708   0.283   7.400
  697SOL     OW 2842   0.888   1.514   6.781
  697SOL    HW1 2843   0.865   1.489   6.687
  697SOL    HW2 2844   0.949   1.445   6.820
  698SOL     OW 2845   1.351   0.590   7.019
  698SOL    HW1 2846   1.379   0.547   7.104
  698SOL    HW2 2847   1.376   0.686   7.020
  699SOL     OW 2848   0.803   1.402   6.510
  699SOL    HW1 2849   0.893   1.416   6.468
  699SOL    HW2 2850   0.732   1.404   6.439
  700SOL     OW 2851   0.922   0.503   6.485
  700SOL    HW1 2852   0.897   0.494   6.389
  700SOL    HW2 2853   0.970   0.421   6.516
  701SOL     OW 2854   0.539   0.064   6.098
  701SOL    HW1 2855   0.458   0.065   6.156
  701SOL    HW2 2856   0.542   0.147   6.043
  702SOL     OW 2857   1.434   1.188   5.627
  702SOL    HW1 2858   1.466   1.112   5.684
  702SOL    HW2 2859   1.342   1.215   5.657
  703SOL     OW 2860   0.297   0.035   5.757
  703SOL    HW1 2861   0.346   0.119   5.736
  703SOL    HW2 2862   0.359  -0.030   5.802
  704SOL     OW 2863   0.935   0.236   6.066
  704SOL    HW1 2864   0.887   0.277   5.988
  704SOL    HW2 2865   1.034   0.234   6.047
  705SOL     OW 2866   1.076   0.683   7.050
  705SOL    HW1 2867   0.996   0.622   7.053
  705SOL    HW2 2868   1.157   0.630   7.026
  706SOL     OW 2869   0.459   1.152   6.327
  706SOL    HW1 2870   0.388   1.125   6.392
  706SOL    HW2 2871   0.433   1.124   6.234
  707SOL     OW 2872   1.032   0.549   5.602
  707SOL    HW1 2873   0.991   0.631   5.563
  707SOL    HW2 2874   1.096   0.575   5.675
  708SOL     OW 2875   0.078   0.556   6.972
  708SOL    HW1 2876   0.170   0.555   6.931
  708SOL    HW2 2877   0.072   0.630   7.039
  709SOL     OW 2878   0.561   0.222   6.733
  709SOL    HW1 2879   0.599   0.138   6.770
  709SOL    HW2 2880   0.473   0.241   6.777
  710SOL     OW 2881   0.866   0.454   6.228
  710SOL    HW1 2882   0.834   0.526   6.166
  710SOL    HW2 2883   0.890   0.373   6.175
  711SOL     OW 2884   1.017   0.039   6.339
  711SOL    HW1 2885   0.945   0.044   6.270
  711SOL    HW2 2886   0.993  -0.030   6.408
  712SOL     OW 2887   1.429   1.173   6.453
  712SOL    HW1 2888   1.374   1.089   6.446
  712SOL    HW2 2889   1.455   1.202   6.361
  713SOL     OW 2890   1.466   0.590   6.578
  713SOL    HW1 2891   1.436   0.495   6.585
  713SOL    HW2 2892   1.539   0.606   6.644
  714SOL     OW 2893   1.857   0.833   5.963
  714SOL    HW1 2894   1.899   0.769   6.027
  714SOL    HW2 2895   1.819   0.782   5.885
  715SOL     OW 2896   0.488   1.385   5.760
  715SOL    HW1 2897   0.401   1.370   5.807
  715SOL    HW2 2898   0.471   1.411   5.665
  716SOL     OW 2899   1.390   0.575   5.664
  716SOL    HW1 2900   1.336   0.554   5.745
  716SOL    HW2 2901   1.481   0.534   5.673
  717SOL     OW 2902   0.527   0.256   5.914
  717SOL    HW1 2903   0.554   0.197   5.839
  717SOL    HW2 2904   0.527   0.351   5.883
  718SOL     OW 2905   1.064   1.347   6.926
  718SOL    HW1 2906   0.984   1.324   6.981
  718SOL    HW2 2907   1.147   1.321   6.975
  719SOL     OW 2908   1.111   1.195   6.686
  719SOL    HW1 2909   1.071   1.239   6.767
  719SOL    HW2 2910   1.070   1.232   6.603
  720SOL     OW 2911   1.638   1.099   6.665
  720SOL    HW1 2912   1.643   1.180   6.724
  720SOL    HW2 2913   1.552   1.101   6.614
  721SOL     OW 2914   0.915   0.089   6.988
  721SOL    HW1 2915   0.940   0.069   6.893
  721SOL    HW2 2916   0.987   0.145   7.030
  722SOL     OW 2917   0.980   1.116   7.305
  722SOL    HW1 2918   0.881   1.122   7.315
  722SOL    HW2 2919   1.003   1.036   7.249
  723SOL     OW 2920   0.705   1.050   5.954
  723SOL    HW1 2921   0.691   1.057   6.053
  723SOL    HW2 2922   0.789   0.999   5.936
  724SOL     OW 2923   0.410   0.813   6.837
  724SOL    HW1 2924   0.496   0.825   6.887
  724SOL    HW2 2925   0.368   0.726   6.864
  725SOL     OW 2926   1.274   0.386   6.848
  725SOL    HW1 2927   1.295   0.460   6.912
  725SOL    HW2 2928   1.185   0.403   6.805
  726SOL     OW 2929   0.064   1.564   6.917
  726SOL    HW1 2930   0.018   1.646   6.883
  726SOL    HW2 2931   0.162   1.583   6.926
  727SOL     OW 2932   0.367   1.100   6.087
  727SOL    HW1 2933   0.360   1.183   6.031
  727SOL    HW2 2934   0.371   1.020   6.027
  728SOL     OW 2935   0.566   0.537   6.451
  728SOL    HW1 2936   0.578   0.603   6.377
  728SOL    HW2 2937   0.612   0.571   6.534
  729SOL     OW 2938   1.252   1.348   5.974
  729SOL    HW1 2939   1.302   1.425   6.014
  729SOL    HW2 2940   1.157   1.350   6.006
  730SOL     OW 2941   1.272   1.445   6.728
  730SOL    HW1 2942   1.319   1.458   6.815
  730SOL    HW2 2943   1.206   1.371   6.737
  731SOL     OW 2944   1.582   0.639   6.058
  731SOL    HW1 2945   1.551   0.700   6.131
  731SOL    HW2 2946   1.632   0.691   5.989
  732SOL     OW 2947   0.354   1.510   6.915
  732SOL    HW1 2948   0.333   1.466   6.828
  732SOL    HW2 2949   0.451   1.536   6.918
  733SOL     OW 2950   0.402   0.751   7.184
  733SOL    HW1 2951   0.470   0.806   7.137
  733SOL    HW2 2952   0.442   0.663   7.211
  734SOL     OW 2953   1.587   0.779   7.256
  734SOL    HW1 2954   1.495   0.817   7.251
  734SOL    HW2 2955   1.647   0.826   7.191
  735SOL     OW 2956   1.013   0.105   7.356
  735SOL    HW1 2957   1.019   0.190   7.304
  735SOL    HW2 2958   1.045   0.029   7.299
  736SOL     OW 2959   0.504   0.050   7.326
  736SOL    HW1 2960   0.462  -0.007   7.256
  736SOL    HW2 2961   0.438   0.119   7.358
  737SOL     OW 2962   0.573   0.870   6.615
  737SOL    HW1 2963   0.617   0.959   6.606
  737SOL    HW2 2964   0.510   0.870   6.692
  738SOL     OW 2965   1.360   0.862   6.631
  738SOL    HW1 2966   1.285   0.862   6.565
  738SOL    HW2 2967   1.397   0.770   6.640
  739SOL     OW 2968   1.209   0.525   5.861
  739SOL    HW1 2969   1.222   0.441   5.915
  739SOL    HW2 2970   1.180   0.599   5.921
  740SOL     OW 2971   0.307   0.213   6.817
  740SOL    HW1 2972   0.284   0.250   6.907
  740SOL    HW2 2973   0.277   0.118   6.811
  741SOL     OW 2974   0.037   1.310   6.868
  741SOL    HW1 2975   0.090   1.261   6.936
  741SOL    HW2 2976   0.059   1.408   6.873
  742SOL     OW 2977   0.732   0.634   6.650
  742SOL    HW1 2978   0.791   0.608   6.574
  742SOL    HW2 2979   0.704   0.730   6.639
  743SOL     OW 2980   1.728   0.935   7.440
  743SOL    HW1 2981   1.682   0.928   7.351
  743SOL    HW2 2982   1.666   0.979   7.506
  744SOL     OW 2983   0.307   0.063   6.204
  744SOL    HW1 2984   0.296   0.157   6.237
  744SOL    HW2 2985   0.302   0.000   6.281
  745SOL     OW 2986   1.622   0.367   5.960
  745SOL    HW1 2987   1.624   0.291   6.024
  745SOL    HW2 2988   1.574   0.444   6.000
  746SOL     OW 2989   1.023   0.766   6.552
  746SOL    HW1 2990   1.038   0.787   6.648
  746SOL    HW2 2991   0.993   0.671   6.543
  747SOL     OW 2992   0.980   1.573   7.286
  747SOL    HW1 2993   0.960   1.617   7.198
  747SOL    HW2 2994   1.019   1.482   7.270
  748SOL     OW 2995   1.859   1.518   7.191
  748SOL    HW1 2996   1.873   1.545   7.096
  748SOL    HW2 2997   1.942   1.540   7.244
  749SOL     OW 2998   0.350   0.898   7.390
  749SOL    HW1 2999   0.426   0.942   7.438
  749SOL    HW2 3000   0.385   0.851   7.308
  750SOL     OW 3001   1.540   0.274   5.711
  750SOL    HW1 3002   1.479   0.199   5.734
  750SOL    HW2 3003   1.562   0.326   5.794
  751SOL     OW 3004   1.303   0.838   5.628
  751SOL    HW1 3005   1.337   0.745   5.643
  751SOL    HW2 3006   1.321   0.865   5.533
  752SOL     OW 3007   1.068   1.333   6.435
  752SOL    HW1 3008   1.075   1.249   6.380
  752SOL    HW2 3009   1.130   1.402   6.399
  753SOL     OW 3010   0.319   0.810   6.535
  753SOL    HW1 3011   0.412   0.846   6.540
  753SOL    HW2 3012   0.313   0.725   6.587
  754SOL     OW 3013   0.339   0.509   6.592
  754SOL    HW1 3014   0.287   0.426   6.575
  754SOL    HW2 3015   0.416   0.514   6.528
  755SOL     OW 3016   1.138   0.380   7.264
  755SOL    HW1 3017   1.093   0.443   7.328
  755SOL    HW2 3018   1.231   0.411   7.247
  756SOL     OW 3019   1.160   0.207   7.063
  756SOL    HW1 3020   1.160   0.271   7.140
  756SOL    HW2 3021   1.188   0.255   6.980
  757SOL     OW 3022   0.008   1.326   5.786
  757SOL    HW1 3023  -0.085   1.347   5.755
  757SOL    HW2 3024   0.018   1.227   5.799
  758SOL     OW 3025   0.088   1.801   6.513
  758SOL    HW1 3026   0.046   1.715   6.486
  758SOL    HW2 3027   0.182   1.804   6.479
  759SOL     OW 3028   0.504   1.568   6.496
  759SOL    HW1 3029   0.570   1.642   6.505
  759SOL    HW2 3030   0.548   1.489   6.454
  760SOL     OW 3031   1.002   0.796   6.824
  760SOL    HW1 3032   1.043   0.764   6.910
  760SOL    HW2 3033   0.906   0.769   6.821
  761SOL     OW 3034   0.040   0.544   6.700
  761SOL    HW1 3035   0.125   0.511   6.659
  761SOL    HW2 3036   0.053   0.559   6.798
  762SOL     OW 3037   0.189   0.520   7.308
  762SOL    HW1 3038   0.248   0.480   7.238
  762SOL    HW2 3039   0.131   0.591   7.267
  763SOL     OW 3040   1.369   0.950   7.246
  763SOL    HW1 3041   1.408   1.039   7.266
  763SOL    HW2 3042   1.379   0.930   7.149
  764SOL     OW 3043   0.815   0.572   5.911
  764SOL    HW1 3044   0.822   0.483   5.865
  764SOL    HW2 3045   0.721   0.606   5.903
  765SOL     OW 3046   1.657   0.604   6.792
  765SOL    HW1 3047   1.619   0.535   6.854
  765SOL    HW2 3048   1.739   0.568   6.748
  766SOL     OW 3049   0.252   1.564   7.330
  766SOL    HW1 3050   0.222   1.621   7.406
  766SOL    HW2 3051   0.245   1.467   7.356
  767SOL     OW 3052   0.671   0.464   6.855
  767SOL    HW1 3053   0.637   0.375   6.825
  767SOL    HW2 3054   0.697   0.518   6.775
  768SOL     OW 3055   0.930   1.678   7.051
  768SOL    HW1 3056   0.906   1.660   6.956
  768SOL    HW2 3057   0.960   1.772   7.061
  769SOL     OW 3058   0.473   0.500   5.777
  769SOL    HW1 3059   0.534   0.580   5.781
  769SOL    HW2 3060   0.378   0.531   5.784
  770SOL     OW 3061   0.159   1.137   7.052
  770SOL    HW1 3062   0.181   1.076   7.128
  770SOL    HW2 3063   0.169   1.088   6.966
  771SOL     OW 3064   1.347   1.059   6.820
  771SOL    HW1 3065   1.371   0.996   6.746
  771SOL    HW2 3066   1.257   1.099   6.802
  772SOL     OW 3067   1.302   0.855   5.895
  772SOL    HW1 3068   1.216   0.824   5.937
  772SOL    HW2 3069   1.298   0.841   5.796
  773SOL     OW 3070   0.083   1.258   6.608
  773SOL    HW1 3071   0.078   1.257   6.708
  773SOL    HW2 3072   0.000   1.217   6.570
  774SOL     OW 3073   0.688   1.662   7.302
  774SOL    HW1 3074   0.632   1.743   7.311
  774SOL    HW2 3075   0.740   1.666   7.216
  775SOL     OW 3076   1.726   0.135   6.109
  775SOL    HW1 3077   1.799   0.118   6.042
  775SOL    HW2 3078   1.695   0.048   6.147
  776SOL     OW 3079   0.130   1.794   7.437
  776SOL    HW1 3080   0.089   1.720   7.490
  776SOL    HW2 3081   0.194   1.845   7.495
  777SOL     OW 3082   1.280   0.927   6.258
  777SOL    HW1 3083   1.340   0.846   6.260
  777SOL    HW2 3084   1.320   0.996   6.198
  778SOL     OW 3085   0.830   1.273   7.008
  778SOL    HW1 3086   0.825   1.306   7.103
  778SOL    HW2 3087   0.744   1.292   6.962
  779SOL     OW 3088   0.672   1.616   5.740
  779SOL    HW1 3089   0.681   1.626   5.641
  779SOL    HW2 3090   0.632   1.527   5.761
  780SOL     OW 3091   1.650   1.720   6.980
  780SOL    HW1 3092   1.703   1.730   6.896
  780SOL    HW2 3093   1.623   1.810   7.014
  781SOL     OW 3094   1.841   0.175   6.549
  781SOL    HW1 3095   1.880   0.090   6.513
  781SOL    HW2 3096   1.743   0.177   6.530
  782SOL     OW 3097   0.263   0.326   6.306
  782SOL    HW1 3098   0.184   0.377   6.272
  782SOL    HW2 3099   0.254   0.311   6.404
  783SOL     OW 3100   1.194   1.612   5.617
  783SOL    HW1 3101   1.200   1.519   5.654
  783SOL    HW2 3102   1.135   1.612   5.537
  784SOL     OW 3103   0.822   1.002   6.958
  784SOL    HW1 3104   0.862   1.001   6.866
  784SOL    HW2 3105   0.832   1.094   6.998
  785SOL     OW 3106   0.916   0.910   5.877
  785SOL    HW1 3107   0.979   0.948   5.809
  785SOL    HW2 3108   0.956   0.827   5.916
  786SOL     OW 3109   1.504   1.607   5.630
  786SOL    HW1 3110   1.412   1.644   5.637
  786SOL    HW2 3111   1.542   1.627   5.540
  787SOL     OW 3112   0.372   1.288   7.076
  787SOL    HW1 3113   0.359   1.381   7.042
  787SOL    HW2 3114   0.288   1.236   7.063
  788SOL     OW 3115   1.614   1.292   6.875
  788SOL    HW1 3116   1.674   1.295   6.955
  788SOL    HW2 3117   1.539   1.356   6.888
  789SOL     OW 3118   1.039   1.098   6.282
  789SOL    HW1 3119   0.969   1.051   6.336
  789SOL    HW2 3120   1.098   1.030   6.239
  790SOL     OW 3121   1.014   0.236   6.557
  790SOL    HW1 3122   1.006   0.200   6.464
  790SOL    HW2 3123   1.012   0.160   6.622
  791SOL     OW 3124   0.590   1.487   6.077
  791SOL    HW1 3125   0.632   1.429   6.007
  791SOL    HW2 3126   0.546   1.566   6.033
  792SOL     OW 3127   1.709   0.385   6.967
  792SOL    HW1 3128   1.782   0.454   6.971
  792SOL    HW2 3129   1.737   0.310   6.908
  793SOL     OW 3130   0.255   1.348   5.876
  793SOL    HW1 3131   0.159   1.349   5.849
  793SOL    HW2 3132   0.267   1.401   5.960
  794SOL     OW 3133   0.105   1.013   7.312
  794SOL    HW1 3134   0.028   0.980   7.366
  794SOL    HW2 3135   0.190   0.983   7.354
  795SOL     OW 3136   0.672   0.203   7.075
  795SOL    HW1 3137   0.762   0.187   7.035
  795SOL    HW2 3138   0.680   0.208   7.174
  796SOL     OW 3139   0.075   0.345   5.619
  796SOL    HW1 3140  -0.017   0.317   5.590
  796SOL    HW2 3141   0.106   0.422   5.563
  797SOL     OW 3142   1.440   0.856   6.984
  797SOL    HW1 3143   1.383   0.908   6.921
  797SOL    HW2 3144   1.536   0.868   6.960
  798SOL     OW 3145   0.072   0.166   5.904
  798SOL    HW1 3146   0.055   0.249   5.850
  798SOL    HW2 3147   0.162   0.129   5.882
  799SOL     OW 3148   1.183   1.335   5.705
  799SOL    HW1 3149   1.084   1.324   5.707
  799SOL    HW2 3150   1.217   1.350   5.798
  800SOL     OW 3151   0.613   0.842   7.017
  800SOL    HW1 3152   0.669   0.923   7.000
  800SOL    HW2 3153   0.672   0.762   7.020
  801SOL     OW 3154   0.716   0.565   7.294
  801SOL    HW1 3155   0.735   0.630   7.368
  801SOL    HW2 3156   0.776   0.485   7.303
  802SOL     OW 3157   1.450   1.220   7.219
  802SOL    HW1 3158   1.441   1.210   7.318
  802SOL    HW2 3159   1.546   1.213   7.193
  803SOL     OW 3160   0.390   1.741   7.146
  803SOL    HW1 3161   0.299   1.782   7.144
  803SOL    HW2 3162   0.383   1.647   7.178
  804SOL     OW 3163   1.674   0.883   6.840
  804SOL    HW1 3164   1.647   0.794   6.803
  804SOL    HW2 3165   1.675   0.951   6.767
  805SOL     OW 3166   1.225   0.325   6.035
  805SOL    HW1 3167   1.290   0.251   6.024
  805SOL    HW2 3168   1.245   0.375   6.119
  806SOL     OW 3169   0.594   0.745   6.238
  806SOL    HW1 3170   0.644   0.830   6.219
  806SOL    HW2 3171   0.506   0.747   6.190
  807SOL     OW 3172   1.777   0.342   7.228
  807SOL    HW1 3173   1.760   0.373   7.134
  807SOL    HW2 3174   1.693   0.305   7.266
  808SOL     OW 3175   1.730   0.934   7.103
  808SOL    HW1 3176   1.768   1.025   7.118
  808SOL    HW2 3177   1.722   0.917   7.004
  809SOL     OW 3178   0.859   1.374   5.602
  809SOL    HW1 3179   0.813   1.389   5.690
  809SOL    HW2 3180   0.903   1.459   5.572
  810SOL     OW 3181   0.661   1.790   6.539
  810SOL    HW1 3182   0.615   1.878   6.526
  810SOL    HW2 3183   0.760   1.802   6.532
  811SOL     OW 3184   0.859   0.956   6.447
  811SOL    HW1 3185   0.913   0.887   6.495
  811SOL    HW2 3186   0.827   1.025   6.513
  812SOL     OW 3187   1.083   0.984   5.673
  812SOL    HW1 3188   1.060   1.037   5.591
  812SOL    HW2 3189   1.164   0.928   5.654
  813SOL     OW 3190   0.221   1.314   7.430
  813SOL    HW1 3191   0.156   1.241   7.409
  813SOL    HW2 3192   0.225   1.328   7.528
  814SOL     OW 3193   0.079   1.240   6.239
  814SOL    HW1 3194   0.078   1.193   6.327
  814SOL    HW2 3195   0.161   1.212   6.188
  815SOL     OW 3196   0.672   1.391   7.210
  815SOL    HW1 3197   0.594   1.341   7.248
  815SOL    HW2 3198   0.669   1.486   7.241
  816SOL     OW 3199   1.824   0.192   6.813
  816SOL    HW1 3200   1.820   0.102   6.857
  816SOL    HW2 3201   1.827   0.181   6.714
  817SOL     OW 3202   0.428   0.424   6.106
  817SOL    HW1 3203   0.458   0.352   6.044
  817SOL    HW2 3204   0.389   0.384   6.189
  818SOL     OW 3205   0.317   0.547   6.866
  818SOL    HW1 3206   0.355   0.488   6.938
  818SOL    HW2 3207   0.357   0.521   6.778
  819SOL     OW 3208   0.812   1.586   6.273
  819SOL    HW1 3209   0.844   1.596   6.179
  819SOL    HW2 3210   0.733   1.524   6.275
  820SOL     OW 3211   1.424   0.214   6.698
  820SOL    HW1 3212   1.476   0.149   6.753
  820SOL    HW2 3213   1.375   0.277   6.759
  821SOL     OW 3214   1.001   0.034   6.740
  821SOL    HW1 3215   0.938  -0.038   6.709
  821SOL    HW2 3216   1.094  -0.002   6.740
  822SOL     OW 3217   0.770   1.330   5.887
  822SOL    HW1 3218   0.724   1.243   5.904
  822SOL    HW2 3219   0.861   1.327   5.928
  823SOL     OW 3220   0.618   1.567   6.870
  823SOL    HW1 3221   0.613   1.649   6.927
  823SOL    HW2 3222   0.707   1.564   6.825
  824SOL     OW 3223   1.352   0.052   5.754
  824SOL    HW1 3224   1.387   0.011   5.670
  824SOL    HW2 3225   1.262   0.014   5.774
  825SOL     OW 3226   1.300   0.453   6.277
  825SOL    HW1 3227   1.241   0.533   6.281
  825SOL    HW2 3228   1.315   0.418   6.370
  826SOL     OW 3229   1.593   0.221   6.468
  826SOL    HW1 3230   1.509   0.220   6.522
  826SOL    HW2 3231   1.595   0.304   6.412
  827SOL     OW 3232   0.039   1.077   5.886
  827SOL    HW1 3233   0.138   1.066   5.877
  827SOL    HW2 3234  -0.001   0.991   5.918
  828SOL     OW 3235   0.875   1.646   5.923
  828SOL    HW1 3236   0.798   1.611   5.869
  828SOL    HW2 3237   0.843   1.717   5.985
  829SOL     OW 3238   0.230   0.628   7.561
  829SOL    HW1 3239   0.137   0.626   7.598
  829SOL    HW2 3240   0.231   0.589   7.469
  830SOL     OW 3241   0.225   0.275   8.444
  830SOL    HW1 3242   0.260   0.258   8.536
  830SOL    HW2 3243   0.137   0.230   8.432
  831SOL     OW 3244   0.019   0.368   8.095
  831SOL    HW1 3245  -0.063   0.411   8.134
  831SOL    HW2 3246  -0.009   0.295   8.032
  832SOL     OW 3247   0.569   1.275   8.613
  832SOL    HW1 3248   0.476   1.268   8.576
  832SOL    HW2 3249   0.580   1.364   8.657
  833SOL     OW 3250   1.555   1.511   8.151
  833SOL    HW1 3251   1.498   1.495   8.232
  833SOL    HW2 3252   1.496   1.521   8.071
  834SOL     OW 3253   1.135   0.703   8.165
  834SOL    HW1 3254   1.192   0.781   8.140
  834SOL    HW2 3255   1.075   0.729   8.241
  835SOL     OW 3256   1.755   0.607   7.679
  835SOL    HW1 3257   1.743   0.594   7.580
  835SOL    HW2 3258   1.725   0.526   7.728
  836SOL     OW 3259   0.768   1.144   8.471
  836SOL    HW1 3260   0.690   1.161   8.531
  836SOL    HW2 3261   0.802   1.231   8.435
  837SOL     OW 3262   0.850   0.798   9.271
  837SOL    HW1 3263   0.846   0.874   9.336
  837SOL    HW2 3264   0.872   0.834   9.180
  838SOL     OW 3265   0.685   1.012   8.113
  838SOL    HW1 3266   0.754   0.996   8.183
  838SOL    HW2 3267   0.612   1.069   8.151
  839SOL     OW 3268   0.686   1.161   9.251
  839SOL    HW1 3269   0.746   1.240   9.265
  839SOL    HW2 3270   0.600   1.192   9.210
  840SOL     OW 3271   0.335   1.435   8.509
  840SOL    HW1 3272   0.257   1.404   8.456
  840SOL    HW2 3273   0.393   1.493   8.452
  841SOL     OW 3274   1.460   1.505   8.787
  841SOL    HW1 3275   1.484   1.599   8.813
  841SOL    HW2 3276   1.444   1.451   8.869
  842SOL     OW 3277   0.438   0.392   8.947
  842SOL    HW1 3278   0.520   0.336   8.956
  842SOL    HW2 3279   0.357   0.334   8.951
  843SOL     OW 3280   1.603   0.447   8.185
  843SOL    HW1 3281   1.529   0.493   8.135
  843SOL    HW2 3282   1.654   0.515   8.238
  844SOL     OW 3283   0.231   1.713   7.931
  844SOL    HW1 3284   0.265   1.790   7.985
  844SOL    HW2 3285   0.275   1.713   7.841
  845SOL     OW 3286   1.127   1.341   9.138
  845SOL    HW1 3287   1.174   1.341   9.226
  845SOL    HW2 3288   1.079   1.254   9.127
  846SOL     OW 3289   0.230   1.434   7.986
  846SOL    HW1 3290   0.204   1.530   7.986
  846SOL    HW2 3291   0.159   1.380   8.031
  847SOL     OW 3292   0.240   1.091   8.334
  847SOL    HW1 3293   0.254   1.007   8.386
  847SOL    HW2 3294   0.185   1.155   8.389
  848SOL     OW 3295   0.620   1.786   8.887
  848SOL    HW1 3296   0.528   1.769   8.922
  848SOL    HW2 3297   0.648   1.878   8.913
  849SOL     OW 3298   0.606   0.964   7.571
  849SOL    HW1 3299   0.613   1.048   7.517
  849SOL    HW2 3300   0.652   0.977   7.659
  850SOL     OW 3301   1.594   0.114   8.928
  850SOL    HW1 3302   1.576   0.181   8.856
  850SOL    HW2 3303   1.591   0.160   9.017
  851SOL     OW 3304   0.122   0.643   8.011
  851SOL    HW1 3305   0.077   0.555   8.028
  851SOL    HW2 3306   0.121   0.697   8.095
  852SOL     OW 3307   0.027   1.596   7.565
  852SOL    HW1 3308   0.008   1.500   7.586
  852SOL    HW2 3309  -0.006   1.654   7.640
  853SOL     OW 3310   1.689   0.922   8.060
  853SOL    HW1 3311   1.784   0.893   8.068
  853SOL    HW2 3312   1.681   0.987   7.985
  854SOL     OW 3313   1.641   1.108   7.880
  854SOL    HW1 3314   1.727   1.110   7.828
  854SOL    HW2 3315   1.655   1.155   7.968
  855SOL     OW 3316   0.113   0.737   9.045
  855SOL    HW1 3317   0.201   0.724   9.090
  855SOL    HW2 3318   0.100   0.834   9.023
  856SOL     OW 3319   0.613   1.365   8.174
  856SOL    HW1 3320   0.564   1.278   8.183
  856SOL    HW2 3321   0.590   1.408   8.087
  857SOL     OW 3322   1.293   1.228   8.871
  857SOL    HW1 3323   1.330   1.155   8.813
  857SOL    HW2 3324   1.345   1.233   8.956
  858SOL     OW 3325   0.809   0.004   7.950
  858SOL    HW1 3326   0.849   0.095   7.941
  858SOL    HW2 3327   0.709   0.012   7.956
  859SOL     OW 3328   0.197   0.976   8.712
  859SOL    HW1 3329   0.286   0.931   8.698
  859SOL    HW2 3330   0.124   0.911   8.693
  860SOL     OW 3331   1.525   0.999   7.638
  860SOL    HW1 3332   1.462   0.923   7.651
  860SOL    HW2 3333   1.573   1.017   7.724
  861SOL     OW 3334   1.187   1.792   9.064
  861SOL    HW1 3335   1.211   1.852   8.988
  861SOL    HW2 3336   1.194   1.697   9.034
  862SOL     OW 3337   0.317   0.251   9.249
  862SOL    HW1 3338   0.388   0.322   9.255
  862SOL    HW2 3339   0.229   0.290   9.277
  863SOL     OW 3340   1.466   1.417   8.401
  863SOL    HW1 3341   1.407   1.423   8.481
  863SOL    HW2 3342   1.451   1.329   8.355
  864SOL     OW 3343   1.667   1.714   8.020
  864SOL    HW1 3344   1.626   1.691   7.932
  864SOL    HW2 3345   1.649   1.640   8.085
  865SOL     OW 3346   0.598   0.729   7.718
  865SOL    HW1 3347   0.622   0.798   7.650
  865SOL    HW2 3348   0.520   0.762   7.772
  866SOL     OW 3349   1.281   0.345   8.392
  866SOL    HW1 3350   1.195   0.295   8.379
  866SOL    HW2 3351   1.343   0.291   8.448
  867SOL     OW 3352   0.807   0.605   8.913
  867SOL    HW1 3353   0.760   0.602   9.002
  867SOL    HW2 3354   0.756   0.550   8.847
  868SOL     OW 3355   1.394   0.469   9.122
  868SOL    HW1 3356   1.374   0.512   9.210
  868SOL    HW2 3357   1.472   0.407   9.131
  869SOL     OW 3358   0.973   0.890   9.020
  869SOL    HW1 3359   1.019   0.806   8.991
  869SOL    HW2 3360   0.917   0.924   8.945
  870SOL     OW 3361   0.991   0.410   8.690
  870SOL    HW1 3362   0.914   0.444   8.744
  870SOL    HW2 3363   0.957   0.359   8.611
  871SOL     OW 3364   1.041   0.701   7.877
  871SOL    HW1 3365   1.067   0.697   7.973
  871SOL    HW2 3366   0.956   0.650   7.863
  872SOL     OW 3367   0.076   0.811   8.237
  872SOL    HW1 3368   0.175   0.799   8.246
  872SOL    HW2 3369   0.052   0.906   8.258
  873SOL     OW 3370   0.130   1.821   9.019
  873SOL    HW1 3371   0.120   1.806   9.118
  873SOL    HW2 3372   0.044   1.857   8.983
  874SOL     OW 3373   0.865   0.348   7.643
  874SOL    HW1 3374   0.924   0.411   7.594
  874SOL    HW2 3375   0.884   0.254   7.614
  875SOL     OW 3376   1.719   0.585   9.279
  875SOL    HW1 3377   1.693   0.674   9.243
  875SOL    HW2 3378   1.717   0.517   9.206
  876SOL     OW 3379   1.362   1.144   7.993
  876SOL    HW1 3380   1.445   1.115   7.945
  876SOL    HW2 3381   1.313   1.211   7.937
  877SOL     OW 3382   0.550   0.196   8.333
  877SOL    HW1 3383   0.545   0.191   8.433
  877SOL    HW2 3384   0.552   0.292   8.304
  878SOL     OW 3385   1.008   1.456   7.925
  878SOL    HW1 3386   0.962   1.528   7.873
  878SOL    HW2 3387   1.004   1.476   8.023
  879SOL     OW 3388   0.351   1.801   8.301
  879SOL    HW1 3389   0.401   1.715   8.307
  879SOL    HW2 3390   0.416   1.878   8.298
  880SOL     OW 3391   1.795   1.066   8.321
  880SOL    HW1 3392   1.733   1.051   8.245
  880SOL    HW2 3393   1.743   1.077   8.406
  881SOL     OW 3394   1.227   1.550   8.954
  881SOL    HW1 3395   1.233   1.473   9.018
  881SOL    HW2 3396   1.175   1.524   8.874
  882SOL     OW 3397   0.321   0.943   7.690
  882SOL    HW1 3398   0.403   0.982   7.648
  882SOL    HW2 3399   0.294   0.861   7.641
  883SOL     OW 3400   1.458   0.735   8.176
  883SOL    HW1 3401   1.453   0.670   8.251
  883SOL    HW2 3402   1.538   0.794   8.189
  884SOL     OW 3403   0.461   1.266   9.175
  884SOL    HW1 3404   0.411   1.267   9.089
  884SOL    HW2 3405   0.398   1.248   9.251
  885SOL     OW 3406   1.111   1.776   7.685
  885SOL    HW1 3407   1.051   1.714   7.735
  885SOL    HW2 3408   1.142   1.732   7.600
  886SOL     OW 3409   0.202   0.285   8.946
  886SOL    HW1 3410   0.122   0.345   8.933
  886SOL    HW2 3411   0.192   0.236   9.032
  887SOL     OW 3412   0.464   1.743   7.771
  887SOL    HW1 3413   0.497   1.782   7.857
  887SOL    HW2 3414   0.540   1.736   7.706
  888SOL     OW 3415   1.400   0.107   7.874
  888SOL    HW1 3416   1.376   0.070   7.784
  888SOL    HW2 3417   1.499   0.123   7.878
  889SOL     OW 3418   0.249   1.785   8.689
  889SOL    HW1 3419   0.306   1.720   8.739
  889SOL    HW2 3420   0.233   1.752   8.596
  890SOL     OW 3421   0.940   1.698   8.352
  890SOL    HW1 3422   1.020   1.641   8.373
  890SOL    HW2 3423   0.891   1.658   8.275
  891SOL     OW 3424   0.382   0.700   7.928
  891SOL    HW1 3425   0.427   0.610   7.925
  891SOL    HW2 3426   0.288   0.689   7.961
  892SOL     OW 3427   1.547   0.222   9.177
  892SOL    HW1 3428   1.542   0.259   9.269
  892SOL    HW2 3429   1.475   0.153   9.165
  893SOL     OW 3430   0.614   0.122   7.565
  893SOL    HW1 3431   0.712   0.100   7.572
  893SOL    HW2 3432   0.583   0.105   7.472
  894SOL     OW 3433   0.781   0.264   9.197
  894SOL    HW1 3434   0.848   0.203   9.240
  894SOL    HW2 3435   0.708   0.283   9.262
  895SOL     OW 3436   0.888   1.514   8.643
  895SOL    HW1 3437   0.865   1.489   8.549
  895SOL    HW2 3438   0.949   1.445   8.682
  896SOL     OW 3439   1.351   0.590   8.881
  896SOL    HW1 3440   1.379   0.547   8.966
  896SOL    HW2 3441   1.376   0.686   8.882
  897SOL     OW 3442   0.803   1.402   8.372
  897SOL    HW1 3443   0.893   1.416   8.330
  897SOL    HW2 3444   0.732   1.404   8.301
  898SOL     OW 3445   0.922   0.503   8.347
  898SOL    HW1 3446   0.897   0.494   8.251
  898SOL    HW2 3447   0.970   0.421   8.378
  899SOL     OW 3448   0.539   0.064   7.960
  899SOL    HW1 3449   0.458   0.065   8.018
  899SOL    HW2 3450   0.542   0.147   7.905
  900SOL     OW 3451   1.434   1.188   7.489
  900SOL    HW1 3452   1.466   1.112   7.546
  900SOL    HW2 3453   1.342   1.215   7.519
  901SOL     OW 3454   0.297   0.035   7.619
  901SOL    HW1 3455   0.346   0.119   7.598
  901SOL    HW2 3456   0.359  -0.030   7.664
  902SOL     OW 3457   0.935   0.236   7.928
  902SOL    HW1 3458   0.887   0.277   7.850
  902SOL    HW2 3459   1.034   0.234   7.909
  903SOL     OW 3460   1.076   0.683   8.912
  903SOL    HW1 3461   0.996   0.622   8.915
  903SOL    HW2 3462   1.157   0.630   8.888
  904SOL     OW 3463   1.227   1.570   8.241
  904SOL    HW1 3464   1.248   1.644   8.176
  904SOL    HW2 3465   1.295   1.570   8.314
  905SOL     OW 3466   0.459   1.152   8.189
  905SOL    HW1 3467   0.388   1.125   8.254
  905SOL    HW2 3468   0.433   1.124   8.096
  906SOL     OW 3469   1.032   0.549   7.464
  906SOL    HW1 3470   0.991   0.631   7.425
  906SOL    HW2 3471   1.096   0.575   7.537
  907SOL     OW 3472   0.078   0.556   8.834
  907SOL    HW1 3473   0.170   0.555   8.793
  907SOL    HW2 3474   0.072   0.630   8.901
  908SOL     OW 3475   0.561   0.222   8.595
  908SOL    HW1 3476   0.599   0.138   8.632
  908SOL    HW2 3477   0.473   0.241   8.639
  909SOL     OW 3478   0.866   0.454   8.090
  909SOL    HW1 3479   0.834   0.526   8.028
  909SOL    HW2 3480   0.890   0.373   8.037
  910SOL     OW 3481   1.017   0.039   8.201
  910SOL    HW1 3482   0.945   0.044   8.132
  910SOL    HW2 3483   0.993  -0.030   8.270
  911SOL     OW 3484   1.429   1.173   8.315
  911SOL    HW1 3485   1.374   1.089   8.308
  911SOL    HW2 3486   1.455   1.202   8.223
  912SOL     OW 3487   1.466   0.590   8.440
  912SOL    HW1 3488   1.436   0.495   8.447
  912SOL    HW2 3489   1.539   0.606   8.506
  913SOL     OW 3490   1.857   0.833   7.825
  913SOL    HW1 3491   1.899   0.769   7.889
  913SOL    HW2 3492   1.819   0.782   7.747
  914SOL     OW 3493   0.488   1.385   7.622
  914SOL    HW1 3494   0.401   1.370   7.669
  914SOL    HW2 3495   0.471   1.411   7.527
  915SOL     OW 3496   1.664   1.280   8.105
  915SOL    HW1 3497   1.763   1.288   8.119
  915SOL    HW2 3498   1.619   1.364   8.136
  916SOL     OW 3499   1.390   0.575   7.526
  916SOL    HW1 3500   1.336   0.554   7.607
  916SOL    HW2 3501   1.481   0.534   7.535
  917SOL     OW 3502   0.527   0.256   7.776
  917SOL    HW1 3503   0.554   0.197   7.701
  917SOL    HW2 3504   0.527   0.351   7.745
  918SOL     OW 3505   1.754   1.223   9.036
  918SOL    HW1 3506   1.845   1.184   9.023
  918SOL    HW2 3507   1.762   1.319   9.060
  919SOL     OW 3508   1.064   1.347   8.788
  919SOL    HW1 3509   0.984   1.324   8.843
  919SOL    HW2 3510   1.147   1.321   8.837
  920SOL     OW 3511   1.592   1.629   9.073
  920SOL    HW1 3512   1.619   1.663   8.983
  920SOL    HW2 3513   1.671   1.591   9.119
  921SOL     OW 3514   1.111   1.195   8.548
  921SOL    HW1 3515   1.071   1.239   8.629
  921SOL    HW2 3516   1.070   1.232   8.465
  922SOL     OW 3517   1.638   1.099   8.527
  922SOL    HW1 3518   1.643   1.180   8.586
  922SOL    HW2 3519   1.552   1.101   8.476
  923SOL     OW 3520   0.915   0.089   8.850
  923SOL    HW1 3521   0.940   0.069   8.755
  923SOL    HW2 3522   0.987   0.145   8.892
  924SOL     OW 3523   0.980   1.116   9.167
  924SOL    HW1 3524   0.881   1.122   9.177
  924SOL    HW2 3525   1.003   1.036   9.111
  925SOL     OW 3526   0.705   1.050   7.816
  925SOL    HW1 3527   0.691   1.057   7.915
  925SOL    HW2 3528   0.789   0.999   7.798
  926SOL     OW 3529   0.410   0.813   8.699
  926SOL    HW1 3530   0.496   0.825   8.749
  926SOL    HW2 3531   0.368   0.726   8.726
  927SOL     OW 3532   1.274   0.386   8.710
  927SOL    HW1 3533   1.295   0.460   8.774
  927SOL    HW2 3534   1.185   0.403   8.667
  928SOL     OW 3535   0.064   1.564   8.779
  928SOL    HW1 3536   0.018   1.646   8.745
  928SOL    HW2 3537   0.162   1.583   8.788
  929SOL     OW 3538   0.367   1.100   7.949
  929SOL    HW1 3539   0.360   1.183   7.893
  929SOL    HW2 3540   0.371   1.020   7.889
  930SOL     OW 3541   0.566   0.537   8.313
  930SOL    HW1 3542   0.578   0.603   8.239
  930SOL    HW2 3543   0.612   0.571   8.396
  931SOL     OW 3544   1.252   1.348   7.836
  931SOL    HW1 3545   1.302   1.425   7.876
  931SOL    HW2 3546   1.157   1.350   7.868
  932SOL     OW 3547   1.272   1.445   8.590
  932SOL    HW1 3548   1.319   1.458   8.677
  932SOL    HW2 3549   1.206   1.371   8.599
  933SOL     OW 3550   1.582   0.639   7.920
  933SOL    HW1 3551   1.551   0.700   7.993
  933SOL    HW2 3552   1.632   0.691   7.851
  934SOL     OW 3553   0.354   1.510   8.777
  934SOL    HW1 3554   0.333   1.466   8.690
  934SOL    HW2 3555   0.451   1.536   8.780
  935SOL     OW 3556   0.402   0.751   9.046
  935SOL    HW1 3557   0.470   0.806   8.999
  935SOL    HW2 3558   0.442   0.663   9.073
  936SOL     OW 3559   1.587   0.779   9.118
  936SOL    HW1 3560   1.495   0.817   9.113
  936SOL    HW2 3561   1.647   0.826   9.053
  937SOL     OW 3562   1.013   0.105   9.218
  937SOL    HW1 3563   1.019   0.190   9.166
  937SOL    HW2 3564   1.045   0.029   9.161
  938SOL     OW 3565   0.504   0.050   9.188
  938SOL    HW1 3566   0.462  -0.007   9.118
  938SOL    HW2 3567   0.438   0.119   9.220
  939SOL     OW 3568   0.573   0.870   8.477
  939SOL    HW1 3569   0.617   0.959   8.468
  939SOL    HW2 3570   0.510   0.870   8.554
  940SOL     OW 3571   1.360   0.862   8.493
  940SOL    HW1 3572   1.285   0.862   8.427
  940SOL    HW2 3573   1.397   0.770   8.502
  941SOL     OW 3574   1.209   0.525   7.723
  941SOL    HW1 3575   1.222   0.441   7.777
  941SOL    HW2 3576   1.180   0.599   7.783
  942SOL     OW 3577   0.307   0.213   8.679
  942SOL    HW1 3578   0.284   0.250   8.769
  942SOL    HW2 3579   0.277   0.118   8.673
  943SOL     OW 3580   0.037   1.310   8.730
  943SOL    HW1 3581   0.090   1.261   8.798
  943SOL    HW2 3582   0.059   1.408   8.735
  944SOL     OW 3583   0.732   0.634   8.512
  944SOL    HW1 3584   0.791   0.608   8.436
  944SOL    HW2 3585   0.704   0.730   8.501
  945SOL     OW 3586   1.728   0.935   9.302
  945SOL    HW1 3587   1.682   0.928   9.213
  945SOL    HW2 3588   1.666   0.979   9.368
  946SOL     OW 3589   0.307   0.063   8.066
  946SOL    HW1 3590   0.296   0.157   8.099
  946SOL    HW2 3591   0.302   0.000   8.143
  947SOL     OW 3592   1.622   0.367   7.822
  947SOL    HW1 3593   1.624   0.291   7.886
  947SOL    HW2 3594   1.574   0.444   7.862
  948SOL     OW 3595   1.023   0.766   8.414
  948SOL    HW1 3596   1.038   0.787   8.510
  948SOL    HW2 3597   0.993   0.671   8.405
  949SOL     OW 3598   0.980   1.573   9.148
  949SOL    HW1 3599   0.960   1.617   9.060
  949SOL    HW2 3600   1.019   1.482   9.132
  950SOL     OW 3601   1.859   1.518   9.053
  950SOL    HW1 3602   1.873   1.545   8.958
  950SOL    HW2 3603   1.942   1.540   9.106
  951SOL     OW 3604   0.350   0.898   9.252
  951SOL    HW1 3605   0.426   0.942   9.300
  951SOL    HW2 3606   0.385   0.851   9.170
  952SOL     OW 3607   1.540   0.274   7.573
  952SOL    HW1 3608   1.479   0.199   7.596
  952SOL    HW2 3609   1.562   0.326   7.656
  953SOL     OW 3610   1.303   0.838   7.490
  953SOL    HW1 3611   1.337   0.745   7.505
  953SOL    HW2 3612   1.321   0.865   7.395
  954SOL     OW 3613   1.068   1.333   8.297
  954SOL    HW1 3614   1.075   1.249   8.242
  954SOL    HW2 3615   1.130   1.402   8.261
  955SOL     OW 3616   0.319   0.810   8.397
  955SOL    HW1 3617   0.412   0.846   8.402
  955SOL    HW2 3618   0.313   0.725   8.449
  956SOL     OW 3619   0.339   0.509   8.454
  956SOL    HW1 3620   0.287   0.426   8.437
  956SOL    HW2 3621   0.416   0.514   8.390
  957SOL     OW 3622   1.138   0.380   9.126
  957SOL    HW1 3623   1.093   0.443   9.190
  957SOL    HW2 3624   1.231   0.411   9.109
  958SOL     OW 3625   1.160   0.207   8.925
  958SOL    HW1 3626   1.160   0.271   9.002
  958SOL    HW2 3627   1.188   0.255   8.842
  959SOL     OW 3628   0.008   1.326   7.648
  959SOL    HW1 3629  -0.085   1.347   7.617
  959SOL    HW2 3630   0.018   1.227   7.661
  960SOL     OW 3631   0.088   1.801   8.375
  960SOL    HW1 3632   0.046   1.715   8.348
  960SOL    HW2 3633   0.182   1.804   8.341
  961SOL     OW 3634   0.504   1.568   8.358
  961SOL    HW1 3635   0.570   1.642   8.367
  961SOL    HW2 3636   0.548   1.489   8.316
  962SOL     OW 3637   1.002   0.796   8.686
  962SOL    HW1 3638   1.043   0.764   8.772
  962SOL    HW2 3639   0.906   0.769   8.683
  963SOL     OW 3640   0.040   0.544   8.562
  963SOL    HW1 3641   0.125   0.511   8.521
  963SOL    HW2 3642   0.053   0.559   8.660
  964SOL     OW 3643   0.189   0.520   9.170
  964SOL    HW1 3644   0.248   0.480   9.100
  964SOL    HW2 3645   0.131   0.591   9.129
  965SOL     OW 3646   1.369   0.950   9.108
  965SOL    HW1 3647   1.408   1.039   9.128
  965SOL    HW2 3648   1.379   0.930   9.011
  966SOL     OW 3649   0.815   0.572   7.773
  966SOL    HW1 3650   0.822   0.483   7.727
  966SOL    HW2 3651   0.721   0.606   7.765
  967SOL     OW 3652   1.657   0.604   8.654
  967SOL    HW1 3653   1.619   0.535   8.716
  967SOL    HW2 3654   1.739   0.568   8.610
  968SOL     OW 3655   0.252   1.564   9.192
  968SOL    HW1 3656   0.222   1.621   9.268
  968SOL    HW2 3657   0.245   1.467   9.218
  969SOL     OW 3658   0.671   0.464   8.717
  969SOL    HW1 3659   0.637   0.375   8.687
  969SOL    HW2 3660   0.697   0.518   8.637
  970SOL     OW 3661   0.930   1.678   8.913
  970SOL    HW1 3662   0.906   1.660   8.818
  970SOL    HW2 3663   0.960   1.772   8.923
  971SOL     OW 3664   0.473   0.500   7.639
  971SOL    HW1 3665   0.534   0.580   7.643
  971SOL    HW2 3666   0.378   0.531   7.646
  972SOL     OW 3667   0.159   1.137   8.914
  972SOL    HW1 3668   0.181   1.076   8.990
  972SOL    HW2 3669   0.169   1.088   8.828
  973SOL     OW 3670   1.347   1.059   8.682
  973SOL    HW1 3671   1.371   0.996   8.608
  973SOL    HW2 3672   1.257   1.099   8.664
  974SOL     OW 3673   1.302   0.855   7.757
  974SOL    HW1 3674   1.216   0.824   7.799
  974SOL    HW2 3675   1.298   0.841   7.658
  975SOL     OW 3676   1.252   1.731   8.576
  975SOL    HW1 3677   1.336   1.736   8.522
  975SOL    HW2 3678   1.229   1.635   8.594
  976SOL     OW 3679   0.083   1.258   8.470
  976SOL    HW1 3680   0.078   1.257   8.570
  976SOL    HW2 3681   0.000   1.217   8.432
  977SOL     OW 3682   0.688   1.662   9.164
  977SOL    HW1 3683   0.632   1.743   9.173
  977SOL    HW2 3684   0.740   1.666   9.078
  978SOL     OW 3685   1.726   0.135   7.971
  978SOL    HW1 3686   1.799   0.118   7.904
  978SOL    HW2 3687   1.695   0.048   8.009
  979SOL     OW 3688   1.388   1.573   7.925
  979SOL    HW1 3689   1.455   1.585   7.851
  979SOL    HW2 3690   1.348   1.662   7.948
  980SOL     OW 3691   0.130   1.794   9.299
  980SOL    HW1 3692   0.089   1.720   9.352
  980SOL    HW2 3693   0.194   1.845   9.357
  981SOL     OW 3694   1.280   0.927   8.120
  981SOL    HW1 3695   1.340   0.846   8.122
  981SOL    HW2 3696   1.320   0.996   8.060
  982SOL     OW 3697   0.830   1.273   8.870
  982SOL    HW1 3698   0.825   1.306   8.965
  982SOL    HW2 3699   0.744   1.292   8.824
  983SOL     OW 3700   0.672   1.616   7.602
  983SOL    HW1 3701   0.681   1.626   7.503
  983SOL    HW2 3702   0.632   1.527   7.623
  984SOL     OW 3703   1.650   1.720   8.842
  984SOL    HW1 3704   1.703   1.730   8.758
  984SOL    HW2 3705   1.623   1.810   8.876
  985SOL     OW 3706   1.841   0.175   8.411
  985SOL    HW1 3707   1.880   0.090   8.375
  985SOL    HW2 3708   1.743   0.177   8.392
  986SOL     OW 3709   0.263   0.326   8.168
  986SOL    HW1 3710   0.184   0.377   8.134
  986SOL    HW2 3711   0.254   0.311   8.266
  987SOL     OW 3712   0.822   1.002   8.820
  987SOL    HW1 3713   0.862   1.001   8.728
  987SOL    HW2 3714   0.832   1.094   8.860
  988SOL     OW 3715   0.916   0.910   7.739
  988SOL    HW1 3716   0.979   0.948   7.671
  988SOL    HW2 3717   0.956   0.827   7.778
  989SOL     OW 3718   0.372   1.288   8.938
  989SOL    HW1 3719   0.359   1.381   8.904
  989SOL    HW2 3720   0.288   1.236   8.925
  990SOL     OW 3721   1.614   1.292   8.737
  990SOL    HW1 3722   1.674   1.295   8.817
  990SOL    HW2 3723   1.539   1.356   8.750
  991SOL     OW 3724   1.039   1.098   8.144
  991SOL    HW1 3725   0.969   1.051   8.198
  991SOL    HW2 3726   1.098   1.030   8.101
  992SOL     OW 3727   1.014   0.236   8.419
  992SOL    HW1 3728   1.006   0.200   8.326
  992SOL    HW2 3729   1.012   0.160   8.484
  993SOL     OW 3730   0.590   1.487   7.939
  993SOL    HW1 3731   0.632   1.429   7.869
  993SOL    HW2 3732   0.546   1.566   7.895
  994SOL     OW 3733   1.709   0.385   8.829
  994SOL    HW1 3734   1.782   0.454   8.833
  994SOL    HW2 3735   1.737   0.310   8.770
  995SOL     OW 3736   0.255   1.348   7.738
  995SOL    HW1 3737   0.159   1.349   7.711
  995SOL    HW2 3738   0.267   1.401   7.822
  996SOL     OW 3739   0.105   1.013   9.174
  996SOL    HW1 3740   0.028   0.980   9.228
  996SOL    HW2 3741   0.190   0.983   9.216
  997SOL     OW 3742   0.672   0.203   8.937
  997SOL    HW1 3743   0.762   0.187   8.897
  997SOL    HW2 3744   0.680   0.208   9.036
  998SOL     OW 3745   0.075   0.345   7.481
  998SOL    HW1 3746  -0.017   0.317   7.452
  998SOL    HW2 3747   0.106   0.422   7.425
  999SOL     OW 3748   1.440   0.856   8.846
  999SOL    HW1 3749   1.383   0.908   8.783
  999SOL    HW2 3750   1.536   0.868   8.822
 1000SOL     OW 3751   0.072   0.166   7.766
 1000SOL    HW1 3752   0.055   0.249   7.712
 1000SOL    HW2 3753   0.162   0.129   7.744
 1001SOL     OW 3754   1.183   1.335   7.567
 1001SOL    HW1 3755   1.084   1.324   7.569
 1001SOL    HW2 3756   1.217   1.350   7.660
 1002SOL     OW 3757   0.613   0.842   8.879
 1002SOL    HW1 3758   0.669   0.923   8.862
 1002SOL    HW2 3759   0.672   0.762   8.882
 1003SOL     OW 3760   1.493   1.767   8.407
 1003SOL    HW1 3761   1.526   1.831   8.338
 1003SOL    HW2 3762   1.559   1.761   8.482
 1004SOL     OW 3763   0.716   0.565   9.156
 1004SOL    HW1 3764   0.735   0.630   9.230
 1004SOL    HW2 3765   0.776   0.485   9.165
 1005SOL     OW 3766   1.450   1.220   9.081
 1005SOL    HW1 3767   1.441   1.210   9.180
 1005SOL    HW2 3768   1.546   1.213   9.055
 1006SOL     OW 3769   0.390   1.741   9.008
 1006SOL    HW1 3770   0.299   1.782   9.006
 1006SOL    HW2 3771   0.383   1.647   9.040
 1007SOL     OW 3772   1.674   0.883   8.702
 1007SOL    HW1 3773   1.647   0.794   8.665
 1007SOL    HW2 3774   1.675   0.951   8.629
 1008SOL     OW 3775   1.225   0.325   7.897
 1008SOL    HW1 3776   1.290   0.251   7.886
 1008SOL    HW2 3777   1.245   0.375   7.981
 1009SOL     OW 3778   0.594   0.745   8.100
 1009SOL    HW1 3779   0.644   0.830   8.081
 1009SOL    HW2 3780   0.506   0.747   8.052
 1010SOL     OW 3781   1.777   0.342   9.090
 1010SOL    HW1 3782   1.760   0.373   8.996
 1010SOL    HW2 3783   1.693   0.305   9.128
 1011SOL     OW 3784   1.730   0.934   8.965
 1011SOL    HW1 3785   1.768   1.025   8.980
 1011SOL    HW2 3786   1.722   0.917   8.866
 1012SOL     OW 3787   0.859   1.374   7.464
 1012SOL    HW1 3788   0.813   1.389   7.552
 1012SOL    HW2 3789   0.903   1.459   7.434
 1013SOL     OW 3790   0.661   1.790   8.401
 1013SOL    HW1 3791   0.615   1.878   8.388
 1013SOL    HW2 3792   0.760   1.802   8.394
 1014SOL     OW 3793   0.859   0.956   8.309
 1014SOL    HW1 3794   0.913   0.887   8.357
 1014SOL    HW2 3795   0.827   1.025   8.375
 1015SOL     OW 3796   1.083   0.984   7.535
 1015SOL    HW1 3797   1.060   1.037   7.453
 1015SOL    HW2 3798   1.164   0.928   7.516
 1016SOL     OW 3799   1.861   1.569   8.299
 1016SOL    HW1 3800   1.790   1.557   8.229
 1016SOL    HW2 3801   1.862   1.490   8.359
 1017SOL     OW 3802   0.221   1.314   9.292
 1017SOL    HW1 3803   0.156   1.241   9.271
 1017SOL    HW2 3804   0.225   1.328   9.390
 1018SOL     OW 3805   0.079   1.240   8.101
 1018SOL    HW1 3806   0.078   1.193   8.189
 1018SOL    HW2 3807   0.161   1.212   8.050
 1019SOL     OW 3808   0.672   1.391   9.072
 1019SOL    HW1 3809   0.594   1.341   9.110
 1019SOL    HW2 3810   0.669   1.486   9.103
 1020SOL     OW 3811   1.824   0.192   8.675
 1020SOL    HW1 3812   1.820   0.102   8.719
 1020SOL    HW2 3813   1.827   0.181   8.576
 1021SOL     OW 3814   0.428   0.424   7.968
 1021SOL    HW1 3815   0.458   0.352   7.906
 1021SOL    HW2 3816   0.389   0.384   8.051
 1022SOL     OW 3817   1.705   1.487   8.552
 1022SOL    HW1 3818   1.612   1.462   8.525
 1022SOL    HW2 3819   1.731   1.437   8.634
 1023SOL     OW 3820   0.317   0.547   8.728
 1023SOL    HW1 3821   0.355   0.488   8.800
 1023SOL    HW2 3822   0.357   0.521   8.640
 1024SOL     OW 3823   0.812   1.586   8.135
 1024SOL    HW1 3824   0.844   1.596   8.041
 1024SOL    HW2 3825   0.733   1.524   8.137
 1025SOL     OW 3826   1.424   0.214   8.560
 1025SOL    HW1 3827   1.476   0.149   8.615
 1025SOL    HW2 3828   1.375   0.277   8.621
 1026SOL     OW 3829   1.001   0.034   8.602
 1026SOL    HW1 3830   0.938  -0.038   8.571
 1026SOL    HW2 3831   1.094  -0.002   8.602
 1027SOL     OW 3832   0.770   1.330   7.749
 1027SOL    HW1 3833   0.724   1.243   7.766
 1027SOL    HW2 3834   0.861   1.327   7.790
 1028SOL     OW 3835   0.618   1.567   8.732
 1028SOL    HW1 3836   0.613   1.649   8.789
 1028SOL    HW2 3837   0.707   1.564   8.687
 1029SOL     OW 3838   1.352   0.052   7.616
 1029SOL    HW1 3839   1.387   0.011   7.532
 1029SOL    HW2 3840   1.262   0.014   7.636
 1030SOL     OW 3841   1.300   0.453   8.139
 1030SOL    HW1 3842   1.241   0.533   8.143
 1030SOL    HW2 3843   1.315   0.418   8.232
 1031SOL     OW 3844   1.593   0.221   8.330
 1031SOL    HW1 3845   1.509   0.220   8.384
 1031SOL    HW2 3846   1.595   0.304   8.274
 1032SOL     OW 3847   0.039   1.077   7.748
 1032SOL    HW1 3848   0.138   1.066   7.739
 1032SOL    HW2 3849  -0.001   0.991   7.780
 1033SOL     OW 3850   0.875   1.646   7.785
 1033SOL    HW1 3851   0.798   1.611   7.731
 1033SOL    HW2 3852   0.843   1.717   7.847
 1034SOL     OW 3853   0.230   0.628   9.423
 1034SOL    HW1 3854   0.137   0.626   9.460
 1034SOL    HW2 3855   0.231   0.589   9.331
 1035SOL     OW 3856   0.225   0.275  10.306
 1035SOL    HW1 3857   0.260   0.258  10.398
 1035SOL    HW2 3858   0.137   0.230  10.294
 1036SOL     OW 3859   0.019   0.368   9.957
 1036SOL    HW1 3860  -0.063   0.411   9.996
 1036SOL    HW2 3861  -0.009   0.295   9.894
 1037SOL     OW 3862   0.569   1.275  10.475
 1037SOL    HW1 3863   0.476   1.268  10.438
 1037SOL    HW2 3864   0.580   1.364  10.519
 1038SOL     OW 3865   1.555   1.511  10.013
 1038SOL    HW1 3866   1.498   1.495  10.094
 1038SOL    HW2 3867   1.496   1.521   9.933
 1039SOL     OW 3868   1.135   0.703  10.027
 1039SOL    HW1 3869   1.192   0.781  10.002
 1039SOL    HW2 3870   1.075   0.729  10.103
 1040SOL     OW 3871   1.755   0.607   9.541
 1040SOL    HW1 3872   1.743   0.594   9.442
 1040SOL    HW2 3873   1.725   0.526   9.590
 1041SOL     OW 3874   0.768   1.144  10.333
 1041SOL    HW1 3875   0.690   1.161  10.393
 1041SOL    HW2 3876   0.802   1.231  10.297
 1042SOL     OW 3877   0.850   0.798  11.133
 1042SOL    HW1 3878   0.846   0.874  11.198
 1042SOL    HW2 3879   0.872   0.834  11.042
 1043SOL     OW 3880   0.685   1.012   9.975
 1043SOL    HW1 3881   0.754   0.996  10.045
 1043SOL    HW2 3882   0.612   1.069  10.013
 1044SOL     OW 3883   0.686   1.161  11.113
 1044SOL    HW1 3884   0.746   1.240  11.127
 1044SOL    HW2 3885   0.600   1.192  11.072
 1045SOL     OW 3886   0.335   1.435  10.371
 1045SOL    HW1 3887   0.257   1.404  10.318
 1045SOL    HW2 3888   0.393   1.493  10.314
 1046SOL     OW 3889   1.460   1.505  10.649
 1046SOL    HW1 3890   1.484   1.599  10.675
 1046SOL    HW2 3891   1.444   1.451  10.731
 1047SOL     OW 3892   0.438   0.392  10.809
 1047SOL    HW1 3893   0.520   0.336  10.818
 1047SOL    HW2 3894   0.357   0.334  10.813
 1048SOL     OW 3895   1.603   0.447  10.047
 1048SOL    HW1 3896   1.529   0.493   9.997
 1048SOL    HW2 3897   1.654   0.515  10.100
 1049SOL     OW 3898   0.231   1.713   9.793
 1049SOL    HW1 3899   0.265   1.790   9.847
 1049SOL    HW2 3900   0.275   1.713   9.703
 1050SOL     OW 3901   1.127   1.341  11.000
 1050SOL    HW1 3902   1.174   1.341  11.088
 1050SOL    HW2 3903   1.079   1.254  10.989
 1051SOL     OW 3904   0.230   1.434   9.848
 1051SOL    HW1 3905   0.204   1.530   9.848
 1051SOL    HW2 3906   0.159   1.380   9.893
 1052SOL     OW 3907   0.240   1.091  10.196
 1052SOL    HW1 3908   0.254   1.007  10.248
 1052SOL    HW2 3909   0.185   1.155  10.251
 1053SOL     OW 3910   0.620   1.786  10.749
 1053SOL    HW1 3911   0.528   1.769  10.784
 1053SOL    HW2 3912   0.648   1.878  10.775
 1054SOL     OW 3913   0.606   0.964   9.433
 1054SOL    HW1 3914   0.613   1.048   9.379
 1054SOL    HW2 3915   0.652   0.977   9.521
 1055SOL     OW 3916   1.594   0.114  10.790
 1055SOL    HW1 3917   1.576   0.181  10.718
 1055SOL    HW2 3918   1.591   0.160  10.879
 1056SOL     OW 3919   0.122   0.643   9.873
 1056SOL    HW1 3920   0.077   0.555   9.890
 1056SOL    HW2 3921   0.121   0.697   9.957
 1057SOL     OW 3922   0.027   1.596   9.427
 1057SOL    HW1 3923   0.008   1.500   9.448
 1057SOL    HW2 3924  -0.006   1.654   9.502
 1058SOL     OW 3925   1.689   0.922   9.922
 1058SOL    HW1 3926   1.784   0.893   9.930
 1058SOL    HW2 3927   1.681   0.987   9.847
 1059SOL     OW 3928   1.641   1.108   9.742
 1059SOL    HW1 3929   1.727   1.110   9.690
 1059SOL    HW2 3930   1.655   1.155   9.830
 1060SOL     OW 3931   0.113   0.737  10.907
 1060SOL    HW1 3932   0.201   0.724  10.952
 1060SOL    HW2 3933   0.100   0.834  10.885
 1061SOL     OW 3934   0.613   1.365  10.036
 1061SOL    HW1 3935   0.564   1.278  10.045
 1061SOL    HW2 3936   0.590   1.408   9.949
 1062SOL     OW 3937   1.293   1.228  10.733
 1062SOL    HW1 3938   1.330   1.155  10.675
 1062SOL    HW2 3939   1.345   1.233  10.818
 1063SOL     OW 3940   0.809   0.004   9.812
 1063SOL    HW1 3941   0.849   0.095   9.803
 1063SOL    HW2 3942   0.709   0.012   9.818
 1064SOL     OW 3943   0.197   0.976  10.574
 1064SOL    HW1 3944   0.286   0.931  10.560
 1064SOL    HW2 3945   0.124   0.911  10.555
 1065SOL     OW 3946   1.525   0.999   9.500
 1065SOL    HW1 3947   1.462   0.923   9.513
 1065SOL    HW2 3948   1.573   1.017   9.586
 1066SOL     OW 3949   1.187   1.792  10.926
 1066SOL    HW1 3950   1.211   1.852  10.850
 1066SOL    HW2 3951   1.194   1.697  10.896
 1067SOL     OW 3952   0.317   0.251  11.111
 1067SOL    HW1 3953   0.388   0.322  11.117
 1067SOL    HW2 3954   0.229   0.290  11.139
 1068SOL     OW 3955   1.466   1.417  10.263
 1068SOL    HW1 3956   1.407   1.423  10.343
 1068SOL    HW2 3957   1.451   1.329  10.217
 1069SOL     OW 3958   1.667   1.714   9.882
 1069SOL    HW1 3959   1.626   1.691   9.794
 1069SOL    HW2 3960   1.649   1.640   9.947
 1070SOL     OW 3961   0.598   0.729   9.580
 1070SOL    HW1 3962   0.622   0.798   9.512
 1070SOL    HW2 3963   0.520   0.762   9.634
 1071SOL     OW 3964   1.281   0.345  10.254
 1071SOL    HW1 3965   1.195   0.295  10.241
 1071SOL    HW2 3966   1.343   0.291  10.310
 1072SOL     OW 3967   1.576   1.662   9.617
 1072SOL    HW1 3968   1.665   1.708   9.620
 1072SOL    HW2 3969   1.555   1.638   9.522
 1073SOL     OW 3970   0.807   0.605  10.775
 1073SOL    HW1 3971   0.760   0.602  10.864
 1073SOL    HW2 3972   0.756   0.550  10.709
 1074SOL     OW 3973   1.394   0.469  10.984
 1074SOL    HW1 3974   1.374   0.512  11.072
 1074SOL    HW2 3975   1.472   0.407  10.993
 1075SOL     OW 3976   0.973   0.890  10.882
 1075SOL    HW1 3977   1.019   0.806  10.853
 1075SOL    HW2 3978   0.917   0.924  10.807
 1076SOL     OW 3979   0.991   0.410  10.552
 1076SOL    HW1 3980   0.914   0.444  10.606
 1076SOL    HW2 3981   0.957   0.359  10.473
 1077SOL     OW 3982   1.041   0.701   9.739
 1077SOL    HW1 3983   1.067   0.697   9.835
 1077SOL    HW2 3984   0.956   0.650   9.725
 1078SOL     OW 3985   0.076   0.811  10.099
 1078SOL    HW1 3986   0.175   0.799  10.108
 1078SOL    HW2 3987   0.052   0.906  10.120
 1079SOL     OW 3988   0.130   1.821  10.881
 1079SOL    HW1 3989   0.120   1.806  10.980
 1079SOL    HW2 3990   0.044   1.857  10.845
 1080SOL     OW 3991   0.865   0.348   9.505
 1080SOL    HW1 3992   0.924   0.411   9.456
 1080SOL    HW2 3993   0.884   0.254   9.476
 1081SOL     OW 3994   1.719   0.585  11.141
 1081SOL    HW1 3995   1.693   0.674  11.105
 1081SOL    HW2 3996   1.717   0.517  11.068
 1082SOL     OW 3997   1.362   1.144   9.855
 1082SOL    HW1 3998   1.445   1.115   9.807
 1082SOL    HW2 3999   1.313   1.211   9.799
 1083SOL     OW 4000   0.550   0.196  10.195
 1083SOL    HW1 4001   0.545   0.191  10.295
 1083SOL    HW2 4002   0.552   0.292  10.166
 1084SOL     OW 4003   1.008   1.456   9.787
 1084SOL    HW1 4004   0.962   1.528   9.735
 1084SOL    HW2 4005   1.004   1.476   9.885
 1085SOL     OW 4006   0.351   1.801  10.163
 1085SOL    HW1 4007   0.401   1.715  10.169
 1085SOL    HW2 4008   0.416   1.878  10.160
 1086SOL     OW 4009   1.795   1.066  10.183
 1086SOL    HW1 4010   1.733   1.051  10.107
 1086SOL    HW2 4011   1.743   1.077  10.268
 1087SOL     OW 4012   1.227   1.550  10.816
 1087SOL    HW1 4013   1.233   1.473  10.880
 1087SOL    HW2 4014   1.175   1.524  10.736
 1088SOL     OW 4015   0.321   0.943   9.552
 1088SOL    HW1 4016   0.403   0.982   9.510
 1088SOL    HW2 4017   0.294   0.861   9.503
 1089SOL     OW 4018   1.458   0.735  10.038
 1089SOL    HW1 4019   1.453   0.670  10.113
 1089SOL    HW2 4020   1.538   0.794  10.051
 1090SOL     OW 4021   0.461   1.266  11.037
 1090SOL    HW1 4022   0.411   1.267  10.951
 1090SOL    HW2 4023   0.398   1.248  11.113
 1091SOL     OW 4024   1.111   1.776   9.547
 1091SOL    HW1 4025   1.051   1.714   9.597
 1091SOL    HW2 4026   1.142   1.732   9.462
 1092SOL     OW 4027   0.202   0.285  10.808
 1092SOL    HW1 4028   0.122   0.345  10.795
 1092SOL    HW2 4029   0.192   0.236  10.894
 1093SOL     OW 4030   1.632   1.377   9.391
 1093SOL    HW1 4031   1.600   1.471   9.381
 1093SOL    HW2 4032   1.556   1.314   9.379
 1094SOL     OW 4033   0.464   1.743   9.633
 1094SOL    HW1 4034   0.497   1.782   9.719
 1094SOL    HW2 4035   0.540   1.736   9.568
 1095SOL     OW 4036   1.400   0.107   9.736
 1095SOL    HW1 4037   1.376   0.070   9.646
 1095SOL    HW2 4038   1.499   0.123   9.740
 1096SOL     OW 4039   0.249   1.785  10.551
 1096SOL    HW1 4040   0.306   1.720  10.601
 1096SOL    HW2 4041   0.233   1.752  10.458
 1097SOL     OW 4042   0.940   1.698  10.214
 1097SOL    HW1 4043   1.020   1.641  10.235
 1097SOL    HW2 4044   0.891   1.658  10.137
 1098SOL     OW 4045   0.382   0.700   9.790
 1098SOL    HW1 4046   0.427   0.610   9.787
 1098SOL    HW2 4047   0.288   0.689   9.823
 1099SOL     OW 4048   1.547   0.222  11.039
 1099SOL    HW1 4049   1.542   0.259  11.131
 1099SOL    HW2 4050   1.475   0.153  11.027
 1100SOL     OW 4051   0.614   0.122   9.427
 1100SOL    HW1 4052   0.712   0.100   9.434
 1100SOL    HW2 4053   0.583   0.105   9.334
 1101SOL     OW 4054   0.781   0.264  11.059
 1101SOL    HW1 4055   0.848   0.203  11.102
 1101SOL    HW2 4056   0.708   0.283  11.124
 1102SOL     OW 4057   0.888   1.514  10.505
 1102SOL    HW1 4058   0.865   1.489  10.411
 1102SOL    HW2 4059   0.949   1.445  10.544
 1103SOL     OW 4060   1.351   0.590  10.743
 1103SOL    HW1 4061   1.379   0.547  10.828
 1103SOL    HW2 4062   1.376   0.686  10.744
 1104SOL     OW 4063   0.803   1.402  10.234
 1104SOL    HW1 4064   0.893   1.416  10.192
 1104SOL    HW2 4065   0.732   1.404  10.163
 1105SOL     OW 4066   0.922   0.503  10.209
 1105SOL    HW1 4067   0.897   0.494  10.113
 1105SOL    HW2 4068   0.970   0.421  10.240
 1106SOL     OW 4069   0.539   0.064   9.822
 1106SOL    HW1 4070   0.458   0.065   9.880
 1106SOL    HW2 4071   0.542   0.147   9.767
 1107SOL     OW 4072   1.434   1.188   9.351
 1107SOL    HW1 4073   1.466   1.112   9.408
 1107SOL    HW2 4074   1.342   1.215   9.381
 1108SOL     OW 4075   0.297   0.035   9.481
 1108SOL    HW1 4076   0.346   0.119   9.460
 1108SOL    HW2 4077   0.359  -0.030   9.526
 1109SOL     OW 4078   0.935   0.236   9.790
 1109SOL    HW1 4079   0.887   0.277   9.712
 1109SOL    HW2 4080   1.034   0.234   9.771
 1110SOL     OW 4081   1.076   0.683  10.774
 1110SOL    HW1 4082   0.996   0.622  10.777
 1110SOL    HW2 4083   1.157   0.630  10.750
 1111SOL     OW 4084   1.227   1.570  10.103
 1111SOL    HW1 4085   1.248   1.644  10.038
 1111SOL    HW2 4086   1.295   1.570  10.176
 1112SOL     OW 4087   0.459   1.152  10.051
 1112SOL    HW1 4088   0.388   1.125  10.116
 1112SOL    HW2 4089   0.433   1.124   9.958
 1113SOL     OW 4090   1.271   1.797   9.901
 1113SOL    HW1 4091   1.315   1.861   9.837
 1113SOL    HW2 4092   1.221   1.849   9.971
 1114SOL     OW 4093   1.032   0.549   9.326
 1114SOL    HW1 4094   0.991   0.631   9.287
 1114SOL    HW2 4095   1.096   0.575   9.399
 1115SOL     OW 4096   0.078   0.556  10.696
 1115SOL    HW1 4097   0.170   0.555  10.655
 1115SOL    HW2 4098   0.072   0.630  10.763
 1116SOL     OW 4099   0.561   0.222  10.457
 1116SOL    HW1 4100   0.599   0.138  10.494
 1116SOL    HW2 4101   0.473   0.241  10.501
 1117SOL     OW 4102   0.866   0.454   9.952
 1117SOL    HW1 4103   0.834   0.526   9.890
 1117SOL    HW2 4104   0.890   0.373   9.899
 1118SOL     OW 4105   1.017   0.039  10.063
 1118SOL    HW1 4106   0.945   0.044   9.994
 1118SOL    HW2 4107   0.993  -0.030  10.132
 1119SOL     OW 4108   1.429   1.173  10.177
 1119SOL    HW1 4109   1.374   1.089  10.170
 1119SOL    HW2 4110   1.455   1.202  10.085
 1120SOL     OW 4111   1.466   0.590  10.302
 1120SOL    HW1 4112   1.436   0.495  10.309
 1120SOL    HW2 4113   1.539   0.606  10.368
 1121SOL     OW 4114   1.857   0.833   9.687
 1121SOL    HW1 4115   1.899   0.769   9.751
 1121SOL    HW2 4116   1.819   0.782   9.609
 1122SOL     OW 4117   0.488   1.385   9.484
 1122SOL    HW1 4118   0.401   1.370   9.531
 1122SOL    HW2 4119   0.471   1.411   9.389
 1123SOL     OW 4120   1.664   1.280   9.967
 1123SOL    HW1 4121   1.763   1.288   9.981
 1123SOL    HW2 4122   1.619   1.364   9.998
 1124SOL     OW 4123   1.390   0.575   9.388
 1124SOL    HW1 4124   1.336   0.554   9.469
 1124SOL    HW2 4125   1.481   0.534   9.397
 1125SOL     OW 4126   0.527   0.256   9.638
 1125SOL    HW1 4127   0.554   0.197   9.563
 1125SOL    HW2 4128   0.527   0.351   9.607
 1126SOL     OW 4129   1.754   1.223  10.898
 1126SOL    HW1 4130   1.845   1.184  10.885
 1126SOL    HW2 4131   1.762   1.319  10.922
 1127SOL     OW 4132   1.064   1.347  10.650
 1127SOL    HW1 4133   0.984   1.324  10.705
 1127SOL    HW2 4134   1.147   1.321  10.699
 1128SOL     OW 4135   1.592   1.629  10.935
 1128SOL    HW1 4136   1.619   1.663  10.845
 1128SOL    HW2 4137   1.671   1.591  10.981
 1129SOL     OW 4138   1.111   1.195  10.410
 1129SOL    HW1 4139   1.071   1.239  10.491
 1129SOL    HW2 4140   1.070   1.232  10.327
 1130SOL     OW 4141   1.638   1.099  10.389
 1130SOL    HW1 4142   1.643   1.180  10.448
 1130SOL    HW2 4143   1.552   1.101  10.338
 1131SOL     OW 4144   0.915   0.089  10.712
 1131SOL    HW1 4145   0.940   0.069  10.617
 1131SOL    HW2 4146   0.987   0.145  10.754
 1132SOL     OW 4147   0.980   1.116  11.029
 1132SOL    HW1 4148   0.881   1.122  11.039
 1132SOL    HW2 4149   1.003   1.036  10.973
 1133SOL     OW 4150   0.705   1.050   9.678
 1133SOL    HW1 4151   0.691   1.057   9.777
 1133SOL    HW2 4152   0.789   0.999   9.660
 1134SOL     OW 4153   0.410   0.813  10.561
 1134SOL    HW1 4154   0.496   0.825  10.611
 1134SOL    HW2 4155   0.368   0.726  10.588
 1135SOL     OW 4156   1.274   0.386  10.572
 1135SOL    HW1 4157   1.295   0.460  10.636
 1135SOL    HW2 4158   1.185   0.403  10.529
 1136SOL     OW 4159   0.064   1.564  10.641
 1136SOL    HW1 4160   0.018   1.646  10.607
 1136SOL    HW2 4161   0.162   1.583  10.650
 1137SOL     OW 4162   0.367   1.100   9.811
 1137SOL    HW1 4163   0.360   1.183   9.755
 1137SOL    HW2 4164   0.371   1.020   9.751
 1138SOL     OW 4165   0.566   0.537  10.175
 1138SOL    HW1 4166   0.578   0.603  10.101
 1138SOL    HW2 4167   0.612   0.571  10.258
 1139SOL     OW 4168   1.252   1.348   9.698
 1139SOL    HW1 4169   1.302   1.425   9.738
 1139SOL    HW2 4170   1.157   1.350   9.730
 1140SOL     OW 4171   1.272   1.445  10.452
 1140SOL    HW1 4172   1.319   1.458  10.539
 1140SOL    HW2 4173   1.206   1.371  10.461
 1141SOL     OW 4174   1.582   0.639   9.782
 1141SOL    HW1 4175   1.551   0.700   9.855
 1141SOL    HW2 4176   1.632   0.691   9.713
 1142SOL     OW 4177   0.354   1.510  10.639
 1142SOL    HW1 4178   0.333   1.466  10.552
 1142SOL    HW2 4179   0.451   1.536  10.642
 1143SOL     OW 4180   0.402   0.751  10.908
 1143SOL    HW1 4181   0.470   0.806  10.861
 1143SOL    HW2 4182   0.442   0.663  10.935
 1144SOL     OW 4183   1.587   0.779  10.980
 1144SOL    HW1 4184   1.495   0.817  10.975
 1144SOL    HW2 4185   1.647   0.826  10.915
 1145SOL     OW 4186   1.013   0.105  11.080
 1145SOL    HW1 4187   1.019   0.190  11.028
 1145SOL    HW2 4188   1.045   0.029  11.023
 1146SOL     OW 4189   0.504   0.050  11.050
 1146SOL    HW1 4190   0.462  -0.007  10.980
 1146SOL    HW2 4191   0.438   0.119  11.082
 1147SOL     OW 4192   0.573   0.870  10.339
 1147SOL    HW1 4193   0.617   0.959  10.330
 1147SOL    HW2 4194   0.510   0.870  10.416
 1148SOL     OW 4195   1.360   0.862  10.355
 1148SOL    HW1 4196   1.285   0.862  10.289
 1148SOL    HW2 4197   1.397   0.770  10.364
 1149SOL     OW 4198   1.209   0.525   9.585
 1149SOL    HW1 4199   1.222   0.441   9.639
 1149SOL    HW2 4200   1.180   0.599   9.645
 1150SOL     OW 4201   0.307   0.213  10.541
 1150SOL    HW1 4202   0.284   0.250  10.631
 1150SOL    HW2 4203   0.277   0.118  10.535
 1151SOL     OW 4204   0.037   1.310  10.592
 1151SOL    HW1 4205   0.090   1.261  10.660
 1151SOL    HW2 4206   0.059   1.408  10.597
 1152SOL     OW 4207   0.732   0.634  10.374
 1152SOL    HW1 4208   0.791   0.608  10.298
 1152SOL    HW2 4209   0.704   0.730  10.363
 1153SOL     OW 4210   1.728   0.935  11.164
 1153SOL    HW1 4211   1.682   0.928  11.075
 1153SOL    HW2 4212   1.666   0.979  11.230
 1154SOL     OW 4213   0.307   0.063   9.928
 1154SOL    HW1 4214   0.296   0.157   9.961
 1154SOL    HW2 4215   0.302   0.000  10.005
 1155SOL     OW 4216   1.622   0.367   9.684
 1155SOL    HW1 4217   1.624   0.291   9.748
 1155SOL    HW2 4218   1.574   0.444   9.724
 1156SOL     OW 4219   1.023   0.766  10.276
 1156SOL    HW1 4220   1.038   0.787  10.372
 1156SOL    HW2 4221   0.993   0.671  10.267
 1157SOL     OW 4222   0.980   1.573  11.010
 1157SOL    HW1 4223   0.960   1.617  10.922
 1157SOL    HW2 4224   1.019   1.482  10.994
 1158SOL     OW 4225   1.859   1.518  10.915
 1158SOL    HW1 4226   1.873   1.545  10.820
 1158SOL    HW2 4227   1.942   1.540  10.968
 1159SOL     OW 4228   0.350   0.898  11.114
 1159SOL    HW1 4229   0.426   0.942  11.162
 1159SOL    HW2 4230   0.385   0.851  11.032
 1160SOL     OW 4231   1.540   0.274   9.435
 1160SOL    HW1 4232   1.479   0.199   9.458
 1160SOL    HW2 4233   1.562   0.326   9.518
 1161SOL     OW 4234   1.303   0.838   9.352
 1161SOL    HW1 4235   1.337   0.745   9.367
 1161SOL    HW2 4236   1.321   0.865   9.257
 1162SOL     OW 4237   1.068   1.333  10.159
 1162SOL    HW1 4238   1.075   1.249  10.104
 1162SOL    HW2 4239   1.130   1.402  10.123
 1163SOL     OW 4240   0.319   0.810  10.259
 1163SOL    HW1 4241   0.412   0.846  10.264
 1163SOL    HW2 4242   0.313   0.725  10.311
 1164SOL     OW 4243   0.339   0.509  10.316
 1164SOL    HW1 4244   0.287   0.426  10.299
 1164SOL    HW2 4245   0.416   0.514  10.252
 1165SOL     OW 4246   1.138   0.380  10.988
 1165SOL    HW1 4247   1.093   0.443  11.052
 1165SOL    HW2 4248   1.231   0.411  10.971
 1166SOL     OW 4249   1.160   0.207  10.787
 1166SOL    HW1 4250   1.160   0.271  10.864
 1166SOL    HW2 4251   1.188   0.255  10.704
 1167SOL     OW 4252   0.008   1.326   9.510
 1167SOL    HW1 4253  -0.085   1.347   9.479
 1167SOL    HW2 4254   0.018   1.227   9.523
 1168SOL     OW 4255   0.088   1.801  10.237
 1168SOL    HW1 4256   0.046   1.715  10.210
 1168SOL    HW2 4257   0.182   1.804  10.203
 1169SOL     OW 4258   0.504   1.568  10.220
 1169SOL    HW1 4259   0.570   1.642  10.229
 1169SOL    HW2 4260   0.548   1.489  10.178
 1170SOL     OW 4261   1.002   0.796  10.548
 1170SOL    HW1 4262   1.043   0.764  10.634
 1170SOL    HW2 4263   0.906   0.769  10.545
 1171SOL     OW 4264   0.040   0.544  10.424
 1171SOL    HW1 4265   0.125   0.511  10.383
 1171SOL    HW2 4266   0.053   0.559  10.522
 1172SOL     OW 4267   0.189   0.520  11.032
 1172SOL    HW1 4268   0.248   0.480  10.962
 1172SOL    HW2 4269   0.131   0.591  10.991
 1173SOL     OW 4270   1.369   0.950  10.970
 1173SOL    HW1 4271   1.408   1.039  10.990
 1173SOL    HW2 4272   1.379   0.930  10.873
 1174SOL     OW 4273   0.815   0.572   9.635
 1174SOL    HW1 4274   0.822   0.483   9.589
 1174SOL    HW2 4275   0.721   0.606   9.627
 1175SOL     OW 4276   1.657   0.604  10.516
 1175SOL    HW1 4277   1.619   0.535  10.578
 1175SOL    HW2 4278   1.739   0.568  10.472
 1176SOL     OW 4279   0.252   1.564  11.054
 1176SOL    HW1 4280   0.222   1.621  11.130
 1176SOL    HW2 4281   0.245   1.467  11.080
 1177SOL     OW 4282   0.671   0.464  10.579
 1177SOL    HW1 4283   0.637   0.375  10.549
 1177SOL    HW2 4284   0.697   0.518  10.499
 1178SOL     OW 4285   0.930   1.678  10.775
 1178SOL    HW1 4286   0.906   1.660  10.680
 1178SOL    HW2 4287   0.960   1.772  10.785
 1179SOL     OW 4288   0.473   0.500   9.501
 1179SOL    HW1 4289   0.534   0.580   9.505
 1179SOL    HW2 4290   0.378   0.531   9.508
 1180SOL     OW 4291   0.159   1.137  10.776
 1180SOL    HW1 4292   0.181   1.076  10.852
 1180SOL    HW2 4293   0.169   1.088  10.690
 1181SOL     OW 4294   1.347   1.059  10.544
 1181SOL    HW1 4295   1.371   0.996  10.470
 1181SOL    HW2 4296   1.257   1.099  10.526
 1182SOL     OW 4297   1.302   0.855   9.619
 1182SOL    HW1 4298   1.216   0.824   9.661
 1182SOL    HW2 4299   1.298   0.841   9.520
 1183SOL     OW 4300   1.252   1.731  10.438
 1183SOL    HW1 4301   1.336   1.736  10.384
 1183SOL    HW2 4302   1.229   1.635  10.456
 1184SOL     OW 4303   0.083   1.258  10.332
 1184SOL    HW1 4304   0.078   1.257  10.432
 1184SOL    HW2 4305   0.000   1.217  10.294
 1185SOL     OW 4306   0.688   1.662  11.026
 1185SOL    HW1 4307   0.632   1.743  11.035
 1185SOL    HW2 4308   0.740   1.666  10.940
 1186SOL     OW 4309   1.726   0.135   9.833
 1186SOL    HW1 4310   1.799   0.118   9.766
 1186SOL    HW2 4311   1.695   0.048   9.871
 1187SOL     OW 4312   1.388   1.573   9.787
 1187SOL    HW1 4313   1.455   1.585   9.713
 1187SOL    HW2 4314   1.348   1.662   9.810
 1188SOL     OW 4315   0.130   1.794  11.161
 1188SOL    HW1 4316   0.089   1.720  11.214
 1188SOL    HW2 4317   0.194   1.845  11.219
 1189SOL     OW 4318   1.280   0.927   9.982
 1189SOL    HW1 4319   1.340   0.846   9.984
 1189SOL    HW2 4320   1.320   0.996   9.922
 1190SOL     OW 4321   0.830   1.273  10.732
 1190SOL    HW1 4322   0.825   1.306  10.827
 1190SOL    HW2 4323   0.744   1.292  10.686
 1191SOL     OW 4324   0.672   1.616   9.464
 1191SOL    HW1 4325   0.681   1.626   9.365
 1191SOL    HW2 4326   0.632   1.527   9.485
 1192SOL     OW 4327   1.650   1.720  10.704
 1192SOL    HW1 4328   1.703   1.730  10.620
 1192SOL    HW2 4329   1.623   1.810  10.738
 1193SOL     OW 4330   1.841   0.175  10.273
 1193SOL    HW1 4331   1.880   0.090  10.237
 1193SOL    HW2 4332   1.743   0.177  10.254
 1194SOL     OW 4333   0.263   0.326  10.030
 1194SOL    HW1 4334   0.184   0.377   9.996
 1194SOL    HW2 4335   0.254   0.311  10.128
 1195SOL     OW 4336   1.194   1.612   9.341
 1195SOL    HW1 4337   1.200   1.519   9.378
 1195SOL    HW2 4338   1.135   1.612   9.261
 1196SOL     OW 4339   0.822   1.002  10.682
 1196SOL    HW1 4340   0.862   1.001  10.590
 1196SOL    HW2 4341   0.832   1.094  10.722
 1197SOL     OW 4342   0.916   0.910   9.601
 1197SOL    HW1 4343   0.979   0.948   9.533
 1197SOL    HW2 4344   0.956   0.827   9.640
 1198SOL     OW 4345   1.504   1.607   9.354
 1198SOL    HW1 4346   1.412   1.644   9.361
 1198SOL    HW2 4347   1.542   1.627   9.264
 1199SOL     OW 4348   0.372   1.288  10.800
 1199SOL    HW1 4349   0.359   1.381  10.766
 1199SOL    HW2 4350   0.288   1.236  10.787
 1200SOL     OW 4351   1.614   1.292  10.599
 1200SOL    HW1 4352   1.674   1.295  10.679
 1200SOL    HW2 4353   1.539   1.356  10.612
 1201SOL     OW 4354   1.039   1.098  10.006
 1201SOL    HW1 4355   0.969   1.051  10.060
 1201SOL    HW2 4356   1.098   1.030   9.963
 1202SOL     OW 4357   1.014   0.236  10.281
 1202SOL    HW1 4358   1.006   0.200  10.188
 1202SOL    HW2 4359   1.012   0.160  10.346
 1203SOL     OW 4360   0.590   1.487   9.801
 1203SOL    HW1 4361   0.632   1.429   9.731
 1203SOL    HW2 4362   0.546   1.566   9.757
 1204SOL     OW 4363   1.709   0.385  10.691
 1204SOL    HW1 4364   1.782   0.454  10.695
 1204SOL    HW2 4365   1.737   0.310  10.632
 1205SOL     OW 4366   0.255   1.348   9.600
 1205SOL    HW1 4367   0.159   1.349   9.573
 1205SOL    HW2 4368   0.267   1.401   9.684
 1206SOL     OW 4369   0.105   1.013  11.036
 1206SOL    HW1 4370   0.028   0.980  11.090
 1206SOL    HW2 4371   0.190   0.983  11.078
 1207SOL     OW 4372   0.672   0.203  10.799
 1207SOL    HW1 4373   0.762   0.187  10.759
 1207SOL    HW2 4374   0.680   0.208  10.898
 1208SOL     OW 4375   0.075   0.345   9.343
 1208SOL    HW1 4376  -0.017   0.317   9.314
 1208SOL    HW2 4377   0.106   0.422   9.287
 1209SOL     OW 4378   1.440   0.856  10.708
 1209SOL    HW1 4379   1.383   0.908  10.645
 1209SOL    HW2 4380   1.536   0.868  10.684
 1210SOL     OW 4381   0.072   0.166   9.628
 1210SOL    HW1 4382   0.055   0.249   9.574
 1210SOL    HW2 4383   0.162   0.129   9.606
 1211SOL     OW 4384   1.183   1.335   9.429
 1211SOL    HW1 4385   1.084   1.324   9.431
 1211SOL    HW2 4386   1.217   1.350   9.522
 1212SOL     OW 4387   0.613   0.842  10.741
 1212SOL    HW1 4388   0.669   0.923  10.724
 1212SOL    HW2 4389   0.672   0.762  10.744
 1213SOL     OW 4390   1.493   1.767  10.269
 1213SOL    HW1 4391   1.526   1.831  10.200
 1213SOL    HW2 4392   1.559   1.761  10.344
 1214SOL     OW 4393   0.716   0.565  11.018
 1214SOL    HW1 4394   0.735   0.630  11.092
 1214SOL    HW2 4395   0.776   0.485  11.027
 1215SOL     OW 4396   1.450   1.220  10.943
 1215SOL    HW1 4397   1.441   1.210  11.042
 1215SOL    HW2 4398   1.546   1.213  10.917
 1216SOL     OW 4399   0.390   1.741  10.870
 1216SOL    HW1 4400   0.299   1.782  10.868
 1216SOL    HW2 4401   0.383   1.647  10.902
 1217SOL     OW 4402   1.674   0.883  10.564
 1217SOL    HW1 4403   1.647   0.794  10.527
 1217SOL    HW2 4404   1.675   0.951  10.491
 1218SOL     OW 4405   1.225   0.325   9.759
 1218SOL    HW1 4406   1.290   0.251   9.748
 1218SOL    HW2 4407   1.245   0.375   9.843
 1219SOL     OW 4408   0.594   0.745   9.962
 1219SOL    HW1 4409   0.644   0.830   9.943
 1219SOL    HW2 4410   0.506   0.747   9.914
 1220SOL     OW 4411   1.777   0.342  10.952
 1220SOL    HW1 4412   1.760   0.373  10.858
 1220SOL    HW2 4413   1.693   0.305  10.990
 1221SOL     OW 4414   1.730   0.934  10.827
 1221SOL    HW1 4415   1.768   1.025  10.842
 1221SOL    HW2 4416   1.722   0.917  10.728
 1222SOL     OW 4417   0.859   1.374   9.326
 1222SOL    HW1 4418   0.813   1.389   9.414
 1222SOL    HW2 4419   0.903   1.459   9.296
 1223SOL     OW 4420   0.661   1.790  10.263
 1223SOL    HW1 4421   0.615   1.878  10.250
 1223SOL    HW2 4422   0.760   1.802  10.256
 1224SOL     OW 4423   0.859   0.956  10.171
 1224SOL    HW1 4424   0.913   0.887  10.219
 1224SOL    HW2 4425   0.827   1.025  10.237
 1225SOL     OW 4426   1.083   0.984   9.397
 1225SOL    HW1 4427   1.060   1.037   9.315
 1225SOL    HW2 4428   1.164   0.928   9.378
 1226SOL     OW 4429   1.861   1.569  10.161
 1226SOL    HW1 4430   1.790   1.557  10.091
 1226SOL    HW2 4431   1.862   1.490  10.221
 1227SOL     OW 4432   0.221   1.314  11.154
 1227SOL    HW1 4433   0.156   1.241  11.133
 1227SOL    HW2 4434   0.225   1.328  11.252
 1228SOL     OW 4435   0.079   1.240   9.963
 1228SOL    HW1 4436   0.078   1.193  10.051
 1228SOL    HW2 4437   0.161   1.212   9.912
 1229SOL     OW 4438   0.672   1.391  10.934
 1229SOL    HW1 4439   0.594   1.341  10.972
 1229SOL    HW2 4440   0.669   1.486  10.965
 1230SOL     OW 4441   1.824   0.192  10.537
 1230SOL    HW1 4442   1.820   0.102  10.581
 1230SOL    HW2 4443   1.827   0.181  10.438
 1231SOL     OW 4444   0.428   0.424   9.830
 1231SOL    HW1 4445   0.458   0.352   9.768
 1231SOL    HW2 4446   0.389   0.384   9.913
 1232SOL     OW 4447   1.705   1.487  10.414
 1232SOL    HW1 4448   1.612   1.462  10.387
 1232SOL    HW2 4449   1.731   1.437  10.496
 1233SOL     OW 4450   0.317   0.547  10.590
 1233SOL    HW1 4451   0.355   0.488  10.662
 1233SOL    HW2 4452   0.357   0.521  10.502
 1234SOL     OW 4453   0.812   1.586   9.997
 1234SOL    HW1 4454   0.844   1.596   9.903
 1234SOL    HW2 4455   0.733   1.524   9.999
 1235SOL     OW 4456   1.424   0.214  10.422
 1235SOL    HW1 4457   1.476   0.149  10.477
 1235SOL    HW2 4458   1.375   0.277  10.483
 1236SOL     OW 4459   1.001   0.034  10.464
 1236SOL    HW1 4460   0.938  -0.038  10.433
 1236SOL    HW2 4461   1.094  -0.002  10.464
 1237SOL     OW 4462   0.770   1.330   9.611
 1237SOL    HW1 4463   0.724   1.243   9.628
 1237SOL    HW2 4464   0.861   1.327   9.652
 1238SOL     OW 4465   0.618   1.567  10.594
 1238SOL    HW1 4466   0.613   1.649  10.651
 1238SOL    HW2 4467   0.707   1.564  10.549
 1239SOL     OW 4468   1.352   0.052   9.478
 1239SOL    HW1 4469   1.387   0.011   9.394
 1239SOL    HW2 4470   1.262   0.014   9.498
 1240SOL     OW 4471   1.300   0.453  10.001
 1240SOL    HW1 4472   1.241   0.533  10.005
 1240SOL    HW2 4473   1.315   0.418  10.094
 1241SOL     OW 4474   1.593   0.221  10.192
 1241SOL    HW1 4475   1.509   0.220  10.246
 1241SOL    HW2 4476   1.595   0.304  10.136
 1242SOL     OW 4477   0.039   1.077   9.610
 1242SOL    HW1 4478   0.138   1.066   9.601
 1242SOL    HW2 4479  -0.001   0.991   9.642
 1243SOL     OW 4480   0.875   1.646   9.647
 1243SOL    HW1 4481   0.798   1.611   9.593
 1243SOL    HW2 4482   0.843   1.717   9.709
 1244SOL     OW 4483   0.230   0.628  11.285
 1244SOL    HW1 4484   0.137   0.626  11.322
 1244SOL    HW2 4485   0.231   0.589  11.193
 1245SOL     OW 4486   0.225   0.275  12.168
 1245SOL    HW1 4487   0.260   0.258  12.260
 1245SOL    HW2 4488   0.137   0.230  12.156
 1246SOL     OW 4489   0.019   0.368  11.819
 1246SOL    HW1 4490  -0.063   0.411  11.858
 1246SOL    HW2 4491  -0.009   0.295  11.756
 1247SOL     OW 4492   0.569   1.275  12.337
 1247SOL    HW1 4493   0.476   1.268  12.300
 1247SOL    HW2 4494   0.580   1.364  12.381
 1248SOL     OW 4495   1.555   1.511  11.875
 1248SOL    HW1 4496   1.498   1.495  11.956
 1248SOL    HW2 4497   1.496   1.521  11.795
 1249SOL     OW 4498   1.135   0.703  11.889
 1249SOL    HW1 4499   1.192   0.781  11.864
 1249SOL    HW2 4500   1.075   0.729  11.965
 1250SOL     OW 4501   1.755   0.607  11.403
 1250SOL    HW1 4502   1.743   0.594  11.304
 1250SOL    HW2 4503   1.725   0.526  11.452
 1251SOL     OW 4504   0.768   1.144  12.195
 1251SOL    HW1 4505   0.690   1.161  12.255
 1251SOL    HW2 4506   0.802   1.231  12.159
 1252SOL     OW 4507   0.850   0.798  12.995
 1252SOL    HW1 4508   0.846   0.874  13.060
 1252SOL    HW2 4509   0.872   0.834  12.904
 1253SOL     OW 4510   0.685   1.012  11.837
 1253SOL    HW1 4511   0.754   0.996  11.907
 1253SOL    HW2 4512   0.612   1.069  11.875
 1254SOL     OW 4513   0.686   1.161  12.975
 1254SOL    HW1 4514   0.746   1.240  12.989
 1254SOL    HW2 4515   0.600   1.192  12.934
 1255SOL     OW 4516   0.335   1.435  12.233
 1255SOL    HW1 4517   0.257   1.404  12.180
 1255SOL    HW2 4518   0.393   1.493  12.176
 1256SOL     OW 4519   1.460   1.505  12.511
 1256SOL    HW1 4520   1.484   1.599  12.537
 1256SOL    HW2 4521   1.444   1.451  12.593
 1257SOL     OW 4522   0.438   0.392  12.671
 1257SOL    HW1 4523   0.520   0.336  12.680
 1257SOL    HW2 4524   0.357   0.334  12.675
 1258SOL     OW 4525   1.603   0.447  11.909
 1258SOL    HW1 4526   1.529   0.493  11.859
 1258SOL    HW2 4527   1.654   0.515  11.962
 1259SOL     OW 4528   0.231   1.713  11.655
 1259SOL    HW1 4529   0.265   1.790  11.709
 1259SOL    HW2 4530   0.275   1.713  11.565
 1260SOL     OW 4531   1.127   1.341  12.862
 1260SOL    HW1 4532   1.174   1.341  12.950
 1260SOL    HW2 4533   1.079   1.254  12.851
 1261SOL     OW 4534   0.230   1.434  11.710
 1261SOL    HW1 4535   0.204   1.530  11.710
 1261SOL    HW2 4536   0.159   1.380  11.755
 1262SOL     OW 4537   0.240   1.091  12.058
 1262SOL    HW1 4538   0.254   1.007  12.110
 1262SOL    HW2 4539   0.185   1.155  12.113
 1263SOL     OW 4540   0.620   1.786  12.611
 1263SOL    HW1 4541   0.528   1.769  12.646
 1263SOL    HW2 4542   0.648   1.878  12.637
 1264SOL     OW 4543   0.606   0.964  11.295
 1264SOL    HW1 4544   0.613   1.048  11.241
 1264SOL    HW2 4545   0.652   0.977  11.383
 1265SOL     OW 4546   1.594   0.114  12.652
 1265SOL    HW1 4547   1.576   0.181  12.580
 1265SOL    HW2 4548   1.591   0.160  12.741
 1266SOL     OW 4549   0.122   0.643  11.735
 1266SOL    HW1 4550   0.077   0.555  11.752
 1266SOL    HW2 4551   0.121   0.697  11.819
 1267SOL     OW 4552   0.027   1.596  11.289
 1267SOL    HW1 4553   0.008   1.500  11.310
 1267SOL    HW2 4554  -0.006   1.654  11.364
 1268SOL     OW 4555   1.689   0.922  11.784
 1268SOL    HW1 4556   1.784   0.893  11.792
 1268SOL    HW2 4557   1.681   0.987  11.709
 1269SOL     OW 4558   1.641   1.108  11.604
 1269SOL    HW1 4559   1.727   1.110  11.552
 1269SOL    HW2 4560   1.655   1.155  11.692
 1270SOL     OW 4561   0.113   0.737  12.769
 1270SOL    HW1 4562   0.201   0.724  12.814
 1270SOL    HW2 4563   0.100   0.834  12.747
 1271SOL     OW 4564   0.613   1.365  11.898
 1271SOL    HW1 4565   0.564   1.278  11.907
 1271SOL    HW2 4566   0.590   1.408  11.811
 1272SOL     OW 4567   1.293   1.228  12.595
 1272SOL    HW1 4568   1.330   1.155  12.537
 1272SOL    HW2 4569   1.345   1.233  12.680
 1273SOL     OW 4570   0.809   0.004  11.674
 1273SOL    HW1 4571   0.849   0.095  11.665
 1273SOL    HW2 4572   0.709   0.012  11.680
 1274SOL     OW 4573   0.197   0.976  12.436
 1274SOL    HW1 4574   0.286   0.931  12.422
 1274SOL    HW2 4575   0.124   0.911  12.417
 1275SOL     OW 4576   1.525   0.999  11.362
 1275SOL    HW1 4577   1.462   0.923  11.375
 1275SOL    HW2 4578   1.573   1.017  11.448
 1276SOL     OW 4579   1.187   1.792  12.788
 1276SOL    HW1 4580   1.211   1.852  12.712
 1276SOL    HW2 4581   1.194   1.697  12.758
 1277SOL     OW 4582   0.317   0.251  12.973
 1277SOL    HW1 4583   0.388   0.322  12.979
 1277SOL    HW2 4584   0.229   0.290  13.001
 1278SOL     OW 4585   1.466   1.417  12.125
 1278SOL    HW1 4586   1.407   1.423  12.205
 1278SOL    HW2 4587   1.451   1.329  12.079
 1279SOL     OW 4588   1.667   1.714  11.744
 1279SOL    HW1 4589   1.626   1.691  11.656
 1279SOL    HW2 4590   1.649   1.640  11.809
 1280SOL     OW 4591   0.598   0.729  11.442
 1280SOL    HW1 4592   0.622   0.798  11.374
 1280SOL    HW2 4593   0.520   0.762  11.496
 1281SOL     OW 4594   1.281   0.345  12.116
 1281SOL    HW1 4595   1.195   0.295  12.103
 1281SOL    HW2 4596   1.343   0.291  12.172
 1282SOL     OW 4597   1.576   1.662  11.479
 1282SOL    HW1 4598   1.665   1.708  11.482
 1282SOL    HW2 4599   1.555   1.638  11.384
 1283SOL     OW 4600   0.807   0.605  12.637
 1283SOL    HW1 4601   0.760   0.602  12.726
 1283SOL    HW2 4602   0.756   0.550  12.571
 1284SOL     OW 4603   1.394   0.469  12.846
 1284SOL    HW1 4604   1.374   0.512  12.934
 1284SOL    HW2 4605   1.472   0.407  12.855
 1285SOL     OW 4606   0.973   0.890  12.744
 1285SOL    HW1 4607   1.019   0.806  12.715
 1285SOL    HW2 4608   0.917   0.924  12.669
 1286SOL     OW 4609   0.991   0.410  12.414
 1286SOL    HW1 4610   0.914   0.444  12.468
 1286SOL    HW2 4611   0.957   0.359  12.335
 1287SOL     OW 4612   1.041   0.701  11.601
 1287SOL    HW1 4613   1.067   0.697  11.697
 1287SOL    HW2 4614   0.956   0.650  11.587
 1288SOL     OW 4615   0.076   0.811  11.961
 1288SOL    HW1 4616   0.175   0.799  11.970
 1288SOL    HW2 4617   0.052   0.906  11.982
 1289SOL     OW 4618   0.130   1.821  12.743
 1289SOL    HW1 4619   0.120   1.806  12.842
 1289SOL    HW2 4620   0.044   1.857  12.707
 1290SOL     OW 4621   0.865   0.348  11.367
 1290SOL    HW1 4622   0.924   0.411  11.318
 1290SOL    HW2 4623   0.884   0.254  11.338
 1291SOL     OW 4624   1.719   0.585  13.003
 1291SOL    HW1 4625   1.693   0.674  12.967
 1291SOL    HW2 4626   1.717   0.517  12.930
 1292SOL     OW 4627   1.362   1.144  11.717
 1292SOL    HW1 4628   1.445   1.115  11.669
 1292SOL    HW2 4629   1.313   1.211  11.661
 1293SOL     OW 4630   0.550   0.196  12.057
 1293SOL    HW1 4631   0.545   0.191  12.157
 1293SOL    HW2 4632   0.552   0.292  12.028
 1294SOL     OW 4633   1.008   1.456  11.649
 1294SOL    HW1 4634   0.962   1.528  11.597
 1294SOL    HW2 4635   1.004   1.476  11.747
 1295SOL     OW 4636   0.351   1.801  12.025
 1295SOL    HW1 4637   0.401   1.715  12.031
 1295SOL    HW2 4638   0.416   1.878  12.022
 1296SOL     OW 4639   1.795   1.066  12.045
 1296SOL    HW1 4640   1.733   1.051  11.969
 1296SOL    HW2 4641   1.743   1.077  12.130
 1297SOL     OW 4642   1.227   1.550  12.678
 1297SOL    HW1 4643   1.233   1.473  12.742
 1297SOL    HW2 4644   1.175   1.524  12.598
 1298SOL     OW 4645   0.321   0.943  11.414
 1298SOL    HW1 4646   0.403   0.982  11.372
 1298SOL    HW2 4647   0.294   0.861  11.365
 1299SOL     OW 4648   1.458   0.735  11.900
 1299SOL    HW1 4649   1.453   0.670  11.975
 1299SOL    HW2 4650   1.538   0.794  11.913
 1300SOL     OW 4651   0.461   1.266  12.899
 1300SOL    HW1 4652   0.411   1.267  12.813
 1300SOL    HW2 4653   0.398   1.248  12.975
 1301SOL     OW 4654   1.111   1.776  11.409
 1301SOL    HW1 4655   1.051   1.714  11.459
 1301SOL    HW2 4656   1.142   1.732  11.324
 1302SOL     OW 4657   0.202   0.285  12.670
 1302SOL    HW1 4658   0.122   0.345  12.657
 1302SOL    HW2 4659   0.192   0.236  12.756
 1303SOL     OW 4660   1.632   1.377  11.253
 1303SOL    HW1 4661   1.600   1.471  11.243
 1303SOL    HW2 4662   1.556   1.314  11.241
 1304SOL     OW 4663   0.464   1.743  11.495
 1304SOL    HW1 4664   0.497   1.782  11.581
 1304SOL    HW2 4665   0.540   1.736  11.430
 1305SOL     OW 4666   1.400   0.107  11.598
 1305SOL    HW1 4667   1.376   0.070  11.508
 1305SOL    HW2 4668   1.499   0.123  11.602
 1306SOL     OW 4669   0.249   1.785  12.413
 1306SOL    HW1 4670   0.306   1.720  12.463
 1306SOL    HW2 4671   0.233   1.752  12.320
 1307SOL     OW 4672   0.940   1.698  12.076
 1307SOL    HW1 4673   1.020   1.641  12.097
 1307SOL    HW2 4674   0.891   1.658  11.999
 1308SOL     OW 4675   0.382   0.700  11.652
 1308SOL    HW1 4676   0.427   0.610  11.649
 1308SOL    HW2 4677   0.288   0.689  11.685
 1309SOL     OW 4678   1.547   0.222  12.901
 1309SOL    HW1 4679   1.542   0.259  12.993
 1309SOL    HW2 4680   1.475   0.153  12.889
 1310SOL     OW 4681   0.614   0.122  11.289
 1310SOL    HW1 4682   0.712   0.100  11.296
 1310SOL    HW2 4683   0.583   0.105  11.196
 1311SOL     OW 4684   0.781   0.264  12.921
 1311SOL    HW1 4685   0.848   0.203  12.964
 1311SOL    HW2 4686   0.708   0.283  12.986
 1312SOL     OW 4687   0.888   1.514  12.367
 1312SOL    HW1 4688   0.865   1.489  12.273
 1312SOL    HW2 4689   0.949   1.445  12.406
 1313SOL     OW 4690   1.351   0.590  12.605
 1313SOL    HW1 4691   1.379   0.547  12.690
 1313SOL    HW2 4692   1.376   0.686  12.606
 1314SOL     OW 4693   0.803   1.402  12.096
 1314SOL    HW1 4694   0.893   1.416  12.054
 1314SOL    HW2 4695   0.732   1.404  12.025
 1315SOL     OW 4696   0.922   0.503  12.071
 1315SOL    HW1 4697   0.897   0.494  11.975
 1315SOL    HW2 4698   0.970   0.421  12.102
 1316SOL     OW 4699   0.539   0.064  11.684
 1316SOL    HW1 4700   0.458   0.065  11.742
 1316SOL    HW2 4701   0.542   0.147  11.629
 1317SOL     OW 4702   1.434   1.188  11.213
 1317SOL    HW1 4703   1.466   1.112  11.270
 1317SOL    HW2 4704   1.342   1.215  11.243
 1318SOL     OW 4705   0.297   0.035  11.343
 1318SOL    HW1 4706   0.346   0.119  11.322
 1318SOL    HW2 4707   0.359  -0.030  11.388
 1319SOL     OW 4708   0.935   0.236  11.652
 1319SOL    HW1 4709   0.887   0.277  11.574
 1319SOL    HW2 4710   1.034   0.234  11.633
 1320SOL     OW 4711   1.076   0.683  12.636
 1320SOL    HW1 4712   0.996   0.622  12.639
 1320SOL    HW2 4713   1.157   0.630  12.612
 1321SOL     OW 4714   1.227   1.570  11.965
 1321SOL    HW1 4715   1.248   1.644  11.900
 1321SOL    HW2 4716   1.295   1.570  12.038
 1322SOL     OW 4717   0.459   1.152  11.913
 1322SOL    HW1 4718   0.388   1.125  11.978
 1322SOL    HW2 4719   0.433   1.124  11.820
 1323SOL     OW 4720   1.271   1.797  11.763
 1323SOL    HW1 4721   1.315   1.861  11.699
 1323SOL    HW2 4722   1.221   1.849  11.833
 1324SOL     OW 4723   1.032   0.549  11.188
 1324SOL    HW1 4724   0.991   0.631  11.149
 1324SOL    HW2 4725   1.096   0.575  11.261
 1325SOL     OW 4726   0.078   0.556  12.558
 1325SOL    HW1 4727   0.170   0.555  12.517
 1325SOL    HW2 4728   0.072   0.630  12.625
 1326SOL     OW 4729   0.561   0.222  12.319
 1326SOL    HW1 4730   0.599   0.138  12.356
 1326SOL    HW2 4731   0.473   0.241  12.363
 1327SOL     OW 4732   0.866   0.454  11.814
 1327SOL    HW1 4733   0.834   0.526  11.752
 1327SOL    HW2 4734   0.890   0.373  11.761
 1328SOL     OW 4735   1.017   0.039  11.925
 1328SOL    HW1 4736   0.945   0.044  11.856
 1328SOL    HW2 4737   0.993  -0.030  11.994
 1329SOL     OW 4738   1.429   1.173  12.039
 1329SOL    HW1 4739   1.374   1.089  12.032
 1329SOL    HW2 4740   1.455   1.202  11.947
 1330SOL     OW 4741   1.466   0.590  12.164
 1330SOL    HW1 4742   1.436   0.495  12.171
 1330SOL    HW2 4743   1.539   0.606  12.230
 1331SOL     OW 4744   1.857   0.833  11.549
 1331SOL    HW1 4745   1.899   0.769  11.613
 1331SOL    HW2 4746   1.819   0.782  11.471
 1332SOL     OW 4747   0.488   1.385  11.346
 1332SOL    HW1 4748   0.401   1.370  11.393
 1332SOL    HW2 4749   0.471   1.411  11.251
 1333SOL     OW 4750   1.664   1.280  11.829
 1333SOL    HW1 4751   1.763   1.288  11.843
 1333SOL    HW2 4752   1.619   1.364  11.860
 1334SOL     OW 4753   1.390   0.575  11.250
 1334SOL    HW1 4754   1.336   0.554  11.331
 1334SOL    HW2 4755   1.481   0.534  11.259
 1335SOL     OW 4756   0.527   0.256  11.500
 1335SOL    HW1 4757   0.554   0.197  11.425
 1335SOL    HW2 4758   0.527   0.351  11.469
 1336SOL     OW 4759   1.754   1.223  12.760
 1336SOL    HW1 4760   1.845   1.184  12.747
 1336SOL    HW2 4761   1.762   1.319  12.784
 1337SOL     OW 4762   1.064   1.347  12.512
 1337SOL    HW1 4763   0.984   1.324  12.567
 1337SOL    HW2 4764   1.147   1.321  12.561
 1338SOL     OW 4765   1.592   1.629  12.797
 1338SOL    HW1 4766   1.619   1.663  12.707
 1338SOL    HW2 4767   1.671   1.591  12.843
 1339SOL     OW 4768   1.111   1.195  12.272
 1339SOL    HW1 4769   1.071   1.239  12.353
 1339SOL    HW2 4770   1.070   1.232  12.189
 1340SOL     OW 4771   1.638   1.099  12.251
 1340SOL    HW1 4772   1.643   1.180  12.310
 1340SOL    HW2 4773   1.552   1.101  12.200
 1341SOL     OW 4774   0.915   0.089  12.574
 1341SOL    HW1 4775   0.940   0.069  12.479
 1341SOL    HW2 4776   0.987   0.145  12.616
 1342SOL     OW 4777   0.980   1.116  12.891
 1342SOL    HW1 4778   0.881   1.122  12.901
 1342SOL    HW2 4779   1.003   1.036  12.835
 1343SOL     OW 4780   0.705   1.050  11.540
 1343SOL    HW1 4781   0.691   1.057  11.639
 1343SOL    HW2 4782   0.789   0.999  11.522
 1344SOL     OW 4783   0.410   0.813  12.423
 1344SOL    HW1 4784   0.496   0.825  12.473
 1344SOL    HW2 4785   0.368   0.726  12.450
 1345SOL     OW 4786   1.274   0.386  12.434
 1345SOL    HW1 4787   1.295   0.460  12.498
 1345SOL    HW2 4788   1.185   0.403  12.391
 1346SOL     OW 4789   0.064   1.564  12.503
 1346SOL    HW1 4790   0.018   1.646  12.469
 1346SOL    HW2 4791   0.162   1.583  12.512
 1347SOL     OW 4792   0.367   1.100  11.673
 1347SOL    HW1 4793   0.360   1.183  11.617
 1347SOL    HW2 4794   0.371   1.020  11.613
 1348SOL     OW 4795   0.566   0.537  12.037
 1348SOL    HW1 4796   0.578   0.603  11.963
 1348SOL    HW2 4797   0.612   0.571  12.120
 1349SOL     OW 4798   1.252   1.348  11.560
 1349SOL    HW1 4799   1.302   1.425  11.600
 1349SOL    HW2 4800   1.157   1.350  11.592
 1350SOL     OW 4801   1.272   1.445  12.314
 1350SOL    HW1 4802   1.319   1.458  12.401
 1350SOL    HW2 4803   1.206   1.371  12.323
 1351SOL     OW 4804   1.582   0.639  11.644
 1351SOL    HW1 4805   1.551   0.700  11.717
 1351SOL    HW2 4806   1.632   0.691  11.575
 1352SOL     OW 4807   0.354   1.510  12.501
 1352SOL    HW1 4808   0.333   1.466  12.414
 1352SOL    HW2 4809   0.451   1.536  12.504
 1353SOL     OW 4810   0.402   0.751  12.770
 1353SOL    HW1 4811   0.470   0.806  12.723
 1353SOL    HW2 4812   0.442   0.663  12.797
 1354SOL     OW 4813   1.587   0.779  12.842
 1354SOL    HW1 4814   1.495   0.817  12.837
 1354SOL    HW2 4815   1.647   0.826  12.777
 1355SOL     OW 4816   1.013   0.105  12.942
 1355SOL    HW1 4817   1.019   0.190  12.890
 1355SOL    HW2 4818   1.045   0.029  12.885
 1356SOL     OW 4819   0.504   0.050  12.912
 1356SOL    HW1 4820   0.462  -0.007  12.842
 1356SOL    HW2 4821   0.438   0.119  12.944
 1357SOL     OW 4822   0.573   0.870  12.201
 1357SOL    HW1 4823   0.617   0.959  12.192
 1357SOL    HW2 4824   0.510   0.870  12.278
 1358SOL     OW 4825   1.360   0.862  12.217
 1358SOL    HW1 4826   1.285   0.862  12.151
 1358SOL    HW2 4827   1.397   0.770  12.226
 1359SOL     OW 4828   1.209   0.525  11.447
 1359SOL    HW1 4829   1.222   0.441  11.501
 1359SOL    HW2 4830   1.180   0.599  11.507
 1360SOL     OW 4831   0.307   0.213  12.403
 1360SOL    HW1 4832   0.284   0.250  12.493
 1360SOL    HW2 4833   0.277   0.118  12.397
 1361SOL     OW 4834   0.037   1.310  12.454
 1361SOL    HW1 4835   0.090   1.261  12.522
 1361SOL    HW2 4836   0.059   1.408  12.459
 1362SOL     OW 4837   0.732   0.634  12.236
 1362SOL    HW1 4838   0.791   0.608  12.160
 1362SOL    HW2 4839   0.704   0.730  12.225
 1363SOL     OW 4840   1.728   0.935  13.026
 1363SOL    HW1 4841   1.682   0.928  12.937
 1363SOL    HW2 4842   1.666   0.979  13.092
 1364SOL     OW 4843   0.307   0.063  11.790
 1364SOL    HW1 4844   0.296   0.157  11.823
 1364SOL    HW2 4845   0.302   0.000  11.867
 1365SOL     OW 4846   1.622   0.367  11.546
 1365SOL    HW1 4847   1.624   0.291  11.610
 1365SOL    HW2 4848   1.574   0.444  11.586
 1366SOL     OW 4849   1.023   0.766  12.138
 1366SOL    HW1 4850   1.038   0.787  12.234
 1366SOL    HW2 4851   0.993   0.671  12.129
 1367SOL     OW 4852   0.980   1.573  12.872
 1367SOL    HW1 4853   0.960   1.617  12.784
 1367SOL    HW2 4854   1.019   1.482  12.856
 1368SOL     OW 4855   1.859   1.518  12.777
 1368SOL    HW1 4856   1.873   1.545  12.682
 1368SOL    HW2 4857   1.942   1.540  12.830
 1369SOL     OW 4858   0.350   0.898  12.976
 1369SOL    HW1 4859   0.426   0.942  13.024
 1369SOL    HW2 4860   0.385   0.851  12.894
 1370SOL     OW 4861   1.540   0.274  11.297
 1370SOL    HW1 4862   1.479   0.199  11.320
 1370SOL    HW2 4863   1.562   0.326  11.380
 1371SOL     OW 4864   1.303   0.838  11.214
 1371SOL    HW1 4865   1.337   0.745  11.229
 1371SOL    HW2 4866   1.321   0.865  11.119
 1372SOL     OW 4867   1.068   1.333  12.021
 1372SOL    HW1 4868   1.075   1.249  11.966
 1372SOL    HW2 4869   1.130   1.402  11.985
 1373SOL     OW 4870   0.319   0.810  12.121
 1373SOL    HW1 4871   0.412   0.846  12.126
 1373SOL    HW2 4872   0.313   0.725  12.173
 1374SOL     OW 4873   0.339   0.509  12.178
 1374SOL    HW1 4874   0.287   0.426  12.161
 1374SOL    HW2 4875   0.416   0.514  12.114
 1375SOL     OW 4876   1.138   0.380  12.850
 1375SOL    HW1 4877   1.093   0.443  12.914
 1375SOL    HW2 4878   1.231   0.411  12.833
 1376SOL     OW 4879   1.160   0.207  12.649
 1376SOL    HW1 4880   1.160   0.271  12.726
 1376SOL    HW2 4881   1.188   0.255  12.566
 1377SOL     OW 4882   0.008   1.326  11.372
 1377SOL    HW1 4883  -0.085   1.347  11.341
 1377SOL    HW2 4884   0.018   1.227  11.385
 1378SOL     OW 4885   0.088   1.801  12.099
 1378SOL    HW1 4886   0.046   1.715  12.072
 1378SOL    HW2 4887   0.182   1.804  12.065
 1379SOL     OW 4888   0.504   1.568  12.082
 1379SOL    HW1 4889   0.570   1.642  12.091
 1379SOL    HW2 4890   0.548   1.489  12.040
 1380SOL     OW 4891   1.002   0.796  12.410
 1380SOL    HW1 4892   1.043   0.764  12.496
 1380SOL    HW2 4893   0.906   0.769  12.407
 1381SOL     OW 4894   0.040   0.544  12.286
 1381SOL    HW1 4895   0.125   0.511  12.245
 1381SOL    HW2 4896   0.053   0.559  12.384
 1382SOL     OW 4897   0.189   0.520  12.894
 1382SOL    HW1 4898   0.248   0.480  12.824
 1382SOL    HW2 4899   0.131   0.591  12.853
 1383SOL     OW 4900   1.369   0.950  12.832
 1383SOL    HW1 4901   1.408   1.039  12.852
 1383SOL    HW2 4902   1.379   0.930  12.735
 1384SOL     OW 4903   0.815   0.572  11.497
 1384SOL    HW1 4904   0.822   0.483  11.451
 1384SOL    HW2 4905   0.721   0.606  11.489
 1385SOL     OW 4906   1.657   0.604  12.378
 1385SOL    HW1 4907   1.619   0.535  12.440
 1385SOL    HW2 4908   1.739   0.568  12.334
 1386SOL     OW 4909   0.252   1.564  12.916
 1386SOL    HW1 4910   0.222   1.621  12.992
 1386SOL    HW2 4911   0.245   1.467  12.942
 1387SOL     OW 4912   0.671   0.464  12.441
 1387SOL    HW1 4913   0.637   0.375  12.411
 1387SOL    HW2 4914   0.697   0.518  12.361
 1388SOL     OW 4915   0.930   1.678  12.637
 1388SOL    HW1 4916   0.906   1.660  12.542
 1388SOL    HW2 4917   0.960   1.772  12.647
 1389SOL     OW 4918   0.473   0.500  11.363
 1389SOL    HW1 4919   0.534   0.580  11.367
 1389SOL    HW2 4920   0.378   0.531  11.370
 1390SOL     OW 4921   0.159   1.137  12.638
 1390SOL    HW1 4922   0.181   1.076  12.714
 1390SOL    HW2 4923   0.169   1.088  12.552
 1391SOL     OW 4924   1.347   1.059  12.406
 1391SOL    HW1 4925   1.371   0.996  12.332
 1391SOL    HW2 4926   1.257   1.099  12.388
 1392SOL     OW 4927   1.302   0.855  11.481
 1392SOL    HW1 4928   1.216   0.824  11.523
 1392SOL    HW2 4929   1.298   0.841  11.382
 1393SOL     OW 4930   1.252   1.731  12.300
 1393SOL    HW1 4931   1.336   1.736  12.246
 1393SOL    HW2 4932   1.229   1.635  12.318
 1394SOL     OW 4933   0.083   1.258  12.194
 1394SOL    HW1 4934   0.078   1.257  12.294
 1394SOL    HW2 4935   0.000   1.217  12.156
 1395SOL     OW 4936   0.688   1.662  12.888
 1395SOL    HW1 4937   0.632   1.743  12.897
 1395SOL    HW2 4938   0.740   1.666  12.802
 1396SOL     OW 4939   1.726   0.135  11.695
 1396SOL    HW1 4940   1.799   0.118  11.628
 1396SOL    HW2 4941   1.695   0.048  11.733
 1397SOL     OW 4942   1.388   1.573  11.649
 1397SOL    HW1 4943   1.455   1.585  11.575
 1397SOL    HW2 4944   1.348   1.662  11.672
 1398SOL     OW 4945   0.130   1.794  13.023
 1398SOL    HW1 4946   0.089   1.720  13.076
 1398SOL    HW2 4947   0.194   1.845  13.081
 1399SOL     OW 4948   1.280   0.927  11.844
 1399SOL    HW1 4949   1.340   0.846  11.846
 1399SOL    HW2 4950   1.320   0.996  11.784
 1400SOL     OW 4951   0.830   1.273  12.594
 1400SOL    HW1 4952   0.825   1.306  12.689
 1400SOL    HW2 4953   0.744   1.292  12.548
 1401SOL     OW 4954   0.672   1.616  11.326
 1401SOL    HW1 4955   0.681   1.626  11.227
 1401SOL    HW2 4956   0.632   1.527  11.347
 1402SOL     OW 4957   1.650   1.720  12.566
 1402SOL    HW1 4958   1.703   1.730  12.482
 1402SOL    HW2 4959   1.623   1.810  12.600
 1403SOL     OW 4960   1.841   0.175  12.135
 1403SOL    HW1 4961   1.880   0.090  12.099
 1403SOL    HW2 4962   1.743   0.177  12.116
 1404SOL     OW 4963   0.263   0.326  11.892
 1404SOL    HW1 4964   0.184   0.377  11.858
 1404SOL    HW2 4965   0.254   0.311  11.990
 1405SOL     OW 4966   1.194   1.612  11.203
 1405SOL    HW1 4967   1.200   1.519  11.240
 1405SOL    HW2 4968   1.135   1.612  11.123
 1406SOL     OW 4969   0.822   1.002  12.544
 1406SOL    HW1 4970   0.862   1.001  12.452
 1406SOL    HW2 4971   0.832   1.094  12.584
 1407SOL     OW 4972   0.916   0.910  11.463
 1407SOL    HW1 4973   0.979   0.948  11.395
 1407SOL    HW2 4974   0.956   0.827  11.502
 1408SOL     OW 4975   1.504   1.607  11.216
 1408SOL    HW1 4976   1.412   1.644  11.223
 1408SOL    HW2 4977   1.542   1.627  11.126
 1409SOL     OW 4978   0.372   1.288  12.662
 1409SOL    HW1 4979   0.359   1.381  12.628
 1409SOL    HW2 4980   0.288   1.236  12.649
 1410SOL     OW 4981   1.614   1.292  12.461
 1410SOL    HW1 4982   1.674   1.295  12.541
 1410SOL    HW2 4983   1.539   1.356  12.474
 1411SOL     OW 4984   1.039   1.098  11.868
 1411SOL    HW1 4985   0.969   1.051  11.922
 1411SOL    HW2 4986   1.098   1.030  11.825
 1412SOL     OW 4987   1.014   0.236  12.143
 1412SOL    HW1 4988   1.006   0.200  12.050
 1412SOL    HW2 4989   1.012   0.160  12.208
 1413SOL     OW 4990   0.590   1.487  11.663
 1413SOL    HW1 4991   0.632   1.429  11.593
 1413SOL    HW2 4992   0.546   1.566  11.619
 1414SOL     OW 4993   1.709   0.385  12.553
 1414SOL    HW1 4994   1.782   0.454  12.557
 1414SOL    HW2 4995   1.737   0.310  12.494
 1415SOL     OW 4996   0.255   1.348  11.462
 1415SOL    HW1 4997   0.159   1.349  11.435
 1415SOL    HW2 4998   0.267   1.401  11.546
 1416SOL     OW 4999   0.105   1.013  12.898
 1416SOL    HW1 5000   0.028   0.980  12.952
 1416SOL    HW2 5001   0.190   0.983  12.940
 1417SOL     OW 5002   0.672   0.203  12.661
 1417SOL    HW1 5003   0.762   0.187  12.621
 1417SOL    HW2 5004   0.680   0.208  12.760
 1418SOL     OW 5005   0.075   0.345  11.205
 1418SOL    HW1 5006  -0.017   0.317  11.176
 1418SOL    HW2 5007   0.106   0.422  11.149
 1419SOL     OW 5008   1.440   0.856  12.570
 1419SOL    HW1 5009   1.383   0.908  12.507
 1419SOL    HW2 5010   1.536   0.868  12.546
 1420SOL     OW 5011   0.072   0.166  11.490
 1420SOL    HW1 5012   0.055   0.249  11.436
 1420SOL    HW2 5013   0.162   0.129  11.468
 1421SOL     OW 5014   1.183   1.335  11.291
 1421SOL    HW1 5015   1.084   1.324  11.293
 1421SOL    HW2 5016   1.217   1.350  11.384
 1422SOL     OW 5017   0.613   0.842  12.603
 1422SOL    HW1 5018   0.669   0.923  12.586
 1422SOL    HW2 5019   0.672   0.762  12.606
 1423SOL     OW 5020   1.493   1.767  12.131
 1423SOL    HW1 5021   1.526   1.831  12.062
 1423SOL    HW2 5022   1.559   1.761  12.206
 1424SOL     OW 5023   0.716   0.565  12.880
 1424SOL    HW1 5024   0.735   0.630  12.954
 1424SOL    HW2 5025   0.776   0.485  12.889
 1425SOL     OW 5026   1.450   1.220  12.805
 1425SOL    HW1 5027   1.441   1.210  12.904
 1425SOL    HW2 5028   1.546   1.213  12.779
 1426SOL     OW 5029   0.390   1.741  12.732
 1426SOL    HW1 5030   0.299   1.782  12.730
 1426SOL    HW2 5031   0.383   1.647  12.764
 1427SOL     OW 5032   1.674   0.883  12.426
 1427SOL    HW1 5033   1.647   0.794  12.389
 1427SOL    HW2 5034   1.675   0.951  12.353
 1428SOL     OW 5035   1.225   0.325  11.621
 1428SOL    HW1 5036   1.290   0.251  11.610
 1428SOL    HW2 5037   1.245   0.375  11.705
 1429SOL     OW 5038   0.594   0.745  11.824
 1429SOL    HW1 5039   0.644   0.830  11.805
 1429SOL    HW2 5040   0.506   0.747  11.776
 1430SOL     OW 5041   1.777   0.342  12.814
 1430SOL    HW1 5042   1.760   0.373  12.720
 1430SOL    HW2 5043   1.693   0.305  12.852
 1431SOL     OW 5044   1.730   0.934  12.689
 1431SOL    HW1 5045   1.768   1.025  12.704
 1431SOL    HW2 5046   1.722   0.917  12.590
 1432SOL     OW 5047   0.859   1.374  11.188
 1432SOL    HW1 5048   0.813   1.389  11.276
 1432SOL    HW2 5049   0.903   1.459  11.158
 1433SOL     OW 5050   0.661   1.790  12.125
 1433SOL    HW1 5051   0.615   1.878  12.112
 1433SOL    HW2 5052   0.760   1.802  12.118
 1434SOL     OW 5053   0.859   0.956  12.033
 1434SOL    HW1 5054   0.913   0.887  12.081
 1434SOL    HW2 5055   0.827   1.025  12.099
 1435SOL     OW 5056   1.083   0.984  11.259
 1435SOL    HW1 5057   1.060   1.037  11.177
 1435SOL    HW2 5058   1.164   0.928  11.240
 1436SOL     OW 5059   1.861   1.569  12.023
 1436SOL    HW1 5060   1.790   1.557  11.953
 1436SOL    HW2 5061   1.862   1.490  12.083
 1437SOL     OW 5062   0.221   1.314  13.016
 1437SOL    HW1 5063   0.156   1.241  12.995
 1437SOL    HW2 5064   0.225   1.328  13.114
 1438SOL     OW 5065   0.079   1.240  11.825
 1438SOL    HW1 5066   0.078   1.193  11.913
 1438SOL    HW2 5067   0.161   1.212  11.774
 1439SOL     OW 5068   0.672   1.391  12.796
 1439SOL    HW1 5069   0.594   1.341  12.834
 1439SOL    HW2 5070   0.669   1.486  12.827
 1440SOL     OW 5071   1.824   0.192  12.399
 1440SOL    HW1 5072   1.820   0.102  12.443
 1440SOL    HW2 5073   1.827   0.181  12.300
 1441SOL     OW 5074   0.428   0.424  11.692
 1441SOL    HW1 5075   0.458   0.352  11.630
 1441SOL    HW2 5076   0.389   0.384  11.775
 1442SOL     OW 5077   1.705   1.487  12.276
 1442SOL    HW1 5078   1.612   1.462  12.249
 1442SOL    HW2 5079   1.731   1.437  12.358
 1443SOL     OW 5080   0.317   0.547  12.452
 1443SOL    HW1 5081   0.355   0.488  12.524
 1443SOL    HW2 5082   0.357   0.521  12.364
 1444SOL     OW 5083   0.812   1.586  11.859
 1444SOL    HW1 5084   0.844   1.596  11.765
 1444SOL    HW2 5085   0.733   1.524  11.861
 1445SOL     OW 5086   1.424   0.214  12.284
 1445SOL    HW1 5087   1.476   0.149  12.339
 1445SOL    HW2 5088   1.375   0.277  12.345
 1446SOL     OW 5089   1.001   0.034  12.326
 1446SOL    HW1 5090   0.938  -0.038  12.295
 1446SOL    HW2 5091   1.094  -0.002  12.326
 1447SOL     OW 5092   0.770   1.330  11.473
 1447SOL    HW1 5093   0.724   1.243  11.490
 1447SOL    HW2 5094   0.861   1.327  11.514
 1448SOL     OW 5095   0.618   1.567  12.456
 1448SOL    HW1 5096   0.613   1.649  12.513
 1448SOL    HW2 5097   0.707   1.564  12.411
 1449SOL     OW 5098   1.352   0.052  11.340
 1449SOL    HW1 5099   1.387   0.011  11.256
 1449SOL    HW2 5100   1.262   0.014  11.360
 1450SOL     OW 5101   1.300   0.453  11.863
 1450SOL    HW1 5102   1.241   0.533  11.867
 1450SOL    HW2 5103   1.315   0.418  11.956
 1451SOL     OW 5104   1.593   0.221  12.054
 1451SOL    HW1 5105   1.509   0.220  12.108
 1451SOL    HW2 5106   1.595   0.304  11.998
 1452SOL     OW 5107   0.039   1.077  11.472
 1452SOL    HW1 5108   0.138   1.066  11.463
 1452SOL    HW2 5109  -0.001   0.991  11.504
 1453SOL     OW 5110   0.875   1.646  11.509
 1453SOL    HW1 5111   0.798   1.611  11.455
 1453SOL    HW2 5112   0.843   1.717  11.571
 1454SOL     OW 5113   0.230   0.628  13.147
 1454SOL    HW1 5114   0.137   0.626  13.184
 1454SOL    HW2 5115   0.231   0.589  13.055
 1455SOL     OW 5116   0.225   0.275  14.030
 1455SOL    HW1 5117   0.260   0.258  14.122
 1455SOL    HW2 5118   0.137   0.230  14.018
 1456SOL     OW 5119   0.019   0.368  13.681
 1456SOL    HW1 5120  -0.063   0.411  13.720
 1456SOL    HW2 5121  -0.009   0.295  13.618
 1457SOL     OW 5122   1.555   1.511  13.737
 1457SOL    HW1 5123   1.498   1.495  13.818
 1457SOL    HW2 5124   1.496   1.521  13.657
 1458SOL     OW 5125   1.135   0.703  13.751
 1458SOL    HW1 5126   1.192   0.781  13.726
 1458SOL    HW2 5127   1.075   0.729  13.827
 1459SOL     OW 5128   1.755   0.607  13.265
 1459SOL    HW1 5129   1.743   0.594  13.166
 1459SOL    HW2 5130   1.725   0.526  13.314
 1460SOL     OW 5131   0.685   1.012  13.699
 1460SOL    HW1 5132   0.754   0.996  13.769
 1460SOL    HW2 5133   0.612   1.069  13.737
 1461SOL     OW 5134   1.603   0.447  13.771
 1461SOL    HW1 5135   1.529   0.493  13.721
 1461SOL    HW2 5136   1.654   0.515  13.824
 1462SOL     OW 5137   0.231   1.713  13.517
 1462SOL    HW1 5138   0.265   1.790  13.571
 1462SOL    HW2 5139   0.275   1.713  13.427
 1463SOL     OW 5140   0.230   1.434  13.572
 1463SOL    HW1 5141   0.204   1.530  13.572
 1463SOL    HW2 5142   0.159   1.380  13.617
 1464SOL     OW 5143   0.240   1.091  13.920
 1464SOL    HW1 5144   0.254   1.007  13.972
 1464SOL    HW2 5145   0.185   1.155  13.975
 1465SOL     OW 5146   0.606   0.964  13.157
 1465SOL    HW1 5147   0.613   1.048  13.103
 1465SOL    HW2 5148   0.652   0.977  13.245
 1466SOL     OW 5149   0.122   0.643  13.597
 1466SOL    HW1 5150   0.077   0.555  13.614
 1466SOL    HW2 5151   0.121   0.697  13.681
 1467SOL     OW 5152   0.027   1.596  13.151
 1467SOL    HW1 5153   0.008   1.500  13.172
 1467SOL    HW2 5154  -0.006   1.654  13.226
 1468SOL     OW 5155   1.689   0.922  13.646
 1468SOL    HW1 5156   1.784   0.893  13.654
 1468SOL    HW2 5157   1.681   0.987  13.571
 1469SOL     OW 5158   1.641   1.108  13.466
 1469SOL    HW1 5159   1.727   1.110  13.414
 1469SOL    HW2 5160   1.655   1.155  13.554
 1470SOL     OW 5161   0.613   1.365  13.760
 1470SOL    HW1 5162   0.564   1.278  13.769
 1470SOL    HW2 5163   0.590   1.408  13.673
 1471SOL     OW 5164   0.809   0.004  13.536
 1471SOL    HW1 5165   0.849   0.095  13.527
 1471SOL    HW2 5166   0.709   0.012  13.542
 1472SOL     OW 5167   1.525   0.999  13.224
 1472SOL    HW1 5168   1.462   0.923  13.237
 1472SOL    HW2 5169   1.573   1.017  13.310
 1473SOL     OW 5170   1.667   1.714  13.606
 1473SOL    HW1 5171   1.626   1.691  13.518
 1473SOL    HW2 5172   1.649   1.640  13.671
 1474SOL     OW 5173   0.598   0.729  13.304
 1474SOL    HW1 5174   0.622   0.798  13.236
 1474SOL    HW2 5175   0.520   0.762  13.358
 1475SOL     OW 5176   1.281   0.345  13.978
 1475SOL    HW1 5177   1.195   0.295  13.965
 1475SOL    HW2 5178   1.343   0.291  14.034
 1476SOL     OW 5179   1.576   1.662  13.341
 1476SOL    HW1 5180   1.665   1.708  13.344
 1476SOL    HW2 5181   1.555   1.638  13.246
 1477SOL     OW 5182   1.041   0.701  13.463
 1477SOL    HW1 5183   1.067   0.697  13.559
 1477SOL    HW2 5184   0.956   0.650  13.449
 1478SOL     OW 5185   0.076   0.811  13.823
 1478SOL    HW1 5186   0.175   0.799  13.832
 1478SOL    HW2 5187   0.052   0.906  13.844
 1479SOL     OW 5188   0.865   0.348  13.229
 1479SOL    HW1 5189   0.924   0.411  13.180
 1479SOL    HW2 5190   0.884   0.254  13.200
 1480SOL     OW 5191   1.362   1.144  13.579
 1480SOL    HW1 5192   1.445   1.115  13.531
 1480SOL    HW2 5193   1.313   1.211  13.523
 1481SOL     OW 5194   1.008   1.456  13.511
 1481SOL    HW1 5195   0.962   1.528  13.459
 1481SOL    HW2 5196   1.004   1.476  13.609
 1482SOL     OW 5197   0.351   1.801  13.887
 1482SOL    HW1 5198   0.401   1.715  13.893
 1482SOL    HW2 5199   0.416   1.878  13.884
 1483SOL     OW 5200   1.795   1.066  13.907
 1483SOL    HW1 5201   1.733   1.051  13.831
 1483SOL    HW2 5202   1.743   1.077  13.992
 1484SOL     OW 5203   0.321   0.943  13.276
 1484SOL    HW1 5204   0.403   0.982  13.234
 1484SOL    HW2 5205   0.294   0.861  13.227
 1485SOL     OW 5206   1.458   0.735  13.762
 1485SOL    HW1 5207   1.453   0.670  13.837
 1485SOL    HW2 5208   1.538   0.794  13.775
 1486SOL     OW 5209   1.111   1.776  13.271
 1486SOL    HW1 5210   1.051   1.714  13.321
 1486SOL    HW2 5211   1.142   1.732  13.186
 1487SOL     OW 5212   1.632   1.377  13.115
 1487SOL    HW1 5213   1.600   1.471  13.105
 1487SOL    HW2 5214   1.556   1.314  13.103
 1488SOL     OW 5215   0.464   1.743  13.357
 1488SOL    HW1 5216   0.497   1.782  13.443
 1488SOL    HW2 5217   0.540   1.736  13.292
 1489SOL     OW 5218   1.400   0.107  13.460
 1489SOL    HW1 5219   1.376   0.070  13.370
 1489SOL    HW2 5220   1.499   0.123  13.464
 1490SOL     OW 5221   0.940   1.698  13.938
 1490SOL    HW1 5222   1.020   1.641  13.959
 1490SOL    HW2 5223   0.891   1.658  13.861
 1491SOL     OW 5224   0.382   0.700  13.514
 1491SOL    HW1 5225   0.427   0.610  13.511
 1491SOL    HW2 5226   0.288   0.689  13.547
 1492SOL     OW 5227   0.614   0.122  13.151
 1492SOL    HW1 5228   0.712   0.100  13.158
 1492SOL    HW2 5229   0.583   0.105  13.058
 1493SOL     OW 5230   0.539   0.064  13.546
 1493SOL    HW1 5231   0.458   0.065  13.604
 1493SOL    HW2 5232   0.542   0.147  13.491
 1494SOL     OW 5233   1.434   1.188  13.075
 1494SOL    HW1 5234   1.466   1.112  13.132
 1494SOL    HW2 5235   1.342   1.215  13.105
 1495SOL     OW 5236   0.297   0.035  13.205
 1495SOL    HW1 5237   0.346   0.119  13.184
 1495SOL    HW2 5238   0.359  -0.030  13.250
 1496SOL     OW 5239   0.935   0.236  13.514
 1496SOL    HW1 5240   0.887   0.277  13.436
 1496SOL    HW2 5241   1.034   0.234  13.495
 1497SOL     OW 5242   0.459   1.152  13.775
 1497SOL    HW1 5243   0.388   1.125  13.840
 1497SOL    HW2 5244   0.433   1.124  13.682
 1498SOL     OW 5245   1.271   1.797  13.625
 1498SOL    HW1 5246   1.315   1.861  13.561
 1498SOL    HW2 5247   1.221   1.849  13.695
 1499SOL     OW 5248   1.032   0.549  13.050
 1499SOL    HW1 5249   0.991   0.631  13.011
 1499SOL    HW2 5250   1.096   0.575  13.123
 1500SOL     OW 5251   0.866   0.454  13.676
 1500SOL    HW1 5252   0.834   0.526  13.614
 1500SOL    HW2 5253   0.890   0.373  13.623
 1501SOL     OW 5254   1.017   0.039  13.787
 1501SOL    HW1 5255   0.945   0.044  13.718
 1501SOL    HW2 5256   0.993  -0.030  13.856
 1502SOL     OW 5257   1.857   0.833  13.411
 1502SOL    HW1 5258   1.899   0.769  13.475
 1502SOL    HW2 5259   1.819   0.782  13.333
 1503SOL     OW 5260   0.488   1.385  13.208
 1503SOL    HW1 5261   0.401   1.370  13.255
 1503SOL    HW2 5262   0.471   1.411  13.113
 1504SOL     OW 5263   1.664   1.280  13.691
 1504SOL    HW1 5264   1.763   1.288  13.705
 1504SOL    HW2 5265   1.619   1.364  13.722
 1505SOL     OW 5266   1.390   0.575  13.112
 1505SOL    HW1 5267   1.336   0.554  13.193
 1505SOL    HW2 5268   1.481   0.534  13.121
 1506SOL     OW 5269   0.527   0.256  13.362
 1506SOL    HW1 5270   0.554   0.197  13.287
 1506SOL    HW2 5271   0.527   0.351  13.331
 1507SOL     OW 5272   0.705   1.050  13.402
 1507SOL    HW1 5273   0.691   1.057  13.501
 1507SOL    HW2 5274   0.789   0.999  13.384
 1508SOL     OW 5275   0.367   1.100  13.535
 1508SOL    HW1 5276   0.360   1.183  13.479
 1508SOL    HW2 5277   0.371   1.020  13.475
 1509SOL     OW 5278   0.566   0.537  13.899
 1509SOL    HW1 5279   0.578   0.603  13.825
 1509SOL    HW2 5280   0.612   0.571  13.982
 1510SOL     OW 5281   1.252   1.348  13.422
 1510SOL    HW1 5282   1.302   1.425  13.462
 1510SOL    HW2 5283   1.157   1.350  13.454
 1511SOL     OW 5284   1.582   0.639  13.506
 1511SOL    HW1 5285   1.551   0.700  13.579
 1511SOL    HW2 5286   1.632   0.691  13.437
 1512SOL     OW 5287   1.209   0.525  13.309
 1512SOL    HW1 5288   1.222   0.441  13.363
 1512SOL    HW2 5289   1.180   0.599  13.369
 1513SOL     OW 5290   0.307   0.063  13.652
 1513SOL    HW1 5291   0.296   0.157  13.685
 1513SOL    HW2 5292   0.302   0.000  13.729
 1514SOL     OW 5293   1.622   0.367  13.408
 1514SOL    HW1 5294   1.624   0.291  13.472
 1514SOL    HW2 5295   1.574   0.444  13.448
 1515SOL     OW 5296   1.540   0.274  13.159
 1515SOL    HW1 5297   1.479   0.199  13.182
 1515SOL    HW2 5298   1.562   0.326  13.242
 1516SOL     OW 5299   1.303   0.838  13.076
 1516SOL    HW1 5300   1.337   0.745  13.091
 1516SOL    HW2 5301   1.321   0.865  12.981
 1517SOL     OW 5302   0.008   1.326  13.234
 1517SOL    HW1 5303  -0.085   1.347  13.203
 1517SOL    HW2 5304   0.018   1.227  13.247
 1518SOL     OW 5305   0.815   0.572  13.359
 1518SOL    HW1 5306   0.822   0.483  13.313
 1518SOL    HW2 5307   0.721   0.606  13.351
 1519SOL     OW 5308   0.473   0.500  13.225
 1519SOL    HW1 5309   0.534   0.580  13.229
 1519SOL    HW2 5310   0.378   0.531  13.232
 1520SOL     OW 5311   1.302   0.855  13.343
 1520SOL    HW1 5312   1.216   0.824  13.385
 1520SOL    HW2 5313   1.298   0.841  13.244
 1521SOL     OW 5314   1.726   0.135  13.557
 1521SOL    HW1 5315   1.799   0.118  13.490
 1521SOL    HW2 5316   1.695   0.048  13.595
 1522SOL     OW 5317   1.388   1.573  13.511
 1522SOL    HW1 5318   1.455   1.585  13.437
 1522SOL    HW2 5319   1.348   1.662  13.534
 1523SOL     OW 5320   1.280   0.927  13.706
 1523SOL    HW1 5321   1.340   0.846  13.708
 1523SOL    HW2 5322   1.320   0.996  13.646
 1524SOL     OW 5323   0.672   1.616  13.188
 1524SOL    HW1 5324   0.681   1.626  13.089
 1524SOL    HW2 5325   0.632   1.527  13.209
 1525SOL     OW 5326   1.841   0.175  13.997
 1525SOL    HW1 5327   1.880   0.090  13.961
 1525SOL    HW2 5328   1.743   0.177  13.978
 1526SOL     OW 5329   0.263   0.326  13.754
 1526SOL    HW1 5330   0.184   0.377  13.720
 1526SOL    HW2 5331   0.254   0.311  13.852
 1527SOL     OW 5332   1.194   1.612  13.065
 1527SOL    HW1 5333   1.200   1.519  13.102
 1527SOL    HW2 5334   1.135   1.612  12.985
 1528SOL     OW 5335   0.916   0.910  13.325
 1528SOL    HW1 5336   0.979   0.948  13.257
 1528SOL    HW2 5337   0.956   0.827  13.364
 1529SOL     OW 5338   1.504   1.607  13.078
 1529SOL    HW1 5339   1.412   1.644  13.085
 1529SOL    HW2 5340   1.542   1.627  12.988
 1530SOL     OW 5341   1.039   1.098  13.730
 1530SOL    HW1 5342   0.969   1.051  13.784
 1530SOL    HW2 5343   1.098   1.030  13.687
 1531SOL     OW 5344   0.590   1.487  13.525
 1531SOL    HW1 5345   0.632   1.429  13.455
 1531SOL    HW2 5346   0.546   1.566  13.481
 1532SOL     OW 5347   0.255   1.348  13.324
 1532SOL    HW1 5348   0.159   1.349  13.297
 1532SOL    HW2 5349   0.267   1.401  13.408
 1533SOL     OW 5350   0.075   0.345  13.067
 1533SOL    HW1 5351  -0.017   0.317  13.038
 1533SOL    HW2 5352   0.106   0.422  13.011
 1534SOL     OW 5353   0.072   0.166  13.352
 1534SOL    HW1 5354   0.055   0.249  13.298
 1534SOL    HW2 5355   0.162   0.129  13.330
 1535SOL     OW 5356   1.183   1.335  13.153
 1535SOL    HW1 5357   1.084   1.324  13.155
 1535SOL    HW2 5358   1.217   1.350  13.246
 1536SOL     OW 5359   1.225   0.325  13.483
 1536SOL    HW1 5360   1.290   0.251  13.472
 1536SOL    HW2 5361   1.245   0.375  13.567
 1537SOL     OW 5362   0.594   0.745  13.686
 1537SOL    HW1 5363   0.644   0.830  13.667
 1537SOL    HW2 5364   0.506   0.747  13.638
 1538SOL     OW 5365   0.859   1.374  13.050
 1538SOL    HW1 5366   0.813   1.389  13.138
 1538SOL    HW2 5367   0.903   1.459  13.020
 1539SOL     OW 5368   0.661   1.790  13.987
 1539SOL    HW1 5369   0.615   1.878  13.974
 1539SOL    HW2 5370   0.760   1.802  13.980
 1540SOL     OW 5371   0.859   0.956  13.895
 1540SOL    HW1 5372   0.913   0.887  13.943
 1540SOL    HW2 5373   0.827   1.025  13.961
 1541SOL     OW 5374   1.083   0.984  13.121
 1541SOL    HW1 5375   1.060   1.037  13.039
 1541SOL    HW2 5376   1.164   0.928  13.102
 1542SOL     OW 5377   0.079   1.240  13.687
 1542SOL    HW1 5378   0.078   1.193  13.775
 1542SOL    HW2 5379   0.161   1.212  13.636
 1543SOL     OW 5380   0.428   0.424  13.554
 1543SOL    HW1 5381   0.458   0.352  13.492
 1543SOL    HW2 5382   0.389   0.384  13.637
 1544SOL     OW 5383   1.705   1.487  14.138
 1544SOL    HW1 5384   1.612   1.462  14.111
 1544SOL    HW2 5385   1.731   1.437  14.220
 1545SOL     OW 5386   0.812   1.586  13.721
 1545SOL    HW1 5387   0.844   1.596  13.627
 1545SOL    HW2 5388   0.733   1.524  13.723
 1546SOL     OW 5389   0.770   1.330  13.335
 1546SOL    HW1 5390   0.724   1.243  13.352
 1546SOL    HW2 5391   0.861   1.327  13.376
 1547SOL     OW 5392   1.352   0.052  13.202
 1547SOL    HW1 5393   1.387   0.011  13.118
 1547SOL    HW2 5394   1.262   0.014  13.222
 1548SOL     OW 5395   1.300   0.453  13.725
 1548SOL    HW1 5396   1.241   0.533  13.729
 1548SOL    HW2 5397   1.315   0.418  13.818
 1549SOL     OW 5398   0.039   1.077  13.334
 1549SOL    HW1 5399   0.138   1.066  13.325
 1549SOL    HW2 5400  -0.001   0.991  13.366
 1550SOL     OW 5401   0.875   1.646  13.371
 1550SOL    HW1 5402   0.798   1.611  13.317
 1550SOL    HW2 5403   0.843   1.717  13.433
 1551SOL     OW 5404   0.230   2.490   0.113
 1551SOL    HW1 5405   0.137   2.488   0.150
 1551SOL    HW2 5406   0.231   2.451   0.021
 1552SOL     OW 5407   0.225   2.137   0.996
 1552SOL    HW1 5408   0.260   2.120   1.088
 1552SOL    HW2 5409   0.137   2.092   0.984
 1553SOL     OW 5410   0.019   2.230   0.647
 1553SOL    HW1 5411  -0.063   2.273   0.686
 1553SOL    HW2 5412  -0.009   2.157   0.584
 1554SOL     OW 5413   0.569   3.137   1.165
 1554SOL    HW1 5414   0.476   3.130   1.128
 1554SOL    HW2 5415   0.580   3.226   1.209
 1555SOL     OW 5416   1.555   3.373   0.703
 1555SOL    HW1 5417   1.498   3.357   0.784
 1555SOL    HW2 5418   1.496   3.383   0.623
 1556SOL     OW 5419   1.135   2.565   0.717
 1556SOL    HW1 5420   1.192   2.643   0.692
 1556SOL    HW2 5421   1.075   2.591   0.793
 1557SOL     OW 5422   1.755   2.469   0.231
 1557SOL    HW1 5423   1.743   2.456   0.132
 1557SOL    HW2 5424   1.725   2.388   0.280
 1558SOL     OW 5425   0.768   3.006   1.023
 1558SOL    HW1 5426   0.690   3.023   1.083
 1558SOL    HW2 5427   0.802   3.093   0.987
 1559SOL     OW 5428   0.850   2.660   1.823
 1559SOL    HW1 5429   0.846   2.736   1.888
 1559SOL    HW2 5430   0.872   2.696   1.732
 1560SOL     OW 5431   0.685   2.874   0.665
 1560SOL    HW1 5432   0.754   2.858   0.735
 1560SOL    HW2 5433   0.612   2.931   0.703
 1561SOL     OW 5434   0.686   3.023   1.803
 1561SOL    HW1 5435   0.746   3.102   1.817
 1561SOL    HW2 5436   0.600   3.054   1.762
 1562SOL     OW 5437   0.335   3.297   1.061
 1562SOL    HW1 5438   0.257   3.266   1.008
 1562SOL    HW2 5439   0.393   3.355   1.004
 1563SOL     OW 5440   1.460   3.367   1.339
 1563SOL    HW1 5441   1.484   3.461   1.365
 1563SOL    HW2 5442   1.444   3.313   1.421
 1564SOL     OW 5443   0.438   2.254   1.499
 1564SOL    HW1 5444   0.520   2.198   1.508
 1564SOL    HW2 5445   0.357   2.196   1.503
 1565SOL     OW 5446   1.603   2.309   0.737
 1565SOL    HW1 5447   1.529   2.355   0.687
 1565SOL    HW2 5448   1.654   2.377   0.790
 1566SOL     OW 5449   0.231   3.575   0.483
 1566SOL    HW1 5450   0.265   3.652   0.537
 1566SOL    HW2 5451   0.275   3.575   0.393
 1567SOL     OW 5452   1.127   3.203   1.690
 1567SOL    HW1 5453   1.174   3.203   1.778
 1567SOL    HW2 5454   1.079   3.116   1.679
 1568SOL     OW 5455   0.230   3.296   0.538
 1568SOL    HW1 5456   0.204   3.392   0.538
 1568SOL    HW2 5457   0.159   3.242   0.583
 1569SOL     OW 5458   0.240   2.953   0.886
 1569SOL    HW1 5459   0.254   2.869   0.938
 1569SOL    HW2 5460   0.185   3.017   0.941
 1570SOL     OW 5461   0.620   3.648   1.439
 1570SOL    HW1 5462   0.528   3.631   1.474
 1570SOL    HW2 5463   0.648   3.740   1.465
 1571SOL     OW 5464   0.606   2.826   0.123
 1571SOL    HW1 5465   0.613   2.910   0.069
 1571SOL    HW2 5466   0.652   2.839   0.211
 1572SOL     OW 5467   1.594   1.976   1.480
 1572SOL    HW1 5468   1.576   2.043   1.408
 1572SOL    HW2 5469   1.591   2.022   1.569
 1573SOL     OW 5470   0.122   2.505   0.563
 1573SOL    HW1 5471   0.077   2.417   0.580
 1573SOL    HW2 5472   0.121   2.559   0.647
 1574SOL     OW 5473   1.842   3.629   0.359
 1574SOL    HW1 5474   1.896   3.600   0.439
 1574SOL    HW2 5475   1.872   3.719   0.330
 1575SOL     OW 5476   0.027   3.458   0.117
 1575SOL    HW1 5477   0.008   3.362   0.138
 1575SOL    HW2 5478  -0.006   3.516   0.192
 1576SOL     OW 5479   1.689   2.784   0.612
 1576SOL    HW1 5480   1.784   2.755   0.620
 1576SOL    HW2 5481   1.681   2.849   0.537
 1577SOL     OW 5482   1.641   2.970   0.432
 1577SOL    HW1 5483   1.727   2.972   0.380
 1577SOL    HW2 5484   1.655   3.017   0.520
 1578SOL     OW 5485   0.113   2.599   1.597
 1578SOL    HW1 5486   0.201   2.586   1.642
 1578SOL    HW2 5487   0.100   2.696   1.575
 1579SOL     OW 5488   0.613   3.227   0.726
 1579SOL    HW1 5489   0.564   3.140   0.735
 1579SOL    HW2 5490   0.590   3.270   0.639
 1580SOL     OW 5491   1.293   3.090   1.423
 1580SOL    HW1 5492   1.330   3.017   1.365
 1580SOL    HW2 5493   1.345   3.095   1.508
 1581SOL     OW 5494   0.809   1.866   0.502
 1581SOL    HW1 5495   0.849   1.957   0.493
 1581SOL    HW2 5496   0.709   1.874   0.508
 1582SOL     OW 5497   0.197   2.838   1.264
 1582SOL    HW1 5498   0.286   2.793   1.250
 1582SOL    HW2 5499   0.124   2.773   1.245
 1583SOL     OW 5500   1.525   2.861   0.190
 1583SOL    HW1 5501   1.462   2.785   0.203
 1583SOL    HW2 5502   1.573   2.879   0.276
 1584SOL     OW 5503   1.187   3.654   1.616
 1584SOL    HW1 5504   1.211   3.714   1.540
 1584SOL    HW2 5505   1.194   3.559   1.586
 1585SOL     OW 5506   0.317   2.113   1.801
 1585SOL    HW1 5507   0.388   2.184   1.807
 1585SOL    HW2 5508   0.229   2.152   1.829
 1586SOL     OW 5509   1.466   3.279   0.953
 1586SOL    HW1 5510   1.407   3.285   1.033
 1586SOL    HW2 5511   1.451   3.191   0.907
 1587SOL     OW 5512   1.667   3.576   0.572
 1587SOL    HW1 5513   1.626   3.553   0.484
 1587SOL    HW2 5514   1.649   3.502   0.637
 1588SOL     OW 5515   0.598   2.591   0.270
 1588SOL    HW1 5516   0.622   2.660   0.202
 1588SOL    HW2 5517   0.520   2.624   0.324
 1589SOL     OW 5518   1.281   2.207   0.944
 1589SOL    HW1 5519   1.195   2.157   0.931
 1589SOL    HW2 5520   1.343   2.153   1.000
 1590SOL     OW 5521   1.576   3.524   0.307
 1590SOL    HW1 5522   1.665   3.570   0.310
 1590SOL    HW2 5523   1.555   3.500   0.212
 1591SOL     OW 5524   0.807   2.467   1.465
 1591SOL    HW1 5525   0.760   2.464   1.554
 1591SOL    HW2 5526   0.756   2.412   1.399
 1592SOL     OW 5527   1.394   2.331   1.674
 1592SOL    HW1 5528   1.374   2.374   1.762
 1592SOL    HW2 5529   1.472   2.269   1.683
 1593SOL     OW 5530   0.973   2.752   1.572
 1593SOL    HW1 5531   1.019   2.668   1.543
 1593SOL    HW2 5532   0.917   2.786   1.497
 1594SOL     OW 5533   0.991   2.272   1.242
 1594SOL    HW1 5534   0.914   2.306   1.296
 1594SOL    HW2 5535   0.957   2.221   1.163
 1595SOL     OW 5536   1.041   2.563   0.429
 1595SOL    HW1 5537   1.067   2.559   0.525
 1595SOL    HW2 5538   0.956   2.512   0.415
 1596SOL     OW 5539   0.076   2.673   0.789
 1596SOL    HW1 5540   0.175   2.661   0.798
 1596SOL    HW2 5541   0.052   2.768   0.810
 1597SOL     OW 5542   0.130   3.683   1.571
 1597SOL    HW1 5543   0.120   3.668   1.670
 1597SOL    HW2 5544   0.044   3.719   1.535
 1598SOL     OW 5545   0.865   2.210   0.195
 1598SOL    HW1 5546   0.924   2.273   0.146
 1598SOL    HW2 5547   0.884   2.116   0.166
 1599SOL     OW 5548   1.719   2.447   1.831
 1599SOL    HW1 5549   1.693   2.536   1.795
 1599SOL    HW2 5550   1.717   2.379   1.758
 1600SOL     OW 5551   1.362   3.006   0.545
 1600SOL    HW1 5552   1.445   2.977   0.497
 1600SOL    HW2 5553   1.313   3.073   0.489
 1601SOL     OW 5554   0.550   2.058   0.885
 1601SOL    HW1 5555   0.545   2.053   0.985
 1601SOL    HW2 5556   0.552   2.154   0.856
 1602SOL     OW 5557   1.008   3.318   0.477
 1602SOL    HW1 5558   0.962   3.390   0.425
 1602SOL    HW2 5559   1.004   3.338   0.575
 1603SOL     OW 5560   0.351   3.663   0.853
 1603SOL    HW1 5561   0.401   3.577   0.859
 1603SOL    HW2 5562   0.416   3.740   0.850
 1604SOL     OW 5563   1.795   2.928   0.873
 1604SOL    HW1 5564   1.733   2.913   0.797
 1604SOL    HW2 5565   1.743   2.939   0.958
 1605SOL     OW 5566   1.227   3.412   1.506
 1605SOL    HW1 5567   1.233   3.335   1.570
 1605SOL    HW2 5568   1.175   3.386   1.426
 1606SOL     OW 5569   0.321   2.805   0.242
 1606SOL    HW1 5570   0.403   2.844   0.200
 1606SOL    HW2 5571   0.294   2.723   0.193
 1607SOL     OW 5572   1.458   2.597   0.728
 1607SOL    HW1 5573   1.453   2.532   0.803
 1607SOL    HW2 5574   1.538   2.656   0.741
 1608SOL     OW 5575   0.461   3.128   1.727
 1608SOL    HW1 5576   0.411   3.129   1.641
 1608SOL    HW2 5577   0.398   3.110   1.803
 1609SOL     OW 5578   1.111   3.638   0.237
 1609SOL    HW1 5579   1.051   3.576   0.287
 1609SOL    HW2 5580   1.142   3.594   0.152
 1610SOL     OW 5581   0.202   2.147   1.498
 1610SOL    HW1 5582   0.122   2.207   1.485
 1610SOL    HW2 5583   0.192   2.098   1.584
 1611SOL     OW 5584   1.632   3.239   0.081
 1611SOL    HW1 5585   1.600   3.333   0.071
 1611SOL    HW2 5586   1.556   3.176   0.069
 1612SOL     OW 5587   0.464   3.605   0.323
 1612SOL    HW1 5588   0.497   3.644   0.409
 1612SOL    HW2 5589   0.540   3.598   0.258
 1613SOL     OW 5590   1.400   1.969   0.426
 1613SOL    HW1 5591   1.376   1.932   0.336
 1613SOL    HW2 5592   1.499   1.985   0.430
 1614SOL     OW 5593   0.249   3.647   1.241
 1614SOL    HW1 5594   0.306   3.582   1.291
 1614SOL    HW2 5595   0.233   3.614   1.148
 1615SOL     OW 5596   0.940   3.560   0.904
 1615SOL    HW1 5597   1.020   3.503   0.925
 1615SOL    HW2 5598   0.891   3.520   0.827
 1616SOL     OW 5599   0.382   2.562   0.480
 1616SOL    HW1 5600   0.427   2.472   0.477
 1616SOL    HW2 5601   0.288   2.551   0.513
 1617SOL     OW 5602   1.547   2.084   1.729
 1617SOL    HW1 5603   1.542   2.121   1.821
 1617SOL    HW2 5604   1.475   2.015   1.717
 1618SOL     OW 5605   0.781   2.126   1.749
 1618SOL    HW1 5606   0.848   2.065   1.792
 1618SOL    HW2 5607   0.708   2.145   1.814
 1619SOL     OW 5608   0.888   3.376   1.195
 1619SOL    HW1 5609   0.865   3.351   1.101
 1619SOL    HW2 5610   0.949   3.307   1.234
 1620SOL     OW 5611   1.351   2.452   1.433
 1620SOL    HW1 5612   1.379   2.409   1.518
 1620SOL    HW2 5613   1.376   2.548   1.434
 1621SOL     OW 5614   0.803   3.264   0.924
 1621SOL    HW1 5615   0.893   3.278   0.882
 1621SOL    HW2 5616   0.732   3.266   0.853
 1622SOL     OW 5617   0.922   2.365   0.899
 1622SOL    HW1 5618   0.897   2.356   0.803
 1622SOL    HW2 5619   0.970   2.283   0.930
 1623SOL     OW 5620   0.539   1.926   0.512
 1623SOL    HW1 5621   0.458   1.927   0.570
 1623SOL    HW2 5622   0.542   2.009   0.457
 1624SOL     OW 5623   1.434   3.050   0.041
 1624SOL    HW1 5624   1.466   2.974   0.098
 1624SOL    HW2 5625   1.342   3.077   0.071
 1625SOL     OW 5626   0.297   1.897   0.171
 1625SOL    HW1 5627   0.346   1.981   0.150
 1625SOL    HW2 5628   0.359   1.832   0.216
 1626SOL     OW 5629   0.935   2.098   0.480
 1626SOL    HW1 5630   0.887   2.139   0.402
 1626SOL    HW2 5631   1.034   2.096   0.461
 1627SOL     OW 5632   1.076   2.545   1.464
 1627SOL    HW1 5633   0.996   2.484   1.467
 1627SOL    HW2 5634   1.157   2.492   1.440
 1628SOL     OW 5635   1.227   3.432   0.793
 1628SOL    HW1 5636   1.248   3.506   0.728
 1628SOL    HW2 5637   1.295   3.432   0.866
 1629SOL     OW 5638   0.459   3.014   0.741
 1629SOL    HW1 5639   0.388   2.987   0.806
 1629SOL    HW2 5640   0.433   2.986   0.648
 1630SOL     OW 5641   1.271   3.659   0.591
 1630SOL    HW1 5642   1.315   3.723   0.527
 1630SOL    HW2 5643   1.221   3.711   0.661
 1631SOL     OW 5644   1.032   2.411   0.016
 1631SOL    HW1 5645   0.991   2.493  -0.023
 1631SOL    HW2 5646   1.096   2.437   0.089
 1632SOL     OW 5647   0.078   2.418   1.386
 1632SOL    HW1 5648   0.170   2.417   1.345
 1632SOL    HW2 5649   0.072   2.492   1.453
 1633SOL     OW 5650   0.561   2.084   1.147
 1633SOL    HW1 5651   0.599   2.000   1.184
 1633SOL    HW2 5652   0.473   2.103   1.191
 1634SOL     OW 5653   0.866   2.316   0.642
 1634SOL    HW1 5654   0.834   2.388   0.580
 1634SOL    HW2 5655   0.890   2.235   0.589
 1635SOL     OW 5656   1.017   1.901   0.753
 1635SOL    HW1 5657   0.945   1.906   0.684
 1635SOL    HW2 5658   0.993   1.832   0.822
 1636SOL     OW 5659   1.429   3.035   0.867
 1636SOL    HW1 5660   1.374   2.951   0.860
 1636SOL    HW2 5661   1.455   3.064   0.775
 1637SOL     OW 5662   1.466   2.452   0.992
 1637SOL    HW1 5663   1.436   2.357   0.999
 1637SOL    HW2 5664   1.539   2.468   1.058
 1638SOL     OW 5665   1.857   2.695   0.377
 1638SOL    HW1 5666   1.899   2.631   0.441
 1638SOL    HW2 5667   1.819   2.644   0.299
 1639SOL     OW 5668   0.488   3.247   0.174
 1639SOL    HW1 5669   0.401   3.232   0.221
 1639SOL    HW2 5670   0.471   3.273   0.079
 1640SOL     OW 5671   1.664   3.142   0.657
 1640SOL    HW1 5672   1.763   3.150   0.671
 1640SOL    HW2 5673   1.619   3.226   0.688
 1641SOL     OW 5674   1.390   2.437   0.078
 1641SOL    HW1 5675   1.336   2.416   0.159
 1641SOL    HW2 5676   1.481   2.396   0.087
 1642SOL     OW 5677   0.527   2.118   0.328
 1642SOL    HW1 5678   0.554   2.059   0.253
 1642SOL    HW2 5679   0.527   2.213   0.297
 1643SOL     OW 5680   1.754   3.085   1.588
 1643SOL    HW1 5681   1.845   3.046   1.575
 1643SOL    HW2 5682   1.762   3.181   1.612
 1644SOL     OW 5683   1.064   3.209   1.340
 1644SOL    HW1 5684   0.984   3.186   1.395
 1644SOL    HW2 5685   1.147   3.183   1.389
 1645SOL     OW 5686   1.592   3.491   1.625
 1645SOL    HW1 5687   1.619   3.525   1.535
 1645SOL    HW2 5688   1.671   3.453   1.671
 1646SOL     OW 5689   1.111   3.057   1.100
 1646SOL    HW1 5690   1.071   3.101   1.181
 1646SOL    HW2 5691   1.070   3.094   1.017
 1647SOL     OW 5692   1.638   2.961   1.079
 1647SOL    HW1 5693   1.643   3.042   1.138
 1647SOL    HW2 5694   1.552   2.963   1.028
 1648SOL     OW 5695   0.915   1.951   1.402
 1648SOL    HW1 5696   0.940   1.931   1.307
 1648SOL    HW2 5697   0.987   2.007   1.444
 1649SOL     OW 5698   0.980   2.978   1.719
 1649SOL    HW1 5699   0.881   2.984   1.729
 1649SOL    HW2 5700   1.003   2.898   1.663
 1650SOL     OW 5701   0.705   2.912   0.368
 1650SOL    HW1 5702   0.691   2.919   0.467
 1650SOL    HW2 5703   0.789   2.861   0.350
 1651SOL     OW 5704   0.410   2.675   1.251
 1651SOL    HW1 5705   0.496   2.687   1.301
 1651SOL    HW2 5706   0.368   2.588   1.278
 1652SOL     OW 5707   1.274   2.248   1.262
 1652SOL    HW1 5708   1.295   2.322   1.326
 1652SOL    HW2 5709   1.185   2.265   1.219
 1653SOL     OW 5710   0.064   3.426   1.331
 1653SOL    HW1 5711   0.018   3.508   1.297
 1653SOL    HW2 5712   0.162   3.445   1.340
 1654SOL     OW 5713   0.367   2.962   0.501
 1654SOL    HW1 5714   0.360   3.045   0.445
 1654SOL    HW2 5715   0.371   2.882   0.441
 1655SOL     OW 5716   0.566   2.399   0.865
 1655SOL    HW1 5717   0.578   2.465   0.791
 1655SOL    HW2 5718   0.612   2.433   0.948
 1656SOL     OW 5719   1.252   3.210   0.388
 1656SOL    HW1 5720   1.302   3.287   0.428
 1656SOL    HW2 5721   1.157   3.212   0.420
 1657SOL     OW 5722   1.272   3.307   1.142
 1657SOL    HW1 5723   1.319   3.320   1.229
 1657SOL    HW2 5724   1.206   3.233   1.151
 1658SOL     OW 5725   1.582   2.501   0.472
 1658SOL    HW1 5726   1.551   2.562   0.545
 1658SOL    HW2 5727   1.632   2.553   0.403
 1659SOL     OW 5728   0.354   3.372   1.329
 1659SOL    HW1 5729   0.333   3.328   1.242
 1659SOL    HW2 5730   0.451   3.398   1.332
 1660SOL     OW 5731   0.402   2.613   1.598
 1660SOL    HW1 5732   0.470   2.668   1.551
 1660SOL    HW2 5733   0.442   2.525   1.625
 1661SOL     OW 5734   1.587   2.641   1.670
 1661SOL    HW1 5735   1.495   2.679   1.665
 1661SOL    HW2 5736   1.647   2.688   1.605
 1662SOL     OW 5737   1.013   1.967   1.770
 1662SOL    HW1 5738   1.019   2.052   1.718
 1662SOL    HW2 5739   1.045   1.891   1.713
 1663SOL     OW 5740   0.504   1.912   1.740
 1663SOL    HW1 5741   0.462   1.855   1.670
 1663SOL    HW2 5742   0.438   1.981   1.772
 1664SOL     OW 5743   0.573   2.732   1.029
 1664SOL    HW1 5744   0.617   2.821   1.020
 1664SOL    HW2 5745   0.510   2.732   1.106
 1665SOL     OW 5746   1.360   2.724   1.045
 1665SOL    HW1 5747   1.285   2.724   0.979
 1665SOL    HW2 5748   1.397   2.632   1.054
 1666SOL     OW 5749   1.209   2.387   0.275
 1666SOL    HW1 5750   1.222   2.303   0.329
 1666SOL    HW2 5751   1.180   2.461   0.335
 1667SOL     OW 5752   0.307   2.075   1.231
 1667SOL    HW1 5753   0.284   2.112   1.321
 1667SOL    HW2 5754   0.277   1.980   1.225
 1668SOL     OW 5755   0.037   3.172   1.282
 1668SOL    HW1 5756   0.090   3.123   1.350
 1668SOL    HW2 5757   0.059   3.270   1.287
 1669SOL     OW 5758   0.732   2.496   1.064
 1669SOL    HW1 5759   0.791   2.470   0.988
 1669SOL    HW2 5760   0.704   2.592   1.053
 1670SOL     OW 5761   1.728   2.797   1.854
 1670SOL    HW1 5762   1.682   2.790   1.765
 1670SOL    HW2 5763   1.666   2.841   1.920
 1671SOL     OW 5764   0.307   1.925   0.618
 1671SOL    HW1 5765   0.296   2.019   0.651
 1671SOL    HW2 5766   0.302   1.862   0.695
 1672SOL     OW 5767   1.622   2.229   0.374
 1672SOL    HW1 5768   1.624   2.153   0.438
 1672SOL    HW2 5769   1.574   2.306   0.414
 1673SOL     OW 5770   1.023   2.628   0.966
 1673SOL    HW1 5771   1.038   2.649   1.062
 1673SOL    HW2 5772   0.993   2.533   0.957
 1674SOL     OW 5773   0.980   3.435   1.700
 1674SOL    HW1 5774   0.960   3.479   1.612
 1674SOL    HW2 5775   1.019   3.344   1.684
 1675SOL     OW 5776   1.859   3.380   1.605
 1675SOL    HW1 5777   1.873   3.407   1.510
 1675SOL    HW2 5778   1.942   3.402   1.658
 1676SOL     OW 5779   0.350   2.760   1.804
 1676SOL    HW1 5780   0.426   2.804   1.852
 1676SOL    HW2 5781   0.385   2.713   1.722
 1677SOL     OW 5782   1.540   2.136   0.125
 1677SOL    HW1 5783   1.479   2.061   0.148
 1677SOL    HW2 5784   1.562   2.188   0.208
 1678SOL     OW 5785   1.303   2.700   0.042
 1678SOL    HW1 5786   1.337   2.607   0.057
 1678SOL    HW2 5787   1.321   2.727  -0.053
 1679SOL     OW 5788   1.068   3.195   0.849
 1679SOL    HW1 5789   1.075   3.111   0.794
 1679SOL    HW2 5790   1.130   3.264   0.813
 1680SOL     OW 5791   0.319   2.672   0.949
 1680SOL    HW1 5792   0.412   2.708   0.954
 1680SOL    HW2 5793   0.313   2.587   1.001
 1681SOL     OW 5794   0.339   2.371   1.006
 1681SOL    HW1 5795   0.287   2.288   0.989
 1681SOL    HW2 5796   0.416   2.376   0.942
 1682SOL     OW 5797   1.138   2.242   1.678
 1682SOL    HW1 5798   1.093   2.305   1.742
 1682SOL    HW2 5799   1.231   2.273   1.661
 1683SOL     OW 5800   1.160   2.069   1.477
 1683SOL    HW1 5801   1.160   2.133   1.554
 1683SOL    HW2 5802   1.188   2.117   1.394
 1684SOL     OW 5803   0.008   3.188   0.200
 1684SOL    HW1 5804  -0.085   3.209   0.169
 1684SOL    HW2 5805   0.018   3.089   0.213
 1685SOL     OW 5806   0.088   3.663   0.927
 1685SOL    HW1 5807   0.046   3.577   0.900
 1685SOL    HW2 5808   0.182   3.666   0.893
 1686SOL     OW 5809   0.504   3.430   0.910
 1686SOL    HW1 5810   0.570   3.504   0.919
 1686SOL    HW2 5811   0.548   3.351   0.868
 1687SOL     OW 5812   1.002   2.658   1.238
 1687SOL    HW1 5813   1.043   2.626   1.324
 1687SOL    HW2 5814   0.906   2.631   1.235
 1688SOL     OW 5815   0.040   2.406   1.114
 1688SOL    HW1 5816   0.125   2.373   1.073
 1688SOL    HW2 5817   0.053   2.421   1.212
 1689SOL     OW 5818   0.189   2.382   1.722
 1689SOL    HW1 5819   0.248   2.342   1.652
 1689SOL    HW2 5820   0.131   2.453   1.681
 1690SOL     OW 5821   1.369   2.812   1.660
 1690SOL    HW1 5822   1.408   2.901   1.680
 1690SOL    HW2 5823   1.379   2.792   1.563
 1691SOL     OW 5824   0.815   2.434   0.325
 1691SOL    HW1 5825   0.822   2.345   0.279
 1691SOL    HW2 5826   0.721   2.468   0.317
 1692SOL     OW 5827   1.657   2.466   1.206
 1692SOL    HW1 5828   1.619   2.397   1.268
 1692SOL    HW2 5829   1.739   2.430   1.162
 1693SOL     OW 5830   0.252   3.426   1.744
 1693SOL    HW1 5831   0.222   3.483   1.820
 1693SOL    HW2 5832   0.245   3.329   1.770
 1694SOL     OW 5833   0.671   2.326   1.269
 1694SOL    HW1 5834   0.637   2.237   1.239
 1694SOL    HW2 5835   0.697   2.380   1.189
 1695SOL     OW 5836   0.930   3.540   1.465
 1695SOL    HW1 5837   0.906   3.522   1.370
 1695SOL    HW2 5838   0.960   3.634   1.475
 1696SOL     OW 5839   0.473   2.362   0.191
 1696SOL    HW1 5840   0.534   2.442   0.195
 1696SOL    HW2 5841   0.378   2.393   0.198
 1697SOL     OW 5842   0.159   2.999   1.466
 1697SOL    HW1 5843   0.181   2.938   1.542
 1697SOL    HW2 5844   0.169   2.950   1.380
 1698SOL     OW 5845   1.347   2.921   1.234
 1698SOL    HW1 5846   1.371   2.858   1.160
 1698SOL    HW2 5847   1.257   2.961   1.216
 1699SOL     OW 5848   1.302   2.717   0.309
 1699SOL    HW1 5849   1.216   2.686   0.351
 1699SOL    HW2 5850   1.298   2.703   0.210
 1700SOL     OW 5851   1.759   3.609   1.154
 1700SOL    HW1 5852   1.820   3.639   1.081
 1700SOL    HW2 5853   1.721   3.520   1.132
 1701SOL     OW 5854   1.252   3.593   1.128
 1701SOL    HW1 5855   1.336   3.598   1.074
 1701SOL    HW2 5856   1.229   3.497   1.146
 1702SOL     OW 5857   0.083   3.120   1.022
 1702SOL    HW1 5858   0.078   3.119   1.122
 1702SOL    HW2 5859   0.000   3.079   0.984
 1703SOL     OW 5860   0.688   3.524   1.716
 1703SOL    HW1 5861   0.632   3.605   1.725
 1703SOL    HW2 5862   0.740   3.528   1.630
 1704SOL     OW 5863   0.903   1.948   0.133
 1704SOL    HW1 5864   0.954   1.949   0.047
 1704SOL    HW2 5865   0.959   1.906   0.204
 1705SOL     OW 5866   1.388   3.435   0.477
 1705SOL    HW1 5867   1.455   3.447   0.403
 1705SOL    HW2 5868   1.348   3.524   0.500
 1706SOL     OW 5869   0.130   3.656   1.851
 1706SOL    HW1 5870   0.089   3.582   1.904
 1706SOL    HW2 5871   0.194   3.707   1.909
 1707SOL     OW 5872   1.280   2.789   0.672
 1707SOL    HW1 5873   1.340   2.708   0.674
 1707SOL    HW2 5874   1.320   2.858   0.612
 1708SOL     OW 5875   0.830   3.135   1.422
 1708SOL    HW1 5876   0.825   3.168   1.517
 1708SOL    HW2 5877   0.744   3.154   1.376
 1709SOL     OW 5878   0.672   3.478   0.154
 1709SOL    HW1 5879   0.681   3.488   0.055
 1709SOL    HW2 5880   0.632   3.389   0.175
 1710SOL     OW 5881   1.650   3.582   1.394
 1710SOL    HW1 5882   1.703   3.592   1.310
 1710SOL    HW2 5883   1.623   3.672   1.428
 1711SOL     OW 5884   0.263   2.188   0.720
 1711SOL    HW1 5885   0.184   2.239   0.686
 1711SOL    HW2 5886   0.254   2.173   0.818
 1712SOL     OW 5887   1.194   3.474   0.031
 1712SOL    HW1 5888   1.200   3.381   0.068
 1712SOL    HW2 5889   1.135   3.474  -0.049
 1713SOL     OW 5890   0.822   2.864   1.372
 1713SOL    HW1 5891   0.862   2.863   1.280
 1713SOL    HW2 5892   0.832   2.956   1.412
 1714SOL     OW 5893   0.916   2.772   0.291
 1714SOL    HW1 5894   0.979   2.810   0.223
 1714SOL    HW2 5895   0.956   2.689   0.330
 1715SOL     OW 5896   1.504   3.469   0.044
 1715SOL    HW1 5897   1.412   3.506   0.051
 1715SOL    HW2 5898   1.542   3.489  -0.046
 1716SOL     OW 5899   0.372   3.150   1.490
 1716SOL    HW1 5900   0.359   3.243   1.456
 1716SOL    HW2 5901   0.288   3.098   1.477
 1717SOL     OW 5902   1.614   3.154   1.289
 1717SOL    HW1 5903   1.674   3.157   1.369
 1717SOL    HW2 5904   1.539   3.218   1.302
 1718SOL     OW 5905   1.039   2.960   0.696
 1718SOL    HW1 5906   0.969   2.913   0.750
 1718SOL    HW2 5907   1.098   2.892   0.653
 1719SOL     OW 5908   1.014   2.098   0.971
 1719SOL    HW1 5909   1.006   2.062   0.878
 1719SOL    HW2 5910   1.012   2.022   1.036
 1720SOL     OW 5911   0.590   3.349   0.491
 1720SOL    HW1 5912   0.632   3.291   0.421
 1720SOL    HW2 5913   0.546   3.428   0.447
 1721SOL     OW 5914   1.709   2.247   1.381
 1721SOL    HW1 5915   1.782   2.316   1.385
 1721SOL    HW2 5916   1.737   2.172   1.322
 1722SOL     OW 5917   0.255   3.210   0.290
 1722SOL    HW1 5918   0.159   3.211   0.263
 1722SOL    HW2 5919   0.267   3.263   0.374
 1723SOL     OW 5920   0.105   2.875   1.726
 1723SOL    HW1 5921   0.028   2.842   1.780
 1723SOL    HW2 5922   0.190   2.845   1.768
 1724SOL     OW 5923   0.672   2.065   1.489
 1724SOL    HW1 5924   0.762   2.049   1.449
 1724SOL    HW2 5925   0.680   2.070   1.588
 1725SOL     OW 5926   0.075   2.207   0.033
 1725SOL    HW1 5927  -0.017   2.179   0.004
 1725SOL    HW2 5928   0.106   2.284  -0.023
 1726SOL     OW 5929   1.440   2.718   1.398
 1726SOL    HW1 5930   1.383   2.770   1.335
 1726SOL    HW2 5931   1.536   2.730   1.374
 1727SOL     OW 5932   0.072   2.028   0.318
 1727SOL    HW1 5933   0.055   2.111   0.264
 1727SOL    HW2 5934   0.162   1.991   0.296
 1728SOL     OW 5935   1.183   3.197   0.119
 1728SOL    HW1 5936   1.084   3.186   0.121
 1728SOL    HW2 5937   1.217   3.212   0.212
 1729SOL     OW 5938   0.613   2.704   1.431
 1729SOL    HW1 5939   0.669   2.785   1.414
 1729SOL    HW2 5940   0.672   2.624   1.434
 1730SOL     OW 5941   1.493   3.629   0.959
 1730SOL    HW1 5942   1.526   3.693   0.890
 1730SOL    HW2 5943   1.559   3.623   1.034
 1731SOL     OW 5944   0.716   2.427   1.708
 1731SOL    HW1 5945   0.735   2.492   1.782
 1731SOL    HW2 5946   0.776   2.347   1.717
 1732SOL     OW 5947   1.450   3.082   1.633
 1732SOL    HW1 5948   1.441   3.072   1.732
 1732SOL    HW2 5949   1.546   3.075   1.607
 1733SOL     OW 5950   0.390   3.603   1.560
 1733SOL    HW1 5951   0.299   3.644   1.558
 1733SOL    HW2 5952   0.383   3.509   1.592
 1734SOL     OW 5953   1.674   2.745   1.254
 1734SOL    HW1 5954   1.647   2.656   1.217
 1734SOL    HW2 5955   1.675   2.813   1.181
 1735SOL     OW 5956   1.225   2.187   0.449
 1735SOL    HW1 5957   1.290   2.113   0.438
 1735SOL    HW2 5958   1.245   2.237   0.533
 1736SOL     OW 5959   0.594   2.607   0.652
 1736SOL    HW1 5960   0.644   2.692   0.633
 1736SOL    HW2 5961   0.506   2.609   0.604
 1737SOL     OW 5962   1.777   2.204   1.642
 1737SOL    HW1 5963   1.760   2.235   1.548
 1737SOL    HW2 5964   1.693   2.167   1.680
 1738SOL     OW 5965   1.730   2.796   1.517
 1738SOL    HW1 5966   1.768   2.887   1.532
 1738SOL    HW2 5967   1.722   2.779   1.418
 1739SOL     OW 5968   0.859   3.236   0.016
 1739SOL    HW1 5969   0.813   3.251   0.104
 1739SOL    HW2 5970   0.903   3.321  -0.014
 1740SOL     OW 5971   0.661   3.652   0.953
 1740SOL    HW1 5972   0.615   3.740   0.940
 1740SOL    HW2 5973   0.760   3.664   0.946
 1741SOL     OW 5974   0.859   2.818   0.861
 1741SOL    HW1 5975   0.913   2.749   0.909
 1741SOL    HW2 5976   0.827   2.887   0.927
 1742SOL     OW 5977   1.083   2.846   0.087
 1742SOL    HW1 5978   1.060   2.899   0.005
 1742SOL    HW2 5979   1.164   2.790   0.068
 1743SOL     OW 5980   1.861   3.431   0.851
 1743SOL    HW1 5981   1.790   3.419   0.781
 1743SOL    HW2 5982   1.862   3.352   0.911
 1744SOL     OW 5983   0.221   3.176   1.844
 1744SOL    HW1 5984   0.156   3.103   1.823
 1744SOL    HW2 5985   0.225   3.190   1.942
 1745SOL     OW 5986   0.079   3.102   0.653
 1745SOL    HW1 5987   0.078   3.055   0.741
 1745SOL    HW2 5988   0.161   3.074   0.602
 1746SOL     OW 5989   0.672   3.253   1.624
 1746SOL    HW1 5990   0.594   3.203   1.662
 1746SOL    HW2 5991   0.669   3.348   1.655
 1747SOL     OW 5992   0.428   2.286   0.520
 1747SOL    HW1 5993   0.458   2.214   0.458
 1747SOL    HW2 5994   0.389   2.246   0.603
 1748SOL     OW 5995   1.705   3.349   1.104
 1748SOL    HW1 5996   1.612   3.324   1.077
 1748SOL    HW2 5997   1.731   3.299   1.186
 1749SOL     OW 5998   0.317   2.409   1.280
 1749SOL    HW1 5999   0.355   2.350   1.352
 1749SOL    HW2 6000   0.357   2.383   1.192
 1750SOL     OW 6001   0.812   3.448   0.687
 1750SOL    HW1 6002   0.844   3.458   0.593
 1750SOL    HW2 6003   0.733   3.386   0.689
 1751SOL     OW 6004   1.424   2.076   1.112
 1751SOL    HW1 6005   1.476   2.011   1.167
 1751SOL    HW2 6006   1.375   2.139   1.173
 1752SOL     OW 6007   1.001   1.896   1.154
 1752SOL    HW1 6008   0.938   1.824   1.123
 1752SOL    HW2 6009   1.094   1.860   1.154
 1753SOL     OW 6010   0.770   3.192   0.301
 1753SOL    HW1 6011   0.724   3.105   0.318
 1753SOL    HW2 6012   0.861   3.189   0.342
 1754SOL     OW 6013   0.618   3.429   1.284
 1754SOL    HW1 6014   0.613   3.511   1.341
 1754SOL    HW2 6015   0.707   3.426   1.239
 1755SOL     OW 6016   1.352   1.914   0.168
 1755SOL    HW1 6017   1.387   1.873   0.084
 1755SOL    HW2 6018   1.262   1.876   0.188
 1756SOL     OW 6019   1.300   2.315   0.691
 1756SOL    HW1 6020   1.241   2.395   0.695
 1756SOL    HW2 6021   1.315   2.280   0.784
 1757SOL     OW 6022   1.593   2.083   0.882
 1757SOL    HW1 6023   1.509   2.082   0.936
 1757SOL    HW2 6024   1.595   2.166   0.826
 1758SOL     OW 6025   0.039   2.939   0.300
 1758SOL    HW1 6026   0.138   2.928   0.291
 1758SOL    HW2 6027  -0.001   2.853   0.332
 1759SOL     OW 6028   0.875   3.508   0.337
 1759SOL    HW1 6029   0.798   3.473   0.283
 1759SOL    HW2 6030   0.843   3.579   0.399
 1760SOL     OW 6031   0.230   2.490   1.975
 1760SOL    HW1 6032   0.137   2.488   2.012
 1760SOL    HW2 6033   0.231   2.451   1.883
 1761SOL     OW 6034   0.225   2.137   2.858
 1761SOL    HW1 6035   0.260   2.120   2.950
 1761SOL    HW2 6036   0.137   2.092   2.846
 1762SOL     OW 6037   0.019   2.230   2.509
 1762SOL    HW1 6038  -0.063   2.273   2.548
 1762SOL    HW2 6039  -0.009   2.157   2.446
 1763SOL     OW 6040   0.569   3.137   3.027
 1763SOL    HW1 6041   0.476   3.130   2.990
 1763SOL    HW2 6042   0.580   3.226   3.071
 1764SOL     OW 6043   1.555   3.373   2.565
 1764SOL    HW1 6044   1.498   3.357   2.646
 1764SOL    HW2 6045   1.496   3.383   2.485
 1765SOL     OW 6046   1.135   2.565   2.579
 1765SOL    HW1 6047   1.192   2.643   2.554
 1765SOL    HW2 6048   1.075   2.591   2.655
 1766SOL     OW 6049   1.755   2.469   2.093
 1766SOL    HW1 6050   1.743   2.456   1.994
 1766SOL    HW2 6051   1.725   2.388   2.142
 1767SOL     OW 6052   0.768   3.006   2.885
 1767SOL    HW1 6053   0.690   3.023   2.945
 1767SOL    HW2 6054   0.802   3.093   2.849
 1768SOL     OW 6055   0.850   2.660   3.685
 1768SOL    HW1 6056   0.846   2.736   3.750
 1768SOL    HW2 6057   0.872   2.696   3.594
 1769SOL     OW 6058   0.685   2.874   2.527
 1769SOL    HW1 6059   0.754   2.858   2.597
 1769SOL    HW2 6060   0.612   2.931   2.565
 1770SOL     OW 6061   0.686   3.023   3.665
 1770SOL    HW1 6062   0.746   3.102   3.679
 1770SOL    HW2 6063   0.600   3.054   3.624
 1771SOL     OW 6064   0.335   3.297   2.923
 1771SOL    HW1 6065   0.257   3.266   2.870
 1771SOL    HW2 6066   0.393   3.355   2.866
 1772SOL     OW 6067   1.460   3.367   3.201
 1772SOL    HW1 6068   1.484   3.461   3.227
 1772SOL    HW2 6069   1.444   3.313   3.283
 1773SOL     OW 6070   0.438   2.254   3.361
 1773SOL    HW1 6071   0.520   2.198   3.370
 1773SOL    HW2 6072   0.357   2.196   3.365
 1774SOL     OW 6073   1.603   2.309   2.599
 1774SOL    HW1 6074   1.529   2.355   2.549
 1774SOL    HW2 6075   1.654   2.377   2.652
 1775SOL     OW 6076   0.231   3.575   2.345
 1775SOL    HW1 6077   0.265   3.652   2.399
 1775SOL    HW2 6078   0.275   3.575   2.255
 1776SOL     OW 6079   1.127   3.203   3.552
 1776SOL    HW1 6080   1.174   3.203   3.640
 1776SOL    HW2 6081   1.079   3.116   3.541
 1777SOL     OW 6082   0.230   3.296   2.400
 1777SOL    HW1 6083   0.204   3.392   2.400
 1777SOL    HW2 6084   0.159   3.242   2.445
 1778SOL     OW 6085   0.240   2.953   2.748
 1778SOL    HW1 6086   0.254   2.869   2.800
 1778SOL    HW2 6087   0.185   3.017   2.803
 1779SOL     OW 6088   0.620   3.648   3.301
 1779SOL    HW1 6089   0.528   3.631   3.336
 1779SOL    HW2 6090   0.648   3.740   3.327
 1780SOL     OW 6091   0.606   2.826   1.985
 1780SOL    HW1 6092   0.613   2.910   1.931
 1780SOL    HW2 6093   0.652   2.839   2.073
 1781SOL     OW 6094   1.594   1.976   3.342
 1781SOL    HW1 6095   1.576   2.043   3.270
 1781SOL    HW2 6096   1.591   2.022   3.431
 1782SOL     OW 6097   0.122   2.505   2.425
 1782SOL    HW1 6098   0.077   2.417   2.442
 1782SOL    HW2 6099   0.121   2.559   2.509
 1783SOL     OW 6100   1.842   3.629   2.221
 1783SOL    HW1 6101   1.896   3.600   2.301
 1783SOL    HW2 6102   1.872   3.719   2.192
 1784SOL     OW 6103   0.027   3.458   1.979
 1784SOL    HW1 6104   0.008   3.362   2.000
 1784SOL    HW2 6105  -0.006   3.516   2.054
 1785SOL     OW 6106   1.689   2.784   2.474
 1785SOL    HW1 6107   1.784   2.755   2.482
 1785SOL    HW2 6108   1.681   2.849   2.399
 1786SOL     OW 6109   1.641   2.970   2.294
 1786SOL    HW1 6110   1.727   2.972   2.242
 1786SOL    HW2 6111   1.655   3.017   2.382
 1787SOL     OW 6112   0.113   2.599   3.459
 1787SOL    HW1 6113   0.201   2.586   3.504
 1787SOL    HW2 6114   0.100   2.696   3.437
 1788SOL     OW 6115   0.613   3.227   2.588
 1788SOL    HW1 6116   0.564   3.140   2.597
 1788SOL    HW2 6117   0.590   3.270   2.501
 1789SOL     OW 6118   1.293   3.090   3.285
 1789SOL    HW1 6119   1.330   3.017   3.227
 1789SOL    HW2 6120   1.345   3.095   3.370
 1790SOL     OW 6121   0.809   1.866   2.364
 1790SOL    HW1 6122   0.849   1.957   2.355
 1790SOL    HW2 6123   0.709   1.874   2.370
 1791SOL     OW 6124   0.197   2.838   3.126
 1791SOL    HW1 6125   0.286   2.793   3.112
 1791SOL    HW2 6126   0.124   2.773   3.107
 1792SOL     OW 6127   1.525   2.861   2.052
 1792SOL    HW1 6128   1.462   2.785   2.065
 1792SOL    HW2 6129   1.573   2.879   2.138
 1793SOL     OW 6130   1.187   3.654   3.478
 1793SOL    HW1 6131   1.211   3.714   3.402
 1793SOL    HW2 6132   1.194   3.559   3.448
 1794SOL     OW 6133   0.317   2.113   3.663
 1794SOL    HW1 6134   0.388   2.184   3.669
 1794SOL    HW2 6135   0.229   2.152   3.691
 1795SOL     OW 6136   1.466   3.279   2.815
 1795SOL    HW1 6137   1.407   3.285   2.895
 1795SOL    HW2 6138   1.451   3.191   2.769
 1796SOL     OW 6139   1.667   3.576   2.434
 1796SOL    HW1 6140   1.626   3.553   2.346
 1796SOL    HW2 6141   1.649   3.502   2.499
 1797SOL     OW 6142   0.598   2.591   2.132
 1797SOL    HW1 6143   0.622   2.660   2.064
 1797SOL    HW2 6144   0.520   2.624   2.186
 1798SOL     OW 6145   1.281   2.207   2.806
 1798SOL    HW1 6146   1.195   2.157   2.793
 1798SOL    HW2 6147   1.343   2.153   2.862
 1799SOL     OW 6148   1.576   3.524   2.169
 1799SOL    HW1 6149   1.665   3.570   2.172
 1799SOL    HW2 6150   1.555   3.500   2.074
 1800SOL     OW 6151   0.807   2.467   3.327
 1800SOL    HW1 6152   0.760   2.464   3.416
 1800SOL    HW2 6153   0.756   2.412   3.261
 1801SOL     OW 6154   1.394   2.331   3.536
 1801SOL    HW1 6155   1.374   2.374   3.624
 1801SOL    HW2 6156   1.472   2.269   3.545
 1802SOL     OW 6157   0.973   2.752   3.434
 1802SOL    HW1 6158   1.019   2.668   3.405
 1802SOL    HW2 6159   0.917   2.786   3.359
 1803SOL     OW 6160   0.991   2.272   3.104
 1803SOL    HW1 6161   0.914   2.306   3.158
 1803SOL    HW2 6162   0.957   2.221   3.025
 1804SOL     OW 6163   1.041   2.563   2.291
 1804SOL    HW1 6164   1.067   2.559   2.387
 1804SOL    HW2 6165   0.956   2.512   2.277
 1805SOL     OW 6166   0.076   2.673   2.651
 1805SOL    HW1 6167   0.175   2.661   2.660
 1805SOL    HW2 6168   0.052   2.768   2.672
 1806SOL     OW 6169   0.130   3.683   3.433
 1806SOL    HW1 6170   0.120   3.668   3.532
 1806SOL    HW2 6171   0.044   3.719   3.397
 1807SOL     OW 6172   0.865   2.210   2.057
 1807SOL    HW1 6173   0.924   2.273   2.008
 1807SOL    HW2 6174   0.884   2.116   2.028
 1808SOL     OW 6175   1.719   2.447   3.693
 1808SOL    HW1 6176   1.693   2.536   3.657
 1808SOL    HW2 6177   1.717   2.379   3.620
 1809SOL     OW 6178   1.362   3.006   2.407
 1809SOL    HW1 6179   1.445   2.977   2.359
 1809SOL    HW2 6180   1.313   3.073   2.351
 1810SOL     OW 6181   0.550   2.058   2.747
 1810SOL    HW1 6182   0.545   2.053   2.847
 1810SOL    HW2 6183   0.552   2.154   2.718
 1811SOL     OW 6184   1.008   3.318   2.339
 1811SOL    HW1 6185   0.962   3.390   2.287
 1811SOL    HW2 6186   1.004   3.338   2.437
 1812SOL     OW 6187   0.351   3.663   2.715
 1812SOL    HW1 6188   0.401   3.577   2.721
 1812SOL    HW2 6189   0.416   3.740   2.712
 1813SOL     OW 6190   1.795   2.928   2.735
 1813SOL    HW1 6191   1.733   2.913   2.659
 1813SOL    HW2 6192   1.743   2.939   2.820
 1814SOL     OW 6193   1.227   3.412   3.368
 1814SOL    HW1 6194   1.233   3.335   3.432
 1814SOL    HW2 6195   1.175   3.386   3.288
 1815SOL     OW 6196   0.321   2.805   2.104
 1815SOL    HW1 6197   0.403   2.844   2.062
 1815SOL    HW2 6198   0.294   2.723   2.055
 1816SOL     OW 6199   1.458   2.597   2.590
 1816SOL    HW1 6200   1.453   2.532   2.665
 1816SOL    HW2 6201   1.538   2.656   2.603
 1817SOL     OW 6202   0.461   3.128   3.589
 1817SOL    HW1 6203   0.411   3.129   3.503
 1817SOL    HW2 6204   0.398   3.110   3.665
 1818SOL     OW 6205   1.111   3.638   2.099
 1818SOL    HW1 6206   1.051   3.576   2.149
 1818SOL    HW2 6207   1.142   3.594   2.014
 1819SOL     OW 6208   0.202   2.147   3.360
 1819SOL    HW1 6209   0.122   2.207   3.347
 1819SOL    HW2 6210   0.192   2.098   3.446
 1820SOL     OW 6211   1.632   3.239   1.943
 1820SOL    HW1 6212   1.600   3.333   1.933
 1820SOL    HW2 6213   1.556   3.176   1.931
 1821SOL     OW 6214   0.464   3.605   2.185
 1821SOL    HW1 6215   0.497   3.644   2.271
 1821SOL    HW2 6216   0.540   3.598   2.120
 1822SOL     OW 6217   1.400   1.969   2.288
 1822SOL    HW1 6218   1.376   1.932   2.198
 1822SOL    HW2 6219   1.499   1.985   2.292
 1823SOL     OW 6220   0.249   3.647   3.103
 1823SOL    HW1 6221   0.306   3.582   3.153
 1823SOL    HW2 6222   0.233   3.614   3.010
 1824SOL     OW 6223   0.940   3.560   2.766
 1824SOL    HW1 6224   1.020   3.503   2.787
 1824SOL    HW2 6225   0.891   3.520   2.689
 1825SOL     OW 6226   0.382   2.562   2.342
 1825SOL    HW1 6227   0.427   2.472   2.339
 1825SOL    HW2 6228   0.288   2.551   2.375
 1826SOL     OW 6229   1.547   2.084   3.591
 1826SOL    HW1 6230   1.542   2.121   3.683
 1826SOL    HW2 6231   1.475   2.015   3.579
 1827SOL     OW 6232   0.614   1.984   1.979
 1827SOL    HW1 6233   0.712   1.962   1.986
 1827SOL    HW2 6234   0.583   1.967   1.886
 1828SOL     OW 6235   0.781   2.126   3.611
 1828SOL    HW1 6236   0.848   2.065   3.654
 1828SOL    HW2 6237   0.708   2.145   3.676
 1829SOL     OW 6238   0.888   3.376   3.057
 1829SOL    HW1 6239   0.865   3.351   2.963
 1829SOL    HW2 6240   0.949   3.307   3.096
 1830SOL     OW 6241   1.351   2.452   3.295
 1830SOL    HW1 6242   1.379   2.409   3.380
 1830SOL    HW2 6243   1.376   2.548   3.296
 1831SOL     OW 6244   0.803   3.264   2.786
 1831SOL    HW1 6245   0.893   3.278   2.744
 1831SOL    HW2 6246   0.732   3.266   2.715
 1832SOL     OW 6247   0.922   2.365   2.761
 1832SOL    HW1 6248   0.897   2.356   2.665
 1832SOL    HW2 6249   0.970   2.283   2.792
 1833SOL     OW 6250   0.539   1.926   2.374
 1833SOL    HW1 6251   0.458   1.927   2.432
 1833SOL    HW2 6252   0.542   2.009   2.319
 1834SOL     OW 6253   1.434   3.050   1.903
 1834SOL    HW1 6254   1.466   2.974   1.960
 1834SOL    HW2 6255   1.342   3.077   1.933
 1835SOL     OW 6256   0.297   1.897   2.033
 1835SOL    HW1 6257   0.346   1.981   2.012
 1835SOL    HW2 6258   0.359   1.832   2.078
 1836SOL     OW 6259   0.935   2.098   2.342
 1836SOL    HW1 6260   0.887   2.139   2.264
 1836SOL    HW2 6261   1.034   2.096   2.323
 1837SOL     OW 6262   1.076   2.545   3.326
 1837SOL    HW1 6263   0.996   2.484   3.329
 1837SOL    HW2 6264   1.157   2.492   3.302
 1838SOL     OW 6265   1.227   3.432   2.655
 1838SOL    HW1 6266   1.248   3.506   2.590
 1838SOL    HW2 6267   1.295   3.432   2.728
 1839SOL     OW 6268   0.459   3.014   2.603
 1839SOL    HW1 6269   0.388   2.987   2.668
 1839SOL    HW2 6270   0.433   2.986   2.510
 1840SOL     OW 6271   1.271   3.659   2.453
 1840SOL    HW1 6272   1.315   3.723   2.389
 1840SOL    HW2 6273   1.221   3.711   2.523
 1841SOL     OW 6274   1.032   2.411   1.878
 1841SOL    HW1 6275   0.991   2.493   1.839
 1841SOL    HW2 6276   1.096   2.437   1.951
 1842SOL     OW 6277   0.078   2.418   3.248
 1842SOL    HW1 6278   0.170   2.417   3.207
 1842SOL    HW2 6279   0.072   2.492   3.315
 1843SOL     OW 6280   0.561   2.084   3.009
 1843SOL    HW1 6281   0.599   2.000   3.046
 1843SOL    HW2 6282   0.473   2.103   3.053
 1844SOL     OW 6283   0.866   2.316   2.504
 1844SOL    HW1 6284   0.834   2.388   2.442
 1844SOL    HW2 6285   0.890   2.235   2.451
 1845SOL     OW 6286   1.017   1.901   2.615
 1845SOL    HW1 6287   0.945   1.906   2.546
 1845SOL    HW2 6288   0.993   1.832   2.684
 1846SOL     OW 6289   1.429   3.035   2.729
 1846SOL    HW1 6290   1.374   2.951   2.722
 1846SOL    HW2 6291   1.455   3.064   2.637
 1847SOL     OW 6292   1.466   2.452   2.854
 1847SOL    HW1 6293   1.436   2.357   2.861
 1847SOL    HW2 6294   1.539   2.468   2.920
 1848SOL     OW 6295   1.857   2.695   2.239
 1848SOL    HW1 6296   1.899   2.631   2.303
 1848SOL    HW2 6297   1.819   2.644   2.161
 1849SOL     OW 6298   0.488   3.247   2.036
 1849SOL    HW1 6299   0.401   3.232   2.083
 1849SOL    HW2 6300   0.471   3.273   1.941
 1850SOL     OW 6301   1.664   3.142   2.519
 1850SOL    HW1 6302   1.763   3.150   2.533
 1850SOL    HW2 6303   1.619   3.226   2.550
 1851SOL     OW 6304   1.390   2.437   1.940
 1851SOL    HW1 6305   1.336   2.416   2.021
 1851SOL    HW2 6306   1.481   2.396   1.949
 1852SOL     OW 6307   0.527   2.118   2.190
 1852SOL    HW1 6308   0.554   2.059   2.115
 1852SOL    HW2 6309   0.527   2.213   2.159
 1853SOL     OW 6310   1.754   3.085   3.450
 1853SOL    HW1 6311   1.845   3.046   3.437
 1853SOL    HW2 6312   1.762   3.181   3.474
 1854SOL     OW 6313   1.064   3.209   3.202
 1854SOL    HW1 6314   0.984   3.186   3.257
 1854SOL    HW2 6315   1.147   3.183   3.251
 1855SOL     OW 6316   1.592   3.491   3.487
 1855SOL    HW1 6317   1.619   3.525   3.397
 1855SOL    HW2 6318   1.671   3.453   3.533
 1856SOL     OW 6319   1.111   3.057   2.962
 1856SOL    HW1 6320   1.071   3.101   3.043
 1856SOL    HW2 6321   1.070   3.094   2.879
 1857SOL     OW 6322   1.638   2.961   2.941
 1857SOL    HW1 6323   1.643   3.042   3.000
 1857SOL    HW2 6324   1.552   2.963   2.890
 1858SOL     OW 6325   0.915   1.951   3.264
 1858SOL    HW1 6326   0.940   1.931   3.169
 1858SOL    HW2 6327   0.987   2.007   3.306
 1859SOL     OW 6328   0.980   2.978   3.581
 1859SOL    HW1 6329   0.881   2.984   3.591
 1859SOL    HW2 6330   1.003   2.898   3.525
 1860SOL     OW 6331   0.705   2.912   2.230
 1860SOL    HW1 6332   0.691   2.919   2.329
 1860SOL    HW2 6333   0.789   2.861   2.212
 1861SOL     OW 6334   0.410   2.675   3.113
 1861SOL    HW1 6335   0.496   2.687   3.163
 1861SOL    HW2 6336   0.368   2.588   3.140
 1862SOL     OW 6337   1.274   2.248   3.124
 1862SOL    HW1 6338   1.295   2.322   3.188
 1862SOL    HW2 6339   1.185   2.265   3.081
 1863SOL     OW 6340   0.064   3.426   3.193
 1863SOL    HW1 6341   0.018   3.508   3.159
 1863SOL    HW2 6342   0.162   3.445   3.202
 1864SOL     OW 6343   0.367   2.962   2.363
 1864SOL    HW1 6344   0.360   3.045   2.307
 1864SOL    HW2 6345   0.371   2.882   2.303
 1865SOL     OW 6346   0.566   2.399   2.727
 1865SOL    HW1 6347   0.578   2.465   2.653
 1865SOL    HW2 6348   0.612   2.433   2.810
 1866SOL     OW 6349   1.252   3.210   2.250
 1866SOL    HW1 6350   1.302   3.287   2.290
 1866SOL    HW2 6351   1.157   3.212   2.282
 1867SOL     OW 6352   1.272   3.307   3.004
 1867SOL    HW1 6353   1.319   3.320   3.091
 1867SOL    HW2 6354   1.206   3.233   3.013
 1868SOL     OW 6355   1.582   2.501   2.334
 1868SOL    HW1 6356   1.551   2.562   2.407
 1868SOL    HW2 6357   1.632   2.553   2.265
 1869SOL     OW 6358   0.354   3.372   3.191
 1869SOL    HW1 6359   0.333   3.328   3.104
 1869SOL    HW2 6360   0.451   3.398   3.194
 1870SOL     OW 6361   0.402   2.613   3.460
 1870SOL    HW1 6362   0.470   2.668   3.413
 1870SOL    HW2 6363   0.442   2.525   3.487
 1871SOL     OW 6364   1.587   2.641   3.532
 1871SOL    HW1 6365   1.495   2.679   3.527
 1871SOL    HW2 6366   1.647   2.688   3.467
 1872SOL     OW 6367   1.013   1.967   3.632
 1872SOL    HW1 6368   1.019   2.052   3.580
 1872SOL    HW2 6369   1.045   1.891   3.575
 1873SOL     OW 6370   0.504   1.912   3.602
 1873SOL    HW1 6371   0.462   1.855   3.532
 1873SOL    HW2 6372   0.438   1.981   3.634
 1874SOL     OW 6373   0.573   2.732   2.891
 1874SOL    HW1 6374   0.617   2.821   2.882
 1874SOL    HW2 6375   0.510   2.732   2.968
 1875SOL     OW 6376   1.360   2.724   2.907
 1875SOL    HW1 6377   1.285   2.724   2.841
 1875SOL    HW2 6378   1.397   2.632   2.916
 1876SOL     OW 6379   1.209   2.387   2.137
 1876SOL    HW1 6380   1.222   2.303   2.191
 1876SOL    HW2 6381   1.180   2.461   2.197
 1877SOL     OW 6382   0.307   2.075   3.093
 1877SOL    HW1 6383   0.284   2.112   3.183
 1877SOL    HW2 6384   0.277   1.980   3.087
 1878SOL     OW 6385   0.037   3.172   3.144
 1878SOL    HW1 6386   0.090   3.123   3.212
 1878SOL    HW2 6387   0.059   3.270   3.149
 1879SOL     OW 6388   0.732   2.496   2.926
 1879SOL    HW1 6389   0.791   2.470   2.850
 1879SOL    HW2 6390   0.704   2.592   2.915
 1880SOL     OW 6391   1.728   2.797   3.716
 1880SOL    HW1 6392   1.682   2.790   3.627
 1880SOL    HW2 6393   1.666   2.841   3.782
 1881SOL     OW 6394   0.307   1.925   2.480
 1881SOL    HW1 6395   0.296   2.019   2.513
 1881SOL    HW2 6396   0.302   1.862   2.557
 1882SOL     OW 6397   1.622   2.229   2.236
 1882SOL    HW1 6398   1.624   2.153   2.300
 1882SOL    HW2 6399   1.574   2.306   2.276
 1883SOL     OW 6400   1.023   2.628   2.828
 1883SOL    HW1 6401   1.038   2.649   2.924
 1883SOL    HW2 6402   0.993   2.533   2.819
 1884SOL     OW 6403   0.980   3.435   3.562
 1884SOL    HW1 6404   0.960   3.479   3.474
 1884SOL    HW2 6405   1.019   3.344   3.546
 1885SOL     OW 6406   1.859   3.380   3.467
 1885SOL    HW1 6407   1.873   3.407   3.372
 1885SOL    HW2 6408   1.942   3.402   3.520
 1886SOL     OW 6409   0.350   2.760   3.666
 1886SOL    HW1 6410   0.426   2.804   3.714
 1886SOL    HW2 6411   0.385   2.713   3.584
 1887SOL     OW 6412   1.540   2.136   1.987
 1887SOL    HW1 6413   1.479   2.061   2.010
 1887SOL    HW2 6414   1.562   2.188   2.070
 1888SOL     OW 6415   1.303   2.700   1.904
 1888SOL    HW1 6416   1.337   2.607   1.919
 1888SOL    HW2 6417   1.321   2.727   1.809
 1889SOL     OW 6418   1.068   3.195   2.711
 1889SOL    HW1 6419   1.075   3.111   2.656
 1889SOL    HW2 6420   1.130   3.264   2.675
 1890SOL     OW 6421   0.319   2.672   2.811
 1890SOL    HW1 6422   0.412   2.708   2.816
 1890SOL    HW2 6423   0.313   2.587   2.863
 1891SOL     OW 6424   0.339   2.371   2.868
 1891SOL    HW1 6425   0.287   2.288   2.851
 1891SOL    HW2 6426   0.416   2.376   2.804
 1892SOL     OW 6427   1.138   2.242   3.540
 1892SOL    HW1 6428   1.093   2.305   3.604
 1892SOL    HW2 6429   1.231   2.273   3.523
 1893SOL     OW 6430   1.160   2.069   3.339
 1893SOL    HW1 6431   1.160   2.133   3.416
 1893SOL    HW2 6432   1.188   2.117   3.256
 1894SOL     OW 6433   0.008   3.188   2.062
 1894SOL    HW1 6434  -0.085   3.209   2.031
 1894SOL    HW2 6435   0.018   3.089   2.075
 1895SOL     OW 6436   0.088   3.663   2.789
 1895SOL    HW1 6437   0.046   3.577   2.762
 1895SOL    HW2 6438   0.182   3.666   2.755
 1896SOL     OW 6439   0.504   3.430   2.772
 1896SOL    HW1 6440   0.570   3.504   2.781
 1896SOL    HW2 6441   0.548   3.351   2.730
 1897SOL     OW 6442   1.002   2.658   3.100
 1897SOL    HW1 6443   1.043   2.626   3.186
 1897SOL    HW2 6444   0.906   2.631   3.097
 1898SOL     OW 6445   0.040   2.406   2.976
 1898SOL    HW1 6446   0.125   2.373   2.935
 1898SOL    HW2 6447   0.053   2.421   3.074
 1899SOL     OW 6448   0.189   2.382   3.584
 1899SOL    HW1 6449   0.248   2.342   3.514
 1899SOL    HW2 6450   0.131   2.453   3.543
 1900SOL     OW 6451   1.369   2.812   3.522
 1900SOL    HW1 6452   1.408   2.901   3.542
 1900SOL    HW2 6453   1.379   2.792   3.425
 1901SOL     OW 6454   0.815   2.434   2.187
 1901SOL    HW1 6455   0.822   2.345   2.141
 1901SOL    HW2 6456   0.721   2.468   2.179
 1902SOL     OW 6457   1.657   2.466   3.068
 1902SOL    HW1 6458   1.619   2.397   3.130
 1902SOL    HW2 6459   1.739   2.430   3.024
 1903SOL     OW 6460   0.252   3.426   3.606
 1903SOL    HW1 6461   0.222   3.483   3.682
 1903SOL    HW2 6462   0.245   3.329   3.632
 1904SOL     OW 6463   0.671   2.326   3.131
 1904SOL    HW1 6464   0.637   2.237   3.101
 1904SOL    HW2 6465   0.697   2.380   3.051
 1905SOL     OW 6466   0.930   3.540   3.327
 1905SOL    HW1 6467   0.906   3.522   3.232
 1905SOL    HW2 6468   0.960   3.634   3.337
 1906SOL     OW 6469   0.473   2.362   2.053
 1906SOL    HW1 6470   0.534   2.442   2.057
 1906SOL    HW2 6471   0.378   2.393   2.060
 1907SOL     OW 6472   0.159   2.999   3.328
 1907SOL    HW1 6473   0.181   2.938   3.404
 1907SOL    HW2 6474   0.169   2.950   3.242
 1908SOL     OW 6475   1.347   2.921   3.096
 1908SOL    HW1 6476   1.371   2.858   3.022
 1908SOL    HW2 6477   1.257   2.961   3.078
 1909SOL     OW 6478   1.302   2.717   2.171
 1909SOL    HW1 6479   1.216   2.686   2.213
 1909SOL    HW2 6480   1.298   2.703   2.072
 1910SOL     OW 6481   1.759   3.609   3.016
 1910SOL    HW1 6482   1.820   3.639   2.943
 1910SOL    HW2 6483   1.721   3.520   2.994
 1911SOL     OW 6484   1.252   3.593   2.990
 1911SOL    HW1 6485   1.336   3.598   2.936
 1911SOL    HW2 6486   1.229   3.497   3.008
 1912SOL     OW 6487   0.083   3.120   2.884
 1912SOL    HW1 6488   0.078   3.119   2.984
 1912SOL    HW2 6489   0.000   3.079   2.846
 1913SOL     OW 6490   0.688   3.524   3.578
 1913SOL    HW1 6491   0.632   3.605   3.587
 1913SOL    HW2 6492   0.740   3.528   3.492
 1914SOL     OW 6493   1.388   3.435   2.339
 1914SOL    HW1 6494   1.455   3.447   2.265
 1914SOL    HW2 6495   1.348   3.524   2.362
 1915SOL     OW 6496   0.130   3.656   3.713
 1915SOL    HW1 6497   0.089   3.582   3.766
 1915SOL    HW2 6498   0.194   3.707   3.771
 1916SOL     OW 6499   1.280   2.789   2.534
 1916SOL    HW1 6500   1.340   2.708   2.536
 1916SOL    HW2 6501   1.320   2.858   2.474
 1917SOL     OW 6502   0.830   3.135   3.284
 1917SOL    HW1 6503   0.825   3.168   3.379
 1917SOL    HW2 6504   0.744   3.154   3.238
 1918SOL     OW 6505   0.672   3.478   2.016
 1918SOL    HW1 6506   0.681   3.488   1.917
 1918SOL    HW2 6507   0.632   3.389   2.037
 1919SOL     OW 6508   1.650   3.582   3.256
 1919SOL    HW1 6509   1.703   3.592   3.172
 1919SOL    HW2 6510   1.623   3.672   3.290
 1920SOL     OW 6511   0.263   2.188   2.582
 1920SOL    HW1 6512   0.184   2.239   2.548
 1920SOL    HW2 6513   0.254   2.173   2.680
 1921SOL     OW 6514   1.194   3.474   1.893
 1921SOL    HW1 6515   1.200   3.381   1.930
 1921SOL    HW2 6516   1.135   3.474   1.813
 1922SOL     OW 6517   0.822   2.864   3.234
 1922SOL    HW1 6518   0.862   2.863   3.142
 1922SOL    HW2 6519   0.832   2.956   3.274
 1923SOL     OW 6520   0.916   2.772   2.153
 1923SOL    HW1 6521   0.979   2.810   2.085
 1923SOL    HW2 6522   0.956   2.689   2.192
 1924SOL     OW 6523   1.504   3.469   1.906
 1924SOL    HW1 6524   1.412   3.506   1.913
 1924SOL    HW2 6525   1.542   3.489   1.816
 1925SOL     OW 6526   0.372   3.150   3.352
 1925SOL    HW1 6527   0.359   3.243   3.318
 1925SOL    HW2 6528   0.288   3.098   3.339
 1926SOL     OW 6529   1.614   3.154   3.151
 1926SOL    HW1 6530   1.674   3.157   3.231
 1926SOL    HW2 6531   1.539   3.218   3.164
 1927SOL     OW 6532   1.039   2.960   2.558
 1927SOL    HW1 6533   0.969   2.913   2.612
 1927SOL    HW2 6534   1.098   2.892   2.515
 1928SOL     OW 6535   1.014   2.098   2.833
 1928SOL    HW1 6536   1.006   2.062   2.740
 1928SOL    HW2 6537   1.012   2.022   2.898
 1929SOL     OW 6538   0.590   3.349   2.353
 1929SOL    HW1 6539   0.632   3.291   2.283
 1929SOL    HW2 6540   0.546   3.428   2.309
 1930SOL     OW 6541   1.709   2.247   3.243
 1930SOL    HW1 6542   1.782   2.316   3.247
 1930SOL    HW2 6543   1.737   2.172   3.184
 1931SOL     OW 6544   0.255   3.210   2.152
 1931SOL    HW1 6545   0.159   3.211   2.125
 1931SOL    HW2 6546   0.267   3.263   2.236
 1932SOL     OW 6547   0.105   2.875   3.588
 1932SOL    HW1 6548   0.028   2.842   3.642
 1932SOL    HW2 6549   0.190   2.845   3.630
 1933SOL     OW 6550   0.672   2.065   3.351
 1933SOL    HW1 6551   0.762   2.049   3.311
 1933SOL    HW2 6552   0.680   2.070   3.450
 1934SOL     OW 6553   0.075   2.207   1.895
 1934SOL    HW1 6554  -0.017   2.179   1.866
 1934SOL    HW2 6555   0.106   2.284   1.839
 1935SOL     OW 6556   1.440   2.718   3.260
 1935SOL    HW1 6557   1.383   2.770   3.197
 1935SOL    HW2 6558   1.536   2.730   3.236
 1936SOL     OW 6559   0.072   2.028   2.180
 1936SOL    HW1 6560   0.055   2.111   2.126
 1936SOL    HW2 6561   0.162   1.991   2.158
 1937SOL     OW 6562   1.183   3.197   1.981
 1937SOL    HW1 6563   1.084   3.186   1.983
 1937SOL    HW2 6564   1.217   3.212   2.074
 1938SOL     OW 6565   0.613   2.704   3.293
 1938SOL    HW1 6566   0.669   2.785   3.276
 1938SOL    HW2 6567   0.672   2.624   3.296
 1939SOL     OW 6568   1.493   3.629   2.821
 1939SOL    HW1 6569   1.526   3.693   2.752
 1939SOL    HW2 6570   1.559   3.623   2.896
 1940SOL     OW 6571   0.716   2.427   3.570
 1940SOL    HW1 6572   0.735   2.492   3.644
 1940SOL    HW2 6573   0.776   2.347   3.579
 1941SOL     OW 6574   1.450   3.082   3.495
 1941SOL    HW1 6575   1.441   3.072   3.594
 1941SOL    HW2 6576   1.546   3.075   3.469
 1942SOL     OW 6577   0.390   3.603   3.422
 1942SOL    HW1 6578   0.299   3.644   3.420
 1942SOL    HW2 6579   0.383   3.509   3.454
 1943SOL     OW 6580   1.674   2.745   3.116
 1943SOL    HW1 6581   1.647   2.656   3.079
 1943SOL    HW2 6582   1.675   2.813   3.043
 1944SOL     OW 6583   1.225   2.187   2.311
 1944SOL    HW1 6584   1.290   2.113   2.300
 1944SOL    HW2 6585   1.245   2.237   2.395
 1945SOL     OW 6586   0.594   2.607   2.514
 1945SOL    HW1 6587   0.644   2.692   2.495
 1945SOL    HW2 6588   0.506   2.609   2.466
 1946SOL     OW 6589   1.777   2.204   3.504
 1946SOL    HW1 6590   1.760   2.235   3.410
 1946SOL    HW2 6591   1.693   2.167   3.542
 1947SOL     OW 6592   1.730   2.796   3.379
 1947SOL    HW1 6593   1.768   2.887   3.394
 1947SOL    HW2 6594   1.722   2.779   3.280
 1948SOL     OW 6595   0.859   3.236   1.878
 1948SOL    HW1 6596   0.813   3.251   1.966
 1948SOL    HW2 6597   0.903   3.321   1.848
 1949SOL     OW 6598   0.661   3.652   2.815
 1949SOL    HW1 6599   0.615   3.740   2.802
 1949SOL    HW2 6600   0.760   3.664   2.808
 1950SOL     OW 6601   0.859   2.818   2.723
 1950SOL    HW1 6602   0.913   2.749   2.771
 1950SOL    HW2 6603   0.827   2.887   2.789
 1951SOL     OW 6604   1.083   2.846   1.949
 1951SOL    HW1 6605   1.060   2.899   1.867
 1951SOL    HW2 6606   1.164   2.790   1.930
 1952SOL     OW 6607   1.861   3.431   2.713
 1952SOL    HW1 6608   1.790   3.419   2.643
 1952SOL    HW2 6609   1.862   3.352   2.773
 1953SOL     OW 6610   0.221   3.176   3.706
 1953SOL    HW1 6611   0.156   3.103   3.685
 1953SOL    HW2 6612   0.225   3.190   3.804
 1954SOL     OW 6613   0.079   3.102   2.515
 1954SOL    HW1 6614   0.078   3.055   2.603
 1954SOL    HW2 6615   0.161   3.074   2.464
 1955SOL     OW 6616   0.672   3.253   3.486
 1955SOL    HW1 6617   0.594   3.203   3.524
 1955SOL    HW2 6618   0.669   3.348   3.517
 1956SOL     OW 6619   0.428   2.286   2.382
 1956SOL    HW1 6620   0.458   2.214   2.320
 1956SOL    HW2 6621   0.389   2.246   2.465
 1957SOL     OW 6622   1.705   3.349   2.966
 1957SOL    HW1 6623   1.612   3.324   2.939
 1957SOL    HW2 6624   1.731   3.299   3.048
 1958SOL     OW 6625   0.317   2.409   3.142
 1958SOL    HW1 6626   0.355   2.350   3.214
 1958SOL    HW2 6627   0.357   2.383   3.054
 1959SOL     OW 6628   0.812   3.448   2.549
 1959SOL    HW1 6629   0.844   3.458   2.455
 1959SOL    HW2 6630   0.733   3.386   2.551
 1960SOL     OW 6631   1.424   2.076   2.974
 1960SOL    HW1 6632   1.476   2.011   3.029
 1960SOL    HW2 6633   1.375   2.139   3.035
 1961SOL     OW 6634   1.001   1.896   3.016
 1961SOL    HW1 6635   0.938   1.824   2.985
 1961SOL    HW2 6636   1.094   1.860   3.016
 1962SOL     OW 6637   0.770   3.192   2.163
 1962SOL    HW1 6638   0.724   3.105   2.180
 1962SOL    HW2 6639   0.861   3.189   2.204
 1963SOL     OW 6640   0.618   3.429   3.146
 1963SOL    HW1 6641   0.613   3.511   3.203
 1963SOL    HW2 6642   0.707   3.426   3.101
 1964SOL     OW 6643   1.352   1.914   2.030
 1964SOL    HW1 6644   1.387   1.873   1.946
 1964SOL    HW2 6645   1.262   1.876   2.050
 1965SOL     OW 6646   1.300   2.315   2.553
 1965SOL    HW1 6647   1.241   2.395   2.557
 1965SOL    HW2 6648   1.315   2.280   2.646
 1966SOL     OW 6649   1.593   2.083   2.744
 1966SOL    HW1 6650   1.509   2.082   2.798
 1966SOL    HW2 6651   1.595   2.166   2.688
 1967SOL     OW 6652   0.039   2.939   2.162
 1967SOL    HW1 6653   0.138   2.928   2.153
 1967SOL    HW2 6654  -0.001   2.853   2.194
 1968SOL     OW 6655   0.875   3.508   2.199
 1968SOL    HW1 6656   0.798   3.473   2.145
 1968SOL    HW2 6657   0.843   3.579   2.261
 1969SOL     OW 6658   0.230   2.490   3.837
 1969SOL    HW1 6659   0.137   2.488   3.874
 1969SOL    HW2 6660   0.231   2.451   3.745
 1970SOL     OW 6661   0.225   2.137   4.720
 1970SOL    HW1 6662   0.260   2.120   4.812
 1970SOL    HW2 6663   0.137   2.092   4.708
 1971SOL     OW 6664   0.019   2.230   4.371
 1971SOL    HW1 6665  -0.063   2.273   4.410
 1971SOL    HW2 6666  -0.009   2.157   4.308
 1972SOL     OW 6667   0.569   3.137   4.889
 1972SOL    HW1 6668   0.476   3.130   4.852
 1972SOL    HW2 6669   0.580   3.226   4.933
 1973SOL     OW 6670   1.555   3.373   4.427
 1973SOL    HW1 6671   1.498   3.357   4.508
 1973SOL    HW2 6672   1.496   3.383   4.347
 1974SOL     OW 6673   1.135   2.565   4.441
 1974SOL    HW1 6674   1.192   2.643   4.416
 1974SOL    HW2 6675   1.075   2.591   4.517
 1975SOL     OW 6676   1.755   2.469   3.955
 1975SOL    HW1 6677   1.743   2.456   3.856
 1975SOL    HW2 6678   1.725   2.388   4.004
 1976SOL     OW 6679   0.768   3.006   4.747
 1976SOL    HW1 6680   0.690   3.023   4.807
 1976SOL    HW2 6681   0.802   3.093   4.711
 1977SOL     OW 6682   0.850   2.660   5.547
 1977SOL    HW1 6683   0.846   2.736   5.612
 1977SOL    HW2 6684   0.872   2.696   5.456
 1978SOL     OW 6685   0.685   2.874   4.389
 1978SOL    HW1 6686   0.754   2.858   4.459
 1978SOL    HW2 6687   0.612   2.931   4.427
 1979SOL     OW 6688   0.686   3.023   5.527
 1979SOL    HW1 6689   0.746   3.102   5.541
 1979SOL    HW2 6690   0.600   3.054   5.486
 1980SOL     OW 6691   0.335   3.297   4.785
 1980SOL    HW1 6692   0.257   3.266   4.732
 1980SOL    HW2 6693   0.393   3.355   4.728
 1981SOL     OW 6694   1.460   3.367   5.063
 1981SOL    HW1 6695   1.484   3.461   5.089
 1981SOL    HW2 6696   1.444   3.313   5.145
 1982SOL     OW 6697   0.438   2.254   5.223
 1982SOL    HW1 6698   0.520   2.198   5.232
 1982SOL    HW2 6699   0.357   2.196   5.227
 1983SOL     OW 6700   1.603   2.309   4.461
 1983SOL    HW1 6701   1.529   2.355   4.411
 1983SOL    HW2 6702   1.654   2.377   4.514
 1984SOL     OW 6703   0.231   3.575   4.207
 1984SOL    HW1 6704   0.265   3.652   4.261
 1984SOL    HW2 6705   0.275   3.575   4.117
 1985SOL     OW 6706   1.127   3.203   5.414
 1985SOL    HW1 6707   1.174   3.203   5.502
 1985SOL    HW2 6708   1.079   3.116   5.403
 1986SOL     OW 6709   0.230   3.296   4.262
 1986SOL    HW1 6710   0.204   3.392   4.262
 1986SOL    HW2 6711   0.159   3.242   4.307
 1987SOL     OW 6712   0.240   2.953   4.610
 1987SOL    HW1 6713   0.254   2.869   4.662
 1987SOL    HW2 6714   0.185   3.017   4.665
 1988SOL     OW 6715   0.620   3.648   5.163
 1988SOL    HW1 6716   0.528   3.631   5.198
 1988SOL    HW2 6717   0.648   3.740   5.189
 1989SOL     OW 6718   0.606   2.826   3.847
 1989SOL    HW1 6719   0.613   2.910   3.793
 1989SOL    HW2 6720   0.652   2.839   3.935
 1990SOL     OW 6721   1.594   1.976   5.204
 1990SOL    HW1 6722   1.576   2.043   5.132
 1990SOL    HW2 6723   1.591   2.022   5.293
 1991SOL     OW 6724   0.122   2.505   4.287
 1991SOL    HW1 6725   0.077   2.417   4.304
 1991SOL    HW2 6726   0.121   2.559   4.371
 1992SOL     OW 6727   1.842   3.629   4.083
 1992SOL    HW1 6728   1.896   3.600   4.163
 1992SOL    HW2 6729   1.872   3.719   4.054
 1993SOL     OW 6730   0.027   3.458   3.841
 1993SOL    HW1 6731   0.008   3.362   3.862
 1993SOL    HW2 6732  -0.006   3.516   3.916
 1994SOL     OW 6733   1.689   2.784   4.336
 1994SOL    HW1 6734   1.784   2.755   4.344
 1994SOL    HW2 6735   1.681   2.849   4.261
 1995SOL     OW 6736   1.641   2.970   4.156
 1995SOL    HW1 6737   1.727   2.972   4.104
 1995SOL    HW2 6738   1.655   3.017   4.244
 1996SOL     OW 6739   0.113   2.599   5.321
 1996SOL    HW1 6740   0.201   2.586   5.366
 1996SOL    HW2 6741   0.100   2.696   5.299
 1997SOL     OW 6742   0.613   3.227   4.450
 1997SOL    HW1 6743   0.564   3.140   4.459
 1997SOL    HW2 6744   0.590   3.270   4.363
 1998SOL     OW 6745   1.293   3.090   5.147
 1998SOL    HW1 6746   1.330   3.017   5.089
 1998SOL    HW2 6747   1.345   3.095   5.232
 1999SOL     OW 6748   0.809   1.866   4.226
 1999SOL    HW1 6749   0.849   1.957   4.217
 1999SOL    HW2 6750   0.709   1.874   4.232
 2000SOL     OW 6751   0.197   2.838   4.988
 2000SOL    HW1 6752   0.286   2.793   4.974
 2000SOL    HW2 6753   0.124   2.773   4.969
 2001SOL     OW 6754   1.525   2.861   3.914
 2001SOL    HW1 6755   1.462   2.785   3.927
 2001SOL    HW2 6756   1.573   2.879   4.000
 2002SOL     OW 6757   1.187   3.654   5.340
 2002SOL    HW1 6758   1.211   3.714   5.264
 2002SOL    HW2 6759   1.194   3.559   5.310
 2003SOL     OW 6760   0.317   2.113   5.525
 2003SOL    HW1 6761   0.388   2.184   5.531
 2003SOL    HW2 6762   0.229   2.152   5.553
 2004SOL     OW 6763   1.466   3.279   4.677
 2004SOL    HW1 6764   1.407   3.285   4.757
 2004SOL    HW2 6765   1.451   3.191   4.631
 2005SOL     OW 6766   1.667   3.576   4.296
 2005SOL    HW1 6767   1.626   3.553   4.208
 2005SOL    HW2 6768   1.649   3.502   4.361
 2006SOL     OW 6769   0.598   2.591   3.994
 2006SOL    HW1 6770   0.622   2.660   3.926
 2006SOL    HW2 6771   0.520   2.624   4.048
 2007SOL     OW 6772   1.281   2.207   4.668
 2007SOL    HW1 6773   1.195   2.157   4.655
 2007SOL    HW2 6774   1.343   2.153   4.724
 2008SOL     OW 6775   1.576   3.524   4.031
 2008SOL    HW1 6776   1.665   3.570   4.034
 2008SOL    HW2 6777   1.555   3.500   3.936
 2009SOL     OW 6778   0.807   2.467   5.189
 2009SOL    HW1 6779   0.760   2.464   5.278
 2009SOL    HW2 6780   0.756   2.412   5.123
 2010SOL     OW 6781   1.394   2.331   5.398
 2010SOL    HW1 6782   1.374   2.374   5.486
 2010SOL    HW2 6783   1.472   2.269   5.407
 2011SOL     OW 6784   0.973   2.752   5.296
 2011SOL    HW1 6785   1.019   2.668   5.267
 2011SOL    HW2 6786   0.917   2.786   5.221
 2012SOL     OW 6787   0.991   2.272   4.966
 2012SOL    HW1 6788   0.914   2.306   5.020
 2012SOL    HW2 6789   0.957   2.221   4.887
 2013SOL     OW 6790   1.041   2.563   4.153
 2013SOL    HW1 6791   1.067   2.559   4.249
 2013SOL    HW2 6792   0.956   2.512   4.139
 2014SOL     OW 6793   0.076   2.673   4.513
 2014SOL    HW1 6794   0.175   2.661   4.522
 2014SOL    HW2 6795   0.052   2.768   4.534
 2015SOL     OW 6796   0.130   3.683   5.295
 2015SOL    HW1 6797   0.120   3.668   5.394
 2015SOL    HW2 6798   0.044   3.719   5.259
 2016SOL     OW 6799   0.865   2.210   3.919
 2016SOL    HW1 6800   0.924   2.273   3.870
 2016SOL    HW2 6801   0.884   2.116   3.890
 2017SOL     OW 6802   1.719   2.447   5.555
 2017SOL    HW1 6803   1.693   2.536   5.519
 2017SOL    HW2 6804   1.717   2.379   5.482
 2018SOL     OW 6805   1.362   3.006   4.269
 2018SOL    HW1 6806   1.445   2.977   4.221
 2018SOL    HW2 6807   1.313   3.073   4.213
 2019SOL     OW 6808   0.550   2.058   4.609
 2019SOL    HW1 6809   0.545   2.053   4.709
 2019SOL    HW2 6810   0.552   2.154   4.580
 2020SOL     OW 6811   1.008   3.318   4.201
 2020SOL    HW1 6812   0.962   3.390   4.149
 2020SOL    HW2 6813   1.004   3.338   4.299
 2021SOL     OW 6814   0.351   3.663   4.577
 2021SOL    HW1 6815   0.401   3.577   4.583
 2021SOL    HW2 6816   0.416   3.740   4.574
 2022SOL     OW 6817   1.795   2.928   4.597
 2022SOL    HW1 6818   1.733   2.913   4.521
 2022SOL    HW2 6819   1.743   2.939   4.682
 2023SOL     OW 6820   1.227   3.412   5.230
 2023SOL    HW1 6821   1.233   3.335   5.294
 2023SOL    HW2 6822   1.175   3.386   5.150
 2024SOL     OW 6823   0.321   2.805   3.966
 2024SOL    HW1 6824   0.403   2.844   3.924
 2024SOL    HW2 6825   0.294   2.723   3.917
 2025SOL     OW 6826   1.458   2.597   4.452
 2025SOL    HW1 6827   1.453   2.532   4.527
 2025SOL    HW2 6828   1.538   2.656   4.465
 2026SOL     OW 6829   0.461   3.128   5.451
 2026SOL    HW1 6830   0.411   3.129   5.365
 2026SOL    HW2 6831   0.398   3.110   5.527
 2027SOL     OW 6832   1.111   3.638   3.961
 2027SOL    HW1 6833   1.051   3.576   4.011
 2027SOL    HW2 6834   1.142   3.594   3.876
 2028SOL     OW 6835   0.202   2.147   5.222
 2028SOL    HW1 6836   0.122   2.207   5.209
 2028SOL    HW2 6837   0.192   2.098   5.308
 2029SOL     OW 6838   1.632   3.239   3.805
 2029SOL    HW1 6839   1.600   3.333   3.795
 2029SOL    HW2 6840   1.556   3.176   3.793
 2030SOL     OW 6841   0.464   3.605   4.047
 2030SOL    HW1 6842   0.497   3.644   4.133
 2030SOL    HW2 6843   0.540   3.598   3.982
 2031SOL     OW 6844   1.400   1.969   4.150
 2031SOL    HW1 6845   1.376   1.932   4.060
 2031SOL    HW2 6846   1.499   1.985   4.154
 2032SOL     OW 6847   0.249   3.647   4.965
 2032SOL    HW1 6848   0.306   3.582   5.015
 2032SOL    HW2 6849   0.233   3.614   4.872
 2033SOL     OW 6850   0.940   3.560   4.628
 2033SOL    HW1 6851   1.020   3.503   4.649
 2033SOL    HW2 6852   0.891   3.520   4.551
 2034SOL     OW 6853   0.382   2.562   4.204
 2034SOL    HW1 6854   0.427   2.472   4.201
 2034SOL    HW2 6855   0.288   2.551   4.237
 2035SOL     OW 6856   1.547   2.084   5.453
 2035SOL    HW1 6857   1.542   2.121   5.545
 2035SOL    HW2 6858   1.475   2.015   5.441
 2036SOL     OW 6859   0.614   1.984   3.841
 2036SOL    HW1 6860   0.712   1.962   3.848
 2036SOL    HW2 6861   0.583   1.967   3.748
 2037SOL     OW 6862   0.781   2.126   5.473
 2037SOL    HW1 6863   0.848   2.065   5.516
 2037SOL    HW2 6864   0.708   2.145   5.538
 2038SOL     OW 6865   0.888   3.376   4.919
 2038SOL    HW1 6866   0.865   3.351   4.825
 2038SOL    HW2 6867   0.949   3.307   4.958
 2039SOL     OW 6868   1.351   2.452   5.157
 2039SOL    HW1 6869   1.379   2.409   5.242
 2039SOL    HW2 6870   1.376   2.548   5.158
 2040SOL     OW 6871   0.803   3.264   4.648
 2040SOL    HW1 6872   0.893   3.278   4.606
 2040SOL    HW2 6873   0.732   3.266   4.577
 2041SOL     OW 6874   0.922   2.365   4.623
 2041SOL    HW1 6875   0.897   2.356   4.527
 2041SOL    HW2 6876   0.970   2.283   4.654
 2042SOL     OW 6877   0.539   1.926   4.236
 2042SOL    HW1 6878   0.458   1.927   4.294
 2042SOL    HW2 6879   0.542   2.009   4.181
 2043SOL     OW 6880   1.434   3.050   3.765
 2043SOL    HW1 6881   1.466   2.974   3.822
 2043SOL    HW2 6882   1.342   3.077   3.795
 2044SOL     OW 6883   0.297   1.897   3.895
 2044SOL    HW1 6884   0.346   1.981   3.874
 2044SOL    HW2 6885   0.359   1.832   3.940
 2045SOL     OW 6886   0.935   2.098   4.204
 2045SOL    HW1 6887   0.887   2.139   4.126
 2045SOL    HW2 6888   1.034   2.096   4.185
 2046SOL     OW 6889   1.076   2.545   5.188
 2046SOL    HW1 6890   0.996   2.484   5.191
 2046SOL    HW2 6891   1.157   2.492   5.164
 2047SOL     OW 6892   1.227   3.432   4.517
 2047SOL    HW1 6893   1.248   3.506   4.452
 2047SOL    HW2 6894   1.295   3.432   4.590
 2048SOL     OW 6895   0.459   3.014   4.465
 2048SOL    HW1 6896   0.388   2.987   4.530
 2048SOL    HW2 6897   0.433   2.986   4.372
 2049SOL     OW 6898   1.271   3.659   4.315
 2049SOL    HW1 6899   1.315   3.723   4.251
 2049SOL    HW2 6900   1.221   3.711   4.385
 2050SOL     OW 6901   1.032   2.411   3.740
 2050SOL    HW1 6902   0.991   2.493   3.701
 2050SOL    HW2 6903   1.096   2.437   3.813
 2051SOL     OW 6904   0.078   2.418   5.110
 2051SOL    HW1 6905   0.170   2.417   5.069
 2051SOL    HW2 6906   0.072   2.492   5.177
 2052SOL     OW 6907   0.561   2.084   4.871
 2052SOL    HW1 6908   0.599   2.000   4.908
 2052SOL    HW2 6909   0.473   2.103   4.915
 2053SOL     OW 6910   0.866   2.316   4.366
 2053SOL    HW1 6911   0.834   2.388   4.304
 2053SOL    HW2 6912   0.890   2.235   4.313
 2054SOL     OW 6913   1.017   1.901   4.477
 2054SOL    HW1 6914   0.945   1.906   4.408
 2054SOL    HW2 6915   0.993   1.832   4.546
 2055SOL     OW 6916   1.429   3.035   4.591
 2055SOL    HW1 6917   1.374   2.951   4.584
 2055SOL    HW2 6918   1.455   3.064   4.499
 2056SOL     OW 6919   1.466   2.452   4.716
 2056SOL    HW1 6920   1.436   2.357   4.723
 2056SOL    HW2 6921   1.539   2.468   4.782
 2057SOL     OW 6922   1.857   2.695   4.101
 2057SOL    HW1 6923   1.899   2.631   4.165
 2057SOL    HW2 6924   1.819   2.644   4.023
 2058SOL     OW 6925   0.488   3.247   3.898
 2058SOL    HW1 6926   0.401   3.232   3.945
 2058SOL    HW2 6927   0.471   3.273   3.803
 2059SOL     OW 6928   1.664   3.142   4.381
 2059SOL    HW1 6929   1.763   3.150   4.395
 2059SOL    HW2 6930   1.619   3.226   4.412
 2060SOL     OW 6931   1.390   2.437   3.802
 2060SOL    HW1 6932   1.336   2.416   3.883
 2060SOL    HW2 6933   1.481   2.396   3.811
 2061SOL     OW 6934   0.527   2.118   4.052
 2061SOL    HW1 6935   0.554   2.059   3.977
 2061SOL    HW2 6936   0.527   2.213   4.021
 2062SOL     OW 6937   1.754   3.085   5.312
 2062SOL    HW1 6938   1.845   3.046   5.299
 2062SOL    HW2 6939   1.762   3.181   5.336
 2063SOL     OW 6940   1.064   3.209   5.064
 2063SOL    HW1 6941   0.984   3.186   5.119
 2063SOL    HW2 6942   1.147   3.183   5.113
 2064SOL     OW 6943   1.592   3.491   5.349
 2064SOL    HW1 6944   1.619   3.525   5.259
 2064SOL    HW2 6945   1.671   3.453   5.395
 2065SOL     OW 6946   1.111   3.057   4.824
 2065SOL    HW1 6947   1.071   3.101   4.905
 2065SOL    HW2 6948   1.070   3.094   4.741
 2066SOL     OW 6949   1.638   2.961   4.803
 2066SOL    HW1 6950   1.643   3.042   4.862
 2066SOL    HW2 6951   1.552   2.963   4.752
 2067SOL     OW 6952   0.915   1.951   5.126
 2067SOL    HW1 6953   0.940   1.931   5.031
 2067SOL    HW2 6954   0.987   2.007   5.168
 2068SOL     OW 6955   0.980   2.978   5.443
 2068SOL    HW1 6956   0.881   2.984   5.453
 2068SOL    HW2 6957   1.003   2.898   5.387
 2069SOL     OW 6958   0.705   2.912   4.092
 2069SOL    HW1 6959   0.691   2.919   4.191
 2069SOL    HW2 6960   0.789   2.861   4.074
 2070SOL     OW 6961   0.410   2.675   4.975
 2070SOL    HW1 6962   0.496   2.687   5.025
 2070SOL    HW2 6963   0.368   2.588   5.002
 2071SOL     OW 6964   1.274   2.248   4.986
 2071SOL    HW1 6965   1.295   2.322   5.050
 2071SOL    HW2 6966   1.185   2.265   4.943
 2072SOL     OW 6967   0.064   3.426   5.055
 2072SOL    HW1 6968   0.018   3.508   5.021
 2072SOL    HW2 6969   0.162   3.445   5.064
 2073SOL     OW 6970   0.367   2.962   4.225
 2073SOL    HW1 6971   0.360   3.045   4.169
 2073SOL    HW2 6972   0.371   2.882   4.165
 2074SOL     OW 6973   0.566   2.399   4.589
 2074SOL    HW1 6974   0.578   2.465   4.515
 2074SOL    HW2 6975   0.612   2.433   4.672
 2075SOL     OW 6976   1.252   3.210   4.112
 2075SOL    HW1 6977   1.302   3.287   4.152
 2075SOL    HW2 6978   1.157   3.212   4.144
 2076SOL     OW 6979   1.272   3.307   4.866
 2076SOL    HW1 6980   1.319   3.320   4.953
 2076SOL    HW2 6981   1.206   3.233   4.875
 2077SOL     OW 6982   1.582   2.501   4.196
 2077SOL    HW1 6983   1.551   2.562   4.269
 2077SOL    HW2 6984   1.632   2.553   4.127
 2078SOL     OW 6985   0.354   3.372   5.053
 2078SOL    HW1 6986   0.333   3.328   4.966
 2078SOL    HW2 6987   0.451   3.398   5.056
 2079SOL     OW 6988   0.402   2.613   5.322
 2079SOL    HW1 6989   0.470   2.668   5.275
 2079SOL    HW2 6990   0.442   2.525   5.349
 2080SOL     OW 6991   1.587   2.641   5.394
 2080SOL    HW1 6992   1.495   2.679   5.389
 2080SOL    HW2 6993   1.647   2.688   5.329
 2081SOL     OW 6994   1.013   1.967   5.494
 2081SOL    HW1 6995   1.019   2.052   5.442
 2081SOL    HW2 6996   1.045   1.891   5.437
 2082SOL     OW 6997   0.504   1.912   5.464
 2082SOL    HW1 6998   0.462   1.855   5.394
 2082SOL    HW2 6999   0.438   1.981   5.496
 2083SOL     OW 7000   0.573   2.732   4.753
 2083SOL    HW1 7001   0.617   2.821   4.744
 2083SOL    HW2 7002   0.510   2.732   4.830
 2084SOL     OW 7003   1.360   2.724   4.769
 2084SOL    HW1 7004   1.285   2.724   4.703
 2084SOL    HW2 7005   1.397   2.632   4.778
 2085SOL     OW 7006   1.209   2.387   3.999
 2085SOL    HW1 7007   1.222   2.303   4.053
 2085SOL    HW2 7008   1.180   2.461   4.059
 2086SOL     OW 7009   0.307   2.075   4.955
 2086SOL    HW1 7010   0.284   2.112   5.045
 2086SOL    HW2 7011   0.277   1.980   4.949
 2087SOL     OW 7012   0.037   3.172   5.006
 2087SOL    HW1 7013   0.090   3.123   5.074
 2087SOL    HW2 7014   0.059   3.270   5.011
 2088SOL     OW 7015   0.732   2.496   4.788
 2088SOL    HW1 7016   0.791   2.470   4.712
 2088SOL    HW2 7017   0.704   2.592   4.777
 2089SOL     OW 7018   1.728   2.797   5.578
 2089SOL    HW1 7019   1.682   2.790   5.489
 2089SOL    HW2 7020   1.666   2.841   5.644
 2090SOL     OW 7021   0.307   1.925   4.342
 2090SOL    HW1 7022   0.296   2.019   4.375
 2090SOL    HW2 7023   0.302   1.862   4.419
 2091SOL     OW 7024   1.622   2.229   4.098
 2091SOL    HW1 7025   1.624   2.153   4.162
 2091SOL    HW2 7026   1.574   2.306   4.138
 2092SOL     OW 7027   1.023   2.628   4.690
 2092SOL    HW1 7028   1.038   2.649   4.786
 2092SOL    HW2 7029   0.993   2.533   4.681
 2093SOL     OW 7030   0.980   3.435   5.424
 2093SOL    HW1 7031   0.960   3.479   5.336
 2093SOL    HW2 7032   1.019   3.344   5.408
 2094SOL     OW 7033   1.859   3.380   5.329
 2094SOL    HW1 7034   1.873   3.407   5.234
 2094SOL    HW2 7035   1.942   3.402   5.382
 2095SOL     OW 7036   0.350   2.760   5.528
 2095SOL    HW1 7037   0.426   2.804   5.576
 2095SOL    HW2 7038   0.385   2.713   5.446
 2096SOL     OW 7039   1.540   2.136   3.849
 2096SOL    HW1 7040   1.479   2.061   3.872
 2096SOL    HW2 7041   1.562   2.188   3.932
 2097SOL     OW 7042   1.303   2.700   3.766
 2097SOL    HW1 7043   1.337   2.607   3.781
 2097SOL    HW2 7044   1.321   2.727   3.671
 2098SOL     OW 7045   1.068   3.195   4.573
 2098SOL    HW1 7046   1.075   3.111   4.518
 2098SOL    HW2 7047   1.130   3.264   4.537
 2099SOL     OW 7048   0.319   2.672   4.673
 2099SOL    HW1 7049   0.412   2.708   4.678
 2099SOL    HW2 7050   0.313   2.587   4.725
 2100SOL     OW 7051   0.339   2.371   4.730
 2100SOL    HW1 7052   0.287   2.288   4.713
 2100SOL    HW2 7053   0.416   2.376   4.666
 2101SOL     OW 7054   1.138   2.242   5.402
 2101SOL    HW1 7055   1.093   2.305   5.466
 2101SOL    HW2 7056   1.231   2.273   5.385
 2102SOL     OW 7057   1.160   2.069   5.201
 2102SOL    HW1 7058   1.160   2.133   5.278
 2102SOL    HW2 7059   1.188   2.117   5.118
 2103SOL     OW 7060   0.008   3.188   3.924
 2103SOL    HW1 7061  -0.085   3.209   3.893
 2103SOL    HW2 7062   0.018   3.089   3.937
 2104SOL     OW 7063   0.088   3.663   4.651
 2104SOL    HW1 7064   0.046   3.577   4.624
 2104SOL    HW2 7065   0.182   3.666   4.617
 2105SOL     OW 7066   0.504   3.430   4.634
 2105SOL    HW1 7067   0.570   3.504   4.643
 2105SOL    HW2 7068   0.548   3.351   4.592
 2106SOL     OW 7069   1.002   2.658   4.962
 2106SOL    HW1 7070   1.043   2.626   5.048
 2106SOL    HW2 7071   0.906   2.631   4.959
 2107SOL     OW 7072   0.040   2.406   4.838
 2107SOL    HW1 7073   0.125   2.373   4.797
 2107SOL    HW2 7074   0.053   2.421   4.936
 2108SOL     OW 7075   0.189   2.382   5.446
 2108SOL    HW1 7076   0.248   2.342   5.376
 2108SOL    HW2 7077   0.131   2.453   5.405
 2109SOL     OW 7078   1.369   2.812   5.384
 2109SOL    HW1 7079   1.408   2.901   5.404
 2109SOL    HW2 7080   1.379   2.792   5.287
 2110SOL     OW 7081   0.815   2.434   4.049
 2110SOL    HW1 7082   0.822   2.345   4.003
 2110SOL    HW2 7083   0.721   2.468   4.041
 2111SOL     OW 7084   1.657   2.466   4.930
 2111SOL    HW1 7085   1.619   2.397   4.992
 2111SOL    HW2 7086   1.739   2.430   4.886
 2112SOL     OW 7087   0.252   3.426   5.468
 2112SOL    HW1 7088   0.222   3.483   5.544
 2112SOL    HW2 7089   0.245   3.329   5.494
 2113SOL     OW 7090   0.671   2.326   4.993
 2113SOL    HW1 7091   0.637   2.237   4.963
 2113SOL    HW2 7092   0.697   2.380   4.913
 2114SOL     OW 7093   0.930   3.540   5.189
 2114SOL    HW1 7094   0.906   3.522   5.094
 2114SOL    HW2 7095   0.960   3.634   5.199
 2115SOL     OW 7096   0.473   2.362   3.915
 2115SOL    HW1 7097   0.534   2.442   3.919
 2115SOL    HW2 7098   0.378   2.393   3.922
 2116SOL     OW 7099   0.159   2.999   5.190
 2116SOL    HW1 7100   0.181   2.938   5.266
 2116SOL    HW2 7101   0.169   2.950   5.104
 2117SOL     OW 7102   1.347   2.921   4.958
 2117SOL    HW1 7103   1.371   2.858   4.884
 2117SOL    HW2 7104   1.257   2.961   4.940
 2118SOL     OW 7105   1.302   2.717   4.033
 2118SOL    HW1 7106   1.216   2.686   4.075
 2118SOL    HW2 7107   1.298   2.703   3.934
 2119SOL     OW 7108   1.759   3.609   4.878
 2119SOL    HW1 7109   1.820   3.639   4.805
 2119SOL    HW2 7110   1.721   3.520   4.856
 2120SOL     OW 7111   1.252   3.593   4.852
 2120SOL    HW1 7112   1.336   3.598   4.798
 2120SOL    HW2 7113   1.229   3.497   4.870
 2121SOL     OW 7114   0.083   3.120   4.746
 2121SOL    HW1 7115   0.078   3.119   4.846
 2121SOL    HW2 7116   0.000   3.079   4.708
 2122SOL     OW 7117   0.688   3.524   5.440
 2122SOL    HW1 7118   0.632   3.605   5.449
 2122SOL    HW2 7119   0.740   3.528   5.354
 2123SOL     OW 7120   1.388   3.435   4.201
 2123SOL    HW1 7121   1.455   3.447   4.127
 2123SOL    HW2 7122   1.348   3.524   4.224
 2124SOL     OW 7123   0.130   3.656   5.575
 2124SOL    HW1 7124   0.089   3.582   5.628
 2124SOL    HW2 7125   0.194   3.707   5.633
 2125SOL     OW 7126   1.280   2.789   4.396
 2125SOL    HW1 7127   1.340   2.708   4.398
 2125SOL    HW2 7128   1.320   2.858   4.336
 2126SOL     OW 7129   0.830   3.135   5.146
 2126SOL    HW1 7130   0.825   3.168   5.241
 2126SOL    HW2 7131   0.744   3.154   5.100
 2127SOL     OW 7132   0.672   3.478   3.878
 2127SOL    HW1 7133   0.681   3.488   3.779
 2127SOL    HW2 7134   0.632   3.389   3.899
 2128SOL     OW 7135   1.650   3.582   5.118
 2128SOL    HW1 7136   1.703   3.592   5.034
 2128SOL    HW2 7137   1.623   3.672   5.152
 2129SOL     OW 7138   0.263   2.188   4.444
 2129SOL    HW1 7139   0.184   2.239   4.410
 2129SOL    HW2 7140   0.254   2.173   4.542
 2130SOL     OW 7141   1.194   3.474   3.755
 2130SOL    HW1 7142   1.200   3.381   3.792
 2130SOL    HW2 7143   1.135   3.474   3.675
 2131SOL     OW 7144   0.822   2.864   5.096
 2131SOL    HW1 7145   0.862   2.863   5.004
 2131SOL    HW2 7146   0.832   2.956   5.136
 2132SOL     OW 7147   0.916   2.772   4.015
 2132SOL    HW1 7148   0.979   2.810   3.947
 2132SOL    HW2 7149   0.956   2.689   4.054
 2133SOL     OW 7150   1.504   3.469   3.768
 2133SOL    HW1 7151   1.412   3.506   3.775
 2133SOL    HW2 7152   1.542   3.489   3.678
 2134SOL     OW 7153   0.372   3.150   5.214
 2134SOL    HW1 7154   0.359   3.243   5.180
 2134SOL    HW2 7155   0.288   3.098   5.201
 2135SOL     OW 7156   1.614   3.154   5.013
 2135SOL    HW1 7157   1.674   3.157   5.093
 2135SOL    HW2 7158   1.539   3.218   5.026
 2136SOL     OW 7159   1.039   2.960   4.420
 2136SOL    HW1 7160   0.969   2.913   4.474
 2136SOL    HW2 7161   1.098   2.892   4.377
 2137SOL     OW 7162   1.014   2.098   4.695
 2137SOL    HW1 7163   1.006   2.062   4.602
 2137SOL    HW2 7164   1.012   2.022   4.760
 2138SOL     OW 7165   0.590   3.349   4.215
 2138SOL    HW1 7166   0.632   3.291   4.145
 2138SOL    HW2 7167   0.546   3.428   4.171
 2139SOL     OW 7168   1.709   2.247   5.105
 2139SOL    HW1 7169   1.782   2.316   5.109
 2139SOL    HW2 7170   1.737   2.172   5.046
 2140SOL     OW 7171   0.255   3.210   4.014
 2140SOL    HW1 7172   0.159   3.211   3.987
 2140SOL    HW2 7173   0.267   3.263   4.098
 2141SOL     OW 7174   0.105   2.875   5.450
 2141SOL    HW1 7175   0.028   2.842   5.504
 2141SOL    HW2 7176   0.190   2.845   5.492
 2142SOL     OW 7177   0.672   2.065   5.213
 2142SOL    HW1 7178   0.762   2.049   5.173
 2142SOL    HW2 7179   0.680   2.070   5.312
 2143SOL     OW 7180   0.075   2.207   3.757
 2143SOL    HW1 7181  -0.017   2.179   3.728
 2143SOL    HW2 7182   0.106   2.284   3.701
 2144SOL     OW 7183   1.440   2.718   5.122
 2144SOL    HW1 7184   1.383   2.770   5.059
 2144SOL    HW2 7185   1.536   2.730   5.098
 2145SOL     OW 7186   0.072   2.028   4.042
 2145SOL    HW1 7187   0.055   2.111   3.988
 2145SOL    HW2 7188   0.162   1.991   4.020
 2146SOL     OW 7189   1.183   3.197   3.843
 2146SOL    HW1 7190   1.084   3.186   3.845
 2146SOL    HW2 7191   1.217   3.212   3.936
 2147SOL     OW 7192   0.613   2.704   5.155
 2147SOL    HW1 7193   0.669   2.785   5.138
 2147SOL    HW2 7194   0.672   2.624   5.158
 2148SOL     OW 7195   1.493   3.629   4.683
 2148SOL    HW1 7196   1.526   3.693   4.614
 2148SOL    HW2 7197   1.559   3.623   4.758
 2149SOL     OW 7198   0.716   2.427   5.432
 2149SOL    HW1 7199   0.735   2.492   5.506
 2149SOL    HW2 7200   0.776   2.347   5.441
 2150SOL     OW 7201   1.450   3.082   5.357
 2150SOL    HW1 7202   1.441   3.072   5.456
 2150SOL    HW2 7203   1.546   3.075   5.331
 2151SOL     OW 7204   0.390   3.603   5.284
 2151SOL    HW1 7205   0.299   3.644   5.282
 2151SOL    HW2 7206   0.383   3.509   5.316
 2152SOL     OW 7207   1.674   2.745   4.978
 2152SOL    HW1 7208   1.647   2.656   4.941
 2152SOL    HW2 7209   1.675   2.813   4.905
 2153SOL     OW 7210   1.225   2.187   4.173
 2153SOL    HW1 7211   1.290   2.113   4.162
 2153SOL    HW2 7212   1.245   2.237   4.257
 2154SOL     OW 7213   0.594   2.607   4.376
 2154SOL    HW1 7214   0.644   2.692   4.357
 2154SOL    HW2 7215   0.506   2.609   4.328
 2155SOL     OW 7216   1.777   2.204   5.366
 2155SOL    HW1 7217   1.760   2.235   5.272
 2155SOL    HW2 7218   1.693   2.167   5.404
 2156SOL     OW 7219   1.730   2.796   5.241
 2156SOL    HW1 7220   1.768   2.887   5.256
 2156SOL    HW2 7221   1.722   2.779   5.142
 2157SOL     OW 7222   0.859   3.236   3.740
 2157SOL    HW1 7223   0.813   3.251   3.828
 2157SOL    HW2 7224   0.903   3.321   3.710
 2158SOL     OW 7225   0.661   3.652   4.677
 2158SOL    HW1 7226   0.615   3.740   4.664
 2158SOL    HW2 7227   0.760   3.664   4.670
 2159SOL     OW 7228   0.859   2.818   4.585
 2159SOL    HW1 7229   0.913   2.749   4.633
 2159SOL    HW2 7230   0.827   2.887   4.651
 2160SOL     OW 7231   1.083   2.846   3.811
 2160SOL    HW1 7232   1.060   2.899   3.729
 2160SOL    HW2 7233   1.164   2.790   3.792
 2161SOL     OW 7234   1.861   3.431   4.575
 2161SOL    HW1 7235   1.790   3.419   4.505
 2161SOL    HW2 7236   1.862   3.352   4.635
 2162SOL     OW 7237   0.221   3.176   5.568
 2162SOL    HW1 7238   0.156   3.103   5.547
 2162SOL    HW2 7239   0.225   3.190   5.666
 2163SOL     OW 7240   0.079   3.102   4.377
 2163SOL    HW1 7241   0.078   3.055   4.465
 2163SOL    HW2 7242   0.161   3.074   4.326
 2164SOL     OW 7243   0.672   3.253   5.348
 2164SOL    HW1 7244   0.594   3.203   5.386
 2164SOL    HW2 7245   0.669   3.348   5.379
 2165SOL     OW 7246   0.428   2.286   4.244
 2165SOL    HW1 7247   0.458   2.214   4.182
 2165SOL    HW2 7248   0.389   2.246   4.327
 2166SOL     OW 7249   1.705   3.349   4.828
 2166SOL    HW1 7250   1.612   3.324   4.801
 2166SOL    HW2 7251   1.731   3.299   4.910
 2167SOL     OW 7252   0.317   2.409   5.004
 2167SOL    HW1 7253   0.355   2.350   5.076
 2167SOL    HW2 7254   0.357   2.383   4.916
 2168SOL     OW 7255   0.812   3.448   4.411
 2168SOL    HW1 7256   0.844   3.458   4.317
 2168SOL    HW2 7257   0.733   3.386   4.413
 2169SOL     OW 7258   1.424   2.076   4.836
 2169SOL    HW1 7259   1.476   2.011   4.891
 2169SOL    HW2 7260   1.375   2.139   4.897
 2170SOL     OW 7261   1.001   1.896   4.878
 2170SOL    HW1 7262   0.938   1.824   4.847
 2170SOL    HW2 7263   1.094   1.860   4.878
 2171SOL     OW 7264   0.770   3.192   4.025
 2171SOL    HW1 7265   0.724   3.105   4.042
 2171SOL    HW2 7266   0.861   3.189   4.066
 2172SOL     OW 7267   0.618   3.429   5.008
 2172SOL    HW1 7268   0.613   3.511   5.065
 2172SOL    HW2 7269   0.707   3.426   4.963
 2173SOL     OW 7270   1.352   1.914   3.892
 2173SOL    HW1 7271   1.387   1.873   3.808
 2173SOL    HW2 7272   1.262   1.876   3.912
 2174SOL     OW 7273   1.300   2.315   4.415
 2174SOL    HW1 7274   1.241   2.395   4.419
 2174SOL    HW2 7275   1.315   2.280   4.508
 2175SOL     OW 7276   1.593   2.083   4.606
 2175SOL    HW1 7277   1.509   2.082   4.660
 2175SOL    HW2 7278   1.595   2.166   4.550
 2176SOL     OW 7279   0.039   2.939   4.024
 2176SOL    HW1 7280   0.138   2.928   4.015
 2176SOL    HW2 7281  -0.001   2.853   4.056
 2177SOL     OW 7282   0.875   3.508   4.061
 2177SOL    HW1 7283   0.798   3.473   4.007
 2177SOL    HW2 7284   0.843   3.579   4.123
 2178SOL     OW 7285   0.230   2.490   5.699
 2178SOL    HW1 7286   0.137   2.488   5.736
 2178SOL    HW2 7287   0.231   2.451   5.607
 2179SOL     OW 7288   0.225   2.137   6.582
 2179SOL    HW1 7289   0.260   2.120   6.674
 2179SOL    HW2 7290   0.137   2.092   6.570
 2180SOL     OW 7291   0.019   2.230   6.233
 2180SOL    HW1 7292  -0.063   2.273   6.272
 2180SOL    HW2 7293  -0.009   2.157   6.170
 2181SOL     OW 7294   0.569   3.137   6.751
 2181SOL    HW1 7295   0.476   3.130   6.714
 2181SOL    HW2 7296   0.580   3.226   6.795
 2182SOL     OW 7297   1.555   3.373   6.289
 2182SOL    HW1 7298   1.498   3.357   6.370
 2182SOL    HW2 7299   1.496   3.383   6.209
 2183SOL     OW 7300   1.135   2.565   6.303
 2183SOL    HW1 7301   1.192   2.643   6.278
 2183SOL    HW2 7302   1.075   2.591   6.379
 2184SOL     OW 7303   1.755   2.469   5.817
 2184SOL    HW1 7304   1.743   2.456   5.718
 2184SOL    HW2 7305   1.725   2.388   5.866
 2185SOL     OW 7306   0.768   3.006   6.609
 2185SOL    HW1 7307   0.690   3.023   6.669
 2185SOL    HW2 7308   0.802   3.093   6.573
 2186SOL     OW 7309   0.850   2.660   7.409
 2186SOL    HW1 7310   0.846   2.736   7.474
 2186SOL    HW2 7311   0.872   2.696   7.318
 2187SOL     OW 7312   0.685   2.874   6.251
 2187SOL    HW1 7313   0.754   2.858   6.321
 2187SOL    HW2 7314   0.612   2.931   6.289
 2188SOL     OW 7315   0.686   3.023   7.389
 2188SOL    HW1 7316   0.746   3.102   7.403
 2188SOL    HW2 7317   0.600   3.054   7.348
 2189SOL     OW 7318   0.335   3.297   6.647
 2189SOL    HW1 7319   0.257   3.266   6.594
 2189SOL    HW2 7320   0.393   3.355   6.590
 2190SOL     OW 7321   1.460   3.367   6.925
 2190SOL    HW1 7322   1.484   3.461   6.951
 2190SOL    HW2 7323   1.444   3.313   7.007
 2191SOL     OW 7324   0.438   2.254   7.085
 2191SOL    HW1 7325   0.520   2.198   7.094
 2191SOL    HW2 7326   0.357   2.196   7.089
 2192SOL     OW 7327   0.231   3.575   6.069
 2192SOL    HW1 7328   0.265   3.652   6.123
 2192SOL    HW2 7329   0.275   3.575   5.979
 2193SOL     OW 7330   1.127   3.203   7.276
 2193SOL    HW1 7331   1.174   3.203   7.364
 2193SOL    HW2 7332   1.079   3.116   7.265
 2194SOL     OW 7333   0.230   3.296   6.124
 2194SOL    HW1 7334   0.204   3.392   6.124
 2194SOL    HW2 7335   0.159   3.242   6.169
 2195SOL     OW 7336   0.240   2.953   6.472
 2195SOL    HW1 7337   0.254   2.869   6.524
 2195SOL    HW2 7338   0.185   3.017   6.527
 2196SOL     OW 7339   0.620   3.648   7.025
 2196SOL    HW1 7340   0.528   3.631   7.060
 2196SOL    HW2 7341   0.648   3.740   7.051
 2197SOL     OW 7342   0.606   2.826   5.709
 2197SOL    HW1 7343   0.613   2.910   5.655
 2197SOL    HW2 7344   0.652   2.839   5.797
 2198SOL     OW 7345   1.594   1.976   7.066
 2198SOL    HW1 7346   1.576   2.043   6.994
 2198SOL    HW2 7347   1.591   2.022   7.155
 2199SOL     OW 7348   0.122   2.505   6.149
 2199SOL    HW1 7349   0.077   2.417   6.166
 2199SOL    HW2 7350   0.121   2.559   6.233
 2200SOL     OW 7351   1.842   3.629   5.945
 2200SOL    HW1 7352   1.896   3.600   6.025
 2200SOL    HW2 7353   1.872   3.719   5.916
 2201SOL     OW 7354   0.027   3.458   5.703
 2201SOL    HW1 7355   0.008   3.362   5.724
 2201SOL    HW2 7356  -0.006   3.516   5.778
 2202SOL     OW 7357   1.641   2.970   6.018
 2202SOL    HW1 7358   1.727   2.972   5.966
 2202SOL    HW2 7359   1.655   3.017   6.106
 2203SOL     OW 7360   0.113   2.599   7.183
 2203SOL    HW1 7361   0.201   2.586   7.228
 2203SOL    HW2 7362   0.100   2.696   7.161
 2204SOL     OW 7363   0.613   3.227   6.312
 2204SOL    HW1 7364   0.564   3.140   6.321
 2204SOL    HW2 7365   0.590   3.270   6.225
 2205SOL     OW 7366   1.293   3.090   7.009
 2205SOL    HW1 7367   1.330   3.017   6.951
 2205SOL    HW2 7368   1.345   3.095   7.094
 2206SOL     OW 7369   0.809   1.866   6.088
 2206SOL    HW1 7370   0.849   1.957   6.079
 2206SOL    HW2 7371   0.709   1.874   6.094
 2207SOL     OW 7372   0.197   2.838   6.850
 2207SOL    HW1 7373   0.286   2.793   6.836
 2207SOL    HW2 7374   0.124   2.773   6.831
 2208SOL     OW 7375   1.525   2.861   5.776
 2208SOL    HW1 7376   1.462   2.785   5.789
 2208SOL    HW2 7377   1.573   2.879   5.862
 2209SOL     OW 7378   1.187   3.654   7.202
 2209SOL    HW1 7379   1.211   3.714   7.126
 2209SOL    HW2 7380   1.194   3.559   7.172
 2210SOL     OW 7381   0.317   2.113   7.387
 2210SOL    HW1 7382   0.388   2.184   7.393
 2210SOL    HW2 7383   0.229   2.152   7.415
 2211SOL     OW 7384   1.466   3.279   6.539
 2211SOL    HW1 7385   1.407   3.285   6.619
 2211SOL    HW2 7386   1.451   3.191   6.493
 2212SOL     OW 7387   1.667   3.576   6.158
 2212SOL    HW1 7388   1.626   3.553   6.070
 2212SOL    HW2 7389   1.649   3.502   6.223
 2213SOL     OW 7390   0.598   2.591   5.856
 2213SOL    HW1 7391   0.622   2.660   5.788
 2213SOL    HW2 7392   0.520   2.624   5.910
 2214SOL     OW 7393   1.576   3.524   5.893
 2214SOL    HW1 7394   1.665   3.570   5.896
 2214SOL    HW2 7395   1.555   3.500   5.798
 2215SOL     OW 7396   0.807   2.467   7.051
 2215SOL    HW1 7397   0.760   2.464   7.140
 2215SOL    HW2 7398   0.756   2.412   6.985
 2216SOL     OW 7399   0.973   2.752   7.158
 2216SOL    HW1 7400   1.019   2.668   7.129
 2216SOL    HW2 7401   0.917   2.786   7.083
 2217SOL     OW 7402   0.991   2.272   6.828
 2217SOL    HW1 7403   0.914   2.306   6.882
 2217SOL    HW2 7404   0.957   2.221   6.749
 2218SOL     OW 7405   1.041   2.563   6.015
 2218SOL    HW1 7406   1.067   2.559   6.111
 2218SOL    HW2 7407   0.956   2.512   6.001
 2219SOL     OW 7408   0.076   2.673   6.375
 2219SOL    HW1 7409   0.175   2.661   6.384
 2219SOL    HW2 7410   0.052   2.768   6.396
 2220SOL     OW 7411   0.130   3.683   7.157
 2220SOL    HW1 7412   0.120   3.668   7.256
 2220SOL    HW2 7413   0.044   3.719   7.121
 2221SOL     OW 7414   0.865   2.210   5.781
 2221SOL    HW1 7415   0.924   2.273   5.732
 2221SOL    HW2 7416   0.884   2.116   5.752
 2222SOL     OW 7417   1.362   3.006   6.131
 2222SOL    HW1 7418   1.445   2.977   6.083
 2222SOL    HW2 7419   1.313   3.073   6.075
 2223SOL     OW 7420   0.550   2.058   6.471
 2223SOL    HW1 7421   0.545   2.053   6.571
 2223SOL    HW2 7422   0.552   2.154   6.442
 2224SOL     OW 7423   1.008   3.318   6.063
 2224SOL    HW1 7424   0.962   3.390   6.011
 2224SOL    HW2 7425   1.004   3.338   6.161
 2225SOL     OW 7426   0.351   3.663   6.439
 2225SOL    HW1 7427   0.401   3.577   6.445
 2225SOL    HW2 7428   0.416   3.740   6.436
 2226SOL     OW 7429   1.227   3.412   7.092
 2226SOL    HW1 7430   1.233   3.335   7.156
 2226SOL    HW2 7431   1.175   3.386   7.012
 2227SOL     OW 7432   0.321   2.805   5.828
 2227SOL    HW1 7433   0.403   2.844   5.786
 2227SOL    HW2 7434   0.294   2.723   5.779
 2228SOL     OW 7435   0.461   3.128   7.313
 2228SOL    HW1 7436   0.411   3.129   7.227
 2228SOL    HW2 7437   0.398   3.110   7.389
 2229SOL     OW 7438   1.111   3.638   5.823
 2229SOL    HW1 7439   1.051   3.576   5.873
 2229SOL    HW2 7440   1.142   3.594   5.738
 2230SOL     OW 7441   0.202   2.147   7.084
 2230SOL    HW1 7442   0.122   2.207   7.071
 2230SOL    HW2 7443   0.192   2.098   7.170
 2231SOL     OW 7444   1.632   3.239   5.667
 2231SOL    HW1 7445   1.600   3.333   5.657
 2231SOL    HW2 7446   1.556   3.176   5.655
 2232SOL     OW 7447   0.464   3.605   5.909
 2232SOL    HW1 7448   0.497   3.644   5.995
 2232SOL    HW2 7449   0.540   3.598   5.844
 2233SOL     OW 7450   0.249   3.647   6.827
 2233SOL    HW1 7451   0.306   3.582   6.877
 2233SOL    HW2 7452   0.233   3.614   6.734
 2234SOL     OW 7453   0.940   3.560   6.490
 2234SOL    HW1 7454   1.020   3.503   6.511
 2234SOL    HW2 7455   0.891   3.520   6.413
 2235SOL     OW 7456   0.382   2.562   6.066
 2235SOL    HW1 7457   0.427   2.472   6.063
 2235SOL    HW2 7458   0.288   2.551   6.099
 2236SOL     OW 7459   0.614   1.984   5.703
 2236SOL    HW1 7460   0.712   1.962   5.710
 2236SOL    HW2 7461   0.583   1.967   5.610
 2237SOL     OW 7462   0.781   2.126   7.335
 2237SOL    HW1 7463   0.848   2.065   7.378
 2237SOL    HW2 7464   0.708   2.145   7.400
 2238SOL     OW 7465   0.888   3.376   6.781
 2238SOL    HW1 7466   0.865   3.351   6.687
 2238SOL    HW2 7467   0.949   3.307   6.820
 2239SOL     OW 7468   0.803   3.264   6.510
 2239SOL    HW1 7469   0.893   3.278   6.468
 2239SOL    HW2 7470   0.732   3.266   6.439
 2240SOL     OW 7471   0.922   2.365   6.485
 2240SOL    HW1 7472   0.897   2.356   6.389
 2240SOL    HW2 7473   0.970   2.283   6.516
 2241SOL     OW 7474   0.539   1.926   6.098
 2241SOL    HW1 7475   0.458   1.927   6.156
 2241SOL    HW2 7476   0.542   2.009   6.043
 2242SOL     OW 7477   1.434   3.050   5.627
 2242SOL    HW1 7478   1.466   2.974   5.684
 2242SOL    HW2 7479   1.342   3.077   5.657
 2243SOL     OW 7480   0.297   1.897   5.757
 2243SOL    HW1 7481   0.346   1.981   5.736
 2243SOL    HW2 7482   0.359   1.832   5.802
 2244SOL     OW 7483   0.935   2.098   6.066
 2244SOL    HW1 7484   0.887   2.139   5.988
 2244SOL    HW2 7485   1.034   2.096   6.047
 2245SOL     OW 7486   1.076   2.545   7.050
 2245SOL    HW1 7487   0.996   2.484   7.053
 2245SOL    HW2 7488   1.157   2.492   7.026
 2246SOL     OW 7489   1.227   3.432   6.379
 2246SOL    HW1 7490   1.248   3.506   6.314
 2246SOL    HW2 7491   1.295   3.432   6.452
 2247SOL     OW 7492   0.459   3.014   6.327
 2247SOL    HW1 7493   0.388   2.987   6.392
 2247SOL    HW2 7494   0.433   2.986   6.234
 2248SOL     OW 7495   1.271   3.659   6.177
 2248SOL    HW1 7496   1.315   3.723   6.113
 2248SOL    HW2 7497   1.221   3.711   6.247
 2249SOL     OW 7498   1.032   2.411   5.602
 2249SOL    HW1 7499   0.991   2.493   5.563
 2249SOL    HW2 7500   1.096   2.437   5.675
 2250SOL     OW 7501   0.078   2.418   6.972
 2250SOL    HW1 7502   0.170   2.417   6.931
 2250SOL    HW2 7503   0.072   2.492   7.039
 2251SOL     OW 7504   0.561   2.084   6.733
 2251SOL    HW1 7505   0.599   2.000   6.770
 2251SOL    HW2 7506   0.473   2.103   6.777
 2252SOL     OW 7507   0.866   2.316   6.228
 2252SOL    HW1 7508   0.834   2.388   6.166
 2252SOL    HW2 7509   0.890   2.235   6.175
 2253SOL     OW 7510   1.017   1.901   6.339
 2253SOL    HW1 7511   0.945   1.906   6.270
 2253SOL    HW2 7512   0.993   1.832   6.408
 2254SOL     OW 7513   1.429   3.035   6.453
 2254SOL    HW1 7514   1.374   2.951   6.446
 2254SOL    HW2 7515   1.455   3.064   6.361
 2255SOL     OW 7516   1.857   2.695   5.963
 2255SOL    HW1 7517   1.899   2.631   6.027
 2255SOL    HW2 7518   1.819   2.644   5.885
 2256SOL     OW 7519   0.488   3.247   5.760
 2256SOL    HW1 7520   0.401   3.232   5.807
 2256SOL    HW2 7521   0.471   3.273   5.665
 2257SOL     OW 7522   1.664   3.142   6.243
 2257SOL    HW1 7523   1.763   3.150   6.257
 2257SOL    HW2 7524   1.619   3.226   6.274
 2258SOL     OW 7525   1.390   2.437   5.664
 2258SOL    HW1 7526   1.336   2.416   5.745
 2258SOL    HW2 7527   1.481   2.396   5.673
 2259SOL     OW 7528   0.527   2.118   5.914
 2259SOL    HW1 7529   0.554   2.059   5.839
 2259SOL    HW2 7530   0.527   2.213   5.883
 2260SOL     OW 7531   1.754   3.085   7.174
 2260SOL    HW1 7532   1.845   3.046   7.161
 2260SOL    HW2 7533   1.762   3.181   7.198
 2261SOL     OW 7534   1.064   3.209   6.926
 2261SOL    HW1 7535   0.984   3.186   6.981
 2261SOL    HW2 7536   1.147   3.183   6.975
 2262SOL     OW 7537   1.592   3.491   7.211
 2262SOL    HW1 7538   1.619   3.525   7.121
 2262SOL    HW2 7539   1.671   3.453   7.257
 2263SOL     OW 7540   1.111   3.057   6.686
 2263SOL    HW1 7541   1.071   3.101   6.767
 2263SOL    HW2 7542   1.070   3.094   6.603
 2264SOL     OW 7543   1.638   2.961   6.665
 2264SOL    HW1 7544   1.643   3.042   6.724
 2264SOL    HW2 7545   1.552   2.963   6.614
 2265SOL     OW 7546   0.915   1.951   6.988
 2265SOL    HW1 7547   0.940   1.931   6.893
 2265SOL    HW2 7548   0.987   2.007   7.030
 2266SOL     OW 7549   0.980   2.978   7.305
 2266SOL    HW1 7550   0.881   2.984   7.315
 2266SOL    HW2 7551   1.003   2.898   7.249
 2267SOL     OW 7552   0.705   2.912   5.954
 2267SOL    HW1 7553   0.691   2.919   6.053
 2267SOL    HW2 7554   0.789   2.861   5.936
 2268SOL     OW 7555   0.410   2.675   6.837
 2268SOL    HW1 7556   0.496   2.687   6.887
 2268SOL    HW2 7557   0.368   2.588   6.864
 2269SOL     OW 7558   1.274   2.248   6.848
 2269SOL    HW1 7559   1.295   2.322   6.912
 2269SOL    HW2 7560   1.185   2.265   6.805
 2270SOL     OW 7561   0.064   3.426   6.917
 2270SOL    HW1 7562   0.018   3.508   6.883
 2270SOL    HW2 7563   0.162   3.445   6.926
 2271SOL     OW 7564   0.367   2.962   6.087
 2271SOL    HW1 7565   0.360   3.045   6.031
 2271SOL    HW2 7566   0.371   2.882   6.027
 2272SOL     OW 7567   0.566   2.399   6.451
 2272SOL    HW1 7568   0.578   2.465   6.377
 2272SOL    HW2 7569   0.612   2.433   6.534
 2273SOL     OW 7570   1.252   3.210   5.974
 2273SOL    HW1 7571   1.302   3.287   6.014
 2273SOL    HW2 7572   1.157   3.212   6.006
 2274SOL     OW 7573   1.272   3.307   6.728
 2274SOL    HW1 7574   1.319   3.320   6.815
 2274SOL    HW2 7575   1.206   3.233   6.737
 2275SOL     OW 7576   0.354   3.372   6.915
 2275SOL    HW1 7577   0.333   3.328   6.828
 2275SOL    HW2 7578   0.451   3.398   6.918
 2276SOL     OW 7579   0.402   2.613   7.184
 2276SOL    HW1 7580   0.470   2.668   7.137
 2276SOL    HW2 7581   0.442   2.525   7.211
 2277SOL     OW 7582   1.013   1.967   7.356
 2277SOL    HW1 7583   1.019   2.052   7.304
 2277SOL    HW2 7584   1.045   1.891   7.299
 2278SOL     OW 7585   0.504   1.912   7.326
 2278SOL    HW1 7586   0.462   1.855   7.256
 2278SOL    HW2 7587   0.438   1.981   7.358
 2279SOL     OW 7588   0.573   2.732   6.615
 2279SOL    HW1 7589   0.617   2.821   6.606
 2279SOL    HW2 7590   0.510   2.732   6.692
 2280SOL     OW 7591   1.209   2.387   5.861
 2280SOL    HW1 7592   1.222   2.303   5.915
 2280SOL    HW2 7593   1.180   2.461   5.921
 2281SOL     OW 7594   0.307   2.075   6.817
 2281SOL    HW1 7595   0.284   2.112   6.907
 2281SOL    HW2 7596   0.277   1.980   6.811
 2282SOL     OW 7597   0.037   3.172   6.868
 2282SOL    HW1 7598   0.090   3.123   6.936
 2282SOL    HW2 7599   0.059   3.270   6.873
 2283SOL     OW 7600   0.732   2.496   6.650
 2283SOL    HW1 7601   0.791   2.470   6.574
 2283SOL    HW2 7602   0.704   2.592   6.639
 2284SOL     OW 7603   0.307   1.925   6.204
 2284SOL    HW1 7604   0.296   2.019   6.237
 2284SOL    HW2 7605   0.302   1.862   6.281
 2285SOL     OW 7606   1.622   2.229   5.960
 2285SOL    HW1 7607   1.624   2.153   6.024
 2285SOL    HW2 7608   1.574   2.306   6.000
 2286SOL     OW 7609   1.023   2.628   6.552
 2286SOL    HW1 7610   1.038   2.649   6.648
 2286SOL    HW2 7611   0.993   2.533   6.543
 2287SOL     OW 7612   0.980   3.435   7.286
 2287SOL    HW1 7613   0.960   3.479   7.198
 2287SOL    HW2 7614   1.019   3.344   7.270
 2288SOL     OW 7615   1.859   3.380   7.191
 2288SOL    HW1 7616   1.873   3.407   7.096
 2288SOL    HW2 7617   1.942   3.402   7.244
 2289SOL     OW 7618   0.350   2.760   7.390
 2289SOL    HW1 7619   0.426   2.804   7.438
 2289SOL    HW2 7620   0.385   2.713   7.308
 2290SOL     OW 7621   1.540   2.136   5.711
 2290SOL    HW1 7622   1.479   2.061   5.734
 2290SOL    HW2 7623   1.562   2.188   5.794
 2291SOL     OW 7624   1.303   2.700   5.628
 2291SOL    HW1 7625   1.337   2.607   5.643
 2291SOL    HW2 7626   1.321   2.727   5.533
 2292SOL     OW 7627   1.068   3.195   6.435
 2292SOL    HW1 7628   1.075   3.111   6.380
 2292SOL    HW2 7629   1.130   3.264   6.399
 2293SOL     OW 7630   0.319   2.672   6.535
 2293SOL    HW1 7631   0.412   2.708   6.540
 2293SOL    HW2 7632   0.313   2.587   6.587
 2294SOL     OW 7633   0.339   2.371   6.592
 2294SOL    HW1 7634   0.287   2.288   6.575
 2294SOL    HW2 7635   0.416   2.376   6.528
 2295SOL     OW 7636   1.160   2.069   7.063
 2295SOL    HW1 7637   1.160   2.133   7.140
 2295SOL    HW2 7638   1.188   2.117   6.980
 2296SOL     OW 7639   0.008   3.188   5.786
 2296SOL    HW1 7640  -0.085   3.209   5.755
 2296SOL    HW2 7641   0.018   3.089   5.799
 2297SOL     OW 7642   0.088   3.663   6.513
 2297SOL    HW1 7643   0.046   3.577   6.486
 2297SOL    HW2 7644   0.182   3.666   6.479
 2298SOL     OW 7645   0.504   3.430   6.496
 2298SOL    HW1 7646   0.570   3.504   6.505
 2298SOL    HW2 7647   0.548   3.351   6.454
 2299SOL     OW 7648   1.002   2.658   6.824
 2299SOL    HW1 7649   1.043   2.626   6.910
 2299SOL    HW2 7650   0.906   2.631   6.821
 2300SOL     OW 7651   0.040   2.406   6.700
 2300SOL    HW1 7652   0.125   2.373   6.659
 2300SOL    HW2 7653   0.053   2.421   6.798
 2301SOL     OW 7654   0.189   2.382   7.308
 2301SOL    HW1 7655   0.248   2.342   7.238
 2301SOL    HW2 7656   0.131   2.453   7.267
 2302SOL     OW 7657   1.369   2.812   7.246
 2302SOL    HW1 7658   1.408   2.901   7.266
 2302SOL    HW2 7659   1.379   2.792   7.149
 2303SOL     OW 7660   0.815   2.434   5.911
 2303SOL    HW1 7661   0.822   2.345   5.865
 2303SOL    HW2 7662   0.721   2.468   5.903
 2304SOL     OW 7663   1.657   2.466   6.792
 2304SOL    HW1 7664   1.619   2.397   6.854
 2304SOL    HW2 7665   1.739   2.430   6.748
 2305SOL     OW 7666   0.252   3.426   7.330
 2305SOL    HW1 7667   0.222   3.483   7.406
 2305SOL    HW2 7668   0.245   3.329   7.356
 2306SOL     OW 7669   0.671   2.326   6.855
 2306SOL    HW1 7670   0.637   2.237   6.825
 2306SOL    HW2 7671   0.697   2.380   6.775
 2307SOL     OW 7672   0.930   3.540   7.051
 2307SOL    HW1 7673   0.906   3.522   6.956
 2307SOL    HW2 7674   0.960   3.634   7.061
 2308SOL     OW 7675   0.473   2.362   5.777
 2308SOL    HW1 7676   0.534   2.442   5.781
 2308SOL    HW2 7677   0.378   2.393   5.784
 2309SOL     OW 7678   0.159   2.999   7.052
 2309SOL    HW1 7679   0.181   2.938   7.128
 2309SOL    HW2 7680   0.169   2.950   6.966
 2310SOL     OW 7681   1.347   2.921   6.820
 2310SOL    HW1 7682   1.371   2.858   6.746
 2310SOL    HW2 7683   1.257   2.961   6.802
 2311SOL     OW 7684   1.302   2.717   5.895
 2311SOL    HW1 7685   1.216   2.686   5.937
 2311SOL    HW2 7686   1.298   2.703   5.796
 2312SOL     OW 7687   1.759   3.609   6.740
 2312SOL    HW1 7688   1.820   3.639   6.667
 2312SOL    HW2 7689   1.721   3.520   6.718
 2313SOL     OW 7690   1.252   3.593   6.714
 2313SOL    HW1 7691   1.336   3.598   6.660
 2313SOL    HW2 7692   1.229   3.497   6.732
 2314SOL     OW 7693   0.083   3.120   6.608
 2314SOL    HW1 7694   0.078   3.119   6.708
 2314SOL    HW2 7695   0.000   3.079   6.570
 2315SOL     OW 7696   0.688   3.524   7.302
 2315SOL    HW1 7697   0.632   3.605   7.311
 2315SOL    HW2 7698   0.740   3.528   7.216
 2316SOL     OW 7699   1.388   3.435   6.063
 2316SOL    HW1 7700   1.455   3.447   5.989
 2316SOL    HW2 7701   1.348   3.524   6.086
 2317SOL     OW 7702   0.130   3.656   7.437
 2317SOL    HW1 7703   0.089   3.582   7.490
 2317SOL    HW2 7704   0.194   3.707   7.495
 2318SOL     OW 7705   1.280   2.789   6.258
 2318SOL    HW1 7706   1.340   2.708   6.260
 2318SOL    HW2 7707   1.320   2.858   6.198
 2319SOL     OW 7708   0.830   3.135   7.008
 2319SOL    HW1 7709   0.825   3.168   7.103
 2319SOL    HW2 7710   0.744   3.154   6.962
 2320SOL     OW 7711   0.672   3.478   5.740
 2320SOL    HW1 7712   0.681   3.488   5.641
 2320SOL    HW2 7713   0.632   3.389   5.761
 2321SOL     OW 7714   1.650   3.582   6.980
 2321SOL    HW1 7715   1.703   3.592   6.896
 2321SOL    HW2 7716   1.623   3.672   7.014
 2322SOL     OW 7717   0.263   2.188   6.306
 2322SOL    HW1 7718   0.184   2.239   6.272
 2322SOL    HW2 7719   0.254   2.173   6.404
 2323SOL     OW 7720   1.194   3.474   5.617
 2323SOL    HW1 7721   1.200   3.381   5.654
 2323SOL    HW2 7722   1.135   3.474   5.537
 2324SOL     OW 7723   0.822   2.864   6.958
 2324SOL    HW1 7724   0.862   2.863   6.866
 2324SOL    HW2 7725   0.832   2.956   6.998
 2325SOL     OW 7726   0.916   2.772   5.877
 2325SOL    HW1 7727   0.979   2.810   5.809
 2325SOL    HW2 7728   0.956   2.689   5.916
 2326SOL     OW 7729   1.504   3.469   5.630
 2326SOL    HW1 7730   1.412   3.506   5.637
 2326SOL    HW2 7731   1.542   3.489   5.540
 2327SOL     OW 7732   0.372   3.150   7.076
 2327SOL    HW1 7733   0.359   3.243   7.042
 2327SOL    HW2 7734   0.288   3.098   7.063
 2328SOL     OW 7735   1.614   3.154   6.875
 2328SOL    HW1 7736   1.674   3.157   6.955
 2328SOL    HW2 7737   1.539   3.218   6.888
 2329SOL     OW 7738   1.039   2.960   6.282
 2329SOL    HW1 7739   0.969   2.913   6.336
 2329SOL    HW2 7740   1.098   2.892   6.239
 2330SOL     OW 7741   1.014   2.098   6.557
 2330SOL    HW1 7742   1.006   2.062   6.464
 2330SOL    HW2 7743   1.012   2.022   6.622
 2331SOL     OW 7744   0.590   3.349   6.077
 2331SOL    HW1 7745   0.632   3.291   6.007
 2331SOL    HW2 7746   0.546   3.428   6.033
 2332SOL     OW 7747   1.709   2.247   6.967
 2332SOL    HW1 7748   1.782   2.316   6.971
 2332SOL    HW2 7749   1.737   2.172   6.908
 2333SOL     OW 7750   0.255   3.210   5.876
 2333SOL    HW1 7751   0.159   3.211   5.849
 2333SOL    HW2 7752   0.267   3.263   5.960
 2334SOL     OW 7753   0.105   2.875   7.312
 2334SOL    HW1 7754   0.028   2.842   7.366
 2334SOL    HW2 7755   0.190   2.845   7.354
 2335SOL     OW 7756   0.672   2.065   7.075
 2335SOL    HW1 7757   0.762   2.049   7.035
 2335SOL    HW2 7758   0.680   2.070   7.174
 2336SOL     OW 7759   0.075   2.207   5.619
 2336SOL    HW1 7760  -0.017   2.179   5.590
 2336SOL    HW2 7761   0.106   2.284   5.563
 2337SOL     OW 7762   1.440   2.718   6.984
 2337SOL    HW1 7763   1.383   2.770   6.921
 2337SOL    HW2 7764   1.536   2.730   6.960
 2338SOL     OW 7765   0.072   2.028   5.904
 2338SOL    HW1 7766   0.055   2.111   5.850
 2338SOL    HW2 7767   0.162   1.991   5.882
 2339SOL     OW 7768   1.183   3.197   5.705
 2339SOL    HW1 7769   1.084   3.186   5.707
 2339SOL    HW2 7770   1.217   3.212   5.798
 2340SOL     OW 7771   0.613   2.704   7.017
 2340SOL    HW1 7772   0.669   2.785   7.000
 2340SOL    HW2 7773   0.672   2.624   7.020
 2341SOL     OW 7774   1.493   3.629   6.545
 2341SOL    HW1 7775   1.526   3.693   6.476
 2341SOL    HW2 7776   1.559   3.623   6.620
 2342SOL     OW 7777   0.716   2.427   7.294
 2342SOL    HW1 7778   0.735   2.492   7.368
 2342SOL    HW2 7779   0.776   2.347   7.303
 2343SOL     OW 7780   1.450   3.082   7.219
 2343SOL    HW1 7781   1.441   3.072   7.318
 2343SOL    HW2 7782   1.546   3.075   7.193
 2344SOL     OW 7783   0.390   3.603   7.146
 2344SOL    HW1 7784   0.299   3.644   7.144
 2344SOL    HW2 7785   0.383   3.509   7.178
 2345SOL     OW 7786   1.674   2.745   6.840
 2345SOL    HW1 7787   1.647   2.656   6.803
 2345SOL    HW2 7788   1.675   2.813   6.767
 2346SOL     OW 7789   0.594   2.607   6.238
 2346SOL    HW1 7790   0.644   2.692   6.219
 2346SOL    HW2 7791   0.506   2.609   6.190
 2347SOL     OW 7792   1.777   2.204   7.228
 2347SOL    HW1 7793   1.760   2.235   7.134
 2347SOL    HW2 7794   1.693   2.167   7.266
 2348SOL     OW 7795   1.730   2.796   7.103
 2348SOL    HW1 7796   1.768   2.887   7.118
 2348SOL    HW2 7797   1.722   2.779   7.004
 2349SOL     OW 7798   0.859   3.236   5.602
 2349SOL    HW1 7799   0.813   3.251   5.690
 2349SOL    HW2 7800   0.903   3.321   5.572
 2350SOL     OW 7801   0.661   3.652   6.539
 2350SOL    HW1 7802   0.615   3.740   6.526
 2350SOL    HW2 7803   0.760   3.664   6.532
 2351SOL     OW 7804   0.859   2.818   6.447
 2351SOL    HW1 7805   0.913   2.749   6.495
 2351SOL    HW2 7806   0.827   2.887   6.513
 2352SOL     OW 7807   1.083   2.846   5.673
 2352SOL    HW1 7808   1.060   2.899   5.591
 2352SOL    HW2 7809   1.164   2.790   5.654
 2353SOL     OW 7810   1.861   3.431   6.437
 2353SOL    HW1 7811   1.790   3.419   6.367
 2353SOL    HW2 7812   1.862   3.352   6.497
 2354SOL     OW 7813   0.221   3.176   7.430
 2354SOL    HW1 7814   0.156   3.103   7.409
 2354SOL    HW2 7815   0.225   3.190   7.528
 2355SOL     OW 7816   0.079   3.102   6.239
 2355SOL    HW1 7817   0.078   3.055   6.327
 2355SOL    HW2 7818   0.161   3.074   6.188
 2356SOL     OW 7819   0.672   3.253   7.210
 2356SOL    HW1 7820   0.594   3.203   7.248
 2356SOL    HW2 7821   0.669   3.348   7.241
 2357SOL     OW 7822   0.428   2.286   6.106
 2357SOL    HW1 7823   0.458   2.214   6.044
 2357SOL    HW2 7824   0.389   2.246   6.189
 2358SOL     OW 7825   1.705   3.349   6.690
 2358SOL    HW1 7826   1.612   3.324   6.663
 2358SOL    HW2 7827   1.731   3.299   6.772
 2359SOL     OW 7828   0.317   2.409   6.866
 2359SOL    HW1 7829   0.355   2.350   6.938
 2359SOL    HW2 7830   0.357   2.383   6.778
 2360SOL     OW 7831   0.812   3.448   6.273
 2360SOL    HW1 7832   0.844   3.458   6.179
 2360SOL    HW2 7833   0.733   3.386   6.275
 2361SOL     OW 7834   1.001   1.896   6.740
 2361SOL    HW1 7835   0.938   1.824   6.709
 2361SOL    HW2 7836   1.094   1.860   6.740
 2362SOL     OW 7837   0.770   3.192   5.887
 2362SOL    HW1 7838   0.724   3.105   5.904
 2362SOL    HW2 7839   0.861   3.189   5.928
 2363SOL     OW 7840   0.618   3.429   6.870
 2363SOL    HW1 7841   0.613   3.511   6.927
 2363SOL    HW2 7842   0.707   3.426   6.825
 2364SOL     OW 7843   1.352   1.914   5.754
 2364SOL    HW1 7844   1.387   1.873   5.670
 2364SOL    HW2 7845   1.262   1.876   5.774
 2365SOL     OW 7846   0.039   2.939   5.886
 2365SOL    HW1 7847   0.138   2.928   5.877
 2365SOL    HW2 7848  -0.001   2.853   5.918
 2366SOL     OW 7849   0.875   3.508   5.923
 2366SOL    HW1 7850   0.798   3.473   5.869
 2366SOL    HW2 7851   0.843   3.579   5.985
 2367SOL     OW 7852   0.230   2.490   7.561
 2367SOL    HW1 7853   0.137   2.488   7.598
 2367SOL    HW2 7854   0.231   2.451   7.469
 2368SOL     OW 7855   0.225   2.137   8.444
 2368SOL    HW1 7856   0.260   2.120   8.536
 2368SOL    HW2 7857   0.137   2.092   8.432
 2369SOL     OW 7858   0.019   2.230   8.095
 2369SOL    HW1 7859  -0.063   2.273   8.134
 2369SOL    HW2 7860  -0.009   2.157   8.032
 2370SOL     OW 7861   0.569   3.137   8.613
 2370SOL    HW1 7862   0.476   3.130   8.576
 2370SOL    HW2 7863   0.580   3.226   8.657
 2371SOL     OW 7864   1.555   3.373   8.151
 2371SOL    HW1 7865   1.498   3.357   8.232
 2371SOL    HW2 7866   1.496   3.383   8.071
 2372SOL     OW 7867   1.135   2.565   8.165
 2372SOL    HW1 7868   1.192   2.643   8.140
 2372SOL    HW2 7869   1.075   2.591   8.241
 2373SOL     OW 7870   0.768   3.006   8.471
 2373SOL    HW1 7871   0.690   3.023   8.531
 2373SOL    HW2 7872   0.802   3.093   8.435
 2374SOL     OW 7873   0.850   2.660   9.271
 2374SOL    HW1 7874   0.846   2.736   9.336
 2374SOL    HW2 7875   0.872   2.696   9.180
 2375SOL     OW 7876   0.685   2.874   8.113
 2375SOL    HW1 7877   0.754   2.858   8.183
 2375SOL    HW2 7878   0.612   2.931   8.151
 2376SOL     OW 7879   0.686   3.023   9.251
 2376SOL    HW1 7880   0.746   3.102   9.265
 2376SOL    HW2 7881   0.600   3.054   9.210
 2377SOL     OW 7882   0.335   3.297   8.509
 2377SOL    HW1 7883   0.257   3.266   8.456
 2377SOL    HW2 7884   0.393   3.355   8.452
 2378SOL     OW 7885   1.460   3.367   8.787
 2378SOL    HW1 7886   1.484   3.461   8.813
 2378SOL    HW2 7887   1.444   3.313   8.869
 2379SOL     OW 7888   0.438   2.254   8.947
 2379SOL    HW1 7889   0.520   2.198   8.956
 2379SOL    HW2 7890   0.357   2.196   8.951
 2380SOL     OW 7891   1.603   2.309   8.185
 2380SOL    HW1 7892   1.529   2.355   8.135
 2380SOL    HW2 7893   1.654   2.377   8.238
 2381SOL     OW 7894   0.231   3.575   7.931
 2381SOL    HW1 7895   0.265   3.652   7.985
 2381SOL    HW2 7896   0.275   3.575   7.841
 2382SOL     OW 7897   1.127   3.203   9.138
 2382SOL    HW1 7898   1.174   3.203   9.226
 2382SOL    HW2 7899   1.079   3.116   9.127
 2383SOL     OW 7900   0.230   3.296   7.986
 2383SOL    HW1 7901   0.204   3.392   7.986
 2383SOL    HW2 7902   0.159   3.242   8.031
 2384SOL     OW 7903   0.240   2.953   8.334
 2384SOL    HW1 7904   0.254   2.869   8.386
 2384SOL    HW2 7905   0.185   3.017   8.389
 2385SOL     OW 7906   0.620   3.648   8.887
 2385SOL    HW1 7907   0.528   3.631   8.922
 2385SOL    HW2 7908   0.648   3.740   8.913
 2386SOL     OW 7909   0.606   2.826   7.571
 2386SOL    HW1 7910   0.613   2.910   7.517
 2386SOL    HW2 7911   0.652   2.839   7.659
 2387SOL     OW 7912   1.594   1.976   8.928
 2387SOL    HW1 7913   1.576   2.043   8.856
 2387SOL    HW2 7914   1.591   2.022   9.017
 2388SOL     OW 7915   0.122   2.505   8.011
 2388SOL    HW1 7916   0.077   2.417   8.028
 2388SOL    HW2 7917   0.121   2.559   8.095
 2389SOL     OW 7918   1.842   3.629   7.807
 2389SOL    HW1 7919   1.896   3.600   7.887
 2389SOL    HW2 7920   1.872   3.719   7.778
 2390SOL     OW 7921   0.027   3.458   7.565
 2390SOL    HW1 7922   0.008   3.362   7.586
 2390SOL    HW2 7923  -0.006   3.516   7.640
 2391SOL     OW 7924   1.689   2.784   8.060
 2391SOL    HW1 7925   1.784   2.755   8.068
 2391SOL    HW2 7926   1.681   2.849   7.985
 2392SOL     OW 7927   1.641   2.970   7.880
 2392SOL    HW1 7928   1.727   2.972   7.828
 2392SOL    HW2 7929   1.655   3.017   7.968
 2393SOL     OW 7930   0.113   2.599   9.045
 2393SOL    HW1 7931   0.201   2.586   9.090
 2393SOL    HW2 7932   0.100   2.696   9.023
 2394SOL     OW 7933   0.613   3.227   8.174
 2394SOL    HW1 7934   0.564   3.140   8.183
 2394SOL    HW2 7935   0.590   3.270   8.087
 2395SOL     OW 7936   1.293   3.090   8.871
 2395SOL    HW1 7937   1.330   3.017   8.813
 2395SOL    HW2 7938   1.345   3.095   8.956
 2396SOL     OW 7939   0.809   1.866   7.950
 2396SOL    HW1 7940   0.849   1.957   7.941
 2396SOL    HW2 7941   0.709   1.874   7.956
 2397SOL     OW 7942   0.197   2.838   8.712
 2397SOL    HW1 7943   0.286   2.793   8.698
 2397SOL    HW2 7944   0.124   2.773   8.693
 2398SOL     OW 7945   1.525   2.861   7.638
 2398SOL    HW1 7946   1.462   2.785   7.651
 2398SOL    HW2 7947   1.573   2.879   7.724
 2399SOL     OW 7948   1.187   3.654   9.064
 2399SOL    HW1 7949   1.211   3.714   8.988
 2399SOL    HW2 7950   1.194   3.559   9.034
 2400SOL     OW 7951   0.317   2.113   9.249
 2400SOL    HW1 7952   0.388   2.184   9.255
 2400SOL    HW2 7953   0.229   2.152   9.277
 2401SOL     OW 7954   1.466   3.279   8.401
 2401SOL    HW1 7955   1.407   3.285   8.481
 2401SOL    HW2 7956   1.451   3.191   8.355
 2402SOL     OW 7957   1.667   3.576   8.020
 2402SOL    HW1 7958   1.626   3.553   7.932
 2402SOL    HW2 7959   1.649   3.502   8.085
 2403SOL     OW 7960   0.598   2.591   7.718
 2403SOL    HW1 7961   0.622   2.660   7.650
 2403SOL    HW2 7962   0.520   2.624   7.772
 2404SOL     OW 7963   1.281   2.207   8.392
 2404SOL    HW1 7964   1.195   2.157   8.379
 2404SOL    HW2 7965   1.343   2.153   8.448
 2405SOL     OW 7966   1.576   3.524   7.755
 2405SOL    HW1 7967   1.665   3.570   7.758
 2405SOL    HW2 7968   1.555   3.500   7.660
 2406SOL     OW 7969   0.807   2.467   8.913
 2406SOL    HW1 7970   0.760   2.464   9.002
 2406SOL    HW2 7971   0.756   2.412   8.847
 2407SOL     OW 7972   1.394   2.331   9.122
 2407SOL    HW1 7973   1.374   2.374   9.210
 2407SOL    HW2 7974   1.472   2.269   9.131
 2408SOL     OW 7975   0.973   2.752   9.020
 2408SOL    HW1 7976   1.019   2.668   8.991
 2408SOL    HW2 7977   0.917   2.786   8.945
 2409SOL     OW 7978   0.991   2.272   8.690
 2409SOL    HW1 7979   0.914   2.306   8.744
 2409SOL    HW2 7980   0.957   2.221   8.611
 2410SOL     OW 7981   1.041   2.563   7.877
 2410SOL    HW1 7982   1.067   2.559   7.973
 2410SOL    HW2 7983   0.956   2.512   7.863
 2411SOL     OW 7984   0.076   2.673   8.237
 2411SOL    HW1 7985   0.175   2.661   8.246
 2411SOL    HW2 7986   0.052   2.768   8.258
 2412SOL     OW 7987   0.130   3.683   9.019
 2412SOL    HW1 7988   0.120   3.668   9.118
 2412SOL    HW2 7989   0.044   3.719   8.983
 2413SOL     OW 7990   0.865   2.210   7.643
 2413SOL    HW1 7991   0.924   2.273   7.594
 2413SOL    HW2 7992   0.884   2.116   7.614
 2414SOL     OW 7993   1.719   2.447   9.279
 2414SOL    HW1 7994   1.693   2.536   9.243
 2414SOL    HW2 7995   1.717   2.379   9.206
 2415SOL     OW 7996   1.362   3.006   7.993
 2415SOL    HW1 7997   1.445   2.977   7.945
 2415SOL    HW2 7998   1.313   3.073   7.937
 2416SOL     OW 7999   0.550   2.058   8.333
 2416SOL    HW1 8000   0.545   2.053   8.433
 2416SOL    HW2 8001   0.552   2.154   8.304
 2417SOL     OW 8002   1.008   3.318   7.925
 2417SOL    HW1 8003   0.962   3.390   7.873
 2417SOL    HW2 8004   1.004   3.338   8.023
 2418SOL     OW 8005   0.351   3.663   8.301
 2418SOL    HW1 8006   0.401   3.577   8.307
 2418SOL    HW2 8007   0.416   3.740   8.298
 2419SOL     OW 8008   1.795   2.928   8.321
 2419SOL    HW1 8009   1.733   2.913   8.245
 2419SOL    HW2 8010   1.743   2.939   8.406
 2420SOL     OW 8011   1.227   3.412   8.954
 2420SOL    HW1 8012   1.233   3.335   9.018
 2420SOL    HW2 8013   1.175   3.386   8.874
 2421SOL     OW 8014   0.321   2.805   7.690
 2421SOL    HW1 8015   0.403   2.844   7.648
 2421SOL    HW2 8016   0.294   2.723   7.641
 2422SOL     OW 8017   1.458   2.597   8.176
 2422SOL    HW1 8018   1.453   2.532   8.251
 2422SOL    HW2 8019   1.538   2.656   8.189
 2423SOL     OW 8020   0.461   3.128   9.175
 2423SOL    HW1 8021   0.411   3.129   9.089
 2423SOL    HW2 8022   0.398   3.110   9.251
 2424SOL     OW 8023   1.111   3.638   7.685
 2424SOL    HW1 8024   1.051   3.576   7.735
 2424SOL    HW2 8025   1.142   3.594   7.600
 2425SOL     OW 8026   0.202   2.147   8.946
 2425SOL    HW1 8027   0.122   2.207   8.933
 2425SOL    HW2 8028   0.192   2.098   9.032
 2426SOL     OW 8029   1.632   3.239   7.529
 2426SOL    HW1 8030   1.600   3.333   7.519
 2426SOL    HW2 8031   1.556   3.176   7.517
 2427SOL     OW 8032   0.464   3.605   7.771
 2427SOL    HW1 8033   0.497   3.644   7.857
 2427SOL    HW2 8034   0.540   3.598   7.706
 2428SOL     OW 8035   0.249   3.647   8.689
 2428SOL    HW1 8036   0.306   3.582   8.739
 2428SOL    HW2 8037   0.233   3.614   8.596
 2429SOL     OW 8038   0.940   3.560   8.352
 2429SOL    HW1 8039   1.020   3.503   8.373
 2429SOL    HW2 8040   0.891   3.520   8.275
 2430SOL     OW 8041   0.382   2.562   7.928
 2430SOL    HW1 8042   0.427   2.472   7.925
 2430SOL    HW2 8043   0.288   2.551   7.961
 2431SOL     OW 8044   1.547   2.084   9.177
 2431SOL    HW1 8045   1.542   2.121   9.269
 2431SOL    HW2 8046   1.475   2.015   9.165
 2432SOL     OW 8047   0.614   1.984   7.565
 2432SOL    HW1 8048   0.712   1.962   7.572
 2432SOL    HW2 8049   0.583   1.967   7.472
 2433SOL     OW 8050   0.781   2.126   9.197
 2433SOL    HW1 8051   0.848   2.065   9.240
 2433SOL    HW2 8052   0.708   2.145   9.262
 2434SOL     OW 8053   0.888   3.376   8.643
 2434SOL    HW1 8054   0.865   3.351   8.549
 2434SOL    HW2 8055   0.949   3.307   8.682
 2435SOL     OW 8056   1.351   2.452   8.881
 2435SOL    HW1 8057   1.379   2.409   8.966
 2435SOL    HW2 8058   1.376   2.548   8.882
 2436SOL     OW 8059   0.803   3.264   8.372
 2436SOL    HW1 8060   0.893   3.278   8.330
 2436SOL    HW2 8061   0.732   3.266   8.301
 2437SOL     OW 8062   0.922   2.365   8.347
 2437SOL    HW1 8063   0.897   2.356   8.251
 2437SOL    HW2 8064   0.970   2.283   8.378
 2438SOL     OW 8065   0.539   1.926   7.960
 2438SOL    HW1 8066   0.458   1.927   8.018
 2438SOL    HW2 8067   0.542   2.009   7.905
 2439SOL     OW 8068   1.434   3.050   7.489
 2439SOL    HW1 8069   1.466   2.974   7.546
 2439SOL    HW2 8070   1.342   3.077   7.519
 2440SOL     OW 8071   0.297   1.897   7.619
 2440SOL    HW1 8072   0.346   1.981   7.598
 2440SOL    HW2 8073   0.359   1.832   7.664
 2441SOL     OW 8074   0.935   2.098   7.928
 2441SOL    HW1 8075   0.887   2.139   7.850
 2441SOL    HW2 8076   1.034   2.096   7.909
 2442SOL     OW 8077   1.076   2.545   8.912
 2442SOL    HW1 8078   0.996   2.484   8.915
 2442SOL    HW2 8079   1.157   2.492   8.888
 2443SOL     OW 8080   1.227   3.432   8.241
 2443SOL    HW1 8081   1.248   3.506   8.176
 2443SOL    HW2 8082   1.295   3.432   8.314
 2444SOL     OW 8083   0.459   3.014   8.189
 2444SOL    HW1 8084   0.388   2.987   8.254
 2444SOL    HW2 8085   0.433   2.986   8.096
 2445SOL     OW 8086   1.271   3.659   8.039
 2445SOL    HW1 8087   1.315   3.723   7.975
 2445SOL    HW2 8088   1.221   3.711   8.109
 2446SOL     OW 8089   1.032   2.411   7.464
 2446SOL    HW1 8090   0.991   2.493   7.425
 2446SOL    HW2 8091   1.096   2.437   7.537
 2447SOL     OW 8092   0.078   2.418   8.834
 2447SOL    HW1 8093   0.170   2.417   8.793
 2447SOL    HW2 8094   0.072   2.492   8.901
 2448SOL     OW 8095   0.561   2.084   8.595
 2448SOL    HW1 8096   0.599   2.000   8.632
 2448SOL    HW2 8097   0.473   2.103   8.639
 2449SOL     OW 8098   0.866   2.316   8.090
 2449SOL    HW1 8099   0.834   2.388   8.028
 2449SOL    HW2 8100   0.890   2.235   8.037
 2450SOL     OW 8101   1.017   1.901   8.201
 2450SOL    HW1 8102   0.945   1.906   8.132
 2450SOL    HW2 8103   0.993   1.832   8.270
 2451SOL     OW 8104   1.429   3.035   8.315
 2451SOL    HW1 8105   1.374   2.951   8.308
 2451SOL    HW2 8106   1.455   3.064   8.223
 2452SOL     OW 8107   1.466   2.452   8.440
 2452SOL    HW1 8108   1.436   2.357   8.447
 2452SOL    HW2 8109   1.539   2.468   8.506
 2453SOL     OW 8110   0.488   3.247   7.622
 2453SOL    HW1 8111   0.401   3.232   7.669
 2453SOL    HW2 8112   0.471   3.273   7.527
 2454SOL     OW 8113   1.664   3.142   8.105
 2454SOL    HW1 8114   1.763   3.150   8.119
 2454SOL    HW2 8115   1.619   3.226   8.136
 2455SOL     OW 8116   0.527   2.118   7.776
 2455SOL    HW1 8117   0.554   2.059   7.701
 2455SOL    HW2 8118   0.527   2.213   7.745
 2456SOL     OW 8119   1.754   3.085   9.036
 2456SOL    HW1 8120   1.845   3.046   9.023
 2456SOL    HW2 8121   1.762   3.181   9.060
 2457SOL     OW 8122   1.064   3.209   8.788
 2457SOL    HW1 8123   0.984   3.186   8.843
 2457SOL    HW2 8124   1.147   3.183   8.837
 2458SOL     OW 8125   1.592   3.491   9.073
 2458SOL    HW1 8126   1.619   3.525   8.983
 2458SOL    HW2 8127   1.671   3.453   9.119
 2459SOL     OW 8128   1.111   3.057   8.548
 2459SOL    HW1 8129   1.071   3.101   8.629
 2459SOL    HW2 8130   1.070   3.094   8.465
 2460SOL     OW 8131   1.638   2.961   8.527
 2460SOL    HW1 8132   1.643   3.042   8.586
 2460SOL    HW2 8133   1.552   2.963   8.476
 2461SOL     OW 8134   0.915   1.951   8.850
 2461SOL    HW1 8135   0.940   1.931   8.755
 2461SOL    HW2 8136   0.987   2.007   8.892
 2462SOL     OW 8137   0.980   2.978   9.167
 2462SOL    HW1 8138   0.881   2.984   9.177
 2462SOL    HW2 8139   1.003   2.898   9.111
 2463SOL     OW 8140   0.705   2.912   7.816
 2463SOL    HW1 8141   0.691   2.919   7.915
 2463SOL    HW2 8142   0.789   2.861   7.798
 2464SOL     OW 8143   0.410   2.675   8.699
 2464SOL    HW1 8144   0.496   2.687   8.749
 2464SOL    HW2 8145   0.368   2.588   8.726
 2465SOL     OW 8146   1.274   2.248   8.710
 2465SOL    HW1 8147   1.295   2.322   8.774
 2465SOL    HW2 8148   1.185   2.265   8.667
 2466SOL     OW 8149   0.064   3.426   8.779
 2466SOL    HW1 8150   0.018   3.508   8.745
 2466SOL    HW2 8151   0.162   3.445   8.788
 2467SOL     OW 8152   0.367   2.962   7.949
 2467SOL    HW1 8153   0.360   3.045   7.893
 2467SOL    HW2 8154   0.371   2.882   7.889
 2468SOL     OW 8155   0.566   2.399   8.313
 2468SOL    HW1 8156   0.578   2.465   8.239
 2468SOL    HW2 8157   0.612   2.433   8.396
 2469SOL     OW 8158   1.252   3.210   7.836
 2469SOL    HW1 8159   1.302   3.287   7.876
 2469SOL    HW2 8160   1.157   3.212   7.868
 2470SOL     OW 8161   1.272   3.307   8.590
 2470SOL    HW1 8162   1.319   3.320   8.677
 2470SOL    HW2 8163   1.206   3.233   8.599
 2471SOL     OW 8164   0.354   3.372   8.777
 2471SOL    HW1 8165   0.333   3.328   8.690
 2471SOL    HW2 8166   0.451   3.398   8.780
 2472SOL     OW 8167   0.402   2.613   9.046
 2472SOL    HW1 8168   0.470   2.668   8.999
 2472SOL    HW2 8169   0.442   2.525   9.073
 2473SOL     OW 8170   1.587   2.641   9.118
 2473SOL    HW1 8171   1.495   2.679   9.113
 2473SOL    HW2 8172   1.647   2.688   9.053
 2474SOL     OW 8173   1.013   1.967   9.218
 2474SOL    HW1 8174   1.019   2.052   9.166
 2474SOL    HW2 8175   1.045   1.891   9.161
 2475SOL     OW 8176   0.504   1.912   9.188
 2475SOL    HW1 8177   0.462   1.855   9.118
 2475SOL    HW2 8178   0.438   1.981   9.220
 2476SOL     OW 8179   0.573   2.732   8.477
 2476SOL    HW1 8180   0.617   2.821   8.468
 2476SOL    HW2 8181   0.510   2.732   8.554
 2477SOL     OW 8182   1.360   2.724   8.493
 2477SOL    HW1 8183   1.285   2.724   8.427
 2477SOL    HW2 8184   1.397   2.632   8.502
 2478SOL     OW 8185   1.209   2.387   7.723
 2478SOL    HW1 8186   1.222   2.303   7.777
 2478SOL    HW2 8187   1.180   2.461   7.783
 2479SOL     OW 8188   0.307   2.075   8.679
 2479SOL    HW1 8189   0.284   2.112   8.769
 2479SOL    HW2 8190   0.277   1.980   8.673
 2480SOL     OW 8191   0.037   3.172   8.730
 2480SOL    HW1 8192   0.090   3.123   8.798
 2480SOL    HW2 8193   0.059   3.270   8.735
 2481SOL     OW 8194   0.732   2.496   8.512
 2481SOL    HW1 8195   0.791   2.470   8.436
 2481SOL    HW2 8196   0.704   2.592   8.501
 2482SOL     OW 8197   1.728   2.797   9.302
 2482SOL    HW1 8198   1.682   2.790   9.213
 2482SOL    HW2 8199   1.666   2.841   9.368
 2483SOL     OW 8200   0.307   1.925   8.066
 2483SOL    HW1 8201   0.296   2.019   8.099
 2483SOL    HW2 8202   0.302   1.862   8.143
 2484SOL     OW 8203   1.023   2.628   8.414
 2484SOL    HW1 8204   1.038   2.649   8.510
 2484SOL    HW2 8205   0.993   2.533   8.405
 2485SOL     OW 8206   0.980   3.435   9.148
 2485SOL    HW1 8207   0.960   3.479   9.060
 2485SOL    HW2 8208   1.019   3.344   9.132
 2486SOL     OW 8209   1.859   3.380   9.053
 2486SOL    HW1 8210   1.873   3.407   8.958
 2486SOL    HW2 8211   1.942   3.402   9.106
 2487SOL     OW 8212   0.350   2.760   9.252
 2487SOL    HW1 8213   0.426   2.804   9.300
 2487SOL    HW2 8214   0.385   2.713   9.170
 2488SOL     OW 8215   1.303   2.700   7.490
 2488SOL    HW1 8216   1.337   2.607   7.505
 2488SOL    HW2 8217   1.321   2.727   7.395
 2489SOL     OW 8218   1.068   3.195   8.297
 2489SOL    HW1 8219   1.075   3.111   8.242
 2489SOL    HW2 8220   1.130   3.264   8.261
 2490SOL     OW 8221   0.319   2.672   8.397
 2490SOL    HW1 8222   0.412   2.708   8.402
 2490SOL    HW2 8223   0.313   2.587   8.449
 2491SOL     OW 8224   0.339   2.371   8.454
 2491SOL    HW1 8225   0.287   2.288   8.437
 2491SOL    HW2 8226   0.416   2.376   8.390
 2492SOL     OW 8227   1.138   2.242   9.126
 2492SOL    HW1 8228   1.093   2.305   9.190
 2492SOL    HW2 8229   1.231   2.273   9.109
 2493SOL     OW 8230   1.160   2.069   8.925
 2493SOL    HW1 8231   1.160   2.133   9.002
 2493SOL    HW2 8232   1.188   2.117   8.842
 2494SOL     OW 8233   0.008   3.188   7.648
 2494SOL    HW1 8234  -0.085   3.209   7.617
 2494SOL    HW2 8235   0.018   3.089   7.661
 2495SOL     OW 8236   0.088   3.663   8.375
 2495SOL    HW1 8237   0.046   3.577   8.348
 2495SOL    HW2 8238   0.182   3.666   8.341
 2496SOL     OW 8239   0.504   3.430   8.358
 2496SOL    HW1 8240   0.570   3.504   8.367
 2496SOL    HW2 8241   0.548   3.351   8.316
 2497SOL     OW 8242   1.002   2.658   8.686
 2497SOL    HW1 8243   1.043   2.626   8.772
 2497SOL    HW2 8244   0.906   2.631   8.683
 2498SOL     OW 8245   0.040   2.406   8.562
 2498SOL    HW1 8246   0.125   2.373   8.521
 2498SOL    HW2 8247   0.053   2.421   8.660
 2499SOL     OW 8248   0.189   2.382   9.170
 2499SOL    HW1 8249   0.248   2.342   9.100
 2499SOL    HW2 8250   0.131   2.453   9.129
 2500SOL     OW 8251   1.369   2.812   9.108
 2500SOL    HW1 8252   1.408   2.901   9.128
 2500SOL    HW2 8253   1.379   2.792   9.011
 2501SOL     OW 8254   0.815   2.434   7.773
 2501SOL    HW1 8255   0.822   2.345   7.727
 2501SOL    HW2 8256   0.721   2.468   7.765
 2502SOL     OW 8257   1.657   2.466   8.654
 2502SOL    HW1 8258   1.619   2.397   8.716
 2502SOL    HW2 8259   1.739   2.430   8.610
 2503SOL     OW 8260   0.252   3.426   9.192
 2503SOL    HW1 8261   0.222   3.483   9.268
 2503SOL    HW2 8262   0.245   3.329   9.218
 2504SOL     OW 8263   0.671   2.326   8.717
 2504SOL    HW1 8264   0.637   2.237   8.687
 2504SOL    HW2 8265   0.697   2.380   8.637
 2505SOL     OW 8266   0.930   3.540   8.913
 2505SOL    HW1 8267   0.906   3.522   8.818
 2505SOL    HW2 8268   0.960   3.634   8.923
 2506SOL     OW 8269   0.473   2.362   7.639
 2506SOL    HW1 8270   0.534   2.442   7.643
 2506SOL    HW2 8271   0.378   2.393   7.646
 2507SOL     OW 8272   0.159   2.999   8.914
 2507SOL    HW1 8273   0.181   2.938   8.990
 2507SOL    HW2 8274   0.169   2.950   8.828
 2508SOL     OW 8275   1.347   2.921   8.682
 2508SOL    HW1 8276   1.371   2.858   8.608
 2508SOL    HW2 8277   1.257   2.961   8.664
 2509SOL     OW 8278   1.302   2.717   7.757
 2509SOL    HW1 8279   1.216   2.686   7.799
 2509SOL    HW2 8280   1.298   2.703   7.658
 2510SOL     OW 8281   1.759   3.609   8.602
 2510SOL    HW1 8282   1.820   3.639   8.529
 2510SOL    HW2 8283   1.721   3.520   8.580
 2511SOL     OW 8284   1.252   3.593   8.576
 2511SOL    HW1 8285   1.336   3.598   8.522
 2511SOL    HW2 8286   1.229   3.497   8.594
 2512SOL     OW 8287   0.083   3.120   8.470
 2512SOL    HW1 8288   0.078   3.119   8.570
 2512SOL    HW2 8289   0.000   3.079   8.432
 2513SOL     OW 8290   0.688   3.524   9.164
 2513SOL    HW1 8291   0.632   3.605   9.173
 2513SOL    HW2 8292   0.740   3.528   9.078
 2514SOL     OW 8293   1.388   3.435   7.925
 2514SOL    HW1 8294   1.455   3.447   7.851
 2514SOL    HW2 8295   1.348   3.524   7.948
 2515SOL     OW 8296   0.130   3.656   9.299
 2515SOL    HW1 8297   0.089   3.582   9.352
 2515SOL    HW2 8298   0.194   3.707   9.357
 2516SOL     OW 8299   1.280   2.789   8.120
 2516SOL    HW1 8300   1.340   2.708   8.122
 2516SOL    HW2 8301   1.320   2.858   8.060
 2517SOL     OW 8302   0.830   3.135   8.870
 2517SOL    HW1 8303   0.825   3.168   8.965
 2517SOL    HW2 8304   0.744   3.154   8.824
 2518SOL     OW 8305   0.672   3.478   7.602
 2518SOL    HW1 8306   0.681   3.488   7.503
 2518SOL    HW2 8307   0.632   3.389   7.623
 2519SOL     OW 8308   1.650   3.582   8.842
 2519SOL    HW1 8309   1.703   3.592   8.758
 2519SOL    HW2 8310   1.623   3.672   8.876
 2520SOL     OW 8311   0.263   2.188   8.168
 2520SOL    HW1 8312   0.184   2.239   8.134
 2520SOL    HW2 8313   0.254   2.173   8.266
 2521SOL     OW 8314   1.194   3.474   7.479
 2521SOL    HW1 8315   1.200   3.381   7.516
 2521SOL    HW2 8316   1.135   3.474   7.399
 2522SOL     OW 8317   0.822   2.864   8.820
 2522SOL    HW1 8318   0.862   2.863   8.728
 2522SOL    HW2 8319   0.832   2.956   8.860
 2523SOL     OW 8320   0.916   2.772   7.739
 2523SOL    HW1 8321   0.979   2.810   7.671
 2523SOL    HW2 8322   0.956   2.689   7.778
 2524SOL     OW 8323   1.504   3.469   7.492
 2524SOL    HW1 8324   1.412   3.506   7.499
 2524SOL    HW2 8325   1.542   3.489   7.402
 2525SOL     OW 8326   0.372   3.150   8.938
 2525SOL    HW1 8327   0.359   3.243   8.904
 2525SOL    HW2 8328   0.288   3.098   8.925
 2526SOL     OW 8329   1.614   3.154   8.737
 2526SOL    HW1 8330   1.674   3.157   8.817
 2526SOL    HW2 8331   1.539   3.218   8.750
 2527SOL     OW 8332   1.039   2.960   8.144
 2527SOL    HW1 8333   0.969   2.913   8.198
 2527SOL    HW2 8334   1.098   2.892   8.101
 2528SOL     OW 8335   1.014   2.098   8.419
 2528SOL    HW1 8336   1.006   2.062   8.326
 2528SOL    HW2 8337   1.012   2.022   8.484
 2529SOL     OW 8338   0.590   3.349   7.939
 2529SOL    HW1 8339   0.632   3.291   7.869
 2529SOL    HW2 8340   0.546   3.428   7.895
 2530SOL     OW 8341   1.709   2.247   8.829
 2530SOL    HW1 8342   1.782   2.316   8.833
 2530SOL    HW2 8343   1.737   2.172   8.770
 2531SOL     OW 8344   0.255   3.210   7.738
 2531SOL    HW1 8345   0.159   3.211   7.711
 2531SOL    HW2 8346   0.267   3.263   7.822
 2532SOL     OW 8347   0.105   2.875   9.174
 2532SOL    HW1 8348   0.028   2.842   9.228
 2532SOL    HW2 8349   0.190   2.845   9.216
 2533SOL     OW 8350   0.672   2.065   8.937
 2533SOL    HW1 8351   0.762   2.049   8.897
 2533SOL    HW2 8352   0.680   2.070   9.036
 2534SOL     OW 8353   0.075   2.207   7.481
 2534SOL    HW1 8354  -0.017   2.179   7.452
 2534SOL    HW2 8355   0.106   2.284   7.425
 2535SOL     OW 8356   1.440   2.718   8.846
 2535SOL    HW1 8357   1.383   2.770   8.783
 2535SOL    HW2 8358   1.536   2.730   8.822
 2536SOL     OW 8359   0.072   2.028   7.766
 2536SOL    HW1 8360   0.055   2.111   7.712
 2536SOL    HW2 8361   0.162   1.991   7.744
 2537SOL     OW 8362   1.183   3.197   7.567
 2537SOL    HW1 8363   1.084   3.186   7.569
 2537SOL    HW2 8364   1.217   3.212   7.660
 2538SOL     OW 8365   0.613   2.704   8.879
 2538SOL    HW1 8366   0.669   2.785   8.862
 2538SOL    HW2 8367   0.672   2.624   8.882
 2539SOL     OW 8368   1.493   3.629   8.407
 2539SOL    HW1 8369   1.526   3.693   8.338
 2539SOL    HW2 8370   1.559   3.623   8.482
 2540SOL     OW 8371   0.716   2.427   9.156
 2540SOL    HW1 8372   0.735   2.492   9.230
 2540SOL    HW2 8373   0.776   2.347   9.165
 2541SOL     OW 8374   1.450   3.082   9.081
 2541SOL    HW1 8375   1.441   3.072   9.180
 2541SOL    HW2 8376   1.546   3.075   9.055
 2542SOL     OW 8377   0.390   3.603   9.008
 2542SOL    HW1 8378   0.299   3.644   9.006
 2542SOL    HW2 8379   0.383   3.509   9.040
 2543SOL     OW 8380   1.674   2.745   8.702
 2543SOL    HW1 8381   1.647   2.656   8.665
 2543SOL    HW2 8382   1.675   2.813   8.629
 2544SOL     OW 8383   1.225   2.187   7.897
 2544SOL    HW1 8384   1.290   2.113   7.886
 2544SOL    HW2 8385   1.245   2.237   7.981
 2545SOL     OW 8386   0.594   2.607   8.100
 2545SOL    HW1 8387   0.644   2.692   8.081
 2545SOL    HW2 8388   0.506   2.609   8.052
 2546SOL     OW 8389   1.777   2.204   9.090
 2546SOL    HW1 8390   1.760   2.235   8.996
 2546SOL    HW2 8391   1.693   2.167   9.128
 2547SOL     OW 8392   1.730   2.796   8.965
 2547SOL    HW1 8393   1.768   2.887   8.980
 2547SOL    HW2 8394   1.722   2.779   8.866
 2548SOL     OW 8395   0.859   3.236   7.464
 2548SOL    HW1 8396   0.813   3.251   7.552
 2548SOL    HW2 8397   0.903   3.321   7.434
 2549SOL     OW 8398   0.661   3.652   8.401
 2549SOL    HW1 8399   0.615   3.740   8.388
 2549SOL    HW2 8400   0.760   3.664   8.394
 2550SOL     OW 8401   0.859   2.818   8.309
 2550SOL    HW1 8402   0.913   2.749   8.357
 2550SOL    HW2 8403   0.827   2.887   8.375
 2551SOL     OW 8404   1.083   2.846   7.535
 2551SOL    HW1 8405   1.060   2.899   7.453
 2551SOL    HW2 8406   1.164   2.790   7.516
 2552SOL     OW 8407   1.861   3.431   8.299
 2552SOL    HW1 8408   1.790   3.419   8.229
 2552SOL    HW2 8409   1.862   3.352   8.359
 2553SOL     OW 8410   0.221   3.176   9.292
 2553SOL    HW1 8411   0.156   3.103   9.271
 2553SOL    HW2 8412   0.225   3.190   9.390
 2554SOL     OW 8413   0.079   3.102   8.101
 2554SOL    HW1 8414   0.078   3.055   8.189
 2554SOL    HW2 8415   0.161   3.074   8.050
 2555SOL     OW 8416   0.672   3.253   9.072
 2555SOL    HW1 8417   0.594   3.203   9.110
 2555SOL    HW2 8418   0.669   3.348   9.103
 2556SOL     OW 8419   0.428   2.286   7.968
 2556SOL    HW1 8420   0.458   2.214   7.906
 2556SOL    HW2 8421   0.389   2.246   8.051
 2557SOL     OW 8422   1.705   3.349   8.552
 2557SOL    HW1 8423   1.612   3.324   8.525
 2557SOL    HW2 8424   1.731   3.299   8.634
 2558SOL     OW 8425   0.317   2.409   8.728
 2558SOL    HW1 8426   0.355   2.350   8.800
 2558SOL    HW2 8427   0.357   2.383   8.640
 2559SOL     OW 8428   0.812   3.448   8.135
 2559SOL    HW1 8429   0.844   3.458   8.041
 2559SOL    HW2 8430   0.733   3.386   8.137
 2560SOL     OW 8431   1.424   2.076   8.560
 2560SOL    HW1 8432   1.476   2.011   8.615
 2560SOL    HW2 8433   1.375   2.139   8.621
 2561SOL     OW 8434   1.001   1.896   8.602
 2561SOL    HW1 8435   0.938   1.824   8.571
 2561SOL    HW2 8436   1.094   1.860   8.602
 2562SOL     OW 8437   0.770   3.192   7.749
 2562SOL    HW1 8438   0.724   3.105   7.766
 2562SOL    HW2 8439   0.861   3.189   7.790
 2563SOL     OW 8440   0.618   3.429   8.732
 2563SOL    HW1 8441   0.613   3.511   8.789
 2563SOL    HW2 8442   0.707   3.426   8.687
 2564SOL     OW 8443   1.300   2.315   8.139
 2564SOL    HW1 8444   1.241   2.395   8.143
 2564SOL    HW2 8445   1.315   2.280   8.232
 2565SOL     OW 8446   1.593   2.083   8.330
 2565SOL    HW1 8447   1.509   2.082   8.384
 2565SOL    HW2 8448   1.595   2.166   8.274
 2566SOL     OW 8449   0.039   2.939   7.748
 2566SOL    HW1 8450   0.138   2.928   7.739
 2566SOL    HW2 8451  -0.001   2.853   7.780
 2567SOL     OW 8452   0.875   3.508   7.785
 2567SOL    HW1 8453   0.798   3.473   7.731
 2567SOL    HW2 8454   0.843   3.579   7.847
 2568SOL     OW 8455   0.230   2.490   9.423
 2568SOL    HW1 8456   0.137   2.488   9.460
 2568SOL    HW2 8457   0.231   2.451   9.331
 2569SOL     OW 8458   0.225   2.137  10.306
 2569SOL    HW1 8459   0.260   2.120  10.398
 2569SOL    HW2 8460   0.137   2.092  10.294
 2570SOL     OW 8461   0.019   2.230   9.957
 2570SOL    HW1 8462  -0.063   2.273   9.996
 2570SOL    HW2 8463  -0.009   2.157   9.894
 2571SOL     OW 8464   0.569   3.137  10.475
 2571SOL    HW1 8465   0.476   3.130  10.438
 2571SOL    HW2 8466   0.580   3.226  10.519
 2572SOL     OW 8467   1.555   3.373  10.013
 2572SOL    HW1 8468   1.498   3.357  10.094
 2572SOL    HW2 8469   1.496   3.383   9.933
 2573SOL     OW 8470   1.135   2.565  10.027
 2573SOL    HW1 8471   1.192   2.643  10.002
 2573SOL    HW2 8472   1.075   2.591  10.103
 2574SOL     OW 8473   1.755   2.469   9.541
 2574SOL    HW1 8474   1.743   2.456   9.442
 2574SOL    HW2 8475   1.725   2.388   9.590
 2575SOL     OW 8476   0.768   3.006  10.333
 2575SOL    HW1 8477   0.690   3.023  10.393
 2575SOL    HW2 8478   0.802   3.093  10.297
 2576SOL     OW 8479   0.850   2.660  11.133
 2576SOL    HW1 8480   0.846   2.736  11.198
 2576SOL    HW2 8481   0.872   2.696  11.042
 2577SOL     OW 8482   0.685   2.874   9.975
 2577SOL    HW1 8483   0.754   2.858  10.045
 2577SOL    HW2 8484   0.612   2.931  10.013
 2578SOL     OW 8485   0.686   3.023  11.113
 2578SOL    HW1 8486   0.746   3.102  11.127
 2578SOL    HW2 8487   0.600   3.054  11.072
 2579SOL     OW 8488   0.335   3.297  10.371
 2579SOL    HW1 8489   0.257   3.266  10.318
 2579SOL    HW2 8490   0.393   3.355  10.314
 2580SOL     OW 8491   1.460   3.367  10.649
 2580SOL    HW1 8492   1.484   3.461  10.675
 2580SOL    HW2 8493   1.444   3.313  10.731
 2581SOL     OW 8494   0.438   2.254  10.809
 2581SOL    HW1 8495   0.520   2.198  10.818
 2581SOL    HW2 8496   0.357   2.196  10.813
 2582SOL     OW 8497   1.603   2.309  10.047
 2582SOL    HW1 8498   1.529   2.355   9.997
 2582SOL    HW2 8499   1.654   2.377  10.100
 2583SOL     OW 8500   0.231   3.575   9.793
 2583SOL    HW1 8501   0.265   3.652   9.847
 2583SOL    HW2 8502   0.275   3.575   9.703
 2584SOL     OW 8503   1.127   3.203  11.000
 2584SOL    HW1 8504   1.174   3.203  11.088
 2584SOL    HW2 8505   1.079   3.116  10.989
 2585SOL     OW 8506   0.230   3.296   9.848
 2585SOL    HW1 8507   0.204   3.392   9.848
 2585SOL    HW2 8508   0.159   3.242   9.893
 2586SOL     OW 8509   0.240   2.953  10.196
 2586SOL    HW1 8510   0.254   2.869  10.248
 2586SOL    HW2 8511   0.185   3.017  10.251
 2587SOL     OW 8512   0.620   3.648  10.749
 2587SOL    HW1 8513   0.528   3.631  10.784
 2587SOL    HW2 8514   0.648   3.740  10.775
 2588SOL     OW 8515   0.606   2.826   9.433
 2588SOL    HW1 8516   0.613   2.910   9.379
 2588SOL    HW2 8517   0.652   2.839   9.521
 2589SOL     OW 8518   1.594   1.976  10.790
 2589SOL    HW1 8519   1.576   2.043  10.718
 2589SOL    HW2 8520   1.591   2.022  10.879
 2590SOL     OW 8521   0.122   2.505   9.873
 2590SOL    HW1 8522   0.077   2.417   9.890
 2590SOL    HW2 8523   0.121   2.559   9.957
 2591SOL     OW 8524   1.842   3.629   9.669
 2591SOL    HW1 8525   1.896   3.600   9.749
 2591SOL    HW2 8526   1.872   3.719   9.640
 2592SOL     OW 8527   0.027   3.458   9.427
 2592SOL    HW1 8528   0.008   3.362   9.448
 2592SOL    HW2 8529  -0.006   3.516   9.502
 2593SOL     OW 8530   1.689   2.784   9.922
 2593SOL    HW1 8531   1.784   2.755   9.930
 2593SOL    HW2 8532   1.681   2.849   9.847
 2594SOL     OW 8533   1.641   2.970   9.742
 2594SOL    HW1 8534   1.727   2.972   9.690
 2594SOL    HW2 8535   1.655   3.017   9.830
 2595SOL     OW 8536   0.113   2.599  10.907
 2595SOL    HW1 8537   0.201   2.586  10.952
 2595SOL    HW2 8538   0.100   2.696  10.885
 2596SOL     OW 8539   0.613   3.227  10.036
 2596SOL    HW1 8540   0.564   3.140  10.045
 2596SOL    HW2 8541   0.590   3.270   9.949
 2597SOL     OW 8542   1.293   3.090  10.733
 2597SOL    HW1 8543   1.330   3.017  10.675
 2597SOL    HW2 8544   1.345   3.095  10.818
 2598SOL     OW 8545   0.809   1.866   9.812
 2598SOL    HW1 8546   0.849   1.957   9.803
 2598SOL    HW2 8547   0.709   1.874   9.818
 2599SOL     OW 8548   0.197   2.838  10.574
 2599SOL    HW1 8549   0.286   2.793  10.560
 2599SOL    HW2 8550   0.124   2.773  10.555
 2600SOL     OW 8551   1.525   2.861   9.500
 2600SOL    HW1 8552   1.462   2.785   9.513
 2600SOL    HW2 8553   1.573   2.879   9.586
 2601SOL     OW 8554   1.187   3.654  10.926
 2601SOL    HW1 8555   1.211   3.714  10.850
 2601SOL    HW2 8556   1.194   3.559  10.896
 2602SOL     OW 8557   0.317   2.113  11.111
 2602SOL    HW1 8558   0.388   2.184  11.117
 2602SOL    HW2 8559   0.229   2.152  11.139
 2603SOL     OW 8560   1.466   3.279  10.263
 2603SOL    HW1 8561   1.407   3.285  10.343
 2603SOL    HW2 8562   1.451   3.191  10.217
 2604SOL     OW 8563   1.667   3.576   9.882
 2604SOL    HW1 8564   1.626   3.553   9.794
 2604SOL    HW2 8565   1.649   3.502   9.947
 2605SOL     OW 8566   0.598   2.591   9.580
 2605SOL    HW1 8567   0.622   2.660   9.512
 2605SOL    HW2 8568   0.520   2.624   9.634
 2606SOL     OW 8569   1.281   2.207  10.254
 2606SOL    HW1 8570   1.195   2.157  10.241
 2606SOL    HW2 8571   1.343   2.153  10.310
 2607SOL     OW 8572   1.576   3.524   9.617
 2607SOL    HW1 8573   1.665   3.570   9.620
 2607SOL    HW2 8574   1.555   3.500   9.522
 2608SOL     OW 8575   0.807   2.467  10.775
 2608SOL    HW1 8576   0.760   2.464  10.864
 2608SOL    HW2 8577   0.756   2.412  10.709
 2609SOL     OW 8578   1.394   2.331  10.984
 2609SOL    HW1 8579   1.374   2.374  11.072
 2609SOL    HW2 8580   1.472   2.269  10.993
 2610SOL     OW 8581   0.973   2.752  10.882
 2610SOL    HW1 8582   1.019   2.668  10.853
 2610SOL    HW2 8583   0.917   2.786  10.807
 2611SOL     OW 8584   0.991   2.272  10.552
 2611SOL    HW1 8585   0.914   2.306  10.606
 2611SOL    HW2 8586   0.957   2.221  10.473
 2612SOL     OW 8587   1.041   2.563   9.739
 2612SOL    HW1 8588   1.067   2.559   9.835
 2612SOL    HW2 8589   0.956   2.512   9.725
 2613SOL     OW 8590   0.076   2.673  10.099
 2613SOL    HW1 8591   0.175   2.661  10.108
 2613SOL    HW2 8592   0.052   2.768  10.120
 2614SOL     OW 8593   0.130   3.683  10.881
 2614SOL    HW1 8594   0.120   3.668  10.980
 2614SOL    HW2 8595   0.044   3.719  10.845
 2615SOL     OW 8596   0.865   2.210   9.505
 2615SOL    HW1 8597   0.924   2.273   9.456
 2615SOL    HW2 8598   0.884   2.116   9.476
 2616SOL     OW 8599   1.719   2.447  11.141
 2616SOL    HW1 8600   1.693   2.536  11.105
 2616SOL    HW2 8601   1.717   2.379  11.068
 2617SOL     OW 8602   1.362   3.006   9.855
 2617SOL    HW1 8603   1.445   2.977   9.807
 2617SOL    HW2 8604   1.313   3.073   9.799
 2618SOL     OW 8605   0.550   2.058  10.195
 2618SOL    HW1 8606   0.545   2.053  10.295
 2618SOL    HW2 8607   0.552   2.154  10.166
 2619SOL     OW 8608   1.008   3.318   9.787
 2619SOL    HW1 8609   0.962   3.390   9.735
 2619SOL    HW2 8610   1.004   3.338   9.885
 2620SOL     OW 8611   0.351   3.663  10.163
 2620SOL    HW1 8612   0.401   3.577  10.169
 2620SOL    HW2 8613   0.416   3.740  10.160
 2621SOL     OW 8614   1.795   2.928  10.183
 2621SOL    HW1 8615   1.733   2.913  10.107
 2621SOL    HW2 8616   1.743   2.939  10.268
 2622SOL     OW 8617   1.227   3.412  10.816
 2622SOL    HW1 8618   1.233   3.335  10.880
 2622SOL    HW2 8619   1.175   3.386  10.736
 2623SOL     OW 8620   0.321   2.805   9.552
 2623SOL    HW1 8621   0.403   2.844   9.510
 2623SOL    HW2 8622   0.294   2.723   9.503
 2624SOL     OW 8623   1.458   2.597  10.038
 2624SOL    HW1 8624   1.453   2.532  10.113
 2624SOL    HW2 8625   1.538   2.656  10.051
 2625SOL     OW 8626   0.461   3.128  11.037
 2625SOL    HW1 8627   0.411   3.129  10.951
 2625SOL    HW2 8628   0.398   3.110  11.113
 2626SOL     OW 8629   1.111   3.638   9.547
 2626SOL    HW1 8630   1.051   3.576   9.597
 2626SOL    HW2 8631   1.142   3.594   9.462
 2627SOL     OW 8632   0.202   2.147  10.808
 2627SOL    HW1 8633   0.122   2.207  10.795
 2627SOL    HW2 8634   0.192   2.098  10.894
 2628SOL     OW 8635   1.632   3.239   9.391
 2628SOL    HW1 8636   1.600   3.333   9.381
 2628SOL    HW2 8637   1.556   3.176   9.379
 2629SOL     OW 8638   0.464   3.605   9.633
 2629SOL    HW1 8639   0.497   3.644   9.719
 2629SOL    HW2 8640   0.540   3.598   9.568
 2630SOL     OW 8641   1.400   1.969   9.736
 2630SOL    HW1 8642   1.376   1.932   9.646
 2630SOL    HW2 8643   1.499   1.985   9.740
 2631SOL     OW 8644   0.249   3.647  10.551
 2631SOL    HW1 8645   0.306   3.582  10.601
 2631SOL    HW2 8646   0.233   3.614  10.458
 2632SOL     OW 8647   0.940   3.560  10.214
 2632SOL    HW1 8648   1.020   3.503  10.235
 2632SOL    HW2 8649   0.891   3.520  10.137
 2633SOL     OW 8650   0.382   2.562   9.790
 2633SOL    HW1 8651   0.427   2.472   9.787
 2633SOL    HW2 8652   0.288   2.551   9.823
 2634SOL     OW 8653   1.547   2.084  11.039
 2634SOL    HW1 8654   1.542   2.121  11.131
 2634SOL    HW2 8655   1.475   2.015  11.027
 2635SOL     OW 8656   0.614   1.984   9.427
 2635SOL    HW1 8657   0.712   1.962   9.434
 2635SOL    HW2 8658   0.583   1.967   9.334
 2636SOL     OW 8659   0.781   2.126  11.059
 2636SOL    HW1 8660   0.848   2.065  11.102
 2636SOL    HW2 8661   0.708   2.145  11.124
 2637SOL     OW 8662   0.888   3.376  10.505
 2637SOL    HW1 8663   0.865   3.351  10.411
 2637SOL    HW2 8664   0.949   3.307  10.544
 2638SOL     OW 8665   1.351   2.452  10.743
 2638SOL    HW1 8666   1.379   2.409  10.828
 2638SOL    HW2 8667   1.376   2.548  10.744
 2639SOL     OW 8668   0.803   3.264  10.234
 2639SOL    HW1 8669   0.893   3.278  10.192
 2639SOL    HW2 8670   0.732   3.266  10.163
 2640SOL     OW 8671   0.922   2.365  10.209
 2640SOL    HW1 8672   0.897   2.356  10.113
 2640SOL    HW2 8673   0.970   2.283  10.240
 2641SOL     OW 8674   0.539   1.926   9.822
 2641SOL    HW1 8675   0.458   1.927   9.880
 2641SOL    HW2 8676   0.542   2.009   9.767
 2642SOL     OW 8677   1.434   3.050   9.351
 2642SOL    HW1 8678   1.466   2.974   9.408
 2642SOL    HW2 8679   1.342   3.077   9.381
 2643SOL     OW 8680   0.297   1.897   9.481
 2643SOL    HW1 8681   0.346   1.981   9.460
 2643SOL    HW2 8682   0.359   1.832   9.526
 2644SOL     OW 8683   0.935   2.098   9.790
 2644SOL    HW1 8684   0.887   2.139   9.712
 2644SOL    HW2 8685   1.034   2.096   9.771
 2645SOL     OW 8686   1.076   2.545  10.774
 2645SOL    HW1 8687   0.996   2.484  10.777
 2645SOL    HW2 8688   1.157   2.492  10.750
 2646SOL     OW 8689   1.227   3.432  10.103
 2646SOL    HW1 8690   1.248   3.506  10.038
 2646SOL    HW2 8691   1.295   3.432  10.176
 2647SOL     OW 8692   0.459   3.014  10.051
 2647SOL    HW1 8693   0.388   2.987  10.116
 2647SOL    HW2 8694   0.433   2.986   9.958
 2648SOL     OW 8695   1.271   3.659   9.901
 2648SOL    HW1 8696   1.315   3.723   9.837
 2648SOL    HW2 8697   1.221   3.711   9.971
 2649SOL     OW 8698   1.032   2.411   9.326
 2649SOL    HW1 8699   0.991   2.493   9.287
 2649SOL    HW2 8700   1.096   2.437   9.399
 2650SOL     OW 8701   0.078   2.418  10.696
 2650SOL    HW1 8702   0.170   2.417  10.655
 2650SOL    HW2 8703   0.072   2.492  10.763
 2651SOL     OW 8704   0.561   2.084  10.457
 2651SOL    HW1 8705   0.599   2.000  10.494
 2651SOL    HW2 8706   0.473   2.103  10.501
 2652SOL     OW 8707   0.866   2.316   9.952
 2652SOL    HW1 8708   0.834   2.388   9.890
 2652SOL    HW2 8709   0.890   2.235   9.899
 2653SOL     OW 8710   1.017   1.901  10.063
 2653SOL    HW1 8711   0.945   1.906   9.994
 2653SOL    HW2 8712   0.993   1.832  10.132
 2654SOL     OW 8713   1.429   3.035  10.177
 2654SOL    HW1 8714   1.374   2.951  10.170
 2654SOL    HW2 8715   1.455   3.064  10.085
 2655SOL     OW 8716   1.466   2.452  10.302
 2655SOL    HW1 8717   1.436   2.357  10.309
 2655SOL    HW2 8718   1.539   2.468  10.368
 2656SOL     OW 8719   1.857   2.695   9.687
 2656SOL    HW1 8720   1.899   2.631   9.751
 2656SOL    HW2 8721   1.819   2.644   9.609
 2657SOL     OW 8722   0.488   3.247   9.484
 2657SOL    HW1 8723   0.401   3.232   9.531
 2657SOL    HW2 8724   0.471   3.273   9.389
 2658SOL     OW 8725   1.664   3.142   9.967
 2658SOL    HW1 8726   1.763   3.150   9.981
 2658SOL    HW2 8727   1.619   3.226   9.998
 2659SOL     OW 8728   1.390   2.437   9.388
 2659SOL    HW1 8729   1.336   2.416   9.469
 2659SOL    HW2 8730   1.481   2.396   9.397
 2660SOL     OW 8731   0.527   2.118   9.638
 2660SOL    HW1 8732   0.554   2.059   9.563
 2660SOL    HW2 8733   0.527   2.213   9.607
 2661SOL     OW 8734   1.754   3.085  10.898
 2661SOL    HW1 8735   1.845   3.046  10.885
 2661SOL    HW2 8736   1.762   3.181  10.922
 2662SOL     OW 8737   1.064   3.209  10.650
 2662SOL    HW1 8738   0.984   3.186  10.705
 2662SOL    HW2 8739   1.147   3.183  10.699
 2663SOL     OW 8740   1.592   3.491  10.935
 2663SOL    HW1 8741   1.619   3.525  10.845
 2663SOL    HW2 8742   1.671   3.453  10.981
 2664SOL     OW 8743   1.111   3.057  10.410
 2664SOL    HW1 8744   1.071   3.101  10.491
 2664SOL    HW2 8745   1.070   3.094  10.327
 2665SOL     OW 8746   1.638   2.961  10.389
 2665SOL    HW1 8747   1.643   3.042  10.448
 2665SOL    HW2 8748   1.552   2.963  10.338
 2666SOL     OW 8749   0.915   1.951  10.712
 2666SOL    HW1 8750   0.940   1.931  10.617
 2666SOL    HW2 8751   0.987   2.007  10.754
 2667SOL     OW 8752   0.980   2.978  11.029
 2667SOL    HW1 8753   0.881   2.984  11.039
 2667SOL    HW2 8754   1.003   2.898  10.973
 2668SOL     OW 8755   0.705   2.912   9.678
 2668SOL    HW1 8756   0.691   2.919   9.777
 2668SOL    HW2 8757   0.789   2.861   9.660
 2669SOL     OW 8758   0.410   2.675  10.561
 2669SOL    HW1 8759   0.496   2.687  10.611
 2669SOL    HW2 8760   0.368   2.588  10.588
 2670SOL     OW 8761   1.274   2.248  10.572
 2670SOL    HW1 8762   1.295   2.322  10.636
 2670SOL    HW2 8763   1.185   2.265  10.529
 2671SOL     OW 8764   0.064   3.426  10.641
 2671SOL    HW1 8765   0.018   3.508  10.607
 2671SOL    HW2 8766   0.162   3.445  10.650
 2672SOL     OW 8767   0.367   2.962   9.811
 2672SOL    HW1 8768   0.360   3.045   9.755
 2672SOL    HW2 8769   0.371   2.882   9.751
 2673SOL     OW 8770   0.566   2.399  10.175
 2673SOL    HW1 8771   0.578   2.465  10.101
 2673SOL    HW2 8772   0.612   2.433  10.258
 2674SOL     OW 8773   1.252   3.210   9.698
 2674SOL    HW1 8774   1.302   3.287   9.738
 2674SOL    HW2 8775   1.157   3.212   9.730
 2675SOL     OW 8776   1.272   3.307  10.452
 2675SOL    HW1 8777   1.319   3.320  10.539
 2675SOL    HW2 8778   1.206   3.233  10.461
 2676SOL     OW 8779   1.582   2.501   9.782
 2676SOL    HW1 8780   1.551   2.562   9.855
 2676SOL    HW2 8781   1.632   2.553   9.713
 2677SOL     OW 8782   0.354   3.372  10.639
 2677SOL    HW1 8783   0.333   3.328  10.552
 2677SOL    HW2 8784   0.451   3.398  10.642
 2678SOL     OW 8785   0.402   2.613  10.908
 2678SOL    HW1 8786   0.470   2.668  10.861
 2678SOL    HW2 8787   0.442   2.525  10.935
 2679SOL     OW 8788   1.587   2.641  10.980
 2679SOL    HW1 8789   1.495   2.679  10.975
 2679SOL    HW2 8790   1.647   2.688  10.915
 2680SOL     OW 8791   1.013   1.967  11.080
 2680SOL    HW1 8792   1.019   2.052  11.028
 2680SOL    HW2 8793   1.045   1.891  11.023
 2681SOL     OW 8794   0.504   1.912  11.050
 2681SOL    HW1 8795   0.462   1.855  10.980
 2681SOL    HW2 8796   0.438   1.981  11.082
 2682SOL     OW 8797   0.573   2.732  10.339
 2682SOL    HW1 8798   0.617   2.821  10.330
 2682SOL    HW2 8799   0.510   2.732  10.416
 2683SOL     OW 8800   1.360   2.724  10.355
 2683SOL    HW1 8801   1.285   2.724  10.289
 2683SOL    HW2 8802   1.397   2.632  10.364
 2684SOL     OW 8803   1.209   2.387   9.585
 2684SOL    HW1 8804   1.222   2.303   9.639
 2684SOL    HW2 8805   1.180   2.461   9.645
 2685SOL     OW 8806   0.307   2.075  10.541
 2685SOL    HW1 8807   0.284   2.112  10.631
 2685SOL    HW2 8808   0.277   1.980  10.535
 2686SOL     OW 8809   0.037   3.172  10.592
 2686SOL    HW1 8810   0.090   3.123  10.660
 2686SOL    HW2 8811   0.059   3.270  10.597
 2687SOL     OW 8812   0.732   2.496  10.374
 2687SOL    HW1 8813   0.791   2.470  10.298
 2687SOL    HW2 8814   0.704   2.592  10.363
 2688SOL     OW 8815   1.728   2.797  11.164
 2688SOL    HW1 8816   1.682   2.790  11.075
 2688SOL    HW2 8817   1.666   2.841  11.230
 2689SOL     OW 8818   0.307   1.925   9.928
 2689SOL    HW1 8819   0.296   2.019   9.961
 2689SOL    HW2 8820   0.302   1.862  10.005
 2690SOL     OW 8821   1.622   2.229   9.684
 2690SOL    HW1 8822   1.624   2.153   9.748
 2690SOL    HW2 8823   1.574   2.306   9.724
 2691SOL     OW 8824   1.023   2.628  10.276
 2691SOL    HW1 8825   1.038   2.649  10.372
 2691SOL    HW2 8826   0.993   2.533  10.267
 2692SOL     OW 8827   0.980   3.435  11.010
 2692SOL    HW1 8828   0.960   3.479  10.922
 2692SOL    HW2 8829   1.019   3.344  10.994
 2693SOL     OW 8830   1.859   3.380  10.915
 2693SOL    HW1 8831   1.873   3.407  10.820
 2693SOL    HW2 8832   1.942   3.402  10.968
 2694SOL     OW 8833   0.350   2.760  11.114
 2694SOL    HW1 8834   0.426   2.804  11.162
 2694SOL    HW2 8835   0.385   2.713  11.032
 2695SOL     OW 8836   1.540   2.136   9.435
 2695SOL    HW1 8837   1.479   2.061   9.458
 2695SOL    HW2 8838   1.562   2.188   9.518
 2696SOL     OW 8839   1.303   2.700   9.352
 2696SOL    HW1 8840   1.337   2.607   9.367
 2696SOL    HW2 8841   1.321   2.727   9.257
 2697SOL     OW 8842   1.068   3.195  10.159
 2697SOL    HW1 8843   1.075   3.111  10.104
 2697SOL    HW2 8844   1.130   3.264  10.123
 2698SOL     OW 8845   0.319   2.672  10.259
 2698SOL    HW1 8846   0.412   2.708  10.264
 2698SOL    HW2 8847   0.313   2.587  10.311
 2699SOL     OW 8848   0.339   2.371  10.316
 2699SOL    HW1 8849   0.287   2.288  10.299
 2699SOL    HW2 8850   0.416   2.376  10.252
 2700SOL     OW 8851   1.138   2.242  10.988
 2700SOL    HW1 8852   1.093   2.305  11.052
 2700SOL    HW2 8853   1.231   2.273  10.971
 2701SOL     OW 8854   1.160   2.069  10.787
 2701SOL    HW1 8855   1.160   2.133  10.864
 2701SOL    HW2 8856   1.188   2.117  10.704
 2702SOL     OW 8857   0.008   3.188   9.510
 2702SOL    HW1 8858  -0.085   3.209   9.479
 2702SOL    HW2 8859   0.018   3.089   9.523
 2703SOL     OW 8860   0.088   3.663  10.237
 2703SOL    HW1 8861   0.046   3.577  10.210
 2703SOL    HW2 8862   0.182   3.666  10.203
 2704SOL     OW 8863   0.504   3.430  10.220
 2704SOL    HW1 8864   0.570   3.504  10.229
 2704SOL    HW2 8865   0.548   3.351  10.178
 2705SOL     OW 8866   1.002   2.658  10.548
 2705SOL    HW1 8867   1.043   2.626  10.634
 2705SOL    HW2 8868   0.906   2.631  10.545
 2706SOL     OW 8869   0.040   2.406  10.424
 2706SOL    HW1 8870   0.125   2.373  10.383
 2706SOL    HW2 8871   0.053   2.421  10.522
 2707SOL     OW 8872   0.189   2.382  11.032
 2707SOL    HW1 8873   0.248   2.342  10.962
 2707SOL    HW2 8874   0.131   2.453  10.991
 2708SOL     OW 8875   1.369   2.812  10.970
 2708SOL    HW1 8876   1.408   2.901  10.990
 2708SOL    HW2 8877   1.379   2.792  10.873
 2709SOL     OW 8878   0.815   2.434   9.635
 2709SOL    HW1 8879   0.822   2.345   9.589
 2709SOL    HW2 8880   0.721   2.468   9.627
 2710SOL     OW 8881   1.657   2.466  10.516
 2710SOL    HW1 8882   1.619   2.397  10.578
 2710SOL    HW2 8883   1.739   2.430  10.472
 2711SOL     OW 8884   0.252   3.426  11.054
 2711SOL    HW1 8885   0.222   3.483  11.130
 2711SOL    HW2 8886   0.245   3.329  11.080
 2712SOL     OW 8887   0.671   2.326  10.579
 2712SOL    HW1 8888   0.637   2.237  10.549
 2712SOL    HW2 8889   0.697   2.380  10.499
 2713SOL     OW 8890   0.930   3.540  10.775
 2713SOL    HW1 8891   0.906   3.522  10.680
 2713SOL    HW2 8892   0.960   3.634  10.785
 2714SOL     OW 8893   0.473   2.362   9.501
 2714SOL    HW1 8894   0.534   2.442   9.505
 2714SOL    HW2 8895   0.378   2.393   9.508
 2715SOL     OW 8896   0.159   2.999  10.776
 2715SOL    HW1 8897   0.181   2.938  10.852
 2715SOL    HW2 8898   0.169   2.950  10.690
 2716SOL     OW 8899   1.347   2.921  10.544
 2716SOL    HW1 8900   1.371   2.858  10.470
 2716SOL    HW2 8901   1.257   2.961  10.526
 2717SOL     OW 8902   1.302   2.717   9.619
 2717SOL    HW1 8903   1.216   2.686   9.661
 2717SOL    HW2 8904   1.298   2.703   9.520
 2718SOL     OW 8905   1.759   3.609  10.464
 2718SOL    HW1 8906   1.820   3.639  10.391
 2718SOL    HW2 8907   1.721   3.520  10.442
 2719SOL     OW 8908   1.252   3.593  10.438
 2719SOL    HW1 8909   1.336   3.598  10.384
 2719SOL    HW2 8910   1.229   3.497  10.456
 2720SOL     OW 8911   0.083   3.120  10.332
 2720SOL    HW1 8912   0.078   3.119  10.432
 2720SOL    HW2 8913   0.000   3.079  10.294
 2721SOL     OW 8914   0.688   3.524  11.026
 2721SOL    HW1 8915   0.632   3.605  11.035
 2721SOL    HW2 8916   0.740   3.528  10.940
 2722SOL     OW 8917   1.388   3.435   9.787
 2722SOL    HW1 8918   1.455   3.447   9.713
 2722SOL    HW2 8919   1.348   3.524   9.810
 2723SOL     OW 8920   0.130   3.656  11.161
 2723SOL    HW1 8921   0.089   3.582  11.214
 2723SOL    HW2 8922   0.194   3.707  11.219
 2724SOL     OW 8923   1.280   2.789   9.982
 2724SOL    HW1 8924   1.340   2.708   9.984
 2724SOL    HW2 8925   1.320   2.858   9.922
 2725SOL     OW 8926   0.830   3.135  10.732
 2725SOL    HW1 8927   0.825   3.168  10.827
 2725SOL    HW2 8928   0.744   3.154  10.686
 2726SOL     OW 8929   0.672   3.478   9.464
 2726SOL    HW1 8930   0.681   3.488   9.365
 2726SOL    HW2 8931   0.632   3.389   9.485
 2727SOL     OW 8932   1.650   3.582  10.704
 2727SOL    HW1 8933   1.703   3.592  10.620
 2727SOL    HW2 8934   1.623   3.672  10.738
 2728SOL     OW 8935   0.263   2.188  10.030
 2728SOL    HW1 8936   0.184   2.239   9.996
 2728SOL    HW2 8937   0.254   2.173  10.128
 2729SOL     OW 8938   1.194   3.474   9.341
 2729SOL    HW1 8939   1.200   3.381   9.378
 2729SOL    HW2 8940   1.135   3.474   9.261
 2730SOL     OW 8941   0.822   2.864  10.682
 2730SOL    HW1 8942   0.862   2.863  10.590
 2730SOL    HW2 8943   0.832   2.956  10.722
 2731SOL     OW 8944   0.916   2.772   9.601
 2731SOL    HW1 8945   0.979   2.810   9.533
 2731SOL    HW2 8946   0.956   2.689   9.640
 2732SOL     OW 8947   1.504   3.469   9.354
 2732SOL    HW1 8948   1.412   3.506   9.361
 2732SOL    HW2 8949   1.542   3.489   9.264
 2733SOL     OW 8950   0.372   3.150  10.800
 2733SOL    HW1 8951   0.359   3.243  10.766
 2733SOL    HW2 8952   0.288   3.098  10.787
 2734SOL     OW 8953   1.614   3.154  10.599
 2734SOL    HW1 8954   1.674   3.157  10.679
 2734SOL    HW2 8955   1.539   3.218  10.612
 2735SOL     OW 8956   1.039   2.960  10.006
 2735SOL    HW1 8957   0.969   2.913  10.060
 2735SOL    HW2 8958   1.098   2.892   9.963
 2736SOL     OW 8959   1.014   2.098  10.281
 2736SOL    HW1 8960   1.006   2.062  10.188
 2736SOL    HW2 8961   1.012   2.022  10.346
 2737SOL     OW 8962   0.590   3.349   9.801
 2737SOL    HW1 8963   0.632   3.291   9.731
 2737SOL    HW2 8964   0.546   3.428   9.757
 2738SOL     OW 8965   1.709   2.247  10.691
 2738SOL    HW1 8966   1.782   2.316  10.695
 2738SOL    HW2 8967   1.737   2.172  10.632
 2739SOL     OW 8968   0.255   3.210   9.600
 2739SOL    HW1 8969   0.159   3.211   9.573
 2739SOL    HW2 8970   0.267   3.263   9.684
 2740SOL     OW 8971   0.105   2.875  11.036
 2740SOL    HW1 8972   0.028   2.842  11.090
 2740SOL    HW2 8973   0.190   2.845  11.078
 2741SOL     OW 8974   0.672   2.065  10.799
 2741SOL    HW1 8975   0.762   2.049  10.759
 2741SOL    HW2 8976   0.680   2.070  10.898
 2742SOL     OW 8977   0.075   2.207   9.343
 2742SOL    HW1 8978  -0.017   2.179   9.314
 2742SOL    HW2 8979   0.106   2.284   9.287
 2743SOL     OW 8980   1.440   2.718  10.708
 2743SOL    HW1 8981   1.383   2.770  10.645
 2743SOL    HW2 8982   1.536   2.730  10.684
 2744SOL     OW 8983   0.072   2.028   9.628
 2744SOL    HW1 8984   0.055   2.111   9.574
 2744SOL    HW2 8985   0.162   1.991   9.606
 2745SOL     OW 8986   1.183   3.197   9.429
 2745SOL    HW1 8987   1.084   3.186   9.431
 2745SOL    HW2 8988   1.217   3.212   9.522
 2746SOL     OW 8989   0.613   2.704  10.741
 2746SOL    HW1 8990   0.669   2.785  10.724
 2746SOL    HW2 8991   0.672   2.624  10.744
 2747SOL     OW 8992   1.493   3.629  10.269
 2747SOL    HW1 8993   1.526   3.693  10.200
 2747SOL    HW2 8994   1.559   3.623  10.344
 2748SOL     OW 8995   0.716   2.427  11.018
 2748SOL    HW1 8996   0.735   2.492  11.092
 2748SOL    HW2 8997   0.776   2.347  11.027
 2749SOL     OW 8998   1.450   3.082  10.943
 2749SOL    HW1 8999   1.441   3.072  11.042
 2749SOL    HW2 9000   1.546   3.075  10.917
 2750SOL     OW 9001   0.390   3.603  10.870
 2750SOL    HW1 9002   0.299   3.644  10.868
 2750SOL    HW2 9003   0.383   3.509  10.902
 2751SOL     OW 9004   1.674   2.745  10.564
 2751SOL    HW1 9005   1.647   2.656  10.527
 2751SOL    HW2 9006   1.675   2.813  10.491
 2752SOL     OW 9007   1.225   2.187   9.759
 2752SOL    HW1 9008   1.290   2.113   9.748
 2752SOL    HW2 9009   1.245   2.237   9.843
 2753SOL     OW 9010   0.594   2.607   9.962
 2753SOL    HW1 9011   0.644   2.692   9.943
 2753SOL    HW2 9012   0.506   2.609   9.914
 2754SOL     OW 9013   1.777   2.204  10.952
 2754SOL    HW1 9014   1.760   2.235  10.858
 2754SOL    HW2 9015   1.693   2.167  10.990
 2755SOL     OW 9016   1.730   2.796  10.827
 2755SOL    HW1 9017   1.768   2.887  10.842
 2755SOL    HW2 9018   1.722   2.779  10.728
 2756SOL     OW 9019   0.859   3.236   9.326
 2756SOL    HW1 9020   0.813   3.251   9.414
 2756SOL    HW2 9021   0.903   3.321   9.296
 2757SOL     OW 9022   0.661   3.652  10.263
 2757SOL    HW1 9023   0.615   3.740  10.250
 2757SOL    HW2 9024   0.760   3.664  10.256
 2758SOL     OW 9025   0.859   2.818  10.171
 2758SOL    HW1 9026   0.913   2.749  10.219
 2758SOL    HW2 9027   0.827   2.887  10.237
 2759SOL     OW 9028   1.083   2.846   9.397
 2759SOL    HW1 9029   1.060   2.899   9.315
 2759SOL    HW2 9030   1.164   2.790   9.378
 2760SOL     OW 9031   1.861   3.431  10.161
 2760SOL    HW1 9032   1.790   3.419  10.091
 2760SOL    HW2 9033   1.862   3.352  10.221
 2761SOL     OW 9034   0.221   3.176  11.154
 2761SOL    HW1 9035   0.156   3.103  11.133
 2761SOL    HW2 9036   0.225   3.190  11.252
 2762SOL     OW 9037   0.079   3.102   9.963
 2762SOL    HW1 9038   0.078   3.055  10.051
 2762SOL    HW2 9039   0.161   3.074   9.912
 2763SOL     OW 9040   0.672   3.253  10.934
 2763SOL    HW1 9041   0.594   3.203  10.972
 2763SOL    HW2 9042   0.669   3.348  10.965
 2764SOL     OW 9043   0.428   2.286   9.830
 2764SOL    HW1 9044   0.458   2.214   9.768
 2764SOL    HW2 9045   0.389   2.246   9.913
 2765SOL     OW 9046   1.705   3.349  10.414
 2765SOL    HW1 9047   1.612   3.324  10.387
 2765SOL    HW2 9048   1.731   3.299  10.496
 2766SOL     OW 9049   0.317   2.409  10.590
 2766SOL    HW1 9050   0.355   2.350  10.662
 2766SOL    HW2 9051   0.357   2.383  10.502
 2767SOL     OW 9052   0.812   3.448   9.997
 2767SOL    HW1 9053   0.844   3.458   9.903
 2767SOL    HW2 9054   0.733   3.386   9.999
 2768SOL     OW 9055   1.424   2.076  10.422
 2768SOL    HW1 9056   1.476   2.011  10.477
 2768SOL    HW2 9057   1.375   2.139  10.483
 2769SOL     OW 9058   1.001   1.896  10.464
 2769SOL    HW1 9059   0.938   1.824  10.433
 2769SOL    HW2 9060   1.094   1.860  10.464
 2770SOL     OW 9061   0.770   3.192   9.611
 2770SOL    HW1 9062   0.724   3.105   9.628
 2770SOL    HW2 9063   0.861   3.189   9.652
 2771SOL     OW 9064   0.618   3.429  10.594
 2771SOL    HW1 9065   0.613   3.511  10.651
 2771SOL    HW2 9066   0.707   3.426  10.549
 2772SOL     OW 9067   1.352   1.914   9.478
 2772SOL    HW1 9068   1.387   1.873   9.394
 2772SOL    HW2 9069   1.262   1.876   9.498
 2773SOL     OW 9070   1.300   2.315  10.001
 2773SOL    HW1 9071   1.241   2.395  10.005
 2773SOL    HW2 9072   1.315   2.280  10.094
 2774SOL     OW 9073   1.593   2.083  10.192
 2774SOL    HW1 9074   1.509   2.082  10.246
 2774SOL    HW2 9075   1.595   2.166  10.136
 2775SOL     OW 9076   0.039   2.939   9.610
 2775SOL    HW1 9077   0.138   2.928   9.601
 2775SOL    HW2 9078  -0.001   2.853   9.642
 2776SOL     OW 9079   0.875   3.508   9.647
 2776SOL    HW1 9080   0.798   3.473   9.593
 2776SOL    HW2 9081   0.843   3.579   9.709
 2777SOL     OW 9082   0.230   2.490  11.285
 2777SOL    HW1 9083   0.137   2.488  11.322
 2777SOL    HW2 9084   0.231   2.451  11.193
 2778SOL     OW 9085   0.225   2.137  12.168
 2778SOL    HW1 9086   0.260   2.120  12.260
 2778SOL    HW2 9087   0.137   2.092  12.156
 2779SOL     OW 9088   0.019   2.230  11.819
 2779SOL    HW1 9089  -0.063   2.273  11.858
 2779SOL    HW2 9090  -0.009   2.157  11.756
 2780SOL     OW 9091   0.569   3.137  12.337
 2780SOL    HW1 9092   0.476   3.130  12.300
 2780SOL    HW2 9093   0.580   3.226  12.381
 2781SOL     OW 9094   1.555   3.373  11.875
 2781SOL    HW1 9095   1.498   3.357  11.956
 2781SOL    HW2 9096   1.496   3.383  11.795
 2782SOL     OW 9097   1.135   2.565  11.889
 2782SOL    HW1 9098   1.192   2.643  11.864
 2782SOL    HW2 9099   1.075   2.591  11.965
 2783SOL     OW 9100   1.755   2.469  11.403
 2783SOL    HW1 9101   1.743   2.456  11.304
 2783SOL    HW2 9102   1.725   2.388  11.452
 2784SOL     OW 9103   0.768   3.006  12.195
 2784SOL    HW1 9104   0.690   3.023  12.255
 2784SOL    HW2 9105   0.802   3.093  12.159
 2785SOL     OW 9106   0.850   2.660  12.995
 2785SOL    HW1 9107   0.846   2.736  13.060
 2785SOL    HW2 9108   0.872   2.696  12.904
 2786SOL     OW 9109   0.685   2.874  11.837
 2786SOL    HW1 9110   0.754   2.858  11.907
 2786SOL    HW2 9111   0.612   2.931  11.875
 2787SOL     OW 9112   0.686   3.023  12.975
 2787SOL    HW1 9113   0.746   3.102  12.989
 2787SOL    HW2 9114   0.600   3.054  12.934
 2788SOL     OW 9115   0.335   3.297  12.233
 2788SOL    HW1 9116   0.257   3.266  12.180
 2788SOL    HW2 9117   0.393   3.355  12.176
 2789SOL     OW 9118   1.460   3.367  12.511
 2789SOL    HW1 9119   1.484   3.461  12.537
 2789SOL    HW2 9120   1.444   3.313  12.593
 2790SOL     OW 9121   0.438   2.254  12.671
 2790SOL    HW1 9122   0.520   2.198  12.680
 2790SOL    HW2 9123   0.357   2.196  12.675
 2791SOL     OW 9124   1.603   2.309  11.909
 2791SOL    HW1 9125   1.529   2.355  11.859
 2791SOL    HW2 9126   1.654   2.377  11.962
 2792SOL     OW 9127   0.231   3.575  11.655
 2792SOL    HW1 9128   0.265   3.652  11.709
 2792SOL    HW2 9129   0.275   3.575  11.565
 2793SOL     OW 9130   1.127   3.203  12.862
 2793SOL    HW1 9131   1.174   3.203  12.950
 2793SOL    HW2 9132   1.079   3.116  12.851
 2794SOL     OW 9133   0.230   3.296  11.710
 2794SOL    HW1 9134   0.204   3.392  11.710
 2794SOL    HW2 9135   0.159   3.242  11.755
 2795SOL     OW 9136   0.240   2.953  12.058
 2795SOL    HW1 9137   0.254   2.869  12.110
 2795SOL    HW2 9138   0.185   3.017  12.113
 2796SOL     OW 9139   0.620   3.648  12.611
 2796SOL    HW1 9140   0.528   3.631  12.646
 2796SOL    HW2 9141   0.648   3.740  12.637
 2797SOL     OW 9142   0.606   2.826  11.295
 2797SOL    HW1 9143   0.613   2.910  11.241
 2797SOL    HW2 9144   0.652   2.839  11.383
 2798SOL     OW 9145   1.594   1.976  12.652
 2798SOL    HW1 9146   1.576   2.043  12.580
 2798SOL    HW2 9147   1.591   2.022  12.741
 2799SOL     OW 9148   0.122   2.505  11.735
 2799SOL    HW1 9149   0.077   2.417  11.752
 2799SOL    HW2 9150   0.121   2.559  11.819
 2800SOL     OW 9151   1.842   3.629  11.531
 2800SOL    HW1 9152   1.896   3.600  11.611
 2800SOL    HW2 9153   1.872   3.719  11.502
 2801SOL     OW 9154   0.027   3.458  11.289
 2801SOL    HW1 9155   0.008   3.362  11.310
 2801SOL    HW2 9156  -0.006   3.516  11.364
 2802SOL     OW 9157   1.689   2.784  11.784
 2802SOL    HW1 9158   1.784   2.755  11.792
 2802SOL    HW2 9159   1.681   2.849  11.709
 2803SOL     OW 9160   1.641   2.970  11.604
 2803SOL    HW1 9161   1.727   2.972  11.552
 2803SOL    HW2 9162   1.655   3.017  11.692
 2804SOL     OW 9163   0.113   2.599  12.769
 2804SOL    HW1 9164   0.201   2.586  12.814
 2804SOL    HW2 9165   0.100   2.696  12.747
 2805SOL     OW 9166   0.613   3.227  11.898
 2805SOL    HW1 9167   0.564   3.140  11.907
 2805SOL    HW2 9168   0.590   3.270  11.811
 2806SOL     OW 9169   1.293   3.090  12.595
 2806SOL    HW1 9170   1.330   3.017  12.537
 2806SOL    HW2 9171   1.345   3.095  12.680
 2807SOL     OW 9172   0.809   1.866  11.674
 2807SOL    HW1 9173   0.849   1.957  11.665
 2807SOL    HW2 9174   0.709   1.874  11.680
 2808SOL     OW 9175   0.197   2.838  12.436
 2808SOL    HW1 9176   0.286   2.793  12.422
 2808SOL    HW2 9177   0.124   2.773  12.417
 2809SOL     OW 9178   1.525   2.861  11.362
 2809SOL    HW1 9179   1.462   2.785  11.375
 2809SOL    HW2 9180   1.573   2.879  11.448
 2810SOL     OW 9181   1.187   3.654  12.788
 2810SOL    HW1 9182   1.211   3.714  12.712
 2810SOL    HW2 9183   1.194   3.559  12.758
 2811SOL     OW 9184   0.317   2.113  12.973
 2811SOL    HW1 9185   0.388   2.184  12.979
 2811SOL    HW2 9186   0.229   2.152  13.001
 2812SOL     OW 9187   1.466   3.279  12.125
 2812SOL    HW1 9188   1.407   3.285  12.205
 2812SOL    HW2 9189   1.451   3.191  12.079
 2813SOL     OW 9190   1.667   3.576  11.744
 2813SOL    HW1 9191   1.626   3.553  11.656
 2813SOL    HW2 9192   1.649   3.502  11.809
 2814SOL     OW 9193   0.598   2.591  11.442
 2814SOL    HW1 9194   0.622   2.660  11.374
 2814SOL    HW2 9195   0.520   2.624  11.496
 2815SOL     OW 9196   1.281   2.207  12.116
 2815SOL    HW1 9197   1.195   2.157  12.103
 2815SOL    HW2 9198   1.343   2.153  12.172
 2816SOL     OW 9199   1.576   3.524  11.479
 2816SOL    HW1 9200   1.665   3.570  11.482
 2816SOL    HW2 9201   1.555   3.500  11.384
 2817SOL     OW 9202   0.807   2.467  12.637
 2817SOL    HW1 9203   0.760   2.464  12.726
 2817SOL    HW2 9204   0.756   2.412  12.571
 2818SOL     OW 9205   1.394   2.331  12.846
 2818SOL    HW1 9206   1.374   2.374  12.934
 2818SOL    HW2 9207   1.472   2.269  12.855
 2819SOL     OW 9208   0.973   2.752  12.744
 2819SOL    HW1 9209   1.019   2.668  12.715
 2819SOL    HW2 9210   0.917   2.786  12.669
 2820SOL     OW 9211   0.991   2.272  12.414
 2820SOL    HW1 9212   0.914   2.306  12.468
 2820SOL    HW2 9213   0.957   2.221  12.335
 2821SOL     OW 9214   1.041   2.563  11.601
 2821SOL    HW1 9215   1.067   2.559  11.697
 2821SOL    HW2 9216   0.956   2.512  11.587
 2822SOL     OW 9217   0.076   2.673  11.961
 2822SOL    HW1 9218   0.175   2.661  11.970
 2822SOL    HW2 9219   0.052   2.768  11.982
 2823SOL     OW 9220   0.130   3.683  12.743
 2823SOL    HW1 9221   0.120   3.668  12.842
 2823SOL    HW2 9222   0.044   3.719  12.707
 2824SOL     OW 9223   0.865   2.210  11.367
 2824SOL    HW1 9224   0.924   2.273  11.318
 2824SOL    HW2 9225   0.884   2.116  11.338
 2825SOL     OW 9226   1.719   2.447  13.003
 2825SOL    HW1 9227   1.693   2.536  12.967
 2825SOL    HW2 9228   1.717   2.379  12.930
 2826SOL     OW 9229   1.362   3.006  11.717
 2826SOL    HW1 9230   1.445   2.977  11.669
 2826SOL    HW2 9231   1.313   3.073  11.661
 2827SOL     OW 9232   0.550   2.058  12.057
 2827SOL    HW1 9233   0.545   2.053  12.157
 2827SOL    HW2 9234   0.552   2.154  12.028
 2828SOL     OW 9235   1.008   3.318  11.649
 2828SOL    HW1 9236   0.962   3.390  11.597
 2828SOL    HW2 9237   1.004   3.338  11.747
 2829SOL     OW 9238   0.351   3.663  12.025
 2829SOL    HW1 9239   0.401   3.577  12.031
 2829SOL    HW2 9240   0.416   3.740  12.022
 2830SOL     OW 9241   1.795   2.928  12.045
 2830SOL    HW1 9242   1.733   2.913  11.969
 2830SOL    HW2 9243   1.743   2.939  12.130
 2831SOL     OW 9244   1.227   3.412  12.678
 2831SOL    HW1 9245   1.233   3.335  12.742
 2831SOL    HW2 9246   1.175   3.386  12.598
 2832SOL     OW 9247   0.321   2.805  11.414
 2832SOL    HW1 9248   0.403   2.844  11.372
 2832SOL    HW2 9249   0.294   2.723  11.365
 2833SOL     OW 9250   1.458   2.597  11.900
 2833SOL    HW1 9251   1.453   2.532  11.975
 2833SOL    HW2 9252   1.538   2.656  11.913
 2834SOL     OW 9253   0.461   3.128  12.899
 2834SOL    HW1 9254   0.411   3.129  12.813
 2834SOL    HW2 9255   0.398   3.110  12.975
 2835SOL     OW 9256   1.111   3.638  11.409
 2835SOL    HW1 9257   1.051   3.576  11.459
 2835SOL    HW2 9258   1.142   3.594  11.324
 2836SOL     OW 9259   0.202   2.147  12.670
 2836SOL    HW1 9260   0.122   2.207  12.657
 2836SOL    HW2 9261   0.192   2.098  12.756
 2837SOL     OW 9262   1.632   3.239  11.253
 2837SOL    HW1 9263   1.600   3.333  11.243
 2837SOL    HW2 9264   1.556   3.176  11.241
 2838SOL     OW 9265   0.464   3.605  11.495
 2838SOL    HW1 9266   0.497   3.644  11.581
 2838SOL    HW2 9267   0.540   3.598  11.430
 2839SOL     OW 9268   1.400   1.969  11.598
 2839SOL    HW1 9269   1.376   1.932  11.508
 2839SOL    HW2 9270   1.499   1.985  11.602
 2840SOL     OW 9271   0.249   3.647  12.413
 2840SOL    HW1 9272   0.306   3.582  12.463
 2840SOL    HW2 9273   0.233   3.614  12.320
 2841SOL     OW 9274   0.940   3.560  12.076
 2841SOL    HW1 9275   1.020   3.503  12.097
 2841SOL    HW2 9276   0.891   3.520  11.999
 2842SOL     OW 9277   0.382   2.562  11.652
 2842SOL    HW1 9278   0.427   2.472  11.649
 2842SOL    HW2 9279   0.288   2.551  11.685
 2843SOL     OW 9280   1.547   2.084  12.901
 2843SOL    HW1 9281   1.542   2.121  12.993
 2843SOL    HW2 9282   1.475   2.015  12.889
 2844SOL     OW 9283   0.614   1.984  11.289
 2844SOL    HW1 9284   0.712   1.962  11.296
 2844SOL    HW2 9285   0.583   1.967  11.196
 2845SOL     OW 9286   0.781   2.126  12.921
 2845SOL    HW1 9287   0.848   2.065  12.964
 2845SOL    HW2 9288   0.708   2.145  12.986
 2846SOL     OW 9289   0.888   3.376  12.367
 2846SOL    HW1 9290   0.865   3.351  12.273
 2846SOL    HW2 9291   0.949   3.307  12.406
 2847SOL     OW 9292   1.351   2.452  12.605
 2847SOL    HW1 9293   1.379   2.409  12.690
 2847SOL    HW2 9294   1.376   2.548  12.606
 2848SOL     OW 9295   0.803   3.264  12.096
 2848SOL    HW1 9296   0.893   3.278  12.054
 2848SOL    HW2 9297   0.732   3.266  12.025
 2849SOL     OW 9298   0.922   2.365  12.071
 2849SOL    HW1 9299   0.897   2.356  11.975
 2849SOL    HW2 9300   0.970   2.283  12.102
 2850SOL     OW 9301   0.539   1.926  11.684
 2850SOL    HW1 9302   0.458   1.927  11.742
 2850SOL    HW2 9303   0.542   2.009  11.629
 2851SOL     OW 9304   1.434   3.050  11.213
 2851SOL    HW1 9305   1.466   2.974  11.270
 2851SOL    HW2 9306   1.342   3.077  11.243
 2852SOL     OW 9307   0.297   1.897  11.343
 2852SOL    HW1 9308   0.346   1.981  11.322
 2852SOL    HW2 9309   0.359   1.832  11.388
 2853SOL     OW 9310   0.935   2.098  11.652
 2853SOL    HW1 9311   0.887   2.139  11.574
 2853SOL    HW2 9312   1.034   2.096  11.633
 2854SOL     OW 9313   1.076   2.545  12.636
 2854SOL    HW1 9314   0.996   2.484  12.639
 2854SOL    HW2 9315   1.157   2.492  12.612
 2855SOL     OW 9316   1.227   3.432  11.965
 2855SOL    HW1 9317   1.248   3.506  11.900
 2855SOL    HW2 9318   1.295   3.432  12.038
 2856SOL     OW 9319   0.459   3.014  11.913
 2856SOL    HW1 9320   0.388   2.987  11.978
 2856SOL    HW2 9321   0.433   2.986  11.820
 2857SOL     OW 9322   1.271   3.659  11.763
 2857SOL    HW1 9323   1.315   3.723  11.699
 2857SOL    HW2 9324   1.221   3.711  11.833
 2858SOL     OW 9325   1.032   2.411  11.188
 2858SOL    HW1 9326   0.991   2.493  11.149
 2858SOL    HW2 9327   1.096   2.437  11.261
 2859SOL     OW 9328   0.078   2.418  12.558
 2859SOL    HW1 9329   0.170   2.417  12.517
 2859SOL    HW2 9330   0.072   2.492  12.625
 2860SOL     OW 9331   0.561   2.084  12.319
 2860SOL    HW1 9332   0.599   2.000  12.356
 2860SOL    HW2 9333   0.473   2.103  12.363
 2861SOL     OW 9334   0.866   2.316  11.814
 2861SOL    HW1 9335   0.834   2.388  11.752
 2861SOL    HW2 9336   0.890   2.235  11.761
 2862SOL     OW 9337   1.017   1.901  11.925
 2862SOL    HW1 9338   0.945   1.906  11.856
 2862SOL    HW2 9339   0.993   1.832  11.994
 2863SOL     OW 9340   1.429   3.035  12.039
 2863SOL    HW1 9341   1.374   2.951  12.032
 2863SOL    HW2 9342   1.455   3.064  11.947
 2864SOL     OW 9343   1.466   2.452  12.164
 2864SOL    HW1 9344   1.436   2.357  12.171
 2864SOL    HW2 9345   1.539   2.468  12.230
 2865SOL     OW 9346   1.857   2.695  11.549
 2865SOL    HW1 9347   1.899   2.631  11.613
 2865SOL    HW2 9348   1.819   2.644  11.471
 2866SOL     OW 9349   0.488   3.247  11.346
 2866SOL    HW1 9350   0.401   3.232  11.393
 2866SOL    HW2 9351   0.471   3.273  11.251
 2867SOL     OW 9352   1.664   3.142  11.829
 2867SOL    HW1 9353   1.763   3.150  11.843
 2867SOL    HW2 9354   1.619   3.226  11.860
 2868SOL     OW 9355   1.390   2.437  11.250
 2868SOL    HW1 9356   1.336   2.416  11.331
 2868SOL    HW2 9357   1.481   2.396  11.259
 2869SOL     OW 9358   0.527   2.118  11.500
 2869SOL    HW1 9359   0.554   2.059  11.425
 2869SOL    HW2 9360   0.527   2.213  11.469
 2870SOL     OW 9361   1.754   3.085  12.760
 2870SOL    HW1 9362   1.845   3.046  12.747
 2870SOL    HW2 9363   1.762   3.181  12.784
 2871SOL     OW 9364   1.064   3.209  12.512
 2871SOL    HW1 9365   0.984   3.186  12.567
 2871SOL    HW2 9366   1.147   3.183  12.561
 2872SOL     OW 9367   1.592   3.491  12.797
 2872SOL    HW1 9368   1.619   3.525  12.707
 2872SOL    HW2 9369   1.671   3.453  12.843
 2873SOL     OW 9370   1.111   3.057  12.272
 2873SOL    HW1 9371   1.071   3.101  12.353
 2873SOL    HW2 9372   1.070   3.094  12.189
 2874SOL     OW 9373   1.638   2.961  12.251
 2874SOL    HW1 9374   1.643   3.042  12.310
 2874SOL    HW2 9375   1.552   2.963  12.200
 2875SOL     OW 9376   0.915   1.951  12.574
 2875SOL    HW1 9377   0.940   1.931  12.479
 2875SOL    HW2 9378   0.987   2.007  12.616
 2876SOL     OW 9379   0.980   2.978  12.891
 2876SOL    HW1 9380   0.881   2.984  12.901
 2876SOL    HW2 9381   1.003   2.898  12.835
 2877SOL     OW 9382   0.705   2.912  11.540
 2877SOL    HW1 9383   0.691   2.919  11.639
 2877SOL    HW2 9384   0.789   2.861  11.522
 2878SOL     OW 9385   0.410   2.675  12.423
 2878SOL    HW1 9386   0.496   2.687  12.473
 2878SOL    HW2 9387   0.368   2.588  12.450
 2879SOL     OW 9388   1.274   2.248  12.434
 2879SOL    HW1 9389   1.295   2.322  12.498
 2879SOL    HW2 9390   1.185   2.265  12.391
 2880SOL     OW 9391   0.064   3.426  12.503
 2880SOL    HW1 9392   0.018   3.508  12.469
 2880SOL    HW2 9393   0.162   3.445  12.512
 2881SOL     OW 9394   0.367   2.962  11.673
 2881SOL    HW1 9395   0.360   3.045  11.617
 2881SOL    HW2 9396   0.371   2.882  11.613
 2882SOL     OW 9397   0.566   2.399  12.037
 2882SOL    HW1 9398   0.578   2.465  11.963
 2882SOL    HW2 9399   0.612   2.433  12.120
 2883SOL     OW 9400   1.252   3.210  11.560
 2883SOL    HW1 9401   1.302   3.287  11.600
 2883SOL    HW2 9402   1.157   3.212  11.592
 2884SOL     OW 9403   1.272   3.307  12.314
 2884SOL    HW1 9404   1.319   3.320  12.401
 2884SOL    HW2 9405   1.206   3.233  12.323
 2885SOL     OW 9406   1.582   2.501  11.644
 2885SOL    HW1 9407   1.551   2.562  11.717
 2885SOL    HW2 9408   1.632   2.553  11.575
 2886SOL     OW 9409   0.354   3.372  12.501
 2886SOL    HW1 9410   0.333   3.328  12.414
 2886SOL    HW2 9411   0.451   3.398  12.504
 2887SOL     OW 9412   0.402   2.613  12.770
 2887SOL    HW1 9413   0.470   2.668  12.723
 2887SOL    HW2 9414   0.442   2.525  12.797
 2888SOL     OW 9415   1.587   2.641  12.842
 2888SOL    HW1 9416   1.495   2.679  12.837
 2888SOL    HW2 9417   1.647   2.688  12.777
 2889SOL     OW 9418   1.013   1.967  12.942
 2889SOL    HW1 9419   1.019   2.052  12.890
 2889SOL    HW2 9420   1.045   1.891  12.885
 2890SOL     OW 9421   0.504   1.912  12.912
 2890SOL    HW1 9422   0.462   1.855  12.842
 2890SOL    HW2 9423   0.438   1.981  12.944
 2891SOL     OW 9424   0.573   2.732  12.201
 2891SOL    HW1 9425   0.617   2.821  12.192
 2891SOL    HW2 9426   0.510   2.732  12.278
 2892SOL     OW 9427   1.360   2.724  12.217
 2892SOL    HW1 9428   1.285   2.724  12.151
 2892SOL    HW2 9429   1.397   2.632  12.226
 2893SOL     OW 9430   1.209   2.387  11.447
 2893SOL    HW1 9431   1.222   2.303  11.501
 2893SOL    HW2 9432   1.180   2.461  11.507
 2894SOL     OW 9433   0.307   2.075  12.403
 2894SOL    HW1 9434   0.284   2.112  12.493
 2894SOL    HW2 9435   0.277   1.980  12.397
 2895SOL     OW 9436   0.037   3.172  12.454
 2895SOL    HW1 9437   0.090   3.123  12.522
 2895SOL    HW2 9438   0.059   3.270  12.459
 2896SOL     OW 9439   0.732   2.496  12.236
 2896SOL    HW1 9440   0.791   2.470  12.160
 2896SOL    HW2 9441   0.704   2.592  12.225
 2897SOL     OW 9442   1.728   2.797  13.026
 2897SOL    HW1 9443   1.682   2.790  12.937
 2897SOL    HW2 9444   1.666   2.841  13.092
 2898SOL     OW 9445   0.307   1.925  11.790
 2898SOL    HW1 9446   0.296   2.019  11.823
 2898SOL    HW2 9447   0.302   1.862  11.867
 2899SOL     OW 9448   1.622   2.229  11.546
 2899SOL    HW1 9449   1.624   2.153  11.610
 2899SOL    HW2 9450   1.574   2.306  11.586
 2900SOL     OW 9451   1.023   2.628  12.138
 2900SOL    HW1 9452   1.038   2.649  12.234
 2900SOL    HW2 9453   0.993   2.533  12.129
 2901SOL     OW 9454   0.980   3.435  12.872
 2901SOL    HW1 9455   0.960   3.479  12.784
 2901SOL    HW2 9456   1.019   3.344  12.856
 2902SOL     OW 9457   1.859   3.380  12.777
 2902SOL    HW1 9458   1.873   3.407  12.682
 2902SOL    HW2 9459   1.942   3.402  12.830
 2903SOL     OW 9460   0.350   2.760  12.976
 2903SOL    HW1 9461   0.426   2.804  13.024
 2903SOL    HW2 9462   0.385   2.713  12.894
 2904SOL     OW 9463   1.540   2.136  11.297
 2904SOL    HW1 9464   1.479   2.061  11.320
 2904SOL    HW2 9465   1.562   2.188  11.380
 2905SOL     OW 9466   1.303   2.700  11.214
 2905SOL    HW1 9467   1.337   2.607  11.229
 2905SOL    HW2 9468   1.321   2.727  11.119
 2906SOL     OW 9469   1.068   3.195  12.021
 2906SOL    HW1 9470   1.075   3.111  11.966
 2906SOL    HW2 9471   1.130   3.264  11.985
 2907SOL     OW 9472   0.319   2.672  12.121
 2907SOL    HW1 9473   0.412   2.708  12.126
 2907SOL    HW2 9474   0.313   2.587  12.173
 2908SOL     OW 9475   0.339   2.371  12.178
 2908SOL    HW1 9476   0.287   2.288  12.161
 2908SOL    HW2 9477   0.416   2.376  12.114
 2909SOL     OW 9478   1.138   2.242  12.850
 2909SOL    HW1 9479   1.093   2.305  12.914
 2909SOL    HW2 9480   1.231   2.273  12.833
 2910SOL     OW 9481   1.160   2.069  12.649
 2910SOL    HW1 9482   1.160   2.133  12.726
 2910SOL    HW2 9483   1.188   2.117  12.566
 2911SOL     OW 9484   0.008   3.188  11.372
 2911SOL    HW1 9485  -0.085   3.209  11.341
 2911SOL    HW2 9486   0.018   3.089  11.385
 2912SOL     OW 9487   0.088   3.663  12.099
 2912SOL    HW1 9488   0.046   3.577  12.072
 2912SOL    HW2 9489   0.182   3.666  12.065
 2913SOL     OW 9490   0.504   3.430  12.082
 2913SOL    HW1 9491   0.570   3.504  12.091
 2913SOL    HW2 9492   0.548   3.351  12.040
 2914SOL     OW 9493   1.002   2.658  12.410
 2914SOL    HW1 9494   1.043   2.626  12.496
 2914SOL    HW2 9495   0.906   2.631  12.407
 2915SOL     OW 9496   0.040   2.406  12.286
 2915SOL    HW1 9497   0.125   2.373  12.245
 2915SOL    HW2 9498   0.053   2.421  12.384
 2916SOL     OW 9499   0.189   2.382  12.894
 2916SOL    HW1 9500   0.248   2.342  12.824
 2916SOL    HW2 9501   0.131   2.453  12.853
 2917SOL     OW 9502   1.369   2.812  12.832
 2917SOL    HW1 9503   1.408   2.901  12.852
 2917SOL    HW2 9504   1.379   2.792  12.735
 2918SOL     OW 9505   0.815   2.434  11.497
 2918SOL    HW1 9506   0.822   2.345  11.451
 2918SOL    HW2 9507   0.721   2.468  11.489
 2919SOL     OW 9508   1.657   2.466  12.378
 2919SOL    HW1 9509   1.619   2.397  12.440
 2919SOL    HW2 9510   1.739   2.430  12.334
 2920SOL     OW 9511   0.252   3.426  12.916
 2920SOL    HW1 9512   0.222   3.483  12.992
 2920SOL    HW2 9513   0.245   3.329  12.942
 2921SOL     OW 9514   0.671   2.326  12.441
 2921SOL    HW1 9515   0.637   2.237  12.411
 2921SOL    HW2 9516   0.697   2.380  12.361
 2922SOL     OW 9517   0.930   3.540  12.637
 2922SOL    HW1 9518   0.906   3.522  12.542
 2922SOL    HW2 9519   0.960   3.634  12.647
 2923SOL     OW 9520   0.473   2.362  11.363
 2923SOL    HW1 9521   0.534   2.442  11.367
 2923SOL    HW2 9522   0.378   2.393  11.370
 2924SOL     OW 9523   0.159   2.999  12.638
 2924SOL    HW1 9524   0.181   2.938  12.714
 2924SOL    HW2 9525   0.169   2.950  12.552
 2925SOL     OW 9526   1.347   2.921  12.406
 2925SOL    HW1 9527   1.371   2.858  12.332
 2925SOL    HW2 9528   1.257   2.961  12.388
 2926SOL     OW 9529   1.302   2.717  11.481
 2926SOL    HW1 9530   1.216   2.686  11.523
 2926SOL    HW2 9531   1.298   2.703  11.382
 2927SOL     OW 9532   1.759   3.609  12.326
 2927SOL    HW1 9533   1.820   3.639  12.253
 2927SOL    HW2 9534   1.721   3.520  12.304
 2928SOL     OW 9535   1.252   3.593  12.300
 2928SOL    HW1 9536   1.336   3.598  12.246
 2928SOL    HW2 9537   1.229   3.497  12.318
 2929SOL     OW 9538   0.083   3.120  12.194
 2929SOL    HW1 9539   0.078   3.119  12.294
 2929SOL    HW2 9540   0.000   3.079  12.156
 2930SOL     OW 9541   0.688   3.524  12.888
 2930SOL    HW1 9542   0.632   3.605  12.897
 2930SOL    HW2 9543   0.740   3.528  12.802
 2931SOL     OW 9544   1.388   3.435  11.649
 2931SOL    HW1 9545   1.455   3.447  11.575
 2931SOL    HW2 9546   1.348   3.524  11.672
 2932SOL     OW 9547   0.130   3.656  13.023
 2932SOL    HW1 9548   0.089   3.582  13.076
 2932SOL    HW2 9549   0.194   3.707  13.081
 2933SOL     OW 9550   1.280   2.789  11.844
 2933SOL    HW1 9551   1.340   2.708  11.846
 2933SOL    HW2 9552   1.320   2.858  11.784
 2934SOL     OW 9553   0.830   3.135  12.594
 2934SOL    HW1 9554   0.825   3.168  12.689
 2934SOL    HW2 9555   0.744   3.154  12.548
 2935SOL     OW 9556   0.672   3.478  11.326
 2935SOL    HW1 9557   0.681   3.488  11.227
 2935SOL    HW2 9558   0.632   3.389  11.347
 2936SOL     OW 9559   1.650   3.582  12.566
 2936SOL    HW1 9560   1.703   3.592  12.482
 2936SOL    HW2 9561   1.623   3.672  12.600
 2937SOL     OW 9562   0.263   2.188  11.892
 2937SOL    HW1 9563   0.184   2.239  11.858
 2937SOL    HW2 9564   0.254   2.173  11.990
 2938SOL     OW 9565   1.194   3.474  11.203
 2938SOL    HW1 9566   1.200   3.381  11.240
 2938SOL    HW2 9567   1.135   3.474  11.123
 2939SOL     OW 9568   0.822   2.864  12.544
 2939SOL    HW1 9569   0.862   2.863  12.452
 2939SOL    HW2 9570   0.832   2.956  12.584
 2940SOL     OW 9571   0.916   2.772  11.463
 2940SOL    HW1 9572   0.979   2.810  11.395
 2940SOL    HW2 9573   0.956   2.689  11.502
 2941SOL     OW 9574   1.504   3.469  11.216
 2941SOL    HW1 9575   1.412   3.506  11.223
 2941SOL    HW2 9576   1.542   3.489  11.126
 2942SOL     OW 9577   0.372   3.150  12.662
 2942SOL    HW1 9578   0.359   3.243  12.628
 2942SOL    HW2 9579   0.288   3.098  12.649
 2943SOL     OW 9580   1.614   3.154  12.461
 2943SOL    HW1 9581   1.674   3.157  12.541
 2943SOL    HW2 9582   1.539   3.218  12.474
 2944SOL     OW 9583   1.039   2.960  11.868
 2944SOL    HW1 9584   0.969   2.913  11.922
 2944SOL    HW2 9585   1.098   2.892  11.825
 2945SOL     OW 9586   1.014   2.098  12.143
 2945SOL    HW1 9587   1.006   2.062  12.050
 2945SOL    HW2 9588   1.012   2.022  12.208
 2946SOL     OW 9589   0.590   3.349  11.663
 2946SOL    HW1 9590   0.632   3.291  11.593
 2946SOL    HW2 9591   0.546   3.428  11.619
 2947SOL     OW 9592   1.709   2.247  12.553
 2947SOL    HW1 9593   1.782   2.316  12.557
 2947SOL    HW2 9594   1.737   2.172  12.494
 2948SOL     OW 9595   0.255   3.210  11.462
 2948SOL    HW1 9596   0.159   3.211  11.435
 2948SOL    HW2 9597   0.267   3.263  11.546
 2949SOL     OW 9598   0.105   2.875  12.898
 2949SOL    HW1 9599   0.028   2.842  12.952
 2949SOL    HW2 9600   0.190   2.845  12.940
 2950SOL     OW 9601   0.672   2.065  12.661
 2950SOL    HW1 9602   0.762   2.049  12.621
 2950SOL    HW2 9603   0.680   2.070  12.760
 2951SOL     OW 9604   0.075   2.207  11.205
 2951SOL    HW1 9605  -0.017   2.179  11.176
 2951SOL    HW2 9606   0.106   2.284  11.149
 2952SOL     OW 9607   1.440   2.718  12.570
 2952SOL    HW1 9608   1.383   2.770  12.507
 2952SOL    HW2 9609   1.536   2.730  12.546
 2953SOL     OW 9610   0.072   2.028  11.490
 2953SOL    HW1 9611   0.055   2.111  11.436
 2953SOL    HW2 9612   0.162   1.991  11.468
 2954SOL     OW 9613   1.183   3.197  11.291
 2954SOL    HW1 9614   1.084   3.186  11.293
 2954SOL    HW2 9615   1.217   3.212  11.384
 2955SOL     OW 9616   0.613   2.704  12.603
 2955SOL    HW1 9617   0.669   2.785  12.586
 2955SOL    HW2 9618   0.672   2.624  12.606
 2956SOL     OW 9619   1.493   3.629  12.131
 2956SOL    HW1 9620   1.526   3.693  12.062
 2956SOL    HW2 9621   1.559   3.623  12.206
 2957SOL     OW 9622   0.716   2.427  12.880
 2957SOL    HW1 9623   0.735   2.492  12.954
 2957SOL    HW2 9624   0.776   2.347  12.889
 2958SOL     OW 9625   1.450   3.082  12.805
 2958SOL    HW1 9626   1.441   3.072  12.904
 2958SOL    HW2 9627   1.546   3.075  12.779
 2959SOL     OW 9628   0.390   3.603  12.732
 2959SOL    HW1 9629   0.299   3.644  12.730
 2959SOL    HW2 9630   0.383   3.509  12.764
 2960SOL     OW 9631   1.674   2.745  12.426
 2960SOL    HW1 9632   1.647   2.656  12.389
 2960SOL    HW2 9633   1.675   2.813  12.353
 2961SOL     OW 9634   1.225   2.187  11.621
 2961SOL    HW1 9635   1.290   2.113  11.610
 2961SOL    HW2 9636   1.245   2.237  11.705
 2962SOL     OW 9637   0.594   2.607  11.824
 2962SOL    HW1 9638   0.644   2.692  11.805
 2962SOL    HW2 9639   0.506   2.609  11.776
 2963SOL     OW 9640   1.777   2.204  12.814
 2963SOL    HW1 9641   1.760   2.235  12.720
 2963SOL    HW2 9642   1.693   2.167  12.852
 2964SOL     OW 9643   1.730   2.796  12.689
 2964SOL    HW1 9644   1.768   2.887  12.704
 2964SOL    HW2 9645   1.722   2.779  12.590
 2965SOL     OW 9646   0.859   3.236  11.188
 2965SOL    HW1 9647   0.813   3.251  11.276
 2965SOL    HW2 9648   0.903   3.321  11.158
 2966SOL     OW 9649   0.661   3.652  12.125
 2966SOL    HW1 9650   0.615   3.740  12.112
 2966SOL    HW2 9651   0.760   3.664  12.118
 2967SOL     OW 9652   0.859   2.818  12.033
 2967SOL    HW1 9653   0.913   2.749  12.081
 2967SOL    HW2 9654   0.827   2.887  12.099
 2968SOL     OW 9655   1.083   2.846  11.259
 2968SOL    HW1 9656   1.060   2.899  11.177
 2968SOL    HW2 9657   1.164   2.790  11.240
 2969SOL     OW 9658   1.861   3.431  12.023
 2969SOL    HW1 9659   1.790   3.419  11.953
 2969SOL    HW2 9660   1.862   3.352  12.083
 2970SOL     OW 9661   0.221   3.176  13.016
 2970SOL    HW1 9662   0.156   3.103  12.995
 2970SOL    HW2 9663   0.225   3.190  13.114
 2971SOL     OW 9664   0.079   3.102  11.825
 2971SOL    HW1 9665   0.078   3.055  11.913
 2971SOL    HW2 9666   0.161   3.074  11.774
 2972SOL     OW 9667   0.672   3.253  12.796
 2972SOL    HW1 9668   0.594   3.203  12.834
 2972SOL    HW2 9669   0.669   3.348  12.827
 2973SOL     OW 9670   0.428   2.286  11.692
 2973SOL    HW1 9671   0.458   2.214  11.630
 2973SOL    HW2 9672   0.389   2.246  11.775
 2974SOL     OW 9673   1.705   3.349  12.276
 2974SOL    HW1 9674   1.612   3.324  12.249
 2974SOL    HW2 9675   1.731   3.299  12.358
 2975SOL     OW 9676   0.317   2.409  12.452
 2975SOL    HW1 9677   0.355   2.350  12.524
 2975SOL    HW2 9678   0.357   2.383  12.364
 2976SOL     OW 9679   0.812   3.448  11.859
 2976SOL    HW1 9680   0.844   3.458  11.765
 2976SOL    HW2 9681   0.733   3.386  11.861
 2977SOL     OW 9682   1.424   2.076  12.284
 2977SOL    HW1 9683   1.476   2.011  12.339
 2977SOL    HW2 9684   1.375   2.139  12.345
 2978SOL     OW 9685   1.001   1.896  12.326
 2978SOL    HW1 9686   0.938   1.824  12.295
 2978SOL    HW2 9687   1.094   1.860  12.326
 2979SOL     OW 9688   0.770   3.192  11.473
 2979SOL    HW1 9689   0.724   3.105  11.490
 2979SOL    HW2 9690   0.861   3.189  11.514
 2980SOL     OW 9691   0.618   3.429  12.456
 2980SOL    HW1 9692   0.613   3.511  12.513
 2980SOL    HW2 9693   0.707   3.426  12.411
 2981SOL     OW 9694   1.352   1.914  11.340
 2981SOL    HW1 9695   1.387   1.873  11.256
 2981SOL    HW2 9696   1.262   1.876  11.360
 2982SOL     OW 9697   1.300   2.315  11.863
 2982SOL    HW1 9698   1.241   2.395  11.867
 2982SOL    HW2 9699   1.315   2.280  11.956
 2983SOL     OW 9700   1.593   2.083  12.054
 2983SOL    HW1 9701   1.509   2.082  12.108
 2983SOL    HW2 9702   1.595   2.166  11.998
 2984SOL     OW 9703   0.039   2.939  11.472
 2984SOL    HW1 9704   0.138   2.928  11.463
 2984SOL    HW2 9705  -0.001   2.853  11.504
 2985SOL     OW 9706   0.875   3.508  11.509
 2985SOL    HW1 9707   0.798   3.473  11.455
 2985SOL    HW2 9708   0.843   3.579  11.571
 2986SOL     OW 9709   0.230   2.490  13.147
 2986SOL    HW1 9710   0.137   2.488  13.184
 2986SOL    HW2 9711   0.231   2.451  13.055
 2987SOL     OW 9712   0.225   2.137  14.030
 2987SOL    HW1 9713   0.260   2.120  14.122
 2987SOL    HW2 9714   0.137   2.092  14.018
 2988SOL     OW 9715   0.019   2.230  13.681
 2988SOL    HW1 9716  -0.063   2.273  13.720
 2988SOL    HW2 9717  -0.009   2.157  13.618
 2989SOL     OW 9718   1.555   3.373  13.737
 2989SOL    HW1 9719   1.498   3.357  13.818
 2989SOL    HW2 9720   1.496   3.383  13.657
 2990SOL     OW 9721   1.135   2.565  13.751
 2990SOL    HW1 9722   1.192   2.643  13.726
 2990SOL    HW2 9723   1.075   2.591  13.827
 2991SOL     OW 9724   1.755   2.469  13.265
 2991SOL    HW1 9725   1.743   2.456  13.166
 2991SOL    HW2 9726   1.725   2.388  13.314
 2992SOL     OW 9727   0.685   2.874  13.699
 2992SOL    HW1 9728   0.754   2.858  13.769
 2992SOL    HW2 9729   0.612   2.931  13.737
 2993SOL     OW 9730   1.603   2.309  13.771
 2993SOL    HW1 9731   1.529   2.355  13.721
 2993SOL    HW2 9732   1.654   2.377  13.824
 2994SOL     OW 9733   0.231   3.575  13.517
 2994SOL    HW1 9734   0.265   3.652  13.571
 2994SOL    HW2 9735   0.275   3.575  13.427
 2995SOL     OW 9736   0.230   3.296  13.572
 2995SOL    HW1 9737   0.204   3.392  13.572
 2995SOL    HW2 9738   0.159   3.242  13.617
 2996SOL     OW 9739   0.240   2.953  13.920
 2996SOL    HW1 9740   0.254   2.869  13.972
 2996SOL    HW2 9741   0.185   3.017  13.975
 2997SOL     OW 9742   0.606   2.826  13.157
 2997SOL    HW1 9743   0.613   2.910  13.103
 2997SOL    HW2 9744   0.652   2.839  13.245
 2998SOL     OW 9745   0.122   2.505  13.597
 2998SOL    HW1 9746   0.077   2.417  13.614
 2998SOL    HW2 9747   0.121   2.559  13.681
 2999SOL     OW 9748   1.842   3.629  13.393
 2999SOL    HW1 9749   1.896   3.600  13.473
 2999SOL    HW2 9750   1.872   3.719  13.364
 3000SOL     OW 9751   0.027   3.458  13.151
 3000SOL    HW1 9752   0.008   3.362  13.172
 3000SOL    HW2 9753  -0.006   3.516  13.226
 3001SOL     OW 9754   1.689   2.784  13.646
 3001SOL    HW1 9755   1.784   2.755  13.654
 3001SOL    HW2 9756   1.681   2.849  13.571
 3002SOL     OW 9757   1.641   2.970  13.466
 3002SOL    HW1 9758   1.727   2.972  13.414
 3002SOL    HW2 9759   1.655   3.017  13.554
 3003SOL     OW 9760   0.613   3.227  13.760
 3003SOL    HW1 9761   0.564   3.140  13.769
 3003SOL    HW2 9762   0.590   3.270  13.673
 3004SOL     OW 9763   0.809   1.866  13.536
 3004SOL    HW1 9764   0.849   1.957  13.527
 3004SOL    HW2 9765   0.709   1.874  13.542
 3005SOL     OW 9766   1.525   2.861  13.224
 3005SOL    HW1 9767   1.462   2.785  13.237
 3005SOL    HW2 9768   1.573   2.879  13.310
 3006SOL     OW 9769   1.667   3.576  13.606
 3006SOL    HW1 9770   1.626   3.553  13.518
 3006SOL    HW2 9771   1.649   3.502  13.671
 3007SOL     OW 9772   0.598   2.591  13.304
 3007SOL    HW1 9773   0.622   2.660  13.236
 3007SOL    HW2 9774   0.520   2.624  13.358
 3008SOL     OW 9775   1.281   2.207  13.978
 3008SOL    HW1 9776   1.195   2.157  13.965
 3008SOL    HW2 9777   1.343   2.153  14.034
 3009SOL     OW 9778   1.576   3.524  13.341
 3009SOL    HW1 9779   1.665   3.570  13.344
 3009SOL    HW2 9780   1.555   3.500  13.246
 3010SOL     OW 9781   1.041   2.563  13.463
 3010SOL    HW1 9782   1.067   2.559  13.559
 3010SOL    HW2 9783   0.956   2.512  13.449
 3011SOL     OW 9784   0.076   2.673  13.823
 3011SOL    HW1 9785   0.175   2.661  13.832
 3011SOL    HW2 9786   0.052   2.768  13.844
 3012SOL     OW 9787   0.865   2.210  13.229
 3012SOL    HW1 9788   0.924   2.273  13.180
 3012SOL    HW2 9789   0.884   2.116  13.200
 3013SOL     OW 9790   1.362   3.006  13.579
 3013SOL    HW1 9791   1.445   2.977  13.531
 3013SOL    HW2 9792   1.313   3.073  13.523
 3014SOL     OW 9793   1.008   3.318  13.511
 3014SOL    HW1 9794   0.962   3.390  13.459
 3014SOL    HW2 9795   1.004   3.338  13.609
 3015SOL     OW 9796   0.351   3.663  13.887
 3015SOL    HW1 9797   0.401   3.577  13.893
 3015SOL    HW2 9798   0.416   3.740  13.884
 3016SOL     OW 9799   1.795   2.928  13.907
 3016SOL    HW1 9800   1.733   2.913  13.831
 3016SOL    HW2 9801   1.743   2.939  13.992
 3017SOL     OW 9802   0.321   2.805  13.276
 3017SOL    HW1 9803   0.403   2.844  13.234
 3017SOL    HW2 9804   0.294   2.723  13.227
 3018SOL     OW 9805   1.458   2.597  13.762
 3018SOL    HW1 9806   1.453   2.532  13.837
 3018SOL    HW2 9807   1.538   2.656  13.775
 3019SOL     OW 9808   1.111   3.638  13.271
 3019SOL    HW1 9809   1.051   3.576  13.321
 3019SOL    HW2 9810   1.142   3.594  13.186
 3020SOL     OW 9811   1.632   3.239  13.115
 3020SOL    HW1 9812   1.600   3.333  13.105
 3020SOL    HW2 9813   1.556   3.176  13.103
 3021SOL     OW 9814   0.464   3.605  13.357
 3021SOL    HW1 9815   0.497   3.644  13.443
 3021SOL    HW2 9816   0.540   3.598  13.292
 3022SOL     OW 9817   1.400   1.969  13.460
 3022SOL    HW1 9818   1.376   1.932  13.370
 3022SOL    HW2 9819   1.499   1.985  13.464
 3023SOL     OW 9820   0.940   3.560  13.938
 3023SOL    HW1 9821   1.020   3.503  13.959
 3023SOL    HW2 9822   0.891   3.520  13.861
 3024SOL     OW 9823   0.382   2.562  13.514
 3024SOL    HW1 9824   0.427   2.472  13.511
 3024SOL    HW2 9825   0.288   2.551  13.547
 3025SOL     OW 9826   0.614   1.984  13.151
 3025SOL    HW1 9827   0.712   1.962  13.158
 3025SOL    HW2 9828   0.583   1.967  13.058
 3026SOL     OW 9829   0.539   1.926  13.546
 3026SOL    HW1 9830   0.458   1.927  13.604
 3026SOL    HW2 9831   0.542   2.009  13.491
 3027SOL     OW 9832   1.434   3.050  13.075
 3027SOL    HW1 9833   1.466   2.974  13.132
 3027SOL    HW2 9834   1.342   3.077  13.105
 3028SOL     OW 9835   0.297   1.897  13.205
 3028SOL    HW1 9836   0.346   1.981  13.184
 3028SOL    HW2 9837   0.359   1.832  13.250
 3029SOL     OW 9838   0.935   2.098  13.514
 3029SOL    HW1 9839   0.887   2.139  13.436
 3029SOL    HW2 9840   1.034   2.096  13.495
 3030SOL     OW 9841   0.459   3.014  13.775
 3030SOL    HW1 9842   0.388   2.987  13.840
 3030SOL    HW2 9843   0.433   2.986  13.682
 3031SOL     OW 9844   1.271   3.659  13.625
 3031SOL    HW1 9845   1.315   3.723  13.561
 3031SOL    HW2 9846   1.221   3.711  13.695
 3032SOL     OW 9847   1.032   2.411  13.050
 3032SOL    HW1 9848   0.991   2.493  13.011
 3032SOL    HW2 9849   1.096   2.437  13.123
 3033SOL     OW 9850   0.866   2.316  13.676
 3033SOL    HW1 9851   0.834   2.388  13.614
 3033SOL    HW2 9852   0.890   2.235  13.623
 3034SOL     OW 9853   1.017   1.901  13.787
 3034SOL    HW1 9854   0.945   1.906  13.718
 3034SOL    HW2 9855   0.993   1.832  13.856
 3035SOL     OW 9856   1.857   2.695  13.411
 3035SOL    HW1 9857   1.899   2.631  13.475
 3035SOL    HW2 9858   1.819   2.644  13.333
 3036SOL     OW 9859   0.488   3.247  13.208
 3036SOL    HW1 9860   0.401   3.232  13.255
 3036SOL    HW2 9861   0.471   3.273  13.113
 3037SOL     OW 9862   1.664   3.142  13.691
 3037SOL    HW1 9863   1.763   3.150  13.705
 3037SOL    HW2 9864   1.619   3.226  13.722
 3038SOL     OW 9865   1.390   2.437  13.112
 3038SOL    HW1 9866   1.336   2.416  13.193
 3038SOL    HW2 9867   1.481   2.396  13.121
 3039SOL     OW 9868   0.527   2.118  13.362
 3039SOL    HW1 9869   0.554   2.059  13.287
 3039SOL    HW2 9870   0.527   2.213  13.331
 3040SOL     OW 9871   0.705   2.912  13.402
 3040SOL    HW1 9872   0.691   2.919  13.501
 3040SOL    HW2 9873   0.789   2.861  13.384
 3041SOL     OW 9874   0.367   2.962  13.535
 3041SOL    HW1 9875   0.360   3.045  13.479
 3041SOL    HW2 9876   0.371   2.882  13.475
 3042SOL     OW 9877   0.566   2.399  13.899
 3042SOL    HW1 9878   0.578   2.465  13.825
 3042SOL    HW2 9879   0.612   2.433  13.982
 3043SOL     OW 9880   1.252   3.210  13.422
 3043SOL    HW1 9881   1.302   3.287  13.462
 3043SOL    HW2 9882   1.157   3.212  13.454
 3044SOL     OW 9883   1.582   2.501  13.506
 3044SOL    HW1 9884   1.551   2.562  13.579
 3044SOL    HW2 9885   1.632   2.553  13.437
 3045SOL     OW 9886   1.209   2.387  13.309
 3045SOL    HW1 9887   1.222   2.303  13.363
 3045SOL    HW2 9888   1.180   2.461  13.369
 3046SOL     OW 9889   0.307   1.925  13.652
 3046SOL    HW1 9890   0.296   2.019  13.685
 3046SOL    HW2 9891   0.302   1.862  13.729
 3047SOL     OW 9892   1.622   2.229  13.408
 3047SOL    HW1 9893   1.624   2.153  13.472
 3047SOL    HW2 9894   1.574   2.306  13.448
 3048SOL     OW 9895   1.540   2.136  13.159
 3048SOL    HW1 9896   1.479   2.061  13.182
 3048SOL    HW2 9897   1.562   2.188  13.242
 3049SOL     OW 9898   1.303   2.700  13.076
 3049SOL    HW1 9899   1.337   2.607  13.091
 3049SOL    HW2 9900   1.321   2.727  12.981
 3050SOL     OW 9901   0.008   3.188  13.234
 3050SOL    HW1 9902  -0.085   3.209  13.203
 3050SOL    HW2 9903   0.018   3.089  13.247
 3051SOL     OW 9904   0.815   2.434  13.359
 3051SOL    HW1 9905   0.822   2.345  13.313
 3051SOL    HW2 9906   0.721   2.468  13.351
 3052SOL     OW 9907   0.473   2.362  13.225
 3052SOL    HW1 9908   0.534   2.442  13.229
 3052SOL    HW2 9909   0.378   2.393  13.232
 3053SOL     OW 9910   1.302   2.717  13.343
 3053SOL    HW1 9911   1.216   2.686  13.385
 3053SOL    HW2 9912   1.298   2.703  13.244
 3054SOL     OW 9913   1.388   3.435  13.511
 3054SOL    HW1 9914   1.455   3.447  13.437
 3054SOL    HW2 9915   1.348   3.524  13.534
 3055SOL     OW 9916   1.280   2.789  13.706
 3055SOL    HW1 9917   1.340   2.708  13.708
 3055SOL    HW2 9918   1.320   2.858  13.646
 3056SOL     OW 9919   0.672   3.478  13.188
 3056SOL    HW1 9920   0.681   3.488  13.089
 3056SOL    HW2 9921   0.632   3.389  13.209
 3057SOL     OW 9922   0.263   2.188  13.754
 3057SOL    HW1 9923   0.184   2.239  13.720
 3057SOL    HW2 9924   0.254   2.173  13.852
 3058SOL     OW 9925   1.194   3.474  13.065
 3058SOL    HW1 9926   1.200   3.381  13.102
 3058SOL    HW2 9927   1.135   3.474  12.985
 3059SOL     OW 9928   0.916   2.772  13.325
 3059SOL    HW1 9929   0.979   2.810  13.257
 3059SOL    HW2 9930   0.956   2.689  13.364
 3060SOL     OW 9931   1.504   3.469  13.078
 3060SOL    HW1 9932   1.412   3.506  13.085
 3060SOL    HW2 9933   1.542   3.489  12.988
 3061SOL     OW 9934   1.039   2.960  13.730
 3061SOL    HW1 9935   0.969   2.913  13.784
 3061SOL    HW2 9936   1.098   2.892  13.687
 3062SOL     OW 9937   0.590   3.349  13.525
 3062SOL    HW1 9938   0.632   3.291  13.455
 3062SOL    HW2 9939   0.546   3.428  13.481
 3063SOL     OW 9940   0.255   3.210  13.324
 3063SOL    HW1 9941   0.159   3.211  13.297
 3063SOL    HW2 9942   0.267   3.263  13.408
 3064SOL     OW 9943   0.075   2.207  13.067
 3064SOL    HW1 9944  -0.017   2.179  13.038
 3064SOL    HW2 9945   0.106   2.284  13.011
 3065SOL     OW 9946   0.072   2.028  13.352
 3065SOL    HW1 9947   0.055   2.111  13.298
 3065SOL    HW2 9948   0.162   1.991  13.330
 3066SOL     OW 9949   1.183   3.197  13.153
 3066SOL    HW1 9950   1.084   3.186  13.155
 3066SOL    HW2 9951   1.217   3.212  13.246
 3067SOL     OW 9952   1.225   2.187  13.483
 3067SOL    HW1 9953   1.290   2.113  13.472
 3067SOL    HW2 9954   1.245   2.237  13.567
 3068SOL     OW 9955   0.594   2.607  13.686
 3068SOL    HW1 9956   0.644   2.692  13.667
 3068SOL    HW2 9957   0.506   2.609  13.638
 3069SOL     OW 9958   0.859   3.236  13.050
 3069SOL    HW1 9959   0.813   3.251  13.138
 3069SOL    HW2 9960   0.903   3.321  13.020
 3070SOL     OW 9961   0.661   3.652  13.987
 3070SOL    HW1 9962   0.615   3.740  13.974
 3070SOL    HW2 9963   0.760   3.664  13.980
 3071SOL     OW 9964   0.859   2.818  13.895
 3071SOL    HW1 9965   0.913   2.749  13.943
 3071SOL    HW2 9966   0.827   2.887  13.961
 3072SOL     OW 9967   1.083   2.846  13.121
 3072SOL    HW1 9968   1.060   2.899  13.039
 3072SOL    HW2 9969   1.164   2.790  13.102
 3073SOL     OW 9970   0.079   3.102  13.687
 3073SOL    HW1 9971   0.078   3.055  13.775
 3073SOL    HW2 9972   0.161   3.074  13.636
 3074SOL     OW 9973   0.428   2.286  13.554
 3074SOL    HW1 9974   0.458   2.214  13.492
 3074SOL    HW2 9975   0.389   2.246  13.637
 3075SOL     OW 9976   1.705   3.349  14.138
 3075SOL    HW1 9977   1.612   3.324  14.111
 3075SOL    HW2 9978   1.731   3.299  14.220
 3076SOL     OW 9979   0.812   3.448  13.721
 3076SOL    HW1 9980   0.844   3.458  13.627
 3076SOL    HW2 9981   0.733   3.386  13.723
 3077SOL     OW 9982   0.770   3.192  13.335
 3077SOL    HW1 9983   0.724   3.105  13.352
 3077SOL    HW2 9984   0.861   3.189  13.376
 3078SOL     OW 9985   1.352   1.914  13.202
 3078SOL    HW1 9986   1.387   1.873  13.118
 3078SOL    HW2 9987   1.262   1.876  13.222
 3079SOL     OW 9988   1.300   2.315  13.725
 3079SOL    HW1 9989   1.241   2.395  13.729
 3079SOL    HW2 9990   1.315   2.280  13.818
 3080SOL     OW 9991   0.039   2.939  13.334
 3080SOL    HW1 9992   0.138   2.928  13.325
 3080SOL    HW2 9993  -0.001   2.853  13.366
 3081SOL     OW 9994   0.875   3.508  13.371
 3081SOL    HW1 9995   0.798   3.473  13.317
 3081SOL    HW2 9996   0.843   3.579  13.433
 3082SOL     OW 9997   0.225   3.999   0.996
 3082SOL    HW1 9998   0.260   3.982   1.088
 3082SOL    HW2 9999   0.137   3.954   0.984
 3083SOL     OW10000   0.019   4.092   0.647
 3083SOL    HW110001  -0.063   4.135   0.686
 3083SOL    HW210002  -0.009   4.019   0.584
 3084SOL     OW10003   1.755   4.331   0.231
 3084SOL    HW110004   1.743   4.318   0.132
 3084SOL    HW210005   1.725   4.250   0.280
 3085SOL     OW10006   0.438   4.116   1.499
 3085SOL    HW110007   0.520   4.060   1.508
 3085SOL    HW210008   0.357   4.058   1.503
 3086SOL     OW10009   1.594   3.838   1.480
 3086SOL    HW110010   1.576   3.905   1.408
 3086SOL    HW210011   1.591   3.884   1.569
 3087SOL     OW10012   0.809   3.728   0.502
 3087SOL    HW110013   0.849   3.819   0.493
 3087SOL    HW210014   0.709   3.736   0.508
 3088SOL     OW10015   1.281   4.069   0.944
 3088SOL    HW110016   1.195   4.019   0.931
 3088SOL    HW210017   1.343   4.015   1.000
 3089SOL     OW10018   0.550   3.920   0.885
 3089SOL    HW110019   0.545   3.915   0.985
 3089SOL    HW210020   0.552   4.016   0.856
 3090SOL     OW10021   0.202   4.009   1.498
 3090SOL    HW110022   0.122   4.069   1.485
 3090SOL    HW210023   0.192   3.960   1.584
 3091SOL     OW10024   1.400   3.831   0.426
 3091SOL    HW110025   1.376   3.794   0.336
 3091SOL    HW210026   1.499   3.847   0.430
 3092SOL     OW10027   1.547   3.946   1.729
 3092SOL    HW110028   1.542   3.983   1.821
 3092SOL    HW210029   1.475   3.877   1.717
 3093SOL     OW10030   0.781   3.988   1.749
 3093SOL    HW110031   0.848   3.927   1.792
 3093SOL    HW210032   0.708   4.007   1.814
 3094SOL     OW10033   0.539   3.788   0.512
 3094SOL    HW110034   0.458   3.789   0.570
 3094SOL    HW210035   0.542   3.871   0.457
 3095SOL     OW10036   0.297   3.759   0.171
 3095SOL    HW110037   0.346   3.843   0.150
 3095SOL    HW210038   0.359   3.694   0.216
 3096SOL     OW10039   0.561   3.946   1.147
 3096SOL    HW110040   0.599   3.862   1.184
 3096SOL    HW210041   0.473   3.965   1.191
 3097SOL     OW10042   1.017   3.763   0.753
 3097SOL    HW110043   0.945   3.768   0.684
 3097SOL    HW210044   0.993   3.694   0.822
 3098SOL     OW10045   0.915   3.813   1.402
 3098SOL    HW110046   0.940   3.793   1.307
 3098SOL    HW210047   0.987   3.869   1.444
 3099SOL     OW10048   1.274   4.110   1.262
 3099SOL    HW110049   1.295   4.184   1.326
 3099SOL    HW210050   1.185   4.127   1.219
 3100SOL     OW10051   0.504   3.774   1.740
 3100SOL    HW110052   0.462   3.717   1.670
 3100SOL    HW210053   0.438   3.843   1.772
 3101SOL     OW10054   0.307   3.937   1.231
 3101SOL    HW110055   0.284   3.974   1.321
 3101SOL    HW210056   0.277   3.842   1.225
 3102SOL     OW10057   1.540   3.998   0.125
 3102SOL    HW110058   1.479   3.923   0.148
 3102SOL    HW210059   1.562   4.050   0.208
 3103SOL     OW10060   1.160   3.931   1.477
 3103SOL    HW110061   1.160   3.995   1.554
 3103SOL    HW210062   1.188   3.979   1.394
 3104SOL     OW10063   0.903   3.810   0.133
 3104SOL    HW110064   0.954   3.811   0.047
 3104SOL    HW210065   0.959   3.768   0.204
 3105SOL     OW10066   1.726   3.859   0.523
 3105SOL    HW110067   1.799   3.842   0.456
 3105SOL    HW210068   1.695   3.772   0.561
 3106SOL     OW10069   1.841   3.899   0.963
 3106SOL    HW110070   1.880   3.814   0.927
 3106SOL    HW210071   1.743   3.901   0.944
 3107SOL     OW10072   0.672   3.927   1.489
 3107SOL    HW110073   0.762   3.911   1.449
 3107SOL    HW210074   0.680   3.932   1.588
 3108SOL     OW10075   0.075   4.069   0.033
 3108SOL    HW110076  -0.017   4.041   0.004
 3108SOL    HW210077   0.106   4.146  -0.023
 3109SOL     OW10078   0.072   3.890   0.318
 3109SOL    HW110079   0.055   3.973   0.264
 3109SOL    HW210080   0.162   3.853   0.296
 3110SOL     OW10081   1.225   4.049   0.449
 3110SOL    HW110082   1.290   3.975   0.438
 3110SOL    HW210083   1.245   4.099   0.533
 3111SOL     OW10084   1.777   4.066   1.642
 3111SOL    HW110085   1.760   4.097   1.548
 3111SOL    HW210086   1.693   4.029   1.680
 3112SOL     OW10087   1.824   3.916   1.227
 3112SOL    HW110088   1.820   3.826   1.271
 3112SOL    HW210089   1.827   3.905   1.128
 3113SOL     OW10090   1.424   3.938   1.112
 3113SOL    HW110091   1.476   3.873   1.167
 3113SOL    HW210092   1.375   4.001   1.173
 3114SOL     OW10093   1.001   3.758   1.154
 3114SOL    HW110094   0.938   3.686   1.123
 3114SOL    HW210095   1.094   3.722   1.154
 3115SOL     OW10096   1.352   3.776   0.168
 3115SOL    HW110097   1.387   3.735   0.084
 3115SOL    HW210098   1.262   3.738   0.188
 3116SOL     OW10099   1.300   4.177   0.691
 3116SOL    HW110100   1.241   4.257   0.695
 3116SOL    HW210101   1.315   4.142   0.784
 3117SOL     OW10102   1.593   3.945   0.882
 3117SOL    HW110103   1.509   3.944   0.936
 3117SOL    HW210104   1.595   4.028   0.826
 3118SOL     OW10105   0.225   3.999   2.858
 3118SOL    HW110106   0.260   3.982   2.950
 3118SOL    HW210107   0.137   3.954   2.846
 3119SOL     OW10108   0.019   4.092   2.509
 3119SOL    HW110109  -0.063   4.135   2.548
 3119SOL    HW210110  -0.009   4.019   2.446
 3120SOL     OW10111   1.755   4.331   2.093
 3120SOL    HW110112   1.743   4.318   1.994
 3120SOL    HW210113   1.725   4.250   2.142
 3121SOL     OW10114   0.438   4.116   3.361
 3121SOL    HW110115   0.520   4.060   3.370
 3121SOL    HW210116   0.357   4.058   3.365
 3122SOL     OW10117   1.594   3.838   3.342
 3122SOL    HW110118   1.576   3.905   3.270
 3122SOL    HW210119   1.591   3.884   3.431
 3123SOL     OW10120   0.809   3.728   2.364
 3123SOL    HW110121   0.849   3.819   2.355
 3123SOL    HW210122   0.709   3.736   2.370
 3124SOL     OW10123   1.281   4.069   2.806
 3124SOL    HW110124   1.195   4.019   2.793
 3124SOL    HW210125   1.343   4.015   2.862
 3125SOL     OW10126   0.550   3.920   2.747
 3125SOL    HW110127   0.545   3.915   2.847
 3125SOL    HW210128   0.552   4.016   2.718
 3126SOL     OW10129   0.202   4.009   3.360
 3126SOL    HW110130   0.122   4.069   3.347
 3126SOL    HW210131   0.192   3.960   3.446
 3127SOL     OW10132   1.400   3.831   2.288
 3127SOL    HW110133   1.376   3.794   2.198
 3127SOL    HW210134   1.499   3.847   2.292
 3128SOL     OW10135   1.547   3.946   3.591
 3128SOL    HW110136   1.542   3.983   3.683
 3128SOL    HW210137   1.475   3.877   3.579
 3129SOL     OW10138   0.614   3.846   1.979
 3129SOL    HW110139   0.712   3.824   1.986
 3129SOL    HW210140   0.583   3.829   1.886
 3130SOL     OW10141   0.781   3.988   3.611
 3130SOL    HW110142   0.848   3.927   3.654
 3130SOL    HW210143   0.708   4.007   3.676
 3131SOL     OW10144   0.539   3.788   2.374
 3131SOL    HW110145   0.458   3.789   2.432
 3131SOL    HW210146   0.542   3.871   2.319
 3132SOL     OW10147   0.297   3.759   2.033
 3132SOL    HW110148   0.346   3.843   2.012
 3132SOL    HW210149   0.359   3.694   2.078
 3133SOL     OW10150   0.561   3.946   3.009
 3133SOL    HW110151   0.599   3.862   3.046
 3133SOL    HW210152   0.473   3.965   3.053
 3134SOL     OW10153   1.017   3.763   2.615
 3134SOL    HW110154   0.945   3.768   2.546
 3134SOL    HW210155   0.993   3.694   2.684
 3135SOL     OW10156   0.915   3.813   3.264
 3135SOL    HW110157   0.940   3.793   3.169
 3135SOL    HW210158   0.987   3.869   3.306
 3136SOL     OW10159   1.274   4.110   3.124
 3136SOL    HW110160   1.295   4.184   3.188
 3136SOL    HW210161   1.185   4.127   3.081
 3137SOL     OW10162   0.504   3.774   3.602
 3137SOL    HW110163   0.462   3.717   3.532
 3137SOL    HW210164   0.438   3.843   3.634
 3138SOL     OW10165   0.307   3.937   3.093
 3138SOL    HW110166   0.284   3.974   3.183
 3138SOL    HW210167   0.277   3.842   3.087
 3139SOL     OW10168   1.540   3.998   1.987
 3139SOL    HW110169   1.479   3.923   2.010
 3139SOL    HW210170   1.562   4.050   2.070
 3140SOL     OW10171   1.160   3.931   3.339
 3140SOL    HW110172   1.160   3.995   3.416
 3140SOL    HW210173   1.188   3.979   3.256
 3141SOL     OW10174   0.903   3.810   1.995
 3141SOL    HW110175   0.954   3.811   1.909
 3141SOL    HW210176   0.959   3.768   2.066
 3142SOL     OW10177   1.726   3.859   2.385
 3142SOL    HW110178   1.799   3.842   2.318
 3142SOL    HW210179   1.695   3.772   2.423
 3143SOL     OW10180   1.841   3.899   2.825
 3143SOL    HW110181   1.880   3.814   2.789
 3143SOL    HW210182   1.743   3.901   2.806
 3144SOL     OW10183   0.672   3.927   3.351
 3144SOL    HW110184   0.762   3.911   3.311
 3144SOL    HW210185   0.680   3.932   3.450
 3145SOL     OW10186   0.075   4.069   1.895
 3145SOL    HW110187  -0.017   4.041   1.866
 3145SOL    HW210188   0.106   4.146   1.839
 3146SOL     OW10189   0.072   3.890   2.180
 3146SOL    HW110190   0.055   3.973   2.126
 3146SOL    HW210191   0.162   3.853   2.158
 3147SOL     OW10192   1.225   4.049   2.311
 3147SOL    HW110193   1.290   3.975   2.300
 3147SOL    HW210194   1.245   4.099   2.395
 3148SOL     OW10195   1.777   4.066   3.504
 3148SOL    HW110196   1.760   4.097   3.410
 3148SOL    HW210197   1.693   4.029   3.542
 3149SOL     OW10198   1.824   3.916   3.089
 3149SOL    HW110199   1.820   3.826   3.133
 3149SOL    HW210200   1.827   3.905   2.990
 3150SOL     OW10201   1.424   3.938   2.974
 3150SOL    HW110202   1.476   3.873   3.029
 3150SOL    HW210203   1.375   4.001   3.035
 3151SOL     OW10204   1.001   3.758   3.016
 3151SOL    HW110205   0.938   3.686   2.985
 3151SOL    HW210206   1.094   3.722   3.016
 3152SOL     OW10207   1.352   3.776   2.030
 3152SOL    HW110208   1.387   3.735   1.946
 3152SOL    HW210209   1.262   3.738   2.050
 3153SOL     OW10210   1.300   4.177   2.553
 3153SOL    HW110211   1.241   4.257   2.557
 3153SOL    HW210212   1.315   4.142   2.646
 3154SOL     OW10213   1.593   3.945   2.744
 3154SOL    HW110214   1.509   3.944   2.798
 3154SOL    HW210215   1.595   4.028   2.688
 3155SOL     OW10216   0.225   3.999   4.720
 3155SOL    HW110217   0.260   3.982   4.812
 3155SOL    HW210218   0.137   3.954   4.708
 3156SOL     OW10219   0.019   4.092   4.371
 3156SOL    HW110220  -0.063   4.135   4.410
 3156SOL    HW210221  -0.009   4.019   4.308
 3157SOL     OW10222   1.755   4.331   3.955
 3157SOL    HW110223   1.743   4.318   3.856
 3157SOL    HW210224   1.725   4.250   4.004
 3158SOL     OW10225   0.438   4.116   5.223
 3158SOL    HW110226   0.520   4.060   5.232
 3158SOL    HW210227   0.357   4.058   5.227
 3159SOL     OW10228   1.594   3.838   5.204
 3159SOL    HW110229   1.576   3.905   5.132
 3159SOL    HW210230   1.591   3.884   5.293
 3160SOL     OW10231   0.809   3.728   4.226
 3160SOL    HW110232   0.849   3.819   4.217
 3160SOL    HW210233   0.709   3.736   4.232
 3161SOL     OW10234   1.281   4.069   4.668
 3161SOL    HW110235   1.195   4.019   4.655
 3161SOL    HW210236   1.343   4.015   4.724
 3162SOL     OW10237   0.550   3.920   4.609
 3162SOL    HW110238   0.545   3.915   4.709
 3162SOL    HW210239   0.552   4.016   4.580
 3163SOL     OW10240   0.202   4.009   5.222
 3163SOL    HW110241   0.122   4.069   5.209
 3163SOL    HW210242   0.192   3.960   5.308
 3164SOL     OW10243   1.400   3.831   4.150
 3164SOL    HW110244   1.376   3.794   4.060
 3164SOL    HW210245   1.499   3.847   4.154
 3165SOL     OW10246   1.547   3.946   5.453
 3165SOL    HW110247   1.542   3.983   5.545
 3165SOL    HW210248   1.475   3.877   5.441
 3166SOL     OW10249   0.614   3.846   3.841
 3166SOL    HW110250   0.712   3.824   3.848
 3166SOL    HW210251   0.583   3.829   3.748
 3167SOL     OW10252   0.781   3.988   5.473
 3167SOL    HW110253   0.848   3.927   5.516
 3167SOL    HW210254   0.708   4.007   5.538
 3168SOL     OW10255   0.539   3.788   4.236
 3168SOL    HW110256   0.458   3.789   4.294
 3168SOL    HW210257   0.542   3.871   4.181
 3169SOL     OW10258   0.297   3.759   3.895
 3169SOL    HW110259   0.346   3.843   3.874
 3169SOL    HW210260   0.359   3.694   3.940
 3170SOL     OW10261   0.561   3.946   4.871
 3170SOL    HW110262   0.599   3.862   4.908
 3170SOL    HW210263   0.473   3.965   4.915
 3171SOL     OW10264   1.017   3.763   4.477
 3171SOL    HW110265   0.945   3.768   4.408
 3171SOL    HW210266   0.993   3.694   4.546
 3172SOL     OW10267   0.915   3.813   5.126
 3172SOL    HW110268   0.940   3.793   5.031
 3172SOL    HW210269   0.987   3.869   5.168
 3173SOL     OW10270   1.274   4.110   4.986
 3173SOL    HW110271   1.295   4.184   5.050
 3173SOL    HW210272   1.185   4.127   4.943
 3174SOL     OW10273   0.504   3.774   5.464
 3174SOL    HW110274   0.462   3.717   5.394
 3174SOL    HW210275   0.438   3.843   5.496
 3175SOL     OW10276   0.307   3.937   4.955
 3175SOL    HW110277   0.284   3.974   5.045
 3175SOL    HW210278   0.277   3.842   4.949
 3176SOL     OW10279   1.540   3.998   3.849
 3176SOL    HW110280   1.479   3.923   3.872
 3176SOL    HW210281   1.562   4.050   3.932
 3177SOL     OW10282   1.160   3.931   5.201
 3177SOL    HW110283   1.160   3.995   5.278
 3177SOL    HW210284   1.188   3.979   5.118
 3178SOL     OW10285   0.903   3.810   3.857
 3178SOL    HW110286   0.954   3.811   3.771
 3178SOL    HW210287   0.959   3.768   3.928
 3179SOL     OW10288   1.726   3.859   4.247
 3179SOL    HW110289   1.799   3.842   4.180
 3179SOL    HW210290   1.695   3.772   4.285
 3180SOL     OW10291   1.841   3.899   4.687
 3180SOL    HW110292   1.880   3.814   4.651
 3180SOL    HW210293   1.743   3.901   4.668
 3181SOL     OW10294   0.672   3.927   5.213
 3181SOL    HW110295   0.762   3.911   5.173
 3181SOL    HW210296   0.680   3.932   5.312
 3182SOL     OW10297   0.075   4.069   3.757
 3182SOL    HW110298  -0.017   4.041   3.728
 3182SOL    HW210299   0.106   4.146   3.701
 3183SOL     OW10300   0.072   3.890   4.042
 3183SOL    HW110301   0.055   3.973   3.988
 3183SOL    HW210302   0.162   3.853   4.020
 3184SOL     OW10303   1.225   4.049   4.173
 3184SOL    HW110304   1.290   3.975   4.162
 3184SOL    HW210305   1.245   4.099   4.257
 3185SOL     OW10306   1.777   4.066   5.366
 3185SOL    HW110307   1.760   4.097   5.272
 3185SOL    HW210308   1.693   4.029   5.404
 3186SOL     OW10309   1.824   3.916   4.951
 3186SOL    HW110310   1.820   3.826   4.995
 3186SOL    HW210311   1.827   3.905   4.852
 3187SOL     OW10312   1.424   3.938   4.836
 3187SOL    HW110313   1.476   3.873   4.891
 3187SOL    HW210314   1.375   4.001   4.897
 3188SOL     OW10315   1.001   3.758   4.878
 3188SOL    HW110316   0.938   3.686   4.847
 3188SOL    HW210317   1.094   3.722   4.878
 3189SOL     OW10318   1.352   3.776   3.892
 3189SOL    HW110319   1.387   3.735   3.808
 3189SOL    HW210320   1.262   3.738   3.912
 3190SOL     OW10321   1.300   4.177   4.415
 3190SOL    HW110322   1.241   4.257   4.419
 3190SOL    HW210323   1.315   4.142   4.508
 3191SOL     OW10324   1.593   3.945   4.606
 3191SOL    HW110325   1.509   3.944   4.660
 3191SOL    HW210326   1.595   4.028   4.550
 3192SOL     OW10327   0.225   3.999   6.582
 3192SOL    HW110328   0.260   3.982   6.674
 3192SOL    HW210329   0.137   3.954   6.570
 3193SOL     OW10330   0.019   4.092   6.233
 3193SOL    HW110331  -0.063   4.135   6.272
 3193SOL    HW210332  -0.009   4.019   6.170
 3194SOL     OW10333   1.755   4.331   5.817
 3194SOL    HW110334   1.743   4.318   5.718
 3194SOL    HW210335   1.725   4.250   5.866
 3195SOL     OW10336   0.438   4.116   7.085
 3195SOL    HW110337   0.520   4.060   7.094
 3195SOL    HW210338   0.357   4.058   7.089
 3196SOL     OW10339   1.594   3.838   7.066
 3196SOL    HW110340   1.576   3.905   6.994
 3196SOL    HW210341   1.591   3.884   7.155
 3197SOL     OW10342   0.809   3.728   6.088
 3197SOL    HW110343   0.849   3.819   6.079
 3197SOL    HW210344   0.709   3.736   6.094
 3198SOL     OW10345   1.281   4.069   6.530
 3198SOL    HW110346   1.195   4.019   6.517
 3198SOL    HW210347   1.343   4.015   6.586
 3199SOL     OW10348   0.550   3.920   6.471
 3199SOL    HW110349   0.545   3.915   6.571
 3199SOL    HW210350   0.552   4.016   6.442
 3200SOL     OW10351   0.202   4.009   7.084
 3200SOL    HW110352   0.122   4.069   7.071
 3200SOL    HW210353   0.192   3.960   7.170
 3201SOL     OW10354   1.400   3.831   6.012
 3201SOL    HW110355   1.376   3.794   5.922
 3201SOL    HW210356   1.499   3.847   6.016
 3202SOL     OW10357   1.547   3.946   7.315
 3202SOL    HW110358   1.542   3.983   7.407
 3202SOL    HW210359   1.475   3.877   7.303
 3203SOL     OW10360   0.614   3.846   5.703
 3203SOL    HW110361   0.712   3.824   5.710
 3203SOL    HW210362   0.583   3.829   5.610
 3204SOL     OW10363   0.781   3.988   7.335
 3204SOL    HW110364   0.848   3.927   7.378
 3204SOL    HW210365   0.708   4.007   7.400
 3205SOL     OW10366   0.539   3.788   6.098
 3205SOL    HW110367   0.458   3.789   6.156
 3205SOL    HW210368   0.542   3.871   6.043
 3206SOL     OW10369   0.297   3.759   5.757
 3206SOL    HW110370   0.346   3.843   5.736
 3206SOL    HW210371   0.359   3.694   5.802
 3207SOL     OW10372   0.561   3.946   6.733
 3207SOL    HW110373   0.599   3.862   6.770
 3207SOL    HW210374   0.473   3.965   6.777
 3208SOL     OW10375   1.017   3.763   6.339
 3208SOL    HW110376   0.945   3.768   6.270
 3208SOL    HW210377   0.993   3.694   6.408
 3209SOL     OW10378   0.915   3.813   6.988
 3209SOL    HW110379   0.940   3.793   6.893
 3209SOL    HW210380   0.987   3.869   7.030
 3210SOL     OW10381   1.274   4.110   6.848
 3210SOL    HW110382   1.295   4.184   6.912
 3210SOL    HW210383   1.185   4.127   6.805
 3211SOL     OW10384   0.504   3.774   7.326
 3211SOL    HW110385   0.462   3.717   7.256
 3211SOL    HW210386   0.438   3.843   7.358
 3212SOL     OW10387   0.307   3.937   6.817
 3212SOL    HW110388   0.284   3.974   6.907
 3212SOL    HW210389   0.277   3.842   6.811
 3213SOL     OW10390   1.540   3.998   5.711
 3213SOL    HW110391   1.479   3.923   5.734
 3213SOL    HW210392   1.562   4.050   5.794
 3214SOL     OW10393   1.160   3.931   7.063
 3214SOL    HW110394   1.160   3.995   7.140
 3214SOL    HW210395   1.188   3.979   6.980
 3215SOL     OW10396   0.903   3.810   5.719
 3215SOL    HW110397   0.954   3.811   5.633
 3215SOL    HW210398   0.959   3.768   5.790
 3216SOL     OW10399   1.726   3.859   6.109
 3216SOL    HW110400   1.799   3.842   6.042
 3216SOL    HW210401   1.695   3.772   6.147
 3217SOL     OW10402   1.841   3.899   6.549
 3217SOL    HW110403   1.880   3.814   6.513
 3217SOL    HW210404   1.743   3.901   6.530
 3218SOL     OW10405   0.672   3.927   7.075
 3218SOL    HW110406   0.762   3.911   7.035
 3218SOL    HW210407   0.680   3.932   7.174
 3219SOL     OW10408   0.075   4.069   5.619
 3219SOL    HW110409  -0.017   4.041   5.590
 3219SOL    HW210410   0.106   4.146   5.563
 3220SOL     OW10411   0.072   3.890   5.904
 3220SOL    HW110412   0.055   3.973   5.850
 3220SOL    HW210413   0.162   3.853   5.882
 3221SOL     OW10414   1.225   4.049   6.035
 3221SOL    HW110415   1.290   3.975   6.024
 3221SOL    HW210416   1.245   4.099   6.119
 3222SOL     OW10417   1.777   4.066   7.228
 3222SOL    HW110418   1.760   4.097   7.134
 3222SOL    HW210419   1.693   4.029   7.266
 3223SOL     OW10420   1.824   3.916   6.813
 3223SOL    HW110421   1.820   3.826   6.857
 3223SOL    HW210422   1.827   3.905   6.714
 3224SOL     OW10423   1.424   3.938   6.698
 3224SOL    HW110424   1.476   3.873   6.753
 3224SOL    HW210425   1.375   4.001   6.759
 3225SOL     OW10426   1.001   3.758   6.740
 3225SOL    HW110427   0.938   3.686   6.709
 3225SOL    HW210428   1.094   3.722   6.740
 3226SOL     OW10429   1.352   3.776   5.754
 3226SOL    HW110430   1.387   3.735   5.670
 3226SOL    HW210431   1.262   3.738   5.774
 3227SOL     OW10432   1.300   4.177   6.277
 3227SOL    HW110433   1.241   4.257   6.281
 3227SOL    HW210434   1.315   4.142   6.370
 3228SOL     OW10435   1.593   3.945   6.468
 3228SOL    HW110436   1.509   3.944   6.522
 3228SOL    HW210437   1.595   4.028   6.412
 3229SOL     OW10438   0.225   3.999   8.444
 3229SOL    HW110439   0.260   3.982   8.536
 3229SOL    HW210440   0.137   3.954   8.432
 3230SOL     OW10441   0.019   4.092   8.095
 3230SOL    HW110442  -0.063   4.135   8.134
 3230SOL    HW210443  -0.009   4.019   8.032
 3231SOL     OW10444   1.755   4.331   7.679
 3231SOL    HW110445   1.743   4.318   7.580
 3231SOL    HW210446   1.725   4.250   7.728
 3232SOL     OW10447   0.438   4.116   8.947
 3232SOL    HW110448   0.520   4.060   8.956
 3232SOL    HW210449   0.357   4.058   8.951
 3233SOL     OW10450   1.594   3.838   8.928
 3233SOL    HW110451   1.576   3.905   8.856
 3233SOL    HW210452   1.591   3.884   9.017
 3234SOL     OW10453   0.809   3.728   7.950
 3234SOL    HW110454   0.849   3.819   7.941
 3234SOL    HW210455   0.709   3.736   7.956
 3235SOL     OW10456   1.281   4.069   8.392
 3235SOL    HW110457   1.195   4.019   8.379
 3235SOL    HW210458   1.343   4.015   8.448
 3236SOL     OW10459   0.550   3.920   8.333
 3236SOL    HW110460   0.545   3.915   8.433
 3236SOL    HW210461   0.552   4.016   8.304
 3237SOL     OW10462   0.202   4.009   8.946
 3237SOL    HW110463   0.122   4.069   8.933
 3237SOL    HW210464   0.192   3.960   9.032
 3238SOL     OW10465   1.400   3.831   7.874
 3238SOL    HW110466   1.376   3.794   7.784
 3238SOL    HW210467   1.499   3.847   7.878
 3239SOL     OW10468   1.547   3.946   9.177
 3239SOL    HW110469   1.542   3.983   9.269
 3239SOL    HW210470   1.475   3.877   9.165
 3240SOL     OW10471   0.614   3.846   7.565
 3240SOL    HW110472   0.712   3.824   7.572
 3240SOL    HW210473   0.583   3.829   7.472
 3241SOL     OW10474   0.781   3.988   9.197
 3241SOL    HW110475   0.848   3.927   9.240
 3241SOL    HW210476   0.708   4.007   9.262
 3242SOL     OW10477   0.539   3.788   7.960
 3242SOL    HW110478   0.458   3.789   8.018
 3242SOL    HW210479   0.542   3.871   7.905
 3243SOL     OW10480   0.297   3.759   7.619
 3243SOL    HW110481   0.346   3.843   7.598
 3243SOL    HW210482   0.359   3.694   7.664
 3244SOL     OW10483   0.561   3.946   8.595
 3244SOL    HW110484   0.599   3.862   8.632
 3244SOL    HW210485   0.473   3.965   8.639
 3245SOL     OW10486   1.017   3.763   8.201
 3245SOL    HW110487   0.945   3.768   8.132
 3245SOL    HW210488   0.993   3.694   8.270
 3246SOL     OW10489   0.915   3.813   8.850
 3246SOL    HW110490   0.940   3.793   8.755
 3246SOL    HW210491   0.987   3.869   8.892
 3247SOL     OW10492   1.274   4.110   8.710
 3247SOL    HW110493   1.295   4.184   8.774
 3247SOL    HW210494   1.185   4.127   8.667
 3248SOL     OW10495   0.504   3.774   9.188
 3248SOL    HW110496   0.462   3.717   9.118
 3248SOL    HW210497   0.438   3.843   9.220
 3249SOL     OW10498   0.307   3.937   8.679
 3249SOL    HW110499   0.284   3.974   8.769
 3249SOL    HW210500   0.277   3.842   8.673
 3250SOL     OW10501   1.540   3.998   7.573
 3250SOL    HW110502   1.479   3.923   7.596
 3250SOL    HW210503   1.562   4.050   7.656
 3251SOL     OW10504   1.160   3.931   8.925
 3251SOL    HW110505   1.160   3.995   9.002
 3251SOL    HW210506   1.188   3.979   8.842
 3252SOL     OW10507   0.903   3.810   7.581
 3252SOL    HW110508   0.954   3.811   7.495
 3252SOL    HW210509   0.959   3.768   7.652
 3253SOL     OW10510   1.726   3.859   7.971
 3253SOL    HW110511   1.799   3.842   7.904
 3253SOL    HW210512   1.695   3.772   8.009
 3254SOL     OW10513   1.841   3.899   8.411
 3254SOL    HW110514   1.880   3.814   8.375
 3254SOL    HW210515   1.743   3.901   8.392
 3255SOL     OW10516   0.672   3.927   8.937
 3255SOL    HW110517   0.762   3.911   8.897
 3255SOL    HW210518   0.680   3.932   9.036
 3256SOL     OW10519   0.075   4.069   7.481
 3256SOL    HW110520  -0.017   4.041   7.452
 3256SOL    HW210521   0.106   4.146   7.425
 3257SOL     OW10522   0.072   3.890   7.766
 3257SOL    HW110523   0.055   3.973   7.712
 3257SOL    HW210524   0.162   3.853   7.744
 3258SOL     OW10525   1.225   4.049   7.897
 3258SOL    HW110526   1.290   3.975   7.886
 3258SOL    HW210527   1.245   4.099   7.981
 3259SOL     OW10528   1.777   4.066   9.090
 3259SOL    HW110529   1.760   4.097   8.996
 3259SOL    HW210530   1.693   4.029   9.128
 3260SOL     OW10531   1.824   3.916   8.675
 3260SOL    HW110532   1.820   3.826   8.719
 3260SOL    HW210533   1.827   3.905   8.576
 3261SOL     OW10534   1.424   3.938   8.560
 3261SOL    HW110535   1.476   3.873   8.615
 3261SOL    HW210536   1.375   4.001   8.621
 3262SOL     OW10537   1.001   3.758   8.602
 3262SOL    HW110538   0.938   3.686   8.571
 3262SOL    HW210539   1.094   3.722   8.602
 3263SOL     OW10540   1.352   3.776   7.616
 3263SOL    HW110541   1.387   3.735   7.532
 3263SOL    HW210542   1.262   3.738   7.636
 3264SOL     OW10543   1.300   4.177   8.139
 3264SOL    HW110544   1.241   4.257   8.143
 3264SOL    HW210545   1.315   4.142   8.232
 3265SOL     OW10546   1.593   3.945   8.330
 3265SOL    HW110547   1.509   3.944   8.384
 3265SOL    HW210548   1.595   4.028   8.274
 3266SOL     OW10549   0.225   3.999  10.306
 3266SOL    HW110550   0.260   3.982  10.398
 3266SOL    HW210551   0.137   3.954  10.294
 3267SOL     OW10552   0.019   4.092   9.957
 3267SOL    HW110553  -0.063   4.135   9.996
 3267SOL    HW210554  -0.009   4.019   9.894
 3268SOL     OW10555   1.755   4.331   9.541
 3268SOL    HW110556   1.743   4.318   9.442
 3268SOL    HW210557   1.725   4.250   9.590
 3269SOL     OW10558   0.438   4.116  10.809
 3269SOL    HW110559   0.520   4.060  10.818
 3269SOL    HW210560   0.357   4.058  10.813
 3270SOL     OW10561   1.594   3.838  10.790
 3270SOL    HW110562   1.576   3.905  10.718
 3270SOL    HW210563   1.591   3.884  10.879
 3271SOL     OW10564   0.809   3.728   9.812
 3271SOL    HW110565   0.849   3.819   9.803
 3271SOL    HW210566   0.709   3.736   9.818
 3272SOL     OW10567   1.281   4.069  10.254
 3272SOL    HW110568   1.195   4.019  10.241
 3272SOL    HW210569   1.343   4.015  10.310
 3273SOL     OW10570   0.550   3.920  10.195
 3273SOL    HW110571   0.545   3.915  10.295
 3273SOL    HW210572   0.552   4.016  10.166
 3274SOL     OW10573   0.202   4.009  10.808
 3274SOL    HW110574   0.122   4.069  10.795
 3274SOL    HW210575   0.192   3.960  10.894
 3275SOL     OW10576   1.400   3.831   9.736
 3275SOL    HW110577   1.376   3.794   9.646
 3275SOL    HW210578   1.499   3.847   9.740
 3276SOL     OW10579   1.547   3.946  11.039
 3276SOL    HW110580   1.542   3.983  11.131
 3276SOL    HW210581   1.475   3.877  11.027
 3277SOL     OW10582   0.614   3.846   9.427
 3277SOL    HW110583   0.712   3.824   9.434
 3277SOL    HW210584   0.583   3.829   9.334
 3278SOL     OW10585   0.781   3.988  11.059
 3278SOL    HW110586   0.848   3.927  11.102
 3278SOL    HW210587   0.708   4.007  11.124
 3279SOL     OW10588   0.539   3.788   9.822
 3279SOL    HW110589   0.458   3.789   9.880
 3279SOL    HW210590   0.542   3.871   9.767
 3280SOL     OW10591   0.297   3.759   9.481
 3280SOL    HW110592   0.346   3.843   9.460
 3280SOL    HW210593   0.359   3.694   9.526
 3281SOL     OW10594   0.561   3.946  10.457
 3281SOL    HW110595   0.599   3.862  10.494
 3281SOL    HW210596   0.473   3.965  10.501
 3282SOL     OW10597   1.017   3.763  10.063
 3282SOL    HW110598   0.945   3.768   9.994
 3282SOL    HW210599   0.993   3.694  10.132
 3283SOL     OW10600   0.915   3.813  10.712
 3283SOL    HW110601   0.940   3.793  10.617
 3283SOL    HW210602   0.987   3.869  10.754
 3284SOL     OW10603   1.274   4.110  10.572
 3284SOL    HW110604   1.295   4.184  10.636
 3284SOL    HW210605   1.185   4.127  10.529
 3285SOL     OW10606   0.504   3.774  11.050
 3285SOL    HW110607   0.462   3.717  10.980
 3285SOL    HW210608   0.438   3.843  11.082
 3286SOL     OW10609   0.307   3.937  10.541
 3286SOL    HW110610   0.284   3.974  10.631
 3286SOL    HW210611   0.277   3.842  10.535
 3287SOL     OW10612   1.540   3.998   9.435
 3287SOL    HW110613   1.479   3.923   9.458
 3287SOL    HW210614   1.562   4.050   9.518
 3288SOL     OW10615   1.160   3.931  10.787
 3288SOL    HW110616   1.160   3.995  10.864
 3288SOL    HW210617   1.188   3.979  10.704
 3289SOL     OW10618   0.903   3.810   9.443
 3289SOL    HW110619   0.954   3.811   9.357
 3289SOL    HW210620   0.959   3.768   9.514
 3290SOL     OW10621   1.726   3.859   9.833
 3290SOL    HW110622   1.799   3.842   9.766
 3290SOL    HW210623   1.695   3.772   9.871
 3291SOL     OW10624   1.841   3.899  10.273
 3291SOL    HW110625   1.880   3.814  10.237
 3291SOL    HW210626   1.743   3.901  10.254
 3292SOL     OW10627   0.672   3.927  10.799
 3292SOL    HW110628   0.762   3.911  10.759
 3292SOL    HW210629   0.680   3.932  10.898
 3293SOL     OW10630   0.075   4.069   9.343
 3293SOL    HW110631  -0.017   4.041   9.314
 3293SOL    HW210632   0.106   4.146   9.287
 3294SOL     OW10633   0.072   3.890   9.628
 3294SOL    HW110634   0.055   3.973   9.574
 3294SOL    HW210635   0.162   3.853   9.606
 3295SOL     OW10636   1.225   4.049   9.759
 3295SOL    HW110637   1.290   3.975   9.748
 3295SOL    HW210638   1.245   4.099   9.843
 3296SOL     OW10639   1.777   4.066  10.952
 3296SOL    HW110640   1.760   4.097  10.858
 3296SOL    HW210641   1.693   4.029  10.990
 3297SOL     OW10642   1.824   3.916  10.537
 3297SOL    HW110643   1.820   3.826  10.581
 3297SOL    HW210644   1.827   3.905  10.438
 3298SOL     OW10645   1.424   3.938  10.422
 3298SOL    HW110646   1.476   3.873  10.477
 3298SOL    HW210647   1.375   4.001  10.483
 3299SOL     OW10648   1.001   3.758  10.464
 3299SOL    HW110649   0.938   3.686  10.433
 3299SOL    HW210650   1.094   3.722  10.464
 3300SOL     OW10651   1.352   3.776   9.478
 3300SOL    HW110652   1.387   3.735   9.394
 3300SOL    HW210653   1.262   3.738   9.498
 3301SOL     OW10654   1.300   4.177  10.001
 3301SOL    HW110655   1.241   4.257  10.005
 3301SOL    HW210656   1.315   4.142  10.094
 3302SOL     OW10657   1.593   3.945  10.192
 3302SOL    HW110658   1.509   3.944  10.246
 3302SOL    HW210659   1.595   4.028  10.136
 3303SOL     OW10660   0.225   3.999  12.168
 3303SOL    HW110661   0.260   3.982  12.260
 3303SOL    HW210662   0.137   3.954  12.156
 3304SOL     OW10663   0.019   4.092  11.819
 3304SOL    HW110664  -0.063   4.135  11.858
 3304SOL    HW210665  -0.009   4.019  11.756
 3305SOL     OW10666   1.755   4.331  11.403
 3305SOL    HW110667   1.743   4.318  11.304
 3305SOL    HW210668   1.725   4.250  11.452
 3306SOL     OW10669   0.438   4.116  12.671
 3306SOL    HW110670   0.520   4.060  12.680
 3306SOL    HW210671   0.357   4.058  12.675
 3307SOL     OW10672   1.594   3.838  12.652
 3307SOL    HW110673   1.576   3.905  12.580
 3307SOL    HW210674   1.591   3.884  12.741
 3308SOL     OW10675   0.809   3.728  11.674
 3308SOL    HW110676   0.849   3.819  11.665
 3308SOL    HW210677   0.709   3.736  11.680
 3309SOL     OW10678   1.281   4.069  12.116
 3309SOL    HW110679   1.195   4.019  12.103
 3309SOL    HW210680   1.343   4.015  12.172
 3310SOL     OW10681   0.550   3.920  12.057
 3310SOL    HW110682   0.545   3.915  12.157
 3310SOL    HW210683   0.552   4.016  12.028
 3311SOL     OW10684   0.202   4.009  12.670
 3311SOL    HW110685   0.122   4.069  12.657
 3311SOL    HW210686   0.192   3.960  12.756
 3312SOL     OW10687   1.400   3.831  11.598
 3312SOL    HW110688   1.376   3.794  11.508
 3312SOL    HW210689   1.499   3.847  11.602
 3313SOL     OW10690   1.547   3.946  12.901
 3313SOL    HW110691   1.542   3.983  12.993
 3313SOL    HW210692   1.475   3.877  12.889
 3314SOL     OW10693   0.614   3.846  11.289
 3314SOL    HW110694   0.712   3.824  11.296
 3314SOL    HW210695   0.583   3.829  11.196
 3315SOL     OW10696   0.781   3.988  12.921
 3315SOL    HW110697   0.848   3.927  12.964
 3315SOL    HW210698   0.708   4.007  12.986
 3316SOL     OW10699   0.539   3.788  11.684
 3316SOL    HW110700   0.458   3.789  11.742
 3316SOL    HW210701   0.542   3.871  11.629
 3317SOL     OW10702   0.297   3.759  11.343
 3317SOL    HW110703   0.346   3.843  11.322
 3317SOL    HW210704   0.359   3.694  11.388
 3318SOL     OW10705   0.561   3.946  12.319
 3318SOL    HW110706   0.599   3.862  12.356
 3318SOL    HW210707   0.473   3.965  12.363
 3319SOL     OW10708   1.017   3.763  11.925
 3319SOL    HW110709   0.945   3.768  11.856
 3319SOL    HW210710   0.993   3.694  11.994
 3320SOL     OW10711   0.915   3.813  12.574
 3320SOL    HW110712   0.940   3.793  12.479
 3320SOL    HW210713   0.987   3.869  12.616
 3321SOL     OW10714   1.274   4.110  12.434
 3321SOL    HW110715   1.295   4.184  12.498
 3321SOL    HW210716   1.185   4.127  12.391
 3322SOL     OW10717   0.504   3.774  12.912
 3322SOL    HW110718   0.462   3.717  12.842
 3322SOL    HW210719   0.438   3.843  12.944
 3323SOL     OW10720   0.307   3.937  12.403
 3323SOL    HW110721   0.284   3.974  12.493
 3323SOL    HW210722   0.277   3.842  12.397
 3324SOL     OW10723   1.540   3.998  11.297
 3324SOL    HW110724   1.479   3.923  11.320
 3324SOL    HW210725   1.562   4.050  11.380
 3325SOL     OW10726   1.160   3.931  12.649
 3325SOL    HW110727   1.160   3.995  12.726
 3325SOL    HW210728   1.188   3.979  12.566
 3326SOL     OW10729   0.903   3.810  11.305
 3326SOL    HW110730   0.954   3.811  11.219
 3326SOL    HW210731   0.959   3.768  11.376
 3327SOL     OW10732   1.726   3.859  11.695
 3327SOL    HW110733   1.799   3.842  11.628
 3327SOL    HW210734   1.695   3.772  11.733
 3328SOL     OW10735   1.841   3.899  12.135
 3328SOL    HW110736   1.880   3.814  12.099
 3328SOL    HW210737   1.743   3.901  12.116
 3329SOL     OW10738   0.672   3.927  12.661
 3329SOL    HW110739   0.762   3.911  12.621
 3329SOL    HW210740   0.680   3.932  12.760
 3330SOL     OW10741   0.075   4.069  11.205
 3330SOL    HW110742  -0.017   4.041  11.176
 3330SOL    HW210743   0.106   4.146  11.149
 3331SOL     OW10744   0.072   3.890  11.490
 3331SOL    HW110745   0.055   3.973  11.436
 3331SOL    HW210746   0.162   3.853  11.468
 3332SOL     OW10747   1.225   4.049  11.621
 3332SOL    HW110748   1.290   3.975  11.610
 3332SOL    HW210749   1.245   4.099  11.705
 3333SOL     OW10750   1.777   4.066  12.814
 3333SOL    HW110751   1.760   4.097  12.720
 3333SOL    HW210752   1.693   4.029  12.852
 3334SOL     OW10753   1.824   3.916  12.399
 3334SOL    HW110754   1.820   3.826  12.443
 3334SOL    HW210755   1.827   3.905  12.300
 3335SOL     OW10756   1.424   3.938  12.284
 3335SOL    HW110757   1.476   3.873  12.339
 3335SOL    HW210758   1.375   4.001  12.345
 3336SOL     OW10759   1.001   3.758  12.326
 3336SOL    HW110760   0.938   3.686  12.295
 3336SOL    HW210761   1.094   3.722  12.326
 3337SOL     OW10762   1.352   3.776  11.340
 3337SOL    HW110763   1.387   3.735  11.256
 3337SOL    HW210764   1.262   3.738  11.360
 3338SOL     OW10765   1.300   4.177  11.863
 3338SOL    HW110766   1.241   4.257  11.867
 3338SOL    HW210767   1.315   4.142  11.956
 3339SOL     OW10768   1.593   3.945  12.054
 3339SOL    HW110769   1.509   3.944  12.108
 3339SOL    HW210770   1.595   4.028  11.998
 3340SOL     OW10771   0.019   4.092  13.681
 3340SOL    HW110772  -0.063   4.135  13.720
 3340SOL    HW210773  -0.009   4.019  13.618
 3341SOL     OW10774   1.755   4.331  13.265
 3341SOL    HW110775   1.743   4.318  13.166
 3341SOL    HW210776   1.725   4.250  13.314
 3342SOL     OW10777   1.603   4.171  13.771
 3342SOL    HW110778   1.529   4.217  13.721
 3342SOL    HW210779   1.654   4.239  13.824
 3343SOL     OW10780   0.809   3.728  13.536
 3343SOL    HW110781   0.849   3.819  13.527
 3343SOL    HW210782   0.709   3.736  13.542
 3344SOL     OW10783   1.400   3.831  13.460
 3344SOL    HW110784   1.376   3.794  13.370
 3344SOL    HW210785   1.499   3.847  13.464
 3345SOL     OW10786   0.614   3.846  13.151
 3345SOL    HW110787   0.712   3.824  13.158
 3345SOL    HW210788   0.583   3.829  13.058
 3346SOL     OW10789   0.539   3.788  13.546
 3346SOL    HW110790   0.458   3.789  13.604
 3346SOL    HW210791   0.542   3.871  13.491
 3347SOL     OW10792   0.297   3.759  13.205
 3347SOL    HW110793   0.346   3.843  13.184
 3347SOL    HW210794   0.359   3.694  13.250
 3348SOL     OW10795   1.017   3.763  13.787
 3348SOL    HW110796   0.945   3.768  13.718
 3348SOL    HW210797   0.993   3.694  13.856
 3349SOL     OW10798   1.540   3.998  13.159
 3349SOL    HW110799   1.479   3.923  13.182
 3349SOL    HW210800   1.562   4.050  13.242
 3350SOL     OW10801   0.903   3.810  13.167
 3350SOL    HW110802   0.954   3.811  13.081
 3350SOL    HW210803   0.959   3.768  13.238
 3351SOL     OW10804   1.726   3.859  13.557
 3351SOL    HW110805   1.799   3.842  13.490
 3351SOL    HW210806   1.695   3.772  13.595
 3352SOL     OW10807   1.841   3.899  13.997
 3352SOL    HW110808   1.880   3.814  13.961
 3352SOL    HW210809   1.743   3.901  13.978
 3353SOL     OW10810   0.075   4.069  13.067
 3353SOL    HW110811  -0.017   4.041  13.038
 3353SOL    HW210812   0.106   4.146  13.011
 3354SOL     OW10813   0.072   3.890  13.352
 3354SOL    HW110814   0.055   3.973  13.298
 3354SOL    HW210815   0.162   3.853  13.330
 3355SOL     OW10816   1.225   4.049  13.483
 3355SOL    HW110817   1.290   3.975  13.472
 3355SOL    HW210818   1.245   4.099  13.567
 3356SOL     OW10819   1.352   3.776  13.202
 3356SOL    HW110820   1.387   3.735  13.118
 3356SOL    HW210821   1.262   3.738  13.222
 3357SOL     OW10822   1.300   4.177  13.725
 3357SOL    HW110823   1.241   4.257  13.729
 3357SOL    HW210824   1.315   4.142  13.818
 3358SOL     OW10825   2.092   0.628   0.113
 3358SOL    HW110826   1.999   0.626   0.150
 3358SOL    HW210827   2.093   0.589   0.021
 3359SOL     OW10828   2.087   0.275   0.996
 3359SOL    HW110829   2.122   0.258   1.088
 3359SOL    HW210830   1.999   0.230   0.984
 3360SOL     OW10831   1.881   0.368   0.647
 3360SOL    HW110832   1.799   0.411   0.686
 3360SOL    HW210833   1.853   0.295   0.584
 3361SOL     OW10834   2.431   1.275   1.165
 3361SOL    HW110835   2.338   1.268   1.128
 3361SOL    HW210836   2.442   1.364   1.209
 3362SOL     OW10837   3.417   1.511   0.703
 3362SOL    HW110838   3.360   1.495   0.784
 3362SOL    HW210839   3.358   1.521   0.623
 3363SOL     OW10840   2.997   0.703   0.717
 3363SOL    HW110841   3.054   0.781   0.692
 3363SOL    HW210842   2.937   0.729   0.793
 3364SOL     OW10843   3.617   0.607   0.231
 3364SOL    HW110844   3.605   0.594   0.132
 3364SOL    HW210845   3.587   0.526   0.280
 3365SOL     OW10846   2.630   1.144   1.023
 3365SOL    HW110847   2.552   1.161   1.083
 3365SOL    HW210848   2.664   1.231   0.987
 3366SOL     OW10849   2.712   0.798   1.823
 3366SOL    HW110850   2.708   0.874   1.888
 3366SOL    HW210851   2.734   0.834   1.732
 3367SOL     OW10852   2.547   1.012   0.665
 3367SOL    HW110853   2.616   0.996   0.735
 3367SOL    HW210854   2.474   1.069   0.703
 3368SOL     OW10855   2.548   1.161   1.803
 3368SOL    HW110856   2.608   1.240   1.817
 3368SOL    HW210857   2.462   1.192   1.762
 3369SOL     OW10858   2.197   1.435   1.061
 3369SOL    HW110859   2.119   1.404   1.008
 3369SOL    HW210860   2.255   1.493   1.004
 3370SOL     OW10861   3.322   1.505   1.339
 3370SOL    HW110862   3.346   1.599   1.365
 3370SOL    HW210863   3.306   1.451   1.421
 3371SOL     OW10864   2.300   0.392   1.499
 3371SOL    HW110865   2.382   0.336   1.508
 3371SOL    HW210866   2.219   0.334   1.503
 3372SOL     OW10867   3.465   0.447   0.737
 3372SOL    HW110868   3.391   0.493   0.687
 3372SOL    HW210869   3.516   0.515   0.790
 3373SOL     OW10870   2.093   1.713   0.483
 3373SOL    HW110871   2.127   1.790   0.537
 3373SOL    HW210872   2.137   1.713   0.393
 3374SOL     OW10873   2.989   1.341   1.690
 3374SOL    HW110874   3.036   1.341   1.778
 3374SOL    HW210875   2.941   1.254   1.679
 3375SOL     OW10876   2.092   1.434   0.538
 3375SOL    HW110877   2.066   1.530   0.538
 3375SOL    HW210878   2.021   1.380   0.583
 3376SOL     OW10879   2.102   1.091   0.886
 3376SOL    HW110880   2.116   1.007   0.938
 3376SOL    HW210881   2.047   1.155   0.941
 3377SOL     OW10882   2.482   1.786   1.439
 3377SOL    HW110883   2.390   1.769   1.474
 3377SOL    HW210884   2.510   1.878   1.465
 3378SOL     OW10885   2.468   0.964   0.123
 3378SOL    HW110886   2.475   1.048   0.069
 3378SOL    HW210887   2.514   0.977   0.211
 3379SOL     OW10888   3.456   0.114   1.480
 3379SOL    HW110889   3.438   0.181   1.408
 3379SOL    HW210890   3.453   0.160   1.569
 3380SOL     OW10891   1.984   0.643   0.563
 3380SOL    HW110892   1.939   0.555   0.580
 3380SOL    HW210893   1.983   0.697   0.647
 3381SOL     OW10894   3.704   1.767   0.359
 3381SOL    HW110895   3.758   1.738   0.439
 3381SOL    HW210896   3.734   1.857   0.330
 3382SOL     OW10897   1.889   1.596   0.117
 3382SOL    HW110898   1.870   1.500   0.138
 3382SOL    HW210899   1.856   1.654   0.192
 3383SOL     OW10900   3.551   0.922   0.612
 3383SOL    HW110901   3.646   0.893   0.620
 3383SOL    HW210902   3.543   0.987   0.537
 3384SOL     OW10903   3.503   1.108   0.432
 3384SOL    HW110904   3.589   1.110   0.380
 3384SOL    HW210905   3.517   1.155   0.520
 3385SOL     OW10906   1.975   0.737   1.597
 3385SOL    HW110907   2.063   0.724   1.642
 3385SOL    HW210908   1.962   0.834   1.575
 3386SOL     OW10909   2.475   1.365   0.726
 3386SOL    HW110910   2.426   1.278   0.735
 3386SOL    HW210911   2.452   1.408   0.639
 3387SOL     OW10912   3.155   1.228   1.423
 3387SOL    HW110913   3.192   1.155   1.365
 3387SOL    HW210914   3.207   1.233   1.508
 3388SOL     OW10915   2.671   0.004   0.502
 3388SOL    HW110916   2.711   0.095   0.493
 3388SOL    HW210917   2.571   0.012   0.508
 3389SOL     OW10918   2.059   0.976   1.264
 3389SOL    HW110919   2.148   0.931   1.250
 3389SOL    HW210920   1.986   0.911   1.245
 3390SOL     OW10921   3.387   0.999   0.190
 3390SOL    HW110922   3.324   0.923   0.203
 3390SOL    HW210923   3.435   1.017   0.276
 3391SOL     OW10924   3.049   1.792   1.616
 3391SOL    HW110925   3.073   1.852   1.540
 3391SOL    HW210926   3.056   1.697   1.586
 3392SOL     OW10927   2.179   0.251   1.801
 3392SOL    HW110928   2.250   0.322   1.807
 3392SOL    HW210929   2.091   0.290   1.829
 3393SOL     OW10930   3.328   1.417   0.953
 3393SOL    HW110931   3.269   1.423   1.033
 3393SOL    HW210932   3.313   1.329   0.907
 3394SOL     OW10933   3.529   1.714   0.572
 3394SOL    HW110934   3.488   1.691   0.484
 3394SOL    HW210935   3.511   1.640   0.637
 3395SOL     OW10936   2.460   0.729   0.270
 3395SOL    HW110937   2.484   0.798   0.202
 3395SOL    HW210938   2.382   0.762   0.324
 3396SOL     OW10939   3.143   0.345   0.944
 3396SOL    HW110940   3.057   0.295   0.931
 3396SOL    HW210941   3.205   0.291   1.000
 3397SOL     OW10942   3.438   1.662   0.307
 3397SOL    HW110943   3.527   1.708   0.310
 3397SOL    HW210944   3.417   1.638   0.212
 3398SOL     OW10945   2.669   0.605   1.465
 3398SOL    HW110946   2.622   0.602   1.554
 3398SOL    HW210947   2.618   0.550   1.399
 3399SOL     OW10948   3.256   0.469   1.674
 3399SOL    HW110949   3.236   0.512   1.762
 3399SOL    HW210950   3.334   0.407   1.683
 3400SOL     OW10951   2.835   0.890   1.572
 3400SOL    HW110952   2.881   0.806   1.543
 3400SOL    HW210953   2.779   0.924   1.497
 3401SOL     OW10954   2.853   0.410   1.242
 3401SOL    HW110955   2.776   0.444   1.296
 3401SOL    HW210956   2.819   0.359   1.163
 3402SOL     OW10957   2.903   0.701   0.429
 3402SOL    HW110958   2.929   0.697   0.525
 3402SOL    HW210959   2.818   0.650   0.415
 3403SOL     OW10960   1.938   0.811   0.789
 3403SOL    HW110961   2.037   0.799   0.798
 3403SOL    HW210962   1.914   0.906   0.810
 3404SOL     OW10963   2.727   0.348   0.195
 3404SOL    HW110964   2.786   0.411   0.146
 3404SOL    HW210965   2.746   0.254   0.166
 3405SOL     OW10966   3.581   0.585   1.831
 3405SOL    HW110967   3.555   0.674   1.795
 3405SOL    HW210968   3.579   0.517   1.758
 3406SOL     OW10969   3.224   1.144   0.545
 3406SOL    HW110970   3.307   1.115   0.497
 3406SOL    HW210971   3.175   1.211   0.489
 3407SOL     OW10972   2.412   0.196   0.885
 3407SOL    HW110973   2.407   0.191   0.985
 3407SOL    HW210974   2.414   0.292   0.856
 3408SOL     OW10975   2.870   1.456   0.477
 3408SOL    HW110976   2.824   1.528   0.425
 3408SOL    HW210977   2.866   1.476   0.575
 3409SOL     OW10978   2.213   1.801   0.853
 3409SOL    HW110979   2.263   1.715   0.859
 3409SOL    HW210980   2.278   1.878   0.850
 3410SOL     OW10981   3.657   1.066   0.873
 3410SOL    HW110982   3.595   1.051   0.797
 3410SOL    HW210983   3.605   1.077   0.958
 3411SOL     OW10984   3.089   1.550   1.506
 3411SOL    HW110985   3.095   1.473   1.570
 3411SOL    HW210986   3.037   1.524   1.426
 3412SOL     OW10987   2.183   0.943   0.242
 3412SOL    HW110988   2.265   0.982   0.200
 3412SOL    HW210989   2.156   0.861   0.193
 3413SOL     OW10990   3.320   0.735   0.728
 3413SOL    HW110991   3.315   0.670   0.803
 3413SOL    HW210992   3.400   0.794   0.741
 3414SOL     OW10993   2.323   1.266   1.727
 3414SOL    HW110994   2.273   1.267   1.641
 3414SOL    HW210995   2.260   1.248   1.803
 3415SOL     OW10996   2.973   1.776   0.237
 3415SOL    HW110997   2.913   1.714   0.287
 3415SOL    HW210998   3.004   1.732   0.152
 3416SOL     OW10999   2.064   0.285   1.498
 3416SOL    HW111000   1.984   0.345   1.485
 3416SOL    HW211001   2.054   0.236   1.584
 3417SOL     OW11002   3.494   1.377   0.081
 3417SOL    HW111003   3.462   1.471   0.071
 3417SOL    HW211004   3.418   1.314   0.069
 3418SOL     OW11005   2.326   1.743   0.323
 3418SOL    HW111006   2.359   1.782   0.409
 3418SOL    HW211007   2.402   1.736   0.258
 3419SOL     OW11008   3.262   0.107   0.426
 3419SOL    HW111009   3.238   0.070   0.336
 3419SOL    HW211010   3.361   0.123   0.430
 3420SOL     OW11011   2.111   1.785   1.241
 3420SOL    HW111012   2.168   1.720   1.291
 3420SOL    HW211013   2.095   1.752   1.148
 3421SOL     OW11014   2.802   1.698   0.904
 3421SOL    HW111015   2.882   1.641   0.925
 3421SOL    HW211016   2.753   1.658   0.827
 3422SOL     OW11017   2.244   0.700   0.480
 3422SOL    HW111018   2.289   0.610   0.477
 3422SOL    HW211019   2.150   0.689   0.513
 3423SOL     OW11020   3.409   0.222   1.729
 3423SOL    HW111021   3.404   0.259   1.821
 3423SOL    HW211022   3.337   0.153   1.717
 3424SOL     OW11023   2.476   0.122   0.117
 3424SOL    HW111024   2.574   0.100   0.124
 3424SOL    HW211025   2.445   0.105   0.024
 3425SOL     OW11026   2.643   0.264   1.749
 3425SOL    HW111027   2.710   0.203   1.792
 3425SOL    HW211028   2.570   0.283   1.814
 3426SOL     OW11029   2.750   1.514   1.195
 3426SOL    HW111030   2.727   1.489   1.101
 3426SOL    HW211031   2.811   1.445   1.234
 3427SOL     OW11032   3.213   0.590   1.433
 3427SOL    HW111033   3.241   0.547   1.518
 3427SOL    HW211034   3.238   0.686   1.434
 3428SOL     OW11035   2.665   1.402   0.924
 3428SOL    HW111036   2.755   1.416   0.882
 3428SOL    HW211037   2.594   1.404   0.853
 3429SOL     OW11038   2.784   0.503   0.899
 3429SOL    HW111039   2.759   0.494   0.803
 3429SOL    HW211040   2.832   0.421   0.930
 3430SOL     OW11041   2.401   0.064   0.512
 3430SOL    HW111042   2.320   0.065   0.570
 3430SOL    HW211043   2.404   0.147   0.457
 3431SOL     OW11044   3.296   1.188   0.041
 3431SOL    HW111045   3.328   1.112   0.098
 3431SOL    HW211046   3.204   1.215   0.071
 3432SOL     OW11047   2.159   0.035   0.171
 3432SOL    HW111048   2.208   0.119   0.150
 3432SOL    HW211049   2.221  -0.030   0.216
 3433SOL     OW11050   2.797   0.236   0.480
 3433SOL    HW111051   2.749   0.277   0.402
 3433SOL    HW211052   2.896   0.234   0.461
 3434SOL     OW11053   2.938   0.683   1.464
 3434SOL    HW111054   2.858   0.622   1.467
 3434SOL    HW211055   3.019   0.630   1.440
 3435SOL     OW11056   3.089   1.570   0.793
 3435SOL    HW111057   3.110   1.644   0.728
 3435SOL    HW211058   3.157   1.570   0.866
 3436SOL     OW11059   2.321   1.152   0.741
 3436SOL    HW111060   2.250   1.125   0.806
 3436SOL    HW211061   2.295   1.124   0.648
 3437SOL     OW11062   3.133   1.797   0.591
 3437SOL    HW111063   3.177   1.861   0.527
 3437SOL    HW211064   3.083   1.849   0.661
 3438SOL     OW11065   2.894   0.549   0.016
 3438SOL    HW111066   2.853   0.631  -0.023
 3438SOL    HW211067   2.958   0.575   0.089
 3439SOL     OW11068   1.940   0.556   1.386
 3439SOL    HW111069   2.032   0.555   1.345
 3439SOL    HW211070   1.934   0.630   1.453
 3440SOL     OW11071   2.423   0.222   1.147
 3440SOL    HW111072   2.461   0.138   1.184
 3440SOL    HW211073   2.335   0.241   1.191
 3441SOL     OW11074   2.728   0.454   0.642
 3441SOL    HW111075   2.696   0.526   0.580
 3441SOL    HW211076   2.752   0.373   0.589
 3442SOL     OW11077   2.879   0.039   0.753
 3442SOL    HW111078   2.807   0.044   0.684
 3442SOL    HW211079   2.855  -0.030   0.822
 3443SOL     OW11080   3.291   1.173   0.867
 3443SOL    HW111081   3.236   1.089   0.860
 3443SOL    HW211082   3.317   1.202   0.775
 3444SOL     OW11083   3.328   0.590   0.992
 3444SOL    HW111084   3.298   0.495   0.999
 3444SOL    HW211085   3.401   0.606   1.058
 3445SOL     OW11086   3.719   0.833   0.377
 3445SOL    HW111087   3.761   0.769   0.441
 3445SOL    HW211088   3.681   0.782   0.299
 3446SOL     OW11089   2.350   1.385   0.174
 3446SOL    HW111090   2.263   1.370   0.221
 3446SOL    HW211091   2.333   1.411   0.079
 3447SOL     OW11092   3.526   1.280   0.657
 3447SOL    HW111093   3.625   1.288   0.671
 3447SOL    HW211094   3.481   1.364   0.688
 3448SOL     OW11095   3.252   0.575   0.078
 3448SOL    HW111096   3.198   0.554   0.159
 3448SOL    HW211097   3.343   0.534   0.087
 3449SOL     OW11098   2.389   0.256   0.328
 3449SOL    HW111099   2.416   0.197   0.253
 3449SOL    HW211100   2.389   0.351   0.297
 3450SOL     OW11101   3.616   1.223   1.588
 3450SOL    HW111102   3.707   1.184   1.575
 3450SOL    HW211103   3.624   1.319   1.612
 3451SOL     OW11104   2.926   1.347   1.340
 3451SOL    HW111105   2.846   1.324   1.395
 3451SOL    HW211106   3.009   1.321   1.389
 3452SOL     OW11107   3.454   1.629   1.625
 3452SOL    HW111108   3.481   1.663   1.535
 3452SOL    HW211109   3.533   1.591   1.671
 3453SOL     OW11110   2.973   1.195   1.100
 3453SOL    HW111111   2.933   1.239   1.181
 3453SOL    HW211112   2.932   1.232   1.017
 3454SOL     OW11113   3.500   1.099   1.079
 3454SOL    HW111114   3.505   1.180   1.138
 3454SOL    HW211115   3.414   1.101   1.028
 3455SOL     OW11116   2.777   0.089   1.402
 3455SOL    HW111117   2.802   0.069   1.307
 3455SOL    HW211118   2.849   0.145   1.444
 3456SOL     OW11119   2.842   1.116   1.719
 3456SOL    HW111120   2.743   1.122   1.729
 3456SOL    HW211121   2.865   1.036   1.663
 3457SOL     OW11122   2.567   1.050   0.368
 3457SOL    HW111123   2.553   1.057   0.467
 3457SOL    HW211124   2.651   0.999   0.350
 3458SOL     OW11125   2.272   0.813   1.251
 3458SOL    HW111126   2.358   0.825   1.301
 3458SOL    HW211127   2.230   0.726   1.278
 3459SOL     OW11128   3.136   0.386   1.262
 3459SOL    HW111129   3.157   0.460   1.326
 3459SOL    HW211130   3.047   0.403   1.219
 3460SOL     OW11131   2.229   1.100   0.501
 3460SOL    HW111132   2.222   1.183   0.445
 3460SOL    HW211133   2.233   1.020   0.441
 3461SOL     OW11134   2.428   0.537   0.865
 3461SOL    HW111135   2.440   0.603   0.791
 3461SOL    HW211136   2.474   0.571   0.948
 3462SOL     OW11137   3.114   1.348   0.388
 3462SOL    HW111138   3.164   1.425   0.428
 3462SOL    HW211139   3.019   1.350   0.420
 3463SOL     OW11140   3.134   1.445   1.142
 3463SOL    HW111141   3.181   1.458   1.229
 3463SOL    HW211142   3.068   1.371   1.151
 3464SOL     OW11143   3.444   0.639   0.472
 3464SOL    HW111144   3.413   0.700   0.545
 3464SOL    HW211145   3.494   0.691   0.403
 3465SOL     OW11146   2.216   1.510   1.329
 3465SOL    HW111147   2.195   1.466   1.242
 3465SOL    HW211148   2.313   1.536   1.332
 3466SOL     OW11149   2.264   0.751   1.598
 3466SOL    HW111150   2.332   0.806   1.551
 3466SOL    HW211151   2.304   0.663   1.625
 3467SOL     OW11152   3.449   0.779   1.670
 3467SOL    HW111153   3.357   0.817   1.665
 3467SOL    HW211154   3.509   0.826   1.605
 3468SOL     OW11155   2.875   0.105   1.770
 3468SOL    HW111156   2.881   0.190   1.718
 3468SOL    HW211157   2.907   0.029   1.713
 3469SOL     OW11158   2.366   0.050   1.740
 3469SOL    HW111159   2.324  -0.007   1.670
 3469SOL    HW211160   2.300   0.119   1.772
 3470SOL     OW11161   2.435   0.870   1.029
 3470SOL    HW111162   2.479   0.959   1.020
 3470SOL    HW211163   2.372   0.870   1.106
 3471SOL     OW11164   3.222   0.862   1.045
 3471SOL    HW111165   3.147   0.862   0.979
 3471SOL    HW211166   3.259   0.770   1.054
 3472SOL     OW11167   3.071   0.525   0.275
 3472SOL    HW111168   3.084   0.441   0.329
 3472SOL    HW211169   3.042   0.599   0.335
 3473SOL     OW11170   2.169   0.213   1.231
 3473SOL    HW111171   2.146   0.250   1.321
 3473SOL    HW211172   2.139   0.118   1.225
 3474SOL     OW11173   1.899   1.310   1.282
 3474SOL    HW111174   1.952   1.261   1.350
 3474SOL    HW211175   1.921   1.408   1.287
 3475SOL     OW11176   2.594   0.634   1.064
 3475SOL    HW111177   2.653   0.608   0.988
 3475SOL    HW211178   2.566   0.730   1.053
 3476SOL     OW11179   3.590   0.935   1.854
 3476SOL    HW111180   3.544   0.928   1.765
 3476SOL    HW211181   3.528   0.979   1.920
 3477SOL     OW11182   2.169   0.063   0.618
 3477SOL    HW111183   2.158   0.157   0.651
 3477SOL    HW211184   2.164   0.000   0.695
 3478SOL     OW11185   3.484   0.367   0.374
 3478SOL    HW111186   3.486   0.291   0.438
 3478SOL    HW211187   3.436   0.444   0.414
 3479SOL     OW11188   2.885   0.766   0.966
 3479SOL    HW111189   2.900   0.787   1.062
 3479SOL    HW211190   2.855   0.671   0.957
 3480SOL     OW11191   2.842   1.573   1.700
 3480SOL    HW111192   2.822   1.617   1.612
 3480SOL    HW211193   2.881   1.482   1.684
 3481SOL     OW11194   3.721   1.518   1.605
 3481SOL    HW111195   3.735   1.545   1.510
 3481SOL    HW211196   3.804   1.540   1.658
 3482SOL     OW11197   2.212   0.898   1.804
 3482SOL    HW111198   2.288   0.942   1.852
 3482SOL    HW211199   2.247   0.851   1.722
 3483SOL     OW11200   3.402   0.274   0.125
 3483SOL    HW111201   3.341   0.199   0.148
 3483SOL    HW211202   3.424   0.326   0.208
 3484SOL     OW11203   3.165   0.838   0.042
 3484SOL    HW111204   3.199   0.745   0.057
 3484SOL    HW211205   3.183   0.865  -0.053
 3485SOL     OW11206   2.930   1.333   0.849
 3485SOL    HW111207   2.937   1.249   0.794
 3485SOL    HW211208   2.992   1.402   0.813
 3486SOL     OW11209   2.181   0.810   0.949
 3486SOL    HW111210   2.274   0.846   0.954
 3486SOL    HW211211   2.175   0.725   1.001
 3487SOL     OW11212   2.201   0.509   1.006
 3487SOL    HW111213   2.149   0.426   0.989
 3487SOL    HW211214   2.278   0.514   0.942
 3488SOL     OW11215   3.000   0.380   1.678
 3488SOL    HW111216   2.955   0.443   1.742
 3488SOL    HW211217   3.093   0.411   1.661
 3489SOL     OW11218   3.022   0.207   1.477
 3489SOL    HW111219   3.022   0.271   1.554
 3489SOL    HW211220   3.050   0.255   1.394
 3490SOL     OW11221   1.870   1.326   0.200
 3490SOL    HW111222   1.777   1.347   0.169
 3490SOL    HW211223   1.880   1.227   0.213
 3491SOL     OW11224   2.366   1.568   0.910
 3491SOL    HW111225   2.432   1.642   0.919
 3491SOL    HW211226   2.410   1.489   0.868
 3492SOL     OW11227   2.864   0.796   1.238
 3492SOL    HW111228   2.905   0.764   1.324
 3492SOL    HW211229   2.768   0.769   1.235
 3493SOL     OW11230   1.902   0.544   1.114
 3493SOL    HW111231   1.987   0.511   1.073
 3493SOL    HW211232   1.915   0.559   1.212
 3494SOL     OW11233   2.051   0.520   1.722
 3494SOL    HW111234   2.110   0.480   1.652
 3494SOL    HW211235   1.993   0.591   1.681
 3495SOL     OW11236   3.231   0.950   1.660
 3495SOL    HW111237   3.270   1.039   1.680
 3495SOL    HW211238   3.241   0.930   1.563
 3496SOL     OW11239   2.677   0.572   0.325
 3496SOL    HW111240   2.684   0.483   0.279
 3496SOL    HW211241   2.583   0.606   0.317
 3497SOL     OW11242   3.519   0.604   1.206
 3497SOL    HW111243   3.481   0.535   1.268
 3497SOL    HW211244   3.601   0.568   1.162
 3498SOL     OW11245   2.114   1.564   1.744
 3498SOL    HW111246   2.084   1.621   1.820
 3498SOL    HW211247   2.107   1.467   1.770
 3499SOL     OW11248   2.533   0.464   1.269
 3499SOL    HW111249   2.499   0.375   1.239
 3499SOL    HW211250   2.559   0.518   1.189
 3500SOL     OW11251   2.792   1.678   1.465
 3500SOL    HW111252   2.768   1.660   1.370
 3500SOL    HW211253   2.822   1.772   1.475
 3501SOL     OW11254   2.335   0.500   0.191
 3501SOL    HW111255   2.396   0.580   0.195
 3501SOL    HW211256   2.240   0.531   0.198
 3502SOL     OW11257   2.021   1.137   1.466
 3502SOL    HW111258   2.043   1.076   1.542
 3502SOL    HW211259   2.031   1.088   1.380
 3503SOL     OW11260   3.209   1.059   1.234
 3503SOL    HW111261   3.233   0.996   1.160
 3503SOL    HW211262   3.119   1.099   1.216
 3504SOL     OW11263   3.164   0.855   0.309
 3504SOL    HW111264   3.078   0.824   0.351
 3504SOL    HW211265   3.160   0.841   0.210
 3505SOL     OW11266   3.621   1.747   1.154
 3505SOL    HW111267   3.682   1.777   1.081
 3505SOL    HW211268   3.583   1.658   1.132
 3506SOL     OW11269   3.114   1.731   1.128
 3506SOL    HW111270   3.198   1.736   1.074
 3506SOL    HW211271   3.091   1.635   1.146
 3507SOL     OW11272   1.945   1.258   1.022
 3507SOL    HW111273   1.940   1.257   1.122
 3507SOL    HW211274   1.862   1.217   0.984
 3508SOL     OW11275   2.550   1.662   1.716
 3508SOL    HW111276   2.494   1.743   1.725
 3508SOL    HW211277   2.602   1.666   1.630
 3509SOL     OW11278   2.765   0.086   0.133
 3509SOL    HW111279   2.816   0.087   0.047
 3509SOL    HW211280   2.821   0.044   0.204
 3510SOL     OW11281   3.588   0.135   0.523
 3510SOL    HW111282   3.661   0.118   0.456
 3510SOL    HW211283   3.557   0.048   0.561
 3511SOL     OW11284   3.250   1.573   0.477
 3511SOL    HW111285   3.317   1.585   0.403
 3511SOL    HW211286   3.210   1.662   0.500
 3512SOL     OW11287   3.142   0.927   0.672
 3512SOL    HW111288   3.202   0.846   0.674
 3512SOL    HW211289   3.182   0.996   0.612
 3513SOL     OW11290   2.692   1.273   1.422
 3513SOL    HW111291   2.687   1.306   1.517
 3513SOL    HW211292   2.606   1.292   1.376
 3514SOL     OW11293   2.534   1.616   0.154
 3514SOL    HW111294   2.543   1.626   0.055
 3514SOL    HW211295   2.494   1.527   0.175
 3515SOL     OW11296   3.512   1.720   1.394
 3515SOL    HW111297   3.565   1.730   1.310
 3515SOL    HW211298   3.485   1.810   1.428
 3516SOL     OW11299   3.703   0.175   0.963
 3516SOL    HW111300   3.742   0.090   0.927
 3516SOL    HW211301   3.605   0.177   0.944
 3517SOL     OW11302   2.125   0.326   0.720
 3517SOL    HW111303   2.046   0.377   0.686
 3517SOL    HW211304   2.116   0.311   0.818
 3518SOL     OW11305   3.056   1.612   0.031
 3518SOL    HW111306   3.062   1.519   0.068
 3518SOL    HW211307   2.997   1.612  -0.049
 3519SOL     OW11308   2.684   1.002   1.372
 3519SOL    HW111309   2.724   1.001   1.280
 3519SOL    HW211310   2.694   1.094   1.412
 3520SOL     OW11311   2.778   0.910   0.291
 3520SOL    HW111312   2.841   0.948   0.223
 3520SOL    HW211313   2.818   0.827   0.330
 3521SOL     OW11314   3.366   1.607   0.044
 3521SOL    HW111315   3.274   1.644   0.051
 3521SOL    HW211316   3.404   1.627  -0.046
 3522SOL     OW11317   2.234   1.288   1.490
 3522SOL    HW111318   2.221   1.381   1.456
 3522SOL    HW211319   2.150   1.236   1.477
 3523SOL     OW11320   3.476   1.292   1.289
 3523SOL    HW111321   3.536   1.295   1.369
 3523SOL    HW211322   3.401   1.356   1.302
 3524SOL     OW11323   2.901   1.098   0.696
 3524SOL    HW111324   2.831   1.051   0.750
 3524SOL    HW211325   2.960   1.030   0.653
 3525SOL     OW11326   2.876   0.236   0.971
 3525SOL    HW111327   2.868   0.200   0.878
 3525SOL    HW211328   2.874   0.160   1.036
 3526SOL     OW11329   2.452   1.487   0.491
 3526SOL    HW111330   2.494   1.429   0.421
 3526SOL    HW211331   2.408   1.566   0.447
 3527SOL     OW11332   3.571   0.385   1.381
 3527SOL    HW111333   3.644   0.454   1.385
 3527SOL    HW211334   3.599   0.310   1.322
 3528SOL     OW11335   2.117   1.348   0.290
 3528SOL    HW111336   2.021   1.349   0.263
 3528SOL    HW211337   2.129   1.401   0.374
 3529SOL     OW11338   1.967   1.013   1.726
 3529SOL    HW111339   1.890   0.980   1.780
 3529SOL    HW211340   2.052   0.983   1.768
 3530SOL     OW11341   2.534   0.203   1.489
 3530SOL    HW111342   2.624   0.187   1.449
 3530SOL    HW211343   2.542   0.208   1.588
 3531SOL     OW11344   1.937   0.345   0.033
 3531SOL    HW111345   1.845   0.317   0.004
 3531SOL    HW211346   1.968   0.422  -0.023
 3532SOL     OW11347   3.302   0.856   1.398
 3532SOL    HW111348   3.245   0.908   1.335
 3532SOL    HW211349   3.398   0.868   1.374
 3533SOL     OW11350   1.934   0.166   0.318
 3533SOL    HW111351   1.917   0.249   0.264
 3533SOL    HW211352   2.024   0.129   0.296
 3534SOL     OW11353   3.045   1.335   0.119
 3534SOL    HW111354   2.946   1.324   0.121
 3534SOL    HW211355   3.079   1.350   0.212
 3535SOL     OW11356   2.475   0.842   1.431
 3535SOL    HW111357   2.531   0.923   1.414
 3535SOL    HW211358   2.534   0.762   1.434
 3536SOL     OW11359   3.355   1.767   0.959
 3536SOL    HW111360   3.388   1.831   0.890
 3536SOL    HW211361   3.421   1.761   1.034
 3537SOL     OW11362   2.578   0.565   1.708
 3537SOL    HW111363   2.597   0.630   1.782
 3537SOL    HW211364   2.638   0.485   1.717
 3538SOL     OW11365   3.312   1.220   1.633
 3538SOL    HW111366   3.303   1.210   1.732
 3538SOL    HW211367   3.408   1.213   1.607
 3539SOL     OW11368   2.252   1.741   1.560
 3539SOL    HW111369   2.161   1.782   1.558
 3539SOL    HW211370   2.245   1.647   1.592
 3540SOL     OW11371   3.536   0.883   1.254
 3540SOL    HW111372   3.509   0.794   1.217
 3540SOL    HW211373   3.537   0.951   1.181
 3541SOL     OW11374   3.087   0.325   0.449
 3541SOL    HW111375   3.152   0.251   0.438
 3541SOL    HW211376   3.107   0.375   0.533
 3542SOL     OW11377   2.456   0.745   0.652
 3542SOL    HW111378   2.506   0.830   0.633
 3542SOL    HW211379   2.368   0.747   0.604
 3543SOL     OW11380   3.639   0.342   1.642
 3543SOL    HW111381   3.622   0.373   1.548
 3543SOL    HW211382   3.555   0.305   1.680
 3544SOL     OW11383   3.592   0.934   1.517
 3544SOL    HW111384   3.630   1.025   1.532
 3544SOL    HW211385   3.584   0.917   1.418
 3545SOL     OW11386   2.721   1.374   0.016
 3545SOL    HW111387   2.675   1.389   0.104
 3545SOL    HW211388   2.765   1.459  -0.014
 3546SOL     OW11389   2.523   1.790   0.953
 3546SOL    HW111390   2.477   1.878   0.940
 3546SOL    HW211391   2.622   1.802   0.946
 3547SOL     OW11392   2.721   0.956   0.861
 3547SOL    HW111393   2.775   0.887   0.909
 3547SOL    HW211394   2.689   1.025   0.927
 3548SOL     OW11395   2.945   0.984   0.087
 3548SOL    HW111396   2.922   1.037   0.005
 3548SOL    HW211397   3.026   0.928   0.068
 3549SOL     OW11398   3.723   1.569   0.851
 3549SOL    HW111399   3.652   1.557   0.781
 3549SOL    HW211400   3.724   1.490   0.911
 3550SOL     OW11401   2.083   1.314   1.844
 3550SOL    HW111402   2.018   1.241   1.823
 3550SOL    HW211403   2.087   1.328   1.942
 3551SOL     OW11404   1.941   1.240   0.653
 3551SOL    HW111405   1.940   1.193   0.741
 3551SOL    HW211406   2.023   1.212   0.602
 3552SOL     OW11407   2.534   1.391   1.624
 3552SOL    HW111408   2.456   1.341   1.662
 3552SOL    HW211409   2.531   1.486   1.655
 3553SOL     OW11410   3.686   0.192   1.227
 3553SOL    HW111411   3.682   0.102   1.271
 3553SOL    HW211412   3.689   0.181   1.128
 3554SOL     OW11413   2.290   0.424   0.520
 3554SOL    HW111414   2.320   0.352   0.458
 3554SOL    HW211415   2.251   0.384   0.603
 3555SOL     OW11416   3.567   1.487   1.104
 3555SOL    HW111417   3.474   1.462   1.077
 3555SOL    HW211418   3.593   1.437   1.186
 3556SOL     OW11419   2.179   0.547   1.280
 3556SOL    HW111420   2.217   0.488   1.352
 3556SOL    HW211421   2.219   0.521   1.192
 3557SOL     OW11422   2.674   1.586   0.687
 3557SOL    HW111423   2.706   1.596   0.593
 3557SOL    HW211424   2.595   1.524   0.689
 3558SOL     OW11425   3.286   0.214   1.112
 3558SOL    HW111426   3.338   0.149   1.167
 3558SOL    HW211427   3.237   0.277   1.173
 3559SOL     OW11428   2.863   0.034   1.154
 3559SOL    HW111429   2.800  -0.038   1.123
 3559SOL    HW211430   2.956  -0.002   1.154
 3560SOL     OW11431   2.632   1.330   0.301
 3560SOL    HW111432   2.586   1.243   0.318
 3560SOL    HW211433   2.723   1.327   0.342
 3561SOL     OW11434   2.480   1.567   1.284
 3561SOL    HW111435   2.475   1.649   1.341
 3561SOL    HW211436   2.569   1.564   1.239
 3562SOL     OW11437   3.214   0.052   0.168
 3562SOL    HW111438   3.249   0.011   0.084
 3562SOL    HW211439   3.124   0.014   0.188
 3563SOL     OW11440   3.162   0.453   0.691
 3563SOL    HW111441   3.103   0.533   0.695
 3563SOL    HW211442   3.177   0.418   0.784
 3564SOL     OW11443   3.455   0.221   0.882
 3564SOL    HW111444   3.371   0.220   0.936
 3564SOL    HW211445   3.457   0.304   0.826
 3565SOL     OW11446   1.901   1.077   0.300
 3565SOL    HW111447   2.000   1.066   0.291
 3565SOL    HW211448   1.861   0.991   0.332
 3566SOL     OW11449   2.737   1.646   0.337
 3566SOL    HW111450   2.660   1.611   0.283
 3566SOL    HW211451   2.705   1.717   0.399
 3567SOL     OW11452   2.092   0.628   1.975
 3567SOL    HW111453   1.999   0.626   2.012
 3567SOL    HW211454   2.093   0.589   1.883
 3568SOL     OW11455   2.087   0.275   2.858
 3568SOL    HW111456   2.122   0.258   2.950
 3568SOL    HW211457   1.999   0.230   2.846
 3569SOL     OW11458   1.881   0.368   2.509
 3569SOL    HW111459   1.799   0.411   2.548
 3569SOL    HW211460   1.853   0.295   2.446
 3570SOL     OW11461   2.431   1.275   3.027
 3570SOL    HW111462   2.338   1.268   2.990
 3570SOL    HW211463   2.442   1.364   3.071
 3571SOL     OW11464   3.417   1.511   2.565
 3571SOL    HW111465   3.360   1.495   2.646
 3571SOL    HW211466   3.358   1.521   2.485
 3572SOL     OW11467   2.997   0.703   2.579
 3572SOL    HW111468   3.054   0.781   2.554
 3572SOL    HW211469   2.937   0.729   2.655
 3573SOL     OW11470   3.617   0.607   2.093
 3573SOL    HW111471   3.605   0.594   1.994
 3573SOL    HW211472   3.587   0.526   2.142
 3574SOL     OW11473   2.630   1.144   2.885
 3574SOL    HW111474   2.552   1.161   2.945
 3574SOL    HW211475   2.664   1.231   2.849
 3575SOL     OW11476   2.712   0.798   3.685
 3575SOL    HW111477   2.708   0.874   3.750
 3575SOL    HW211478   2.734   0.834   3.594
 3576SOL     OW11479   2.547   1.012   2.527
 3576SOL    HW111480   2.616   0.996   2.597
 3576SOL    HW211481   2.474   1.069   2.565
 3577SOL     OW11482   2.548   1.161   3.665
 3577SOL    HW111483   2.608   1.240   3.679
 3577SOL    HW211484   2.462   1.192   3.624
 3578SOL     OW11485   2.197   1.435   2.923
 3578SOL    HW111486   2.119   1.404   2.870
 3578SOL    HW211487   2.255   1.493   2.866
 3579SOL     OW11488   3.322   1.505   3.201
 3579SOL    HW111489   3.346   1.599   3.227
 3579SOL    HW211490   3.306   1.451   3.283
 3580SOL     OW11491   2.300   0.392   3.361
 3580SOL    HW111492   2.382   0.336   3.370
 3580SOL    HW211493   2.219   0.334   3.365
 3581SOL     OW11494   3.465   0.447   2.599
 3581SOL    HW111495   3.391   0.493   2.549
 3581SOL    HW211496   3.516   0.515   2.652
 3582SOL     OW11497   2.093   1.713   2.345
 3582SOL    HW111498   2.127   1.790   2.399
 3582SOL    HW211499   2.137   1.713   2.255
 3583SOL     OW11500   2.989   1.341   3.552
 3583SOL    HW111501   3.036   1.341   3.640
 3583SOL    HW211502   2.941   1.254   3.541
 3584SOL     OW11503   2.092   1.434   2.400
 3584SOL    HW111504   2.066   1.530   2.400
 3584SOL    HW211505   2.021   1.380   2.445
 3585SOL     OW11506   2.102   1.091   2.748
 3585SOL    HW111507   2.116   1.007   2.800
 3585SOL    HW211508   2.047   1.155   2.803
 3586SOL     OW11509   2.482   1.786   3.301
 3586SOL    HW111510   2.390   1.769   3.336
 3586SOL    HW211511   2.510   1.878   3.327
 3587SOL     OW11512   2.468   0.964   1.985
 3587SOL    HW111513   2.475   1.048   1.931
 3587SOL    HW211514   2.514   0.977   2.073
 3588SOL     OW11515   3.456   0.114   3.342
 3588SOL    HW111516   3.438   0.181   3.270
 3588SOL    HW211517   3.453   0.160   3.431
 3589SOL     OW11518   1.984   0.643   2.425
 3589SOL    HW111519   1.939   0.555   2.442
 3589SOL    HW211520   1.983   0.697   2.509
 3590SOL     OW11521   3.704   1.767   2.221
 3590SOL    HW111522   3.758   1.738   2.301
 3590SOL    HW211523   3.734   1.857   2.192
 3591SOL     OW11524   1.889   1.596   1.979
 3591SOL    HW111525   1.870   1.500   2.000
 3591SOL    HW211526   1.856   1.654   2.054
 3592SOL     OW11527   3.551   0.922   2.474
 3592SOL    HW111528   3.646   0.893   2.482
 3592SOL    HW211529   3.543   0.987   2.399
 3593SOL     OW11530   3.503   1.108   2.294
 3593SOL    HW111531   3.589   1.110   2.242
 3593SOL    HW211532   3.517   1.155   2.382
 3594SOL     OW11533   1.975   0.737   3.459
 3594SOL    HW111534   2.063   0.724   3.504
 3594SOL    HW211535   1.962   0.834   3.437
 3595SOL     OW11536   2.475   1.365   2.588
 3595SOL    HW111537   2.426   1.278   2.597
 3595SOL    HW211538   2.452   1.408   2.501
 3596SOL     OW11539   3.155   1.228   3.285
 3596SOL    HW111540   3.192   1.155   3.227
 3596SOL    HW211541   3.207   1.233   3.370
 3597SOL     OW11542   2.671   0.004   2.364
 3597SOL    HW111543   2.711   0.095   2.355
 3597SOL    HW211544   2.571   0.012   2.370
 3598SOL     OW11545   2.059   0.976   3.126
 3598SOL    HW111546   2.148   0.931   3.112
 3598SOL    HW211547   1.986   0.911   3.107
 3599SOL     OW11548   3.387   0.999   2.052
 3599SOL    HW111549   3.324   0.923   2.065
 3599SOL    HW211550   3.435   1.017   2.138
 3600SOL     OW11551   3.049   1.792   3.478
 3600SOL    HW111552   3.073   1.852   3.402
 3600SOL    HW211553   3.056   1.697   3.448
 3601SOL     OW11554   2.179   0.251   3.663
 3601SOL    HW111555   2.250   0.322   3.669
 3601SOL    HW211556   2.091   0.290   3.691
 3602SOL     OW11557   3.328   1.417   2.815
 3602SOL    HW111558   3.269   1.423   2.895
 3602SOL    HW211559   3.313   1.329   2.769
 3603SOL     OW11560   3.529   1.714   2.434
 3603SOL    HW111561   3.488   1.691   2.346
 3603SOL    HW211562   3.511   1.640   2.499
 3604SOL     OW11563   2.460   0.729   2.132
 3604SOL    HW111564   2.484   0.798   2.064
 3604SOL    HW211565   2.382   0.762   2.186
 3605SOL     OW11566   3.143   0.345   2.806
 3605SOL    HW111567   3.057   0.295   2.793
 3605SOL    HW211568   3.205   0.291   2.862
 3606SOL     OW11569   3.438   1.662   2.169
 3606SOL    HW111570   3.527   1.708   2.172
 3606SOL    HW211571   3.417   1.638   2.074
 3607SOL     OW11572   2.669   0.605   3.327
 3607SOL    HW111573   2.622   0.602   3.416
 3607SOL    HW211574   2.618   0.550   3.261
 3608SOL     OW11575   3.256   0.469   3.536
 3608SOL    HW111576   3.236   0.512   3.624
 3608SOL    HW211577   3.334   0.407   3.545
 3609SOL     OW11578   2.835   0.890   3.434
 3609SOL    HW111579   2.881   0.806   3.405
 3609SOL    HW211580   2.779   0.924   3.359
 3610SOL     OW11581   2.853   0.410   3.104
 3610SOL    HW111582   2.776   0.444   3.158
 3610SOL    HW211583   2.819   0.359   3.025
 3611SOL     OW11584   2.903   0.701   2.291
 3611SOL    HW111585   2.929   0.697   2.387
 3611SOL    HW211586   2.818   0.650   2.277
 3612SOL     OW11587   1.938   0.811   2.651
 3612SOL    HW111588   2.037   0.799   2.660
 3612SOL    HW211589   1.914   0.906   2.672
 3613SOL     OW11590   2.727   0.348   2.057
 3613SOL    HW111591   2.786   0.411   2.008
 3613SOL    HW211592   2.746   0.254   2.028
 3614SOL     OW11593   3.581   0.585   3.693
 3614SOL    HW111594   3.555   0.674   3.657
 3614SOL    HW211595   3.579   0.517   3.620
 3615SOL     OW11596   3.224   1.144   2.407
 3615SOL    HW111597   3.307   1.115   2.359
 3615SOL    HW211598   3.175   1.211   2.351
 3616SOL     OW11599   2.412   0.196   2.747
 3616SOL    HW111600   2.407   0.191   2.847
 3616SOL    HW211601   2.414   0.292   2.718
 3617SOL     OW11602   2.870   1.456   2.339
 3617SOL    HW111603   2.824   1.528   2.287
 3617SOL    HW211604   2.866   1.476   2.437
 3618SOL     OW11605   2.213   1.801   2.715
 3618SOL    HW111606   2.263   1.715   2.721
 3618SOL    HW211607   2.278   1.878   2.712
 3619SOL     OW11608   3.657   1.066   2.735
 3619SOL    HW111609   3.595   1.051   2.659
 3619SOL    HW211610   3.605   1.077   2.820
 3620SOL     OW11611   3.089   1.550   3.368
 3620SOL    HW111612   3.095   1.473   3.432
 3620SOL    HW211613   3.037   1.524   3.288
 3621SOL     OW11614   2.183   0.943   2.104
 3621SOL    HW111615   2.265   0.982   2.062
 3621SOL    HW211616   2.156   0.861   2.055
 3622SOL     OW11617   3.320   0.735   2.590
 3622SOL    HW111618   3.315   0.670   2.665
 3622SOL    HW211619   3.400   0.794   2.603
 3623SOL     OW11620   2.323   1.266   3.589
 3623SOL    HW111621   2.273   1.267   3.503
 3623SOL    HW211622   2.260   1.248   3.665
 3624SOL     OW11623   2.973   1.776   2.099
 3624SOL    HW111624   2.913   1.714   2.149
 3624SOL    HW211625   3.004   1.732   2.014
 3625SOL     OW11626   2.064   0.285   3.360
 3625SOL    HW111627   1.984   0.345   3.347
 3625SOL    HW211628   2.054   0.236   3.446
 3626SOL     OW11629   3.494   1.377   1.943
 3626SOL    HW111630   3.462   1.471   1.933
 3626SOL    HW211631   3.418   1.314   1.931
 3627SOL     OW11632   2.326   1.743   2.185
 3627SOL    HW111633   2.359   1.782   2.271
 3627SOL    HW211634   2.402   1.736   2.120
 3628SOL     OW11635   3.262   0.107   2.288
 3628SOL    HW111636   3.238   0.070   2.198
 3628SOL    HW211637   3.361   0.123   2.292
 3629SOL     OW11638   2.111   1.785   3.103
 3629SOL    HW111639   2.168   1.720   3.153
 3629SOL    HW211640   2.095   1.752   3.010
 3630SOL     OW11641   2.802   1.698   2.766
 3630SOL    HW111642   2.882   1.641   2.787
 3630SOL    HW211643   2.753   1.658   2.689
 3631SOL     OW11644   2.244   0.700   2.342
 3631SOL    HW111645   2.289   0.610   2.339
 3631SOL    HW211646   2.150   0.689   2.375
 3632SOL     OW11647   3.409   0.222   3.591
 3632SOL    HW111648   3.404   0.259   3.683
 3632SOL    HW211649   3.337   0.153   3.579
 3633SOL     OW11650   2.476   0.122   1.979
 3633SOL    HW111651   2.574   0.100   1.986
 3633SOL    HW211652   2.445   0.105   1.886
 3634SOL     OW11653   2.643   0.264   3.611
 3634SOL    HW111654   2.710   0.203   3.654
 3634SOL    HW211655   2.570   0.283   3.676
 3635SOL     OW11656   2.750   1.514   3.057
 3635SOL    HW111657   2.727   1.489   2.963
 3635SOL    HW211658   2.811   1.445   3.096
 3636SOL     OW11659   3.213   0.590   3.295
 3636SOL    HW111660   3.241   0.547   3.380
 3636SOL    HW211661   3.238   0.686   3.296
 3637SOL     OW11662   2.665   1.402   2.786
 3637SOL    HW111663   2.755   1.416   2.744
 3637SOL    HW211664   2.594   1.404   2.715
 3638SOL     OW11665   2.784   0.503   2.761
 3638SOL    HW111666   2.759   0.494   2.665
 3638SOL    HW211667   2.832   0.421   2.792
 3639SOL     OW11668   2.401   0.064   2.374
 3639SOL    HW111669   2.320   0.065   2.432
 3639SOL    HW211670   2.404   0.147   2.319
 3640SOL     OW11671   3.296   1.188   1.903
 3640SOL    HW111672   3.328   1.112   1.960
 3640SOL    HW211673   3.204   1.215   1.933
 3641SOL     OW11674   2.159   0.035   2.033
 3641SOL    HW111675   2.208   0.119   2.012
 3641SOL    HW211676   2.221  -0.030   2.078
 3642SOL     OW11677   2.797   0.236   2.342
 3642SOL    HW111678   2.749   0.277   2.264
 3642SOL    HW211679   2.896   0.234   2.323
 3643SOL     OW11680   2.938   0.683   3.326
 3643SOL    HW111681   2.858   0.622   3.329
 3643SOL    HW211682   3.019   0.630   3.302
 3644SOL     OW11683   3.089   1.570   2.655
 3644SOL    HW111684   3.110   1.644   2.590
 3644SOL    HW211685   3.157   1.570   2.728
 3645SOL     OW11686   2.321   1.152   2.603
 3645SOL    HW111687   2.250   1.125   2.668
 3645SOL    HW211688   2.295   1.124   2.510
 3646SOL     OW11689   3.133   1.797   2.453
 3646SOL    HW111690   3.177   1.861   2.389
 3646SOL    HW211691   3.083   1.849   2.523
 3647SOL     OW11692   2.894   0.549   1.878
 3647SOL    HW111693   2.853   0.631   1.839
 3647SOL    HW211694   2.958   0.575   1.951
 3648SOL     OW11695   1.940   0.556   3.248
 3648SOL    HW111696   2.032   0.555   3.207
 3648SOL    HW211697   1.934   0.630   3.315
 3649SOL     OW11698   2.423   0.222   3.009
 3649SOL    HW111699   2.461   0.138   3.046
 3649SOL    HW211700   2.335   0.241   3.053
 3650SOL     OW11701   2.728   0.454   2.504
 3650SOL    HW111702   2.696   0.526   2.442
 3650SOL    HW211703   2.752   0.373   2.451
 3651SOL     OW11704   2.879   0.039   2.615
 3651SOL    HW111705   2.807   0.044   2.546
 3651SOL    HW211706   2.855  -0.030   2.684
 3652SOL     OW11707   3.291   1.173   2.729
 3652SOL    HW111708   3.236   1.089   2.722
 3652SOL    HW211709   3.317   1.202   2.637
 3653SOL     OW11710   3.328   0.590   2.854
 3653SOL    HW111711   3.298   0.495   2.861
 3653SOL    HW211712   3.401   0.606   2.920
 3654SOL     OW11713   3.719   0.833   2.239
 3654SOL    HW111714   3.761   0.769   2.303
 3654SOL    HW211715   3.681   0.782   2.161
 3655SOL     OW11716   2.350   1.385   2.036
 3655SOL    HW111717   2.263   1.370   2.083
 3655SOL    HW211718   2.333   1.411   1.941
 3656SOL     OW11719   3.526   1.280   2.519
 3656SOL    HW111720   3.625   1.288   2.533
 3656SOL    HW211721   3.481   1.364   2.550
 3657SOL     OW11722   3.252   0.575   1.940
 3657SOL    HW111723   3.198   0.554   2.021
 3657SOL    HW211724   3.343   0.534   1.949
 3658SOL     OW11725   2.389   0.256   2.190
 3658SOL    HW111726   2.416   0.197   2.115
 3658SOL    HW211727   2.389   0.351   2.159
 3659SOL     OW11728   3.616   1.223   3.450
 3659SOL    HW111729   3.707   1.184   3.437
 3659SOL    HW211730   3.624   1.319   3.474
 3660SOL     OW11731   2.926   1.347   3.202
 3660SOL    HW111732   2.846   1.324   3.257
 3660SOL    HW211733   3.009   1.321   3.251
 3661SOL     OW11734   3.454   1.629   3.487
 3661SOL    HW111735   3.481   1.663   3.397
 3661SOL    HW211736   3.533   1.591   3.533
 3662SOL     OW11737   2.973   1.195   2.962
 3662SOL    HW111738   2.933   1.239   3.043
 3662SOL    HW211739   2.932   1.232   2.879
 3663SOL     OW11740   3.500   1.099   2.941
 3663SOL    HW111741   3.505   1.180   3.000
 3663SOL    HW211742   3.414   1.101   2.890
 3664SOL     OW11743   2.777   0.089   3.264
 3664SOL    HW111744   2.802   0.069   3.169
 3664SOL    HW211745   2.849   0.145   3.306
 3665SOL     OW11746   2.842   1.116   3.581
 3665SOL    HW111747   2.743   1.122   3.591
 3665SOL    HW211748   2.865   1.036   3.525
 3666SOL     OW11749   2.567   1.050   2.230
 3666SOL    HW111750   2.553   1.057   2.329
 3666SOL    HW211751   2.651   0.999   2.212
 3667SOL     OW11752   2.272   0.813   3.113
 3667SOL    HW111753   2.358   0.825   3.163
 3667SOL    HW211754   2.230   0.726   3.140
 3668SOL     OW11755   3.136   0.386   3.124
 3668SOL    HW111756   3.157   0.460   3.188
 3668SOL    HW211757   3.047   0.403   3.081
 3669SOL     OW11758   2.229   1.100   2.363
 3669SOL    HW111759   2.222   1.183   2.307
 3669SOL    HW211760   2.233   1.020   2.303
 3670SOL     OW11761   2.428   0.537   2.727
 3670SOL    HW111762   2.440   0.603   2.653
 3670SOL    HW211763   2.474   0.571   2.810
 3671SOL     OW11764   3.114   1.348   2.250
 3671SOL    HW111765   3.164   1.425   2.290
 3671SOL    HW211766   3.019   1.350   2.282
 3672SOL     OW11767   3.134   1.445   3.004
 3672SOL    HW111768   3.181   1.458   3.091
 3672SOL    HW211769   3.068   1.371   3.013
 3673SOL     OW11770   3.444   0.639   2.334
 3673SOL    HW111771   3.413   0.700   2.407
 3673SOL    HW211772   3.494   0.691   2.265
 3674SOL     OW11773   2.216   1.510   3.191
 3674SOL    HW111774   2.195   1.466   3.104
 3674SOL    HW211775   2.313   1.536   3.194
 3675SOL     OW11776   2.264   0.751   3.460
 3675SOL    HW111777   2.332   0.806   3.413
 3675SOL    HW211778   2.304   0.663   3.487
 3676SOL     OW11779   3.449   0.779   3.532
 3676SOL    HW111780   3.357   0.817   3.527
 3676SOL    HW211781   3.509   0.826   3.467
 3677SOL     OW11782   2.875   0.105   3.632
 3677SOL    HW111783   2.881   0.190   3.580
 3677SOL    HW211784   2.907   0.029   3.575
 3678SOL     OW11785   2.366   0.050   3.602
 3678SOL    HW111786   2.324  -0.007   3.532
 3678SOL    HW211787   2.300   0.119   3.634
 3679SOL     OW11788   2.435   0.870   2.891
 3679SOL    HW111789   2.479   0.959   2.882
 3679SOL    HW211790   2.372   0.870   2.968
 3680SOL     OW11791   3.222   0.862   2.907
 3680SOL    HW111792   3.147   0.862   2.841
 3680SOL    HW211793   3.259   0.770   2.916
 3681SOL     OW11794   3.071   0.525   2.137
 3681SOL    HW111795   3.084   0.441   2.191
 3681SOL    HW211796   3.042   0.599   2.197
 3682SOL     OW11797   2.169   0.213   3.093
 3682SOL    HW111798   2.146   0.250   3.183
 3682SOL    HW211799   2.139   0.118   3.087
 3683SOL     OW11800   1.899   1.310   3.144
 3683SOL    HW111801   1.952   1.261   3.212
 3683SOL    HW211802   1.921   1.408   3.149
 3684SOL     OW11803   2.594   0.634   2.926
 3684SOL    HW111804   2.653   0.608   2.850
 3684SOL    HW211805   2.566   0.730   2.915
 3685SOL     OW11806   3.590   0.935   3.716
 3685SOL    HW111807   3.544   0.928   3.627
 3685SOL    HW211808   3.528   0.979   3.782
 3686SOL     OW11809   2.169   0.063   2.480
 3686SOL    HW111810   2.158   0.157   2.513
 3686SOL    HW211811   2.164   0.000   2.557
 3687SOL     OW11812   3.484   0.367   2.236
 3687SOL    HW111813   3.486   0.291   2.300
 3687SOL    HW211814   3.436   0.444   2.276
 3688SOL     OW11815   2.885   0.766   2.828
 3688SOL    HW111816   2.900   0.787   2.924
 3688SOL    HW211817   2.855   0.671   2.819
 3689SOL     OW11818   2.842   1.573   3.562
 3689SOL    HW111819   2.822   1.617   3.474
 3689SOL    HW211820   2.881   1.482   3.546
 3690SOL     OW11821   3.721   1.518   3.467
 3690SOL    HW111822   3.735   1.545   3.372
 3690SOL    HW211823   3.804   1.540   3.520
 3691SOL     OW11824   2.212   0.898   3.666
 3691SOL    HW111825   2.288   0.942   3.714
 3691SOL    HW211826   2.247   0.851   3.584
 3692SOL     OW11827   3.402   0.274   1.987
 3692SOL    HW111828   3.341   0.199   2.010
 3692SOL    HW211829   3.424   0.326   2.070
 3693SOL     OW11830   3.165   0.838   1.904
 3693SOL    HW111831   3.199   0.745   1.919
 3693SOL    HW211832   3.183   0.865   1.809
 3694SOL     OW11833   2.930   1.333   2.711
 3694SOL    HW111834   2.937   1.249   2.656
 3694SOL    HW211835   2.992   1.402   2.675
 3695SOL     OW11836   2.181   0.810   2.811
 3695SOL    HW111837   2.274   0.846   2.816
 3695SOL    HW211838   2.175   0.725   2.863
 3696SOL     OW11839   2.201   0.509   2.868
 3696SOL    HW111840   2.149   0.426   2.851
 3696SOL    HW211841   2.278   0.514   2.804
 3697SOL     OW11842   3.000   0.380   3.540
 3697SOL    HW111843   2.955   0.443   3.604
 3697SOL    HW211844   3.093   0.411   3.523
 3698SOL     OW11845   3.022   0.207   3.339
 3698SOL    HW111846   3.022   0.271   3.416
 3698SOL    HW211847   3.050   0.255   3.256
 3699SOL     OW11848   1.870   1.326   2.062
 3699SOL    HW111849   1.777   1.347   2.031
 3699SOL    HW211850   1.880   1.227   2.075
 3700SOL     OW11851   2.366   1.568   2.772
 3700SOL    HW111852   2.432   1.642   2.781
 3700SOL    HW211853   2.410   1.489   2.730
 3701SOL     OW11854   2.864   0.796   3.100
 3701SOL    HW111855   2.905   0.764   3.186
 3701SOL    HW211856   2.768   0.769   3.097
 3702SOL     OW11857   1.902   0.544   2.976
 3702SOL    HW111858   1.987   0.511   2.935
 3702SOL    HW211859   1.915   0.559   3.074
 3703SOL     OW11860   2.051   0.520   3.584
 3703SOL    HW111861   2.110   0.480   3.514
 3703SOL    HW211862   1.993   0.591   3.543
 3704SOL     OW11863   3.231   0.950   3.522
 3704SOL    HW111864   3.270   1.039   3.542
 3704SOL    HW211865   3.241   0.930   3.425
 3705SOL     OW11866   2.677   0.572   2.187
 3705SOL    HW111867   2.684   0.483   2.141
 3705SOL    HW211868   2.583   0.606   2.179
 3706SOL     OW11869   3.519   0.604   3.068
 3706SOL    HW111870   3.481   0.535   3.130
 3706SOL    HW211871   3.601   0.568   3.024
 3707SOL     OW11872   2.114   1.564   3.606
 3707SOL    HW111873   2.084   1.621   3.682
 3707SOL    HW211874   2.107   1.467   3.632
 3708SOL     OW11875   2.533   0.464   3.131
 3708SOL    HW111876   2.499   0.375   3.101
 3708SOL    HW211877   2.559   0.518   3.051
 3709SOL     OW11878   2.792   1.678   3.327
 3709SOL    HW111879   2.768   1.660   3.232
 3709SOL    HW211880   2.822   1.772   3.337
 3710SOL     OW11881   2.335   0.500   2.053
 3710SOL    HW111882   2.396   0.580   2.057
 3710SOL    HW211883   2.240   0.531   2.060
 3711SOL     OW11884   2.021   1.137   3.328
 3711SOL    HW111885   2.043   1.076   3.404
 3711SOL    HW211886   2.031   1.088   3.242
 3712SOL     OW11887   3.209   1.059   3.096
 3712SOL    HW111888   3.233   0.996   3.022
 3712SOL    HW211889   3.119   1.099   3.078
 3713SOL     OW11890   3.164   0.855   2.171
 3713SOL    HW111891   3.078   0.824   2.213
 3713SOL    HW211892   3.160   0.841   2.072
 3714SOL     OW11893   3.621   1.747   3.016
 3714SOL    HW111894   3.682   1.777   2.943
 3714SOL    HW211895   3.583   1.658   2.994
 3715SOL     OW11896   3.114   1.731   2.990
 3715SOL    HW111897   3.198   1.736   2.936
 3715SOL    HW211898   3.091   1.635   3.008
 3716SOL     OW11899   1.945   1.258   2.884
 3716SOL    HW111900   1.940   1.257   2.984
 3716SOL    HW211901   1.862   1.217   2.846
 3717SOL     OW11902   2.550   1.662   3.578
 3717SOL    HW111903   2.494   1.743   3.587
 3717SOL    HW211904   2.602   1.666   3.492
 3718SOL     OW11905   3.588   0.135   2.385
 3718SOL    HW111906   3.661   0.118   2.318
 3718SOL    HW211907   3.557   0.048   2.423
 3719SOL     OW11908   3.250   1.573   2.339
 3719SOL    HW111909   3.317   1.585   2.265
 3719SOL    HW211910   3.210   1.662   2.362
 3720SOL     OW11911   3.142   0.927   2.534
 3720SOL    HW111912   3.202   0.846   2.536
 3720SOL    HW211913   3.182   0.996   2.474
 3721SOL     OW11914   2.692   1.273   3.284
 3721SOL    HW111915   2.687   1.306   3.379
 3721SOL    HW211916   2.606   1.292   3.238
 3722SOL     OW11917   2.534   1.616   2.016
 3722SOL    HW111918   2.543   1.626   1.917
 3722SOL    HW211919   2.494   1.527   2.037
 3723SOL     OW11920   3.512   1.720   3.256
 3723SOL    HW111921   3.565   1.730   3.172
 3723SOL    HW211922   3.485   1.810   3.290
 3724SOL     OW11923   3.703   0.175   2.825
 3724SOL    HW111924   3.742   0.090   2.789
 3724SOL    HW211925   3.605   0.177   2.806
 3725SOL     OW11926   2.125   0.326   2.582
 3725SOL    HW111927   2.046   0.377   2.548
 3725SOL    HW211928   2.116   0.311   2.680
 3726SOL     OW11929   3.056   1.612   1.893
 3726SOL    HW111930   3.062   1.519   1.930
 3726SOL    HW211931   2.997   1.612   1.813
 3727SOL     OW11932   2.684   1.002   3.234
 3727SOL    HW111933   2.724   1.001   3.142
 3727SOL    HW211934   2.694   1.094   3.274
 3728SOL     OW11935   2.778   0.910   2.153
 3728SOL    HW111936   2.841   0.948   2.085
 3728SOL    HW211937   2.818   0.827   2.192
 3729SOL     OW11938   3.366   1.607   1.906
 3729SOL    HW111939   3.274   1.644   1.913
 3729SOL    HW211940   3.404   1.627   1.816
 3730SOL     OW11941   2.234   1.288   3.352
 3730SOL    HW111942   2.221   1.381   3.318
 3730SOL    HW211943   2.150   1.236   3.339
 3731SOL     OW11944   3.476   1.292   3.151
 3731SOL    HW111945   3.536   1.295   3.231
 3731SOL    HW211946   3.401   1.356   3.164
 3732SOL     OW11947   2.901   1.098   2.558
 3732SOL    HW111948   2.831   1.051   2.612
 3732SOL    HW211949   2.960   1.030   2.515
 3733SOL     OW11950   2.876   0.236   2.833
 3733SOL    HW111951   2.868   0.200   2.740
 3733SOL    HW211952   2.874   0.160   2.898
 3734SOL     OW11953   2.452   1.487   2.353
 3734SOL    HW111954   2.494   1.429   2.283
 3734SOL    HW211955   2.408   1.566   2.309
 3735SOL     OW11956   3.571   0.385   3.243
 3735SOL    HW111957   3.644   0.454   3.247
 3735SOL    HW211958   3.599   0.310   3.184
 3736SOL     OW11959   2.117   1.348   2.152
 3736SOL    HW111960   2.021   1.349   2.125
 3736SOL    HW211961   2.129   1.401   2.236
 3737SOL     OW11962   1.967   1.013   3.588
 3737SOL    HW111963   1.890   0.980   3.642
 3737SOL    HW211964   2.052   0.983   3.630
 3738SOL     OW11965   2.534   0.203   3.351
 3738SOL    HW111966   2.624   0.187   3.311
 3738SOL    HW211967   2.542   0.208   3.450
 3739SOL     OW11968   1.937   0.345   1.895
 3739SOL    HW111969   1.845   0.317   1.866
 3739SOL    HW211970   1.968   0.422   1.839
 3740SOL     OW11971   3.302   0.856   3.260
 3740SOL    HW111972   3.245   0.908   3.197
 3740SOL    HW211973   3.398   0.868   3.236
 3741SOL     OW11974   1.934   0.166   2.180
 3741SOL    HW111975   1.917   0.249   2.126
 3741SOL    HW211976   2.024   0.129   2.158
 3742SOL     OW11977   3.045   1.335   1.981
 3742SOL    HW111978   2.946   1.324   1.983
 3742SOL    HW211979   3.079   1.350   2.074
 3743SOL     OW11980   2.475   0.842   3.293
 3743SOL    HW111981   2.531   0.923   3.276
 3743SOL    HW211982   2.534   0.762   3.296
 3744SOL     OW11983   3.355   1.767   2.821
 3744SOL    HW111984   3.388   1.831   2.752
 3744SOL    HW211985   3.421   1.761   2.896
 3745SOL     OW11986   2.578   0.565   3.570
 3745SOL    HW111987   2.597   0.630   3.644
 3745SOL    HW211988   2.638   0.485   3.579
 3746SOL     OW11989   3.312   1.220   3.495
 3746SOL    HW111990   3.303   1.210   3.594
 3746SOL    HW211991   3.408   1.213   3.469
 3747SOL     OW11992   2.252   1.741   3.422
 3747SOL    HW111993   2.161   1.782   3.420
 3747SOL    HW211994   2.245   1.647   3.454
 3748SOL     OW11995   3.536   0.883   3.116
 3748SOL    HW111996   3.509   0.794   3.079
 3748SOL    HW211997   3.537   0.951   3.043
 3749SOL     OW11998   3.087   0.325   2.311
 3749SOL    HW111999   3.152   0.251   2.300
 3749SOL    HW212000   3.107   0.375   2.395
 3750SOL     OW12001   2.456   0.745   2.514
 3750SOL    HW112002   2.506   0.830   2.495
 3750SOL    HW212003   2.368   0.747   2.466
 3751SOL     OW12004   3.639   0.342   3.504
 3751SOL    HW112005   3.622   0.373   3.410
 3751SOL    HW212006   3.555   0.305   3.542
 3752SOL     OW12007   3.592   0.934   3.379
 3752SOL    HW112008   3.630   1.025   3.394
 3752SOL    HW212009   3.584   0.917   3.280
 3753SOL     OW12010   2.721   1.374   1.878
 3753SOL    HW112011   2.675   1.389   1.966
 3753SOL    HW212012   2.765   1.459   1.848
 3754SOL     OW12013   2.523   1.790   2.815
 3754SOL    HW112014   2.477   1.878   2.802
 3754SOL    HW212015   2.622   1.802   2.808
 3755SOL     OW12016   2.721   0.956   2.723
 3755SOL    HW112017   2.775   0.887   2.771
 3755SOL    HW212018   2.689   1.025   2.789
 3756SOL     OW12019   2.945   0.984   1.949
 3756SOL    HW112020   2.922   1.037   1.867
 3756SOL    HW212021   3.026   0.928   1.930
 3757SOL     OW12022   3.723   1.569   2.713
 3757SOL    HW112023   3.652   1.557   2.643
 3757SOL    HW212024   3.724   1.490   2.773
 3758SOL     OW12025   2.083   1.314   3.706
 3758SOL    HW112026   2.018   1.241   3.685
 3758SOL    HW212027   2.087   1.328   3.804
 3759SOL     OW12028   1.941   1.240   2.515
 3759SOL    HW112029   1.940   1.193   2.603
 3759SOL    HW212030   2.023   1.212   2.464
 3760SOL     OW12031   2.534   1.391   3.486
 3760SOL    HW112032   2.456   1.341   3.524
 3760SOL    HW212033   2.531   1.486   3.517
 3761SOL     OW12034   3.686   0.192   3.089
 3761SOL    HW112035   3.682   0.102   3.133
 3761SOL    HW212036   3.689   0.181   2.990
 3762SOL     OW12037   2.290   0.424   2.382
 3762SOL    HW112038   2.320   0.352   2.320
 3762SOL    HW212039   2.251   0.384   2.465
 3763SOL     OW12040   3.567   1.487   2.966
 3763SOL    HW112041   3.474   1.462   2.939
 3763SOL    HW212042   3.593   1.437   3.048
 3764SOL     OW12043   2.179   0.547   3.142
 3764SOL    HW112044   2.217   0.488   3.214
 3764SOL    HW212045   2.219   0.521   3.054
 3765SOL     OW12046   2.674   1.586   2.549
 3765SOL    HW112047   2.706   1.596   2.455
 3765SOL    HW212048   2.595   1.524   2.551
 3766SOL     OW12049   3.286   0.214   2.974
 3766SOL    HW112050   3.338   0.149   3.029
 3766SOL    HW212051   3.237   0.277   3.035
 3767SOL     OW12052   2.863   0.034   3.016
 3767SOL    HW112053   2.800  -0.038   2.985
 3767SOL    HW212054   2.956  -0.002   3.016
 3768SOL     OW12055   2.632   1.330   2.163
 3768SOL    HW112056   2.586   1.243   2.180
 3768SOL    HW212057   2.723   1.327   2.204
 3769SOL     OW12058   2.480   1.567   3.146
 3769SOL    HW112059   2.475   1.649   3.203
 3769SOL    HW212060   2.569   1.564   3.101
 3770SOL     OW12061   3.214   0.052   2.030
 3770SOL    HW112062   3.249   0.011   1.946
 3770SOL    HW212063   3.124   0.014   2.050
 3771SOL     OW12064   3.162   0.453   2.553
 3771SOL    HW112065   3.103   0.533   2.557
 3771SOL    HW212066   3.177   0.418   2.646
 3772SOL     OW12067   3.455   0.221   2.744
 3772SOL    HW112068   3.371   0.220   2.798
 3772SOL    HW212069   3.457   0.304   2.688
 3773SOL     OW12070   1.901   1.077   2.162
 3773SOL    HW112071   2.000   1.066   2.153
 3773SOL    HW212072   1.861   0.991   2.194
 3774SOL     OW12073   2.737   1.646   2.199
 3774SOL    HW112074   2.660   1.611   2.145
 3774SOL    HW212075   2.705   1.717   2.261
 3775SOL     OW12076   2.092   0.628   3.837
 3775SOL    HW112077   1.999   0.626   3.874
 3775SOL    HW212078   2.093   0.589   3.745
 3776SOL     OW12079   2.087   0.275   4.720
 3776SOL    HW112080   2.122   0.258   4.812
 3776SOL    HW212081   1.999   0.230   4.708
 3777SOL     OW12082   1.881   0.368   4.371
 3777SOL    HW112083   1.799   0.411   4.410
 3777SOL    HW212084   1.853   0.295   4.308
 3778SOL     OW12085   2.431   1.275   4.889
 3778SOL    HW112086   2.338   1.268   4.852
 3778SOL    HW212087   2.442   1.364   4.933
 3779SOL     OW12088   3.417   1.511   4.427
 3779SOL    HW112089   3.360   1.495   4.508
 3779SOL    HW212090   3.358   1.521   4.347
 3780SOL     OW12091   2.997   0.703   4.441
 3780SOL    HW112092   3.054   0.781   4.416
 3780SOL    HW212093   2.937   0.729   4.517
 3781SOL     OW12094   3.617   0.607   3.955
 3781SOL    HW112095   3.605   0.594   3.856
 3781SOL    HW212096   3.587   0.526   4.004
 3782SOL     OW12097   2.630   1.144   4.747
 3782SOL    HW112098   2.552   1.161   4.807
 3782SOL    HW212099   2.664   1.231   4.711
 3783SOL     OW12100   2.712   0.798   5.547
 3783SOL    HW112101   2.708   0.874   5.612
 3783SOL    HW212102   2.734   0.834   5.456
 3784SOL     OW12103   2.547   1.012   4.389
 3784SOL    HW112104   2.616   0.996   4.459
 3784SOL    HW212105   2.474   1.069   4.427
 3785SOL     OW12106   2.548   1.161   5.527
 3785SOL    HW112107   2.608   1.240   5.541
 3785SOL    HW212108   2.462   1.192   5.486
 3786SOL     OW12109   2.197   1.435   4.785
 3786SOL    HW112110   2.119   1.404   4.732
 3786SOL    HW212111   2.255   1.493   4.728
 3787SOL     OW12112   3.322   1.505   5.063
 3787SOL    HW112113   3.346   1.599   5.089
 3787SOL    HW212114   3.306   1.451   5.145
 3788SOL     OW12115   2.300   0.392   5.223
 3788SOL    HW112116   2.382   0.336   5.232
 3788SOL    HW212117   2.219   0.334   5.227
 3789SOL     OW12118   3.465   0.447   4.461
 3789SOL    HW112119   3.391   0.493   4.411
 3789SOL    HW212120   3.516   0.515   4.514
 3790SOL     OW12121   2.093   1.713   4.207
 3790SOL    HW112122   2.127   1.790   4.261
 3790SOL    HW212123   2.137   1.713   4.117
 3791SOL     OW12124   2.989   1.341   5.414
 3791SOL    HW112125   3.036   1.341   5.502
 3791SOL    HW212126   2.941   1.254   5.403
 3792SOL     OW12127   2.092   1.434   4.262
 3792SOL    HW112128   2.066   1.530   4.262
 3792SOL    HW212129   2.021   1.380   4.307
 3793SOL     OW12130   2.102   1.091   4.610
 3793SOL    HW112131   2.116   1.007   4.662
 3793SOL    HW212132   2.047   1.155   4.665
 3794SOL     OW12133   2.482   1.786   5.163
 3794SOL    HW112134   2.390   1.769   5.198
 3794SOL    HW212135   2.510   1.878   5.189
 3795SOL     OW12136   2.468   0.964   3.847
 3795SOL    HW112137   2.475   1.048   3.793
 3795SOL    HW212138   2.514   0.977   3.935
 3796SOL     OW12139   3.456   0.114   5.204
 3796SOL    HW112140   3.438   0.181   5.132
 3796SOL    HW212141   3.453   0.160   5.293
 3797SOL     OW12142   1.984   0.643   4.287
 3797SOL    HW112143   1.939   0.555   4.304
 3797SOL    HW212144   1.983   0.697   4.371
 3798SOL     OW12145   3.704   1.767   4.083
 3798SOL    HW112146   3.758   1.738   4.163
 3798SOL    HW212147   3.734   1.857   4.054
 3799SOL     OW12148   1.889   1.596   3.841
 3799SOL    HW112149   1.870   1.500   3.862
 3799SOL    HW212150   1.856   1.654   3.916
 3800SOL     OW12151   3.551   0.922   4.336
 3800SOL    HW112152   3.646   0.893   4.344
 3800SOL    HW212153   3.543   0.987   4.261
 3801SOL     OW12154   3.503   1.108   4.156
 3801SOL    HW112155   3.589   1.110   4.104
 3801SOL    HW212156   3.517   1.155   4.244
 3802SOL     OW12157   1.975   0.737   5.321
 3802SOL    HW112158   2.063   0.724   5.366
 3802SOL    HW212159   1.962   0.834   5.299
 3803SOL     OW12160   2.475   1.365   4.450
 3803SOL    HW112161   2.426   1.278   4.459
 3803SOL    HW212162   2.452   1.408   4.363
 3804SOL     OW12163   3.155   1.228   5.147
 3804SOL    HW112164   3.192   1.155   5.089
 3804SOL    HW212165   3.207   1.233   5.232
 3805SOL     OW12166   2.671   0.004   4.226
 3805SOL    HW112167   2.711   0.095   4.217
 3805SOL    HW212168   2.571   0.012   4.232
 3806SOL     OW12169   2.059   0.976   4.988
 3806SOL    HW112170   2.148   0.931   4.974
 3806SOL    HW212171   1.986   0.911   4.969
 3807SOL     OW12172   3.387   0.999   3.914
 3807SOL    HW112173   3.324   0.923   3.927
 3807SOL    HW212174   3.435   1.017   4.000
 3808SOL     OW12175   3.049   1.792   5.340
 3808SOL    HW112176   3.073   1.852   5.264
 3808SOL    HW212177   3.056   1.697   5.310
 3809SOL     OW12178   2.179   0.251   5.525
 3809SOL    HW112179   2.250   0.322   5.531
 3809SOL    HW212180   2.091   0.290   5.553
 3810SOL     OW12181   3.328   1.417   4.677
 3810SOL    HW112182   3.269   1.423   4.757
 3810SOL    HW212183   3.313   1.329   4.631
 3811SOL     OW12184   3.529   1.714   4.296
 3811SOL    HW112185   3.488   1.691   4.208
 3811SOL    HW212186   3.511   1.640   4.361
 3812SOL     OW12187   2.460   0.729   3.994
 3812SOL    HW112188   2.484   0.798   3.926
 3812SOL    HW212189   2.382   0.762   4.048
 3813SOL     OW12190   3.143   0.345   4.668
 3813SOL    HW112191   3.057   0.295   4.655
 3813SOL    HW212192   3.205   0.291   4.724
 3814SOL     OW12193   3.438   1.662   4.031
 3814SOL    HW112194   3.527   1.708   4.034
 3814SOL    HW212195   3.417   1.638   3.936
 3815SOL     OW12196   2.669   0.605   5.189
 3815SOL    HW112197   2.622   0.602   5.278
 3815SOL    HW212198   2.618   0.550   5.123
 3816SOL     OW12199   3.256   0.469   5.398
 3816SOL    HW112200   3.236   0.512   5.486
 3816SOL    HW212201   3.334   0.407   5.407
 3817SOL     OW12202   2.835   0.890   5.296
 3817SOL    HW112203   2.881   0.806   5.267
 3817SOL    HW212204   2.779   0.924   5.221
 3818SOL     OW12205   2.853   0.410   4.966
 3818SOL    HW112206   2.776   0.444   5.020
 3818SOL    HW212207   2.819   0.359   4.887
 3819SOL     OW12208   2.903   0.701   4.153
 3819SOL    HW112209   2.929   0.697   4.249
 3819SOL    HW212210   2.818   0.650   4.139
 3820SOL     OW12211   1.938   0.811   4.513
 3820SOL    HW112212   2.037   0.799   4.522
 3820SOL    HW212213   1.914   0.906   4.534
 3821SOL     OW12214   2.727   0.348   3.919
 3821SOL    HW112215   2.786   0.411   3.870
 3821SOL    HW212216   2.746   0.254   3.890
 3822SOL     OW12217   3.581   0.585   5.555
 3822SOL    HW112218   3.555   0.674   5.519
 3822SOL    HW212219   3.579   0.517   5.482
 3823SOL     OW12220   3.224   1.144   4.269
 3823SOL    HW112221   3.307   1.115   4.221
 3823SOL    HW212222   3.175   1.211   4.213
 3824SOL     OW12223   2.412   0.196   4.609
 3824SOL    HW112224   2.407   0.191   4.709
 3824SOL    HW212225   2.414   0.292   4.580
 3825SOL     OW12226   2.870   1.456   4.201
 3825SOL    HW112227   2.824   1.528   4.149
 3825SOL    HW212228   2.866   1.476   4.299
 3826SOL     OW12229   2.213   1.801   4.577
 3826SOL    HW112230   2.263   1.715   4.583
 3826SOL    HW212231   2.278   1.878   4.574
 3827SOL     OW12232   3.657   1.066   4.597
 3827SOL    HW112233   3.595   1.051   4.521
 3827SOL    HW212234   3.605   1.077   4.682
 3828SOL     OW12235   3.089   1.550   5.230
 3828SOL    HW112236   3.095   1.473   5.294
 3828SOL    HW212237   3.037   1.524   5.150
 3829SOL     OW12238   2.183   0.943   3.966
 3829SOL    HW112239   2.265   0.982   3.924
 3829SOL    HW212240   2.156   0.861   3.917
 3830SOL     OW12241   3.320   0.735   4.452
 3830SOL    HW112242   3.315   0.670   4.527
 3830SOL    HW212243   3.400   0.794   4.465
 3831SOL     OW12244   2.323   1.266   5.451
 3831SOL    HW112245   2.273   1.267   5.365
 3831SOL    HW212246   2.260   1.248   5.527
 3832SOL     OW12247   2.973   1.776   3.961
 3832SOL    HW112248   2.913   1.714   4.011
 3832SOL    HW212249   3.004   1.732   3.876
 3833SOL     OW12250   2.064   0.285   5.222
 3833SOL    HW112251   1.984   0.345   5.209
 3833SOL    HW212252   2.054   0.236   5.308
 3834SOL     OW12253   3.494   1.377   3.805
 3834SOL    HW112254   3.462   1.471   3.795
 3834SOL    HW212255   3.418   1.314   3.793
 3835SOL     OW12256   2.326   1.743   4.047
 3835SOL    HW112257   2.359   1.782   4.133
 3835SOL    HW212258   2.402   1.736   3.982
 3836SOL     OW12259   3.262   0.107   4.150
 3836SOL    HW112260   3.238   0.070   4.060
 3836SOL    HW212261   3.361   0.123   4.154
 3837SOL     OW12262   2.111   1.785   4.965
 3837SOL    HW112263   2.168   1.720   5.015
 3837SOL    HW212264   2.095   1.752   4.872
 3838SOL     OW12265   2.802   1.698   4.628
 3838SOL    HW112266   2.882   1.641   4.649
 3838SOL    HW212267   2.753   1.658   4.551
 3839SOL     OW12268   2.244   0.700   4.204
 3839SOL    HW112269   2.289   0.610   4.201
 3839SOL    HW212270   2.150   0.689   4.237
 3840SOL     OW12271   3.409   0.222   5.453
 3840SOL    HW112272   3.404   0.259   5.545
 3840SOL    HW212273   3.337   0.153   5.441
 3841SOL     OW12274   2.476   0.122   3.841
 3841SOL    HW112275   2.574   0.100   3.848
 3841SOL    HW212276   2.445   0.105   3.748
 3842SOL     OW12277   2.643   0.264   5.473
 3842SOL    HW112278   2.710   0.203   5.516
 3842SOL    HW212279   2.570   0.283   5.538
 3843SOL     OW12280   2.750   1.514   4.919
 3843SOL    HW112281   2.727   1.489   4.825
 3843SOL    HW212282   2.811   1.445   4.958
 3844SOL     OW12283   3.213   0.590   5.157
 3844SOL    HW112284   3.241   0.547   5.242
 3844SOL    HW212285   3.238   0.686   5.158
 3845SOL     OW12286   2.665   1.402   4.648
 3845SOL    HW112287   2.755   1.416   4.606
 3845SOL    HW212288   2.594   1.404   4.577
 3846SOL     OW12289   2.784   0.503   4.623
 3846SOL    HW112290   2.759   0.494   4.527
 3846SOL    HW212291   2.832   0.421   4.654
 3847SOL     OW12292   2.401   0.064   4.236
 3847SOL    HW112293   2.320   0.065   4.294
 3847SOL    HW212294   2.404   0.147   4.181
 3848SOL     OW12295   3.296   1.188   3.765
 3848SOL    HW112296   3.328   1.112   3.822
 3848SOL    HW212297   3.204   1.215   3.795
 3849SOL     OW12298   2.159   0.035   3.895
 3849SOL    HW112299   2.208   0.119   3.874
 3849SOL    HW212300   2.221  -0.030   3.940
 3850SOL     OW12301   2.797   0.236   4.204
 3850SOL    HW112302   2.749   0.277   4.126
 3850SOL    HW212303   2.896   0.234   4.185
 3851SOL     OW12304   2.938   0.683   5.188
 3851SOL    HW112305   2.858   0.622   5.191
 3851SOL    HW212306   3.019   0.630   5.164
 3852SOL     OW12307   3.089   1.570   4.517
 3852SOL    HW112308   3.110   1.644   4.452
 3852SOL    HW212309   3.157   1.570   4.590
 3853SOL     OW12310   2.321   1.152   4.465
 3853SOL    HW112311   2.250   1.125   4.530
 3853SOL    HW212312   2.295   1.124   4.372
 3854SOL     OW12313   3.133   1.797   4.315
 3854SOL    HW112314   3.177   1.861   4.251
 3854SOL    HW212315   3.083   1.849   4.385
 3855SOL     OW12316   2.894   0.549   3.740
 3855SOL    HW112317   2.853   0.631   3.701
 3855SOL    HW212318   2.958   0.575   3.813
 3856SOL     OW12319   1.940   0.556   5.110
 3856SOL    HW112320   2.032   0.555   5.069
 3856SOL    HW212321   1.934   0.630   5.177
 3857SOL     OW12322   2.423   0.222   4.871
 3857SOL    HW112323   2.461   0.138   4.908
 3857SOL    HW212324   2.335   0.241   4.915
 3858SOL     OW12325   2.728   0.454   4.366
 3858SOL    HW112326   2.696   0.526   4.304
 3858SOL    HW212327   2.752   0.373   4.313
 3859SOL     OW12328   2.879   0.039   4.477
 3859SOL    HW112329   2.807   0.044   4.408
 3859SOL    HW212330   2.855  -0.030   4.546
 3860SOL     OW12331   3.291   1.173   4.591
 3860SOL    HW112332   3.236   1.089   4.584
 3860SOL    HW212333   3.317   1.202   4.499
 3861SOL     OW12334   3.328   0.590   4.716
 3861SOL    HW112335   3.298   0.495   4.723
 3861SOL    HW212336   3.401   0.606   4.782
 3862SOL     OW12337   3.719   0.833   4.101
 3862SOL    HW112338   3.761   0.769   4.165
 3862SOL    HW212339   3.681   0.782   4.023
 3863SOL     OW12340   2.350   1.385   3.898
 3863SOL    HW112341   2.263   1.370   3.945
 3863SOL    HW212342   2.333   1.411   3.803
 3864SOL     OW12343   3.526   1.280   4.381
 3864SOL    HW112344   3.625   1.288   4.395
 3864SOL    HW212345   3.481   1.364   4.412
 3865SOL     OW12346   3.252   0.575   3.802
 3865SOL    HW112347   3.198   0.554   3.883
 3865SOL    HW212348   3.343   0.534   3.811
 3866SOL     OW12349   2.389   0.256   4.052
 3866SOL    HW112350   2.416   0.197   3.977
 3866SOL    HW212351   2.389   0.351   4.021
 3867SOL     OW12352   3.616   1.223   5.312
 3867SOL    HW112353   3.707   1.184   5.299
 3867SOL    HW212354   3.624   1.319   5.336
 3868SOL     OW12355   2.926   1.347   5.064
 3868SOL    HW112356   2.846   1.324   5.119
 3868SOL    HW212357   3.009   1.321   5.113
 3869SOL     OW12358   3.454   1.629   5.349
 3869SOL    HW112359   3.481   1.663   5.259
 3869SOL    HW212360   3.533   1.591   5.395
 3870SOL     OW12361   2.973   1.195   4.824
 3870SOL    HW112362   2.933   1.239   4.905
 3870SOL    HW212363   2.932   1.232   4.741
 3871SOL     OW12364   3.500   1.099   4.803
 3871SOL    HW112365   3.505   1.180   4.862
 3871SOL    HW212366   3.414   1.101   4.752
 3872SOL     OW12367   2.777   0.089   5.126
 3872SOL    HW112368   2.802   0.069   5.031
 3872SOL    HW212369   2.849   0.145   5.168
 3873SOL     OW12370   2.842   1.116   5.443
 3873SOL    HW112371   2.743   1.122   5.453
 3873SOL    HW212372   2.865   1.036   5.387
 3874SOL     OW12373   2.567   1.050   4.092
 3874SOL    HW112374   2.553   1.057   4.191
 3874SOL    HW212375   2.651   0.999   4.074
 3875SOL     OW12376   2.272   0.813   4.975
 3875SOL    HW112377   2.358   0.825   5.025
 3875SOL    HW212378   2.230   0.726   5.002
 3876SOL     OW12379   3.136   0.386   4.986
 3876SOL    HW112380   3.157   0.460   5.050
 3876SOL    HW212381   3.047   0.403   4.943
 3877SOL     OW12382   2.229   1.100   4.225
 3877SOL    HW112383   2.222   1.183   4.169
 3877SOL    HW212384   2.233   1.020   4.165
 3878SOL     OW12385   2.428   0.537   4.589
 3878SOL    HW112386   2.440   0.603   4.515
 3878SOL    HW212387   2.474   0.571   4.672
 3879SOL     OW12388   3.114   1.348   4.112
 3879SOL    HW112389   3.164   1.425   4.152
 3879SOL    HW212390   3.019   1.350   4.144
 3880SOL     OW12391   3.134   1.445   4.866
 3880SOL    HW112392   3.181   1.458   4.953
 3880SOL    HW212393   3.068   1.371   4.875
 3881SOL     OW12394   3.444   0.639   4.196
 3881SOL    HW112395   3.413   0.700   4.269
 3881SOL    HW212396   3.494   0.691   4.127
 3882SOL     OW12397   2.216   1.510   5.053
 3882SOL    HW112398   2.195   1.466   4.966
 3882SOL    HW212399   2.313   1.536   5.056
 3883SOL     OW12400   2.264   0.751   5.322
 3883SOL    HW112401   2.332   0.806   5.275
 3883SOL    HW212402   2.304   0.663   5.349
 3884SOL     OW12403   3.449   0.779   5.394
 3884SOL    HW112404   3.357   0.817   5.389
 3884SOL    HW212405   3.509   0.826   5.329
 3885SOL     OW12406   2.875   0.105   5.494
 3885SOL    HW112407   2.881   0.190   5.442
 3885SOL    HW212408   2.907   0.029   5.437
 3886SOL     OW12409   2.366   0.050   5.464
 3886SOL    HW112410   2.324  -0.007   5.394
 3886SOL    HW212411   2.300   0.119   5.496
 3887SOL     OW12412   2.435   0.870   4.753
 3887SOL    HW112413   2.479   0.959   4.744
 3887SOL    HW212414   2.372   0.870   4.830
 3888SOL     OW12415   3.222   0.862   4.769
 3888SOL    HW112416   3.147   0.862   4.703
 3888SOL    HW212417   3.259   0.770   4.778
 3889SOL     OW12418   3.071   0.525   3.999
 3889SOL    HW112419   3.084   0.441   4.053
 3889SOL    HW212420   3.042   0.599   4.059
 3890SOL     OW12421   2.169   0.213   4.955
 3890SOL    HW112422   2.146   0.250   5.045
 3890SOL    HW212423   2.139   0.118   4.949
 3891SOL     OW12424   1.899   1.310   5.006
 3891SOL    HW112425   1.952   1.261   5.074
 3891SOL    HW212426   1.921   1.408   5.011
 3892SOL     OW12427   2.594   0.634   4.788
 3892SOL    HW112428   2.653   0.608   4.712
 3892SOL    HW212429   2.566   0.730   4.777
 3893SOL     OW12430   3.590   0.935   5.578
 3893SOL    HW112431   3.544   0.928   5.489
 3893SOL    HW212432   3.528   0.979   5.644
 3894SOL     OW12433   2.169   0.063   4.342
 3894SOL    HW112434   2.158   0.157   4.375
 3894SOL    HW212435   2.164   0.000   4.419
 3895SOL     OW12436   3.484   0.367   4.098
 3895SOL    HW112437   3.486   0.291   4.162
 3895SOL    HW212438   3.436   0.444   4.138
 3896SOL     OW12439   2.885   0.766   4.690
 3896SOL    HW112440   2.900   0.787   4.786
 3896SOL    HW212441   2.855   0.671   4.681
 3897SOL     OW12442   2.842   1.573   5.424
 3897SOL    HW112443   2.822   1.617   5.336
 3897SOL    HW212444   2.881   1.482   5.408
 3898SOL     OW12445   3.721   1.518   5.329
 3898SOL    HW112446   3.735   1.545   5.234
 3898SOL    HW212447   3.804   1.540   5.382
 3899SOL     OW12448   2.212   0.898   5.528
 3899SOL    HW112449   2.288   0.942   5.576
 3899SOL    HW212450   2.247   0.851   5.446
 3900SOL     OW12451   3.402   0.274   3.849
 3900SOL    HW112452   3.341   0.199   3.872
 3900SOL    HW212453   3.424   0.326   3.932
 3901SOL     OW12454   3.165   0.838   3.766
 3901SOL    HW112455   3.199   0.745   3.781
 3901SOL    HW212456   3.183   0.865   3.671
 3902SOL     OW12457   2.930   1.333   4.573
 3902SOL    HW112458   2.937   1.249   4.518
 3902SOL    HW212459   2.992   1.402   4.537
 3903SOL     OW12460   2.181   0.810   4.673
 3903SOL    HW112461   2.274   0.846   4.678
 3903SOL    HW212462   2.175   0.725   4.725
 3904SOL     OW12463   2.201   0.509   4.730
 3904SOL    HW112464   2.149   0.426   4.713
 3904SOL    HW212465   2.278   0.514   4.666
 3905SOL     OW12466   3.000   0.380   5.402
 3905SOL    HW112467   2.955   0.443   5.466
 3905SOL    HW212468   3.093   0.411   5.385
 3906SOL     OW12469   3.022   0.207   5.201
 3906SOL    HW112470   3.022   0.271   5.278
 3906SOL    HW212471   3.050   0.255   5.118
 3907SOL     OW12472   1.870   1.326   3.924
 3907SOL    HW112473   1.777   1.347   3.893
 3907SOL    HW212474   1.880   1.227   3.937
 3908SOL     OW12475   2.366   1.568   4.634
 3908SOL    HW112476   2.432   1.642   4.643
 3908SOL    HW212477   2.410   1.489   4.592
 3909SOL     OW12478   2.864   0.796   4.962
 3909SOL    HW112479   2.905   0.764   5.048
 3909SOL    HW212480   2.768   0.769   4.959
 3910SOL     OW12481   1.902   0.544   4.838
 3910SOL    HW112482   1.987   0.511   4.797
 3910SOL    HW212483   1.915   0.559   4.936
 3911SOL     OW12484   2.051   0.520   5.446
 3911SOL    HW112485   2.110   0.480   5.376
 3911SOL    HW212486   1.993   0.591   5.405
 3912SOL     OW12487   3.231   0.950   5.384
 3912SOL    HW112488   3.270   1.039   5.404
 3912SOL    HW212489   3.241   0.930   5.287
 3913SOL     OW12490   2.677   0.572   4.049
 3913SOL    HW112491   2.684   0.483   4.003
 3913SOL    HW212492   2.583   0.606   4.041
 3914SOL     OW12493   3.519   0.604   4.930
 3914SOL    HW112494   3.481   0.535   4.992
 3914SOL    HW212495   3.601   0.568   4.886
 3915SOL     OW12496   2.114   1.564   5.468
 3915SOL    HW112497   2.084   1.621   5.544
 3915SOL    HW212498   2.107   1.467   5.494
 3916SOL     OW12499   2.533   0.464   4.993
 3916SOL    HW112500   2.499   0.375   4.963
 3916SOL    HW212501   2.559   0.518   4.913
 3917SOL     OW12502   2.792   1.678   5.189
 3917SOL    HW112503   2.768   1.660   5.094
 3917SOL    HW212504   2.822   1.772   5.199
 3918SOL     OW12505   2.335   0.500   3.915
 3918SOL    HW112506   2.396   0.580   3.919
 3918SOL    HW212507   2.240   0.531   3.922
 3919SOL     OW12508   2.021   1.137   5.190
 3919SOL    HW112509   2.043   1.076   5.266
 3919SOL    HW212510   2.031   1.088   5.104
 3920SOL     OW12511   3.209   1.059   4.958
 3920SOL    HW112512   3.233   0.996   4.884
 3920SOL    HW212513   3.119   1.099   4.940
 3921SOL     OW12514   3.164   0.855   4.033
 3921SOL    HW112515   3.078   0.824   4.075
 3921SOL    HW212516   3.160   0.841   3.934
 3922SOL     OW12517   3.621   1.747   4.878
 3922SOL    HW112518   3.682   1.777   4.805
 3922SOL    HW212519   3.583   1.658   4.856
 3923SOL     OW12520   3.114   1.731   4.852
 3923SOL    HW112521   3.198   1.736   4.798
 3923SOL    HW212522   3.091   1.635   4.870
 3924SOL     OW12523   1.945   1.258   4.746
 3924SOL    HW112524   1.940   1.257   4.846
 3924SOL    HW212525   1.862   1.217   4.708
 3925SOL     OW12526   2.550   1.662   5.440
 3925SOL    HW112527   2.494   1.743   5.449
 3925SOL    HW212528   2.602   1.666   5.354
 3926SOL     OW12529   3.588   0.135   4.247
 3926SOL    HW112530   3.661   0.118   4.180
 3926SOL    HW212531   3.557   0.048   4.285
 3927SOL     OW12532   3.250   1.573   4.201
 3927SOL    HW112533   3.317   1.585   4.127
 3927SOL    HW212534   3.210   1.662   4.224
 3928SOL     OW12535   3.142   0.927   4.396
 3928SOL    HW112536   3.202   0.846   4.398
 3928SOL    HW212537   3.182   0.996   4.336
 3929SOL     OW12538   2.692   1.273   5.146
 3929SOL    HW112539   2.687   1.306   5.241
 3929SOL    HW212540   2.606   1.292   5.100
 3930SOL     OW12541   2.534   1.616   3.878
 3930SOL    HW112542   2.543   1.626   3.779
 3930SOL    HW212543   2.494   1.527   3.899
 3931SOL     OW12544   3.512   1.720   5.118
 3931SOL    HW112545   3.565   1.730   5.034
 3931SOL    HW212546   3.485   1.810   5.152
 3932SOL     OW12547   3.703   0.175   4.687
 3932SOL    HW112548   3.742   0.090   4.651
 3932SOL    HW212549   3.605   0.177   4.668
 3933SOL     OW12550   2.125   0.326   4.444
 3933SOL    HW112551   2.046   0.377   4.410
 3933SOL    HW212552   2.116   0.311   4.542
 3934SOL     OW12553   3.056   1.612   3.755
 3934SOL    HW112554   3.062   1.519   3.792
 3934SOL    HW212555   2.997   1.612   3.675
 3935SOL     OW12556   2.684   1.002   5.096
 3935SOL    HW112557   2.724   1.001   5.004
 3935SOL    HW212558   2.694   1.094   5.136
 3936SOL     OW12559   2.778   0.910   4.015
 3936SOL    HW112560   2.841   0.948   3.947
 3936SOL    HW212561   2.818   0.827   4.054
 3937SOL     OW12562   3.366   1.607   3.768
 3937SOL    HW112563   3.274   1.644   3.775
 3937SOL    HW212564   3.404   1.627   3.678
 3938SOL     OW12565   2.234   1.288   5.214
 3938SOL    HW112566   2.221   1.381   5.180
 3938SOL    HW212567   2.150   1.236   5.201
 3939SOL     OW12568   3.476   1.292   5.013
 3939SOL    HW112569   3.536   1.295   5.093
 3939SOL    HW212570   3.401   1.356   5.026
 3940SOL     OW12571   2.901   1.098   4.420
 3940SOL    HW112572   2.831   1.051   4.474
 3940SOL    HW212573   2.960   1.030   4.377
 3941SOL     OW12574   2.876   0.236   4.695
 3941SOL    HW112575   2.868   0.200   4.602
 3941SOL    HW212576   2.874   0.160   4.760
 3942SOL     OW12577   2.452   1.487   4.215
 3942SOL    HW112578   2.494   1.429   4.145
 3942SOL    HW212579   2.408   1.566   4.171
 3943SOL     OW12580   3.571   0.385   5.105
 3943SOL    HW112581   3.644   0.454   5.109
 3943SOL    HW212582   3.599   0.310   5.046
 3944SOL     OW12583   2.117   1.348   4.014
 3944SOL    HW112584   2.021   1.349   3.987
 3944SOL    HW212585   2.129   1.401   4.098
 3945SOL     OW12586   1.967   1.013   5.450
 3945SOL    HW112587   1.890   0.980   5.504
 3945SOL    HW212588   2.052   0.983   5.492
 3946SOL     OW12589   2.534   0.203   5.213
 3946SOL    HW112590   2.624   0.187   5.173
 3946SOL    HW212591   2.542   0.208   5.312
 3947SOL     OW12592   1.937   0.345   3.757
 3947SOL    HW112593   1.845   0.317   3.728
 3947SOL    HW212594   1.968   0.422   3.701
 3948SOL     OW12595   3.302   0.856   5.122
 3948SOL    HW112596   3.245   0.908   5.059
 3948SOL    HW212597   3.398   0.868   5.098
 3949SOL     OW12598   1.934   0.166   4.042
 3949SOL    HW112599   1.917   0.249   3.988
 3949SOL    HW212600   2.024   0.129   4.020
 3950SOL     OW12601   3.045   1.335   3.843
 3950SOL    HW112602   2.946   1.324   3.845
 3950SOL    HW212603   3.079   1.350   3.936
 3951SOL     OW12604   2.475   0.842   5.155
 3951SOL    HW112605   2.531   0.923   5.138
 3951SOL    HW212606   2.534   0.762   5.158
 3952SOL     OW12607   3.355   1.767   4.683
 3952SOL    HW112608   3.388   1.831   4.614
 3952SOL    HW212609   3.421   1.761   4.758
 3953SOL     OW12610   2.578   0.565   5.432
 3953SOL    HW112611   2.597   0.630   5.506
 3953SOL    HW212612   2.638   0.485   5.441
 3954SOL     OW12613   3.312   1.220   5.357
 3954SOL    HW112614   3.303   1.210   5.456
 3954SOL    HW212615   3.408   1.213   5.331
 3955SOL     OW12616   2.252   1.741   5.284
 3955SOL    HW112617   2.161   1.782   5.282
 3955SOL    HW212618   2.245   1.647   5.316
 3956SOL     OW12619   3.536   0.883   4.978
 3956SOL    HW112620   3.509   0.794   4.941
 3956SOL    HW212621   3.537   0.951   4.905
 3957SOL     OW12622   3.087   0.325   4.173
 3957SOL    HW112623   3.152   0.251   4.162
 3957SOL    HW212624   3.107   0.375   4.257
 3958SOL     OW12625   2.456   0.745   4.376
 3958SOL    HW112626   2.506   0.830   4.357
 3958SOL    HW212627   2.368   0.747   4.328
 3959SOL     OW12628   3.639   0.342   5.366
 3959SOL    HW112629   3.622   0.373   5.272
 3959SOL    HW212630   3.555   0.305   5.404
 3960SOL     OW12631   3.592   0.934   5.241
 3960SOL    HW112632   3.630   1.025   5.256
 3960SOL    HW212633   3.584   0.917   5.142
 3961SOL     OW12634   2.721   1.374   3.740
 3961SOL    HW112635   2.675   1.389   3.828
 3961SOL    HW212636   2.765   1.459   3.710
 3962SOL     OW12637   2.523   1.790   4.677
 3962SOL    HW112638   2.477   1.878   4.664
 3962SOL    HW212639   2.622   1.802   4.670
 3963SOL     OW12640   2.721   0.956   4.585
 3963SOL    HW112641   2.775   0.887   4.633
 3963SOL    HW212642   2.689   1.025   4.651
 3964SOL     OW12643   2.945   0.984   3.811
 3964SOL    HW112644   2.922   1.037   3.729
 3964SOL    HW212645   3.026   0.928   3.792
 3965SOL     OW12646   3.723   1.569   4.575
 3965SOL    HW112647   3.652   1.557   4.505
 3965SOL    HW212648   3.724   1.490   4.635
 3966SOL     OW12649   2.083   1.314   5.568
 3966SOL    HW112650   2.018   1.241   5.547
 3966SOL    HW212651   2.087   1.328   5.666
 3967SOL     OW12652   1.941   1.240   4.377
 3967SOL    HW112653   1.940   1.193   4.465
 3967SOL    HW212654   2.023   1.212   4.326
 3968SOL     OW12655   2.534   1.391   5.348
 3968SOL    HW112656   2.456   1.341   5.386
 3968SOL    HW212657   2.531   1.486   5.379
 3969SOL     OW12658   3.686   0.192   4.951
 3969SOL    HW112659   3.682   0.102   4.995
 3969SOL    HW212660   3.689   0.181   4.852
 3970SOL     OW12661   2.290   0.424   4.244
 3970SOL    HW112662   2.320   0.352   4.182
 3970SOL    HW212663   2.251   0.384   4.327
 3971SOL     OW12664   3.567   1.487   4.828
 3971SOL    HW112665   3.474   1.462   4.801
 3971SOL    HW212666   3.593   1.437   4.910
 3972SOL     OW12667   2.179   0.547   5.004
 3972SOL    HW112668   2.217   0.488   5.076
 3972SOL    HW212669   2.219   0.521   4.916
 3973SOL     OW12670   2.674   1.586   4.411
 3973SOL    HW112671   2.706   1.596   4.317
 3973SOL    HW212672   2.595   1.524   4.413
 3974SOL     OW12673   3.286   0.214   4.836
 3974SOL    HW112674   3.338   0.149   4.891
 3974SOL    HW212675   3.237   0.277   4.897
 3975SOL     OW12676   2.863   0.034   4.878
 3975SOL    HW112677   2.800  -0.038   4.847
 3975SOL    HW212678   2.956  -0.002   4.878
 3976SOL     OW12679   2.632   1.330   4.025
 3976SOL    HW112680   2.586   1.243   4.042
 3976SOL    HW212681   2.723   1.327   4.066
 3977SOL     OW12682   2.480   1.567   5.008
 3977SOL    HW112683   2.475   1.649   5.065
 3977SOL    HW212684   2.569   1.564   4.963
 3978SOL     OW12685   3.214   0.052   3.892
 3978SOL    HW112686   3.249   0.011   3.808
 3978SOL    HW212687   3.124   0.014   3.912
 3979SOL     OW12688   3.162   0.453   4.415
 3979SOL    HW112689   3.103   0.533   4.419
 3979SOL    HW212690   3.177   0.418   4.508
 3980SOL     OW12691   3.455   0.221   4.606
 3980SOL    HW112692   3.371   0.220   4.660
 3980SOL    HW212693   3.457   0.304   4.550
 3981SOL     OW12694   1.901   1.077   4.024
 3981SOL    HW112695   2.000   1.066   4.015
 3981SOL    HW212696   1.861   0.991   4.056
 3982SOL     OW12697   2.737   1.646   4.061
 3982SOL    HW112698   2.660   1.611   4.007
 3982SOL    HW212699   2.705   1.717   4.123
 3983SOL     OW12700   2.092   0.628   5.699
 3983SOL    HW112701   1.999   0.626   5.736
 3983SOL    HW212702   2.093   0.589   5.607
 3984SOL     OW12703   2.087   0.275   6.582
 3984SOL    HW112704   2.122   0.258   6.674
 3984SOL    HW212705   1.999   0.230   6.570
 3985SOL     OW12706   1.881   0.368   6.233
 3985SOL    HW112707   1.799   0.411   6.272
 3985SOL    HW212708   1.853   0.295   6.170
 3986SOL     OW12709   2.431   1.275   6.751
 3986SOL    HW112710   2.338   1.268   6.714
 3986SOL    HW212711   2.442   1.364   6.795
 3987SOL     OW12712   3.417   1.511   6.289
 3987SOL    HW112713   3.360   1.495   6.370
 3987SOL    HW212714   3.358   1.521   6.209
 3988SOL     OW12715   2.997   0.703   6.303
 3988SOL    HW112716   3.054   0.781   6.278
 3988SOL    HW212717   2.937   0.729   6.379
 3989SOL     OW12718   3.617   0.607   5.817
 3989SOL    HW112719   3.605   0.594   5.718
 3989SOL    HW212720   3.587   0.526   5.866
 3990SOL     OW12721   2.630   1.144   6.609
 3990SOL    HW112722   2.552   1.161   6.669
 3990SOL    HW212723   2.664   1.231   6.573
 3991SOL     OW12724   2.712   0.798   7.409
 3991SOL    HW112725   2.708   0.874   7.474
 3991SOL    HW212726   2.734   0.834   7.318
 3992SOL     OW12727   2.547   1.012   6.251
 3992SOL    HW112728   2.616   0.996   6.321
 3992SOL    HW212729   2.474   1.069   6.289
 3993SOL     OW12730   2.548   1.161   7.389
 3993SOL    HW112731   2.608   1.240   7.403
 3993SOL    HW212732   2.462   1.192   7.348
 3994SOL     OW12733   3.322   1.505   6.925
 3994SOL    HW112734   3.346   1.599   6.951
 3994SOL    HW212735   3.306   1.451   7.007
 3995SOL     OW12736   2.300   0.392   7.085
 3995SOL    HW112737   2.382   0.336   7.094
 3995SOL    HW212738   2.219   0.334   7.089
 3996SOL     OW12739   3.465   0.447   6.323
 3996SOL    HW112740   3.391   0.493   6.273
 3996SOL    HW212741   3.516   0.515   6.376
 3997SOL     OW12742   2.093   1.713   6.069
 3997SOL    HW112743   2.127   1.790   6.123
 3997SOL    HW212744   2.137   1.713   5.979
 3998SOL     OW12745   2.989   1.341   7.276
 3998SOL    HW112746   3.036   1.341   7.364
 3998SOL    HW212747   2.941   1.254   7.265
 3999SOL     OW12748   2.102   1.091   6.472
 3999SOL    HW112749   2.116   1.007   6.524
 3999SOL    HW212750   2.047   1.155   6.527
 4000SOL     OW12751   2.482   1.786   7.025
 4000SOL    HW112752   2.390   1.769   7.060
 4000SOL    HW212753   2.510   1.878   7.051
 4001SOL     OW12754   2.468   0.964   5.709
 4001SOL    HW112755   2.475   1.048   5.655
 4001SOL    HW212756   2.514   0.977   5.797
 4002SOL     OW12757   3.456   0.114   7.066
 4002SOL    HW112758   3.438   0.181   6.994
 4002SOL    HW212759   3.453   0.160   7.155
 4003SOL     OW12760   1.984   0.643   6.149
 4003SOL    HW112761   1.939   0.555   6.166
 4003SOL    HW212762   1.983   0.697   6.233
 4004SOL     OW12763   3.704   1.767   5.945
 4004SOL    HW112764   3.758   1.738   6.025
 4004SOL    HW212765   3.734   1.857   5.916
 4005SOL     OW12766   1.889   1.596   5.703
 4005SOL    HW112767   1.870   1.500   5.724
 4005SOL    HW212768   1.856   1.654   5.778
 4006SOL     OW12769   3.551   0.922   6.198
 4006SOL    HW112770   3.646   0.893   6.206
 4006SOL    HW212771   3.543   0.987   6.123
 4007SOL     OW12772   3.503   1.108   6.018
 4007SOL    HW112773   3.589   1.110   5.966
 4007SOL    HW212774   3.517   1.155   6.106
 4008SOL     OW12775   1.975   0.737   7.183
 4008SOL    HW112776   2.063   0.724   7.228
 4008SOL    HW212777   1.962   0.834   7.161
 4009SOL     OW12778   3.155   1.228   7.009
 4009SOL    HW112779   3.192   1.155   6.951
 4009SOL    HW212780   3.207   1.233   7.094
 4010SOL     OW12781   2.671   0.004   6.088
 4010SOL    HW112782   2.711   0.095   6.079
 4010SOL    HW212783   2.571   0.012   6.094
 4011SOL     OW12784   2.059   0.976   6.850
 4011SOL    HW112785   2.148   0.931   6.836
 4011SOL    HW212786   1.986   0.911   6.831
 4012SOL     OW12787   3.387   0.999   5.776
 4012SOL    HW112788   3.324   0.923   5.789
 4012SOL    HW212789   3.435   1.017   5.862
 4013SOL     OW12790   3.049   1.792   7.202
 4013SOL    HW112791   3.073   1.852   7.126
 4013SOL    HW212792   3.056   1.697   7.172
 4014SOL     OW12793   2.179   0.251   7.387
 4014SOL    HW112794   2.250   0.322   7.393
 4014SOL    HW212795   2.091   0.290   7.415
 4015SOL     OW12796   3.328   1.417   6.539
 4015SOL    HW112797   3.269   1.423   6.619
 4015SOL    HW212798   3.313   1.329   6.493
 4016SOL     OW12799   3.529   1.714   6.158
 4016SOL    HW112800   3.488   1.691   6.070
 4016SOL    HW212801   3.511   1.640   6.223
 4017SOL     OW12802   2.460   0.729   5.856
 4017SOL    HW112803   2.484   0.798   5.788
 4017SOL    HW212804   2.382   0.762   5.910
 4018SOL     OW12805   3.143   0.345   6.530
 4018SOL    HW112806   3.057   0.295   6.517
 4018SOL    HW212807   3.205   0.291   6.586
 4019SOL     OW12808   3.438   1.662   5.893
 4019SOL    HW112809   3.527   1.708   5.896
 4019SOL    HW212810   3.417   1.638   5.798
 4020SOL     OW12811   2.669   0.605   7.051
 4020SOL    HW112812   2.622   0.602   7.140
 4020SOL    HW212813   2.618   0.550   6.985
 4021SOL     OW12814   3.256   0.469   7.260
 4021SOL    HW112815   3.236   0.512   7.348
 4021SOL    HW212816   3.334   0.407   7.269
 4022SOL     OW12817   2.835   0.890   7.158
 4022SOL    HW112818   2.881   0.806   7.129
 4022SOL    HW212819   2.779   0.924   7.083
 4023SOL     OW12820   2.853   0.410   6.828
 4023SOL    HW112821   2.776   0.444   6.882
 4023SOL    HW212822   2.819   0.359   6.749
 4024SOL     OW12823   2.903   0.701   6.015
 4024SOL    HW112824   2.929   0.697   6.111
 4024SOL    HW212825   2.818   0.650   6.001
 4025SOL     OW12826   1.938   0.811   6.375
 4025SOL    HW112827   2.037   0.799   6.384
 4025SOL    HW212828   1.914   0.906   6.396
 4026SOL     OW12829   2.727   0.348   5.781
 4026SOL    HW112830   2.786   0.411   5.732
 4026SOL    HW212831   2.746   0.254   5.752
 4027SOL     OW12832   3.581   0.585   7.417
 4027SOL    HW112833   3.555   0.674   7.381
 4027SOL    HW212834   3.579   0.517   7.344
 4028SOL     OW12835   3.224   1.144   6.131
 4028SOL    HW112836   3.307   1.115   6.083
 4028SOL    HW212837   3.175   1.211   6.075
 4029SOL     OW12838   2.412   0.196   6.471
 4029SOL    HW112839   2.407   0.191   6.571
 4029SOL    HW212840   2.414   0.292   6.442
 4030SOL     OW12841   2.870   1.456   6.063
 4030SOL    HW112842   2.824   1.528   6.011
 4030SOL    HW212843   2.866   1.476   6.161
 4031SOL     OW12844   2.213   1.801   6.439
 4031SOL    HW112845   2.263   1.715   6.445
 4031SOL    HW212846   2.278   1.878   6.436
 4032SOL     OW12847   3.657   1.066   6.459
 4032SOL    HW112848   3.595   1.051   6.383
 4032SOL    HW212849   3.605   1.077   6.544
 4033SOL     OW12850   3.089   1.550   7.092
 4033SOL    HW112851   3.095   1.473   7.156
 4033SOL    HW212852   3.037   1.524   7.012
 4034SOL     OW12853   2.183   0.943   5.828
 4034SOL    HW112854   2.265   0.982   5.786
 4034SOL    HW212855   2.156   0.861   5.779
 4035SOL     OW12856   3.320   0.735   6.314
 4035SOL    HW112857   3.315   0.670   6.389
 4035SOL    HW212858   3.400   0.794   6.327
 4036SOL     OW12859   2.973   1.776   5.823
 4036SOL    HW112860   2.913   1.714   5.873
 4036SOL    HW212861   3.004   1.732   5.738
 4037SOL     OW12862   2.064   0.285   7.084
 4037SOL    HW112863   1.984   0.345   7.071
 4037SOL    HW212864   2.054   0.236   7.170
 4038SOL     OW12865   3.494   1.377   5.667
 4038SOL    HW112866   3.462   1.471   5.657
 4038SOL    HW212867   3.418   1.314   5.655
 4039SOL     OW12868   2.326   1.743   5.909
 4039SOL    HW112869   2.359   1.782   5.995
 4039SOL    HW212870   2.402   1.736   5.844
 4040SOL     OW12871   3.262   0.107   6.012
 4040SOL    HW112872   3.238   0.070   5.922
 4040SOL    HW212873   3.361   0.123   6.016
 4041SOL     OW12874   2.111   1.785   6.827
 4041SOL    HW112875   2.168   1.720   6.877
 4041SOL    HW212876   2.095   1.752   6.734
 4042SOL     OW12877   2.244   0.700   6.066
 4042SOL    HW112878   2.289   0.610   6.063
 4042SOL    HW212879   2.150   0.689   6.099
 4043SOL     OW12880   3.409   0.222   7.315
 4043SOL    HW112881   3.404   0.259   7.407
 4043SOL    HW212882   3.337   0.153   7.303
 4044SOL     OW12883   2.476   0.122   5.703
 4044SOL    HW112884   2.574   0.100   5.710
 4044SOL    HW212885   2.445   0.105   5.610
 4045SOL     OW12886   2.643   0.264   7.335
 4045SOL    HW112887   2.710   0.203   7.378
 4045SOL    HW212888   2.570   0.283   7.400
 4046SOL     OW12889   3.213   0.590   7.019
 4046SOL    HW112890   3.241   0.547   7.104
 4046SOL    HW212891   3.238   0.686   7.020
 4047SOL     OW12892   2.784   0.503   6.485
 4047SOL    HW112893   2.759   0.494   6.389
 4047SOL    HW212894   2.832   0.421   6.516
 4048SOL     OW12895   2.401   0.064   6.098
 4048SOL    HW112896   2.320   0.065   6.156
 4048SOL    HW212897   2.404   0.147   6.043
 4049SOL     OW12898   3.296   1.188   5.627
 4049SOL    HW112899   3.328   1.112   5.684
 4049SOL    HW212900   3.204   1.215   5.657
 4050SOL     OW12901   2.159   0.035   5.757
 4050SOL    HW112902   2.208   0.119   5.736
 4050SOL    HW212903   2.221  -0.030   5.802
 4051SOL     OW12904   2.797   0.236   6.066
 4051SOL    HW112905   2.749   0.277   5.988
 4051SOL    HW212906   2.896   0.234   6.047
 4052SOL     OW12907   2.938   0.683   7.050
 4052SOL    HW112908   2.858   0.622   7.053
 4052SOL    HW212909   3.019   0.630   7.026
 4053SOL     OW12910   3.089   1.570   6.379
 4053SOL    HW112911   3.110   1.644   6.314
 4053SOL    HW212912   3.157   1.570   6.452
 4054SOL     OW12913   3.133   1.797   6.177
 4054SOL    HW112914   3.177   1.861   6.113
 4054SOL    HW212915   3.083   1.849   6.247
 4055SOL     OW12916   2.894   0.549   5.602
 4055SOL    HW112917   2.853   0.631   5.563
 4055SOL    HW212918   2.958   0.575   5.675
 4056SOL     OW12919   1.940   0.556   6.972
 4056SOL    HW112920   2.032   0.555   6.931
 4056SOL    HW212921   1.934   0.630   7.039
 4057SOL     OW12922   2.423   0.222   6.733
 4057SOL    HW112923   2.461   0.138   6.770
 4057SOL    HW212924   2.335   0.241   6.777
 4058SOL     OW12925   2.728   0.454   6.228
 4058SOL    HW112926   2.696   0.526   6.166
 4058SOL    HW212927   2.752   0.373   6.175
 4059SOL     OW12928   2.879   0.039   6.339
 4059SOL    HW112929   2.807   0.044   6.270
 4059SOL    HW212930   2.855  -0.030   6.408
 4060SOL     OW12931   3.291   1.173   6.453
 4060SOL    HW112932   3.236   1.089   6.446
 4060SOL    HW212933   3.317   1.202   6.361
 4061SOL     OW12934   3.328   0.590   6.578
 4061SOL    HW112935   3.298   0.495   6.585
 4061SOL    HW212936   3.401   0.606   6.644
 4062SOL     OW12937   3.719   0.833   5.963
 4062SOL    HW112938   3.761   0.769   6.027
 4062SOL    HW212939   3.681   0.782   5.885
 4063SOL     OW12940   2.350   1.385   5.760
 4063SOL    HW112941   2.263   1.370   5.807
 4063SOL    HW212942   2.333   1.411   5.665
 4064SOL     OW12943   3.526   1.280   6.243
 4064SOL    HW112944   3.625   1.288   6.257
 4064SOL    HW212945   3.481   1.364   6.274
 4065SOL     OW12946   3.252   0.575   5.664
 4065SOL    HW112947   3.198   0.554   5.745
 4065SOL    HW212948   3.343   0.534   5.673
 4066SOL     OW12949   2.389   0.256   5.914
 4066SOL    HW112950   2.416   0.197   5.839
 4066SOL    HW212951   2.389   0.351   5.883
 4067SOL     OW12952   3.616   1.223   7.174
 4067SOL    HW112953   3.707   1.184   7.161
 4067SOL    HW212954   3.624   1.319   7.198
 4068SOL     OW12955   2.926   1.347   6.926
 4068SOL    HW112956   2.846   1.324   6.981
 4068SOL    HW212957   3.009   1.321   6.975
 4069SOL     OW12958   3.454   1.629   7.211
 4069SOL    HW112959   3.481   1.663   7.121
 4069SOL    HW212960   3.533   1.591   7.257
 4070SOL     OW12961   2.973   1.195   6.686
 4070SOL    HW112962   2.933   1.239   6.767
 4070SOL    HW212963   2.932   1.232   6.603
 4071SOL     OW12964   3.500   1.099   6.665
 4071SOL    HW112965   3.505   1.180   6.724
 4071SOL    HW212966   3.414   1.101   6.614
 4072SOL     OW12967   2.777   0.089   6.988
 4072SOL    HW112968   2.802   0.069   6.893
 4072SOL    HW212969   2.849   0.145   7.030
 4073SOL     OW12970   2.842   1.116   7.305
 4073SOL    HW112971   2.743   1.122   7.315
 4073SOL    HW212972   2.865   1.036   7.249
 4074SOL     OW12973   2.567   1.050   5.954
 4074SOL    HW112974   2.553   1.057   6.053
 4074SOL    HW212975   2.651   0.999   5.936
 4075SOL     OW12976   2.272   0.813   6.837
 4075SOL    HW112977   2.358   0.825   6.887
 4075SOL    HW212978   2.230   0.726   6.864
 4076SOL     OW12979   3.136   0.386   6.848
 4076SOL    HW112980   3.157   0.460   6.912
 4076SOL    HW212981   3.047   0.403   6.805
 4077SOL     OW12982   2.229   1.100   6.087
 4077SOL    HW112983   2.222   1.183   6.031
 4077SOL    HW212984   2.233   1.020   6.027
 4078SOL     OW12985   2.428   0.537   6.451
 4078SOL    HW112986   2.440   0.603   6.377
 4078SOL    HW212987   2.474   0.571   6.534
 4079SOL     OW12988   3.114   1.348   5.974
 4079SOL    HW112989   3.164   1.425   6.014
 4079SOL    HW212990   3.019   1.350   6.006
 4080SOL     OW12991   3.134   1.445   6.728
 4080SOL    HW112992   3.181   1.458   6.815
 4080SOL    HW212993   3.068   1.371   6.737
 4081SOL     OW12994   3.444   0.639   6.058
 4081SOL    HW112995   3.413   0.700   6.131
 4081SOL    HW212996   3.494   0.691   5.989
 4082SOL     OW12997   2.216   1.510   6.915
 4082SOL    HW112998   2.195   1.466   6.828
 4082SOL    HW212999   2.313   1.536   6.918
 4083SOL     OW13000   2.264   0.751   7.184
 4083SOL    HW113001   2.332   0.806   7.137
 4083SOL    HW213002   2.304   0.663   7.211
 4084SOL     OW13003   3.449   0.779   7.256
 4084SOL    HW113004   3.357   0.817   7.251
 4084SOL    HW213005   3.509   0.826   7.191
 4085SOL     OW13006   2.875   0.105   7.356
 4085SOL    HW113007   2.881   0.190   7.304
 4085SOL    HW213008   2.907   0.029   7.299
 4086SOL     OW13009   2.366   0.050   7.326
 4086SOL    HW113010   2.324  -0.007   7.256
 4086SOL    HW213011   2.300   0.119   7.358
 4087SOL     OW13012   2.435   0.870   6.615
 4087SOL    HW113013   2.479   0.959   6.606
 4087SOL    HW213014   2.372   0.870   6.692
 4088SOL     OW13015   3.222   0.862   6.631
 4088SOL    HW113016   3.147   0.862   6.565
 4088SOL    HW213017   3.259   0.770   6.640
 4089SOL     OW13018   3.071   0.525   5.861
 4089SOL    HW113019   3.084   0.441   5.915
 4089SOL    HW213020   3.042   0.599   5.921
 4090SOL     OW13021   2.169   0.213   6.817
 4090SOL    HW113022   2.146   0.250   6.907
 4090SOL    HW213023   2.139   0.118   6.811
 4091SOL     OW13024   1.899   1.310   6.868
 4091SOL    HW113025   1.952   1.261   6.936
 4091SOL    HW213026   1.921   1.408   6.873
 4092SOL     OW13027   2.594   0.634   6.650
 4092SOL    HW113028   2.653   0.608   6.574
 4092SOL    HW213029   2.566   0.730   6.639
 4093SOL     OW13030   3.590   0.935   7.440
 4093SOL    HW113031   3.544   0.928   7.351
 4093SOL    HW213032   3.528   0.979   7.506
 4094SOL     OW13033   2.169   0.063   6.204
 4094SOL    HW113034   2.158   0.157   6.237
 4094SOL    HW213035   2.164   0.000   6.281
 4095SOL     OW13036   3.484   0.367   5.960
 4095SOL    HW113037   3.486   0.291   6.024
 4095SOL    HW213038   3.436   0.444   6.000
 4096SOL     OW13039   2.885   0.766   6.552
 4096SOL    HW113040   2.900   0.787   6.648
 4096SOL    HW213041   2.855   0.671   6.543
 4097SOL     OW13042   2.842   1.573   7.286
 4097SOL    HW113043   2.822   1.617   7.198
 4097SOL    HW213044   2.881   1.482   7.270
 4098SOL     OW13045   3.721   1.518   7.191
 4098SOL    HW113046   3.735   1.545   7.096
 4098SOL    HW213047   3.804   1.540   7.244
 4099SOL     OW13048   2.212   0.898   7.390
 4099SOL    HW113049   2.288   0.942   7.438
 4099SOL    HW213050   2.247   0.851   7.308
 4100SOL     OW13051   3.402   0.274   5.711
 4100SOL    HW113052   3.341   0.199   5.734
 4100SOL    HW213053   3.424   0.326   5.794
 4101SOL     OW13054   3.165   0.838   5.628
 4101SOL    HW113055   3.199   0.745   5.643
 4101SOL    HW213056   3.183   0.865   5.533
 4102SOL     OW13057   2.930   1.333   6.435
 4102SOL    HW113058   2.937   1.249   6.380
 4102SOL    HW213059   2.992   1.402   6.399
 4103SOL     OW13060   2.181   0.810   6.535
 4103SOL    HW113061   2.274   0.846   6.540
 4103SOL    HW213062   2.175   0.725   6.587
 4104SOL     OW13063   2.201   0.509   6.592
 4104SOL    HW113064   2.149   0.426   6.575
 4104SOL    HW213065   2.278   0.514   6.528
 4105SOL     OW13066   3.000   0.380   7.264
 4105SOL    HW113067   2.955   0.443   7.328
 4105SOL    HW213068   3.093   0.411   7.247
 4106SOL     OW13069   3.022   0.207   7.063
 4106SOL    HW113070   3.022   0.271   7.140
 4106SOL    HW213071   3.050   0.255   6.980
 4107SOL     OW13072   1.870   1.326   5.786
 4107SOL    HW113073   1.777   1.347   5.755
 4107SOL    HW213074   1.880   1.227   5.799
 4108SOL     OW13075   2.864   0.796   6.824
 4108SOL    HW113076   2.905   0.764   6.910
 4108SOL    HW213077   2.768   0.769   6.821
 4109SOL     OW13078   1.902   0.544   6.700
 4109SOL    HW113079   1.987   0.511   6.659
 4109SOL    HW213080   1.915   0.559   6.798
 4110SOL     OW13081   2.051   0.520   7.308
 4110SOL    HW113082   2.110   0.480   7.238
 4110SOL    HW213083   1.993   0.591   7.267
 4111SOL     OW13084   3.231   0.950   7.246
 4111SOL    HW113085   3.270   1.039   7.266
 4111SOL    HW213086   3.241   0.930   7.149
 4112SOL     OW13087   2.677   0.572   5.911
 4112SOL    HW113088   2.684   0.483   5.865
 4112SOL    HW213089   2.583   0.606   5.903
 4113SOL     OW13090   3.519   0.604   6.792
 4113SOL    HW113091   3.481   0.535   6.854
 4113SOL    HW213092   3.601   0.568   6.748
 4114SOL     OW13093   2.533   0.464   6.855
 4114SOL    HW113094   2.499   0.375   6.825
 4114SOL    HW213095   2.559   0.518   6.775
 4115SOL     OW13096   2.792   1.678   7.051
 4115SOL    HW113097   2.768   1.660   6.956
 4115SOL    HW213098   2.822   1.772   7.061
 4116SOL     OW13099   2.335   0.500   5.777
 4116SOL    HW113100   2.396   0.580   5.781
 4116SOL    HW213101   2.240   0.531   5.784
 4117SOL     OW13102   2.021   1.137   7.052
 4117SOL    HW113103   2.043   1.076   7.128
 4117SOL    HW213104   2.031   1.088   6.966
 4118SOL     OW13105   3.209   1.059   6.820
 4118SOL    HW113106   3.233   0.996   6.746
 4118SOL    HW213107   3.119   1.099   6.802
 4119SOL     OW13108   3.164   0.855   5.895
 4119SOL    HW113109   3.078   0.824   5.937
 4119SOL    HW213110   3.160   0.841   5.796
 4120SOL     OW13111   3.621   1.747   6.740
 4120SOL    HW113112   3.682   1.777   6.667
 4120SOL    HW213113   3.583   1.658   6.718
 4121SOL     OW13114   3.114   1.731   6.714
 4121SOL    HW113115   3.198   1.736   6.660
 4121SOL    HW213116   3.091   1.635   6.732
 4122SOL     OW13117   3.588   0.135   6.109
 4122SOL    HW113118   3.661   0.118   6.042
 4122SOL    HW213119   3.557   0.048   6.147
 4123SOL     OW13120   3.250   1.573   6.063
 4123SOL    HW113121   3.317   1.585   5.989
 4123SOL    HW213122   3.210   1.662   6.086
 4124SOL     OW13123   3.142   0.927   6.258
 4124SOL    HW113124   3.202   0.846   6.260
 4124SOL    HW213125   3.182   0.996   6.198
 4125SOL     OW13126   2.692   1.273   7.008
 4125SOL    HW113127   2.687   1.306   7.103
 4125SOL    HW213128   2.606   1.292   6.962
 4126SOL     OW13129   2.534   1.616   5.740
 4126SOL    HW113130   2.543   1.626   5.641
 4126SOL    HW213131   2.494   1.527   5.761
 4127SOL     OW13132   3.512   1.720   6.980
 4127SOL    HW113133   3.565   1.730   6.896
 4127SOL    HW213134   3.485   1.810   7.014
 4128SOL     OW13135   3.703   0.175   6.549
 4128SOL    HW113136   3.742   0.090   6.513
 4128SOL    HW213137   3.605   0.177   6.530
 4129SOL     OW13138   2.125   0.326   6.306
 4129SOL    HW113139   2.046   0.377   6.272
 4129SOL    HW213140   2.116   0.311   6.404
 4130SOL     OW13141   3.056   1.612   5.617
 4130SOL    HW113142   3.062   1.519   5.654
 4130SOL    HW213143   2.997   1.612   5.537
 4131SOL     OW13144   2.684   1.002   6.958
 4131SOL    HW113145   2.724   1.001   6.866
 4131SOL    HW213146   2.694   1.094   6.998
 4132SOL     OW13147   2.778   0.910   5.877
 4132SOL    HW113148   2.841   0.948   5.809
 4132SOL    HW213149   2.818   0.827   5.916
 4133SOL     OW13150   3.366   1.607   5.630
 4133SOL    HW113151   3.274   1.644   5.637
 4133SOL    HW213152   3.404   1.627   5.540
 4134SOL     OW13153   2.234   1.288   7.076
 4134SOL    HW113154   2.221   1.381   7.042
 4134SOL    HW213155   2.150   1.236   7.063
 4135SOL     OW13156   3.476   1.292   6.875
 4135SOL    HW113157   3.536   1.295   6.955
 4135SOL    HW213158   3.401   1.356   6.888
 4136SOL     OW13159   2.901   1.098   6.282
 4136SOL    HW113160   2.831   1.051   6.336
 4136SOL    HW213161   2.960   1.030   6.239
 4137SOL     OW13162   2.876   0.236   6.557
 4137SOL    HW113163   2.868   0.200   6.464
 4137SOL    HW213164   2.874   0.160   6.622
 4138SOL     OW13165   3.571   0.385   6.967
 4138SOL    HW113166   3.644   0.454   6.971
 4138SOL    HW213167   3.599   0.310   6.908
 4139SOL     OW13168   2.117   1.348   5.876
 4139SOL    HW113169   2.021   1.349   5.849
 4139SOL    HW213170   2.129   1.401   5.960
 4140SOL     OW13171   1.967   1.013   7.312
 4140SOL    HW113172   1.890   0.980   7.366
 4140SOL    HW213173   2.052   0.983   7.354
 4141SOL     OW13174   2.534   0.203   7.075
 4141SOL    HW113175   2.624   0.187   7.035
 4141SOL    HW213176   2.542   0.208   7.174
 4142SOL     OW13177   1.937   0.345   5.619
 4142SOL    HW113178   1.845   0.317   5.590
 4142SOL    HW213179   1.968   0.422   5.563
 4143SOL     OW13180   3.302   0.856   6.984
 4143SOL    HW113181   3.245   0.908   6.921
 4143SOL    HW213182   3.398   0.868   6.960
 4144SOL     OW13183   1.934   0.166   5.904
 4144SOL    HW113184   1.917   0.249   5.850
 4144SOL    HW213185   2.024   0.129   5.882
 4145SOL     OW13186   3.045   1.335   5.705
 4145SOL    HW113187   2.946   1.324   5.707
 4145SOL    HW213188   3.079   1.350   5.798
 4146SOL     OW13189   2.475   0.842   7.017
 4146SOL    HW113190   2.531   0.923   7.000
 4146SOL    HW213191   2.534   0.762   7.020
 4147SOL     OW13192   3.355   1.767   6.545
 4147SOL    HW113193   3.388   1.831   6.476
 4147SOL    HW213194   3.421   1.761   6.620
 4148SOL     OW13195   2.578   0.565   7.294
 4148SOL    HW113196   2.597   0.630   7.368
 4148SOL    HW213197   2.638   0.485   7.303
 4149SOL     OW13198   3.312   1.220   7.219
 4149SOL    HW113199   3.303   1.210   7.318
 4149SOL    HW213200   3.408   1.213   7.193
 4150SOL     OW13201   2.252   1.741   7.146
 4150SOL    HW113202   2.161   1.782   7.144
 4150SOL    HW213203   2.245   1.647   7.178
 4151SOL     OW13204   3.536   0.883   6.840
 4151SOL    HW113205   3.509   0.794   6.803
 4151SOL    HW213206   3.537   0.951   6.767
 4152SOL     OW13207   3.087   0.325   6.035
 4152SOL    HW113208   3.152   0.251   6.024
 4152SOL    HW213209   3.107   0.375   6.119
 4153SOL     OW13210   2.456   0.745   6.238
 4153SOL    HW113211   2.506   0.830   6.219
 4153SOL    HW213212   2.368   0.747   6.190
 4154SOL     OW13213   3.639   0.342   7.228
 4154SOL    HW113214   3.622   0.373   7.134
 4154SOL    HW213215   3.555   0.305   7.266
 4155SOL     OW13216   3.592   0.934   7.103
 4155SOL    HW113217   3.630   1.025   7.118
 4155SOL    HW213218   3.584   0.917   7.004
 4156SOL     OW13219   2.721   1.374   5.602
 4156SOL    HW113220   2.675   1.389   5.690
 4156SOL    HW213221   2.765   1.459   5.572
 4157SOL     OW13222   2.721   0.956   6.447
 4157SOL    HW113223   2.775   0.887   6.495
 4157SOL    HW213224   2.689   1.025   6.513
 4158SOL     OW13225   2.945   0.984   5.673
 4158SOL    HW113226   2.922   1.037   5.591
 4158SOL    HW213227   3.026   0.928   5.654
 4159SOL     OW13228   3.723   1.569   6.437
 4159SOL    HW113229   3.652   1.557   6.367
 4159SOL    HW213230   3.724   1.490   6.497
 4160SOL     OW13231   3.686   0.192   6.813
 4160SOL    HW113232   3.682   0.102   6.857
 4160SOL    HW213233   3.689   0.181   6.714
 4161SOL     OW13234   2.290   0.424   6.106
 4161SOL    HW113235   2.320   0.352   6.044
 4161SOL    HW213236   2.251   0.384   6.189
 4162SOL     OW13237   3.567   1.487   6.690
 4162SOL    HW113238   3.474   1.462   6.663
 4162SOL    HW213239   3.593   1.437   6.772
 4163SOL     OW13240   2.179   0.547   6.866
 4163SOL    HW113241   2.217   0.488   6.938
 4163SOL    HW213242   2.219   0.521   6.778
 4164SOL     OW13243   3.286   0.214   6.698
 4164SOL    HW113244   3.338   0.149   6.753
 4164SOL    HW213245   3.237   0.277   6.759
 4165SOL     OW13246   2.863   0.034   6.740
 4165SOL    HW113247   2.800  -0.038   6.709
 4165SOL    HW213248   2.956  -0.002   6.740
 4166SOL     OW13249   2.632   1.330   5.887
 4166SOL    HW113250   2.586   1.243   5.904
 4166SOL    HW213251   2.723   1.327   5.928
 4167SOL     OW13252   3.214   0.052   5.754
 4167SOL    HW113253   3.249   0.011   5.670
 4167SOL    HW213254   3.124   0.014   5.774
 4168SOL     OW13255   3.162   0.453   6.277
 4168SOL    HW113256   3.103   0.533   6.281
 4168SOL    HW213257   3.177   0.418   6.370
 4169SOL     OW13258   3.455   0.221   6.468
 4169SOL    HW113259   3.371   0.220   6.522
 4169SOL    HW213260   3.457   0.304   6.412
 4170SOL     OW13261   1.901   1.077   5.886
 4170SOL    HW113262   2.000   1.066   5.877
 4170SOL    HW213263   1.861   0.991   5.918
 4171SOL     OW13264   2.092   0.628   7.561
 4171SOL    HW113265   1.999   0.626   7.598
 4171SOL    HW213266   2.093   0.589   7.469
 4172SOL     OW13267   2.087   0.275   8.444
 4172SOL    HW113268   2.122   0.258   8.536
 4172SOL    HW213269   1.999   0.230   8.432
 4173SOL     OW13270   1.881   0.368   8.095
 4173SOL    HW113271   1.799   0.411   8.134
 4173SOL    HW213272   1.853   0.295   8.032
 4174SOL     OW13273   2.431   1.275   8.613
 4174SOL    HW113274   2.338   1.268   8.576
 4174SOL    HW213275   2.442   1.364   8.657
 4175SOL     OW13276   3.417   1.511   8.151
 4175SOL    HW113277   3.360   1.495   8.232
 4175SOL    HW213278   3.358   1.521   8.071
 4176SOL     OW13279   2.997   0.703   8.165
 4176SOL    HW113280   3.054   0.781   8.140
 4176SOL    HW213281   2.937   0.729   8.241
 4177SOL     OW13282   3.617   0.607   7.679
 4177SOL    HW113283   3.605   0.594   7.580
 4177SOL    HW213284   3.587   0.526   7.728
 4178SOL     OW13285   2.630   1.144   8.471
 4178SOL    HW113286   2.552   1.161   8.531
 4178SOL    HW213287   2.664   1.231   8.435
 4179SOL     OW13288   2.712   0.798   9.271
 4179SOL    HW113289   2.708   0.874   9.336
 4179SOL    HW213290   2.734   0.834   9.180
 4180SOL     OW13291   2.547   1.012   8.113
 4180SOL    HW113292   2.616   0.996   8.183
 4180SOL    HW213293   2.474   1.069   8.151
 4181SOL     OW13294   2.548   1.161   9.251
 4181SOL    HW113295   2.608   1.240   9.265
 4181SOL    HW213296   2.462   1.192   9.210
 4182SOL     OW13297   2.197   1.435   8.509
 4182SOL    HW113298   2.119   1.404   8.456
 4182SOL    HW213299   2.255   1.493   8.452
 4183SOL     OW13300   3.322   1.505   8.787
 4183SOL    HW113301   3.346   1.599   8.813
 4183SOL    HW213302   3.306   1.451   8.869
 4184SOL     OW13303   2.300   0.392   8.947
 4184SOL    HW113304   2.382   0.336   8.956
 4184SOL    HW213305   2.219   0.334   8.951
 4185SOL     OW13306   3.465   0.447   8.185
 4185SOL    HW113307   3.391   0.493   8.135
 4185SOL    HW213308   3.516   0.515   8.238
 4186SOL     OW13309   2.093   1.713   7.931
 4186SOL    HW113310   2.127   1.790   7.985
 4186SOL    HW213311   2.137   1.713   7.841
 4187SOL     OW13312   2.989   1.341   9.138
 4187SOL    HW113313   3.036   1.341   9.226
 4187SOL    HW213314   2.941   1.254   9.127
 4188SOL     OW13315   2.092   1.434   7.986
 4188SOL    HW113316   2.066   1.530   7.986
 4188SOL    HW213317   2.021   1.380   8.031
 4189SOL     OW13318   2.102   1.091   8.334
 4189SOL    HW113319   2.116   1.007   8.386
 4189SOL    HW213320   2.047   1.155   8.389
 4190SOL     OW13321   2.482   1.786   8.887
 4190SOL    HW113322   2.390   1.769   8.922
 4190SOL    HW213323   2.510   1.878   8.913
 4191SOL     OW13324   2.468   0.964   7.571
 4191SOL    HW113325   2.475   1.048   7.517
 4191SOL    HW213326   2.514   0.977   7.659
 4192SOL     OW13327   3.456   0.114   8.928
 4192SOL    HW113328   3.438   0.181   8.856
 4192SOL    HW213329   3.453   0.160   9.017
 4193SOL     OW13330   1.984   0.643   8.011
 4193SOL    HW113331   1.939   0.555   8.028
 4193SOL    HW213332   1.983   0.697   8.095
 4194SOL     OW13333   3.704   1.767   7.807
 4194SOL    HW113334   3.758   1.738   7.887
 4194SOL    HW213335   3.734   1.857   7.778
 4195SOL     OW13336   3.551   0.922   8.060
 4195SOL    HW113337   3.646   0.893   8.068
 4195SOL    HW213338   3.543   0.987   7.985
 4196SOL     OW13339   3.503   1.108   7.880
 4196SOL    HW113340   3.589   1.110   7.828
 4196SOL    HW213341   3.517   1.155   7.968
 4197SOL     OW13342   1.975   0.737   9.045
 4197SOL    HW113343   2.063   0.724   9.090
 4197SOL    HW213344   1.962   0.834   9.023
 4198SOL     OW13345   2.475   1.365   8.174
 4198SOL    HW113346   2.426   1.278   8.183
 4198SOL    HW213347   2.452   1.408   8.087
 4199SOL     OW13348   3.155   1.228   8.871
 4199SOL    HW113349   3.192   1.155   8.813
 4199SOL    HW213350   3.207   1.233   8.956
 4200SOL     OW13351   2.671   0.004   7.950
 4200SOL    HW113352   2.711   0.095   7.941
 4200SOL    HW213353   2.571   0.012   7.956
 4201SOL     OW13354   2.059   0.976   8.712
 4201SOL    HW113355   2.148   0.931   8.698
 4201SOL    HW213356   1.986   0.911   8.693
 4202SOL     OW13357   3.387   0.999   7.638
 4202SOL    HW113358   3.324   0.923   7.651
 4202SOL    HW213359   3.435   1.017   7.724
 4203SOL     OW13360   3.049   1.792   9.064
 4203SOL    HW113361   3.073   1.852   8.988
 4203SOL    HW213362   3.056   1.697   9.034
 4204SOL     OW13363   2.179   0.251   9.249
 4204SOL    HW113364   2.250   0.322   9.255
 4204SOL    HW213365   2.091   0.290   9.277
 4205SOL     OW13366   3.328   1.417   8.401
 4205SOL    HW113367   3.269   1.423   8.481
 4205SOL    HW213368   3.313   1.329   8.355
 4206SOL     OW13369   3.529   1.714   8.020
 4206SOL    HW113370   3.488   1.691   7.932
 4206SOL    HW213371   3.511   1.640   8.085
 4207SOL     OW13372   2.460   0.729   7.718
 4207SOL    HW113373   2.484   0.798   7.650
 4207SOL    HW213374   2.382   0.762   7.772
 4208SOL     OW13375   3.143   0.345   8.392
 4208SOL    HW113376   3.057   0.295   8.379
 4208SOL    HW213377   3.205   0.291   8.448
 4209SOL     OW13378   3.438   1.662   7.755
 4209SOL    HW113379   3.527   1.708   7.758
 4209SOL    HW213380   3.417   1.638   7.660
 4210SOL     OW13381   2.669   0.605   8.913
 4210SOL    HW113382   2.622   0.602   9.002
 4210SOL    HW213383   2.618   0.550   8.847
 4211SOL     OW13384   3.256   0.469   9.122
 4211SOL    HW113385   3.236   0.512   9.210
 4211SOL    HW213386   3.334   0.407   9.131
 4212SOL     OW13387   2.835   0.890   9.020
 4212SOL    HW113388   2.881   0.806   8.991
 4212SOL    HW213389   2.779   0.924   8.945
 4213SOL     OW13390   2.853   0.410   8.690
 4213SOL    HW113391   2.776   0.444   8.744
 4213SOL    HW213392   2.819   0.359   8.611
 4214SOL     OW13393   2.903   0.701   7.877
 4214SOL    HW113394   2.929   0.697   7.973
 4214SOL    HW213395   2.818   0.650   7.863
 4215SOL     OW13396   1.938   0.811   8.237
 4215SOL    HW113397   2.037   0.799   8.246
 4215SOL    HW213398   1.914   0.906   8.258
 4216SOL     OW13399   2.727   0.348   7.643
 4216SOL    HW113400   2.786   0.411   7.594
 4216SOL    HW213401   2.746   0.254   7.614
 4217SOL     OW13402   3.581   0.585   9.279
 4217SOL    HW113403   3.555   0.674   9.243
 4217SOL    HW213404   3.579   0.517   9.206
 4218SOL     OW13405   3.224   1.144   7.993
 4218SOL    HW113406   3.307   1.115   7.945
 4218SOL    HW213407   3.175   1.211   7.937
 4219SOL     OW13408   2.412   0.196   8.333
 4219SOL    HW113409   2.407   0.191   8.433
 4219SOL    HW213410   2.414   0.292   8.304
 4220SOL     OW13411   2.870   1.456   7.925
 4220SOL    HW113412   2.824   1.528   7.873
 4220SOL    HW213413   2.866   1.476   8.023
 4221SOL     OW13414   2.213   1.801   8.301
 4221SOL    HW113415   2.263   1.715   8.307
 4221SOL    HW213416   2.278   1.878   8.298
 4222SOL     OW13417   3.657   1.066   8.321
 4222SOL    HW113418   3.595   1.051   8.245
 4222SOL    HW213419   3.605   1.077   8.406
 4223SOL     OW13420   3.089   1.550   8.954
 4223SOL    HW113421   3.095   1.473   9.018
 4223SOL    HW213422   3.037   1.524   8.874
 4224SOL     OW13423   2.183   0.943   7.690
 4224SOL    HW113424   2.265   0.982   7.648
 4224SOL    HW213425   2.156   0.861   7.641
 4225SOL     OW13426   3.320   0.735   8.176
 4225SOL    HW113427   3.315   0.670   8.251
 4225SOL    HW213428   3.400   0.794   8.189
 4226SOL     OW13429   2.323   1.266   9.175
 4226SOL    HW113430   2.273   1.267   9.089
 4226SOL    HW213431   2.260   1.248   9.251
 4227SOL     OW13432   2.973   1.776   7.685
 4227SOL    HW113433   2.913   1.714   7.735
 4227SOL    HW213434   3.004   1.732   7.600
 4228SOL     OW13435   2.064   0.285   8.946
 4228SOL    HW113436   1.984   0.345   8.933
 4228SOL    HW213437   2.054   0.236   9.032
 4229SOL     OW13438   3.494   1.377   7.529
 4229SOL    HW113439   3.462   1.471   7.519
 4229SOL    HW213440   3.418   1.314   7.517
 4230SOL     OW13441   3.262   0.107   7.874
 4230SOL    HW113442   3.238   0.070   7.784
 4230SOL    HW213443   3.361   0.123   7.878
 4231SOL     OW13444   2.111   1.785   8.689
 4231SOL    HW113445   2.168   1.720   8.739
 4231SOL    HW213446   2.095   1.752   8.596
 4232SOL     OW13447   2.802   1.698   8.352
 4232SOL    HW113448   2.882   1.641   8.373
 4232SOL    HW213449   2.753   1.658   8.275
 4233SOL     OW13450   2.244   0.700   7.928
 4233SOL    HW113451   2.289   0.610   7.925
 4233SOL    HW213452   2.150   0.689   7.961
 4234SOL     OW13453   3.409   0.222   9.177
 4234SOL    HW113454   3.404   0.259   9.269
 4234SOL    HW213455   3.337   0.153   9.165
 4235SOL     OW13456   2.476   0.122   7.565
 4235SOL    HW113457   2.574   0.100   7.572
 4235SOL    HW213458   2.445   0.105   7.472
 4236SOL     OW13459   2.643   0.264   9.197
 4236SOL    HW113460   2.710   0.203   9.240
 4236SOL    HW213461   2.570   0.283   9.262
 4237SOL     OW13462   2.750   1.514   8.643
 4237SOL    HW113463   2.727   1.489   8.549
 4237SOL    HW213464   2.811   1.445   8.682
 4238SOL     OW13465   3.213   0.590   8.881
 4238SOL    HW113466   3.241   0.547   8.966
 4238SOL    HW213467   3.238   0.686   8.882
 4239SOL     OW13468   2.665   1.402   8.372
 4239SOL    HW113469   2.755   1.416   8.330
 4239SOL    HW213470   2.594   1.404   8.301
 4240SOL     OW13471   2.784   0.503   8.347
 4240SOL    HW113472   2.759   0.494   8.251
 4240SOL    HW213473   2.832   0.421   8.378
 4241SOL     OW13474   2.401   0.064   7.960
 4241SOL    HW113475   2.320   0.065   8.018
 4241SOL    HW213476   2.404   0.147   7.905
 4242SOL     OW13477   3.296   1.188   7.489
 4242SOL    HW113478   3.328   1.112   7.546
 4242SOL    HW213479   3.204   1.215   7.519
 4243SOL     OW13480   2.159   0.035   7.619
 4243SOL    HW113481   2.208   0.119   7.598
 4243SOL    HW213482   2.221  -0.030   7.664
 4244SOL     OW13483   2.797   0.236   7.928
 4244SOL    HW113484   2.749   0.277   7.850
 4244SOL    HW213485   2.896   0.234   7.909
 4245SOL     OW13486   2.938   0.683   8.912
 4245SOL    HW113487   2.858   0.622   8.915
 4245SOL    HW213488   3.019   0.630   8.888
 4246SOL     OW13489   3.089   1.570   8.241
 4246SOL    HW113490   3.110   1.644   8.176
 4246SOL    HW213491   3.157   1.570   8.314
 4247SOL     OW13492   2.321   1.152   8.189
 4247SOL    HW113493   2.250   1.125   8.254
 4247SOL    HW213494   2.295   1.124   8.096
 4248SOL     OW13495   3.133   1.797   8.039
 4248SOL    HW113496   3.177   1.861   7.975
 4248SOL    HW213497   3.083   1.849   8.109
 4249SOL     OW13498   2.894   0.549   7.464
 4249SOL    HW113499   2.853   0.631   7.425
 4249SOL    HW213500   2.958   0.575   7.537
 4250SOL     OW13501   1.940   0.556   8.834
 4250SOL    HW113502   2.032   0.555   8.793
 4250SOL    HW213503   1.934   0.630   8.901
 4251SOL     OW13504   2.423   0.222   8.595
 4251SOL    HW113505   2.461   0.138   8.632
 4251SOL    HW213506   2.335   0.241   8.639
 4252SOL     OW13507   2.728   0.454   8.090
 4252SOL    HW113508   2.696   0.526   8.028
 4252SOL    HW213509   2.752   0.373   8.037
 4253SOL     OW13510   2.879   0.039   8.201
 4253SOL    HW113511   2.807   0.044   8.132
 4253SOL    HW213512   2.855  -0.030   8.270
 4254SOL     OW13513   3.291   1.173   8.315
 4254SOL    HW113514   3.236   1.089   8.308
 4254SOL    HW213515   3.317   1.202   8.223
 4255SOL     OW13516   3.328   0.590   8.440
 4255SOL    HW113517   3.298   0.495   8.447
 4255SOL    HW213518   3.401   0.606   8.506
 4256SOL     OW13519   3.719   0.833   7.825
 4256SOL    HW113520   3.761   0.769   7.889
 4256SOL    HW213521   3.681   0.782   7.747
 4257SOL     OW13522   3.526   1.280   8.105
 4257SOL    HW113523   3.625   1.288   8.119
 4257SOL    HW213524   3.481   1.364   8.136
 4258SOL     OW13525   3.252   0.575   7.526
 4258SOL    HW113526   3.198   0.554   7.607
 4258SOL    HW213527   3.343   0.534   7.535
 4259SOL     OW13528   2.389   0.256   7.776
 4259SOL    HW113529   2.416   0.197   7.701
 4259SOL    HW213530   2.389   0.351   7.745
 4260SOL     OW13531   3.616   1.223   9.036
 4260SOL    HW113532   3.707   1.184   9.023
 4260SOL    HW213533   3.624   1.319   9.060
 4261SOL     OW13534   2.926   1.347   8.788
 4261SOL    HW113535   2.846   1.324   8.843
 4261SOL    HW213536   3.009   1.321   8.837
 4262SOL     OW13537   3.454   1.629   9.073
 4262SOL    HW113538   3.481   1.663   8.983
 4262SOL    HW213539   3.533   1.591   9.119
 4263SOL     OW13540   2.973   1.195   8.548
 4263SOL    HW113541   2.933   1.239   8.629
 4263SOL    HW213542   2.932   1.232   8.465
 4264SOL     OW13543   3.500   1.099   8.527
 4264SOL    HW113544   3.505   1.180   8.586
 4264SOL    HW213545   3.414   1.101   8.476
 4265SOL     OW13546   2.777   0.089   8.850
 4265SOL    HW113547   2.802   0.069   8.755
 4265SOL    HW213548   2.849   0.145   8.892
 4266SOL     OW13549   2.842   1.116   9.167
 4266SOL    HW113550   2.743   1.122   9.177
 4266SOL    HW213551   2.865   1.036   9.111
 4267SOL     OW13552   2.567   1.050   7.816
 4267SOL    HW113553   2.553   1.057   7.915
 4267SOL    HW213554   2.651   0.999   7.798
 4268SOL     OW13555   2.272   0.813   8.699
 4268SOL    HW113556   2.358   0.825   8.749
 4268SOL    HW213557   2.230   0.726   8.726
 4269SOL     OW13558   3.136   0.386   8.710
 4269SOL    HW113559   3.157   0.460   8.774
 4269SOL    HW213560   3.047   0.403   8.667
 4270SOL     OW13561   1.926   1.564   8.779
 4270SOL    HW113562   1.880   1.646   8.745
 4270SOL    HW213563   2.024   1.583   8.788
 4271SOL     OW13564   2.229   1.100   7.949
 4271SOL    HW113565   2.222   1.183   7.893
 4271SOL    HW213566   2.233   1.020   7.889
 4272SOL     OW13567   2.428   0.537   8.313
 4272SOL    HW113568   2.440   0.603   8.239
 4272SOL    HW213569   2.474   0.571   8.396
 4273SOL     OW13570   3.114   1.348   7.836
 4273SOL    HW113571   3.164   1.425   7.876
 4273SOL    HW213572   3.019   1.350   7.868
 4274SOL     OW13573   3.134   1.445   8.590
 4274SOL    HW113574   3.181   1.458   8.677
 4274SOL    HW213575   3.068   1.371   8.599
 4275SOL     OW13576   3.444   0.639   7.920
 4275SOL    HW113577   3.413   0.700   7.993
 4275SOL    HW213578   3.494   0.691   7.851
 4276SOL     OW13579   2.216   1.510   8.777
 4276SOL    HW113580   2.195   1.466   8.690
 4276SOL    HW213581   2.313   1.536   8.780
 4277SOL     OW13582   2.264   0.751   9.046
 4277SOL    HW113583   2.332   0.806   8.999
 4277SOL    HW213584   2.304   0.663   9.073
 4278SOL     OW13585   3.449   0.779   9.118
 4278SOL    HW113586   3.357   0.817   9.113
 4278SOL    HW213587   3.509   0.826   9.053
 4279SOL     OW13588   2.875   0.105   9.218
 4279SOL    HW113589   2.881   0.190   9.166
 4279SOL    HW213590   2.907   0.029   9.161
 4280SOL     OW13591   2.366   0.050   9.188
 4280SOL    HW113592   2.324  -0.007   9.118
 4280SOL    HW213593   2.300   0.119   9.220
 4281SOL     OW13594   2.435   0.870   8.477
 4281SOL    HW113595   2.479   0.959   8.468
 4281SOL    HW213596   2.372   0.870   8.554
 4282SOL     OW13597   3.222   0.862   8.493
 4282SOL    HW113598   3.147   0.862   8.427
 4282SOL    HW213599   3.259   0.770   8.502
 4283SOL     OW13600   3.071   0.525   7.723
 4283SOL    HW113601   3.084   0.441   7.777
 4283SOL    HW213602   3.042   0.599   7.783
 4284SOL     OW13603   2.169   0.213   8.679
 4284SOL    HW113604   2.146   0.250   8.769
 4284SOL    HW213605   2.139   0.118   8.673
 4285SOL     OW13606   1.899   1.310   8.730
 4285SOL    HW113607   1.952   1.261   8.798
 4285SOL    HW213608   1.921   1.408   8.735
 4286SOL     OW13609   2.594   0.634   8.512
 4286SOL    HW113610   2.653   0.608   8.436
 4286SOL    HW213611   2.566   0.730   8.501
 4287SOL     OW13612   3.590   0.935   9.302
 4287SOL    HW113613   3.544   0.928   9.213
 4287SOL    HW213614   3.528   0.979   9.368
 4288SOL     OW13615   2.169   0.063   8.066
 4288SOL    HW113616   2.158   0.157   8.099
 4288SOL    HW213617   2.164   0.000   8.143
 4289SOL     OW13618   3.484   0.367   7.822
 4289SOL    HW113619   3.486   0.291   7.886
 4289SOL    HW213620   3.436   0.444   7.862
 4290SOL     OW13621   2.885   0.766   8.414
 4290SOL    HW113622   2.900   0.787   8.510
 4290SOL    HW213623   2.855   0.671   8.405
 4291SOL     OW13624   2.842   1.573   9.148
 4291SOL    HW113625   2.822   1.617   9.060
 4291SOL    HW213626   2.881   1.482   9.132
 4292SOL     OW13627   3.721   1.518   9.053
 4292SOL    HW113628   3.735   1.545   8.958
 4292SOL    HW213629   3.804   1.540   9.106
 4293SOL     OW13630   2.212   0.898   9.252
 4293SOL    HW113631   2.288   0.942   9.300
 4293SOL    HW213632   2.247   0.851   9.170
 4294SOL     OW13633   3.402   0.274   7.573
 4294SOL    HW113634   3.341   0.199   7.596
 4294SOL    HW213635   3.424   0.326   7.656
 4295SOL     OW13636   3.165   0.838   7.490
 4295SOL    HW113637   3.199   0.745   7.505
 4295SOL    HW213638   3.183   0.865   7.395
 4296SOL     OW13639   2.930   1.333   8.297
 4296SOL    HW113640   2.937   1.249   8.242
 4296SOL    HW213641   2.992   1.402   8.261
 4297SOL     OW13642   2.181   0.810   8.397
 4297SOL    HW113643   2.274   0.846   8.402
 4297SOL    HW213644   2.175   0.725   8.449
 4298SOL     OW13645   2.201   0.509   8.454
 4298SOL    HW113646   2.149   0.426   8.437
 4298SOL    HW213647   2.278   0.514   8.390
 4299SOL     OW13648   3.000   0.380   9.126
 4299SOL    HW113649   2.955   0.443   9.190
 4299SOL    HW213650   3.093   0.411   9.109
 4300SOL     OW13651   3.022   0.207   8.925
 4300SOL    HW113652   3.022   0.271   9.002
 4300SOL    HW213653   3.050   0.255   8.842
 4301SOL     OW13654   2.366   1.568   8.358
 4301SOL    HW113655   2.432   1.642   8.367
 4301SOL    HW213656   2.410   1.489   8.316
 4302SOL     OW13657   2.864   0.796   8.686
 4302SOL    HW113658   2.905   0.764   8.772
 4302SOL    HW213659   2.768   0.769   8.683
 4303SOL     OW13660   1.902   0.544   8.562
 4303SOL    HW113661   1.987   0.511   8.521
 4303SOL    HW213662   1.915   0.559   8.660
 4304SOL     OW13663   2.051   0.520   9.170
 4304SOL    HW113664   2.110   0.480   9.100
 4304SOL    HW213665   1.993   0.591   9.129
 4305SOL     OW13666   3.231   0.950   9.108
 4305SOL    HW113667   3.270   1.039   9.128
 4305SOL    HW213668   3.241   0.930   9.011
 4306SOL     OW13669   2.677   0.572   7.773
 4306SOL    HW113670   2.684   0.483   7.727
 4306SOL    HW213671   2.583   0.606   7.765
 4307SOL     OW13672   3.519   0.604   8.654
 4307SOL    HW113673   3.481   0.535   8.716
 4307SOL    HW213674   3.601   0.568   8.610
 4308SOL     OW13675   2.114   1.564   9.192
 4308SOL    HW113676   2.084   1.621   9.268
 4308SOL    HW213677   2.107   1.467   9.218
 4309SOL     OW13678   2.533   0.464   8.717
 4309SOL    HW113679   2.499   0.375   8.687
 4309SOL    HW213680   2.559   0.518   8.637
 4310SOL     OW13681   2.792   1.678   8.913
 4310SOL    HW113682   2.768   1.660   8.818
 4310SOL    HW213683   2.822   1.772   8.923
 4311SOL     OW13684   2.335   0.500   7.639
 4311SOL    HW113685   2.396   0.580   7.643
 4311SOL    HW213686   2.240   0.531   7.646
 4312SOL     OW13687   2.021   1.137   8.914
 4312SOL    HW113688   2.043   1.076   8.990
 4312SOL    HW213689   2.031   1.088   8.828
 4313SOL     OW13690   3.209   1.059   8.682
 4313SOL    HW113691   3.233   0.996   8.608
 4313SOL    HW213692   3.119   1.099   8.664
 4314SOL     OW13693   3.164   0.855   7.757
 4314SOL    HW113694   3.078   0.824   7.799
 4314SOL    HW213695   3.160   0.841   7.658
 4315SOL     OW13696   3.621   1.747   8.602
 4315SOL    HW113697   3.682   1.777   8.529
 4315SOL    HW213698   3.583   1.658   8.580
 4316SOL     OW13699   3.114   1.731   8.576
 4316SOL    HW113700   3.198   1.736   8.522
 4316SOL    HW213701   3.091   1.635   8.594
 4317SOL     OW13702   1.945   1.258   8.470
 4317SOL    HW113703   1.940   1.257   8.570
 4317SOL    HW213704   1.862   1.217   8.432
 4318SOL     OW13705   2.550   1.662   9.164
 4318SOL    HW113706   2.494   1.743   9.173
 4318SOL    HW213707   2.602   1.666   9.078
 4319SOL     OW13708   3.588   0.135   7.971
 4319SOL    HW113709   3.661   0.118   7.904
 4319SOL    HW213710   3.557   0.048   8.009
 4320SOL     OW13711   3.250   1.573   7.925
 4320SOL    HW113712   3.317   1.585   7.851
 4320SOL    HW213713   3.210   1.662   7.948
 4321SOL     OW13714   3.142   0.927   8.120
 4321SOL    HW113715   3.202   0.846   8.122
 4321SOL    HW213716   3.182   0.996   8.060
 4322SOL     OW13717   2.692   1.273   8.870
 4322SOL    HW113718   2.687   1.306   8.965
 4322SOL    HW213719   2.606   1.292   8.824
 4323SOL     OW13720   3.512   1.720   8.842
 4323SOL    HW113721   3.565   1.730   8.758
 4323SOL    HW213722   3.485   1.810   8.876
 4324SOL     OW13723   3.703   0.175   8.411
 4324SOL    HW113724   3.742   0.090   8.375
 4324SOL    HW213725   3.605   0.177   8.392
 4325SOL     OW13726   2.125   0.326   8.168
 4325SOL    HW113727   2.046   0.377   8.134
 4325SOL    HW213728   2.116   0.311   8.266
 4326SOL     OW13729   3.056   1.612   7.479
 4326SOL    HW113730   3.062   1.519   7.516
 4326SOL    HW213731   2.997   1.612   7.399
 4327SOL     OW13732   2.684   1.002   8.820
 4327SOL    HW113733   2.724   1.001   8.728
 4327SOL    HW213734   2.694   1.094   8.860
 4328SOL     OW13735   2.778   0.910   7.739
 4328SOL    HW113736   2.841   0.948   7.671
 4328SOL    HW213737   2.818   0.827   7.778
 4329SOL     OW13738   3.366   1.607   7.492
 4329SOL    HW113739   3.274   1.644   7.499
 4329SOL    HW213740   3.404   1.627   7.402
 4330SOL     OW13741   2.234   1.288   8.938
 4330SOL    HW113742   2.221   1.381   8.904
 4330SOL    HW213743   2.150   1.236   8.925
 4331SOL     OW13744   3.476   1.292   8.737
 4331SOL    HW113745   3.536   1.295   8.817
 4331SOL    HW213746   3.401   1.356   8.750
 4332SOL     OW13747   2.901   1.098   8.144
 4332SOL    HW113748   2.831   1.051   8.198
 4332SOL    HW213749   2.960   1.030   8.101
 4333SOL     OW13750   2.876   0.236   8.419
 4333SOL    HW113751   2.868   0.200   8.326
 4333SOL    HW213752   2.874   0.160   8.484
 4334SOL     OW13753   3.571   0.385   8.829
 4334SOL    HW113754   3.644   0.454   8.833
 4334SOL    HW213755   3.599   0.310   8.770
 4335SOL     OW13756   1.967   1.013   9.174
 4335SOL    HW113757   1.890   0.980   9.228
 4335SOL    HW213758   2.052   0.983   9.216
 4336SOL     OW13759   2.534   0.203   8.937
 4336SOL    HW113760   2.624   0.187   8.897
 4336SOL    HW213761   2.542   0.208   9.036
 4337SOL     OW13762   1.937   0.345   7.481
 4337SOL    HW113763   1.845   0.317   7.452
 4337SOL    HW213764   1.968   0.422   7.425
 4338SOL     OW13765   3.302   0.856   8.846
 4338SOL    HW113766   3.245   0.908   8.783
 4338SOL    HW213767   3.398   0.868   8.822
 4339SOL     OW13768   1.934   0.166   7.766
 4339SOL    HW113769   1.917   0.249   7.712
 4339SOL    HW213770   2.024   0.129   7.744
 4340SOL     OW13771   3.045   1.335   7.567
 4340SOL    HW113772   2.946   1.324   7.569
 4340SOL    HW213773   3.079   1.350   7.660
 4341SOL     OW13774   2.475   0.842   8.879
 4341SOL    HW113775   2.531   0.923   8.862
 4341SOL    HW213776   2.534   0.762   8.882
 4342SOL     OW13777   3.355   1.767   8.407
 4342SOL    HW113778   3.388   1.831   8.338
 4342SOL    HW213779   3.421   1.761   8.482
 4343SOL     OW13780   2.578   0.565   9.156
 4343SOL    HW113781   2.597   0.630   9.230
 4343SOL    HW213782   2.638   0.485   9.165
 4344SOL     OW13783   3.312   1.220   9.081
 4344SOL    HW113784   3.303   1.210   9.180
 4344SOL    HW213785   3.408   1.213   9.055
 4345SOL     OW13786   2.252   1.741   9.008
 4345SOL    HW113787   2.161   1.782   9.006
 4345SOL    HW213788   2.245   1.647   9.040
 4346SOL     OW13789   3.536   0.883   8.702
 4346SOL    HW113790   3.509   0.794   8.665
 4346SOL    HW213791   3.537   0.951   8.629
 4347SOL     OW13792   3.087   0.325   7.897
 4347SOL    HW113793   3.152   0.251   7.886
 4347SOL    HW213794   3.107   0.375   7.981
 4348SOL     OW13795   2.456   0.745   8.100
 4348SOL    HW113796   2.506   0.830   8.081
 4348SOL    HW213797   2.368   0.747   8.052
 4349SOL     OW13798   3.639   0.342   9.090
 4349SOL    HW113799   3.622   0.373   8.996
 4349SOL    HW213800   3.555   0.305   9.128
 4350SOL     OW13801   3.592   0.934   8.965
 4350SOL    HW113802   3.630   1.025   8.980
 4350SOL    HW213803   3.584   0.917   8.866
 4351SOL     OW13804   2.721   1.374   7.464
 4351SOL    HW113805   2.675   1.389   7.552
 4351SOL    HW213806   2.765   1.459   7.434
 4352SOL     OW13807   2.523   1.790   8.401
 4352SOL    HW113808   2.477   1.878   8.388
 4352SOL    HW213809   2.622   1.802   8.394
 4353SOL     OW13810   2.721   0.956   8.309
 4353SOL    HW113811   2.775   0.887   8.357
 4353SOL    HW213812   2.689   1.025   8.375
 4354SOL     OW13813   2.945   0.984   7.535
 4354SOL    HW113814   2.922   1.037   7.453
 4354SOL    HW213815   3.026   0.928   7.516
 4355SOL     OW13816   3.723   1.569   8.299
 4355SOL    HW113817   3.652   1.557   8.229
 4355SOL    HW213818   3.724   1.490   8.359
 4356SOL     OW13819   2.083   1.314   9.292
 4356SOL    HW113820   2.018   1.241   9.271
 4356SOL    HW213821   2.087   1.328   9.390
 4357SOL     OW13822   1.941   1.240   8.101
 4357SOL    HW113823   1.940   1.193   8.189
 4357SOL    HW213824   2.023   1.212   8.050
 4358SOL     OW13825   2.534   1.391   9.072
 4358SOL    HW113826   2.456   1.341   9.110
 4358SOL    HW213827   2.531   1.486   9.103
 4359SOL     OW13828   3.686   0.192   8.675
 4359SOL    HW113829   3.682   0.102   8.719
 4359SOL    HW213830   3.689   0.181   8.576
 4360SOL     OW13831   2.290   0.424   7.968
 4360SOL    HW113832   2.320   0.352   7.906
 4360SOL    HW213833   2.251   0.384   8.051
 4361SOL     OW13834   3.567   1.487   8.552
 4361SOL    HW113835   3.474   1.462   8.525
 4361SOL    HW213836   3.593   1.437   8.634
 4362SOL     OW13837   2.179   0.547   8.728
 4362SOL    HW113838   2.217   0.488   8.800
 4362SOL    HW213839   2.219   0.521   8.640
 4363SOL     OW13840   2.674   1.586   8.135
 4363SOL    HW113841   2.706   1.596   8.041
 4363SOL    HW213842   2.595   1.524   8.137
 4364SOL     OW13843   3.286   0.214   8.560
 4364SOL    HW113844   3.338   0.149   8.615
 4364SOL    HW213845   3.237   0.277   8.621
 4365SOL     OW13846   2.863   0.034   8.602
 4365SOL    HW113847   2.800  -0.038   8.571
 4365SOL    HW213848   2.956  -0.002   8.602
 4366SOL     OW13849   2.632   1.330   7.749
 4366SOL    HW113850   2.586   1.243   7.766
 4366SOL    HW213851   2.723   1.327   7.790
 4367SOL     OW13852   2.480   1.567   8.732
 4367SOL    HW113853   2.475   1.649   8.789
 4367SOL    HW213854   2.569   1.564   8.687
 4368SOL     OW13855   3.214   0.052   7.616
 4368SOL    HW113856   3.249   0.011   7.532
 4368SOL    HW213857   3.124   0.014   7.636
 4369SOL     OW13858   3.162   0.453   8.139
 4369SOL    HW113859   3.103   0.533   8.143
 4369SOL    HW213860   3.177   0.418   8.232
 4370SOL     OW13861   3.455   0.221   8.330
 4370SOL    HW113862   3.371   0.220   8.384
 4370SOL    HW213863   3.457   0.304   8.274
 4371SOL     OW13864   1.901   1.077   7.748
 4371SOL    HW113865   2.000   1.066   7.739
 4371SOL    HW213866   1.861   0.991   7.780
 4372SOL     OW13867   2.092   0.628   9.423
 4372SOL    HW113868   1.999   0.626   9.460
 4372SOL    HW213869   2.093   0.589   9.331
 4373SOL     OW13870   2.087   0.275  10.306
 4373SOL    HW113871   2.122   0.258  10.398
 4373SOL    HW213872   1.999   0.230  10.294
 4374SOL     OW13873   1.881   0.368   9.957
 4374SOL    HW113874   1.799   0.411   9.996
 4374SOL    HW213875   1.853   0.295   9.894
 4375SOL     OW13876   2.431   1.275  10.475
 4375SOL    HW113877   2.338   1.268  10.438
 4375SOL    HW213878   2.442   1.364  10.519
 4376SOL     OW13879   3.417   1.511  10.013
 4376SOL    HW113880   3.360   1.495  10.094
 4376SOL    HW213881   3.358   1.521   9.933
 4377SOL     OW13882   2.997   0.703  10.027
 4377SOL    HW113883   3.054   0.781  10.002
 4377SOL    HW213884   2.937   0.729  10.103
 4378SOL     OW13885   3.617   0.607   9.541
 4378SOL    HW113886   3.605   0.594   9.442
 4378SOL    HW213887   3.587   0.526   9.590
 4379SOL     OW13888   2.630   1.144  10.333
 4379SOL    HW113889   2.552   1.161  10.393
 4379SOL    HW213890   2.664   1.231  10.297
 4380SOL     OW13891   2.712   0.798  11.133
 4380SOL    HW113892   2.708   0.874  11.198
 4380SOL    HW213893   2.734   0.834  11.042
 4381SOL     OW13894   2.547   1.012   9.975
 4381SOL    HW113895   2.616   0.996  10.045
 4381SOL    HW213896   2.474   1.069  10.013
 4382SOL     OW13897   2.548   1.161  11.113
 4382SOL    HW113898   2.608   1.240  11.127
 4382SOL    HW213899   2.462   1.192  11.072
 4383SOL     OW13900   2.197   1.435  10.371
 4383SOL    HW113901   2.119   1.404  10.318
 4383SOL    HW213902   2.255   1.493  10.314
 4384SOL     OW13903   3.322   1.505  10.649
 4384SOL    HW113904   3.346   1.599  10.675
 4384SOL    HW213905   3.306   1.451  10.731
 4385SOL     OW13906   2.300   0.392  10.809
 4385SOL    HW113907   2.382   0.336  10.818
 4385SOL    HW213908   2.219   0.334  10.813
 4386SOL     OW13909   3.465   0.447  10.047
 4386SOL    HW113910   3.391   0.493   9.997
 4386SOL    HW213911   3.516   0.515  10.100
 4387SOL     OW13912   2.093   1.713   9.793
 4387SOL    HW113913   2.127   1.790   9.847
 4387SOL    HW213914   2.137   1.713   9.703
 4388SOL     OW13915   2.989   1.341  11.000
 4388SOL    HW113916   3.036   1.341  11.088
 4388SOL    HW213917   2.941   1.254  10.989
 4389SOL     OW13918   2.092   1.434   9.848
 4389SOL    HW113919   2.066   1.530   9.848
 4389SOL    HW213920   2.021   1.380   9.893
 4390SOL     OW13921   2.102   1.091  10.196
 4390SOL    HW113922   2.116   1.007  10.248
 4390SOL    HW213923   2.047   1.155  10.251
 4391SOL     OW13924   2.482   1.786  10.749
 4391SOL    HW113925   2.390   1.769  10.784
 4391SOL    HW213926   2.510   1.878  10.775
 4392SOL     OW13927   2.468   0.964   9.433
 4392SOL    HW113928   2.475   1.048   9.379
 4392SOL    HW213929   2.514   0.977   9.521
 4393SOL     OW13930   3.456   0.114  10.790
 4393SOL    HW113931   3.438   0.181  10.718
 4393SOL    HW213932   3.453   0.160  10.879
 4394SOL     OW13933   1.984   0.643   9.873
 4394SOL    HW113934   1.939   0.555   9.890
 4394SOL    HW213935   1.983   0.697   9.957
 4395SOL     OW13936   3.704   1.767   9.669
 4395SOL    HW113937   3.758   1.738   9.749
 4395SOL    HW213938   3.734   1.857   9.640
 4396SOL     OW13939   1.889   1.596   9.427
 4396SOL    HW113940   1.870   1.500   9.448
 4396SOL    HW213941   1.856   1.654   9.502
 4397SOL     OW13942   3.551   0.922   9.922
 4397SOL    HW113943   3.646   0.893   9.930
 4397SOL    HW213944   3.543   0.987   9.847
 4398SOL     OW13945   3.503   1.108   9.742
 4398SOL    HW113946   3.589   1.110   9.690
 4398SOL    HW213947   3.517   1.155   9.830
 4399SOL     OW13948   1.975   0.737  10.907
 4399SOL    HW113949   2.063   0.724  10.952
 4399SOL    HW213950   1.962   0.834  10.885
 4400SOL     OW13951   2.475   1.365  10.036
 4400SOL    HW113952   2.426   1.278  10.045
 4400SOL    HW213953   2.452   1.408   9.949
 4401SOL     OW13954   3.155   1.228  10.733
 4401SOL    HW113955   3.192   1.155  10.675
 4401SOL    HW213956   3.207   1.233  10.818
 4402SOL     OW13957   2.671   0.004   9.812
 4402SOL    HW113958   2.711   0.095   9.803
 4402SOL    HW213959   2.571   0.012   9.818
 4403SOL     OW13960   2.059   0.976  10.574
 4403SOL    HW113961   2.148   0.931  10.560
 4403SOL    HW213962   1.986   0.911  10.555
 4404SOL     OW13963   3.387   0.999   9.500
 4404SOL    HW113964   3.324   0.923   9.513
 4404SOL    HW213965   3.435   1.017   9.586
 4405SOL     OW13966   3.049   1.792  10.926
 4405SOL    HW113967   3.073   1.852  10.850
 4405SOL    HW213968   3.056   1.697  10.896
 4406SOL     OW13969   2.179   0.251  11.111
 4406SOL    HW113970   2.250   0.322  11.117
 4406SOL    HW213971   2.091   0.290  11.139
 4407SOL     OW13972   3.328   1.417  10.263
 4407SOL    HW113973   3.269   1.423  10.343
 4407SOL    HW213974   3.313   1.329  10.217
 4408SOL     OW13975   3.529   1.714   9.882
 4408SOL    HW113976   3.488   1.691   9.794
 4408SOL    HW213977   3.511   1.640   9.947
 4409SOL     OW13978   2.460   0.729   9.580
 4409SOL    HW113979   2.484   0.798   9.512
 4409SOL    HW213980   2.382   0.762   9.634
 4410SOL     OW13981   3.143   0.345  10.254
 4410SOL    HW113982   3.057   0.295  10.241
 4410SOL    HW213983   3.205   0.291  10.310
 4411SOL     OW13984   3.438   1.662   9.617
 4411SOL    HW113985   3.527   1.708   9.620
 4411SOL    HW213986   3.417   1.638   9.522
 4412SOL     OW13987   2.669   0.605  10.775
 4412SOL    HW113988   2.622   0.602  10.864
 4412SOL    HW213989   2.618   0.550  10.709
 4413SOL     OW13990   3.256   0.469  10.984
 4413SOL    HW113991   3.236   0.512  11.072
 4413SOL    HW213992   3.334   0.407  10.993
 4414SOL     OW13993   2.835   0.890  10.882
 4414SOL    HW113994   2.881   0.806  10.853
 4414SOL    HW213995   2.779   0.924  10.807
 4415SOL     OW13996   2.853   0.410  10.552
 4415SOL    HW113997   2.776   0.444  10.606
 4415SOL    HW213998   2.819   0.359  10.473
 4416SOL     OW13999   2.903   0.701   9.739
 4416SOL    HW114000   2.929   0.697   9.835
 4416SOL    HW214001   2.818   0.650   9.725
 4417SOL     OW14002   1.938   0.811  10.099
 4417SOL    HW114003   2.037   0.799  10.108
 4417SOL    HW214004   1.914   0.906  10.120
 4418SOL     OW14005   2.727   0.348   9.505
 4418SOL    HW114006   2.786   0.411   9.456
 4418SOL    HW214007   2.746   0.254   9.476
 4419SOL     OW14008   3.581   0.585  11.141
 4419SOL    HW114009   3.555   0.674  11.105
 4419SOL    HW214010   3.579   0.517  11.068
 4420SOL     OW14011   3.224   1.144   9.855
 4420SOL    HW114012   3.307   1.115   9.807
 4420SOL    HW214013   3.175   1.211   9.799
 4421SOL     OW14014   2.412   0.196  10.195
 4421SOL    HW114015   2.407   0.191  10.295
 4421SOL    HW214016   2.414   0.292  10.166
 4422SOL     OW14017   2.870   1.456   9.787
 4422SOL    HW114018   2.824   1.528   9.735
 4422SOL    HW214019   2.866   1.476   9.885
 4423SOL     OW14020   2.213   1.801  10.163
 4423SOL    HW114021   2.263   1.715  10.169
 4423SOL    HW214022   2.278   1.878  10.160
 4424SOL     OW14023   3.657   1.066  10.183
 4424SOL    HW114024   3.595   1.051  10.107
 4424SOL    HW214025   3.605   1.077  10.268
 4425SOL     OW14026   3.089   1.550  10.816
 4425SOL    HW114027   3.095   1.473  10.880
 4425SOL    HW214028   3.037   1.524  10.736
 4426SOL     OW14029   2.183   0.943   9.552
 4426SOL    HW114030   2.265   0.982   9.510
 4426SOL    HW214031   2.156   0.861   9.503
 4427SOL     OW14032   3.320   0.735  10.038
 4427SOL    HW114033   3.315   0.670  10.113
 4427SOL    HW214034   3.400   0.794  10.051
 4428SOL     OW14035   2.323   1.266  11.037
 4428SOL    HW114036   2.273   1.267  10.951
 4428SOL    HW214037   2.260   1.248  11.113
 4429SOL     OW14038   2.973   1.776   9.547
 4429SOL    HW114039   2.913   1.714   9.597
 4429SOL    HW214040   3.004   1.732   9.462
 4430SOL     OW14041   2.064   0.285  10.808
 4430SOL    HW114042   1.984   0.345  10.795
 4430SOL    HW214043   2.054   0.236  10.894
 4431SOL     OW14044   3.494   1.377   9.391
 4431SOL    HW114045   3.462   1.471   9.381
 4431SOL    HW214046   3.418   1.314   9.379
 4432SOL     OW14047   2.326   1.743   9.633
 4432SOL    HW114048   2.359   1.782   9.719
 4432SOL    HW214049   2.402   1.736   9.568
 4433SOL     OW14050   3.262   0.107   9.736
 4433SOL    HW114051   3.238   0.070   9.646
 4433SOL    HW214052   3.361   0.123   9.740
 4434SOL     OW14053   2.111   1.785  10.551
 4434SOL    HW114054   2.168   1.720  10.601
 4434SOL    HW214055   2.095   1.752  10.458
 4435SOL     OW14056   2.802   1.698  10.214
 4435SOL    HW114057   2.882   1.641  10.235
 4435SOL    HW214058   2.753   1.658  10.137
 4436SOL     OW14059   2.244   0.700   9.790
 4436SOL    HW114060   2.289   0.610   9.787
 4436SOL    HW214061   2.150   0.689   9.823
 4437SOL     OW14062   3.409   0.222  11.039
 4437SOL    HW114063   3.404   0.259  11.131
 4437SOL    HW214064   3.337   0.153  11.027
 4438SOL     OW14065   2.476   0.122   9.427
 4438SOL    HW114066   2.574   0.100   9.434
 4438SOL    HW214067   2.445   0.105   9.334
 4439SOL     OW14068   2.643   0.264  11.059
 4439SOL    HW114069   2.710   0.203  11.102
 4439SOL    HW214070   2.570   0.283  11.124
 4440SOL     OW14071   2.750   1.514  10.505
 4440SOL    HW114072   2.727   1.489  10.411
 4440SOL    HW214073   2.811   1.445  10.544
 4441SOL     OW14074   3.213   0.590  10.743
 4441SOL    HW114075   3.241   0.547  10.828
 4441SOL    HW214076   3.238   0.686  10.744
 4442SOL     OW14077   2.665   1.402  10.234
 4442SOL    HW114078   2.755   1.416  10.192
 4442SOL    HW214079   2.594   1.404  10.163
 4443SOL     OW14080   2.784   0.503  10.209
 4443SOL    HW114081   2.759   0.494  10.113
 4443SOL    HW214082   2.832   0.421  10.240
 4444SOL     OW14083   2.401   0.064   9.822
 4444SOL    HW114084   2.320   0.065   9.880
 4444SOL    HW214085   2.404   0.147   9.767
 4445SOL     OW14086   3.296   1.188   9.351
 4445SOL    HW114087   3.328   1.112   9.408
 4445SOL    HW214088   3.204   1.215   9.381
 4446SOL     OW14089   2.159   0.035   9.481
 4446SOL    HW114090   2.208   0.119   9.460
 4446SOL    HW214091   2.221  -0.030   9.526
 4447SOL     OW14092   2.797   0.236   9.790
 4447SOL    HW114093   2.749   0.277   9.712
 4447SOL    HW214094   2.896   0.234   9.771
 4448SOL     OW14095   2.938   0.683  10.774
 4448SOL    HW114096   2.858   0.622  10.777
 4448SOL    HW214097   3.019   0.630  10.750
 4449SOL     OW14098   3.089   1.570  10.103
 4449SOL    HW114099   3.110   1.644  10.038
 4449SOL    HW214100   3.157   1.570  10.176
 4450SOL     OW14101   2.321   1.152  10.051
 4450SOL    HW114102   2.250   1.125  10.116
 4450SOL    HW214103   2.295   1.124   9.958
 4451SOL     OW14104   3.133   1.797   9.901
 4451SOL    HW114105   3.177   1.861   9.837
 4451SOL    HW214106   3.083   1.849   9.971
 4452SOL     OW14107   2.894   0.549   9.326
 4452SOL    HW114108   2.853   0.631   9.287
 4452SOL    HW214109   2.958   0.575   9.399
 4453SOL     OW14110   1.940   0.556  10.696
 4453SOL    HW114111   2.032   0.555  10.655
 4453SOL    HW214112   1.934   0.630  10.763
 4454SOL     OW14113   2.423   0.222  10.457
 4454SOL    HW114114   2.461   0.138  10.494
 4454SOL    HW214115   2.335   0.241  10.501
 4455SOL     OW14116   2.728   0.454   9.952
 4455SOL    HW114117   2.696   0.526   9.890
 4455SOL    HW214118   2.752   0.373   9.899
 4456SOL     OW14119   2.879   0.039  10.063
 4456SOL    HW114120   2.807   0.044   9.994
 4456SOL    HW214121   2.855  -0.030  10.132
 4457SOL     OW14122   3.291   1.173  10.177
 4457SOL    HW114123   3.236   1.089  10.170
 4457SOL    HW214124   3.317   1.202  10.085
 4458SOL     OW14125   3.328   0.590  10.302
 4458SOL    HW114126   3.298   0.495  10.309
 4458SOL    HW214127   3.401   0.606  10.368
 4459SOL     OW14128   3.719   0.833   9.687
 4459SOL    HW114129   3.761   0.769   9.751
 4459SOL    HW214130   3.681   0.782   9.609
 4460SOL     OW14131   2.350   1.385   9.484
 4460SOL    HW114132   2.263   1.370   9.531
 4460SOL    HW214133   2.333   1.411   9.389
 4461SOL     OW14134   3.526   1.280   9.967
 4461SOL    HW114135   3.625   1.288   9.981
 4461SOL    HW214136   3.481   1.364   9.998
 4462SOL     OW14137   3.252   0.575   9.388
 4462SOL    HW114138   3.198   0.554   9.469
 4462SOL    HW214139   3.343   0.534   9.397
 4463SOL     OW14140   2.389   0.256   9.638
 4463SOL    HW114141   2.416   0.197   9.563
 4463SOL    HW214142   2.389   0.351   9.607
 4464SOL     OW14143   3.616   1.223  10.898
 4464SOL    HW114144   3.707   1.184  10.885
 4464SOL    HW214145   3.624   1.319  10.922
 4465SOL     OW14146   2.926   1.347  10.650
 4465SOL    HW114147   2.846   1.324  10.705
 4465SOL    HW214148   3.009   1.321  10.699
 4466SOL     OW14149   3.454   1.629  10.935
 4466SOL    HW114150   3.481   1.663  10.845
 4466SOL    HW214151   3.533   1.591  10.981
 4467SOL     OW14152   2.973   1.195  10.410
 4467SOL    HW114153   2.933   1.239  10.491
 4467SOL    HW214154   2.932   1.232  10.327
 4468SOL     OW14155   3.500   1.099  10.389
 4468SOL    HW114156   3.505   1.180  10.448
 4468SOL    HW214157   3.414   1.101  10.338
 4469SOL     OW14158   2.777   0.089  10.712
 4469SOL    HW114159   2.802   0.069  10.617
 4469SOL    HW214160   2.849   0.145  10.754
 4470SOL     OW14161   2.842   1.116  11.029
 4470SOL    HW114162   2.743   1.122  11.039
 4470SOL    HW214163   2.865   1.036  10.973
 4471SOL     OW14164   2.567   1.050   9.678
 4471SOL    HW114165   2.553   1.057   9.777
 4471SOL    HW214166   2.651   0.999   9.660
 4472SOL     OW14167   2.272   0.813  10.561
 4472SOL    HW114168   2.358   0.825  10.611
 4472SOL    HW214169   2.230   0.726  10.588
 4473SOL     OW14170   3.136   0.386  10.572
 4473SOL    HW114171   3.157   0.460  10.636
 4473SOL    HW214172   3.047   0.403  10.529
 4474SOL     OW14173   1.926   1.564  10.641
 4474SOL    HW114174   1.880   1.646  10.607
 4474SOL    HW214175   2.024   1.583  10.650
 4475SOL     OW14176   2.229   1.100   9.811
 4475SOL    HW114177   2.222   1.183   9.755
 4475SOL    HW214178   2.233   1.020   9.751
 4476SOL     OW14179   2.428   0.537  10.175
 4476SOL    HW114180   2.440   0.603  10.101
 4476SOL    HW214181   2.474   0.571  10.258
 4477SOL     OW14182   3.114   1.348   9.698
 4477SOL    HW114183   3.164   1.425   9.738
 4477SOL    HW214184   3.019   1.350   9.730
 4478SOL     OW14185   3.134   1.445  10.452
 4478SOL    HW114186   3.181   1.458  10.539
 4478SOL    HW214187   3.068   1.371  10.461
 4479SOL     OW14188   3.444   0.639   9.782
 4479SOL    HW114189   3.413   0.700   9.855
 4479SOL    HW214190   3.494   0.691   9.713
 4480SOL     OW14191   2.216   1.510  10.639
 4480SOL    HW114192   2.195   1.466  10.552
 4480SOL    HW214193   2.313   1.536  10.642
 4481SOL     OW14194   2.264   0.751  10.908
 4481SOL    HW114195   2.332   0.806  10.861
 4481SOL    HW214196   2.304   0.663  10.935
 4482SOL     OW14197   3.449   0.779  10.980
 4482SOL    HW114198   3.357   0.817  10.975
 4482SOL    HW214199   3.509   0.826  10.915
 4483SOL     OW14200   2.875   0.105  11.080
 4483SOL    HW114201   2.881   0.190  11.028
 4483SOL    HW214202   2.907   0.029  11.023
 4484SOL     OW14203   2.366   0.050  11.050
 4484SOL    HW114204   2.324  -0.007  10.980
 4484SOL    HW214205   2.300   0.119  11.082
 4485SOL     OW14206   2.435   0.870  10.339
 4485SOL    HW114207   2.479   0.959  10.330
 4485SOL    HW214208   2.372   0.870  10.416
 4486SOL     OW14209   3.222   0.862  10.355
 4486SOL    HW114210   3.147   0.862  10.289
 4486SOL    HW214211   3.259   0.770  10.364
 4487SOL     OW14212   3.071   0.525   9.585
 4487SOL    HW114213   3.084   0.441   9.639
 4487SOL    HW214214   3.042   0.599   9.645
 4488SOL     OW14215   2.169   0.213  10.541
 4488SOL    HW114216   2.146   0.250  10.631
 4488SOL    HW214217   2.139   0.118  10.535
 4489SOL     OW14218   1.899   1.310  10.592
 4489SOL    HW114219   1.952   1.261  10.660
 4489SOL    HW214220   1.921   1.408  10.597
 4490SOL     OW14221   2.594   0.634  10.374
 4490SOL    HW114222   2.653   0.608  10.298
 4490SOL    HW214223   2.566   0.730  10.363
 4491SOL     OW14224   3.590   0.935  11.164
 4491SOL    HW114225   3.544   0.928  11.075
 4491SOL    HW214226   3.528   0.979  11.230
 4492SOL     OW14227   2.169   0.063   9.928
 4492SOL    HW114228   2.158   0.157   9.961
 4492SOL    HW214229   2.164   0.000  10.005
 4493SOL     OW14230   3.484   0.367   9.684
 4493SOL    HW114231   3.486   0.291   9.748
 4493SOL    HW214232   3.436   0.444   9.724
 4494SOL     OW14233   2.885   0.766  10.276
 4494SOL    HW114234   2.900   0.787  10.372
 4494SOL    HW214235   2.855   0.671  10.267
 4495SOL     OW14236   2.842   1.573  11.010
 4495SOL    HW114237   2.822   1.617  10.922
 4495SOL    HW214238   2.881   1.482  10.994
 4496SOL     OW14239   3.721   1.518  10.915
 4496SOL    HW114240   3.735   1.545  10.820
 4496SOL    HW214241   3.804   1.540  10.968
 4497SOL     OW14242   2.212   0.898  11.114
 4497SOL    HW114243   2.288   0.942  11.162
 4497SOL    HW214244   2.247   0.851  11.032
 4498SOL     OW14245   3.402   0.274   9.435
 4498SOL    HW114246   3.341   0.199   9.458
 4498SOL    HW214247   3.424   0.326   9.518
 4499SOL     OW14248   3.165   0.838   9.352
 4499SOL    HW114249   3.199   0.745   9.367
 4499SOL    HW214250   3.183   0.865   9.257
 4500SOL     OW14251   2.930   1.333  10.159
 4500SOL    HW114252   2.937   1.249  10.104
 4500SOL    HW214253   2.992   1.402  10.123
 4501SOL     OW14254   2.181   0.810  10.259
 4501SOL    HW114255   2.274   0.846  10.264
 4501SOL    HW214256   2.175   0.725  10.311
 4502SOL     OW14257   2.201   0.509  10.316
 4502SOL    HW114258   2.149   0.426  10.299
 4502SOL    HW214259   2.278   0.514  10.252
 4503SOL     OW14260   3.000   0.380  10.988
 4503SOL    HW114261   2.955   0.443  11.052
 4503SOL    HW214262   3.093   0.411  10.971
 4504SOL     OW14263   3.022   0.207  10.787
 4504SOL    HW114264   3.022   0.271  10.864
 4504SOL    HW214265   3.050   0.255  10.704
 4505SOL     OW14266   1.870   1.326   9.510
 4505SOL    HW114267   1.777   1.347   9.479
 4505SOL    HW214268   1.880   1.227   9.523
 4506SOL     OW14269   2.366   1.568  10.220
 4506SOL    HW114270   2.432   1.642  10.229
 4506SOL    HW214271   2.410   1.489  10.178
 4507SOL     OW14272   2.864   0.796  10.548
 4507SOL    HW114273   2.905   0.764  10.634
 4507SOL    HW214274   2.768   0.769  10.545
 4508SOL     OW14275   1.902   0.544  10.424
 4508SOL    HW114276   1.987   0.511  10.383
 4508SOL    HW214277   1.915   0.559  10.522
 4509SOL     OW14278   2.051   0.520  11.032
 4509SOL    HW114279   2.110   0.480  10.962
 4509SOL    HW214280   1.993   0.591  10.991
 4510SOL     OW14281   3.231   0.950  10.970
 4510SOL    HW114282   3.270   1.039  10.990
 4510SOL    HW214283   3.241   0.930  10.873
 4511SOL     OW14284   2.677   0.572   9.635
 4511SOL    HW114285   2.684   0.483   9.589
 4511SOL    HW214286   2.583   0.606   9.627
 4512SOL     OW14287   3.519   0.604  10.516
 4512SOL    HW114288   3.481   0.535  10.578
 4512SOL    HW214289   3.601   0.568  10.472
 4513SOL     OW14290   2.114   1.564  11.054
 4513SOL    HW114291   2.084   1.621  11.130
 4513SOL    HW214292   2.107   1.467  11.080
 4514SOL     OW14293   2.533   0.464  10.579
 4514SOL    HW114294   2.499   0.375  10.549
 4514SOL    HW214295   2.559   0.518  10.499
 4515SOL     OW14296   2.792   1.678  10.775
 4515SOL    HW114297   2.768   1.660  10.680
 4515SOL    HW214298   2.822   1.772  10.785
 4516SOL     OW14299   2.335   0.500   9.501
 4516SOL    HW114300   2.396   0.580   9.505
 4516SOL    HW214301   2.240   0.531   9.508
 4517SOL     OW14302   2.021   1.137  10.776
 4517SOL    HW114303   2.043   1.076  10.852
 4517SOL    HW214304   2.031   1.088  10.690
 4518SOL     OW14305   3.209   1.059  10.544
 4518SOL    HW114306   3.233   0.996  10.470
 4518SOL    HW214307   3.119   1.099  10.526
 4519SOL     OW14308   3.164   0.855   9.619
 4519SOL    HW114309   3.078   0.824   9.661
 4519SOL    HW214310   3.160   0.841   9.520
 4520SOL     OW14311   3.621   1.747  10.464
 4520SOL    HW114312   3.682   1.777  10.391
 4520SOL    HW214313   3.583   1.658  10.442
 4521SOL     OW14314   3.114   1.731  10.438
 4521SOL    HW114315   3.198   1.736  10.384
 4521SOL    HW214316   3.091   1.635  10.456
 4522SOL     OW14317   1.945   1.258  10.332
 4522SOL    HW114318   1.940   1.257  10.432
 4522SOL    HW214319   1.862   1.217  10.294
 4523SOL     OW14320   2.550   1.662  11.026
 4523SOL    HW114321   2.494   1.743  11.035
 4523SOL    HW214322   2.602   1.666  10.940
 4524SOL     OW14323   3.588   0.135   9.833
 4524SOL    HW114324   3.661   0.118   9.766
 4524SOL    HW214325   3.557   0.048   9.871
 4525SOL     OW14326   3.250   1.573   9.787
 4525SOL    HW114327   3.317   1.585   9.713
 4525SOL    HW214328   3.210   1.662   9.810
 4526SOL     OW14329   3.142   0.927   9.982
 4526SOL    HW114330   3.202   0.846   9.984
 4526SOL    HW214331   3.182   0.996   9.922
 4527SOL     OW14332   2.692   1.273  10.732
 4527SOL    HW114333   2.687   1.306  10.827
 4527SOL    HW214334   2.606   1.292  10.686
 4528SOL     OW14335   2.534   1.616   9.464
 4528SOL    HW114336   2.543   1.626   9.365
 4528SOL    HW214337   2.494   1.527   9.485
 4529SOL     OW14338   3.512   1.720  10.704
 4529SOL    HW114339   3.565   1.730  10.620
 4529SOL    HW214340   3.485   1.810  10.738
 4530SOL     OW14341   3.703   0.175  10.273
 4530SOL    HW114342   3.742   0.090  10.237
 4530SOL    HW214343   3.605   0.177  10.254
 4531SOL     OW14344   2.125   0.326  10.030
 4531SOL    HW114345   2.046   0.377   9.996
 4531SOL    HW214346   2.116   0.311  10.128
 4532SOL     OW14347   3.056   1.612   9.341
 4532SOL    HW114348   3.062   1.519   9.378
 4532SOL    HW214349   2.997   1.612   9.261
 4533SOL     OW14350   2.684   1.002  10.682
 4533SOL    HW114351   2.724   1.001  10.590
 4533SOL    HW214352   2.694   1.094  10.722
 4534SOL     OW14353   2.778   0.910   9.601
 4534SOL    HW114354   2.841   0.948   9.533
 4534SOL    HW214355   2.818   0.827   9.640
 4535SOL     OW14356   3.366   1.607   9.354
 4535SOL    HW114357   3.274   1.644   9.361
 4535SOL    HW214358   3.404   1.627   9.264
 4536SOL     OW14359   2.234   1.288  10.800
 4536SOL    HW114360   2.221   1.381  10.766
 4536SOL    HW214361   2.150   1.236  10.787
 4537SOL     OW14362   3.476   1.292  10.599
 4537SOL    HW114363   3.536   1.295  10.679
 4537SOL    HW214364   3.401   1.356  10.612
 4538SOL     OW14365   2.901   1.098  10.006
 4538SOL    HW114366   2.831   1.051  10.060
 4538SOL    HW214367   2.960   1.030   9.963
 4539SOL     OW14368   2.876   0.236  10.281
 4539SOL    HW114369   2.868   0.200  10.188
 4539SOL    HW214370   2.874   0.160  10.346
 4540SOL     OW14371   2.452   1.487   9.801
 4540SOL    HW114372   2.494   1.429   9.731
 4540SOL    HW214373   2.408   1.566   9.757
 4541SOL     OW14374   3.571   0.385  10.691
 4541SOL    HW114375   3.644   0.454  10.695
 4541SOL    HW214376   3.599   0.310  10.632
 4542SOL     OW14377   2.117   1.348   9.600
 4542SOL    HW114378   2.021   1.349   9.573
 4542SOL    HW214379   2.129   1.401   9.684
 4543SOL     OW14380   1.967   1.013  11.036
 4543SOL    HW114381   1.890   0.980  11.090
 4543SOL    HW214382   2.052   0.983  11.078
 4544SOL     OW14383   2.534   0.203  10.799
 4544SOL    HW114384   2.624   0.187  10.759
 4544SOL    HW214385   2.542   0.208  10.898
 4545SOL     OW14386   1.937   0.345   9.343
 4545SOL    HW114387   1.845   0.317   9.314
 4545SOL    HW214388   1.968   0.422   9.287
 4546SOL     OW14389   3.302   0.856  10.708
 4546SOL    HW114390   3.245   0.908  10.645
 4546SOL    HW214391   3.398   0.868  10.684
 4547SOL     OW14392   1.934   0.166   9.628
 4547SOL    HW114393   1.917   0.249   9.574
 4547SOL    HW214394   2.024   0.129   9.606
 4548SOL     OW14395   3.045   1.335   9.429
 4548SOL    HW114396   2.946   1.324   9.431
 4548SOL    HW214397   3.079   1.350   9.522
 4549SOL     OW14398   2.475   0.842  10.741
 4549SOL    HW114399   2.531   0.923  10.724
 4549SOL    HW214400   2.534   0.762  10.744
 4550SOL     OW14401   3.355   1.767  10.269
 4550SOL    HW114402   3.388   1.831  10.200
 4550SOL    HW214403   3.421   1.761  10.344
 4551SOL     OW14404   2.578   0.565  11.018
 4551SOL    HW114405   2.597   0.630  11.092
 4551SOL    HW214406   2.638   0.485  11.027
 4552SOL     OW14407   3.312   1.220  10.943
 4552SOL    HW114408   3.303   1.210  11.042
 4552SOL    HW214409   3.408   1.213  10.917
 4553SOL     OW14410   2.252   1.741  10.870
 4553SOL    HW114411   2.161   1.782  10.868
 4553SOL    HW214412   2.245   1.647  10.902
 4554SOL     OW14413   3.536   0.883  10.564
 4554SOL    HW114414   3.509   0.794  10.527
 4554SOL    HW214415   3.537   0.951  10.491
 4555SOL     OW14416   3.087   0.325   9.759
 4555SOL    HW114417   3.152   0.251   9.748
 4555SOL    HW214418   3.107   0.375   9.843
 4556SOL     OW14419   2.456   0.745   9.962
 4556SOL    HW114420   2.506   0.830   9.943
 4556SOL    HW214421   2.368   0.747   9.914
 4557SOL     OW14422   3.639   0.342  10.952
 4557SOL    HW114423   3.622   0.373  10.858
 4557SOL    HW214424   3.555   0.305  10.990
 4558SOL     OW14425   3.592   0.934  10.827
 4558SOL    HW114426   3.630   1.025  10.842
 4558SOL    HW214427   3.584   0.917  10.728
 4559SOL     OW14428   2.721   1.374   9.326
 4559SOL    HW114429   2.675   1.389   9.414
 4559SOL    HW214430   2.765   1.459   9.296
 4560SOL     OW14431   2.523   1.790  10.263
 4560SOL    HW114432   2.477   1.878  10.250
 4560SOL    HW214433   2.622   1.802  10.256
 4561SOL     OW14434   2.721   0.956  10.171
 4561SOL    HW114435   2.775   0.887  10.219
 4561SOL    HW214436   2.689   1.025  10.237
 4562SOL     OW14437   2.945   0.984   9.397
 4562SOL    HW114438   2.922   1.037   9.315
 4562SOL    HW214439   3.026   0.928   9.378
 4563SOL     OW14440   3.723   1.569  10.161
 4563SOL    HW114441   3.652   1.557  10.091
 4563SOL    HW214442   3.724   1.490  10.221
 4564SOL     OW14443   2.083   1.314  11.154
 4564SOL    HW114444   2.018   1.241  11.133
 4564SOL    HW214445   2.087   1.328  11.252
 4565SOL     OW14446   1.941   1.240   9.963
 4565SOL    HW114447   1.940   1.193  10.051
 4565SOL    HW214448   2.023   1.212   9.912
 4566SOL     OW14449   2.534   1.391  10.934
 4566SOL    HW114450   2.456   1.341  10.972
 4566SOL    HW214451   2.531   1.486  10.965
 4567SOL     OW14452   3.686   0.192  10.537
 4567SOL    HW114453   3.682   0.102  10.581
 4567SOL    HW214454   3.689   0.181  10.438
 4568SOL     OW14455   2.290   0.424   9.830
 4568SOL    HW114456   2.320   0.352   9.768
 4568SOL    HW214457   2.251   0.384   9.913
 4569SOL     OW14458   3.567   1.487  10.414
 4569SOL    HW114459   3.474   1.462  10.387
 4569SOL    HW214460   3.593   1.437  10.496
 4570SOL     OW14461   2.179   0.547  10.590
 4570SOL    HW114462   2.217   0.488  10.662
 4570SOL    HW214463   2.219   0.521  10.502
 4571SOL     OW14464   2.674   1.586   9.997
 4571SOL    HW114465   2.706   1.596   9.903
 4571SOL    HW214466   2.595   1.524   9.999
 4572SOL     OW14467   3.286   0.214  10.422
 4572SOL    HW114468   3.338   0.149  10.477
 4572SOL    HW214469   3.237   0.277  10.483
 4573SOL     OW14470   2.863   0.034  10.464
 4573SOL    HW114471   2.800  -0.038  10.433
 4573SOL    HW214472   2.956  -0.002  10.464
 4574SOL     OW14473   2.632   1.330   9.611
 4574SOL    HW114474   2.586   1.243   9.628
 4574SOL    HW214475   2.723   1.327   9.652
 4575SOL     OW14476   2.480   1.567  10.594
 4575SOL    HW114477   2.475   1.649  10.651
 4575SOL    HW214478   2.569   1.564  10.549
 4576SOL     OW14479   3.214   0.052   9.478
 4576SOL    HW114480   3.249   0.011   9.394
 4576SOL    HW214481   3.124   0.014   9.498
 4577SOL     OW14482   3.162   0.453  10.001
 4577SOL    HW114483   3.103   0.533  10.005
 4577SOL    HW214484   3.177   0.418  10.094
 4578SOL     OW14485   3.455   0.221  10.192
 4578SOL    HW114486   3.371   0.220  10.246
 4578SOL    HW214487   3.457   0.304  10.136
 4579SOL     OW14488   1.901   1.077   9.610
 4579SOL    HW114489   2.000   1.066   9.601
 4579SOL    HW214490   1.861   0.991   9.642
 4580SOL     OW14491   2.737   1.646   9.647
 4580SOL    HW114492   2.660   1.611   9.593
 4580SOL    HW214493   2.705   1.717   9.709
 4581SOL     OW14494   2.092   0.628  11.285
 4581SOL    HW114495   1.999   0.626  11.322
 4581SOL    HW214496   2.093   0.589  11.193
 4582SOL     OW14497   2.087   0.275  12.168
 4582SOL    HW114498   2.122   0.258  12.260
 4582SOL    HW214499   1.999   0.230  12.156
 4583SOL     OW14500   1.881   0.368  11.819
 4583SOL    HW114501   1.799   0.411  11.858
 4583SOL    HW214502   1.853   0.295  11.756
 4584SOL     OW14503   2.431   1.275  12.337
 4584SOL    HW114504   2.338   1.268  12.300
 4584SOL    HW214505   2.442   1.364  12.381
 4585SOL     OW14506   3.417   1.511  11.875
 4585SOL    HW114507   3.360   1.495  11.956
 4585SOL    HW214508   3.358   1.521  11.795
 4586SOL     OW14509   2.997   0.703  11.889
 4586SOL    HW114510   3.054   0.781  11.864
 4586SOL    HW214511   2.937   0.729  11.965
 4587SOL     OW14512   3.617   0.607  11.403
 4587SOL    HW114513   3.605   0.594  11.304
 4587SOL    HW214514   3.587   0.526  11.452
 4588SOL     OW14515   2.630   1.144  12.195
 4588SOL    HW114516   2.552   1.161  12.255
 4588SOL    HW214517   2.664   1.231  12.159
 4589SOL     OW14518   2.712   0.798  12.995
 4589SOL    HW114519   2.708   0.874  13.060
 4589SOL    HW214520   2.734   0.834  12.904
 4590SOL     OW14521   2.547   1.012  11.837
 4590SOL    HW114522   2.616   0.996  11.907
 4590SOL    HW214523   2.474   1.069  11.875
 4591SOL     OW14524   2.548   1.161  12.975
 4591SOL    HW114525   2.608   1.240  12.989
 4591SOL    HW214526   2.462   1.192  12.934
 4592SOL     OW14527   2.197   1.435  12.233
 4592SOL    HW114528   2.119   1.404  12.180
 4592SOL    HW214529   2.255   1.493  12.176
 4593SOL     OW14530   3.322   1.505  12.511
 4593SOL    HW114531   3.346   1.599  12.537
 4593SOL    HW214532   3.306   1.451  12.593
 4594SOL     OW14533   2.300   0.392  12.671
 4594SOL    HW114534   2.382   0.336  12.680
 4594SOL    HW214535   2.219   0.334  12.675
 4595SOL     OW14536   3.465   0.447  11.909
 4595SOL    HW114537   3.391   0.493  11.859
 4595SOL    HW214538   3.516   0.515  11.962
 4596SOL     OW14539   2.093   1.713  11.655
 4596SOL    HW114540   2.127   1.790  11.709
 4596SOL    HW214541   2.137   1.713  11.565
 4597SOL     OW14542   2.989   1.341  12.862
 4597SOL    HW114543   3.036   1.341  12.950
 4597SOL    HW214544   2.941   1.254  12.851
 4598SOL     OW14545   2.092   1.434  11.710
 4598SOL    HW114546   2.066   1.530  11.710
 4598SOL    HW214547   2.021   1.380  11.755
 4599SOL     OW14548   2.102   1.091  12.058
 4599SOL    HW114549   2.116   1.007  12.110
 4599SOL    HW214550   2.047   1.155  12.113
 4600SOL     OW14551   2.482   1.786  12.611
 4600SOL    HW114552   2.390   1.769  12.646
 4600SOL    HW214553   2.510   1.878  12.637
 4601SOL     OW14554   2.468   0.964  11.295
 4601SOL    HW114555   2.475   1.048  11.241
 4601SOL    HW214556   2.514   0.977  11.383
 4602SOL     OW14557   3.456   0.114  12.652
 4602SOL    HW114558   3.438   0.181  12.580
 4602SOL    HW214559   3.453   0.160  12.741
 4603SOL     OW14560   1.984   0.643  11.735
 4603SOL    HW114561   1.939   0.555  11.752
 4603SOL    HW214562   1.983   0.697  11.819
 4604SOL     OW14563   3.704   1.767  11.531
 4604SOL    HW114564   3.758   1.738  11.611
 4604SOL    HW214565   3.734   1.857  11.502
 4605SOL     OW14566   3.551   0.922  11.784
 4605SOL    HW114567   3.646   0.893  11.792
 4605SOL    HW214568   3.543   0.987  11.709
 4606SOL     OW14569   3.503   1.108  11.604
 4606SOL    HW114570   3.589   1.110  11.552
 4606SOL    HW214571   3.517   1.155  11.692
 4607SOL     OW14572   1.975   0.737  12.769
 4607SOL    HW114573   2.063   0.724  12.814
 4607SOL    HW214574   1.962   0.834  12.747
 4608SOL     OW14575   2.475   1.365  11.898
 4608SOL    HW114576   2.426   1.278  11.907
 4608SOL    HW214577   2.452   1.408  11.811
 4609SOL     OW14578   3.155   1.228  12.595
 4609SOL    HW114579   3.192   1.155  12.537
 4609SOL    HW214580   3.207   1.233  12.680
 4610SOL     OW14581   2.671   0.004  11.674
 4610SOL    HW114582   2.711   0.095  11.665
 4610SOL    HW214583   2.571   0.012  11.680
 4611SOL     OW14584   2.059   0.976  12.436
 4611SOL    HW114585   2.148   0.931  12.422
 4611SOL    HW214586   1.986   0.911  12.417
 4612SOL     OW14587   3.387   0.999  11.362
 4612SOL    HW114588   3.324   0.923  11.375
 4612SOL    HW214589   3.435   1.017  11.448
 4613SOL     OW14590   3.049   1.792  12.788
 4613SOL    HW114591   3.073   1.852  12.712
 4613SOL    HW214592   3.056   1.697  12.758
 4614SOL     OW14593   2.179   0.251  12.973
 4614SOL    HW114594   2.250   0.322  12.979
 4614SOL    HW214595   2.091   0.290  13.001
 4615SOL     OW14596   3.328   1.417  12.125
 4615SOL    HW114597   3.269   1.423  12.205
 4615SOL    HW214598   3.313   1.329  12.079
 4616SOL     OW14599   3.529   1.714  11.744
 4616SOL    HW114600   3.488   1.691  11.656
 4616SOL    HW214601   3.511   1.640  11.809
 4617SOL     OW14602   2.460   0.729  11.442
 4617SOL    HW114603   2.484   0.798  11.374
 4617SOL    HW214604   2.382   0.762  11.496
 4618SOL     OW14605   3.143   0.345  12.116
 4618SOL    HW114606   3.057   0.295  12.103
 4618SOL    HW214607   3.205   0.291  12.172
 4619SOL     OW14608   3.438   1.662  11.479
 4619SOL    HW114609   3.527   1.708  11.482
 4619SOL    HW214610   3.417   1.638  11.384
 4620SOL     OW14611   2.669   0.605  12.637
 4620SOL    HW114612   2.622   0.602  12.726
 4620SOL    HW214613   2.618   0.550  12.571
 4621SOL     OW14614   3.256   0.469  12.846
 4621SOL    HW114615   3.236   0.512  12.934
 4621SOL    HW214616   3.334   0.407  12.855
 4622SOL     OW14617   2.835   0.890  12.744
 4622SOL    HW114618   2.881   0.806  12.715
 4622SOL    HW214619   2.779   0.924  12.669
 4623SOL     OW14620   2.853   0.410  12.414
 4623SOL    HW114621   2.776   0.444  12.468
 4623SOL    HW214622   2.819   0.359  12.335
 4624SOL     OW14623   2.903   0.701  11.601
 4624SOL    HW114624   2.929   0.697  11.697
 4624SOL    HW214625   2.818   0.650  11.587
 4625SOL     OW14626   1.938   0.811  11.961
 4625SOL    HW114627   2.037   0.799  11.970
 4625SOL    HW214628   1.914   0.906  11.982
 4626SOL     OW14629   2.727   0.348  11.367
 4626SOL    HW114630   2.786   0.411  11.318
 4626SOL    HW214631   2.746   0.254  11.338
 4627SOL     OW14632   3.581   0.585  13.003
 4627SOL    HW114633   3.555   0.674  12.967
 4627SOL    HW214634   3.579   0.517  12.930
 4628SOL     OW14635   3.224   1.144  11.717
 4628SOL    HW114636   3.307   1.115  11.669
 4628SOL    HW214637   3.175   1.211  11.661
 4629SOL     OW14638   2.412   0.196  12.057
 4629SOL    HW114639   2.407   0.191  12.157
 4629SOL    HW214640   2.414   0.292  12.028
 4630SOL     OW14641   2.870   1.456  11.649
 4630SOL    HW114642   2.824   1.528  11.597
 4630SOL    HW214643   2.866   1.476  11.747
 4631SOL     OW14644   2.213   1.801  12.025
 4631SOL    HW114645   2.263   1.715  12.031
 4631SOL    HW214646   2.278   1.878  12.022
 4632SOL     OW14647   3.657   1.066  12.045
 4632SOL    HW114648   3.595   1.051  11.969
 4632SOL    HW214649   3.605   1.077  12.130
 4633SOL     OW14650   3.089   1.550  12.678
 4633SOL    HW114651   3.095   1.473  12.742
 4633SOL    HW214652   3.037   1.524  12.598
 4634SOL     OW14653   2.183   0.943  11.414
 4634SOL    HW114654   2.265   0.982  11.372
 4634SOL    HW214655   2.156   0.861  11.365
 4635SOL     OW14656   3.320   0.735  11.900
 4635SOL    HW114657   3.315   0.670  11.975
 4635SOL    HW214658   3.400   0.794  11.913
 4636SOL     OW14659   2.323   1.266  12.899
 4636SOL    HW114660   2.273   1.267  12.813
 4636SOL    HW214661   2.260   1.248  12.975
 4637SOL     OW14662   2.973   1.776  11.409
 4637SOL    HW114663   2.913   1.714  11.459
 4637SOL    HW214664   3.004   1.732  11.324
 4638SOL     OW14665   2.064   0.285  12.670
 4638SOL    HW114666   1.984   0.345  12.657
 4638SOL    HW214667   2.054   0.236  12.756
 4639SOL     OW14668   3.494   1.377  11.253
 4639SOL    HW114669   3.462   1.471  11.243
 4639SOL    HW214670   3.418   1.314  11.241
 4640SOL     OW14671   2.326   1.743  11.495
 4640SOL    HW114672   2.359   1.782  11.581
 4640SOL    HW214673   2.402   1.736  11.430
 4641SOL     OW14674   3.262   0.107  11.598
 4641SOL    HW114675   3.238   0.070  11.508
 4641SOL    HW214676   3.361   0.123  11.602
 4642SOL     OW14677   2.111   1.785  12.413
 4642SOL    HW114678   2.168   1.720  12.463
 4642SOL    HW214679   2.095   1.752  12.320
 4643SOL     OW14680   2.802   1.698  12.076
 4643SOL    HW114681   2.882   1.641  12.097
 4643SOL    HW214682   2.753   1.658  11.999
 4644SOL     OW14683   2.244   0.700  11.652
 4644SOL    HW114684   2.289   0.610  11.649
 4644SOL    HW214685   2.150   0.689  11.685
 4645SOL     OW14686   3.409   0.222  12.901
 4645SOL    HW114687   3.404   0.259  12.993
 4645SOL    HW214688   3.337   0.153  12.889
 4646SOL     OW14689   2.476   0.122  11.289
 4646SOL    HW114690   2.574   0.100  11.296
 4646SOL    HW214691   2.445   0.105  11.196
 4647SOL     OW14692   2.643   0.264  12.921
 4647SOL    HW114693   2.710   0.203  12.964
 4647SOL    HW214694   2.570   0.283  12.986
 4648SOL     OW14695   2.750   1.514  12.367
 4648SOL    HW114696   2.727   1.489  12.273
 4648SOL    HW214697   2.811   1.445  12.406
 4649SOL     OW14698   3.213   0.590  12.605
 4649SOL    HW114699   3.241   0.547  12.690
 4649SOL    HW214700   3.238   0.686  12.606
 4650SOL     OW14701   2.665   1.402  12.096
 4650SOL    HW114702   2.755   1.416  12.054
 4650SOL    HW214703   2.594   1.404  12.025
 4651SOL     OW14704   2.784   0.503  12.071
 4651SOL    HW114705   2.759   0.494  11.975
 4651SOL    HW214706   2.832   0.421  12.102
 4652SOL     OW14707   2.401   0.064  11.684
 4652SOL    HW114708   2.320   0.065  11.742
 4652SOL    HW214709   2.404   0.147  11.629
 4653SOL     OW14710   3.296   1.188  11.213
 4653SOL    HW114711   3.328   1.112  11.270
 4653SOL    HW214712   3.204   1.215  11.243
 4654SOL     OW14713   2.159   0.035  11.343
 4654SOL    HW114714   2.208   0.119  11.322
 4654SOL    HW214715   2.221  -0.030  11.388
 4655SOL     OW14716   2.797   0.236  11.652
 4655SOL    HW114717   2.749   0.277  11.574
 4655SOL    HW214718   2.896   0.234  11.633
 4656SOL     OW14719   2.938   0.683  12.636
 4656SOL    HW114720   2.858   0.622  12.639
 4656SOL    HW214721   3.019   0.630  12.612
 4657SOL     OW14722   3.089   1.570  11.965
 4657SOL    HW114723   3.110   1.644  11.900
 4657SOL    HW214724   3.157   1.570  12.038
 4658SOL     OW14725   2.321   1.152  11.913
 4658SOL    HW114726   2.250   1.125  11.978
 4658SOL    HW214727   2.295   1.124  11.820
 4659SOL     OW14728   3.133   1.797  11.763
 4659SOL    HW114729   3.177   1.861  11.699
 4659SOL    HW214730   3.083   1.849  11.833
 4660SOL     OW14731   2.894   0.549  11.188
 4660SOL    HW114732   2.853   0.631  11.149
 4660SOL    HW214733   2.958   0.575  11.261
 4661SOL     OW14734   1.940   0.556  12.558
 4661SOL    HW114735   2.032   0.555  12.517
 4661SOL    HW214736   1.934   0.630  12.625
 4662SOL     OW14737   2.423   0.222  12.319
 4662SOL    HW114738   2.461   0.138  12.356
 4662SOL    HW214739   2.335   0.241  12.363
 4663SOL     OW14740   2.728   0.454  11.814
 4663SOL    HW114741   2.696   0.526  11.752
 4663SOL    HW214742   2.752   0.373  11.761
 4664SOL     OW14743   2.879   0.039  11.925
 4664SOL    HW114744   2.807   0.044  11.856
 4664SOL    HW214745   2.855  -0.030  11.994
 4665SOL     OW14746   3.291   1.173  12.039
 4665SOL    HW114747   3.236   1.089  12.032
 4665SOL    HW214748   3.317   1.202  11.947
 4666SOL     OW14749   3.328   0.590  12.164
 4666SOL    HW114750   3.298   0.495  12.171
 4666SOL    HW214751   3.401   0.606  12.230
 4667SOL     OW14752   3.719   0.833  11.549
 4667SOL    HW114753   3.761   0.769  11.613
 4667SOL    HW214754   3.681   0.782  11.471
 4668SOL     OW14755   2.350   1.385  11.346
 4668SOL    HW114756   2.263   1.370  11.393
 4668SOL    HW214757   2.333   1.411  11.251
 4669SOL     OW14758   3.526   1.280  11.829
 4669SOL    HW114759   3.625   1.288  11.843
 4669SOL    HW214760   3.481   1.364  11.860
 4670SOL     OW14761   3.252   0.575  11.250
 4670SOL    HW114762   3.198   0.554  11.331
 4670SOL    HW214763   3.343   0.534  11.259
 4671SOL     OW14764   2.389   0.256  11.500
 4671SOL    HW114765   2.416   0.197  11.425
 4671SOL    HW214766   2.389   0.351  11.469
 4672SOL     OW14767   3.616   1.223  12.760
 4672SOL    HW114768   3.707   1.184  12.747
 4672SOL    HW214769   3.624   1.319  12.784
 4673SOL     OW14770   2.926   1.347  12.512
 4673SOL    HW114771   2.846   1.324  12.567
 4673SOL    HW214772   3.009   1.321  12.561
 4674SOL     OW14773   3.454   1.629  12.797
 4674SOL    HW114774   3.481   1.663  12.707
 4674SOL    HW214775   3.533   1.591  12.843
 4675SOL     OW14776   2.973   1.195  12.272
 4675SOL    HW114777   2.933   1.239  12.353
 4675SOL    HW214778   2.932   1.232  12.189
 4676SOL     OW14779   3.500   1.099  12.251
 4676SOL    HW114780   3.505   1.180  12.310
 4676SOL    HW214781   3.414   1.101  12.200
 4677SOL     OW14782   2.777   0.089  12.574
 4677SOL    HW114783   2.802   0.069  12.479
 4677SOL    HW214784   2.849   0.145  12.616
 4678SOL     OW14785   2.842   1.116  12.891
 4678SOL    HW114786   2.743   1.122  12.901
 4678SOL    HW214787   2.865   1.036  12.835
 4679SOL     OW14788   2.567   1.050  11.540
 4679SOL    HW114789   2.553   1.057  11.639
 4679SOL    HW214790   2.651   0.999  11.522
 4680SOL     OW14791   2.272   0.813  12.423
 4680SOL    HW114792   2.358   0.825  12.473
 4680SOL    HW214793   2.230   0.726  12.450
 4681SOL     OW14794   3.136   0.386  12.434
 4681SOL    HW114795   3.157   0.460  12.498
 4681SOL    HW214796   3.047   0.403  12.391
 4682SOL     OW14797   1.926   1.564  12.503
 4682SOL    HW114798   1.880   1.646  12.469
 4682SOL    HW214799   2.024   1.583  12.512
 4683SOL     OW14800   2.229   1.100  11.673
 4683SOL    HW114801   2.222   1.183  11.617
 4683SOL    HW214802   2.233   1.020  11.613
 4684SOL     OW14803   2.428   0.537  12.037
 4684SOL    HW114804   2.440   0.603  11.963
 4684SOL    HW214805   2.474   0.571  12.120
 4685SOL     OW14806   3.114   1.348  11.560
 4685SOL    HW114807   3.164   1.425  11.600
 4685SOL    HW214808   3.019   1.350  11.592
 4686SOL     OW14809   3.134   1.445  12.314
 4686SOL    HW114810   3.181   1.458  12.401
 4686SOL    HW214811   3.068   1.371  12.323
 4687SOL     OW14812   3.444   0.639  11.644
 4687SOL    HW114813   3.413   0.700  11.717
 4687SOL    HW214814   3.494   0.691  11.575
 4688SOL     OW14815   2.216   1.510  12.501
 4688SOL    HW114816   2.195   1.466  12.414
 4688SOL    HW214817   2.313   1.536  12.504
 4689SOL     OW14818   2.264   0.751  12.770
 4689SOL    HW114819   2.332   0.806  12.723
 4689SOL    HW214820   2.304   0.663  12.797
 4690SOL     OW14821   3.449   0.779  12.842
 4690SOL    HW114822   3.357   0.817  12.837
 4690SOL    HW214823   3.509   0.826  12.777
 4691SOL     OW14824   2.875   0.105  12.942
 4691SOL    HW114825   2.881   0.190  12.890
 4691SOL    HW214826   2.907   0.029  12.885
 4692SOL     OW14827   2.366   0.050  12.912
 4692SOL    HW114828   2.324  -0.007  12.842
 4692SOL    HW214829   2.300   0.119  12.944
 4693SOL     OW14830   2.435   0.870  12.201
 4693SOL    HW114831   2.479   0.959  12.192
 4693SOL    HW214832   2.372   0.870  12.278
 4694SOL     OW14833   3.222   0.862  12.217
 4694SOL    HW114834   3.147   0.862  12.151
 4694SOL    HW214835   3.259   0.770  12.226
 4695SOL     OW14836   3.071   0.525  11.447
 4695SOL    HW114837   3.084   0.441  11.501
 4695SOL    HW214838   3.042   0.599  11.507
 4696SOL     OW14839   2.169   0.213  12.403
 4696SOL    HW114840   2.146   0.250  12.493
 4696SOL    HW214841   2.139   0.118  12.397
 4697SOL     OW14842   1.899   1.310  12.454
 4697SOL    HW114843   1.952   1.261  12.522
 4697SOL    HW214844   1.921   1.408  12.459
 4698SOL     OW14845   2.594   0.634  12.236
 4698SOL    HW114846   2.653   0.608  12.160
 4698SOL    HW214847   2.566   0.730  12.225
 4699SOL     OW14848   3.590   0.935  13.026
 4699SOL    HW114849   3.544   0.928  12.937
 4699SOL    HW214850   3.528   0.979  13.092
 4700SOL     OW14851   2.169   0.063  11.790
 4700SOL    HW114852   2.158   0.157  11.823
 4700SOL    HW214853   2.164   0.000  11.867
 4701SOL     OW14854   3.484   0.367  11.546
 4701SOL    HW114855   3.486   0.291  11.610
 4701SOL    HW214856   3.436   0.444  11.586
 4702SOL     OW14857   2.885   0.766  12.138
 4702SOL    HW114858   2.900   0.787  12.234
 4702SOL    HW214859   2.855   0.671  12.129
 4703SOL     OW14860   2.842   1.573  12.872
 4703SOL    HW114861   2.822   1.617  12.784
 4703SOL    HW214862   2.881   1.482  12.856
 4704SOL     OW14863   3.721   1.518  12.777
 4704SOL    HW114864   3.735   1.545  12.682
 4704SOL    HW214865   3.804   1.540  12.830
 4705SOL     OW14866   2.212   0.898  12.976
 4705SOL    HW114867   2.288   0.942  13.024
 4705SOL    HW214868   2.247   0.851  12.894
 4706SOL     OW14869   3.402   0.274  11.297
 4706SOL    HW114870   3.341   0.199  11.320
 4706SOL    HW214871   3.424   0.326  11.380
 4707SOL     OW14872   3.165   0.838  11.214
 4707SOL    HW114873   3.199   0.745  11.229
 4707SOL    HW214874   3.183   0.865  11.119
 4708SOL     OW14875   2.930   1.333  12.021
 4708SOL    HW114876   2.937   1.249  11.966
 4708SOL    HW214877   2.992   1.402  11.985
 4709SOL     OW14878   2.181   0.810  12.121
 4709SOL    HW114879   2.274   0.846  12.126
 4709SOL    HW214880   2.175   0.725  12.173
 4710SOL     OW14881   2.201   0.509  12.178
 4710SOL    HW114882   2.149   0.426  12.161
 4710SOL    HW214883   2.278   0.514  12.114
 4711SOL     OW14884   3.000   0.380  12.850
 4711SOL    HW114885   2.955   0.443  12.914
 4711SOL    HW214886   3.093   0.411  12.833
 4712SOL     OW14887   3.022   0.207  12.649
 4712SOL    HW114888   3.022   0.271  12.726
 4712SOL    HW214889   3.050   0.255  12.566
 4713SOL     OW14890   1.870   1.326  11.372
 4713SOL    HW114891   1.777   1.347  11.341
 4713SOL    HW214892   1.880   1.227  11.385
 4714SOL     OW14893   2.366   1.568  12.082
 4714SOL    HW114894   2.432   1.642  12.091
 4714SOL    HW214895   2.410   1.489  12.040
 4715SOL     OW14896   2.864   0.796  12.410
 4715SOL    HW114897   2.905   0.764  12.496
 4715SOL    HW214898   2.768   0.769  12.407
 4716SOL     OW14899   1.902   0.544  12.286
 4716SOL    HW114900   1.987   0.511  12.245
 4716SOL    HW214901   1.915   0.559  12.384
 4717SOL     OW14902   2.051   0.520  12.894
 4717SOL    HW114903   2.110   0.480  12.824
 4717SOL    HW214904   1.993   0.591  12.853
 4718SOL     OW14905   3.231   0.950  12.832
 4718SOL    HW114906   3.270   1.039  12.852
 4718SOL    HW214907   3.241   0.930  12.735
 4719SOL     OW14908   2.677   0.572  11.497
 4719SOL    HW114909   2.684   0.483  11.451
 4719SOL    HW214910   2.583   0.606  11.489
 4720SOL     OW14911   3.519   0.604  12.378
 4720SOL    HW114912   3.481   0.535  12.440
 4720SOL    HW214913   3.601   0.568  12.334
 4721SOL     OW14914   2.114   1.564  12.916
 4721SOL    HW114915   2.084   1.621  12.992
 4721SOL    HW214916   2.107   1.467  12.942
 4722SOL     OW14917   2.533   0.464  12.441
 4722SOL    HW114918   2.499   0.375  12.411
 4722SOL    HW214919   2.559   0.518  12.361
 4723SOL     OW14920   2.792   1.678  12.637
 4723SOL    HW114921   2.768   1.660  12.542
 4723SOL    HW214922   2.822   1.772  12.647
 4724SOL     OW14923   2.335   0.500  11.363
 4724SOL    HW114924   2.396   0.580  11.367
 4724SOL    HW214925   2.240   0.531  11.370
 4725SOL     OW14926   2.021   1.137  12.638
 4725SOL    HW114927   2.043   1.076  12.714
 4725SOL    HW214928   2.031   1.088  12.552
 4726SOL     OW14929   3.209   1.059  12.406
 4726SOL    HW114930   3.233   0.996  12.332
 4726SOL    HW214931   3.119   1.099  12.388
 4727SOL     OW14932   3.164   0.855  11.481
 4727SOL    HW114933   3.078   0.824  11.523
 4727SOL    HW214934   3.160   0.841  11.382
 4728SOL     OW14935   3.621   1.747  12.326
 4728SOL    HW114936   3.682   1.777  12.253
 4728SOL    HW214937   3.583   1.658  12.304
 4729SOL     OW14938   3.114   1.731  12.300
 4729SOL    HW114939   3.198   1.736  12.246
 4729SOL    HW214940   3.091   1.635  12.318
 4730SOL     OW14941   1.945   1.258  12.194
 4730SOL    HW114942   1.940   1.257  12.294
 4730SOL    HW214943   1.862   1.217  12.156
 4731SOL     OW14944   2.550   1.662  12.888
 4731SOL    HW114945   2.494   1.743  12.897
 4731SOL    HW214946   2.602   1.666  12.802
 4732SOL     OW14947   3.588   0.135  11.695
 4732SOL    HW114948   3.661   0.118  11.628
 4732SOL    HW214949   3.557   0.048  11.733
 4733SOL     OW14950   3.250   1.573  11.649
 4733SOL    HW114951   3.317   1.585  11.575
 4733SOL    HW214952   3.210   1.662  11.672
 4734SOL     OW14953   3.142   0.927  11.844
 4734SOL    HW114954   3.202   0.846  11.846
 4734SOL    HW214955   3.182   0.996  11.784
 4735SOL     OW14956   2.692   1.273  12.594
 4735SOL    HW114957   2.687   1.306  12.689
 4735SOL    HW214958   2.606   1.292  12.548
 4736SOL     OW14959   2.534   1.616  11.326
 4736SOL    HW114960   2.543   1.626  11.227
 4736SOL    HW214961   2.494   1.527  11.347
 4737SOL     OW14962   3.512   1.720  12.566
 4737SOL    HW114963   3.565   1.730  12.482
 4737SOL    HW214964   3.485   1.810  12.600
 4738SOL     OW14965   3.703   0.175  12.135
 4738SOL    HW114966   3.742   0.090  12.099
 4738SOL    HW214967   3.605   0.177  12.116
 4739SOL     OW14968   2.125   0.326  11.892
 4739SOL    HW114969   2.046   0.377  11.858
 4739SOL    HW214970   2.116   0.311  11.990
 4740SOL     OW14971   3.056   1.612  11.203
 4740SOL    HW114972   3.062   1.519  11.240
 4740SOL    HW214973   2.997   1.612  11.123
 4741SOL     OW14974   2.684   1.002  12.544
 4741SOL    HW114975   2.724   1.001  12.452
 4741SOL    HW214976   2.694   1.094  12.584
 4742SOL     OW14977   2.778   0.910  11.463
 4742SOL    HW114978   2.841   0.948  11.395
 4742SOL    HW214979   2.818   0.827  11.502
 4743SOL     OW14980   3.366   1.607  11.216
 4743SOL    HW114981   3.274   1.644  11.223
 4743SOL    HW214982   3.404   1.627  11.126
 4744SOL     OW14983   2.234   1.288  12.662
 4744SOL    HW114984   2.221   1.381  12.628
 4744SOL    HW214985   2.150   1.236  12.649
 4745SOL     OW14986   3.476   1.292  12.461
 4745SOL    HW114987   3.536   1.295  12.541
 4745SOL    HW214988   3.401   1.356  12.474
 4746SOL     OW14989   2.901   1.098  11.868
 4746SOL    HW114990   2.831   1.051  11.922
 4746SOL    HW214991   2.960   1.030  11.825
 4747SOL     OW14992   2.876   0.236  12.143
 4747SOL    HW114993   2.868   0.200  12.050
 4747SOL    HW214994   2.874   0.160  12.208
 4748SOL     OW14995   2.452   1.487  11.663
 4748SOL    HW114996   2.494   1.429  11.593
 4748SOL    HW214997   2.408   1.566  11.619
 4749SOL     OW14998   3.571   0.385  12.553
 4749SOL    HW114999   3.644   0.454  12.557
 4749SOL    HW215000   3.599   0.310  12.494
 4750SOL     OW15001   2.117   1.348  11.462
 4750SOL    HW115002   2.021   1.349  11.435
 4750SOL    HW215003   2.129   1.401  11.546
 4751SOL     OW15004   1.967   1.013  12.898
 4751SOL    HW115005   1.890   0.980  12.952
 4751SOL    HW215006   2.052   0.983  12.940
 4752SOL     OW15007   2.534   0.203  12.661
 4752SOL    HW115008   2.624   0.187  12.621
 4752SOL    HW215009   2.542   0.208  12.760
 4753SOL     OW15010   1.937   0.345  11.205
 4753SOL    HW115011   1.845   0.317  11.176
 4753SOL    HW215012   1.968   0.422  11.149
 4754SOL     OW15013   3.302   0.856  12.570
 4754SOL    HW115014   3.245   0.908  12.507
 4754SOL    HW215015   3.398   0.868  12.546
 4755SOL     OW15016   1.934   0.166  11.490
 4755SOL    HW115017   1.917   0.249  11.436
 4755SOL    HW215018   2.024   0.129  11.468
 4756SOL     OW15019   3.045   1.335  11.291
 4756SOL    HW115020   2.946   1.324  11.293
 4756SOL    HW215021   3.079   1.350  11.384
 4757SOL     OW15022   2.475   0.842  12.603
 4757SOL    HW115023   2.531   0.923  12.586
 4757SOL    HW215024   2.534   0.762  12.606
 4758SOL     OW15025   3.355   1.767  12.131
 4758SOL    HW115026   3.388   1.831  12.062
 4758SOL    HW215027   3.421   1.761  12.206
 4759SOL     OW15028   2.578   0.565  12.880
 4759SOL    HW115029   2.597   0.630  12.954
 4759SOL    HW215030   2.638   0.485  12.889
 4760SOL     OW15031   3.312   1.220  12.805
 4760SOL    HW115032   3.303   1.210  12.904
 4760SOL    HW215033   3.408   1.213  12.779
 4761SOL     OW15034   2.252   1.741  12.732
 4761SOL    HW115035   2.161   1.782  12.730
 4761SOL    HW215036   2.245   1.647  12.764
 4762SOL     OW15037   3.536   0.883  12.426
 4762SOL    HW115038   3.509   0.794  12.389
 4762SOL    HW215039   3.537   0.951  12.353
 4763SOL     OW15040   3.087   0.325  11.621
 4763SOL    HW115041   3.152   0.251  11.610
 4763SOL    HW215042   3.107   0.375  11.705
 4764SOL     OW15043   2.456   0.745  11.824
 4764SOL    HW115044   2.506   0.830  11.805
 4764SOL    HW215045   2.368   0.747  11.776
 4765SOL     OW15046   3.639   0.342  12.814
 4765SOL    HW115047   3.622   0.373  12.720
 4765SOL    HW215048   3.555   0.305  12.852
 4766SOL     OW15049   3.592   0.934  12.689
 4766SOL    HW115050   3.630   1.025  12.704
 4766SOL    HW215051   3.584   0.917  12.590
 4767SOL     OW15052   2.721   1.374  11.188
 4767SOL    HW115053   2.675   1.389  11.276
 4767SOL    HW215054   2.765   1.459  11.158
 4768SOL     OW15055   2.523   1.790  12.125
 4768SOL    HW115056   2.477   1.878  12.112
 4768SOL    HW215057   2.622   1.802  12.118
 4769SOL     OW15058   2.721   0.956  12.033
 4769SOL    HW115059   2.775   0.887  12.081
 4769SOL    HW215060   2.689   1.025  12.099
 4770SOL     OW15061   2.945   0.984  11.259
 4770SOL    HW115062   2.922   1.037  11.177
 4770SOL    HW215063   3.026   0.928  11.240
 4771SOL     OW15064   3.723   1.569  12.023
 4771SOL    HW115065   3.652   1.557  11.953
 4771SOL    HW215066   3.724   1.490  12.083
 4772SOL     OW15067   2.083   1.314  13.016
 4772SOL    HW115068   2.018   1.241  12.995
 4772SOL    HW215069   2.087   1.328  13.114
 4773SOL     OW15070   1.941   1.240  11.825
 4773SOL    HW115071   1.940   1.193  11.913
 4773SOL    HW215072   2.023   1.212  11.774
 4774SOL     OW15073   2.534   1.391  12.796
 4774SOL    HW115074   2.456   1.341  12.834
 4774SOL    HW215075   2.531   1.486  12.827
 4775SOL     OW15076   3.686   0.192  12.399
 4775SOL    HW115077   3.682   0.102  12.443
 4775SOL    HW215078   3.689   0.181  12.300
 4776SOL     OW15079   2.290   0.424  11.692
 4776SOL    HW115080   2.320   0.352  11.630
 4776SOL    HW215081   2.251   0.384  11.775
 4777SOL     OW15082   3.567   1.487  12.276
 4777SOL    HW115083   3.474   1.462  12.249
 4777SOL    HW215084   3.593   1.437  12.358
 4778SOL     OW15085   2.179   0.547  12.452
 4778SOL    HW115086   2.217   0.488  12.524
 4778SOL    HW215087   2.219   0.521  12.364
 4779SOL     OW15088   2.674   1.586  11.859
 4779SOL    HW115089   2.706   1.596  11.765
 4779SOL    HW215090   2.595   1.524  11.861
 4780SOL     OW15091   3.286   0.214  12.284
 4780SOL    HW115092   3.338   0.149  12.339
 4780SOL    HW215093   3.237   0.277  12.345
 4781SOL     OW15094   2.863   0.034  12.326
 4781SOL    HW115095   2.800  -0.038  12.295
 4781SOL    HW215096   2.956  -0.002  12.326
 4782SOL     OW15097   2.632   1.330  11.473
 4782SOL    HW115098   2.586   1.243  11.490
 4782SOL    HW215099   2.723   1.327  11.514
 4783SOL     OW15100   2.480   1.567  12.456
 4783SOL    HW115101   2.475   1.649  12.513
 4783SOL    HW215102   2.569   1.564  12.411
 4784SOL     OW15103   3.214   0.052  11.340
 4784SOL    HW115104   3.249   0.011  11.256
 4784SOL    HW215105   3.124   0.014  11.360
 4785SOL     OW15106   3.162   0.453  11.863
 4785SOL    HW115107   3.103   0.533  11.867
 4785SOL    HW215108   3.177   0.418  11.956
 4786SOL     OW15109   3.455   0.221  12.054
 4786SOL    HW115110   3.371   0.220  12.108
 4786SOL    HW215111   3.457   0.304  11.998
 4787SOL     OW15112   1.901   1.077  11.472
 4787SOL    HW115113   2.000   1.066  11.463
 4787SOL    HW215114   1.861   0.991  11.504
 4788SOL     OW15115   2.737   1.646  11.509
 4788SOL    HW115116   2.660   1.611  11.455
 4788SOL    HW215117   2.705   1.717  11.571
 4789SOL     OW15118   2.092   0.628  13.147
 4789SOL    HW115119   1.999   0.626  13.184
 4789SOL    HW215120   2.093   0.589  13.055
 4790SOL     OW15121   2.087   0.275  14.030
 4790SOL    HW115122   2.122   0.258  14.122
 4790SOL    HW215123   1.999   0.230  14.018
 4791SOL     OW15124   1.881   0.368  13.681
 4791SOL    HW115125   1.799   0.411  13.720
 4791SOL    HW215126   1.853   0.295  13.618
 4792SOL     OW15127   3.417   1.511  13.737
 4792SOL    HW115128   3.360   1.495  13.818
 4792SOL    HW215129   3.358   1.521  13.657
 4793SOL     OW15130   2.997   0.703  13.751
 4793SOL    HW115131   3.054   0.781  13.726
 4793SOL    HW215132   2.937   0.729  13.827
 4794SOL     OW15133   3.617   0.607  13.265
 4794SOL    HW115134   3.605   0.594  13.166
 4794SOL    HW215135   3.587   0.526  13.314
 4795SOL     OW15136   2.547   1.012  13.699
 4795SOL    HW115137   2.616   0.996  13.769
 4795SOL    HW215138   2.474   1.069  13.737
 4796SOL     OW15139   3.465   0.447  13.771
 4796SOL    HW115140   3.391   0.493  13.721
 4796SOL    HW215141   3.516   0.515  13.824
 4797SOL     OW15142   2.093   1.713  13.517
 4797SOL    HW115143   2.127   1.790  13.571
 4797SOL    HW215144   2.137   1.713  13.427
 4798SOL     OW15145   2.092   1.434  13.572
 4798SOL    HW115146   2.066   1.530  13.572
 4798SOL    HW215147   2.021   1.380  13.617
 4799SOL     OW15148   2.102   1.091  13.920
 4799SOL    HW115149   2.116   1.007  13.972
 4799SOL    HW215150   2.047   1.155  13.975
 4800SOL     OW15151   2.468   0.964  13.157
 4800SOL    HW115152   2.475   1.048  13.103
 4800SOL    HW215153   2.514   0.977  13.245
 4801SOL     OW15154   1.984   0.643  13.597
 4801SOL    HW115155   1.939   0.555  13.614
 4801SOL    HW215156   1.983   0.697  13.681
 4802SOL     OW15157   3.704   1.767  13.393
 4802SOL    HW115158   3.758   1.738  13.473
 4802SOL    HW215159   3.734   1.857  13.364
 4803SOL     OW15160   3.551   0.922  13.646
 4803SOL    HW115161   3.646   0.893  13.654
 4803SOL    HW215162   3.543   0.987  13.571
 4804SOL     OW15163   3.503   1.108  13.466
 4804SOL    HW115164   3.589   1.110  13.414
 4804SOL    HW215165   3.517   1.155  13.554
 4805SOL     OW15166   2.475   1.365  13.760
 4805SOL    HW115167   2.426   1.278  13.769
 4805SOL    HW215168   2.452   1.408  13.673
 4806SOL     OW15169   2.671   0.004  13.536
 4806SOL    HW115170   2.711   0.095  13.527
 4806SOL    HW215171   2.571   0.012  13.542
 4807SOL     OW15172   3.387   0.999  13.224
 4807SOL    HW115173   3.324   0.923  13.237
 4807SOL    HW215174   3.435   1.017  13.310
 4808SOL     OW15175   3.529   1.714  13.606
 4808SOL    HW115176   3.488   1.691  13.518
 4808SOL    HW215177   3.511   1.640  13.671
 4809SOL     OW15178   2.460   0.729  13.304
 4809SOL    HW115179   2.484   0.798  13.236
 4809SOL    HW215180   2.382   0.762  13.358
 4810SOL     OW15181   3.143   0.345  13.978
 4810SOL    HW115182   3.057   0.295  13.965
 4810SOL    HW215183   3.205   0.291  14.034
 4811SOL     OW15184   3.438   1.662  13.341
 4811SOL    HW115185   3.527   1.708  13.344
 4811SOL    HW215186   3.417   1.638  13.246
 4812SOL     OW15187   2.903   0.701  13.463
 4812SOL    HW115188   2.929   0.697  13.559
 4812SOL    HW215189   2.818   0.650  13.449
 4813SOL     OW15190   1.938   0.811  13.823
 4813SOL    HW115191   2.037   0.799  13.832
 4813SOL    HW215192   1.914   0.906  13.844
 4814SOL     OW15193   2.727   0.348  13.229
 4814SOL    HW115194   2.786   0.411  13.180
 4814SOL    HW215195   2.746   0.254  13.200
 4815SOL     OW15196   3.224   1.144  13.579
 4815SOL    HW115197   3.307   1.115  13.531
 4815SOL    HW215198   3.175   1.211  13.523
 4816SOL     OW15199   2.870   1.456  13.511
 4816SOL    HW115200   2.824   1.528  13.459
 4816SOL    HW215201   2.866   1.476  13.609
 4817SOL     OW15202   2.213   1.801  13.887
 4817SOL    HW115203   2.263   1.715  13.893
 4817SOL    HW215204   2.278   1.878  13.884
 4818SOL     OW15205   3.657   1.066  13.907
 4818SOL    HW115206   3.595   1.051  13.831
 4818SOL    HW215207   3.605   1.077  13.992
 4819SOL     OW15208   2.183   0.943  13.276
 4819SOL    HW115209   2.265   0.982  13.234
 4819SOL    HW215210   2.156   0.861  13.227
 4820SOL     OW15211   3.320   0.735  13.762
 4820SOL    HW115212   3.315   0.670  13.837
 4820SOL    HW215213   3.400   0.794  13.775
 4821SOL     OW15214   2.973   1.776  13.271
 4821SOL    HW115215   2.913   1.714  13.321
 4821SOL    HW215216   3.004   1.732  13.186
 4822SOL     OW15217   3.494   1.377  13.115
 4822SOL    HW115218   3.462   1.471  13.105
 4822SOL    HW215219   3.418   1.314  13.103
 4823SOL     OW15220   2.326   1.743  13.357
 4823SOL    HW115221   2.359   1.782  13.443
 4823SOL    HW215222   2.402   1.736  13.292
 4824SOL     OW15223   3.262   0.107  13.460
 4824SOL    HW115224   3.238   0.070  13.370
 4824SOL    HW215225   3.361   0.123  13.464
 4825SOL     OW15226   2.802   1.698  13.938
 4825SOL    HW115227   2.882   1.641  13.959
 4825SOL    HW215228   2.753   1.658  13.861
 4826SOL     OW15229   2.244   0.700  13.514
 4826SOL    HW115230   2.289   0.610  13.511
 4826SOL    HW215231   2.150   0.689  13.547
 4827SOL     OW15232   2.476   0.122  13.151
 4827SOL    HW115233   2.574   0.100  13.158
 4827SOL    HW215234   2.445   0.105  13.058
 4828SOL     OW15235   2.401   0.064  13.546
 4828SOL    HW115236   2.320   0.065  13.604
 4828SOL    HW215237   2.404   0.147  13.491
 4829SOL     OW15238   3.296   1.188  13.075
 4829SOL    HW115239   3.328   1.112  13.132
 4829SOL    HW215240   3.204   1.215  13.105
 4830SOL     OW15241   2.159   0.035  13.205
 4830SOL    HW115242   2.208   0.119  13.184
 4830SOL    HW215243   2.221  -0.030  13.250
 4831SOL     OW15244   2.797   0.236  13.514
 4831SOL    HW115245   2.749   0.277  13.436
 4831SOL    HW215246   2.896   0.234  13.495
 4832SOL     OW15247   2.321   1.152  13.775
 4832SOL    HW115248   2.250   1.125  13.840
 4832SOL    HW215249   2.295   1.124  13.682
 4833SOL     OW15250   3.133   1.797  13.625
 4833SOL    HW115251   3.177   1.861  13.561
 4833SOL    HW215252   3.083   1.849  13.695
 4834SOL     OW15253   2.894   0.549  13.050
 4834SOL    HW115254   2.853   0.631  13.011
 4834SOL    HW215255   2.958   0.575  13.123
 4835SOL     OW15256   2.728   0.454  13.676
 4835SOL    HW115257   2.696   0.526  13.614
 4835SOL    HW215258   2.752   0.373  13.623
 4836SOL     OW15259   2.879   0.039  13.787
 4836SOL    HW115260   2.807   0.044  13.718
 4836SOL    HW215261   2.855  -0.030  13.856
 4837SOL     OW15262   3.719   0.833  13.411
 4837SOL    HW115263   3.761   0.769  13.475
 4837SOL    HW215264   3.681   0.782  13.333
 4838SOL     OW15265   2.350   1.385  13.208
 4838SOL    HW115266   2.263   1.370  13.255
 4838SOL    HW215267   2.333   1.411  13.113
 4839SOL     OW15268   3.526   1.280  13.691
 4839SOL    HW115269   3.625   1.288  13.705
 4839SOL    HW215270   3.481   1.364  13.722
 4840SOL     OW15271   3.252   0.575  13.112
 4840SOL    HW115272   3.198   0.554  13.193
 4840SOL    HW215273   3.343   0.534  13.121
 4841SOL     OW15274   2.389   0.256  13.362
 4841SOL    HW115275   2.416   0.197  13.287
 4841SOL    HW215276   2.389   0.351  13.331
 4842SOL     OW15277   2.567   1.050  13.402
 4842SOL    HW115278   2.553   1.057  13.501
 4842SOL    HW215279   2.651   0.999  13.384
 4843SOL     OW15280   2.229   1.100  13.535
 4843SOL    HW115281   2.222   1.183  13.479
 4843SOL    HW215282   2.233   1.020  13.475
 4844SOL     OW15283   2.428   0.537  13.899
 4844SOL    HW115284   2.440   0.603  13.825
 4844SOL    HW215285   2.474   0.571  13.982
 4845SOL     OW15286   3.114   1.348  13.422
 4845SOL    HW115287   3.164   1.425  13.462
 4845SOL    HW215288   3.019   1.350  13.454
 4846SOL     OW15289   3.444   0.639  13.506
 4846SOL    HW115290   3.413   0.700  13.579
 4846SOL    HW215291   3.494   0.691  13.437
 4847SOL     OW15292   3.071   0.525  13.309
 4847SOL    HW115293   3.084   0.441  13.363
 4847SOL    HW215294   3.042   0.599  13.369
 4848SOL     OW15295   2.169   0.063  13.652
 4848SOL    HW115296   2.158   0.157  13.685
 4848SOL    HW215297   2.164   0.000  13.729
 4849SOL     OW15298   3.484   0.367  13.408
 4849SOL    HW115299   3.486   0.291  13.472
 4849SOL    HW215300   3.436   0.444  13.448
 4850SOL     OW15301   3.402   0.274  13.159
 4850SOL    HW115302   3.341   0.199  13.182
 4850SOL    HW215303   3.424   0.326  13.242
 4851SOL     OW15304   3.165   0.838  13.076
 4851SOL    HW115305   3.199   0.745  13.091
 4851SOL    HW215306   3.183   0.865  12.981
 4852SOL     OW15307   1.870   1.326  13.234
 4852SOL    HW115308   1.777   1.347  13.203
 4852SOL    HW215309   1.880   1.227  13.247
 4853SOL     OW15310   2.677   0.572  13.359
 4853SOL    HW115311   2.684   0.483  13.313
 4853SOL    HW215312   2.583   0.606  13.351
 4854SOL     OW15313   2.335   0.500  13.225
 4854SOL    HW115314   2.396   0.580  13.229
 4854SOL    HW215315   2.240   0.531  13.232
 4855SOL     OW15316   3.164   0.855  13.343
 4855SOL    HW115317   3.078   0.824  13.385
 4855SOL    HW215318   3.160   0.841  13.244
 4856SOL     OW15319   3.588   0.135  13.557
 4856SOL    HW115320   3.661   0.118  13.490
 4856SOL    HW215321   3.557   0.048  13.595
 4857SOL     OW15322   3.250   1.573  13.511
 4857SOL    HW115323   3.317   1.585  13.437
 4857SOL    HW215324   3.210   1.662  13.534
 4858SOL     OW15325   3.142   0.927  13.706
 4858SOL    HW115326   3.202   0.846  13.708
 4858SOL    HW215327   3.182   0.996  13.646
 4859SOL     OW15328   2.534   1.616  13.188
 4859SOL    HW115329   2.543   1.626  13.089
 4859SOL    HW215330   2.494   1.527  13.209
 4860SOL     OW15331   3.703   0.175  13.997
 4860SOL    HW115332   3.742   0.090  13.961
 4860SOL    HW215333   3.605   0.177  13.978
 4861SOL     OW15334   2.125   0.326  13.754
 4861SOL    HW115335   2.046   0.377  13.720
 4861SOL    HW215336   2.116   0.311  13.852
 4862SOL     OW15337   3.056   1.612  13.065
 4862SOL    HW115338   3.062   1.519  13.102
 4862SOL    HW215339   2.997   1.612  12.985
 4863SOL     OW15340   2.778   0.910  13.325
 4863SOL    HW115341   2.841   0.948  13.257
 4863SOL    HW215342   2.818   0.827  13.364
 4864SOL     OW15343   3.366   1.607  13.078
 4864SOL    HW115344   3.274   1.644  13.085
 4864SOL    HW215345   3.404   1.627  12.988
 4865SOL     OW15346   2.901   1.098  13.730
 4865SOL    HW115347   2.831   1.051  13.784
 4865SOL    HW215348   2.960   1.030  13.687
 4866SOL     OW15349   2.452   1.487  13.525
 4866SOL    HW115350   2.494   1.429  13.455
 4866SOL    HW215351   2.408   1.566  13.481
 4867SOL     OW15352   2.117   1.348  13.324
 4867SOL    HW115353   2.021   1.349  13.297
 4867SOL    HW215354   2.129   1.401  13.408
 4868SOL     OW15355   1.937   0.345  13.067
 4868SOL    HW115356   1.845   0.317  13.038
 4868SOL    HW215357   1.968   0.422  13.011
 4869SOL     OW15358   1.934   0.166  13.352
 4869SOL    HW115359   1.917   0.249  13.298
 4869SOL    HW215360   2.024   0.129  13.330
 4870SOL     OW15361   3.045   1.335  13.153
 4870SOL    HW115362   2.946   1.324  13.155
 4870SOL    HW215363   3.079   1.350  13.246
 4871SOL     OW15364   3.087   0.325  13.483
 4871SOL    HW115365   3.152   0.251  13.472
 4871SOL    HW215366   3.107   0.375  13.567
 4872SOL     OW15367   2.456   0.745  13.686
 4872SOL    HW115368   2.506   0.830  13.667
 4872SOL    HW215369   2.368   0.747  13.638
 4873SOL     OW15370   2.721   1.374  13.050
 4873SOL    HW115371   2.675   1.389  13.138
 4873SOL    HW215372   2.765   1.459  13.020
 4874SOL     OW15373   2.523   1.790  13.987
 4874SOL    HW115374   2.477   1.878  13.974
 4874SOL    HW215375   2.622   1.802  13.980
 4875SOL     OW15376   2.721   0.956  13.895
 4875SOL    HW115377   2.775   0.887  13.943
 4875SOL    HW215378   2.689   1.025  13.961
 4876SOL     OW15379   2.945   0.984  13.121
 4876SOL    HW115380   2.922   1.037  13.039
 4876SOL    HW215381   3.026   0.928  13.102
 4877SOL     OW15382   1.941   1.240  13.687
 4877SOL    HW115383   1.940   1.193  13.775
 4877SOL    HW215384   2.023   1.212  13.636
 4878SOL     OW15385   2.290   0.424  13.554
 4878SOL    HW115386   2.320   0.352  13.492
 4878SOL    HW215387   2.251   0.384  13.637
 4879SOL     OW15388   3.567   1.487  14.138
 4879SOL    HW115389   3.474   1.462  14.111
 4879SOL    HW215390   3.593   1.437  14.220
 4880SOL     OW15391   2.674   1.586  13.721
 4880SOL    HW115392   2.706   1.596  13.627
 4880SOL    HW215393   2.595   1.524  13.723
 4881SOL     OW15394   2.632   1.330  13.335
 4881SOL    HW115395   2.586   1.243  13.352
 4881SOL    HW215396   2.723   1.327  13.376
 4882SOL     OW15397   3.214   0.052  13.202
 4882SOL    HW115398   3.249   0.011  13.118
 4882SOL    HW215399   3.124   0.014  13.222
 4883SOL     OW15400   3.162   0.453  13.725
 4883SOL    HW115401   3.103   0.533  13.729
 4883SOL    HW215402   3.177   0.418  13.818
 4884SOL     OW15403   1.901   1.077  13.334
 4884SOL    HW115404   2.000   1.066  13.325
 4884SOL    HW215405   1.861   0.991  13.366
 4885SOL     OW15406   2.737   1.646  13.371
 4885SOL    HW115407   2.660   1.611  13.317
 4885SOL    HW215408   2.705   1.717  13.433
 4886SOL     OW15409   2.092   2.490   0.113
 4886SOL    HW115410   1.999   2.488   0.150
 4886SOL    HW215411   2.093   2.451   0.021
 4887SOL     OW15412   1.881   2.230   0.647
 4887SOL    HW115413   1.799   2.273   0.686
 4887SOL    HW215414   1.853   2.157   0.584
 4888SOL     OW15415   2.431   3.137   1.165
 4888SOL    HW115416   2.338   3.130   1.128
 4888SOL    HW215417   2.442   3.226   1.209
 4889SOL     OW15418   3.417   3.373   0.703
 4889SOL    HW115419   3.360   3.357   0.784
 4889SOL    HW215420   3.358   3.383   0.623
 4890SOL     OW15421   2.997   2.565   0.717
 4890SOL    HW115422   3.054   2.643   0.692
 4890SOL    HW215423   2.937   2.591   0.793
 4891SOL     OW15424   3.617   2.469   0.231
 4891SOL    HW115425   3.605   2.456   0.132
 4891SOL    HW215426   3.587   2.388   0.280
 4892SOL     OW15427   2.630   3.006   1.023
 4892SOL    HW115428   2.552   3.023   1.083
 4892SOL    HW215429   2.664   3.093   0.987
 4893SOL     OW15430   2.712   2.660   1.823
 4893SOL    HW115431   2.708   2.736   1.888
 4893SOL    HW215432   2.734   2.696   1.732
 4894SOL     OW15433   2.547   2.874   0.665
 4894SOL    HW115434   2.616   2.858   0.735
 4894SOL    HW215435   2.474   2.931   0.703
 4895SOL     OW15436   2.548   3.023   1.803
 4895SOL    HW115437   2.608   3.102   1.817
 4895SOL    HW215438   2.462   3.054   1.762
 4896SOL     OW15439   2.197   3.297   1.061
 4896SOL    HW115440   2.119   3.266   1.008
 4896SOL    HW215441   2.255   3.355   1.004
 4897SOL     OW15442   3.322   3.367   1.339
 4897SOL    HW115443   3.346   3.461   1.365
 4897SOL    HW215444   3.306   3.313   1.421
 4898SOL     OW15445   3.465   2.309   0.737
 4898SOL    HW115446   3.391   2.355   0.687
 4898SOL    HW215447   3.516   2.377   0.790
 4899SOL     OW15448   2.093   3.575   0.483
 4899SOL    HW115449   2.127   3.652   0.537
 4899SOL    HW215450   2.137   3.575   0.393
 4900SOL     OW15451   2.989   3.203   1.690
 4900SOL    HW115452   3.036   3.203   1.778
 4900SOL    HW215453   2.941   3.116   1.679
 4901SOL     OW15454   2.092   3.296   0.538
 4901SOL    HW115455   2.066   3.392   0.538
 4901SOL    HW215456   2.021   3.242   0.583
 4902SOL     OW15457   2.102   2.953   0.886
 4902SOL    HW115458   2.116   2.869   0.938
 4902SOL    HW215459   2.047   3.017   0.941
 4903SOL     OW15460   2.482   3.648   1.439
 4903SOL    HW115461   2.390   3.631   1.474
 4903SOL    HW215462   2.510   3.740   1.465
 4904SOL     OW15463   2.468   2.826   0.123
 4904SOL    HW115464   2.475   2.910   0.069
 4904SOL    HW215465   2.514   2.839   0.211
 4905SOL     OW15466   3.456   1.976   1.480
 4905SOL    HW115467   3.438   2.043   1.408
 4905SOL    HW215468   3.453   2.022   1.569
 4906SOL     OW15469   1.984   2.505   0.563
 4906SOL    HW115470   1.939   2.417   0.580
 4906SOL    HW215471   1.983   2.559   0.647
 4907SOL     OW15472   3.704   3.629   0.359
 4907SOL    HW115473   3.758   3.600   0.439
 4907SOL    HW215474   3.734   3.719   0.330
 4908SOL     OW15475   1.889   3.458   0.117
 4908SOL    HW115476   1.870   3.362   0.138
 4908SOL    HW215477   1.856   3.516   0.192
 4909SOL     OW15478   3.551   2.784   0.612
 4909SOL    HW115479   3.646   2.755   0.620
 4909SOL    HW215480   3.543   2.849   0.537
 4910SOL     OW15481   3.503   2.970   0.432
 4910SOL    HW115482   3.589   2.972   0.380
 4910SOL    HW215483   3.517   3.017   0.520
 4911SOL     OW15484   1.975   2.599   1.597
 4911SOL    HW115485   2.063   2.586   1.642
 4911SOL    HW215486   1.962   2.696   1.575
 4912SOL     OW15487   2.475   3.227   0.726
 4912SOL    HW115488   2.426   3.140   0.735
 4912SOL    HW215489   2.452   3.270   0.639
 4913SOL     OW15490   3.155   3.090   1.423
 4913SOL    HW115491   3.192   3.017   1.365
 4913SOL    HW215492   3.207   3.095   1.508
 4914SOL     OW15493   2.671   1.866   0.502
 4914SOL    HW115494   2.711   1.957   0.493
 4914SOL    HW215495   2.571   1.874   0.508
 4915SOL     OW15496   2.059   2.838   1.264
 4915SOL    HW115497   2.148   2.793   1.250
 4915SOL    HW215498   1.986   2.773   1.245
 4916SOL     OW15499   3.387   2.861   0.190
 4916SOL    HW115500   3.324   2.785   0.203
 4916SOL    HW215501   3.435   2.879   0.276
 4917SOL     OW15502   3.049   3.654   1.616
 4917SOL    HW115503   3.073   3.714   1.540
 4917SOL    HW215504   3.056   3.559   1.586
 4918SOL     OW15505   3.328   3.279   0.953
 4918SOL    HW115506   3.269   3.285   1.033
 4918SOL    HW215507   3.313   3.191   0.907
 4919SOL     OW15508   3.529   3.576   0.572
 4919SOL    HW115509   3.488   3.553   0.484
 4919SOL    HW215510   3.511   3.502   0.637
 4920SOL     OW15511   2.460   2.591   0.270
 4920SOL    HW115512   2.484   2.660   0.202
 4920SOL    HW215513   2.382   2.624   0.324
 4921SOL     OW15514   3.143   2.207   0.944
 4921SOL    HW115515   3.057   2.157   0.931
 4921SOL    HW215516   3.205   2.153   1.000
 4922SOL     OW15517   3.438   3.524   0.307
 4922SOL    HW115518   3.527   3.570   0.310
 4922SOL    HW215519   3.417   3.500   0.212
 4923SOL     OW15520   2.669   2.467   1.465
 4923SOL    HW115521   2.622   2.464   1.554
 4923SOL    HW215522   2.618   2.412   1.399
 4924SOL     OW15523   3.256   2.331   1.674
 4924SOL    HW115524   3.236   2.374   1.762
 4924SOL    HW215525   3.334   2.269   1.683
 4925SOL     OW15526   2.835   2.752   1.572
 4925SOL    HW115527   2.881   2.668   1.543
 4925SOL    HW215528   2.779   2.786   1.497
 4926SOL     OW15529   2.853   2.272   1.242
 4926SOL    HW115530   2.776   2.306   1.296
 4926SOL    HW215531   2.819   2.221   1.163
 4927SOL     OW15532   2.903   2.563   0.429
 4927SOL    HW115533   2.929   2.559   0.525
 4927SOL    HW215534   2.818   2.512   0.415
 4928SOL     OW15535   1.938   2.673   0.789
 4928SOL    HW115536   2.037   2.661   0.798
 4928SOL    HW215537   1.914   2.768   0.810
 4929SOL     OW15538   1.992   3.683   1.571
 4929SOL    HW115539   1.982   3.668   1.670
 4929SOL    HW215540   1.906   3.719   1.535
 4930SOL     OW15541   2.727   2.210   0.195
 4930SOL    HW115542   2.786   2.273   0.146
 4930SOL    HW215543   2.746   2.116   0.166
 4931SOL     OW15544   3.581   2.447   1.831
 4931SOL    HW115545   3.555   2.536   1.795
 4931SOL    HW215546   3.579   2.379   1.758
 4932SOL     OW15547   3.224   3.006   0.545
 4932SOL    HW115548   3.307   2.977   0.497
 4932SOL    HW215549   3.175   3.073   0.489
 4933SOL     OW15550   2.412   2.058   0.885
 4933SOL    HW115551   2.407   2.053   0.985
 4933SOL    HW215552   2.414   2.154   0.856
 4934SOL     OW15553   2.870   3.318   0.477
 4934SOL    HW115554   2.824   3.390   0.425
 4934SOL    HW215555   2.866   3.338   0.575
 4935SOL     OW15556   2.213   3.663   0.853
 4935SOL    HW115557   2.263   3.577   0.859
 4935SOL    HW215558   2.278   3.740   0.850
 4936SOL     OW15559   3.657   2.928   0.873
 4936SOL    HW115560   3.595   2.913   0.797
 4936SOL    HW215561   3.605   2.939   0.958
 4937SOL     OW15562   3.089   3.412   1.506
 4937SOL    HW115563   3.095   3.335   1.570
 4937SOL    HW215564   3.037   3.386   1.426
 4938SOL     OW15565   2.183   2.805   0.242
 4938SOL    HW115566   2.265   2.844   0.200
 4938SOL    HW215567   2.156   2.723   0.193
 4939SOL     OW15568   3.320   2.597   0.728
 4939SOL    HW115569   3.315   2.532   0.803
 4939SOL    HW215570   3.400   2.656   0.741
 4940SOL     OW15571   2.323   3.128   1.727
 4940SOL    HW115572   2.273   3.129   1.641
 4940SOL    HW215573   2.260   3.110   1.803
 4941SOL     OW15574   2.973   3.638   0.237
 4941SOL    HW115575   2.913   3.576   0.287
 4941SOL    HW215576   3.004   3.594   0.152
 4942SOL     OW15577   3.494   3.239   0.081
 4942SOL    HW115578   3.462   3.333   0.071
 4942SOL    HW215579   3.418   3.176   0.069
 4943SOL     OW15580   2.326   3.605   0.323
 4943SOL    HW115581   2.359   3.644   0.409
 4943SOL    HW215582   2.402   3.598   0.258
 4944SOL     OW15583   3.262   1.969   0.426
 4944SOL    HW115584   3.238   1.932   0.336
 4944SOL    HW215585   3.361   1.985   0.430
 4945SOL     OW15586   2.111   3.647   1.241
 4945SOL    HW115587   2.168   3.582   1.291
 4945SOL    HW215588   2.095   3.614   1.148
 4946SOL     OW15589   2.802   3.560   0.904
 4946SOL    HW115590   2.882   3.503   0.925
 4946SOL    HW215591   2.753   3.520   0.827
 4947SOL     OW15592   2.244   2.562   0.480
 4947SOL    HW115593   2.289   2.472   0.477
 4947SOL    HW215594   2.150   2.551   0.513
 4948SOL     OW15595   3.409   2.084   1.729
 4948SOL    HW115596   3.404   2.121   1.821
 4948SOL    HW215597   3.337   2.015   1.717
 4949SOL     OW15598   2.643   2.126   1.749
 4949SOL    HW115599   2.710   2.065   1.792
 4949SOL    HW215600   2.570   2.145   1.814
 4950SOL     OW15601   2.750   3.376   1.195
 4950SOL    HW115602   2.727   3.351   1.101
 4950SOL    HW215603   2.811   3.307   1.234
 4951SOL     OW15604   3.213   2.452   1.433
 4951SOL    HW115605   3.241   2.409   1.518
 4951SOL    HW215606   3.238   2.548   1.434
 4952SOL     OW15607   2.665   3.264   0.924
 4952SOL    HW115608   2.755   3.278   0.882
 4952SOL    HW215609   2.594   3.266   0.853
 4953SOL     OW15610   2.784   2.365   0.899
 4953SOL    HW115611   2.759   2.356   0.803
 4953SOL    HW215612   2.832   2.283   0.930
 4954SOL     OW15613   2.401   1.926   0.512
 4954SOL    HW115614   2.320   1.927   0.570
 4954SOL    HW215615   2.404   2.009   0.457
 4955SOL     OW15616   3.296   3.050   0.041
 4955SOL    HW115617   3.328   2.974   0.098
 4955SOL    HW215618   3.204   3.077   0.071
 4956SOL     OW15619   2.797   2.098   0.480
 4956SOL    HW115620   2.749   2.139   0.402
 4956SOL    HW215621   2.896   2.096   0.461
 4957SOL     OW15622   2.938   2.545   1.464
 4957SOL    HW115623   2.858   2.484   1.467
 4957SOL    HW215624   3.019   2.492   1.440
 4958SOL     OW15625   3.089   3.432   0.793
 4958SOL    HW115626   3.110   3.506   0.728
 4958SOL    HW215627   3.157   3.432   0.866
 4959SOL     OW15628   2.321   3.014   0.741
 4959SOL    HW115629   2.250   2.987   0.806
 4959SOL    HW215630   2.295   2.986   0.648
 4960SOL     OW15631   3.133   3.659   0.591
 4960SOL    HW115632   3.177   3.723   0.527
 4960SOL    HW215633   3.083   3.711   0.661
 4961SOL     OW15634   2.894   2.411   0.016
 4961SOL    HW115635   2.853   2.493  -0.023
 4961SOL    HW215636   2.958   2.437   0.089
 4962SOL     OW15637   1.940   2.418   1.386
 4962SOL    HW115638   2.032   2.417   1.345
 4962SOL    HW215639   1.934   2.492   1.453
 4963SOL     OW15640   2.728   2.316   0.642
 4963SOL    HW115641   2.696   2.388   0.580
 4963SOL    HW215642   2.752   2.235   0.589
 4964SOL     OW15643   2.879   1.901   0.753
 4964SOL    HW115644   2.807   1.906   0.684
 4964SOL    HW215645   2.855   1.832   0.822
 4965SOL     OW15646   3.291   3.035   0.867
 4965SOL    HW115647   3.236   2.951   0.860
 4965SOL    HW215648   3.317   3.064   0.775
 4966SOL     OW15649   3.328   2.452   0.992
 4966SOL    HW115650   3.298   2.357   0.999
 4966SOL    HW215651   3.401   2.468   1.058
 4967SOL     OW15652   3.719   2.695   0.377
 4967SOL    HW115653   3.761   2.631   0.441
 4967SOL    HW215654   3.681   2.644   0.299
 4968SOL     OW15655   2.350   3.247   0.174
 4968SOL    HW115656   2.263   3.232   0.221
 4968SOL    HW215657   2.333   3.273   0.079
 4969SOL     OW15658   3.526   3.142   0.657
 4969SOL    HW115659   3.625   3.150   0.671
 4969SOL    HW215660   3.481   3.226   0.688
 4970SOL     OW15661   3.252   2.437   0.078
 4970SOL    HW115662   3.198   2.416   0.159
 4970SOL    HW215663   3.343   2.396   0.087
 4971SOL     OW15664   3.616   3.085   1.588
 4971SOL    HW115665   3.707   3.046   1.575
 4971SOL    HW215666   3.624   3.181   1.612
 4972SOL     OW15667   2.926   3.209   1.340
 4972SOL    HW115668   2.846   3.186   1.395
 4972SOL    HW215669   3.009   3.183   1.389
 4973SOL     OW15670   3.454   3.491   1.625
 4973SOL    HW115671   3.481   3.525   1.535
 4973SOL    HW215672   3.533   3.453   1.671
 4974SOL     OW15673   2.973   3.057   1.100
 4974SOL    HW115674   2.933   3.101   1.181
 4974SOL    HW215675   2.932   3.094   1.017
 4975SOL     OW15676   3.500   2.961   1.079
 4975SOL    HW115677   3.505   3.042   1.138
 4975SOL    HW215678   3.414   2.963   1.028
 4976SOL     OW15679   2.777   1.951   1.402
 4976SOL    HW115680   2.802   1.931   1.307
 4976SOL    HW215681   2.849   2.007   1.444
 4977SOL     OW15682   2.842   2.978   1.719
 4977SOL    HW115683   2.743   2.984   1.729
 4977SOL    HW215684   2.865   2.898   1.663
 4978SOL     OW15685   2.567   2.912   0.368
 4978SOL    HW115686   2.553   2.919   0.467
 4978SOL    HW215687   2.651   2.861   0.350
 4979SOL     OW15688   2.272   2.675   1.251
 4979SOL    HW115689   2.358   2.687   1.301
 4979SOL    HW215690   2.230   2.588   1.278
 4980SOL     OW15691   3.136   2.248   1.262
 4980SOL    HW115692   3.157   2.322   1.326
 4980SOL    HW215693   3.047   2.265   1.219
 4981SOL     OW15694   1.926   3.426   1.331
 4981SOL    HW115695   1.880   3.508   1.297
 4981SOL    HW215696   2.024   3.445   1.340
 4982SOL     OW15697   2.229   2.962   0.501
 4982SOL    HW115698   2.222   3.045   0.445
 4982SOL    HW215699   2.233   2.882   0.441
 4983SOL     OW15700   2.428   2.399   0.865
 4983SOL    HW115701   2.440   2.465   0.791
 4983SOL    HW215702   2.474   2.433   0.948
 4984SOL     OW15703   3.114   3.210   0.388
 4984SOL    HW115704   3.164   3.287   0.428
 4984SOL    HW215705   3.019   3.212   0.420
 4985SOL     OW15706   3.134   3.307   1.142
 4985SOL    HW115707   3.181   3.320   1.229
 4985SOL    HW215708   3.068   3.233   1.151
 4986SOL     OW15709   3.444   2.501   0.472
 4986SOL    HW115710   3.413   2.562   0.545
 4986SOL    HW215711   3.494   2.553   0.403
 4987SOL     OW15712   2.216   3.372   1.329
 4987SOL    HW115713   2.195   3.328   1.242
 4987SOL    HW215714   2.313   3.398   1.332
 4988SOL     OW15715   2.264   2.613   1.598
 4988SOL    HW115716   2.332   2.668   1.551
 4988SOL    HW215717   2.304   2.525   1.625
 4989SOL     OW15718   3.449   2.641   1.670
 4989SOL    HW115719   3.357   2.679   1.665
 4989SOL    HW215720   3.509   2.688   1.605
 4990SOL     OW15721   2.875   1.967   1.770
 4990SOL    HW115722   2.881   2.052   1.718
 4990SOL    HW215723   2.907   1.891   1.713
 4991SOL     OW15724   2.366   1.912   1.740
 4991SOL    HW115725   2.324   1.855   1.670
 4991SOL    HW215726   2.300   1.981   1.772
 4992SOL     OW15727   2.435   2.732   1.029
 4992SOL    HW115728   2.479   2.821   1.020
 4992SOL    HW215729   2.372   2.732   1.106
 4993SOL     OW15730   3.222   2.724   1.045
 4993SOL    HW115731   3.147   2.724   0.979
 4993SOL    HW215732   3.259   2.632   1.054
 4994SOL     OW15733   3.071   2.387   0.275
 4994SOL    HW115734   3.084   2.303   0.329
 4994SOL    HW215735   3.042   2.461   0.335
 4995SOL     OW15736   1.899   3.172   1.282
 4995SOL    HW115737   1.952   3.123   1.350
 4995SOL    HW215738   1.921   3.270   1.287
 4996SOL     OW15739   2.594   2.496   1.064
 4996SOL    HW115740   2.653   2.470   0.988
 4996SOL    HW215741   2.566   2.592   1.053
 4997SOL     OW15742   3.590   2.797   1.854
 4997SOL    HW115743   3.544   2.790   1.765
 4997SOL    HW215744   3.528   2.841   1.920
 4998SOL     OW15745   3.484   2.229   0.374
 4998SOL    HW115746   3.486   2.153   0.438
 4998SOL    HW215747   3.436   2.306   0.414
 4999SOL     OW15748   2.885   2.628   0.966
 4999SOL    HW115749   2.900   2.649   1.062
 4999SOL    HW215750   2.855   2.533   0.957
 5000SOL     OW15751   2.842   3.435   1.700
 5000SOL    HW115752   2.822   3.479   1.612
 5000SOL    HW215753   2.881   3.344   1.684
 5001SOL     OW15754   3.721   3.380   1.605
 5001SOL    HW115755   3.735   3.407   1.510
 5001SOL    HW215756   3.804   3.402   1.658
 5002SOL     OW15757   2.212   2.760   1.804
 5002SOL    HW115758   2.288   2.804   1.852
 5002SOL    HW215759   2.247   2.713   1.722
 5003SOL     OW15760   3.402   2.136   0.125
 5003SOL    HW115761   3.341   2.061   0.148
 5003SOL    HW215762   3.424   2.188   0.208
 5004SOL     OW15763   3.165   2.700   0.042
 5004SOL    HW115764   3.199   2.607   0.057
 5004SOL    HW215765   3.183   2.727  -0.053
 5005SOL     OW15766   2.930   3.195   0.849
 5005SOL    HW115767   2.937   3.111   0.794
 5005SOL    HW215768   2.992   3.264   0.813
 5006SOL     OW15769   2.181   2.672   0.949
 5006SOL    HW115770   2.274   2.708   0.954
 5006SOL    HW215771   2.175   2.587   1.001
 5007SOL     OW15772   2.201   2.371   1.006
 5007SOL    HW115773   2.149   2.288   0.989
 5007SOL    HW215774   2.278   2.376   0.942
 5008SOL     OW15775   3.000   2.242   1.678
 5008SOL    HW115776   2.955   2.305   1.742
 5008SOL    HW215777   3.093   2.273   1.661
 5009SOL     OW15778   3.022   2.069   1.477
 5009SOL    HW115779   3.022   2.133   1.554
 5009SOL    HW215780   3.050   2.117   1.394
 5010SOL     OW15781   1.870   3.188   0.200
 5010SOL    HW115782   1.777   3.209   0.169
 5010SOL    HW215783   1.880   3.089   0.213
 5011SOL     OW15784   1.950   3.663   0.927
 5011SOL    HW115785   1.908   3.577   0.900
 5011SOL    HW215786   2.044   3.666   0.893
 5012SOL     OW15787   2.366   3.430   0.910
 5012SOL    HW115788   2.432   3.504   0.919
 5012SOL    HW215789   2.410   3.351   0.868
 5013SOL     OW15790   2.864   2.658   1.238
 5013SOL    HW115791   2.905   2.626   1.324
 5013SOL    HW215792   2.768   2.631   1.235
 5014SOL     OW15793   1.902   2.406   1.114
 5014SOL    HW115794   1.987   2.373   1.073
 5014SOL    HW215795   1.915   2.421   1.212
 5015SOL     OW15796   2.051   2.382   1.722
 5015SOL    HW115797   2.110   2.342   1.652
 5015SOL    HW215798   1.993   2.453   1.681
 5016SOL     OW15799   3.231   2.812   1.660
 5016SOL    HW115800   3.270   2.901   1.680
 5016SOL    HW215801   3.241   2.792   1.563
 5017SOL     OW15802   2.677   2.434   0.325
 5017SOL    HW115803   2.684   2.345   0.279
 5017SOL    HW215804   2.583   2.468   0.317
 5018SOL     OW15805   3.519   2.466   1.206
 5018SOL    HW115806   3.481   2.397   1.268
 5018SOL    HW215807   3.601   2.430   1.162
 5019SOL     OW15808   2.114   3.426   1.744
 5019SOL    HW115809   2.084   3.483   1.820
 5019SOL    HW215810   2.107   3.329   1.770
 5020SOL     OW15811   2.533   2.326   1.269
 5020SOL    HW115812   2.499   2.237   1.239
 5020SOL    HW215813   2.559   2.380   1.189
 5021SOL     OW15814   2.792   3.540   1.465
 5021SOL    HW115815   2.768   3.522   1.370
 5021SOL    HW215816   2.822   3.634   1.475
 5022SOL     OW15817   2.335   2.362   0.191
 5022SOL    HW115818   2.396   2.442   0.195
 5022SOL    HW215819   2.240   2.393   0.198
 5023SOL     OW15820   2.021   2.999   1.466
 5023SOL    HW115821   2.043   2.938   1.542
 5023SOL    HW215822   2.031   2.950   1.380
 5024SOL     OW15823   3.209   2.921   1.234
 5024SOL    HW115824   3.233   2.858   1.160
 5024SOL    HW215825   3.119   2.961   1.216
 5025SOL     OW15826   3.164   2.717   0.309
 5025SOL    HW115827   3.078   2.686   0.351
 5025SOL    HW215828   3.160   2.703   0.210
 5026SOL     OW15829   3.621   3.609   1.154
 5026SOL    HW115830   3.682   3.639   1.081
 5026SOL    HW215831   3.583   3.520   1.132
 5027SOL     OW15832   3.114   3.593   1.128
 5027SOL    HW115833   3.198   3.598   1.074
 5027SOL    HW215834   3.091   3.497   1.146
 5028SOL     OW15835   1.945   3.120   1.022
 5028SOL    HW115836   1.940   3.119   1.122
 5028SOL    HW215837   1.862   3.079   0.984
 5029SOL     OW15838   2.550   3.524   1.716
 5029SOL    HW115839   2.494   3.605   1.725
 5029SOL    HW215840   2.602   3.528   1.630
 5030SOL     OW15841   2.765   1.948   0.133
 5030SOL    HW115842   2.816   1.949   0.047
 5030SOL    HW215843   2.821   1.906   0.204
 5031SOL     OW15844   3.588   1.997   0.523
 5031SOL    HW115845   3.661   1.980   0.456
 5031SOL    HW215846   3.557   1.910   0.561
 5032SOL     OW15847   3.250   3.435   0.477
 5032SOL    HW115848   3.317   3.447   0.403
 5032SOL    HW215849   3.210   3.524   0.500
 5033SOL     OW15850   1.992   3.656   1.851
 5033SOL    HW115851   1.951   3.582   1.904
 5033SOL    HW215852   2.056   3.707   1.909
 5034SOL     OW15853   3.142   2.789   0.672
 5034SOL    HW115854   3.202   2.708   0.674
 5034SOL    HW215855   3.182   2.858   0.612
 5035SOL     OW15856   2.692   3.135   1.422
 5035SOL    HW115857   2.687   3.168   1.517
 5035SOL    HW215858   2.606   3.154   1.376
 5036SOL     OW15859   2.534   3.478   0.154
 5036SOL    HW115860   2.543   3.488   0.055
 5036SOL    HW215861   2.494   3.389   0.175
 5037SOL     OW15862   3.512   3.582   1.394
 5037SOL    HW115863   3.565   3.592   1.310
 5037SOL    HW215864   3.485   3.672   1.428
 5038SOL     OW15865   3.703   2.037   0.963
 5038SOL    HW115866   3.742   1.952   0.927
 5038SOL    HW215867   3.605   2.039   0.944
 5039SOL     OW15868   3.056   3.474   0.031
 5039SOL    HW115869   3.062   3.381   0.068
 5039SOL    HW215870   2.997   3.474  -0.049
 5040SOL     OW15871   2.684   2.864   1.372
 5040SOL    HW115872   2.724   2.863   1.280
 5040SOL    HW215873   2.694   2.956   1.412
 5041SOL     OW15874   2.778   2.772   0.291
 5041SOL    HW115875   2.841   2.810   0.223
 5041SOL    HW215876   2.818   2.689   0.330
 5042SOL     OW15877   3.366   3.469   0.044
 5042SOL    HW115878   3.274   3.506   0.051
 5042SOL    HW215879   3.404   3.489  -0.046
 5043SOL     OW15880   2.234   3.150   1.490
 5043SOL    HW115881   2.221   3.243   1.456
 5043SOL    HW215882   2.150   3.098   1.477
 5044SOL     OW15883   3.476   3.154   1.289
 5044SOL    HW115884   3.536   3.157   1.369
 5044SOL    HW215885   3.401   3.218   1.302
 5045SOL     OW15886   2.901   2.960   0.696
 5045SOL    HW115887   2.831   2.913   0.750
 5045SOL    HW215888   2.960   2.892   0.653
 5046SOL     OW15889   2.876   2.098   0.971
 5046SOL    HW115890   2.868   2.062   0.878
 5046SOL    HW215891   2.874   2.022   1.036
 5047SOL     OW15892   2.452   3.349   0.491
 5047SOL    HW115893   2.494   3.291   0.421
 5047SOL    HW215894   2.408   3.428   0.447
 5048SOL     OW15895   3.571   2.247   1.381
 5048SOL    HW115896   3.644   2.316   1.385
 5048SOL    HW215897   3.599   2.172   1.322
 5049SOL     OW15898   2.117   3.210   0.290
 5049SOL    HW115899   2.021   3.211   0.263
 5049SOL    HW215900   2.129   3.263   0.374
 5050SOL     OW15901   1.967   2.875   1.726
 5050SOL    HW115902   1.890   2.842   1.780
 5050SOL    HW215903   2.052   2.845   1.768
 5051SOL     OW15904   2.534   2.065   1.489
 5051SOL    HW115905   2.624   2.049   1.449
 5051SOL    HW215906   2.542   2.070   1.588
 5052SOL     OW15907   1.937   2.207   0.033
 5052SOL    HW115908   1.845   2.179   0.004
 5052SOL    HW215909   1.968   2.284  -0.023
 5053SOL     OW15910   3.302   2.718   1.398
 5053SOL    HW115911   3.245   2.770   1.335
 5053SOL    HW215912   3.398   2.730   1.374
 5054SOL     OW15913   3.045   3.197   0.119
 5054SOL    HW115914   2.946   3.186   0.121
 5054SOL    HW215915   3.079   3.212   0.212
 5055SOL     OW15916   2.475   2.704   1.431
 5055SOL    HW115917   2.531   2.785   1.414
 5055SOL    HW215918   2.534   2.624   1.434
 5056SOL     OW15919   3.355   3.629   0.959
 5056SOL    HW115920   3.388   3.693   0.890
 5056SOL    HW215921   3.421   3.623   1.034
 5057SOL     OW15922   2.578   2.427   1.708
 5057SOL    HW115923   2.597   2.492   1.782
 5057SOL    HW215924   2.638   2.347   1.717
 5058SOL     OW15925   3.312   3.082   1.633
 5058SOL    HW115926   3.303   3.072   1.732
 5058SOL    HW215927   3.408   3.075   1.607
 5059SOL     OW15928   2.252   3.603   1.560
 5059SOL    HW115929   2.161   3.644   1.558
 5059SOL    HW215930   2.245   3.509   1.592
 5060SOL     OW15931   3.536   2.745   1.254
 5060SOL    HW115932   3.509   2.656   1.217
 5060SOL    HW215933   3.537   2.813   1.181
 5061SOL     OW15934   3.087   2.187   0.449
 5061SOL    HW115935   3.152   2.113   0.438
 5061SOL    HW215936   3.107   2.237   0.533
 5062SOL     OW15937   2.456   2.607   0.652
 5062SOL    HW115938   2.506   2.692   0.633
 5062SOL    HW215939   2.368   2.609   0.604
 5063SOL     OW15940   3.639   2.204   1.642
 5063SOL    HW115941   3.622   2.235   1.548
 5063SOL    HW215942   3.555   2.167   1.680
 5064SOL     OW15943   3.592   2.796   1.517
 5064SOL    HW115944   3.630   2.887   1.532
 5064SOL    HW215945   3.584   2.779   1.418
 5065SOL     OW15946   2.721   3.236   0.016
 5065SOL    HW115947   2.675   3.251   0.104
 5065SOL    HW215948   2.765   3.321  -0.014
 5066SOL     OW15949   2.523   3.652   0.953
 5066SOL    HW115950   2.477   3.740   0.940
 5066SOL    HW215951   2.622   3.664   0.946
 5067SOL     OW15952   2.721   2.818   0.861
 5067SOL    HW115953   2.775   2.749   0.909
 5067SOL    HW215954   2.689   2.887   0.927
 5068SOL     OW15955   2.945   2.846   0.087
 5068SOL    HW115956   2.922   2.899   0.005
 5068SOL    HW215957   3.026   2.790   0.068
 5069SOL     OW15958   3.723   3.431   0.851
 5069SOL    HW115959   3.652   3.419   0.781
 5069SOL    HW215960   3.724   3.352   0.911
 5070SOL     OW15961   2.083   3.176   1.844
 5070SOL    HW115962   2.018   3.103   1.823
 5070SOL    HW215963   2.087   3.190   1.942
 5071SOL     OW15964   1.941   3.102   0.653
 5071SOL    HW115965   1.940   3.055   0.741
 5071SOL    HW215966   2.023   3.074   0.602
 5072SOL     OW15967   2.534   3.253   1.624
 5072SOL    HW115968   2.456   3.203   1.662
 5072SOL    HW215969   2.531   3.348   1.655
 5073SOL     OW15970   3.686   2.054   1.227
 5073SOL    HW115971   3.682   1.964   1.271
 5073SOL    HW215972   3.689   2.043   1.128
 5074SOL     OW15973   3.567   3.349   1.104
 5074SOL    HW115974   3.474   3.324   1.077
 5074SOL    HW215975   3.593   3.299   1.186
 5075SOL     OW15976   2.179   2.409   1.280
 5075SOL    HW115977   2.217   2.350   1.352
 5075SOL    HW215978   2.219   2.383   1.192
 5076SOL     OW15979   2.674   3.448   0.687
 5076SOL    HW115980   2.706   3.458   0.593
 5076SOL    HW215981   2.595   3.386   0.689
 5077SOL     OW15982   3.286   2.076   1.112
 5077SOL    HW115983   3.338   2.011   1.167
 5077SOL    HW215984   3.237   2.139   1.173
 5078SOL     OW15985   2.863   1.896   1.154
 5078SOL    HW115986   2.800   1.824   1.123
 5078SOL    HW215987   2.956   1.860   1.154
 5079SOL     OW15988   2.632   3.192   0.301
 5079SOL    HW115989   2.586   3.105   0.318
 5079SOL    HW215990   2.723   3.189   0.342
 5080SOL     OW15991   2.480   3.429   1.284
 5080SOL    HW115992   2.475   3.511   1.341
 5080SOL    HW215993   2.569   3.426   1.239
 5081SOL     OW15994   3.214   1.914   0.168
 5081SOL    HW115995   3.249   1.873   0.084
 5081SOL    HW215996   3.124   1.876   0.188
 5082SOL     OW15997   3.162   2.315   0.691
 5082SOL    HW115998   3.103   2.395   0.695
 5082SOL    HW215999   3.177   2.280   0.784
 5083SOL     OW16000   3.455   2.083   0.882
 5083SOL    HW116001   3.371   2.082   0.936
 5083SOL    HW216002   3.457   2.166   0.826
 5084SOL     OW16003   1.901   2.939   0.300
 5084SOL    HW116004   2.000   2.928   0.291
 5084SOL    HW216005   1.861   2.853   0.332
 5085SOL     OW16006   2.737   3.508   0.337
 5085SOL    HW116007   2.660   3.473   0.283
 5085SOL    HW216008   2.705   3.579   0.399
 5086SOL     OW16009   2.092   2.490   1.975
 5086SOL    HW116010   1.999   2.488   2.012
 5086SOL    HW216011   2.093   2.451   1.883
 5087SOL     OW16012   1.881   2.230   2.509
 5087SOL    HW116013   1.799   2.273   2.548
 5087SOL    HW216014   1.853   2.157   2.446
 5088SOL     OW16015   2.431   3.137   3.027
 5088SOL    HW116016   2.338   3.130   2.990
 5088SOL    HW216017   2.442   3.226   3.071
 5089SOL     OW16018   3.417   3.373   2.565
 5089SOL    HW116019   3.360   3.357   2.646
 5089SOL    HW216020   3.358   3.383   2.485
 5090SOL     OW16021   2.997   2.565   2.579
 5090SOL    HW116022   3.054   2.643   2.554
 5090SOL    HW216023   2.937   2.591   2.655
 5091SOL     OW16024   3.617   2.469   2.093
 5091SOL    HW116025   3.605   2.456   1.994
 5091SOL    HW216026   3.587   2.388   2.142
 5092SOL     OW16027   2.630   3.006   2.885
 5092SOL    HW116028   2.552   3.023   2.945
 5092SOL    HW216029   2.664   3.093   2.849
 5093SOL     OW16030   2.712   2.660   3.685
 5093SOL    HW116031   2.708   2.736   3.750
 5093SOL    HW216032   2.734   2.696   3.594
 5094SOL     OW16033   2.547   2.874   2.527
 5094SOL    HW116034   2.616   2.858   2.597
 5094SOL    HW216035   2.474   2.931   2.565
 5095SOL     OW16036   2.548   3.023   3.665
 5095SOL    HW116037   2.608   3.102   3.679
 5095SOL    HW216038   2.462   3.054   3.624
 5096SOL     OW16039   2.197   3.297   2.923
 5096SOL    HW116040   2.119   3.266   2.870
 5096SOL    HW216041   2.255   3.355   2.866
 5097SOL     OW16042   3.322   3.367   3.201
 5097SOL    HW116043   3.346   3.461   3.227
 5097SOL    HW216044   3.306   3.313   3.283
 5098SOL     OW16045   3.465   2.309   2.599
 5098SOL    HW116046   3.391   2.355   2.549
 5098SOL    HW216047   3.516   2.377   2.652
 5099SOL     OW16048   2.093   3.575   2.345
 5099SOL    HW116049   2.127   3.652   2.399
 5099SOL    HW216050   2.137   3.575   2.255
 5100SOL     OW16051   2.989   3.203   3.552
 5100SOL    HW116052   3.036   3.203   3.640
 5100SOL    HW216053   2.941   3.116   3.541
 5101SOL     OW16054   2.092   3.296   2.400
 5101SOL    HW116055   2.066   3.392   2.400
 5101SOL    HW216056   2.021   3.242   2.445
 5102SOL     OW16057   2.102   2.953   2.748
 5102SOL    HW116058   2.116   2.869   2.800
 5102SOL    HW216059   2.047   3.017   2.803
 5103SOL     OW16060   2.482   3.648   3.301
 5103SOL    HW116061   2.390   3.631   3.336
 5103SOL    HW216062   2.510   3.740   3.327
 5104SOL     OW16063   2.468   2.826   1.985
 5104SOL    HW116064   2.475   2.910   1.931
 5104SOL    HW216065   2.514   2.839   2.073
 5105SOL     OW16066   3.456   1.976   3.342
 5105SOL    HW116067   3.438   2.043   3.270
 5105SOL    HW216068   3.453   2.022   3.431
 5106SOL     OW16069   1.984   2.505   2.425
 5106SOL    HW116070   1.939   2.417   2.442
 5106SOL    HW216071   1.983   2.559   2.509
 5107SOL     OW16072   3.704   3.629   2.221
 5107SOL    HW116073   3.758   3.600   2.301
 5107SOL    HW216074   3.734   3.719   2.192
 5108SOL     OW16075   1.889   3.458   1.979
 5108SOL    HW116076   1.870   3.362   2.000
 5108SOL    HW216077   1.856   3.516   2.054
 5109SOL     OW16078   3.551   2.784   2.474
 5109SOL    HW116079   3.646   2.755   2.482
 5109SOL    HW216080   3.543   2.849   2.399
 5110SOL     OW16081   3.503   2.970   2.294
 5110SOL    HW116082   3.589   2.972   2.242
 5110SOL    HW216083   3.517   3.017   2.382
 5111SOL     OW16084   1.975   2.599   3.459
 5111SOL    HW116085   2.063   2.586   3.504
 5111SOL    HW216086   1.962   2.696   3.437
 5112SOL     OW16087   2.475   3.227   2.588
 5112SOL    HW116088   2.426   3.140   2.597
 5112SOL    HW216089   2.452   3.270   2.501
 5113SOL     OW16090   3.155   3.090   3.285
 5113SOL    HW116091   3.192   3.017   3.227
 5113SOL    HW216092   3.207   3.095   3.370
 5114SOL     OW16093   2.671   1.866   2.364
 5114SOL    HW116094   2.711   1.957   2.355
 5114SOL    HW216095   2.571   1.874   2.370
 5115SOL     OW16096   2.059   2.838   3.126
 5115SOL    HW116097   2.148   2.793   3.112
 5115SOL    HW216098   1.986   2.773   3.107
 5116SOL     OW16099   3.387   2.861   2.052
 5116SOL    HW116100   3.324   2.785   2.065
 5116SOL    HW216101   3.435   2.879   2.138
 5117SOL     OW16102   3.049   3.654   3.478
 5117SOL    HW116103   3.073   3.714   3.402
 5117SOL    HW216104   3.056   3.559   3.448
 5118SOL     OW16105   3.328   3.279   2.815
 5118SOL    HW116106   3.269   3.285   2.895
 5118SOL    HW216107   3.313   3.191   2.769
 5119SOL     OW16108   3.529   3.576   2.434
 5119SOL    HW116109   3.488   3.553   2.346
 5119SOL    HW216110   3.511   3.502   2.499
 5120SOL     OW16111   2.460   2.591   2.132
 5120SOL    HW116112   2.484   2.660   2.064
 5120SOL    HW216113   2.382   2.624   2.186
 5121SOL     OW16114   3.143   2.207   2.806
 5121SOL    HW116115   3.057   2.157   2.793
 5121SOL    HW216116   3.205   2.153   2.862
 5122SOL     OW16117   3.438   3.524   2.169
 5122SOL    HW116118   3.527   3.570   2.172
 5122SOL    HW216119   3.417   3.500   2.074
 5123SOL     OW16120   2.669   2.467   3.327
 5123SOL    HW116121   2.622   2.464   3.416
 5123SOL    HW216122   2.618   2.412   3.261
 5124SOL     OW16123   3.256   2.331   3.536
 5124SOL    HW116124   3.236   2.374   3.624
 5124SOL    HW216125   3.334   2.269   3.545
 5125SOL     OW16126   2.835   2.752   3.434
 5125SOL    HW116127   2.881   2.668   3.405
 5125SOL    HW216128   2.779   2.786   3.359
 5126SOL     OW16129   2.853   2.272   3.104
 5126SOL    HW116130   2.776   2.306   3.158
 5126SOL    HW216131   2.819   2.221   3.025
 5127SOL     OW16132   2.903   2.563   2.291
 5127SOL    HW116133   2.929   2.559   2.387
 5127SOL    HW216134   2.818   2.512   2.277
 5128SOL     OW16135   1.938   2.673   2.651
 5128SOL    HW116136   2.037   2.661   2.660
 5128SOL    HW216137   1.914   2.768   2.672
 5129SOL     OW16138   1.992   3.683   3.433
 5129SOL    HW116139   1.982   3.668   3.532
 5129SOL    HW216140   1.906   3.719   3.397
 5130SOL     OW16141   2.727   2.210   2.057
 5130SOL    HW116142   2.786   2.273   2.008
 5130SOL    HW216143   2.746   2.116   2.028
 5131SOL     OW16144   3.581   2.447   3.693
 5131SOL    HW116145   3.555   2.536   3.657
 5131SOL    HW216146   3.579   2.379   3.620
 5132SOL     OW16147   3.224   3.006   2.407
 5132SOL    HW116148   3.307   2.977   2.359
 5132SOL    HW216149   3.175   3.073   2.351
 5133SOL     OW16150   2.412   2.058   2.747
 5133SOL    HW116151   2.407   2.053   2.847
 5133SOL    HW216152   2.414   2.154   2.718
 5134SOL     OW16153   2.870   3.318   2.339
 5134SOL    HW116154   2.824   3.390   2.287
 5134SOL    HW216155   2.866   3.338   2.437
 5135SOL     OW16156   2.213   3.663   2.715
 5135SOL    HW116157   2.263   3.577   2.721
 5135SOL    HW216158   2.278   3.740   2.712
 5136SOL     OW16159   3.657   2.928   2.735
 5136SOL    HW116160   3.595   2.913   2.659
 5136SOL    HW216161   3.605   2.939   2.820
 5137SOL     OW16162   3.089   3.412   3.368
 5137SOL    HW116163   3.095   3.335   3.432
 5137SOL    HW216164   3.037   3.386   3.288
 5138SOL     OW16165   2.183   2.805   2.104
 5138SOL    HW116166   2.265   2.844   2.062
 5138SOL    HW216167   2.156   2.723   2.055
 5139SOL     OW16168   3.320   2.597   2.590
 5139SOL    HW116169   3.315   2.532   2.665
 5139SOL    HW216170   3.400   2.656   2.603
 5140SOL     OW16171   2.323   3.128   3.589
 5140SOL    HW116172   2.273   3.129   3.503
 5140SOL    HW216173   2.260   3.110   3.665
 5141SOL     OW16174   2.973   3.638   2.099
 5141SOL    HW116175   2.913   3.576   2.149
 5141SOL    HW216176   3.004   3.594   2.014
 5142SOL     OW16177   3.494   3.239   1.943
 5142SOL    HW116178   3.462   3.333   1.933
 5142SOL    HW216179   3.418   3.176   1.931
 5143SOL     OW16180   2.326   3.605   2.185
 5143SOL    HW116181   2.359   3.644   2.271
 5143SOL    HW216182   2.402   3.598   2.120
 5144SOL     OW16183   3.262   1.969   2.288
 5144SOL    HW116184   3.238   1.932   2.198
 5144SOL    HW216185   3.361   1.985   2.292
 5145SOL     OW16186   2.111   3.647   3.103
 5145SOL    HW116187   2.168   3.582   3.153
 5145SOL    HW216188   2.095   3.614   3.010
 5146SOL     OW16189   2.802   3.560   2.766
 5146SOL    HW116190   2.882   3.503   2.787
 5146SOL    HW216191   2.753   3.520   2.689
 5147SOL     OW16192   2.244   2.562   2.342
 5147SOL    HW116193   2.289   2.472   2.339
 5147SOL    HW216194   2.150   2.551   2.375
 5148SOL     OW16195   3.409   2.084   3.591
 5148SOL    HW116196   3.404   2.121   3.683
 5148SOL    HW216197   3.337   2.015   3.579
 5149SOL     OW16198   2.476   1.984   1.979
 5149SOL    HW116199   2.574   1.962   1.986
 5149SOL    HW216200   2.445   1.967   1.886
 5150SOL     OW16201   2.643   2.126   3.611
 5150SOL    HW116202   2.710   2.065   3.654
 5150SOL    HW216203   2.570   2.145   3.676
 5151SOL     OW16204   2.750   3.376   3.057
 5151SOL    HW116205   2.727   3.351   2.963
 5151SOL    HW216206   2.811   3.307   3.096
 5152SOL     OW16207   3.213   2.452   3.295
 5152SOL    HW116208   3.241   2.409   3.380
 5152SOL    HW216209   3.238   2.548   3.296
 5153SOL     OW16210   2.665   3.264   2.786
 5153SOL    HW116211   2.755   3.278   2.744
 5153SOL    HW216212   2.594   3.266   2.715
 5154SOL     OW16213   2.784   2.365   2.761
 5154SOL    HW116214   2.759   2.356   2.665
 5154SOL    HW216215   2.832   2.283   2.792
 5155SOL     OW16216   2.401   1.926   2.374
 5155SOL    HW116217   2.320   1.927   2.432
 5155SOL    HW216218   2.404   2.009   2.319
 5156SOL     OW16219   3.296   3.050   1.903
 5156SOL    HW116220   3.328   2.974   1.960
 5156SOL    HW216221   3.204   3.077   1.933
 5157SOL     OW16222   2.797   2.098   2.342
 5157SOL    HW116223   2.749   2.139   2.264
 5157SOL    HW216224   2.896   2.096   2.323
 5158SOL     OW16225   2.938   2.545   3.326
 5158SOL    HW116226   2.858   2.484   3.329
 5158SOL    HW216227   3.019   2.492   3.302
 5159SOL     OW16228   3.089   3.432   2.655
 5159SOL    HW116229   3.110   3.506   2.590
 5159SOL    HW216230   3.157   3.432   2.728
 5160SOL     OW16231   2.321   3.014   2.603
 5160SOL    HW116232   2.250   2.987   2.668
 5160SOL    HW216233   2.295   2.986   2.510
 5161SOL     OW16234   3.133   3.659   2.453
 5161SOL    HW116235   3.177   3.723   2.389
 5161SOL    HW216236   3.083   3.711   2.523
 5162SOL     OW16237   2.894   2.411   1.878
 5162SOL    HW116238   2.853   2.493   1.839
 5162SOL    HW216239   2.958   2.437   1.951
 5163SOL     OW16240   1.940   2.418   3.248
 5163SOL    HW116241   2.032   2.417   3.207
 5163SOL    HW216242   1.934   2.492   3.315
 5164SOL     OW16243   2.728   2.316   2.504
 5164SOL    HW116244   2.696   2.388   2.442
 5164SOL    HW216245   2.752   2.235   2.451
 5165SOL     OW16246   2.879   1.901   2.615
 5165SOL    HW116247   2.807   1.906   2.546
 5165SOL    HW216248   2.855   1.832   2.684
 5166SOL     OW16249   3.291   3.035   2.729
 5166SOL    HW116250   3.236   2.951   2.722
 5166SOL    HW216251   3.317   3.064   2.637
 5167SOL     OW16252   3.328   2.452   2.854
 5167SOL    HW116253   3.298   2.357   2.861
 5167SOL    HW216254   3.401   2.468   2.920
 5168SOL     OW16255   3.719   2.695   2.239
 5168SOL    HW116256   3.761   2.631   2.303
 5168SOL    HW216257   3.681   2.644   2.161
 5169SOL     OW16258   2.350   3.247   2.036
 5169SOL    HW116259   2.263   3.232   2.083
 5169SOL    HW216260   2.333   3.273   1.941
 5170SOL     OW16261   3.526   3.142   2.519
 5170SOL    HW116262   3.625   3.150   2.533
 5170SOL    HW216263   3.481   3.226   2.550
 5171SOL     OW16264   3.252   2.437   1.940
 5171SOL    HW116265   3.198   2.416   2.021
 5171SOL    HW216266   3.343   2.396   1.949
 5172SOL     OW16267   3.616   3.085   3.450
 5172SOL    HW116268   3.707   3.046   3.437
 5172SOL    HW216269   3.624   3.181   3.474
 5173SOL     OW16270   2.926   3.209   3.202
 5173SOL    HW116271   2.846   3.186   3.257
 5173SOL    HW216272   3.009   3.183   3.251
 5174SOL     OW16273   3.454   3.491   3.487
 5174SOL    HW116274   3.481   3.525   3.397
 5174SOL    HW216275   3.533   3.453   3.533
 5175SOL     OW16276   2.973   3.057   2.962
 5175SOL    HW116277   2.933   3.101   3.043
 5175SOL    HW216278   2.932   3.094   2.879
 5176SOL     OW16279   3.500   2.961   2.941
 5176SOL    HW116280   3.505   3.042   3.000
 5176SOL    HW216281   3.414   2.963   2.890
 5177SOL     OW16282   2.777   1.951   3.264
 5177SOL    HW116283   2.802   1.931   3.169
 5177SOL    HW216284   2.849   2.007   3.306
 5178SOL     OW16285   2.842   2.978   3.581
 5178SOL    HW116286   2.743   2.984   3.591
 5178SOL    HW216287   2.865   2.898   3.525
 5179SOL     OW16288   2.567   2.912   2.230
 5179SOL    HW116289   2.553   2.919   2.329
 5179SOL    HW216290   2.651   2.861   2.212
 5180SOL     OW16291   2.272   2.675   3.113
 5180SOL    HW116292   2.358   2.687   3.163
 5180SOL    HW216293   2.230   2.588   3.140
 5181SOL     OW16294   3.136   2.248   3.124
 5181SOL    HW116295   3.157   2.322   3.188
 5181SOL    HW216296   3.047   2.265   3.081
 5182SOL     OW16297   1.926   3.426   3.193
 5182SOL    HW116298   1.880   3.508   3.159
 5182SOL    HW216299   2.024   3.445   3.202
 5183SOL     OW16300   2.229   2.962   2.363
 5183SOL    HW116301   2.222   3.045   2.307
 5183SOL    HW216302   2.233   2.882   2.303
 5184SOL     OW16303   2.428   2.399   2.727
 5184SOL    HW116304   2.440   2.465   2.653
 5184SOL    HW216305   2.474   2.433   2.810
 5185SOL     OW16306   3.114   3.210   2.250
 5185SOL    HW116307   3.164   3.287   2.290
 5185SOL    HW216308   3.019   3.212   2.282
 5186SOL     OW16309   3.134   3.307   3.004
 5186SOL    HW116310   3.181   3.320   3.091
 5186SOL    HW216311   3.068   3.233   3.013
 5187SOL     OW16312   3.444   2.501   2.334
 5187SOL    HW116313   3.413   2.562   2.407
 5187SOL    HW216314   3.494   2.553   2.265
 5188SOL     OW16315   2.216   3.372   3.191
 5188SOL    HW116316   2.195   3.328   3.104
 5188SOL    HW216317   2.313   3.398   3.194
 5189SOL     OW16318   2.264   2.613   3.460
 5189SOL    HW116319   2.332   2.668   3.413
 5189SOL    HW216320   2.304   2.525   3.487
 5190SOL     OW16321   3.449   2.641   3.532
 5190SOL    HW116322   3.357   2.679   3.527
 5190SOL    HW216323   3.509   2.688   3.467
 5191SOL     OW16324   2.875   1.967   3.632
 5191SOL    HW116325   2.881   2.052   3.580
 5191SOL    HW216326   2.907   1.891   3.575
 5192SOL     OW16327   2.366   1.912   3.602
 5192SOL    HW116328   2.324   1.855   3.532
 5192SOL    HW216329   2.300   1.981   3.634
 5193SOL     OW16330   2.435   2.732   2.891
 5193SOL    HW116331   2.479   2.821   2.882
 5193SOL    HW216332   2.372   2.732   2.968
 5194SOL     OW16333   3.222   2.724   2.907
 5194SOL    HW116334   3.147   2.724   2.841
 5194SOL    HW216335   3.259   2.632   2.916
 5195SOL     OW16336   3.071   2.387   2.137
 5195SOL    HW116337   3.084   2.303   2.191
 5195SOL    HW216338   3.042   2.461   2.197
 5196SOL     OW16339   1.899   3.172   3.144
 5196SOL    HW116340   1.952   3.123   3.212
 5196SOL    HW216341   1.921   3.270   3.149
 5197SOL     OW16342   2.594   2.496   2.926
 5197SOL    HW116343   2.653   2.470   2.850
 5197SOL    HW216344   2.566   2.592   2.915
 5198SOL     OW16345   3.590   2.797   3.716
 5198SOL    HW116346   3.544   2.790   3.627
 5198SOL    HW216347   3.528   2.841   3.782
 5199SOL     OW16348   3.484   2.229   2.236
 5199SOL    HW116349   3.486   2.153   2.300
 5199SOL    HW216350   3.436   2.306   2.276
 5200SOL     OW16351   2.885   2.628   2.828
 5200SOL    HW116352   2.900   2.649   2.924
 5200SOL    HW216353   2.855   2.533   2.819
 5201SOL     OW16354   2.842   3.435   3.562
 5201SOL    HW116355   2.822   3.479   3.474
 5201SOL    HW216356   2.881   3.344   3.546
 5202SOL     OW16357   3.721   3.380   3.467
 5202SOL    HW116358   3.735   3.407   3.372
 5202SOL    HW216359   3.804   3.402   3.520
 5203SOL     OW16360   2.212   2.760   3.666
 5203SOL    HW116361   2.288   2.804   3.714
 5203SOL    HW216362   2.247   2.713   3.584
 5204SOL     OW16363   3.402   2.136   1.987
 5204SOL    HW116364   3.341   2.061   2.010
 5204SOL    HW216365   3.424   2.188   2.070
 5205SOL     OW16366   3.165   2.700   1.904
 5205SOL    HW116367   3.199   2.607   1.919
 5205SOL    HW216368   3.183   2.727   1.809
 5206SOL     OW16369   2.930   3.195   2.711
 5206SOL    HW116370   2.937   3.111   2.656
 5206SOL    HW216371   2.992   3.264   2.675
 5207SOL     OW16372   2.181   2.672   2.811
 5207SOL    HW116373   2.274   2.708   2.816
 5207SOL    HW216374   2.175   2.587   2.863
 5208SOL     OW16375   2.201   2.371   2.868
 5208SOL    HW116376   2.149   2.288   2.851
 5208SOL    HW216377   2.278   2.376   2.804
 5209SOL     OW16378   3.000   2.242   3.540
 5209SOL    HW116379   2.955   2.305   3.604
 5209SOL    HW216380   3.093   2.273   3.523
 5210SOL     OW16381   3.022   2.069   3.339
 5210SOL    HW116382   3.022   2.133   3.416
 5210SOL    HW216383   3.050   2.117   3.256
 5211SOL     OW16384   1.870   3.188   2.062
 5211SOL    HW116385   1.777   3.209   2.031
 5211SOL    HW216386   1.880   3.089   2.075
 5212SOL     OW16387   1.950   3.663   2.789
 5212SOL    HW116388   1.908   3.577   2.762
 5212SOL    HW216389   2.044   3.666   2.755
 5213SOL     OW16390   2.366   3.430   2.772
 5213SOL    HW116391   2.432   3.504   2.781
 5213SOL    HW216392   2.410   3.351   2.730
 5214SOL     OW16393   2.864   2.658   3.100
 5214SOL    HW116394   2.905   2.626   3.186
 5214SOL    HW216395   2.768   2.631   3.097
 5215SOL     OW16396   1.902   2.406   2.976
 5215SOL    HW116397   1.987   2.373   2.935
 5215SOL    HW216398   1.915   2.421   3.074
 5216SOL     OW16399   2.051   2.382   3.584
 5216SOL    HW116400   2.110   2.342   3.514
 5216SOL    HW216401   1.993   2.453   3.543
 5217SOL     OW16402   3.231   2.812   3.522
 5217SOL    HW116403   3.270   2.901   3.542
 5217SOL    HW216404   3.241   2.792   3.425
 5218SOL     OW16405   2.677   2.434   2.187
 5218SOL    HW116406   2.684   2.345   2.141
 5218SOL    HW216407   2.583   2.468   2.179
 5219SOL     OW16408   3.519   2.466   3.068
 5219SOL    HW116409   3.481   2.397   3.130
 5219SOL    HW216410   3.601   2.430   3.024
 5220SOL     OW16411   2.114   3.426   3.606
 5220SOL    HW116412   2.084   3.483   3.682
 5220SOL    HW216413   2.107   3.329   3.632
 5221SOL     OW16414   2.533   2.326   3.131
 5221SOL    HW116415   2.499   2.237   3.101
 5221SOL    HW216416   2.559   2.380   3.051
 5222SOL     OW16417   2.792   3.540   3.327
 5222SOL    HW116418   2.768   3.522   3.232
 5222SOL    HW216419   2.822   3.634   3.337
 5223SOL     OW16420   2.335   2.362   2.053
 5223SOL    HW116421   2.396   2.442   2.057
 5223SOL    HW216422   2.240   2.393   2.060
 5224SOL     OW16423   2.021   2.999   3.328
 5224SOL    HW116424   2.043   2.938   3.404
 5224SOL    HW216425   2.031   2.950   3.242
 5225SOL     OW16426   3.209   2.921   3.096
 5225SOL    HW116427   3.233   2.858   3.022
 5225SOL    HW216428   3.119   2.961   3.078
 5226SOL     OW16429   3.164   2.717   2.171
 5226SOL    HW116430   3.078   2.686   2.213
 5226SOL    HW216431   3.160   2.703   2.072
 5227SOL     OW16432   3.621   3.609   3.016
 5227SOL    HW116433   3.682   3.639   2.943
 5227SOL    HW216434   3.583   3.520   2.994
 5228SOL     OW16435   3.114   3.593   2.990
 5228SOL    HW116436   3.198   3.598   2.936
 5228SOL    HW216437   3.091   3.497   3.008
 5229SOL     OW16438   1.945   3.120   2.884
 5229SOL    HW116439   1.940   3.119   2.984
 5229SOL    HW216440   1.862   3.079   2.846
 5230SOL     OW16441   2.550   3.524   3.578
 5230SOL    HW116442   2.494   3.605   3.587
 5230SOL    HW216443   2.602   3.528   3.492
 5231SOL     OW16444   3.588   1.997   2.385
 5231SOL    HW116445   3.661   1.980   2.318
 5231SOL    HW216446   3.557   1.910   2.423
 5232SOL     OW16447   3.250   3.435   2.339
 5232SOL    HW116448   3.317   3.447   2.265
 5232SOL    HW216449   3.210   3.524   2.362
 5233SOL     OW16450   1.992   3.656   3.713
 5233SOL    HW116451   1.951   3.582   3.766
 5233SOL    HW216452   2.056   3.707   3.771
 5234SOL     OW16453   3.142   2.789   2.534
 5234SOL    HW116454   3.202   2.708   2.536
 5234SOL    HW216455   3.182   2.858   2.474
 5235SOL     OW16456   2.692   3.135   3.284
 5235SOL    HW116457   2.687   3.168   3.379
 5235SOL    HW216458   2.606   3.154   3.238
 5236SOL     OW16459   2.534   3.478   2.016
 5236SOL    HW116460   2.543   3.488   1.917
 5236SOL    HW216461   2.494   3.389   2.037
 5237SOL     OW16462   3.512   3.582   3.256
 5237SOL    HW116463   3.565   3.592   3.172
 5237SOL    HW216464   3.485   3.672   3.290
 5238SOL     OW16465   3.703   2.037   2.825
 5238SOL    HW116466   3.742   1.952   2.789
 5238SOL    HW216467   3.605   2.039   2.806
 5239SOL     OW16468   3.056   3.474   1.893
 5239SOL    HW116469   3.062   3.381   1.930
 5239SOL    HW216470   2.997   3.474   1.813
 5240SOL     OW16471   2.684   2.864   3.234
 5240SOL    HW116472   2.724   2.863   3.142
 5240SOL    HW216473   2.694   2.956   3.274
 5241SOL     OW16474   2.778   2.772   2.153
 5241SOL    HW116475   2.841   2.810   2.085
 5241SOL    HW216476   2.818   2.689   2.192
 5242SOL     OW16477   3.366   3.469   1.906
 5242SOL    HW116478   3.274   3.506   1.913
 5242SOL    HW216479   3.404   3.489   1.816
 5243SOL     OW16480   2.234   3.150   3.352
 5243SOL    HW116481   2.221   3.243   3.318
 5243SOL    HW216482   2.150   3.098   3.339
 5244SOL     OW16483   3.476   3.154   3.151
 5244SOL    HW116484   3.536   3.157   3.231
 5244SOL    HW216485   3.401   3.218   3.164
 5245SOL     OW16486   2.901   2.960   2.558
 5245SOL    HW116487   2.831   2.913   2.612
 5245SOL    HW216488   2.960   2.892   2.515
 5246SOL     OW16489   2.876   2.098   2.833
 5246SOL    HW116490   2.868   2.062   2.740
 5246SOL    HW216491   2.874   2.022   2.898
 5247SOL     OW16492   2.452   3.349   2.353
 5247SOL    HW116493   2.494   3.291   2.283
 5247SOL    HW216494   2.408   3.428   2.309
 5248SOL     OW16495   3.571   2.247   3.243
 5248SOL    HW116496   3.644   2.316   3.247
 5248SOL    HW216497   3.599   2.172   3.184
 5249SOL     OW16498   2.117   3.210   2.152
 5249SOL    HW116499   2.021   3.211   2.125
 5249SOL    HW216500   2.129   3.263   2.236
 5250SOL     OW16501   1.967   2.875   3.588
 5250SOL    HW116502   1.890   2.842   3.642
 5250SOL    HW216503   2.052   2.845   3.630
 5251SOL     OW16504   2.534   2.065   3.351
 5251SOL    HW116505   2.624   2.049   3.311
 5251SOL    HW216506   2.542   2.070   3.450
 5252SOL     OW16507   1.937   2.207   1.895
 5252SOL    HW116508   1.845   2.179   1.866
 5252SOL    HW216509   1.968   2.284   1.839
 5253SOL     OW16510   3.302   2.718   3.260
 5253SOL    HW116511   3.245   2.770   3.197
 5253SOL    HW216512   3.398   2.730   3.236
 5254SOL     OW16513   3.045   3.197   1.981
 5254SOL    HW116514   2.946   3.186   1.983
 5254SOL    HW216515   3.079   3.212   2.074
 5255SOL     OW16516   2.475   2.704   3.293
 5255SOL    HW116517   2.531   2.785   3.276
 5255SOL    HW216518   2.534   2.624   3.296
 5256SOL     OW16519   3.355   3.629   2.821
 5256SOL    HW116520   3.388   3.693   2.752
 5256SOL    HW216521   3.421   3.623   2.896
 5257SOL     OW16522   2.578   2.427   3.570
 5257SOL    HW116523   2.597   2.492   3.644
 5257SOL    HW216524   2.638   2.347   3.579
 5258SOL     OW16525   3.312   3.082   3.495
 5258SOL    HW116526   3.303   3.072   3.594
 5258SOL    HW216527   3.408   3.075   3.469
 5259SOL     OW16528   2.252   3.603   3.422
 5259SOL    HW116529   2.161   3.644   3.420
 5259SOL    HW216530   2.245   3.509   3.454
 5260SOL     OW16531   3.536   2.745   3.116
 5260SOL    HW116532   3.509   2.656   3.079
 5260SOL    HW216533   3.537   2.813   3.043
 5261SOL     OW16534   3.087   2.187   2.311
 5261SOL    HW116535   3.152   2.113   2.300
 5261SOL    HW216536   3.107   2.237   2.395
 5262SOL     OW16537   2.456   2.607   2.514
 5262SOL    HW116538   2.506   2.692   2.495
 5262SOL    HW216539   2.368   2.609   2.466
 5263SOL     OW16540   3.639   2.204   3.504
 5263SOL    HW116541   3.622   2.235   3.410
 5263SOL    HW216542   3.555   2.167   3.542
 5264SOL     OW16543   3.592   2.796   3.379
 5264SOL    HW116544   3.630   2.887   3.394
 5264SOL    HW216545   3.584   2.779   3.280
 5265SOL     OW16546   2.721   3.236   1.878
 5265SOL    HW116547   2.675   3.251   1.966
 5265SOL    HW216548   2.765   3.321   1.848
 5266SOL     OW16549   2.523   3.652   2.815
 5266SOL    HW116550   2.477   3.740   2.802
 5266SOL    HW216551   2.622   3.664   2.808
 5267SOL     OW16552   2.721   2.818   2.723
 5267SOL    HW116553   2.775   2.749   2.771
 5267SOL    HW216554   2.689   2.887   2.789
 5268SOL     OW16555   2.945   2.846   1.949
 5268SOL    HW116556   2.922   2.899   1.867
 5268SOL    HW216557   3.026   2.790   1.930
 5269SOL     OW16558   3.723   3.431   2.713
 5269SOL    HW116559   3.652   3.419   2.643
 5269SOL    HW216560   3.724   3.352   2.773
 5270SOL     OW16561   2.083   3.176   3.706
 5270SOL    HW116562   2.018   3.103   3.685
 5270SOL    HW216563   2.087   3.190   3.804
 5271SOL     OW16564   1.941   3.102   2.515
 5271SOL    HW116565   1.940   3.055   2.603
 5271SOL    HW216566   2.023   3.074   2.464
 5272SOL     OW16567   2.534   3.253   3.486
 5272SOL    HW116568   2.456   3.203   3.524
 5272SOL    HW216569   2.531   3.348   3.517
 5273SOL     OW16570   3.686   2.054   3.089
 5273SOL    HW116571   3.682   1.964   3.133
 5273SOL    HW216572   3.689   2.043   2.990
 5274SOL     OW16573   2.290   2.286   2.382
 5274SOL    HW116574   2.320   2.214   2.320
 5274SOL    HW216575   2.251   2.246   2.465
 5275SOL     OW16576   3.567   3.349   2.966
 5275SOL    HW116577   3.474   3.324   2.939
 5275SOL    HW216578   3.593   3.299   3.048
 5276SOL     OW16579   2.179   2.409   3.142
 5276SOL    HW116580   2.217   2.350   3.214
 5276SOL    HW216581   2.219   2.383   3.054
 5277SOL     OW16582   2.674   3.448   2.549
 5277SOL    HW116583   2.706   3.458   2.455
 5277SOL    HW216584   2.595   3.386   2.551
 5278SOL     OW16585   3.286   2.076   2.974
 5278SOL    HW116586   3.338   2.011   3.029
 5278SOL    HW216587   3.237   2.139   3.035
 5279SOL     OW16588   2.863   1.896   3.016
 5279SOL    HW116589   2.800   1.824   2.985
 5279SOL    HW216590   2.956   1.860   3.016
 5280SOL     OW16591   2.632   3.192   2.163
 5280SOL    HW116592   2.586   3.105   2.180
 5280SOL    HW216593   2.723   3.189   2.204
 5281SOL     OW16594   2.480   3.429   3.146
 5281SOL    HW116595   2.475   3.511   3.203
 5281SOL    HW216596   2.569   3.426   3.101
 5282SOL     OW16597   3.214   1.914   2.030
 5282SOL    HW116598   3.249   1.873   1.946
 5282SOL    HW216599   3.124   1.876   2.050
 5283SOL     OW16600   3.162   2.315   2.553
 5283SOL    HW116601   3.103   2.395   2.557
 5283SOL    HW216602   3.177   2.280   2.646
 5284SOL     OW16603   3.455   2.083   2.744
 5284SOL    HW116604   3.371   2.082   2.798
 5284SOL    HW216605   3.457   2.166   2.688
 5285SOL     OW16606   1.901   2.939   2.162
 5285SOL    HW116607   2.000   2.928   2.153
 5285SOL    HW216608   1.861   2.853   2.194
 5286SOL     OW16609   2.737   3.508   2.199
 5286SOL    HW116610   2.660   3.473   2.145
 5286SOL    HW216611   2.705   3.579   2.261
 5287SOL     OW16612   2.092   2.490   3.837
 5287SOL    HW116613   1.999   2.488   3.874
 5287SOL    HW216614   2.093   2.451   3.745
 5288SOL     OW16615   1.881   2.230   4.371
 5288SOL    HW116616   1.799   2.273   4.410
 5288SOL    HW216617   1.853   2.157   4.308
 5289SOL     OW16618   2.431   3.137   4.889
 5289SOL    HW116619   2.338   3.130   4.852
 5289SOL    HW216620   2.442   3.226   4.933
 5290SOL     OW16621   3.417   3.373   4.427
 5290SOL    HW116622   3.360   3.357   4.508
 5290SOL    HW216623   3.358   3.383   4.347
 5291SOL     OW16624   2.997   2.565   4.441
 5291SOL    HW116625   3.054   2.643   4.416
 5291SOL    HW216626   2.937   2.591   4.517
 5292SOL     OW16627   3.617   2.469   3.955
 5292SOL    HW116628   3.605   2.456   3.856
 5292SOL    HW216629   3.587   2.388   4.004
 5293SOL     OW16630   2.630   3.006   4.747
 5293SOL    HW116631   2.552   3.023   4.807
 5293SOL    HW216632   2.664   3.093   4.711
 5294SOL     OW16633   2.712   2.660   5.547
 5294SOL    HW116634   2.708   2.736   5.612
 5294SOL    HW216635   2.734   2.696   5.456
 5295SOL     OW16636   2.547   2.874   4.389
 5295SOL    HW116637   2.616   2.858   4.459
 5295SOL    HW216638   2.474   2.931   4.427
 5296SOL     OW16639   2.548   3.023   5.527
 5296SOL    HW116640   2.608   3.102   5.541
 5296SOL    HW216641   2.462   3.054   5.486
 5297SOL     OW16642   2.197   3.297   4.785
 5297SOL    HW116643   2.119   3.266   4.732
 5297SOL    HW216644   2.255   3.355   4.728
 5298SOL     OW16645   3.322   3.367   5.063
 5298SOL    HW116646   3.346   3.461   5.089
 5298SOL    HW216647   3.306   3.313   5.145
 5299SOL     OW16648   3.465   2.309   4.461
 5299SOL    HW116649   3.391   2.355   4.411
 5299SOL    HW216650   3.516   2.377   4.514
 5300SOL     OW16651   2.093   3.575   4.207
 5300SOL    HW116652   2.127   3.652   4.261
 5300SOL    HW216653   2.137   3.575   4.117
 5301SOL     OW16654   2.989   3.203   5.414
 5301SOL    HW116655   3.036   3.203   5.502
 5301SOL    HW216656   2.941   3.116   5.403
 5302SOL     OW16657   2.092   3.296   4.262
 5302SOL    HW116658   2.066   3.392   4.262
 5302SOL    HW216659   2.021   3.242   4.307
 5303SOL     OW16660   2.102   2.953   4.610
 5303SOL    HW116661   2.116   2.869   4.662
 5303SOL    HW216662   2.047   3.017   4.665
 5304SOL     OW16663   2.482   3.648   5.163
 5304SOL    HW116664   2.390   3.631   5.198
 5304SOL    HW216665   2.510   3.740   5.189
 5305SOL     OW16666   2.468   2.826   3.847
 5305SOL    HW116667   2.475   2.910   3.793
 5305SOL    HW216668   2.514   2.839   3.935
 5306SOL     OW16669   3.456   1.976   5.204
 5306SOL    HW116670   3.438   2.043   5.132
 5306SOL    HW216671   3.453   2.022   5.293
 5307SOL     OW16672   1.984   2.505   4.287
 5307SOL    HW116673   1.939   2.417   4.304
 5307SOL    HW216674   1.983   2.559   4.371
 5308SOL     OW16675   3.704   3.629   4.083
 5308SOL    HW116676   3.758   3.600   4.163
 5308SOL    HW216677   3.734   3.719   4.054
 5309SOL     OW16678   1.889   3.458   3.841
 5309SOL    HW116679   1.870   3.362   3.862
 5309SOL    HW216680   1.856   3.516   3.916
 5310SOL     OW16681   3.551   2.784   4.336
 5310SOL    HW116682   3.646   2.755   4.344
 5310SOL    HW216683   3.543   2.849   4.261
 5311SOL     OW16684   3.503   2.970   4.156
 5311SOL    HW116685   3.589   2.972   4.104
 5311SOL    HW216686   3.517   3.017   4.244
 5312SOL     OW16687   1.975   2.599   5.321
 5312SOL    HW116688   2.063   2.586   5.366
 5312SOL    HW216689   1.962   2.696   5.299
 5313SOL     OW16690   2.475   3.227   4.450
 5313SOL    HW116691   2.426   3.140   4.459
 5313SOL    HW216692   2.452   3.270   4.363
 5314SOL     OW16693   3.155   3.090   5.147
 5314SOL    HW116694   3.192   3.017   5.089
 5314SOL    HW216695   3.207   3.095   5.232
 5315SOL     OW16696   2.671   1.866   4.226
 5315SOL    HW116697   2.711   1.957   4.217
 5315SOL    HW216698   2.571   1.874   4.232
 5316SOL     OW16699   2.059   2.838   4.988
 5316SOL    HW116700   2.148   2.793   4.974
 5316SOL    HW216701   1.986   2.773   4.969
 5317SOL     OW16702   3.387   2.861   3.914
 5317SOL    HW116703   3.324   2.785   3.927
 5317SOL    HW216704   3.435   2.879   4.000
 5318SOL     OW16705   3.049   3.654   5.340
 5318SOL    HW116706   3.073   3.714   5.264
 5318SOL    HW216707   3.056   3.559   5.310
 5319SOL     OW16708   3.328   3.279   4.677
 5319SOL    HW116709   3.269   3.285   4.757
 5319SOL    HW216710   3.313   3.191   4.631
 5320SOL     OW16711   3.529   3.576   4.296
 5320SOL    HW116712   3.488   3.553   4.208
 5320SOL    HW216713   3.511   3.502   4.361
 5321SOL     OW16714   2.460   2.591   3.994
 5321SOL    HW116715   2.484   2.660   3.926
 5321SOL    HW216716   2.382   2.624   4.048
 5322SOL     OW16717   3.143   2.207   4.668
 5322SOL    HW116718   3.057   2.157   4.655
 5322SOL    HW216719   3.205   2.153   4.724
 5323SOL     OW16720   3.438   3.524   4.031
 5323SOL    HW116721   3.527   3.570   4.034
 5323SOL    HW216722   3.417   3.500   3.936
 5324SOL     OW16723   2.669   2.467   5.189
 5324SOL    HW116724   2.622   2.464   5.278
 5324SOL    HW216725   2.618   2.412   5.123
 5325SOL     OW16726   3.256   2.331   5.398
 5325SOL    HW116727   3.236   2.374   5.486
 5325SOL    HW216728   3.334   2.269   5.407
 5326SOL     OW16729   2.835   2.752   5.296
 5326SOL    HW116730   2.881   2.668   5.267
 5326SOL    HW216731   2.779   2.786   5.221
 5327SOL     OW16732   2.853   2.272   4.966
 5327SOL    HW116733   2.776   2.306   5.020
 5327SOL    HW216734   2.819   2.221   4.887
 5328SOL     OW16735   2.903   2.563   4.153
 5328SOL    HW116736   2.929   2.559   4.249
 5328SOL    HW216737   2.818   2.512   4.139
 5329SOL     OW16738   1.938   2.673   4.513
 5329SOL    HW116739   2.037   2.661   4.522
 5329SOL    HW216740   1.914   2.768   4.534
 5330SOL     OW16741   1.992   3.683   5.295
 5330SOL    HW116742   1.982   3.668   5.394
 5330SOL    HW216743   1.906   3.719   5.259
 5331SOL     OW16744   2.727   2.210   3.919
 5331SOL    HW116745   2.786   2.273   3.870
 5331SOL    HW216746   2.746   2.116   3.890
 5332SOL     OW16747   3.581   2.447   5.555
 5332SOL    HW116748   3.555   2.536   5.519
 5332SOL    HW216749   3.579   2.379   5.482
 5333SOL     OW16750   3.224   3.006   4.269
 5333SOL    HW116751   3.307   2.977   4.221
 5333SOL    HW216752   3.175   3.073   4.213
 5334SOL     OW16753   2.412   2.058   4.609
 5334SOL    HW116754   2.407   2.053   4.709
 5334SOL    HW216755   2.414   2.154   4.580
 5335SOL     OW16756   2.870   3.318   4.201
 5335SOL    HW116757   2.824   3.390   4.149
 5335SOL    HW216758   2.866   3.338   4.299
 5336SOL     OW16759   2.213   3.663   4.577
 5336SOL    HW116760   2.263   3.577   4.583
 5336SOL    HW216761   2.278   3.740   4.574
 5337SOL     OW16762   3.657   2.928   4.597
 5337SOL    HW116763   3.595   2.913   4.521
 5337SOL    HW216764   3.605   2.939   4.682
 5338SOL     OW16765   3.089   3.412   5.230
 5338SOL    HW116766   3.095   3.335   5.294
 5338SOL    HW216767   3.037   3.386   5.150
 5339SOL     OW16768   2.183   2.805   3.966
 5339SOL    HW116769   2.265   2.844   3.924
 5339SOL    HW216770   2.156   2.723   3.917
 5340SOL     OW16771   3.320   2.597   4.452
 5340SOL    HW116772   3.315   2.532   4.527
 5340SOL    HW216773   3.400   2.656   4.465
 5341SOL     OW16774   2.323   3.128   5.451
 5341SOL    HW116775   2.273   3.129   5.365
 5341SOL    HW216776   2.260   3.110   5.527
 5342SOL     OW16777   2.973   3.638   3.961
 5342SOL    HW116778   2.913   3.576   4.011
 5342SOL    HW216779   3.004   3.594   3.876
 5343SOL     OW16780   3.494   3.239   3.805
 5343SOL    HW116781   3.462   3.333   3.795
 5343SOL    HW216782   3.418   3.176   3.793
 5344SOL     OW16783   2.326   3.605   4.047
 5344SOL    HW116784   2.359   3.644   4.133
 5344SOL    HW216785   2.402   3.598   3.982
 5345SOL     OW16786   3.262   1.969   4.150
 5345SOL    HW116787   3.238   1.932   4.060
 5345SOL    HW216788   3.361   1.985   4.154
 5346SOL     OW16789   2.111   3.647   4.965
 5346SOL    HW116790   2.168   3.582   5.015
 5346SOL    HW216791   2.095   3.614   4.872
 5347SOL     OW16792   2.802   3.560   4.628
 5347SOL    HW116793   2.882   3.503   4.649
 5347SOL    HW216794   2.753   3.520   4.551
 5348SOL     OW16795   2.244   2.562   4.204
 5348SOL    HW116796   2.289   2.472   4.201
 5348SOL    HW216797   2.150   2.551   4.237
 5349SOL     OW16798   3.409   2.084   5.453
 5349SOL    HW116799   3.404   2.121   5.545
 5349SOL    HW216800   3.337   2.015   5.441
 5350SOL     OW16801   2.476   1.984   3.841
 5350SOL    HW116802   2.574   1.962   3.848
 5350SOL    HW216803   2.445   1.967   3.748
 5351SOL     OW16804   2.643   2.126   5.473
 5351SOL    HW116805   2.710   2.065   5.516
 5351SOL    HW216806   2.570   2.145   5.538
 5352SOL     OW16807   2.750   3.376   4.919
 5352SOL    HW116808   2.727   3.351   4.825
 5352SOL    HW216809   2.811   3.307   4.958
 5353SOL     OW16810   3.213   2.452   5.157
 5353SOL    HW116811   3.241   2.409   5.242
 5353SOL    HW216812   3.238   2.548   5.158
 5354SOL     OW16813   2.665   3.264   4.648
 5354SOL    HW116814   2.755   3.278   4.606
 5354SOL    HW216815   2.594   3.266   4.577
 5355SOL     OW16816   2.784   2.365   4.623
 5355SOL    HW116817   2.759   2.356   4.527
 5355SOL    HW216818   2.832   2.283   4.654
 5356SOL     OW16819   2.401   1.926   4.236
 5356SOL    HW116820   2.320   1.927   4.294
 5356SOL    HW216821   2.404   2.009   4.181
 5357SOL     OW16822   3.296   3.050   3.765
 5357SOL    HW116823   3.328   2.974   3.822
 5357SOL    HW216824   3.204   3.077   3.795
 5358SOL     OW16825   2.797   2.098   4.204
 5358SOL    HW116826   2.749   2.139   4.126
 5358SOL    HW216827   2.896   2.096   4.185
 5359SOL     OW16828   2.938   2.545   5.188
 5359SOL    HW116829   2.858   2.484   5.191
 5359SOL    HW216830   3.019   2.492   5.164
 5360SOL     OW16831   3.089   3.432   4.517
 5360SOL    HW116832   3.110   3.506   4.452
 5360SOL    HW216833   3.157   3.432   4.590
 5361SOL     OW16834   2.321   3.014   4.465
 5361SOL    HW116835   2.250   2.987   4.530
 5361SOL    HW216836   2.295   2.986   4.372
 5362SOL     OW16837   3.133   3.659   4.315
 5362SOL    HW116838   3.177   3.723   4.251
 5362SOL    HW216839   3.083   3.711   4.385
 5363SOL     OW16840   2.894   2.411   3.740
 5363SOL    HW116841   2.853   2.493   3.701
 5363SOL    HW216842   2.958   2.437   3.813
 5364SOL     OW16843   1.940   2.418   5.110
 5364SOL    HW116844   2.032   2.417   5.069
 5364SOL    HW216845   1.934   2.492   5.177
 5365SOL     OW16846   2.728   2.316   4.366
 5365SOL    HW116847   2.696   2.388   4.304
 5365SOL    HW216848   2.752   2.235   4.313
 5366SOL     OW16849   2.879   1.901   4.477
 5366SOL    HW116850   2.807   1.906   4.408
 5366SOL    HW216851   2.855   1.832   4.546
 5367SOL     OW16852   3.291   3.035   4.591
 5367SOL    HW116853   3.236   2.951   4.584
 5367SOL    HW216854   3.317   3.064   4.499
 5368SOL     OW16855   3.328   2.452   4.716
 5368SOL    HW116856   3.298   2.357   4.723
 5368SOL    HW216857   3.401   2.468   4.782
 5369SOL     OW16858   3.719   2.695   4.101
 5369SOL    HW116859   3.761   2.631   4.165
 5369SOL    HW216860   3.681   2.644   4.023
 5370SOL     OW16861   2.350   3.247   3.898
 5370SOL    HW116862   2.263   3.232   3.945
 5370SOL    HW216863   2.333   3.273   3.803
 5371SOL     OW16864   3.526   3.142   4.381
 5371SOL    HW116865   3.625   3.150   4.395
 5371SOL    HW216866   3.481   3.226   4.412
 5372SOL     OW16867   3.252   2.437   3.802
 5372SOL    HW116868   3.198   2.416   3.883
 5372SOL    HW216869   3.343   2.396   3.811
 5373SOL     OW16870   3.616   3.085   5.312
 5373SOL    HW116871   3.707   3.046   5.299
 5373SOL    HW216872   3.624   3.181   5.336
 5374SOL     OW16873   2.926   3.209   5.064
 5374SOL    HW116874   2.846   3.186   5.119
 5374SOL    HW216875   3.009   3.183   5.113
 5375SOL     OW16876   3.454   3.491   5.349
 5375SOL    HW116877   3.481   3.525   5.259
 5375SOL    HW216878   3.533   3.453   5.395
 5376SOL     OW16879   2.973   3.057   4.824
 5376SOL    HW116880   2.933   3.101   4.905
 5376SOL    HW216881   2.932   3.094   4.741
 5377SOL     OW16882   3.500   2.961   4.803
 5377SOL    HW116883   3.505   3.042   4.862
 5377SOL    HW216884   3.414   2.963   4.752
 5378SOL     OW16885   2.777   1.951   5.126
 5378SOL    HW116886   2.802   1.931   5.031
 5378SOL    HW216887   2.849   2.007   5.168
 5379SOL     OW16888   2.842   2.978   5.443
 5379SOL    HW116889   2.743   2.984   5.453
 5379SOL    HW216890   2.865   2.898   5.387
 5380SOL     OW16891   2.567   2.912   4.092
 5380SOL    HW116892   2.553   2.919   4.191
 5380SOL    HW216893   2.651   2.861   4.074
 5381SOL     OW16894   2.272   2.675   4.975
 5381SOL    HW116895   2.358   2.687   5.025
 5381SOL    HW216896   2.230   2.588   5.002
 5382SOL     OW16897   3.136   2.248   4.986
 5382SOL    HW116898   3.157   2.322   5.050
 5382SOL    HW216899   3.047   2.265   4.943
 5383SOL     OW16900   1.926   3.426   5.055
 5383SOL    HW116901   1.880   3.508   5.021
 5383SOL    HW216902   2.024   3.445   5.064
 5384SOL     OW16903   2.229   2.962   4.225
 5384SOL    HW116904   2.222   3.045   4.169
 5384SOL    HW216905   2.233   2.882   4.165
 5385SOL     OW16906   2.428   2.399   4.589
 5385SOL    HW116907   2.440   2.465   4.515
 5385SOL    HW216908   2.474   2.433   4.672
 5386SOL     OW16909   3.114   3.210   4.112
 5386SOL    HW116910   3.164   3.287   4.152
 5386SOL    HW216911   3.019   3.212   4.144
 5387SOL     OW16912   3.134   3.307   4.866
 5387SOL    HW116913   3.181   3.320   4.953
 5387SOL    HW216914   3.068   3.233   4.875
 5388SOL     OW16915   3.444   2.501   4.196
 5388SOL    HW116916   3.413   2.562   4.269
 5388SOL    HW216917   3.494   2.553   4.127
 5389SOL     OW16918   2.216   3.372   5.053
 5389SOL    HW116919   2.195   3.328   4.966
 5389SOL    HW216920   2.313   3.398   5.056
 5390SOL     OW16921   2.264   2.613   5.322
 5390SOL    HW116922   2.332   2.668   5.275
 5390SOL    HW216923   2.304   2.525   5.349
 5391SOL     OW16924   3.449   2.641   5.394
 5391SOL    HW116925   3.357   2.679   5.389
 5391SOL    HW216926   3.509   2.688   5.329
 5392SOL     OW16927   2.875   1.967   5.494
 5392SOL    HW116928   2.881   2.052   5.442
 5392SOL    HW216929   2.907   1.891   5.437
 5393SOL     OW16930   2.366   1.912   5.464
 5393SOL    HW116931   2.324   1.855   5.394
 5393SOL    HW216932   2.300   1.981   5.496
 5394SOL     OW16933   2.435   2.732   4.753
 5394SOL    HW116934   2.479   2.821   4.744
 5394SOL    HW216935   2.372   2.732   4.830
 5395SOL     OW16936   3.222   2.724   4.769
 5395SOL    HW116937   3.147   2.724   4.703
 5395SOL    HW216938   3.259   2.632   4.778
 5396SOL     OW16939   3.071   2.387   3.999
 5396SOL    HW116940   3.084   2.303   4.053
 5396SOL    HW216941   3.042   2.461   4.059
 5397SOL     OW16942   1.899   3.172   5.006
 5397SOL    HW116943   1.952   3.123   5.074
 5397SOL    HW216944   1.921   3.270   5.011
 5398SOL     OW16945   2.594   2.496   4.788
 5398SOL    HW116946   2.653   2.470   4.712
 5398SOL    HW216947   2.566   2.592   4.777
 5399SOL     OW16948   3.590   2.797   5.578
 5399SOL    HW116949   3.544   2.790   5.489
 5399SOL    HW216950   3.528   2.841   5.644
 5400SOL     OW16951   3.484   2.229   4.098
 5400SOL    HW116952   3.486   2.153   4.162
 5400SOL    HW216953   3.436   2.306   4.138
 5401SOL     OW16954   2.885   2.628   4.690
 5401SOL    HW116955   2.900   2.649   4.786
 5401SOL    HW216956   2.855   2.533   4.681
 5402SOL     OW16957   2.842   3.435   5.424
 5402SOL    HW116958   2.822   3.479   5.336
 5402SOL    HW216959   2.881   3.344   5.408
 5403SOL     OW16960   3.721   3.380   5.329
 5403SOL    HW116961   3.735   3.407   5.234
 5403SOL    HW216962   3.804   3.402   5.382
 5404SOL     OW16963   2.212   2.760   5.528
 5404SOL    HW116964   2.288   2.804   5.576
 5404SOL    HW216965   2.247   2.713   5.446
 5405SOL     OW16966   3.402   2.136   3.849
 5405SOL    HW116967   3.341   2.061   3.872
 5405SOL    HW216968   3.424   2.188   3.932
 5406SOL     OW16969   3.165   2.700   3.766
 5406SOL    HW116970   3.199   2.607   3.781
 5406SOL    HW216971   3.183   2.727   3.671
 5407SOL     OW16972   2.930   3.195   4.573
 5407SOL    HW116973   2.937   3.111   4.518
 5407SOL    HW216974   2.992   3.264   4.537
 5408SOL     OW16975   2.181   2.672   4.673
 5408SOL    HW116976   2.274   2.708   4.678
 5408SOL    HW216977   2.175   2.587   4.725
 5409SOL     OW16978   2.201   2.371   4.730
 5409SOL    HW116979   2.149   2.288   4.713
 5409SOL    HW216980   2.278   2.376   4.666
 5410SOL     OW16981   3.000   2.242   5.402
 5410SOL    HW116982   2.955   2.305   5.466
 5410SOL    HW216983   3.093   2.273   5.385
 5411SOL     OW16984   3.022   2.069   5.201
 5411SOL    HW116985   3.022   2.133   5.278
 5411SOL    HW216986   3.050   2.117   5.118
 5412SOL     OW16987   1.870   3.188   3.924
 5412SOL    HW116988   1.777   3.209   3.893
 5412SOL    HW216989   1.880   3.089   3.937
 5413SOL     OW16990   1.950   3.663   4.651
 5413SOL    HW116991   1.908   3.577   4.624
 5413SOL    HW216992   2.044   3.666   4.617
 5414SOL     OW16993   2.366   3.430   4.634
 5414SOL    HW116994   2.432   3.504   4.643
 5414SOL    HW216995   2.410   3.351   4.592
 5415SOL     OW16996   2.864   2.658   4.962
 5415SOL    HW116997   2.905   2.626   5.048
 5415SOL    HW216998   2.768   2.631   4.959
 5416SOL     OW16999   1.902   2.406   4.838
 5416SOL    HW117000   1.987   2.373   4.797
 5416SOL    HW217001   1.915   2.421   4.936
 5417SOL     OW17002   2.051   2.382   5.446
 5417SOL    HW117003   2.110   2.342   5.376
 5417SOL    HW217004   1.993   2.453   5.405
 5418SOL     OW17005   3.231   2.812   5.384
 5418SOL    HW117006   3.270   2.901   5.404
 5418SOL    HW217007   3.241   2.792   5.287
 5419SOL     OW17008   2.677   2.434   4.049
 5419SOL    HW117009   2.684   2.345   4.003
 5419SOL    HW217010   2.583   2.468   4.041
 5420SOL     OW17011   3.519   2.466   4.930
 5420SOL    HW117012   3.481   2.397   4.992
 5420SOL    HW217013   3.601   2.430   4.886
 5421SOL     OW17014   2.114   3.426   5.468
 5421SOL    HW117015   2.084   3.483   5.544
 5421SOL    HW217016   2.107   3.329   5.494
 5422SOL     OW17017   2.533   2.326   4.993
 5422SOL    HW117018   2.499   2.237   4.963
 5422SOL    HW217019   2.559   2.380   4.913
 5423SOL     OW17020   2.792   3.540   5.189
 5423SOL    HW117021   2.768   3.522   5.094
 5423SOL    HW217022   2.822   3.634   5.199
 5424SOL     OW17023   2.335   2.362   3.915
 5424SOL    HW117024   2.396   2.442   3.919
 5424SOL    HW217025   2.240   2.393   3.922
 5425SOL     OW17026   2.021   2.999   5.190
 5425SOL    HW117027   2.043   2.938   5.266
 5425SOL    HW217028   2.031   2.950   5.104
 5426SOL     OW17029   3.209   2.921   4.958
 5426SOL    HW117030   3.233   2.858   4.884
 5426SOL    HW217031   3.119   2.961   4.940
 5427SOL     OW17032   3.164   2.717   4.033
 5427SOL    HW117033   3.078   2.686   4.075
 5427SOL    HW217034   3.160   2.703   3.934
 5428SOL     OW17035   3.621   3.609   4.878
 5428SOL    HW117036   3.682   3.639   4.805
 5428SOL    HW217037   3.583   3.520   4.856
 5429SOL     OW17038   3.114   3.593   4.852
 5429SOL    HW117039   3.198   3.598   4.798
 5429SOL    HW217040   3.091   3.497   4.870
 5430SOL     OW17041   1.945   3.120   4.746
 5430SOL    HW117042   1.940   3.119   4.846
 5430SOL    HW217043   1.862   3.079   4.708
 5431SOL     OW17044   2.550   3.524   5.440
 5431SOL    HW117045   2.494   3.605   5.449
 5431SOL    HW217046   2.602   3.528   5.354
 5432SOL     OW17047   3.588   1.997   4.247
 5432SOL    HW117048   3.661   1.980   4.180
 5432SOL    HW217049   3.557   1.910   4.285
 5433SOL     OW17050   3.250   3.435   4.201
 5433SOL    HW117051   3.317   3.447   4.127
 5433SOL    HW217052   3.210   3.524   4.224
 5434SOL     OW17053   1.992   3.656   5.575
 5434SOL    HW117054   1.951   3.582   5.628
 5434SOL    HW217055   2.056   3.707   5.633
 5435SOL     OW17056   3.142   2.789   4.396
 5435SOL    HW117057   3.202   2.708   4.398
 5435SOL    HW217058   3.182   2.858   4.336
 5436SOL     OW17059   2.692   3.135   5.146
 5436SOL    HW117060   2.687   3.168   5.241
 5436SOL    HW217061   2.606   3.154   5.100
 5437SOL     OW17062   2.534   3.478   3.878
 5437SOL    HW117063   2.543   3.488   3.779
 5437SOL    HW217064   2.494   3.389   3.899
 5438SOL     OW17065   3.512   3.582   5.118
 5438SOL    HW117066   3.565   3.592   5.034
 5438SOL    HW217067   3.485   3.672   5.152
 5439SOL     OW17068   3.703   2.037   4.687
 5439SOL    HW117069   3.742   1.952   4.651
 5439SOL    HW217070   3.605   2.039   4.668
 5440SOL     OW17071   3.056   3.474   3.755
 5440SOL    HW117072   3.062   3.381   3.792
 5440SOL    HW217073   2.997   3.474   3.675
 5441SOL     OW17074   2.684   2.864   5.096
 5441SOL    HW117075   2.724   2.863   5.004
 5441SOL    HW217076   2.694   2.956   5.136
 5442SOL     OW17077   2.778   2.772   4.015
 5442SOL    HW117078   2.841   2.810   3.947
 5442SOL    HW217079   2.818   2.689   4.054
 5443SOL     OW17080   3.366   3.469   3.768
 5443SOL    HW117081   3.274   3.506   3.775
 5443SOL    HW217082   3.404   3.489   3.678
 5444SOL     OW17083   2.234   3.150   5.214
 5444SOL    HW117084   2.221   3.243   5.180
 5444SOL    HW217085   2.150   3.098   5.201
 5445SOL     OW17086   3.476   3.154   5.013
 5445SOL    HW117087   3.536   3.157   5.093
 5445SOL    HW217088   3.401   3.218   5.026
 5446SOL     OW17089   2.901   2.960   4.420
 5446SOL    HW117090   2.831   2.913   4.474
 5446SOL    HW217091   2.960   2.892   4.377
 5447SOL     OW17092   2.876   2.098   4.695
 5447SOL    HW117093   2.868   2.062   4.602
 5447SOL    HW217094   2.874   2.022   4.760
 5448SOL     OW17095   2.452   3.349   4.215
 5448SOL    HW117096   2.494   3.291   4.145
 5448SOL    HW217097   2.408   3.428   4.171
 5449SOL     OW17098   3.571   2.247   5.105
 5449SOL    HW117099   3.644   2.316   5.109
 5449SOL    HW217100   3.599   2.172   5.046
 5450SOL     OW17101   2.117   3.210   4.014
 5450SOL    HW117102   2.021   3.211   3.987
 5450SOL    HW217103   2.129   3.263   4.098
 5451SOL     OW17104   1.967   2.875   5.450
 5451SOL    HW117105   1.890   2.842   5.504
 5451SOL    HW217106   2.052   2.845   5.492
 5452SOL     OW17107   2.534   2.065   5.213
 5452SOL    HW117108   2.624   2.049   5.173
 5452SOL    HW217109   2.542   2.070   5.312
 5453SOL     OW17110   1.937   2.207   3.757
 5453SOL    HW117111   1.845   2.179   3.728
 5453SOL    HW217112   1.968   2.284   3.701
 5454SOL     OW17113   3.302   2.718   5.122
 5454SOL    HW117114   3.245   2.770   5.059
 5454SOL    HW217115   3.398   2.730   5.098
 5455SOL     OW17116   3.045   3.197   3.843
 5455SOL    HW117117   2.946   3.186   3.845
 5455SOL    HW217118   3.079   3.212   3.936
 5456SOL     OW17119   2.475   2.704   5.155
 5456SOL    HW117120   2.531   2.785   5.138
 5456SOL    HW217121   2.534   2.624   5.158
 5457SOL     OW17122   3.355   3.629   4.683
 5457SOL    HW117123   3.388   3.693   4.614
 5457SOL    HW217124   3.421   3.623   4.758
 5458SOL     OW17125   2.578   2.427   5.432
 5458SOL    HW117126   2.597   2.492   5.506
 5458SOL    HW217127   2.638   2.347   5.441
 5459SOL     OW17128   3.312   3.082   5.357
 5459SOL    HW117129   3.303   3.072   5.456
 5459SOL    HW217130   3.408   3.075   5.331
 5460SOL     OW17131   2.252   3.603   5.284
 5460SOL    HW117132   2.161   3.644   5.282
 5460SOL    HW217133   2.245   3.509   5.316
 5461SOL     OW17134   3.536   2.745   4.978
 5461SOL    HW117135   3.509   2.656   4.941
 5461SOL    HW217136   3.537   2.813   4.905
 5462SOL     OW17137   3.087   2.187   4.173
 5462SOL    HW117138   3.152   2.113   4.162
 5462SOL    HW217139   3.107   2.237   4.257
 5463SOL     OW17140   2.456   2.607   4.376
 5463SOL    HW117141   2.506   2.692   4.357
 5463SOL    HW217142   2.368   2.609   4.328
 5464SOL     OW17143   3.639   2.204   5.366
 5464SOL    HW117144   3.622   2.235   5.272
 5464SOL    HW217145   3.555   2.167   5.404
 5465SOL     OW17146   3.592   2.796   5.241
 5465SOL    HW117147   3.630   2.887   5.256
 5465SOL    HW217148   3.584   2.779   5.142
 5466SOL     OW17149   2.721   3.236   3.740
 5466SOL    HW117150   2.675   3.251   3.828
 5466SOL    HW217151   2.765   3.321   3.710
 5467SOL     OW17152   2.523   3.652   4.677
 5467SOL    HW117153   2.477   3.740   4.664
 5467SOL    HW217154   2.622   3.664   4.670
 5468SOL     OW17155   2.721   2.818   4.585
 5468SOL    HW117156   2.775   2.749   4.633
 5468SOL    HW217157   2.689   2.887   4.651
 5469SOL     OW17158   2.945   2.846   3.811
 5469SOL    HW117159   2.922   2.899   3.729
 5469SOL    HW217160   3.026   2.790   3.792
 5470SOL     OW17161   3.723   3.431   4.575
 5470SOL    HW117162   3.652   3.419   4.505
 5470SOL    HW217163   3.724   3.352   4.635
 5471SOL     OW17164   2.083   3.176   5.568
 5471SOL    HW117165   2.018   3.103   5.547
 5471SOL    HW217166   2.087   3.190   5.666
 5472SOL     OW17167   1.941   3.102   4.377
 5472SOL    HW117168   1.940   3.055   4.465
 5472SOL    HW217169   2.023   3.074   4.326
 5473SOL     OW17170   2.534   3.253   5.348
 5473SOL    HW117171   2.456   3.203   5.386
 5473SOL    HW217172   2.531   3.348   5.379
 5474SOL     OW17173   3.686   2.054   4.951
 5474SOL    HW117174   3.682   1.964   4.995
 5474SOL    HW217175   3.689   2.043   4.852
 5475SOL     OW17176   3.567   3.349   4.828
 5475SOL    HW117177   3.474   3.324   4.801
 5475SOL    HW217178   3.593   3.299   4.910
 5476SOL     OW17179   2.179   2.409   5.004
 5476SOL    HW117180   2.217   2.350   5.076
 5476SOL    HW217181   2.219   2.383   4.916
 5477SOL     OW17182   2.674   3.448   4.411
 5477SOL    HW117183   2.706   3.458   4.317
 5477SOL    HW217184   2.595   3.386   4.413
 5478SOL     OW17185   3.286   2.076   4.836
 5478SOL    HW117186   3.338   2.011   4.891
 5478SOL    HW217187   3.237   2.139   4.897
 5479SOL     OW17188   2.863   1.896   4.878
 5479SOL    HW117189   2.800   1.824   4.847
 5479SOL    HW217190   2.956   1.860   4.878
 5480SOL     OW17191   2.632   3.192   4.025
 5480SOL    HW117192   2.586   3.105   4.042
 5480SOL    HW217193   2.723   3.189   4.066
 5481SOL     OW17194   2.480   3.429   5.008
 5481SOL    HW117195   2.475   3.511   5.065
 5481SOL    HW217196   2.569   3.426   4.963
 5482SOL     OW17197   3.214   1.914   3.892
 5482SOL    HW117198   3.249   1.873   3.808
 5482SOL    HW217199   3.124   1.876   3.912
 5483SOL     OW17200   3.162   2.315   4.415
 5483SOL    HW117201   3.103   2.395   4.419
 5483SOL    HW217202   3.177   2.280   4.508
 5484SOL     OW17203   3.455   2.083   4.606
 5484SOL    HW117204   3.371   2.082   4.660
 5484SOL    HW217205   3.457   2.166   4.550
 5485SOL     OW17206   1.901   2.939   4.024
 5485SOL    HW117207   2.000   2.928   4.015
 5485SOL    HW217208   1.861   2.853   4.056
 5486SOL     OW17209   2.737   3.508   4.061
 5486SOL    HW117210   2.660   3.473   4.007
 5486SOL    HW217211   2.705   3.579   4.123
 5487SOL     OW17212   2.092   2.490   5.699
 5487SOL    HW117213   1.999   2.488   5.736
 5487SOL    HW217214   2.093   2.451   5.607
 5488SOL     OW17215   1.881   2.230   6.233
 5488SOL    HW117216   1.799   2.273   6.272
 5488SOL    HW217217   1.853   2.157   6.170
 5489SOL     OW17218   2.431   3.137   6.751
 5489SOL    HW117219   2.338   3.130   6.714
 5489SOL    HW217220   2.442   3.226   6.795
 5490SOL     OW17221   3.417   3.373   6.289
 5490SOL    HW117222   3.360   3.357   6.370
 5490SOL    HW217223   3.358   3.383   6.209
 5491SOL     OW17224   2.997   2.565   6.303
 5491SOL    HW117225   3.054   2.643   6.278
 5491SOL    HW217226   2.937   2.591   6.379
 5492SOL     OW17227   3.617   2.469   5.817
 5492SOL    HW117228   3.605   2.456   5.718
 5492SOL    HW217229   3.587   2.388   5.866
 5493SOL     OW17230   2.630   3.006   6.609
 5493SOL    HW117231   2.552   3.023   6.669
 5493SOL    HW217232   2.664   3.093   6.573
 5494SOL     OW17233   2.712   2.660   7.409
 5494SOL    HW117234   2.708   2.736   7.474
 5494SOL    HW217235   2.734   2.696   7.318
 5495SOL     OW17236   2.547   2.874   6.251
 5495SOL    HW117237   2.616   2.858   6.321
 5495SOL    HW217238   2.474   2.931   6.289
 5496SOL     OW17239   2.548   3.023   7.389
 5496SOL    HW117240   2.608   3.102   7.403
 5496SOL    HW217241   2.462   3.054   7.348
 5497SOL     OW17242   2.197   3.297   6.647
 5497SOL    HW117243   2.119   3.266   6.594
 5497SOL    HW217244   2.255   3.355   6.590
 5498SOL     OW17245   3.322   3.367   6.925
 5498SOL    HW117246   3.346   3.461   6.951
 5498SOL    HW217247   3.306   3.313   7.007
 5499SOL     OW17248   3.465   2.309   6.323
 5499SOL    HW117249   3.391   2.355   6.273
 5499SOL    HW217250   3.516   2.377   6.376
 5500SOL     OW17251   2.093   3.575   6.069
 5500SOL    HW117252   2.127   3.652   6.123
 5500SOL    HW217253   2.137   3.575   5.979
 5501SOL     OW17254   2.989   3.203   7.276
 5501SOL    HW117255   3.036   3.203   7.364
 5501SOL    HW217256   2.941   3.116   7.265
 5502SOL     OW17257   2.092   3.296   6.124
 5502SOL    HW117258   2.066   3.392   6.124
 5502SOL    HW217259   2.021   3.242   6.169
 5503SOL     OW17260   2.102   2.953   6.472
 5503SOL    HW117261   2.116   2.869   6.524
 5503SOL    HW217262   2.047   3.017   6.527
 5504SOL     OW17263   2.482   3.648   7.025
 5504SOL    HW117264   2.390   3.631   7.060
 5504SOL    HW217265   2.510   3.740   7.051
 5505SOL     OW17266   2.468   2.826   5.709
 5505SOL    HW117267   2.475   2.910   5.655
 5505SOL    HW217268   2.514   2.839   5.797
 5506SOL     OW17269   3.456   1.976   7.066
 5506SOL    HW117270   3.438   2.043   6.994
 5506SOL    HW217271   3.453   2.022   7.155
 5507SOL     OW17272   3.704   3.629   5.945
 5507SOL    HW117273   3.758   3.600   6.025
 5507SOL    HW217274   3.734   3.719   5.916
 5508SOL     OW17275   1.889   3.458   5.703
 5508SOL    HW117276   1.870   3.362   5.724
 5508SOL    HW217277   1.856   3.516   5.778
 5509SOL     OW17278   3.551   2.784   6.198
 5509SOL    HW117279   3.646   2.755   6.206
 5509SOL    HW217280   3.543   2.849   6.123
 5510SOL     OW17281   3.503   2.970   6.018
 5510SOL    HW117282   3.589   2.972   5.966
 5510SOL    HW217283   3.517   3.017   6.106
 5511SOL     OW17284   1.975   2.599   7.183
 5511SOL    HW117285   2.063   2.586   7.228
 5511SOL    HW217286   1.962   2.696   7.161
 5512SOL     OW17287   2.475   3.227   6.312
 5512SOL    HW117288   2.426   3.140   6.321
 5512SOL    HW217289   2.452   3.270   6.225
 5513SOL     OW17290   3.155   3.090   7.009
 5513SOL    HW117291   3.192   3.017   6.951
 5513SOL    HW217292   3.207   3.095   7.094
 5514SOL     OW17293   2.059   2.838   6.850
 5514SOL    HW117294   2.148   2.793   6.836
 5514SOL    HW217295   1.986   2.773   6.831
 5515SOL     OW17296   3.387   2.861   5.776
 5515SOL    HW117297   3.324   2.785   5.789
 5515SOL    HW217298   3.435   2.879   5.862
 5516SOL     OW17299   3.049   3.654   7.202
 5516SOL    HW117300   3.073   3.714   7.126
 5516SOL    HW217301   3.056   3.559   7.172
 5517SOL     OW17302   3.328   3.279   6.539
 5517SOL    HW117303   3.269   3.285   6.619
 5517SOL    HW217304   3.313   3.191   6.493
 5518SOL     OW17305   3.529   3.576   6.158
 5518SOL    HW117306   3.488   3.553   6.070
 5518SOL    HW217307   3.511   3.502   6.223
 5519SOL     OW17308   2.460   2.591   5.856
 5519SOL    HW117309   2.484   2.660   5.788
 5519SOL    HW217310   2.382   2.624   5.910
 5520SOL     OW17311   3.143   2.207   6.530
 5520SOL    HW117312   3.057   2.157   6.517
 5520SOL    HW217313   3.205   2.153   6.586
 5521SOL     OW17314   3.438   3.524   5.893
 5521SOL    HW117315   3.527   3.570   5.896
 5521SOL    HW217316   3.417   3.500   5.798
 5522SOL     OW17317   3.256   2.331   7.260
 5522SOL    HW117318   3.236   2.374   7.348
 5522SOL    HW217319   3.334   2.269   7.269
 5523SOL     OW17320   2.835   2.752   7.158
 5523SOL    HW117321   2.881   2.668   7.129
 5523SOL    HW217322   2.779   2.786   7.083
 5524SOL     OW17323   2.853   2.272   6.828
 5524SOL    HW117324   2.776   2.306   6.882
 5524SOL    HW217325   2.819   2.221   6.749
 5525SOL     OW17326   2.903   2.563   6.015
 5525SOL    HW117327   2.929   2.559   6.111
 5525SOL    HW217328   2.818   2.512   6.001
 5526SOL     OW17329   1.992   3.683   7.157
 5526SOL    HW117330   1.982   3.668   7.256
 5526SOL    HW217331   1.906   3.719   7.121
 5527SOL     OW17332   2.727   2.210   5.781
 5527SOL    HW117333   2.786   2.273   5.732
 5527SOL    HW217334   2.746   2.116   5.752
 5528SOL     OW17335   3.581   2.447   7.417
 5528SOL    HW117336   3.555   2.536   7.381
 5528SOL    HW217337   3.579   2.379   7.344
 5529SOL     OW17338   3.224   3.006   6.131
 5529SOL    HW117339   3.307   2.977   6.083
 5529SOL    HW217340   3.175   3.073   6.075
 5530SOL     OW17341   2.870   3.318   6.063
 5530SOL    HW117342   2.824   3.390   6.011
 5530SOL    HW217343   2.866   3.338   6.161
 5531SOL     OW17344   2.213   3.663   6.439
 5531SOL    HW117345   2.263   3.577   6.445
 5531SOL    HW217346   2.278   3.740   6.436
 5532SOL     OW17347   3.657   2.928   6.459
 5532SOL    HW117348   3.595   2.913   6.383
 5532SOL    HW217349   3.605   2.939   6.544
 5533SOL     OW17350   3.089   3.412   7.092
 5533SOL    HW117351   3.095   3.335   7.156
 5533SOL    HW217352   3.037   3.386   7.012
 5534SOL     OW17353   2.183   2.805   5.828
 5534SOL    HW117354   2.265   2.844   5.786
 5534SOL    HW217355   2.156   2.723   5.779
 5535SOL     OW17356   3.320   2.597   6.314
 5535SOL    HW117357   3.315   2.532   6.389
 5535SOL    HW217358   3.400   2.656   6.327
 5536SOL     OW17359   2.323   3.128   7.313
 5536SOL    HW117360   2.273   3.129   7.227
 5536SOL    HW217361   2.260   3.110   7.389
 5537SOL     OW17362   2.973   3.638   5.823
 5537SOL    HW117363   2.913   3.576   5.873
 5537SOL    HW217364   3.004   3.594   5.738
 5538SOL     OW17365   3.494   3.239   5.667
 5538SOL    HW117366   3.462   3.333   5.657
 5538SOL    HW217367   3.418   3.176   5.655
 5539SOL     OW17368   2.326   3.605   5.909
 5539SOL    HW117369   2.359   3.644   5.995
 5539SOL    HW217370   2.402   3.598   5.844
 5540SOL     OW17371   3.262   1.969   6.012
 5540SOL    HW117372   3.238   1.932   5.922
 5540SOL    HW217373   3.361   1.985   6.016
 5541SOL     OW17374   2.111   3.647   6.827
 5541SOL    HW117375   2.168   3.582   6.877
 5541SOL    HW217376   2.095   3.614   6.734
 5542SOL     OW17377   2.802   3.560   6.490
 5542SOL    HW117378   2.882   3.503   6.511
 5542SOL    HW217379   2.753   3.520   6.413
 5543SOL     OW17380   3.409   2.084   7.315
 5543SOL    HW117381   3.404   2.121   7.407
 5543SOL    HW217382   3.337   2.015   7.303
 5544SOL     OW17383   2.476   1.984   5.703
 5544SOL    HW117384   2.574   1.962   5.710
 5544SOL    HW217385   2.445   1.967   5.610
 5545SOL     OW17386   2.750   3.376   6.781
 5545SOL    HW117387   2.727   3.351   6.687
 5545SOL    HW217388   2.811   3.307   6.820
 5546SOL     OW17389   3.213   2.452   7.019
 5546SOL    HW117390   3.241   2.409   7.104
 5546SOL    HW217391   3.238   2.548   7.020
 5547SOL     OW17392   2.665   3.264   6.510
 5547SOL    HW117393   2.755   3.278   6.468
 5547SOL    HW217394   2.594   3.266   6.439
 5548SOL     OW17395   2.401   1.926   6.098
 5548SOL    HW117396   2.320   1.927   6.156
 5548SOL    HW217397   2.404   2.009   6.043
 5549SOL     OW17398   3.296   3.050   5.627
 5549SOL    HW117399   3.328   2.974   5.684
 5549SOL    HW217400   3.204   3.077   5.657
 5550SOL     OW17401   2.938   2.545   7.050
 5550SOL    HW117402   2.858   2.484   7.053
 5550SOL    HW217403   3.019   2.492   7.026
 5551SOL     OW17404   3.089   3.432   6.379
 5551SOL    HW117405   3.110   3.506   6.314
 5551SOL    HW217406   3.157   3.432   6.452
 5552SOL     OW17407   2.321   3.014   6.327
 5552SOL    HW117408   2.250   2.987   6.392
 5552SOL    HW217409   2.295   2.986   6.234
 5553SOL     OW17410   3.133   3.659   6.177
 5553SOL    HW117411   3.177   3.723   6.113
 5553SOL    HW217412   3.083   3.711   6.247
 5554SOL     OW17413   2.894   2.411   5.602
 5554SOL    HW117414   2.853   2.493   5.563
 5554SOL    HW217415   2.958   2.437   5.675
 5555SOL     OW17416   1.940   2.418   6.972
 5555SOL    HW117417   2.032   2.417   6.931
 5555SOL    HW217418   1.934   2.492   7.039
 5556SOL     OW17419   3.291   3.035   6.453
 5556SOL    HW117420   3.236   2.951   6.446
 5556SOL    HW217421   3.317   3.064   6.361
 5557SOL     OW17422   3.328   2.452   6.578
 5557SOL    HW117423   3.298   2.357   6.585
 5557SOL    HW217424   3.401   2.468   6.644
 5558SOL     OW17425   3.719   2.695   5.963
 5558SOL    HW117426   3.761   2.631   6.027
 5558SOL    HW217427   3.681   2.644   5.885
 5559SOL     OW17428   2.350   3.247   5.760
 5559SOL    HW117429   2.263   3.232   5.807
 5559SOL    HW217430   2.333   3.273   5.665
 5560SOL     OW17431   3.526   3.142   6.243
 5560SOL    HW117432   3.625   3.150   6.257
 5560SOL    HW217433   3.481   3.226   6.274
 5561SOL     OW17434   3.252   2.437   5.664
 5561SOL    HW117435   3.198   2.416   5.745
 5561SOL    HW217436   3.343   2.396   5.673
 5562SOL     OW17437   3.616   3.085   7.174
 5562SOL    HW117438   3.707   3.046   7.161
 5562SOL    HW217439   3.624   3.181   7.198
 5563SOL     OW17440   2.926   3.209   6.926
 5563SOL    HW117441   2.846   3.186   6.981
 5563SOL    HW217442   3.009   3.183   6.975
 5564SOL     OW17443   3.454   3.491   7.211
 5564SOL    HW117444   3.481   3.525   7.121
 5564SOL    HW217445   3.533   3.453   7.257
 5565SOL     OW17446   2.973   3.057   6.686
 5565SOL    HW117447   2.933   3.101   6.767
 5565SOL    HW217448   2.932   3.094   6.603
 5566SOL     OW17449   3.500   2.961   6.665
 5566SOL    HW117450   3.505   3.042   6.724
 5566SOL    HW217451   3.414   2.963   6.614
 5567SOL     OW17452   2.777   1.951   6.988
 5567SOL    HW117453   2.802   1.931   6.893
 5567SOL    HW217454   2.849   2.007   7.030
 5568SOL     OW17455   2.842   2.978   7.305
 5568SOL    HW117456   2.743   2.984   7.315
 5568SOL    HW217457   2.865   2.898   7.249
 5569SOL     OW17458   2.567   2.912   5.954
 5569SOL    HW117459   2.553   2.919   6.053
 5569SOL    HW217460   2.651   2.861   5.936
 5570SOL     OW17461   2.272   2.675   6.837
 5570SOL    HW117462   2.358   2.687   6.887
 5570SOL    HW217463   2.230   2.588   6.864
 5571SOL     OW17464   3.136   2.248   6.848
 5571SOL    HW117465   3.157   2.322   6.912
 5571SOL    HW217466   3.047   2.265   6.805
 5572SOL     OW17467   1.926   3.426   6.917
 5572SOL    HW117468   1.880   3.508   6.883
 5572SOL    HW217469   2.024   3.445   6.926
 5573SOL     OW17470   2.229   2.962   6.087
 5573SOL    HW117471   2.222   3.045   6.031
 5573SOL    HW217472   2.233   2.882   6.027
 5574SOL     OW17473   3.114   3.210   5.974
 5574SOL    HW117474   3.164   3.287   6.014
 5574SOL    HW217475   3.019   3.212   6.006
 5575SOL     OW17476   3.134   3.307   6.728
 5575SOL    HW117477   3.181   3.320   6.815
 5575SOL    HW217478   3.068   3.233   6.737
 5576SOL     OW17479   3.444   2.501   6.058
 5576SOL    HW117480   3.413   2.562   6.131
 5576SOL    HW217481   3.494   2.553   5.989
 5577SOL     OW17482   2.216   3.372   6.915
 5577SOL    HW117483   2.195   3.328   6.828
 5577SOL    HW217484   2.313   3.398   6.918
 5578SOL     OW17485   3.449   2.641   7.256
 5578SOL    HW117486   3.357   2.679   7.251
 5578SOL    HW217487   3.509   2.688   7.191
 5579SOL     OW17488   2.875   1.967   7.356
 5579SOL    HW117489   2.881   2.052   7.304
 5579SOL    HW217490   2.907   1.891   7.299
 5580SOL     OW17491   2.366   1.912   7.326
 5580SOL    HW117492   2.324   1.855   7.256
 5580SOL    HW217493   2.300   1.981   7.358
 5581SOL     OW17494   2.435   2.732   6.615
 5581SOL    HW117495   2.479   2.821   6.606
 5581SOL    HW217496   2.372   2.732   6.692
 5582SOL     OW17497   3.222   2.724   6.631
 5582SOL    HW117498   3.147   2.724   6.565
 5582SOL    HW217499   3.259   2.632   6.640
 5583SOL     OW17500   3.071   2.387   5.861
 5583SOL    HW117501   3.084   2.303   5.915
 5583SOL    HW217502   3.042   2.461   5.921
 5584SOL     OW17503   1.899   3.172   6.868
 5584SOL    HW117504   1.952   3.123   6.936
 5584SOL    HW217505   1.921   3.270   6.873
 5585SOL     OW17506   3.590   2.797   7.440
 5585SOL    HW117507   3.544   2.790   7.351
 5585SOL    HW217508   3.528   2.841   7.506
 5586SOL     OW17509   3.484   2.229   5.960
 5586SOL    HW117510   3.486   2.153   6.024
 5586SOL    HW217511   3.436   2.306   6.000
 5587SOL     OW17512   2.885   2.628   6.552
 5587SOL    HW117513   2.900   2.649   6.648
 5587SOL    HW217514   2.855   2.533   6.543
 5588SOL     OW17515   2.842   3.435   7.286
 5588SOL    HW117516   2.822   3.479   7.198
 5588SOL    HW217517   2.881   3.344   7.270
 5589SOL     OW17518   3.721   3.380   7.191
 5589SOL    HW117519   3.735   3.407   7.096
 5589SOL    HW217520   3.804   3.402   7.244
 5590SOL     OW17521   3.402   2.136   5.711
 5590SOL    HW117522   3.341   2.061   5.734
 5590SOL    HW217523   3.424   2.188   5.794
 5591SOL     OW17524   3.165   2.700   5.628
 5591SOL    HW117525   3.199   2.607   5.643
 5591SOL    HW217526   3.183   2.727   5.533
 5592SOL     OW17527   2.930   3.195   6.435
 5592SOL    HW117528   2.937   3.111   6.380
 5592SOL    HW217529   2.992   3.264   6.399
 5593SOL     OW17530   3.000   2.242   7.264
 5593SOL    HW117531   2.955   2.305   7.328
 5593SOL    HW217532   3.093   2.273   7.247
 5594SOL     OW17533   3.022   2.069   7.063
 5594SOL    HW117534   3.022   2.133   7.140
 5594SOL    HW217535   3.050   2.117   6.980
 5595SOL     OW17536   1.870   3.188   5.786
 5595SOL    HW117537   1.777   3.209   5.755
 5595SOL    HW217538   1.880   3.089   5.799
 5596SOL     OW17539   1.950   3.663   6.513
 5596SOL    HW117540   1.908   3.577   6.486
 5596SOL    HW217541   2.044   3.666   6.479
 5597SOL     OW17542   2.366   3.430   6.496
 5597SOL    HW117543   2.432   3.504   6.505
 5597SOL    HW217544   2.410   3.351   6.454
 5598SOL     OW17545   2.864   2.658   6.824
 5598SOL    HW117546   2.905   2.626   6.910
 5598SOL    HW217547   2.768   2.631   6.821
 5599SOL     OW17548   2.051   2.382   7.308
 5599SOL    HW117549   2.110   2.342   7.238
 5599SOL    HW217550   1.993   2.453   7.267
 5600SOL     OW17551   3.231   2.812   7.246
 5600SOL    HW117552   3.270   2.901   7.266
 5600SOL    HW217553   3.241   2.792   7.149
 5601SOL     OW17554   2.677   2.434   5.911
 5601SOL    HW117555   2.684   2.345   5.865
 5601SOL    HW217556   2.583   2.468   5.903
 5602SOL     OW17557   3.519   2.466   6.792
 5602SOL    HW117558   3.481   2.397   6.854
 5602SOL    HW217559   3.601   2.430   6.748
 5603SOL     OW17560   2.114   3.426   7.330
 5603SOL    HW117561   2.084   3.483   7.406
 5603SOL    HW217562   2.107   3.329   7.356
 5604SOL     OW17563   2.533   2.326   6.855
 5604SOL    HW117564   2.499   2.237   6.825
 5604SOL    HW217565   2.559   2.380   6.775
 5605SOL     OW17566   2.792   3.540   7.051
 5605SOL    HW117567   2.768   3.522   6.956
 5605SOL    HW217568   2.822   3.634   7.061
 5606SOL     OW17569   2.335   2.362   5.777
 5606SOL    HW117570   2.396   2.442   5.781
 5606SOL    HW217571   2.240   2.393   5.784
 5607SOL     OW17572   2.021   2.999   7.052
 5607SOL    HW117573   2.043   2.938   7.128
 5607SOL    HW217574   2.031   2.950   6.966
 5608SOL     OW17575   3.209   2.921   6.820
 5608SOL    HW117576   3.233   2.858   6.746
 5608SOL    HW217577   3.119   2.961   6.802
 5609SOL     OW17578   3.164   2.717   5.895
 5609SOL    HW117579   3.078   2.686   5.937
 5609SOL    HW217580   3.160   2.703   5.796
 5610SOL     OW17581   3.621   3.609   6.740
 5610SOL    HW117582   3.682   3.639   6.667
 5610SOL    HW217583   3.583   3.520   6.718
 5611SOL     OW17584   3.114   3.593   6.714
 5611SOL    HW117585   3.198   3.598   6.660
 5611SOL    HW217586   3.091   3.497   6.732
 5612SOL     OW17587   1.945   3.120   6.608
 5612SOL    HW117588   1.940   3.119   6.708
 5612SOL    HW217589   1.862   3.079   6.570
 5613SOL     OW17590   2.550   3.524   7.302
 5613SOL    HW117591   2.494   3.605   7.311
 5613SOL    HW217592   2.602   3.528   7.216
 5614SOL     OW17593   3.588   1.997   6.109
 5614SOL    HW117594   3.661   1.980   6.042
 5614SOL    HW217595   3.557   1.910   6.147
 5615SOL     OW17596   3.250   3.435   6.063
 5615SOL    HW117597   3.317   3.447   5.989
 5615SOL    HW217598   3.210   3.524   6.086
 5616SOL     OW17599   1.992   3.656   7.437
 5616SOL    HW117600   1.951   3.582   7.490
 5616SOL    HW217601   2.056   3.707   7.495
 5617SOL     OW17602   3.142   2.789   6.258
 5617SOL    HW117603   3.202   2.708   6.260
 5617SOL    HW217604   3.182   2.858   6.198
 5618SOL     OW17605   2.692   3.135   7.008
 5618SOL    HW117606   2.687   3.168   7.103
 5618SOL    HW217607   2.606   3.154   6.962
 5619SOL     OW17608   2.534   3.478   5.740
 5619SOL    HW117609   2.543   3.488   5.641
 5619SOL    HW217610   2.494   3.389   5.761
 5620SOL     OW17611   3.512   3.582   6.980
 5620SOL    HW117612   3.565   3.592   6.896
 5620SOL    HW217613   3.485   3.672   7.014
 5621SOL     OW17614   3.703   2.037   6.549
 5621SOL    HW117615   3.742   1.952   6.513
 5621SOL    HW217616   3.605   2.039   6.530
 5622SOL     OW17617   3.056   3.474   5.617
 5622SOL    HW117618   3.062   3.381   5.654
 5622SOL    HW217619   2.997   3.474   5.537
 5623SOL     OW17620   2.684   2.864   6.958
 5623SOL    HW117621   2.724   2.863   6.866
 5623SOL    HW217622   2.694   2.956   6.998
 5624SOL     OW17623   2.778   2.772   5.877
 5624SOL    HW117624   2.841   2.810   5.809
 5624SOL    HW217625   2.818   2.689   5.916
 5625SOL     OW17626   3.366   3.469   5.630
 5625SOL    HW117627   3.274   3.506   5.637
 5625SOL    HW217628   3.404   3.489   5.540
 5626SOL     OW17629   2.234   3.150   7.076
 5626SOL    HW117630   2.221   3.243   7.042
 5626SOL    HW217631   2.150   3.098   7.063
 5627SOL     OW17632   3.476   3.154   6.875
 5627SOL    HW117633   3.536   3.157   6.955
 5627SOL    HW217634   3.401   3.218   6.888
 5628SOL     OW17635   2.901   2.960   6.282
 5628SOL    HW117636   2.831   2.913   6.336
 5628SOL    HW217637   2.960   2.892   6.239
 5629SOL     OW17638   2.452   3.349   6.077
 5629SOL    HW117639   2.494   3.291   6.007
 5629SOL    HW217640   2.408   3.428   6.033
 5630SOL     OW17641   3.571   2.247   6.967
 5630SOL    HW117642   3.644   2.316   6.971
 5630SOL    HW217643   3.599   2.172   6.908
 5631SOL     OW17644   2.117   3.210   5.876
 5631SOL    HW117645   2.021   3.211   5.849
 5631SOL    HW217646   2.129   3.263   5.960
 5632SOL     OW17647   1.937   2.207   5.619
 5632SOL    HW117648   1.845   2.179   5.590
 5632SOL    HW217649   1.968   2.284   5.563
 5633SOL     OW17650   3.302   2.718   6.984
 5633SOL    HW117651   3.245   2.770   6.921
 5633SOL    HW217652   3.398   2.730   6.960
 5634SOL     OW17653   3.045   3.197   5.705
 5634SOL    HW117654   2.946   3.186   5.707
 5634SOL    HW217655   3.079   3.212   5.798
 5635SOL     OW17656   2.475   2.704   7.017
 5635SOL    HW117657   2.531   2.785   7.000
 5635SOL    HW217658   2.534   2.624   7.020
 5636SOL     OW17659   3.355   3.629   6.545
 5636SOL    HW117660   3.388   3.693   6.476
 5636SOL    HW217661   3.421   3.623   6.620
 5637SOL     OW17662   3.312   3.082   7.219
 5637SOL    HW117663   3.303   3.072   7.318
 5637SOL    HW217664   3.408   3.075   7.193
 5638SOL     OW17665   2.252   3.603   7.146
 5638SOL    HW117666   2.161   3.644   7.144
 5638SOL    HW217667   2.245   3.509   7.178
 5639SOL     OW17668   3.536   2.745   6.840
 5639SOL    HW117669   3.509   2.656   6.803
 5639SOL    HW217670   3.537   2.813   6.767
 5640SOL     OW17671   3.087   2.187   6.035
 5640SOL    HW117672   3.152   2.113   6.024
 5640SOL    HW217673   3.107   2.237   6.119
 5641SOL     OW17674   3.639   2.204   7.228
 5641SOL    HW117675   3.622   2.235   7.134
 5641SOL    HW217676   3.555   2.167   7.266
 5642SOL     OW17677   3.592   2.796   7.103
 5642SOL    HW117678   3.630   2.887   7.118
 5642SOL    HW217679   3.584   2.779   7.004
 5643SOL     OW17680   2.721   3.236   5.602
 5643SOL    HW117681   2.675   3.251   5.690
 5643SOL    HW217682   2.765   3.321   5.572
 5644SOL     OW17683   2.523   3.652   6.539
 5644SOL    HW117684   2.477   3.740   6.526
 5644SOL    HW217685   2.622   3.664   6.532
 5645SOL     OW17686   2.721   2.818   6.447
 5645SOL    HW117687   2.775   2.749   6.495
 5645SOL    HW217688   2.689   2.887   6.513
 5646SOL     OW17689   2.945   2.846   5.673
 5646SOL    HW117690   2.922   2.899   5.591
 5646SOL    HW217691   3.026   2.790   5.654
 5647SOL     OW17692   3.723   3.431   6.437
 5647SOL    HW117693   3.652   3.419   6.367
 5647SOL    HW217694   3.724   3.352   6.497
 5648SOL     OW17695   2.083   3.176   7.430
 5648SOL    HW117696   2.018   3.103   7.409
 5648SOL    HW217697   2.087   3.190   7.528
 5649SOL     OW17698   1.941   3.102   6.239
 5649SOL    HW117699   1.940   3.055   6.327
 5649SOL    HW217700   2.023   3.074   6.188
 5650SOL     OW17701   2.534   3.253   7.210
 5650SOL    HW117702   2.456   3.203   7.248
 5650SOL    HW217703   2.531   3.348   7.241
 5651SOL     OW17704   3.686   2.054   6.813
 5651SOL    HW117705   3.682   1.964   6.857
 5651SOL    HW217706   3.689   2.043   6.714
 5652SOL     OW17707   3.567   3.349   6.690
 5652SOL    HW117708   3.474   3.324   6.663
 5652SOL    HW217709   3.593   3.299   6.772
 5653SOL     OW17710   2.179   2.409   6.866
 5653SOL    HW117711   2.217   2.350   6.938
 5653SOL    HW217712   2.219   2.383   6.778
 5654SOL     OW17713   2.674   3.448   6.273
 5654SOL    HW117714   2.706   3.458   6.179
 5654SOL    HW217715   2.595   3.386   6.275
 5655SOL     OW17716   3.286   2.076   6.698
 5655SOL    HW117717   3.338   2.011   6.753
 5655SOL    HW217718   3.237   2.139   6.759
 5656SOL     OW17719   2.863   1.896   6.740
 5656SOL    HW117720   2.800   1.824   6.709
 5656SOL    HW217721   2.956   1.860   6.740
 5657SOL     OW17722   2.632   3.192   5.887
 5657SOL    HW117723   2.586   3.105   5.904
 5657SOL    HW217724   2.723   3.189   5.928
 5658SOL     OW17725   2.480   3.429   6.870
 5658SOL    HW117726   2.475   3.511   6.927
 5658SOL    HW217727   2.569   3.426   6.825
 5659SOL     OW17728   3.214   1.914   5.754
 5659SOL    HW117729   3.249   1.873   5.670
 5659SOL    HW217730   3.124   1.876   5.774
 5660SOL     OW17731   3.162   2.315   6.277
 5660SOL    HW117732   3.103   2.395   6.281
 5660SOL    HW217733   3.177   2.280   6.370
 5661SOL     OW17734   3.455   2.083   6.468
 5661SOL    HW117735   3.371   2.082   6.522
 5661SOL    HW217736   3.457   2.166   6.412
 5662SOL     OW17737   1.901   2.939   5.886
 5662SOL    HW117738   2.000   2.928   5.877
 5662SOL    HW217739   1.861   2.853   5.918
 5663SOL     OW17740   2.737   3.508   5.923
 5663SOL    HW117741   2.660   3.473   5.869
 5663SOL    HW217742   2.705   3.579   5.985
 5664SOL     OW17743   1.881   2.230   8.095
 5664SOL    HW117744   1.799   2.273   8.134
 5664SOL    HW217745   1.853   2.157   8.032
 5665SOL     OW17746   2.431   3.137   8.613
 5665SOL    HW117747   2.338   3.130   8.576
 5665SOL    HW217748   2.442   3.226   8.657
 5666SOL     OW17749   3.417   3.373   8.151
 5666SOL    HW117750   3.360   3.357   8.232
 5666SOL    HW217751   3.358   3.383   8.071
 5667SOL     OW17752   2.997   2.565   8.165
 5667SOL    HW117753   3.054   2.643   8.140
 5667SOL    HW217754   2.937   2.591   8.241
 5668SOL     OW17755   3.617   2.469   7.679
 5668SOL    HW117756   3.605   2.456   7.580
 5668SOL    HW217757   3.587   2.388   7.728
 5669SOL     OW17758   2.630   3.006   8.471
 5669SOL    HW117759   2.552   3.023   8.531
 5669SOL    HW217760   2.664   3.093   8.435
 5670SOL     OW17761   2.712   2.660   9.271
 5670SOL    HW117762   2.708   2.736   9.336
 5670SOL    HW217763   2.734   2.696   9.180
 5671SOL     OW17764   2.547   2.874   8.113
 5671SOL    HW117765   2.616   2.858   8.183
 5671SOL    HW217766   2.474   2.931   8.151
 5672SOL     OW17767   2.548   3.023   9.251
 5672SOL    HW117768   2.608   3.102   9.265
 5672SOL    HW217769   2.462   3.054   9.210
 5673SOL     OW17770   2.197   3.297   8.509
 5673SOL    HW117771   2.119   3.266   8.456
 5673SOL    HW217772   2.255   3.355   8.452
 5674SOL     OW17773   3.322   3.367   8.787
 5674SOL    HW117774   3.346   3.461   8.813
 5674SOL    HW217775   3.306   3.313   8.869
 5675SOL     OW17776   3.465   2.309   8.185
 5675SOL    HW117777   3.391   2.355   8.135
 5675SOL    HW217778   3.516   2.377   8.238
 5676SOL     OW17779   2.093   3.575   7.931
 5676SOL    HW117780   2.127   3.652   7.985
 5676SOL    HW217781   2.137   3.575   7.841
 5677SOL     OW17782   2.989   3.203   9.138
 5677SOL    HW117783   3.036   3.203   9.226
 5677SOL    HW217784   2.941   3.116   9.127
 5678SOL     OW17785   2.092   3.296   7.986
 5678SOL    HW117786   2.066   3.392   7.986
 5678SOL    HW217787   2.021   3.242   8.031
 5679SOL     OW17788   2.102   2.953   8.334
 5679SOL    HW117789   2.116   2.869   8.386
 5679SOL    HW217790   2.047   3.017   8.389
 5680SOL     OW17791   2.482   3.648   8.887
 5680SOL    HW117792   2.390   3.631   8.922
 5680SOL    HW217793   2.510   3.740   8.913
 5681SOL     OW17794   2.468   2.826   7.571
 5681SOL    HW117795   2.475   2.910   7.517
 5681SOL    HW217796   2.514   2.839   7.659
 5682SOL     OW17797   3.456   1.976   8.928
 5682SOL    HW117798   3.438   2.043   8.856
 5682SOL    HW217799   3.453   2.022   9.017
 5683SOL     OW17800   1.984   2.505   8.011
 5683SOL    HW117801   1.939   2.417   8.028
 5683SOL    HW217802   1.983   2.559   8.095
 5684SOL     OW17803   3.704   3.629   7.807
 5684SOL    HW117804   3.758   3.600   7.887
 5684SOL    HW217805   3.734   3.719   7.778
 5685SOL     OW17806   1.889   3.458   7.565
 5685SOL    HW117807   1.870   3.362   7.586
 5685SOL    HW217808   1.856   3.516   7.640
 5686SOL     OW17809   3.551   2.784   8.060
 5686SOL    HW117810   3.646   2.755   8.068
 5686SOL    HW217811   3.543   2.849   7.985
 5687SOL     OW17812   3.503   2.970   7.880
 5687SOL    HW117813   3.589   2.972   7.828
 5687SOL    HW217814   3.517   3.017   7.968
 5688SOL     OW17815   1.975   2.599   9.045
 5688SOL    HW117816   2.063   2.586   9.090
 5688SOL    HW217817   1.962   2.696   9.023
 5689SOL     OW17818   2.475   3.227   8.174
 5689SOL    HW117819   2.426   3.140   8.183
 5689SOL    HW217820   2.452   3.270   8.087
 5690SOL     OW17821   3.155   3.090   8.871
 5690SOL    HW117822   3.192   3.017   8.813
 5690SOL    HW217823   3.207   3.095   8.956
 5691SOL     OW17824   2.671   1.866   7.950
 5691SOL    HW117825   2.711   1.957   7.941
 5691SOL    HW217826   2.571   1.874   7.956
 5692SOL     OW17827   2.059   2.838   8.712
 5692SOL    HW117828   2.148   2.793   8.698
 5692SOL    HW217829   1.986   2.773   8.693
 5693SOL     OW17830   3.387   2.861   7.638
 5693SOL    HW117831   3.324   2.785   7.651
 5693SOL    HW217832   3.435   2.879   7.724
 5694SOL     OW17833   3.049   3.654   9.064
 5694SOL    HW117834   3.073   3.714   8.988
 5694SOL    HW217835   3.056   3.559   9.034
 5695SOL     OW17836   3.328   3.279   8.401
 5695SOL    HW117837   3.269   3.285   8.481
 5695SOL    HW217838   3.313   3.191   8.355
 5696SOL     OW17839   3.529   3.576   8.020
 5696SOL    HW117840   3.488   3.553   7.932
 5696SOL    HW217841   3.511   3.502   8.085
 5697SOL     OW17842   3.143   2.207   8.392
 5697SOL    HW117843   3.057   2.157   8.379
 5697SOL    HW217844   3.205   2.153   8.448
 5698SOL     OW17845   3.438   3.524   7.755
 5698SOL    HW117846   3.527   3.570   7.758
 5698SOL    HW217847   3.417   3.500   7.660
 5699SOL     OW17848   2.669   2.467   8.913
 5699SOL    HW117849   2.622   2.464   9.002
 5699SOL    HW217850   2.618   2.412   8.847
 5700SOL     OW17851   3.256   2.331   9.122
 5700SOL    HW117852   3.236   2.374   9.210
 5700SOL    HW217853   3.334   2.269   9.131
 5701SOL     OW17854   2.835   2.752   9.020
 5701SOL    HW117855   2.881   2.668   8.991
 5701SOL    HW217856   2.779   2.786   8.945
 5702SOL     OW17857   2.853   2.272   8.690
 5702SOL    HW117858   2.776   2.306   8.744
 5702SOL    HW217859   2.819   2.221   8.611
 5703SOL     OW17860   2.903   2.563   7.877
 5703SOL    HW117861   2.929   2.559   7.973
 5703SOL    HW217862   2.818   2.512   7.863
 5704SOL     OW17863   1.938   2.673   8.237
 5704SOL    HW117864   2.037   2.661   8.246
 5704SOL    HW217865   1.914   2.768   8.258
 5705SOL     OW17866   1.992   3.683   9.019
 5705SOL    HW117867   1.982   3.668   9.118
 5705SOL    HW217868   1.906   3.719   8.983
 5706SOL     OW17869   3.581   2.447   9.279
 5706SOL    HW117870   3.555   2.536   9.243
 5706SOL    HW217871   3.579   2.379   9.206
 5707SOL     OW17872   3.224   3.006   7.993
 5707SOL    HW117873   3.307   2.977   7.945
 5707SOL    HW217874   3.175   3.073   7.937
 5708SOL     OW17875   2.412   2.058   8.333
 5708SOL    HW117876   2.407   2.053   8.433
 5708SOL    HW217877   2.414   2.154   8.304
 5709SOL     OW17878   2.870   3.318   7.925
 5709SOL    HW117879   2.824   3.390   7.873
 5709SOL    HW217880   2.866   3.338   8.023
 5710SOL     OW17881   2.213   3.663   8.301
 5710SOL    HW117882   2.263   3.577   8.307
 5710SOL    HW217883   2.278   3.740   8.298
 5711SOL     OW17884   3.657   2.928   8.321
 5711SOL    HW117885   3.595   2.913   8.245
 5711SOL    HW217886   3.605   2.939   8.406
 5712SOL     OW17887   3.089   3.412   8.954
 5712SOL    HW117888   3.095   3.335   9.018
 5712SOL    HW217889   3.037   3.386   8.874
 5713SOL     OW17890   3.320   2.597   8.176
 5713SOL    HW117891   3.315   2.532   8.251
 5713SOL    HW217892   3.400   2.656   8.189
 5714SOL     OW17893   2.323   3.128   9.175
 5714SOL    HW117894   2.273   3.129   9.089
 5714SOL    HW217895   2.260   3.110   9.251
 5715SOL     OW17896   2.973   3.638   7.685
 5715SOL    HW117897   2.913   3.576   7.735
 5715SOL    HW217898   3.004   3.594   7.600
 5716SOL     OW17899   3.494   3.239   7.529
 5716SOL    HW117900   3.462   3.333   7.519
 5716SOL    HW217901   3.418   3.176   7.517
 5717SOL     OW17902   2.326   3.605   7.771
 5717SOL    HW117903   2.359   3.644   7.857
 5717SOL    HW217904   2.402   3.598   7.706
 5718SOL     OW17905   3.262   1.969   7.874
 5718SOL    HW117906   3.238   1.932   7.784
 5718SOL    HW217907   3.361   1.985   7.878
 5719SOL     OW17908   2.111   3.647   8.689
 5719SOL    HW117909   2.168   3.582   8.739
 5719SOL    HW217910   2.095   3.614   8.596
 5720SOL     OW17911   2.802   3.560   8.352
 5720SOL    HW117912   2.882   3.503   8.373
 5720SOL    HW217913   2.753   3.520   8.275
 5721SOL     OW17914   3.409   2.084   9.177
 5721SOL    HW117915   3.404   2.121   9.269
 5721SOL    HW217916   3.337   2.015   9.165
 5722SOL     OW17917   2.643   2.126   9.197
 5722SOL    HW117918   2.710   2.065   9.240
 5722SOL    HW217919   2.570   2.145   9.262
 5723SOL     OW17920   2.750   3.376   8.643
 5723SOL    HW117921   2.727   3.351   8.549
 5723SOL    HW217922   2.811   3.307   8.682
 5724SOL     OW17923   3.213   2.452   8.881
 5724SOL    HW117924   3.241   2.409   8.966
 5724SOL    HW217925   3.238   2.548   8.882
 5725SOL     OW17926   2.665   3.264   8.372
 5725SOL    HW117927   2.755   3.278   8.330
 5725SOL    HW217928   2.594   3.266   8.301
 5726SOL     OW17929   2.784   2.365   8.347
 5726SOL    HW117930   2.759   2.356   8.251
 5726SOL    HW217931   2.832   2.283   8.378
 5727SOL     OW17932   2.401   1.926   7.960
 5727SOL    HW117933   2.320   1.927   8.018
 5727SOL    HW217934   2.404   2.009   7.905
 5728SOL     OW17935   3.296   3.050   7.489
 5728SOL    HW117936   3.328   2.974   7.546
 5728SOL    HW217937   3.204   3.077   7.519
 5729SOL     OW17938   2.797   2.098   7.928
 5729SOL    HW117939   2.749   2.139   7.850
 5729SOL    HW217940   2.896   2.096   7.909
 5730SOL     OW17941   2.938   2.545   8.912
 5730SOL    HW117942   2.858   2.484   8.915
 5730SOL    HW217943   3.019   2.492   8.888
 5731SOL     OW17944   3.089   3.432   8.241
 5731SOL    HW117945   3.110   3.506   8.176
 5731SOL    HW217946   3.157   3.432   8.314
 5732SOL     OW17947   2.321   3.014   8.189
 5732SOL    HW117948   2.250   2.987   8.254
 5732SOL    HW217949   2.295   2.986   8.096
 5733SOL     OW17950   3.133   3.659   8.039
 5733SOL    HW117951   3.177   3.723   7.975
 5733SOL    HW217952   3.083   3.711   8.109
 5734SOL     OW17953   2.894   2.411   7.464
 5734SOL    HW117954   2.853   2.493   7.425
 5734SOL    HW217955   2.958   2.437   7.537
 5735SOL     OW17956   1.940   2.418   8.834
 5735SOL    HW117957   2.032   2.417   8.793
 5735SOL    HW217958   1.934   2.492   8.901
 5736SOL     OW17959   2.728   2.316   8.090
 5736SOL    HW117960   2.696   2.388   8.028
 5736SOL    HW217961   2.752   2.235   8.037
 5737SOL     OW17962   2.879   1.901   8.201
 5737SOL    HW117963   2.807   1.906   8.132
 5737SOL    HW217964   2.855   1.832   8.270
 5738SOL     OW17965   3.291   3.035   8.315
 5738SOL    HW117966   3.236   2.951   8.308
 5738SOL    HW217967   3.317   3.064   8.223
 5739SOL     OW17968   3.328   2.452   8.440
 5739SOL    HW117969   3.298   2.357   8.447
 5739SOL    HW217970   3.401   2.468   8.506
 5740SOL     OW17971   3.719   2.695   7.825
 5740SOL    HW117972   3.761   2.631   7.889
 5740SOL    HW217973   3.681   2.644   7.747
 5741SOL     OW17974   2.350   3.247   7.622
 5741SOL    HW117975   2.263   3.232   7.669
 5741SOL    HW217976   2.333   3.273   7.527
 5742SOL     OW17977   3.526   3.142   8.105
 5742SOL    HW117978   3.625   3.150   8.119
 5742SOL    HW217979   3.481   3.226   8.136
 5743SOL     OW17980   3.252   2.437   7.526
 5743SOL    HW117981   3.198   2.416   7.607
 5743SOL    HW217982   3.343   2.396   7.535
 5744SOL     OW17983   3.616   3.085   9.036
 5744SOL    HW117984   3.707   3.046   9.023
 5744SOL    HW217985   3.624   3.181   9.060
 5745SOL     OW17986   2.926   3.209   8.788
 5745SOL    HW117987   2.846   3.186   8.843
 5745SOL    HW217988   3.009   3.183   8.837
 5746SOL     OW17989   3.454   3.491   9.073
 5746SOL    HW117990   3.481   3.525   8.983
 5746SOL    HW217991   3.533   3.453   9.119
 5747SOL     OW17992   2.973   3.057   8.548
 5747SOL    HW117993   2.933   3.101   8.629
 5747SOL    HW217994   2.932   3.094   8.465
 5748SOL     OW17995   3.500   2.961   8.527
 5748SOL    HW117996   3.505   3.042   8.586
 5748SOL    HW217997   3.414   2.963   8.476
 5749SOL     OW17998   2.777   1.951   8.850
 5749SOL    HW117999   2.802   1.931   8.755
 5749SOL    HW218000   2.849   2.007   8.892
 5750SOL     OW18001   2.842   2.978   9.167
 5750SOL    HW118002   2.743   2.984   9.177
 5750SOL    HW218003   2.865   2.898   9.111
 5751SOL     OW18004   2.567   2.912   7.816
 5751SOL    HW118005   2.553   2.919   7.915
 5751SOL    HW218006   2.651   2.861   7.798
 5752SOL     OW18007   2.272   2.675   8.699
 5752SOL    HW118008   2.358   2.687   8.749
 5752SOL    HW218009   2.230   2.588   8.726
 5753SOL     OW18010   3.136   2.248   8.710
 5753SOL    HW118011   3.157   2.322   8.774
 5753SOL    HW218012   3.047   2.265   8.667
 5754SOL     OW18013   1.926   3.426   8.779
 5754SOL    HW118014   1.880   3.508   8.745
 5754SOL    HW218015   2.024   3.445   8.788
 5755SOL     OW18016   2.229   2.962   7.949
 5755SOL    HW118017   2.222   3.045   7.893
 5755SOL    HW218018   2.233   2.882   7.889
 5756SOL     OW18019   2.428   2.399   8.313
 5756SOL    HW118020   2.440   2.465   8.239
 5756SOL    HW218021   2.474   2.433   8.396
 5757SOL     OW18022   3.114   3.210   7.836
 5757SOL    HW118023   3.164   3.287   7.876
 5757SOL    HW218024   3.019   3.212   7.868
 5758SOL     OW18025   3.134   3.307   8.590
 5758SOL    HW118026   3.181   3.320   8.677
 5758SOL    HW218027   3.068   3.233   8.599
 5759SOL     OW18028   3.444   2.501   7.920
 5759SOL    HW118029   3.413   2.562   7.993
 5759SOL    HW218030   3.494   2.553   7.851
 5760SOL     OW18031   2.216   3.372   8.777
 5760SOL    HW118032   2.195   3.328   8.690
 5760SOL    HW218033   2.313   3.398   8.780
 5761SOL     OW18034   2.264   2.613   9.046
 5761SOL    HW118035   2.332   2.668   8.999
 5761SOL    HW218036   2.304   2.525   9.073
 5762SOL     OW18037   3.449   2.641   9.118
 5762SOL    HW118038   3.357   2.679   9.113
 5762SOL    HW218039   3.509   2.688   9.053
 5763SOL     OW18040   2.875   1.967   9.218
 5763SOL    HW118041   2.881   2.052   9.166
 5763SOL    HW218042   2.907   1.891   9.161
 5764SOL     OW18043   2.366   1.912   9.188
 5764SOL    HW118044   2.324   1.855   9.118
 5764SOL    HW218045   2.300   1.981   9.220
 5765SOL     OW18046   2.435   2.732   8.477
 5765SOL    HW118047   2.479   2.821   8.468
 5765SOL    HW218048   2.372   2.732   8.554
 5766SOL     OW18049   3.222   2.724   8.493
 5766SOL    HW118050   3.147   2.724   8.427
 5766SOL    HW218051   3.259   2.632   8.502
 5767SOL     OW18052   3.071   2.387   7.723
 5767SOL    HW118053   3.084   2.303   7.777
 5767SOL    HW218054   3.042   2.461   7.783
 5768SOL     OW18055   1.899   3.172   8.730
 5768SOL    HW118056   1.952   3.123   8.798
 5768SOL    HW218057   1.921   3.270   8.735
 5769SOL     OW18058   2.594   2.496   8.512
 5769SOL    HW118059   2.653   2.470   8.436
 5769SOL    HW218060   2.566   2.592   8.501
 5770SOL     OW18061   3.590   2.797   9.302
 5770SOL    HW118062   3.544   2.790   9.213
 5770SOL    HW218063   3.528   2.841   9.368
 5771SOL     OW18064   3.484   2.229   7.822
 5771SOL    HW118065   3.486   2.153   7.886
 5771SOL    HW218066   3.436   2.306   7.862
 5772SOL     OW18067   2.885   2.628   8.414
 5772SOL    HW118068   2.900   2.649   8.510
 5772SOL    HW218069   2.855   2.533   8.405
 5773SOL     OW18070   2.842   3.435   9.148
 5773SOL    HW118071   2.822   3.479   9.060
 5773SOL    HW218072   2.881   3.344   9.132
 5774SOL     OW18073   3.721   3.380   9.053
 5774SOL    HW118074   3.735   3.407   8.958
 5774SOL    HW218075   3.804   3.402   9.106
 5775SOL     OW18076   2.212   2.760   9.252
 5775SOL    HW118077   2.288   2.804   9.300
 5775SOL    HW218078   2.247   2.713   9.170
 5776SOL     OW18079   3.402   2.136   7.573
 5776SOL    HW118080   3.341   2.061   7.596
 5776SOL    HW218081   3.424   2.188   7.656
 5777SOL     OW18082   3.165   2.700   7.490
 5777SOL    HW118083   3.199   2.607   7.505
 5777SOL    HW218084   3.183   2.727   7.395
 5778SOL     OW18085   2.930   3.195   8.297
 5778SOL    HW118086   2.937   3.111   8.242
 5778SOL    HW218087   2.992   3.264   8.261
 5779SOL     OW18088   2.181   2.672   8.397
 5779SOL    HW118089   2.274   2.708   8.402
 5779SOL    HW218090   2.175   2.587   8.449
 5780SOL     OW18091   3.000   2.242   9.126
 5780SOL    HW118092   2.955   2.305   9.190
 5780SOL    HW218093   3.093   2.273   9.109
 5781SOL     OW18094   3.022   2.069   8.925
 5781SOL    HW118095   3.022   2.133   9.002
 5781SOL    HW218096   3.050   2.117   8.842
 5782SOL     OW18097   1.870   3.188   7.648
 5782SOL    HW118098   1.777   3.209   7.617
 5782SOL    HW218099   1.880   3.089   7.661
 5783SOL     OW18100   1.950   3.663   8.375
 5783SOL    HW118101   1.908   3.577   8.348
 5783SOL    HW218102   2.044   3.666   8.341
 5784SOL     OW18103   2.366   3.430   8.358
 5784SOL    HW118104   2.432   3.504   8.367
 5784SOL    HW218105   2.410   3.351   8.316
 5785SOL     OW18106   2.864   2.658   8.686
 5785SOL    HW118107   2.905   2.626   8.772
 5785SOL    HW218108   2.768   2.631   8.683
 5786SOL     OW18109   1.902   2.406   8.562
 5786SOL    HW118110   1.987   2.373   8.521
 5786SOL    HW218111   1.915   2.421   8.660
 5787SOL     OW18112   3.231   2.812   9.108
 5787SOL    HW118113   3.270   2.901   9.128
 5787SOL    HW218114   3.241   2.792   9.011
 5788SOL     OW18115   3.519   2.466   8.654
 5788SOL    HW118116   3.481   2.397   8.716
 5788SOL    HW218117   3.601   2.430   8.610
 5789SOL     OW18118   2.114   3.426   9.192
 5789SOL    HW118119   2.084   3.483   9.268
 5789SOL    HW218120   2.107   3.329   9.218
 5790SOL     OW18121   2.533   2.326   8.717
 5790SOL    HW118122   2.499   2.237   8.687
 5790SOL    HW218123   2.559   2.380   8.637
 5791SOL     OW18124   2.792   3.540   8.913
 5791SOL    HW118125   2.768   3.522   8.818
 5791SOL    HW218126   2.822   3.634   8.923
 5792SOL     OW18127   2.021   2.999   8.914
 5792SOL    HW118128   2.043   2.938   8.990
 5792SOL    HW218129   2.031   2.950   8.828
 5793SOL     OW18130   3.209   2.921   8.682
 5793SOL    HW118131   3.233   2.858   8.608
 5793SOL    HW218132   3.119   2.961   8.664
 5794SOL     OW18133   3.164   2.717   7.757
 5794SOL    HW118134   3.078   2.686   7.799
 5794SOL    HW218135   3.160   2.703   7.658
 5795SOL     OW18136   3.621   3.609   8.602
 5795SOL    HW118137   3.682   3.639   8.529
 5795SOL    HW218138   3.583   3.520   8.580
 5796SOL     OW18139   3.114   3.593   8.576
 5796SOL    HW118140   3.198   3.598   8.522
 5796SOL    HW218141   3.091   3.497   8.594
 5797SOL     OW18142   1.945   3.120   8.470
 5797SOL    HW118143   1.940   3.119   8.570
 5797SOL    HW218144   1.862   3.079   8.432
 5798SOL     OW18145   2.550   3.524   9.164
 5798SOL    HW118146   2.494   3.605   9.173
 5798SOL    HW218147   2.602   3.528   9.078
 5799SOL     OW18148   3.588   1.997   7.971
 5799SOL    HW118149   3.661   1.980   7.904
 5799SOL    HW218150   3.557   1.910   8.009
 5800SOL     OW18151   3.250   3.435   7.925
 5800SOL    HW118152   3.317   3.447   7.851
 5800SOL    HW218153   3.210   3.524   7.948
 5801SOL     OW18154   1.992   3.656   9.299
 5801SOL    HW118155   1.951   3.582   9.352
 5801SOL    HW218156   2.056   3.707   9.357
 5802SOL     OW18157   3.142   2.789   8.120
 5802SOL    HW118158   3.202   2.708   8.122
 5802SOL    HW218159   3.182   2.858   8.060
 5803SOL     OW18160   2.692   3.135   8.870
 5803SOL    HW118161   2.687   3.168   8.965
 5803SOL    HW218162   2.606   3.154   8.824
 5804SOL     OW18163   2.534   3.478   7.602
 5804SOL    HW118164   2.543   3.488   7.503
 5804SOL    HW218165   2.494   3.389   7.623
 5805SOL     OW18166   3.512   3.582   8.842
 5805SOL    HW118167   3.565   3.592   8.758
 5805SOL    HW218168   3.485   3.672   8.876
 5806SOL     OW18169   3.703   2.037   8.411
 5806SOL    HW118170   3.742   1.952   8.375
 5806SOL    HW218171   3.605   2.039   8.392
 5807SOL     OW18172   3.056   3.474   7.479
 5807SOL    HW118173   3.062   3.381   7.516
 5807SOL    HW218174   2.997   3.474   7.399
 5808SOL     OW18175   2.684   2.864   8.820
 5808SOL    HW118176   2.724   2.863   8.728
 5808SOL    HW218177   2.694   2.956   8.860
 5809SOL     OW18178   2.778   2.772   7.739
 5809SOL    HW118179   2.841   2.810   7.671
 5809SOL    HW218180   2.818   2.689   7.778
 5810SOL     OW18181   3.366   3.469   7.492
 5810SOL    HW118182   3.274   3.506   7.499
 5810SOL    HW218183   3.404   3.489   7.402
 5811SOL     OW18184   2.234   3.150   8.938
 5811SOL    HW118185   2.221   3.243   8.904
 5811SOL    HW218186   2.150   3.098   8.925
 5812SOL     OW18187   3.476   3.154   8.737
 5812SOL    HW118188   3.536   3.157   8.817
 5812SOL    HW218189   3.401   3.218   8.750
 5813SOL     OW18190   2.901   2.960   8.144
 5813SOL    HW118191   2.831   2.913   8.198
 5813SOL    HW218192   2.960   2.892   8.101
 5814SOL     OW18193   2.876   2.098   8.419
 5814SOL    HW118194   2.868   2.062   8.326
 5814SOL    HW218195   2.874   2.022   8.484
 5815SOL     OW18196   2.452   3.349   7.939
 5815SOL    HW118197   2.494   3.291   7.869
 5815SOL    HW218198   2.408   3.428   7.895
 5816SOL     OW18199   3.571   2.247   8.829
 5816SOL    HW118200   3.644   2.316   8.833
 5816SOL    HW218201   3.599   2.172   8.770
 5817SOL     OW18202   2.117   3.210   7.738
 5817SOL    HW118203   2.021   3.211   7.711
 5817SOL    HW218204   2.129   3.263   7.822
 5818SOL     OW18205   1.967   2.875   9.174
 5818SOL    HW118206   1.890   2.842   9.228
 5818SOL    HW218207   2.052   2.845   9.216
 5819SOL     OW18208   2.534   2.065   8.937
 5819SOL    HW118209   2.624   2.049   8.897
 5819SOL    HW218210   2.542   2.070   9.036
 5820SOL     OW18211   1.937   2.207   7.481
 5820SOL    HW118212   1.845   2.179   7.452
 5820SOL    HW218213   1.968   2.284   7.425
 5821SOL     OW18214   3.302   2.718   8.846
 5821SOL    HW118215   3.245   2.770   8.783
 5821SOL    HW218216   3.398   2.730   8.822
 5822SOL     OW18217   3.045   3.197   7.567
 5822SOL    HW118218   2.946   3.186   7.569
 5822SOL    HW218219   3.079   3.212   7.660
 5823SOL     OW18220   2.475   2.704   8.879
 5823SOL    HW118221   2.531   2.785   8.862
 5823SOL    HW218222   2.534   2.624   8.882
 5824SOL     OW18223   3.355   3.629   8.407
 5824SOL    HW118224   3.388   3.693   8.338
 5824SOL    HW218225   3.421   3.623   8.482
 5825SOL     OW18226   2.578   2.427   9.156
 5825SOL    HW118227   2.597   2.492   9.230
 5825SOL    HW218228   2.638   2.347   9.165
 5826SOL     OW18229   3.312   3.082   9.081
 5826SOL    HW118230   3.303   3.072   9.180
 5826SOL    HW218231   3.408   3.075   9.055
 5827SOL     OW18232   2.252   3.603   9.008
 5827SOL    HW118233   2.161   3.644   9.006
 5827SOL    HW218234   2.245   3.509   9.040
 5828SOL     OW18235   3.536   2.745   8.702
 5828SOL    HW118236   3.509   2.656   8.665
 5828SOL    HW218237   3.537   2.813   8.629
 5829SOL     OW18238   3.087   2.187   7.897
 5829SOL    HW118239   3.152   2.113   7.886
 5829SOL    HW218240   3.107   2.237   7.981
 5830SOL     OW18241   2.456   2.607   8.100
 5830SOL    HW118242   2.506   2.692   8.081
 5830SOL    HW218243   2.368   2.609   8.052
 5831SOL     OW18244   3.639   2.204   9.090
 5831SOL    HW118245   3.622   2.235   8.996
 5831SOL    HW218246   3.555   2.167   9.128
 5832SOL     OW18247   3.592   2.796   8.965
 5832SOL    HW118248   3.630   2.887   8.980
 5832SOL    HW218249   3.584   2.779   8.866
 5833SOL     OW18250   2.721   3.236   7.464
 5833SOL    HW118251   2.675   3.251   7.552
 5833SOL    HW218252   2.765   3.321   7.434
 5834SOL     OW18253   2.523   3.652   8.401
 5834SOL    HW118254   2.477   3.740   8.388
 5834SOL    HW218255   2.622   3.664   8.394
 5835SOL     OW18256   2.721   2.818   8.309
 5835SOL    HW118257   2.775   2.749   8.357
 5835SOL    HW218258   2.689   2.887   8.375
 5836SOL     OW18259   2.945   2.846   7.535
 5836SOL    HW118260   2.922   2.899   7.453
 5836SOL    HW218261   3.026   2.790   7.516
 5837SOL     OW18262   3.723   3.431   8.299
 5837SOL    HW118263   3.652   3.419   8.229
 5837SOL    HW218264   3.724   3.352   8.359
 5838SOL     OW18265   2.083   3.176   9.292
 5838SOL    HW118266   2.018   3.103   9.271
 5838SOL    HW218267   2.087   3.190   9.390
 5839SOL     OW18268   1.941   3.102   8.101
 5839SOL    HW118269   1.940   3.055   8.189
 5839SOL    HW218270   2.023   3.074   8.050
 5840SOL     OW18271   2.534   3.253   9.072
 5840SOL    HW118272   2.456   3.203   9.110
 5840SOL    HW218273   2.531   3.348   9.103
 5841SOL     OW18274   3.686   2.054   8.675
 5841SOL    HW118275   3.682   1.964   8.719
 5841SOL    HW218276   3.689   2.043   8.576
 5842SOL     OW18277   3.567   3.349   8.552
 5842SOL    HW118278   3.474   3.324   8.525
 5842SOL    HW218279   3.593   3.299   8.634
 5843SOL     OW18280   2.179   2.409   8.728
 5843SOL    HW118281   2.217   2.350   8.800
 5843SOL    HW218282   2.219   2.383   8.640
 5844SOL     OW18283   2.674   3.448   8.135
 5844SOL    HW118284   2.706   3.458   8.041
 5844SOL    HW218285   2.595   3.386   8.137
 5845SOL     OW18286   3.286   2.076   8.560
 5845SOL    HW118287   3.338   2.011   8.615
 5845SOL    HW218288   3.237   2.139   8.621
 5846SOL     OW18289   2.863   1.896   8.602
 5846SOL    HW118290   2.800   1.824   8.571
 5846SOL    HW218291   2.956   1.860   8.602
 5847SOL     OW18292   2.632   3.192   7.749
 5847SOL    HW118293   2.586   3.105   7.766
 5847SOL    HW218294   2.723   3.189   7.790
 5848SOL     OW18295   2.480   3.429   8.732
 5848SOL    HW118296   2.475   3.511   8.789
 5848SOL    HW218297   2.569   3.426   8.687
 5849SOL     OW18298   3.214   1.914   7.616
 5849SOL    HW118299   3.249   1.873   7.532
 5849SOL    HW218300   3.124   1.876   7.636
 5850SOL     OW18301   3.162   2.315   8.139
 5850SOL    HW118302   3.103   2.395   8.143
 5850SOL    HW218303   3.177   2.280   8.232
 5851SOL     OW18304   3.455   2.083   8.330
 5851SOL    HW118305   3.371   2.082   8.384
 5851SOL    HW218306   3.457   2.166   8.274
 5852SOL     OW18307   1.901   2.939   7.748
 5852SOL    HW118308   2.000   2.928   7.739
 5852SOL    HW218309   1.861   2.853   7.780
 5853SOL     OW18310   2.737   3.508   7.785
 5853SOL    HW118311   2.660   3.473   7.731
 5853SOL    HW218312   2.705   3.579   7.847
 5854SOL     OW18313   2.092   2.490   9.423
 5854SOL    HW118314   1.999   2.488   9.460
 5854SOL    HW218315   2.093   2.451   9.331
 5855SOL     OW18316   1.881   2.230   9.957
 5855SOL    HW118317   1.799   2.273   9.996
 5855SOL    HW218318   1.853   2.157   9.894
 5856SOL     OW18319   2.431   3.137  10.475
 5856SOL    HW118320   2.338   3.130  10.438
 5856SOL    HW218321   2.442   3.226  10.519
 5857SOL     OW18322   3.417   3.373  10.013
 5857SOL    HW118323   3.360   3.357  10.094
 5857SOL    HW218324   3.358   3.383   9.933
 5858SOL     OW18325   2.997   2.565  10.027
 5858SOL    HW118326   3.054   2.643  10.002
 5858SOL    HW218327   2.937   2.591  10.103
 5859SOL     OW18328   3.617   2.469   9.541
 5859SOL    HW118329   3.605   2.456   9.442
 5859SOL    HW218330   3.587   2.388   9.590
 5860SOL     OW18331   2.630   3.006  10.333
 5860SOL    HW118332   2.552   3.023  10.393
 5860SOL    HW218333   2.664   3.093  10.297
 5861SOL     OW18334   2.712   2.660  11.133
 5861SOL    HW118335   2.708   2.736  11.198
 5861SOL    HW218336   2.734   2.696  11.042
 5862SOL     OW18337   2.547   2.874   9.975
 5862SOL    HW118338   2.616   2.858  10.045
 5862SOL    HW218339   2.474   2.931  10.013
 5863SOL     OW18340   2.548   3.023  11.113
 5863SOL    HW118341   2.608   3.102  11.127
 5863SOL    HW218342   2.462   3.054  11.072
 5864SOL     OW18343   2.197   3.297  10.371
 5864SOL    HW118344   2.119   3.266  10.318
 5864SOL    HW218345   2.255   3.355  10.314
 5865SOL     OW18346   3.322   3.367  10.649
 5865SOL    HW118347   3.346   3.461  10.675
 5865SOL    HW218348   3.306   3.313  10.731
 5866SOL     OW18349   3.465   2.309  10.047
 5866SOL    HW118350   3.391   2.355   9.997
 5866SOL    HW218351   3.516   2.377  10.100
 5867SOL     OW18352   2.093   3.575   9.793
 5867SOL    HW118353   2.127   3.652   9.847
 5867SOL    HW218354   2.137   3.575   9.703
 5868SOL     OW18355   2.989   3.203  11.000
 5868SOL    HW118356   3.036   3.203  11.088
 5868SOL    HW218357   2.941   3.116  10.989
 5869SOL     OW18358   2.092   3.296   9.848
 5869SOL    HW118359   2.066   3.392   9.848
 5869SOL    HW218360   2.021   3.242   9.893
 5870SOL     OW18361   2.102   2.953  10.196
 5870SOL    HW118362   2.116   2.869  10.248
 5870SOL    HW218363   2.047   3.017  10.251
 5871SOL     OW18364   2.482   3.648  10.749
 5871SOL    HW118365   2.390   3.631  10.784
 5871SOL    HW218366   2.510   3.740  10.775
 5872SOL     OW18367   2.468   2.826   9.433
 5872SOL    HW118368   2.475   2.910   9.379
 5872SOL    HW218369   2.514   2.839   9.521
 5873SOL     OW18370   3.456   1.976  10.790
 5873SOL    HW118371   3.438   2.043  10.718
 5873SOL    HW218372   3.453   2.022  10.879
 5874SOL     OW18373   1.984   2.505   9.873
 5874SOL    HW118374   1.939   2.417   9.890
 5874SOL    HW218375   1.983   2.559   9.957
 5875SOL     OW18376   3.704   3.629   9.669
 5875SOL    HW118377   3.758   3.600   9.749
 5875SOL    HW218378   3.734   3.719   9.640
 5876SOL     OW18379   1.889   3.458   9.427
 5876SOL    HW118380   1.870   3.362   9.448
 5876SOL    HW218381   1.856   3.516   9.502
 5877SOL     OW18382   3.551   2.784   9.922
 5877SOL    HW118383   3.646   2.755   9.930
 5877SOL    HW218384   3.543   2.849   9.847
 5878SOL     OW18385   3.503   2.970   9.742
 5878SOL    HW118386   3.589   2.972   9.690
 5878SOL    HW218387   3.517   3.017   9.830
 5879SOL     OW18388   1.975   2.599  10.907
 5879SOL    HW118389   2.063   2.586  10.952
 5879SOL    HW218390   1.962   2.696  10.885
 5880SOL     OW18391   2.475   3.227  10.036
 5880SOL    HW118392   2.426   3.140  10.045
 5880SOL    HW218393   2.452   3.270   9.949
 5881SOL     OW18394   3.155   3.090  10.733
 5881SOL    HW118395   3.192   3.017  10.675
 5881SOL    HW218396   3.207   3.095  10.818
 5882SOL     OW18397   2.671   1.866   9.812
 5882SOL    HW118398   2.711   1.957   9.803
 5882SOL    HW218399   2.571   1.874   9.818
 5883SOL     OW18400   2.059   2.838  10.574
 5883SOL    HW118401   2.148   2.793  10.560
 5883SOL    HW218402   1.986   2.773  10.555
 5884SOL     OW18403   3.387   2.861   9.500
 5884SOL    HW118404   3.324   2.785   9.513
 5884SOL    HW218405   3.435   2.879   9.586
 5885SOL     OW18406   3.049   3.654  10.926
 5885SOL    HW118407   3.073   3.714  10.850
 5885SOL    HW218408   3.056   3.559  10.896
 5886SOL     OW18409   3.328   3.279  10.263
 5886SOL    HW118410   3.269   3.285  10.343
 5886SOL    HW218411   3.313   3.191  10.217
 5887SOL     OW18412   3.529   3.576   9.882
 5887SOL    HW118413   3.488   3.553   9.794
 5887SOL    HW218414   3.511   3.502   9.947
 5888SOL     OW18415   2.460   2.591   9.580
 5888SOL    HW118416   2.484   2.660   9.512
 5888SOL    HW218417   2.382   2.624   9.634
 5889SOL     OW18418   3.143   2.207  10.254
 5889SOL    HW118419   3.057   2.157  10.241
 5889SOL    HW218420   3.205   2.153  10.310
 5890SOL     OW18421   3.438   3.524   9.617
 5890SOL    HW118422   3.527   3.570   9.620
 5890SOL    HW218423   3.417   3.500   9.522
 5891SOL     OW18424   2.669   2.467  10.775
 5891SOL    HW118425   2.622   2.464  10.864
 5891SOL    HW218426   2.618   2.412  10.709
 5892SOL     OW18427   3.256   2.331  10.984
 5892SOL    HW118428   3.236   2.374  11.072
 5892SOL    HW218429   3.334   2.269  10.993
 5893SOL     OW18430   2.835   2.752  10.882
 5893SOL    HW118431   2.881   2.668  10.853
 5893SOL    HW218432   2.779   2.786  10.807
 5894SOL     OW18433   2.853   2.272  10.552
 5894SOL    HW118434   2.776   2.306  10.606
 5894SOL    HW218435   2.819   2.221  10.473
 5895SOL     OW18436   2.903   2.563   9.739
 5895SOL    HW118437   2.929   2.559   9.835
 5895SOL    HW218438   2.818   2.512   9.725
 5896SOL     OW18439   1.938   2.673  10.099
 5896SOL    HW118440   2.037   2.661  10.108
 5896SOL    HW218441   1.914   2.768  10.120
 5897SOL     OW18442   1.992   3.683  10.881
 5897SOL    HW118443   1.982   3.668  10.980
 5897SOL    HW218444   1.906   3.719  10.845
 5898SOL     OW18445   2.727   2.210   9.505
 5898SOL    HW118446   2.786   2.273   9.456
 5898SOL    HW218447   2.746   2.116   9.476
 5899SOL     OW18448   3.581   2.447  11.141
 5899SOL    HW118449   3.555   2.536  11.105
 5899SOL    HW218450   3.579   2.379  11.068
 5900SOL     OW18451   3.224   3.006   9.855
 5900SOL    HW118452   3.307   2.977   9.807
 5900SOL    HW218453   3.175   3.073   9.799
 5901SOL     OW18454   2.412   2.058  10.195
 5901SOL    HW118455   2.407   2.053  10.295
 5901SOL    HW218456   2.414   2.154  10.166
 5902SOL     OW18457   2.870   3.318   9.787
 5902SOL    HW118458   2.824   3.390   9.735
 5902SOL    HW218459   2.866   3.338   9.885
 5903SOL     OW18460   2.213   3.663  10.163
 5903SOL    HW118461   2.263   3.577  10.169
 5903SOL    HW218462   2.278   3.740  10.160
 5904SOL     OW18463   3.657   2.928  10.183
 5904SOL    HW118464   3.595   2.913  10.107
 5904SOL    HW218465   3.605   2.939  10.268
 5905SOL     OW18466   3.089   3.412  10.816
 5905SOL    HW118467   3.095   3.335  10.880
 5905SOL    HW218468   3.037   3.386  10.736
 5906SOL     OW18469   2.183   2.805   9.552
 5906SOL    HW118470   2.265   2.844   9.510
 5906SOL    HW218471   2.156   2.723   9.503
 5907SOL     OW18472   3.320   2.597  10.038
 5907SOL    HW118473   3.315   2.532  10.113
 5907SOL    HW218474   3.400   2.656  10.051
 5908SOL     OW18475   2.323   3.128  11.037
 5908SOL    HW118476   2.273   3.129  10.951
 5908SOL    HW218477   2.260   3.110  11.113
 5909SOL     OW18478   2.973   3.638   9.547
 5909SOL    HW118479   2.913   3.576   9.597
 5909SOL    HW218480   3.004   3.594   9.462
 5910SOL     OW18481   3.494   3.239   9.391
 5910SOL    HW118482   3.462   3.333   9.381
 5910SOL    HW218483   3.418   3.176   9.379
 5911SOL     OW18484   2.326   3.605   9.633
 5911SOL    HW118485   2.359   3.644   9.719
 5911SOL    HW218486   2.402   3.598   9.568
 5912SOL     OW18487   3.262   1.969   9.736
 5912SOL    HW118488   3.238   1.932   9.646
 5912SOL    HW218489   3.361   1.985   9.740
 5913SOL     OW18490   2.111   3.647  10.551
 5913SOL    HW118491   2.168   3.582  10.601
 5913SOL    HW218492   2.095   3.614  10.458
 5914SOL     OW18493   2.802   3.560  10.214
 5914SOL    HW118494   2.882   3.503  10.235
 5914SOL    HW218495   2.753   3.520  10.137
 5915SOL     OW18496   2.244   2.562   9.790
 5915SOL    HW118497   2.289   2.472   9.787
 5915SOL    HW218498   2.150   2.551   9.823
 5916SOL     OW18499   3.409   2.084  11.039
 5916SOL    HW118500   3.404   2.121  11.131
 5916SOL    HW218501   3.337   2.015  11.027
 5917SOL     OW18502   2.476   1.984   9.427
 5917SOL    HW118503   2.574   1.962   9.434
 5917SOL    HW218504   2.445   1.967   9.334
 5918SOL     OW18505   2.643   2.126  11.059
 5918SOL    HW118506   2.710   2.065  11.102
 5918SOL    HW218507   2.570   2.145  11.124
 5919SOL     OW18508   2.750   3.376  10.505
 5919SOL    HW118509   2.727   3.351  10.411
 5919SOL    HW218510   2.811   3.307  10.544
 5920SOL     OW18511   3.213   2.452  10.743
 5920SOL    HW118512   3.241   2.409  10.828
 5920SOL    HW218513   3.238   2.548  10.744
 5921SOL     OW18514   2.665   3.264  10.234
 5921SOL    HW118515   2.755   3.278  10.192
 5921SOL    HW218516   2.594   3.266  10.163
 5922SOL     OW18517   2.784   2.365  10.209
 5922SOL    HW118518   2.759   2.356  10.113
 5922SOL    HW218519   2.832   2.283  10.240
 5923SOL     OW18520   2.401   1.926   9.822
 5923SOL    HW118521   2.320   1.927   9.880
 5923SOL    HW218522   2.404   2.009   9.767
 5924SOL     OW18523   3.296   3.050   9.351
 5924SOL    HW118524   3.328   2.974   9.408
 5924SOL    HW218525   3.204   3.077   9.381
 5925SOL     OW18526   2.797   2.098   9.790
 5925SOL    HW118527   2.749   2.139   9.712
 5925SOL    HW218528   2.896   2.096   9.771
 5926SOL     OW18529   2.938   2.545  10.774
 5926SOL    HW118530   2.858   2.484  10.777
 5926SOL    HW218531   3.019   2.492  10.750
 5927SOL     OW18532   3.089   3.432  10.103
 5927SOL    HW118533   3.110   3.506  10.038
 5927SOL    HW218534   3.157   3.432  10.176
 5928SOL     OW18535   2.321   3.014  10.051
 5928SOL    HW118536   2.250   2.987  10.116
 5928SOL    HW218537   2.295   2.986   9.958
 5929SOL     OW18538   3.133   3.659   9.901
 5929SOL    HW118539   3.177   3.723   9.837
 5929SOL    HW218540   3.083   3.711   9.971
 5930SOL     OW18541   2.894   2.411   9.326
 5930SOL    HW118542   2.853   2.493   9.287
 5930SOL    HW218543   2.958   2.437   9.399
 5931SOL     OW18544   1.940   2.418  10.696
 5931SOL    HW118545   2.032   2.417  10.655
 5931SOL    HW218546   1.934   2.492  10.763
 5932SOL     OW18547   2.728   2.316   9.952
 5932SOL    HW118548   2.696   2.388   9.890
 5932SOL    HW218549   2.752   2.235   9.899
 5933SOL     OW18550   2.879   1.901  10.063
 5933SOL    HW118551   2.807   1.906   9.994
 5933SOL    HW218552   2.855   1.832  10.132
 5934SOL     OW18553   3.291   3.035  10.177
 5934SOL    HW118554   3.236   2.951  10.170
 5934SOL    HW218555   3.317   3.064  10.085
 5935SOL     OW18556   3.328   2.452  10.302
 5935SOL    HW118557   3.298   2.357  10.309
 5935SOL    HW218558   3.401   2.468  10.368
 5936SOL     OW18559   3.719   2.695   9.687
 5936SOL    HW118560   3.761   2.631   9.751
 5936SOL    HW218561   3.681   2.644   9.609
 5937SOL     OW18562   2.350   3.247   9.484
 5937SOL    HW118563   2.263   3.232   9.531
 5937SOL    HW218564   2.333   3.273   9.389
 5938SOL     OW18565   3.526   3.142   9.967
 5938SOL    HW118566   3.625   3.150   9.981
 5938SOL    HW218567   3.481   3.226   9.998
 5939SOL     OW18568   3.252   2.437   9.388
 5939SOL    HW118569   3.198   2.416   9.469
 5939SOL    HW218570   3.343   2.396   9.397
 5940SOL     OW18571   3.616   3.085  10.898
 5940SOL    HW118572   3.707   3.046  10.885
 5940SOL    HW218573   3.624   3.181  10.922
 5941SOL     OW18574   2.926   3.209  10.650
 5941SOL    HW118575   2.846   3.186  10.705
 5941SOL    HW218576   3.009   3.183  10.699
 5942SOL     OW18577   3.454   3.491  10.935
 5942SOL    HW118578   3.481   3.525  10.845
 5942SOL    HW218579   3.533   3.453  10.981
 5943SOL     OW18580   2.973   3.057  10.410
 5943SOL    HW118581   2.933   3.101  10.491
 5943SOL    HW218582   2.932   3.094  10.327
 5944SOL     OW18583   3.500   2.961  10.389
 5944SOL    HW118584   3.505   3.042  10.448
 5944SOL    HW218585   3.414   2.963  10.338
 5945SOL     OW18586   2.777   1.951  10.712
 5945SOL    HW118587   2.802   1.931  10.617
 5945SOL    HW218588   2.849   2.007  10.754
 5946SOL     OW18589   2.842   2.978  11.029
 5946SOL    HW118590   2.743   2.984  11.039
 5946SOL    HW218591   2.865   2.898  10.973
 5947SOL     OW18592   2.567   2.912   9.678
 5947SOL    HW118593   2.553   2.919   9.777
 5947SOL    HW218594   2.651   2.861   9.660
 5948SOL     OW18595   2.272   2.675  10.561
 5948SOL    HW118596   2.358   2.687  10.611
 5948SOL    HW218597   2.230   2.588  10.588
 5949SOL     OW18598   3.136   2.248  10.572
 5949SOL    HW118599   3.157   2.322  10.636
 5949SOL    HW218600   3.047   2.265  10.529
 5950SOL     OW18601   1.926   3.426  10.641
 5950SOL    HW118602   1.880   3.508  10.607
 5950SOL    HW218603   2.024   3.445  10.650
 5951SOL     OW18604   2.229   2.962   9.811
 5951SOL    HW118605   2.222   3.045   9.755
 5951SOL    HW218606   2.233   2.882   9.751
 5952SOL     OW18607   2.428   2.399  10.175
 5952SOL    HW118608   2.440   2.465  10.101
 5952SOL    HW218609   2.474   2.433  10.258
 5953SOL     OW18610   3.114   3.210   9.698
 5953SOL    HW118611   3.164   3.287   9.738
 5953SOL    HW218612   3.019   3.212   9.730
 5954SOL     OW18613   3.134   3.307  10.452
 5954SOL    HW118614   3.181   3.320  10.539
 5954SOL    HW218615   3.068   3.233  10.461
 5955SOL     OW18616   3.444   2.501   9.782
 5955SOL    HW118617   3.413   2.562   9.855
 5955SOL    HW218618   3.494   2.553   9.713
 5956SOL     OW18619   2.216   3.372  10.639
 5956SOL    HW118620   2.195   3.328  10.552
 5956SOL    HW218621   2.313   3.398  10.642
 5957SOL     OW18622   2.264   2.613  10.908
 5957SOL    HW118623   2.332   2.668  10.861
 5957SOL    HW218624   2.304   2.525  10.935
 5958SOL     OW18625   3.449   2.641  10.980
 5958SOL    HW118626   3.357   2.679  10.975
 5958SOL    HW218627   3.509   2.688  10.915
 5959SOL     OW18628   2.875   1.967  11.080
 5959SOL    HW118629   2.881   2.052  11.028
 5959SOL    HW218630   2.907   1.891  11.023
 5960SOL     OW18631   2.366   1.912  11.050
 5960SOL    HW118632   2.324   1.855  10.980
 5960SOL    HW218633   2.300   1.981  11.082
 5961SOL     OW18634   2.435   2.732  10.339
 5961SOL    HW118635   2.479   2.821  10.330
 5961SOL    HW218636   2.372   2.732  10.416
 5962SOL     OW18637   3.222   2.724  10.355
 5962SOL    HW118638   3.147   2.724  10.289
 5962SOL    HW218639   3.259   2.632  10.364
 5963SOL     OW18640   3.071   2.387   9.585
 5963SOL    HW118641   3.084   2.303   9.639
 5963SOL    HW218642   3.042   2.461   9.645
 5964SOL     OW18643   1.899   3.172  10.592
 5964SOL    HW118644   1.952   3.123  10.660
 5964SOL    HW218645   1.921   3.270  10.597
 5965SOL     OW18646   2.594   2.496  10.374
 5965SOL    HW118647   2.653   2.470  10.298
 5965SOL    HW218648   2.566   2.592  10.363
 5966SOL     OW18649   3.590   2.797  11.164
 5966SOL    HW118650   3.544   2.790  11.075
 5966SOL    HW218651   3.528   2.841  11.230
 5967SOL     OW18652   3.484   2.229   9.684
 5967SOL    HW118653   3.486   2.153   9.748
 5967SOL    HW218654   3.436   2.306   9.724
 5968SOL     OW18655   2.885   2.628  10.276
 5968SOL    HW118656   2.900   2.649  10.372
 5968SOL    HW218657   2.855   2.533  10.267
 5969SOL     OW18658   2.842   3.435  11.010
 5969SOL    HW118659   2.822   3.479  10.922
 5969SOL    HW218660   2.881   3.344  10.994
 5970SOL     OW18661   3.721   3.380  10.915
 5970SOL    HW118662   3.735   3.407  10.820
 5970SOL    HW218663   3.804   3.402  10.968
 5971SOL     OW18664   2.212   2.760  11.114
 5971SOL    HW118665   2.288   2.804  11.162
 5971SOL    HW218666   2.247   2.713  11.032
 5972SOL     OW18667   3.402   2.136   9.435
 5972SOL    HW118668   3.341   2.061   9.458
 5972SOL    HW218669   3.424   2.188   9.518
 5973SOL     OW18670   3.165   2.700   9.352
 5973SOL    HW118671   3.199   2.607   9.367
 5973SOL    HW218672   3.183   2.727   9.257
 5974SOL     OW18673   2.930   3.195  10.159
 5974SOL    HW118674   2.937   3.111  10.104
 5974SOL    HW218675   2.992   3.264  10.123
 5975SOL     OW18676   2.181   2.672  10.259
 5975SOL    HW118677   2.274   2.708  10.264
 5975SOL    HW218678   2.175   2.587  10.311
 5976SOL     OW18679   3.000   2.242  10.988
 5976SOL    HW118680   2.955   2.305  11.052
 5976SOL    HW218681   3.093   2.273  10.971
 5977SOL     OW18682   3.022   2.069  10.787
 5977SOL    HW118683   3.022   2.133  10.864
 5977SOL    HW218684   3.050   2.117  10.704
 5978SOL     OW18685   1.870   3.188   9.510
 5978SOL    HW118686   1.777   3.209   9.479
 5978SOL    HW218687   1.880   3.089   9.523
 5979SOL     OW18688   1.950   3.663  10.237
 5979SOL    HW118689   1.908   3.577  10.210
 5979SOL    HW218690   2.044   3.666  10.203
 5980SOL     OW18691   2.366   3.430  10.220
 5980SOL    HW118692   2.432   3.504  10.229
 5980SOL    HW218693   2.410   3.351  10.178
 5981SOL     OW18694   2.864   2.658  10.548
 5981SOL    HW118695   2.905   2.626  10.634
 5981SOL    HW218696   2.768   2.631  10.545
 5982SOL     OW18697   1.902   2.406  10.424
 5982SOL    HW118698   1.987   2.373  10.383
 5982SOL    HW218699   1.915   2.421  10.522
 5983SOL     OW18700   3.231   2.812  10.970
 5983SOL    HW118701   3.270   2.901  10.990
 5983SOL    HW218702   3.241   2.792  10.873
 5984SOL     OW18703   2.677   2.434   9.635
 5984SOL    HW118704   2.684   2.345   9.589
 5984SOL    HW218705   2.583   2.468   9.627
 5985SOL     OW18706   3.519   2.466  10.516
 5985SOL    HW118707   3.481   2.397  10.578
 5985SOL    HW218708   3.601   2.430  10.472
 5986SOL     OW18709   2.114   3.426  11.054
 5986SOL    HW118710   2.084   3.483  11.130
 5986SOL    HW218711   2.107   3.329  11.080
 5987SOL     OW18712   2.533   2.326  10.579
 5987SOL    HW118713   2.499   2.237  10.549
 5987SOL    HW218714   2.559   2.380  10.499
 5988SOL     OW18715   2.792   3.540  10.775
 5988SOL    HW118716   2.768   3.522  10.680
 5988SOL    HW218717   2.822   3.634  10.785
 5989SOL     OW18718   2.335   2.362   9.501
 5989SOL    HW118719   2.396   2.442   9.505
 5989SOL    HW218720   2.240   2.393   9.508
 5990SOL     OW18721   2.021   2.999  10.776
 5990SOL    HW118722   2.043   2.938  10.852
 5990SOL    HW218723   2.031   2.950  10.690
 5991SOL     OW18724   3.209   2.921  10.544
 5991SOL    HW118725   3.233   2.858  10.470
 5991SOL    HW218726   3.119   2.961  10.526
 5992SOL     OW18727   3.164   2.717   9.619
 5992SOL    HW118728   3.078   2.686   9.661
 5992SOL    HW218729   3.160   2.703   9.520
 5993SOL     OW18730   3.621   3.609  10.464
 5993SOL    HW118731   3.682   3.639  10.391
 5993SOL    HW218732   3.583   3.520  10.442
 5994SOL     OW18733   3.114   3.593  10.438
 5994SOL    HW118734   3.198   3.598  10.384
 5994SOL    HW218735   3.091   3.497  10.456
 5995SOL     OW18736   1.945   3.120  10.332
 5995SOL    HW118737   1.940   3.119  10.432
 5995SOL    HW218738   1.862   3.079  10.294
 5996SOL     OW18739   2.550   3.524  11.026
 5996SOL    HW118740   2.494   3.605  11.035
 5996SOL    HW218741   2.602   3.528  10.940
 5997SOL     OW18742   3.588   1.997   9.833
 5997SOL    HW118743   3.661   1.980   9.766
 5997SOL    HW218744   3.557   1.910   9.871
 5998SOL     OW18745   3.250   3.435   9.787
 5998SOL    HW118746   3.317   3.447   9.713
 5998SOL    HW218747   3.210   3.524   9.810
 5999SOL     OW18748   1.992   3.656  11.161
 5999SOL    HW118749   1.951   3.582  11.214
 5999SOL    HW218750   2.056   3.707  11.219
 6000SOL     OW18751   3.142   2.789   9.982
 6000SOL    HW118752   3.202   2.708   9.984
 6000SOL    HW218753   3.182   2.858   9.922
 6001SOL     OW18754   2.692   3.135  10.732
 6001SOL    HW118755   2.687   3.168  10.827
 6001SOL    HW218756   2.606   3.154  10.686
 6002SOL     OW18757   2.534   3.478   9.464
 6002SOL    HW118758   2.543   3.488   9.365
 6002SOL    HW218759   2.494   3.389   9.485
 6003SOL     OW18760   3.512   3.582  10.704
 6003SOL    HW118761   3.565   3.592  10.620
 6003SOL    HW218762   3.485   3.672  10.738
 6004SOL     OW18763   3.703   2.037  10.273
 6004SOL    HW118764   3.742   1.952  10.237
 6004SOL    HW218765   3.605   2.039  10.254
 6005SOL     OW18766   3.056   3.474   9.341
 6005SOL    HW118767   3.062   3.381   9.378
 6005SOL    HW218768   2.997   3.474   9.261
 6006SOL     OW18769   2.684   2.864  10.682
 6006SOL    HW118770   2.724   2.863  10.590
 6006SOL    HW218771   2.694   2.956  10.722
 6007SOL     OW18772   2.778   2.772   9.601
 6007SOL    HW118773   2.841   2.810   9.533
 6007SOL    HW218774   2.818   2.689   9.640
 6008SOL     OW18775   3.366   3.469   9.354
 6008SOL    HW118776   3.274   3.506   9.361
 6008SOL    HW218777   3.404   3.489   9.264
 6009SOL     OW18778   2.234   3.150  10.800
 6009SOL    HW118779   2.221   3.243  10.766
 6009SOL    HW218780   2.150   3.098  10.787
 6010SOL     OW18781   3.476   3.154  10.599
 6010SOL    HW118782   3.536   3.157  10.679
 6010SOL    HW218783   3.401   3.218  10.612
 6011SOL     OW18784   2.901   2.960  10.006
 6011SOL    HW118785   2.831   2.913  10.060
 6011SOL    HW218786   2.960   2.892   9.963
 6012SOL     OW18787   2.876   2.098  10.281
 6012SOL    HW118788   2.868   2.062  10.188
 6012SOL    HW218789   2.874   2.022  10.346
 6013SOL     OW18790   2.452   3.349   9.801
 6013SOL    HW118791   2.494   3.291   9.731
 6013SOL    HW218792   2.408   3.428   9.757
 6014SOL     OW18793   3.571   2.247  10.691
 6014SOL    HW118794   3.644   2.316  10.695
 6014SOL    HW218795   3.599   2.172  10.632
 6015SOL     OW18796   2.117   3.210   9.600
 6015SOL    HW118797   2.021   3.211   9.573
 6015SOL    HW218798   2.129   3.263   9.684
 6016SOL     OW18799   1.967   2.875  11.036
 6016SOL    HW118800   1.890   2.842  11.090
 6016SOL    HW218801   2.052   2.845  11.078
 6017SOL     OW18802   2.534   2.065  10.799
 6017SOL    HW118803   2.624   2.049  10.759
 6017SOL    HW218804   2.542   2.070  10.898
 6018SOL     OW18805   1.937   2.207   9.343
 6018SOL    HW118806   1.845   2.179   9.314
 6018SOL    HW218807   1.968   2.284   9.287
 6019SOL     OW18808   3.302   2.718  10.708
 6019SOL    HW118809   3.245   2.770  10.645
 6019SOL    HW218810   3.398   2.730  10.684
 6020SOL     OW18811   3.045   3.197   9.429
 6020SOL    HW118812   2.946   3.186   9.431
 6020SOL    HW218813   3.079   3.212   9.522
 6021SOL     OW18814   2.475   2.704  10.741
 6021SOL    HW118815   2.531   2.785  10.724
 6021SOL    HW218816   2.534   2.624  10.744
 6022SOL     OW18817   3.355   3.629  10.269
 6022SOL    HW118818   3.388   3.693  10.200
 6022SOL    HW218819   3.421   3.623  10.344
 6023SOL     OW18820   2.578   2.427  11.018
 6023SOL    HW118821   2.597   2.492  11.092
 6023SOL    HW218822   2.638   2.347  11.027
 6024SOL     OW18823   3.312   3.082  10.943
 6024SOL    HW118824   3.303   3.072  11.042
 6024SOL    HW218825   3.408   3.075  10.917
 6025SOL     OW18826   2.252   3.603  10.870
 6025SOL    HW118827   2.161   3.644  10.868
 6025SOL    HW218828   2.245   3.509  10.902
 6026SOL     OW18829   3.536   2.745  10.564
 6026SOL    HW118830   3.509   2.656  10.527
 6026SOL    HW218831   3.537   2.813  10.491
 6027SOL     OW18832   3.087   2.187   9.759
 6027SOL    HW118833   3.152   2.113   9.748
 6027SOL    HW218834   3.107   2.237   9.843
 6028SOL     OW18835   2.456   2.607   9.962
 6028SOL    HW118836   2.506   2.692   9.943
 6028SOL    HW218837   2.368   2.609   9.914
 6029SOL     OW18838   3.639   2.204  10.952
 6029SOL    HW118839   3.622   2.235  10.858
 6029SOL    HW218840   3.555   2.167  10.990
 6030SOL     OW18841   3.592   2.796  10.827
 6030SOL    HW118842   3.630   2.887  10.842
 6030SOL    HW218843   3.584   2.779  10.728
 6031SOL     OW18844   2.721   3.236   9.326
 6031SOL    HW118845   2.675   3.251   9.414
 6031SOL    HW218846   2.765   3.321   9.296
 6032SOL     OW18847   2.523   3.652  10.263
 6032SOL    HW118848   2.477   3.740  10.250
 6032SOL    HW218849   2.622   3.664  10.256
 6033SOL     OW18850   2.721   2.818  10.171
 6033SOL    HW118851   2.775   2.749  10.219
 6033SOL    HW218852   2.689   2.887  10.237
 6034SOL     OW18853   2.945   2.846   9.397
 6034SOL    HW118854   2.922   2.899   9.315
 6034SOL    HW218855   3.026   2.790   9.378
 6035SOL     OW18856   3.723   3.431  10.161
 6035SOL    HW118857   3.652   3.419  10.091
 6035SOL    HW218858   3.724   3.352  10.221
 6036SOL     OW18859   2.083   3.176  11.154
 6036SOL    HW118860   2.018   3.103  11.133
 6036SOL    HW218861   2.087   3.190  11.252
 6037SOL     OW18862   1.941   3.102   9.963
 6037SOL    HW118863   1.940   3.055  10.051
 6037SOL    HW218864   2.023   3.074   9.912
 6038SOL     OW18865   2.534   3.253  10.934
 6038SOL    HW118866   2.456   3.203  10.972
 6038SOL    HW218867   2.531   3.348  10.965
 6039SOL     OW18868   3.686   2.054  10.537
 6039SOL    HW118869   3.682   1.964  10.581
 6039SOL    HW218870   3.689   2.043  10.438
 6040SOL     OW18871   3.567   3.349  10.414
 6040SOL    HW118872   3.474   3.324  10.387
 6040SOL    HW218873   3.593   3.299  10.496
 6041SOL     OW18874   2.179   2.409  10.590
 6041SOL    HW118875   2.217   2.350  10.662
 6041SOL    HW218876   2.219   2.383  10.502
 6042SOL     OW18877   2.674   3.448   9.997
 6042SOL    HW118878   2.706   3.458   9.903
 6042SOL    HW218879   2.595   3.386   9.999
 6043SOL     OW18880   3.286   2.076  10.422
 6043SOL    HW118881   3.338   2.011  10.477
 6043SOL    HW218882   3.237   2.139  10.483
 6044SOL     OW18883   2.863   1.896  10.464
 6044SOL    HW118884   2.800   1.824  10.433
 6044SOL    HW218885   2.956   1.860  10.464
 6045SOL     OW18886   2.632   3.192   9.611
 6045SOL    HW118887   2.586   3.105   9.628
 6045SOL    HW218888   2.723   3.189   9.652
 6046SOL     OW18889   2.480   3.429  10.594
 6046SOL    HW118890   2.475   3.511  10.651
 6046SOL    HW218891   2.569   3.426  10.549
 6047SOL     OW18892   3.214   1.914   9.478
 6047SOL    HW118893   3.249   1.873   9.394
 6047SOL    HW218894   3.124   1.876   9.498
 6048SOL     OW18895   3.162   2.315  10.001
 6048SOL    HW118896   3.103   2.395  10.005
 6048SOL    HW218897   3.177   2.280  10.094
 6049SOL     OW18898   3.455   2.083  10.192
 6049SOL    HW118899   3.371   2.082  10.246
 6049SOL    HW218900   3.457   2.166  10.136
 6050SOL     OW18901   1.901   2.939   9.610
 6050SOL    HW118902   2.000   2.928   9.601
 6050SOL    HW218903   1.861   2.853   9.642
 6051SOL     OW18904   2.737   3.508   9.647
 6051SOL    HW118905   2.660   3.473   9.593
 6051SOL    HW218906   2.705   3.579   9.709
 6052SOL     OW18907   2.092   2.490  11.285
 6052SOL    HW118908   1.999   2.488  11.322
 6052SOL    HW218909   2.093   2.451  11.193
 6053SOL     OW18910   1.881   2.230  11.819
 6053SOL    HW118911   1.799   2.273  11.858
 6053SOL    HW218912   1.853   2.157  11.756
 6054SOL     OW18913   2.431   3.137  12.337
 6054SOL    HW118914   2.338   3.130  12.300
 6054SOL    HW218915   2.442   3.226  12.381
 6055SOL     OW18916   3.417   3.373  11.875
 6055SOL    HW118917   3.360   3.357  11.956
 6055SOL    HW218918   3.358   3.383  11.795
 6056SOL     OW18919   2.997   2.565  11.889
 6056SOL    HW118920   3.054   2.643  11.864
 6056SOL    HW218921   2.937   2.591  11.965
 6057SOL     OW18922   3.617   2.469  11.403
 6057SOL    HW118923   3.605   2.456  11.304
 6057SOL    HW218924   3.587   2.388  11.452
 6058SOL     OW18925   2.630   3.006  12.195
 6058SOL    HW118926   2.552   3.023  12.255
 6058SOL    HW218927   2.664   3.093  12.159
 6059SOL     OW18928   2.712   2.660  12.995
 6059SOL    HW118929   2.708   2.736  13.060
 6059SOL    HW218930   2.734   2.696  12.904
 6060SOL     OW18931   2.547   2.874  11.837
 6060SOL    HW118932   2.616   2.858  11.907
 6060SOL    HW218933   2.474   2.931  11.875
 6061SOL     OW18934   2.548   3.023  12.975
 6061SOL    HW118935   2.608   3.102  12.989
 6061SOL    HW218936   2.462   3.054  12.934
 6062SOL     OW18937   2.197   3.297  12.233
 6062SOL    HW118938   2.119   3.266  12.180
 6062SOL    HW218939   2.255   3.355  12.176
 6063SOL     OW18940   3.322   3.367  12.511
 6063SOL    HW118941   3.346   3.461  12.537
 6063SOL    HW218942   3.306   3.313  12.593
 6064SOL     OW18943   3.465   2.309  11.909
 6064SOL    HW118944   3.391   2.355  11.859
 6064SOL    HW218945   3.516   2.377  11.962
 6065SOL     OW18946   2.093   3.575  11.655
 6065SOL    HW118947   2.127   3.652  11.709
 6065SOL    HW218948   2.137   3.575  11.565
 6066SOL     OW18949   2.989   3.203  12.862
 6066SOL    HW118950   3.036   3.203  12.950
 6066SOL    HW218951   2.941   3.116  12.851
 6067SOL     OW18952   2.092   3.296  11.710
 6067SOL    HW118953   2.066   3.392  11.710
 6067SOL    HW218954   2.021   3.242  11.755
 6068SOL     OW18955   2.102   2.953  12.058
 6068SOL    HW118956   2.116   2.869  12.110
 6068SOL    HW218957   2.047   3.017  12.113
 6069SOL     OW18958   2.482   3.648  12.611
 6069SOL    HW118959   2.390   3.631  12.646
 6069SOL    HW218960   2.510   3.740  12.637
 6070SOL     OW18961   2.468   2.826  11.295
 6070SOL    HW118962   2.475   2.910  11.241
 6070SOL    HW218963   2.514   2.839  11.383
 6071SOL     OW18964   3.456   1.976  12.652
 6071SOL    HW118965   3.438   2.043  12.580
 6071SOL    HW218966   3.453   2.022  12.741
 6072SOL     OW18967   1.984   2.505  11.735
 6072SOL    HW118968   1.939   2.417  11.752
 6072SOL    HW218969   1.983   2.559  11.819
 6073SOL     OW18970   3.704   3.629  11.531
 6073SOL    HW118971   3.758   3.600  11.611
 6073SOL    HW218972   3.734   3.719  11.502
 6074SOL     OW18973   1.889   3.458  11.289
 6074SOL    HW118974   1.870   3.362  11.310
 6074SOL    HW218975   1.856   3.516  11.364
 6075SOL     OW18976   3.551   2.784  11.784
 6075SOL    HW118977   3.646   2.755  11.792
 6075SOL    HW218978   3.543   2.849  11.709
 6076SOL     OW18979   3.503   2.970  11.604
 6076SOL    HW118980   3.589   2.972  11.552
 6076SOL    HW218981   3.517   3.017  11.692
 6077SOL     OW18982   1.975   2.599  12.769
 6077SOL    HW118983   2.063   2.586  12.814
 6077SOL    HW218984   1.962   2.696  12.747
 6078SOL     OW18985   2.475   3.227  11.898
 6078SOL    HW118986   2.426   3.140  11.907
 6078SOL    HW218987   2.452   3.270  11.811
 6079SOL     OW18988   3.155   3.090  12.595
 6079SOL    HW118989   3.192   3.017  12.537
 6079SOL    HW218990   3.207   3.095  12.680
 6080SOL     OW18991   2.671   1.866  11.674
 6080SOL    HW118992   2.711   1.957  11.665
 6080SOL    HW218993   2.571   1.874  11.680
 6081SOL     OW18994   2.059   2.838  12.436
 6081SOL    HW118995   2.148   2.793  12.422
 6081SOL    HW218996   1.986   2.773  12.417
 6082SOL     OW18997   3.387   2.861  11.362
 6082SOL    HW118998   3.324   2.785  11.375
 6082SOL    HW218999   3.435   2.879  11.448
 6083SOL     OW19000   3.049   3.654  12.788
 6083SOL    HW119001   3.073   3.714  12.712
 6083SOL    HW219002   3.056   3.559  12.758
 6084SOL     OW19003   3.328   3.279  12.125
 6084SOL    HW119004   3.269   3.285  12.205
 6084SOL    HW219005   3.313   3.191  12.079
 6085SOL     OW19006   3.529   3.576  11.744
 6085SOL    HW119007   3.488   3.553  11.656
 6085SOL    HW219008   3.511   3.502  11.809
 6086SOL     OW19009   2.460   2.591  11.442
 6086SOL    HW119010   2.484   2.660  11.374
 6086SOL    HW219011   2.382   2.624  11.496
 6087SOL     OW19012   3.143   2.207  12.116
 6087SOL    HW119013   3.057   2.157  12.103
 6087SOL    HW219014   3.205   2.153  12.172
 6088SOL     OW19015   3.438   3.524  11.479
 6088SOL    HW119016   3.527   3.570  11.482
 6088SOL    HW219017   3.417   3.500  11.384
 6089SOL     OW19018   2.669   2.467  12.637
 6089SOL    HW119019   2.622   2.464  12.726
 6089SOL    HW219020   2.618   2.412  12.571
 6090SOL     OW19021   3.256   2.331  12.846
 6090SOL    HW119022   3.236   2.374  12.934
 6090SOL    HW219023   3.334   2.269  12.855
 6091SOL     OW19024   2.835   2.752  12.744
 6091SOL    HW119025   2.881   2.668  12.715
 6091SOL    HW219026   2.779   2.786  12.669
 6092SOL     OW19027   2.853   2.272  12.414
 6092SOL    HW119028   2.776   2.306  12.468
 6092SOL    HW219029   2.819   2.221  12.335
 6093SOL     OW19030   2.903   2.563  11.601
 6093SOL    HW119031   2.929   2.559  11.697
 6093SOL    HW219032   2.818   2.512  11.587
 6094SOL     OW19033   1.938   2.673  11.961
 6094SOL    HW119034   2.037   2.661  11.970
 6094SOL    HW219035   1.914   2.768  11.982
 6095SOL     OW19036   1.992   3.683  12.743
 6095SOL    HW119037   1.982   3.668  12.842
 6095SOL    HW219038   1.906   3.719  12.707
 6096SOL     OW19039   2.727   2.210  11.367
 6096SOL    HW119040   2.786   2.273  11.318
 6096SOL    HW219041   2.746   2.116  11.338
 6097SOL     OW19042   3.581   2.447  13.003
 6097SOL    HW119043   3.555   2.536  12.967
 6097SOL    HW219044   3.579   2.379  12.930
 6098SOL     OW19045   3.224   3.006  11.717
 6098SOL    HW119046   3.307   2.977  11.669
 6098SOL    HW219047   3.175   3.073  11.661
 6099SOL     OW19048   2.412   2.058  12.057
 6099SOL    HW119049   2.407   2.053  12.157
 6099SOL    HW219050   2.414   2.154  12.028
 6100SOL     OW19051   2.870   3.318  11.649
 6100SOL    HW119052   2.824   3.390  11.597
 6100SOL    HW219053   2.866   3.338  11.747
 6101SOL     OW19054   2.213   3.663  12.025
 6101SOL    HW119055   2.263   3.577  12.031
 6101SOL    HW219056   2.278   3.740  12.022
 6102SOL     OW19057   3.657   2.928  12.045
 6102SOL    HW119058   3.595   2.913  11.969
 6102SOL    HW219059   3.605   2.939  12.130
 6103SOL     OW19060   3.089   3.412  12.678
 6103SOL    HW119061   3.095   3.335  12.742
 6103SOL    HW219062   3.037   3.386  12.598
 6104SOL     OW19063   2.183   2.805  11.414
 6104SOL    HW119064   2.265   2.844  11.372
 6104SOL    HW219065   2.156   2.723  11.365
 6105SOL     OW19066   3.320   2.597  11.900
 6105SOL    HW119067   3.315   2.532  11.975
 6105SOL    HW219068   3.400   2.656  11.913
 6106SOL     OW19069   2.323   3.128  12.899
 6106SOL    HW119070   2.273   3.129  12.813
 6106SOL    HW219071   2.260   3.110  12.975
 6107SOL     OW19072   2.973   3.638  11.409
 6107SOL    HW119073   2.913   3.576  11.459
 6107SOL    HW219074   3.004   3.594  11.324
 6108SOL     OW19075   3.494   3.239  11.253
 6108SOL    HW119076   3.462   3.333  11.243
 6108SOL    HW219077   3.418   3.176  11.241
 6109SOL     OW19078   2.326   3.605  11.495
 6109SOL    HW119079   2.359   3.644  11.581
 6109SOL    HW219080   2.402   3.598  11.430
 6110SOL     OW19081   3.262   1.969  11.598
 6110SOL    HW119082   3.238   1.932  11.508
 6110SOL    HW219083   3.361   1.985  11.602
 6111SOL     OW19084   2.111   3.647  12.413
 6111SOL    HW119085   2.168   3.582  12.463
 6111SOL    HW219086   2.095   3.614  12.320
 6112SOL     OW19087   2.802   3.560  12.076
 6112SOL    HW119088   2.882   3.503  12.097
 6112SOL    HW219089   2.753   3.520  11.999
 6113SOL     OW19090   2.244   2.562  11.652
 6113SOL    HW119091   2.289   2.472  11.649
 6113SOL    HW219092   2.150   2.551  11.685
 6114SOL     OW19093   3.409   2.084  12.901
 6114SOL    HW119094   3.404   2.121  12.993
 6114SOL    HW219095   3.337   2.015  12.889
 6115SOL     OW19096   2.476   1.984  11.289
 6115SOL    HW119097   2.574   1.962  11.296
 6115SOL    HW219098   2.445   1.967  11.196
 6116SOL     OW19099   2.643   2.126  12.921
 6116SOL    HW119100   2.710   2.065  12.964
 6116SOL    HW219101   2.570   2.145  12.986
 6117SOL     OW19102   2.750   3.376  12.367
 6117SOL    HW119103   2.727   3.351  12.273
 6117SOL    HW219104   2.811   3.307  12.406
 6118SOL     OW19105   3.213   2.452  12.605
 6118SOL    HW119106   3.241   2.409  12.690
 6118SOL    HW219107   3.238   2.548  12.606
 6119SOL     OW19108   2.665   3.264  12.096
 6119SOL    HW119109   2.755   3.278  12.054
 6119SOL    HW219110   2.594   3.266  12.025
 6120SOL     OW19111   2.784   2.365  12.071
 6120SOL    HW119112   2.759   2.356  11.975
 6120SOL    HW219113   2.832   2.283  12.102
 6121SOL     OW19114   2.401   1.926  11.684
 6121SOL    HW119115   2.320   1.927  11.742
 6121SOL    HW219116   2.404   2.009  11.629
 6122SOL     OW19117   3.296   3.050  11.213
 6122SOL    HW119118   3.328   2.974  11.270
 6122SOL    HW219119   3.204   3.077  11.243
 6123SOL     OW19120   2.797   2.098  11.652
 6123SOL    HW119121   2.749   2.139  11.574
 6123SOL    HW219122   2.896   2.096  11.633
 6124SOL     OW19123   2.938   2.545  12.636
 6124SOL    HW119124   2.858   2.484  12.639
 6124SOL    HW219125   3.019   2.492  12.612
 6125SOL     OW19126   3.089   3.432  11.965
 6125SOL    HW119127   3.110   3.506  11.900
 6125SOL    HW219128   3.157   3.432  12.038
 6126SOL     OW19129   2.321   3.014  11.913
 6126SOL    HW119130   2.250   2.987  11.978
 6126SOL    HW219131   2.295   2.986  11.820
 6127SOL     OW19132   3.133   3.659  11.763
 6127SOL    HW119133   3.177   3.723  11.699
 6127SOL    HW219134   3.083   3.711  11.833
 6128SOL     OW19135   2.894   2.411  11.188
 6128SOL    HW119136   2.853   2.493  11.149
 6128SOL    HW219137   2.958   2.437  11.261
 6129SOL     OW19138   1.940   2.418  12.558
 6129SOL    HW119139   2.032   2.417  12.517
 6129SOL    HW219140   1.934   2.492  12.625
 6130SOL     OW19141   2.728   2.316  11.814
 6130SOL    HW119142   2.696   2.388  11.752
 6130SOL    HW219143   2.752   2.235  11.761
 6131SOL     OW19144   2.879   1.901  11.925
 6131SOL    HW119145   2.807   1.906  11.856
 6131SOL    HW219146   2.855   1.832  11.994
 6132SOL     OW19147   3.291   3.035  12.039
 6132SOL    HW119148   3.236   2.951  12.032
 6132SOL    HW219149   3.317   3.064  11.947
 6133SOL     OW19150   3.328   2.452  12.164
 6133SOL    HW119151   3.298   2.357  12.171
 6133SOL    HW219152   3.401   2.468  12.230
 6134SOL     OW19153   3.719   2.695  11.549
 6134SOL    HW119154   3.761   2.631  11.613
 6134SOL    HW219155   3.681   2.644  11.471
 6135SOL     OW19156   2.350   3.247  11.346
 6135SOL    HW119157   2.263   3.232  11.393
 6135SOL    HW219158   2.333   3.273  11.251
 6136SOL     OW19159   3.526   3.142  11.829
 6136SOL    HW119160   3.625   3.150  11.843
 6136SOL    HW219161   3.481   3.226  11.860
 6137SOL     OW19162   3.252   2.437  11.250
 6137SOL    HW119163   3.198   2.416  11.331
 6137SOL    HW219164   3.343   2.396  11.259
 6138SOL     OW19165   3.616   3.085  12.760
 6138SOL    HW119166   3.707   3.046  12.747
 6138SOL    HW219167   3.624   3.181  12.784
 6139SOL     OW19168   2.926   3.209  12.512
 6139SOL    HW119169   2.846   3.186  12.567
 6139SOL    HW219170   3.009   3.183  12.561
 6140SOL     OW19171   3.454   3.491  12.797
 6140SOL    HW119172   3.481   3.525  12.707
 6140SOL    HW219173   3.533   3.453  12.843
 6141SOL     OW19174   2.973   3.057  12.272
 6141SOL    HW119175   2.933   3.101  12.353
 6141SOL    HW219176   2.932   3.094  12.189
 6142SOL     OW19177   3.500   2.961  12.251
 6142SOL    HW119178   3.505   3.042  12.310
 6142SOL    HW219179   3.414   2.963  12.200
 6143SOL     OW19180   2.777   1.951  12.574
 6143SOL    HW119181   2.802   1.931  12.479
 6143SOL    HW219182   2.849   2.007  12.616
 6144SOL     OW19183   2.842   2.978  12.891
 6144SOL    HW119184   2.743   2.984  12.901
 6144SOL    HW219185   2.865   2.898  12.835
 6145SOL     OW19186   2.567   2.912  11.540
 6145SOL    HW119187   2.553   2.919  11.639
 6145SOL    HW219188   2.651   2.861  11.522
 6146SOL     OW19189   2.272   2.675  12.423
 6146SOL    HW119190   2.358   2.687  12.473
 6146SOL    HW219191   2.230   2.588  12.450
 6147SOL     OW19192   3.136   2.248  12.434
 6147SOL    HW119193   3.157   2.322  12.498
 6147SOL    HW219194   3.047   2.265  12.391
 6148SOL     OW19195   1.926   3.426  12.503
 6148SOL    HW119196   1.880   3.508  12.469
 6148SOL    HW219197   2.024   3.445  12.512
 6149SOL     OW19198   2.229   2.962  11.673
 6149SOL    HW119199   2.222   3.045  11.617
 6149SOL    HW219200   2.233   2.882  11.613
 6150SOL     OW19201   2.428   2.399  12.037
 6150SOL    HW119202   2.440   2.465  11.963
 6150SOL    HW219203   2.474   2.433  12.120
 6151SOL     OW19204   3.114   3.210  11.560
 6151SOL    HW119205   3.164   3.287  11.600
 6151SOL    HW219206   3.019   3.212  11.592
 6152SOL     OW19207   3.134   3.307  12.314
 6152SOL    HW119208   3.181   3.320  12.401
 6152SOL    HW219209   3.068   3.233  12.323
 6153SOL     OW19210   3.444   2.501  11.644
 6153SOL    HW119211   3.413   2.562  11.717
 6153SOL    HW219212   3.494   2.553  11.575
 6154SOL     OW19213   2.216   3.372  12.501
 6154SOL    HW119214   2.195   3.328  12.414
 6154SOL    HW219215   2.313   3.398  12.504
 6155SOL     OW19216   2.264   2.613  12.770
 6155SOL    HW119217   2.332   2.668  12.723
 6155SOL    HW219218   2.304   2.525  12.797
 6156SOL     OW19219   3.449   2.641  12.842
 6156SOL    HW119220   3.357   2.679  12.837
 6156SOL    HW219221   3.509   2.688  12.777
 6157SOL     OW19222   2.875   1.967  12.942
 6157SOL    HW119223   2.881   2.052  12.890
 6157SOL    HW219224   2.907   1.891  12.885
 6158SOL     OW19225   2.366   1.912  12.912
 6158SOL    HW119226   2.324   1.855  12.842
 6158SOL    HW219227   2.300   1.981  12.944
 6159SOL     OW19228   2.435   2.732  12.201
 6159SOL    HW119229   2.479   2.821  12.192
 6159SOL    HW219230   2.372   2.732  12.278
 6160SOL     OW19231   3.222   2.724  12.217
 6160SOL    HW119232   3.147   2.724  12.151
 6160SOL    HW219233   3.259   2.632  12.226
 6161SOL     OW19234   3.071   2.387  11.447
 6161SOL    HW119235   3.084   2.303  11.501
 6161SOL    HW219236   3.042   2.461  11.507
 6162SOL     OW19237   1.899   3.172  12.454
 6162SOL    HW119238   1.952   3.123  12.522
 6162SOL    HW219239   1.921   3.270  12.459
 6163SOL     OW19240   2.594   2.496  12.236
 6163SOL    HW119241   2.653   2.470  12.160
 6163SOL    HW219242   2.566   2.592  12.225
 6164SOL     OW19243   3.590   2.797  13.026
 6164SOL    HW119244   3.544   2.790  12.937
 6164SOL    HW219245   3.528   2.841  13.092
 6165SOL     OW19246   3.484   2.229  11.546
 6165SOL    HW119247   3.486   2.153  11.610
 6165SOL    HW219248   3.436   2.306  11.586
 6166SOL     OW19249   2.885   2.628  12.138
 6166SOL    HW119250   2.900   2.649  12.234
 6166SOL    HW219251   2.855   2.533  12.129
 6167SOL     OW19252   2.842   3.435  12.872
 6167SOL    HW119253   2.822   3.479  12.784
 6167SOL    HW219254   2.881   3.344  12.856
 6168SOL     OW19255   3.721   3.380  12.777
 6168SOL    HW119256   3.735   3.407  12.682
 6168SOL    HW219257   3.804   3.402  12.830
 6169SOL     OW19258   2.212   2.760  12.976
 6169SOL    HW119259   2.288   2.804  13.024
 6169SOL    HW219260   2.247   2.713  12.894
 6170SOL     OW19261   3.402   2.136  11.297
 6170SOL    HW119262   3.341   2.061  11.320
 6170SOL    HW219263   3.424   2.188  11.380
 6171SOL     OW19264   3.165   2.700  11.214
 6171SOL    HW119265   3.199   2.607  11.229
 6171SOL    HW219266   3.183   2.727  11.119
 6172SOL     OW19267   2.930   3.195  12.021
 6172SOL    HW119268   2.937   3.111  11.966
 6172SOL    HW219269   2.992   3.264  11.985
 6173SOL     OW19270   2.181   2.672  12.121
 6173SOL    HW119271   2.274   2.708  12.126
 6173SOL    HW219272   2.175   2.587  12.173
 6174SOL     OW19273   3.000   2.242  12.850
 6174SOL    HW119274   2.955   2.305  12.914
 6174SOL    HW219275   3.093   2.273  12.833
 6175SOL     OW19276   3.022   2.069  12.649
 6175SOL    HW119277   3.022   2.133  12.726
 6175SOL    HW219278   3.050   2.117  12.566
 6176SOL     OW19279   1.870   3.188  11.372
 6176SOL    HW119280   1.777   3.209  11.341
 6176SOL    HW219281   1.880   3.089  11.385
 6177SOL     OW19282   1.950   3.663  12.099
 6177SOL    HW119283   1.908   3.577  12.072
 6177SOL    HW219284   2.044   3.666  12.065
 6178SOL     OW19285   2.366   3.430  12.082
 6178SOL    HW119286   2.432   3.504  12.091
 6178SOL    HW219287   2.410   3.351  12.040
 6179SOL     OW19288   2.864   2.658  12.410
 6179SOL    HW119289   2.905   2.626  12.496
 6179SOL    HW219290   2.768   2.631  12.407
 6180SOL     OW19291   1.902   2.406  12.286
 6180SOL    HW119292   1.987   2.373  12.245
 6180SOL    HW219293   1.915   2.421  12.384
 6181SOL     OW19294   3.231   2.812  12.832
 6181SOL    HW119295   3.270   2.901  12.852
 6181SOL    HW219296   3.241   2.792  12.735
 6182SOL     OW19297   2.677   2.434  11.497
 6182SOL    HW119298   2.684   2.345  11.451
 6182SOL    HW219299   2.583   2.468  11.489
 6183SOL     OW19300   3.519   2.466  12.378
 6183SOL    HW119301   3.481   2.397  12.440
 6183SOL    HW219302   3.601   2.430  12.334
 6184SOL     OW19303   2.114   3.426  12.916
 6184SOL    HW119304   2.084   3.483  12.992
 6184SOL    HW219305   2.107   3.329  12.942
 6185SOL     OW19306   2.533   2.326  12.441
 6185SOL    HW119307   2.499   2.237  12.411
 6185SOL    HW219308   2.559   2.380  12.361
 6186SOL     OW19309   2.792   3.540  12.637
 6186SOL    HW119310   2.768   3.522  12.542
 6186SOL    HW219311   2.822   3.634  12.647
 6187SOL     OW19312   2.335   2.362  11.363
 6187SOL    HW119313   2.396   2.442  11.367
 6187SOL    HW219314   2.240   2.393  11.370
 6188SOL     OW19315   2.021   2.999  12.638
 6188SOL    HW119316   2.043   2.938  12.714
 6188SOL    HW219317   2.031   2.950  12.552
 6189SOL     OW19318   3.209   2.921  12.406
 6189SOL    HW119319   3.233   2.858  12.332
 6189SOL    HW219320   3.119   2.961  12.388
 6190SOL     OW19321   3.164   2.717  11.481
 6190SOL    HW119322   3.078   2.686  11.523
 6190SOL    HW219323   3.160   2.703  11.382
 6191SOL     OW19324   3.621   3.609  12.326
 6191SOL    HW119325   3.682   3.639  12.253
 6191SOL    HW219326   3.583   3.520  12.304
 6192SOL     OW19327   3.114   3.593  12.300
 6192SOL    HW119328   3.198   3.598  12.246
 6192SOL    HW219329   3.091   3.497  12.318
 6193SOL     OW19330   1.945   3.120  12.194
 6193SOL    HW119331   1.940   3.119  12.294
 6193SOL    HW219332   1.862   3.079  12.156
 6194SOL     OW19333   2.550   3.524  12.888
 6194SOL    HW119334   2.494   3.605  12.897
 6194SOL    HW219335   2.602   3.528  12.802
 6195SOL     OW19336   3.588   1.997  11.695
 6195SOL    HW119337   3.661   1.980  11.628
 6195SOL    HW219338   3.557   1.910  11.733
 6196SOL     OW19339   3.250   3.435  11.649
 6196SOL    HW119340   3.317   3.447  11.575
 6196SOL    HW219341   3.210   3.524  11.672
 6197SOL     OW19342   1.992   3.656  13.023
 6197SOL    HW119343   1.951   3.582  13.076
 6197SOL    HW219344   2.056   3.707  13.081
 6198SOL     OW19345   3.142   2.789  11.844
 6198SOL    HW119346   3.202   2.708  11.846
 6198SOL    HW219347   3.182   2.858  11.784
 6199SOL     OW19348   2.692   3.135  12.594
 6199SOL    HW119349   2.687   3.168  12.689
 6199SOL    HW219350   2.606   3.154  12.548
 6200SOL     OW19351   2.534   3.478  11.326
 6200SOL    HW119352   2.543   3.488  11.227
 6200SOL    HW219353   2.494   3.389  11.347
 6201SOL     OW19354   3.512   3.582  12.566
 6201SOL    HW119355   3.565   3.592  12.482
 6201SOL    HW219356   3.485   3.672  12.600
 6202SOL     OW19357   3.703   2.037  12.135
 6202SOL    HW119358   3.742   1.952  12.099
 6202SOL    HW219359   3.605   2.039  12.116
 6203SOL     OW19360   3.056   3.474  11.203
 6203SOL    HW119361   3.062   3.381  11.240
 6203SOL    HW219362   2.997   3.474  11.123
 6204SOL     OW19363   2.684   2.864  12.544
 6204SOL    HW119364   2.724   2.863  12.452
 6204SOL    HW219365   2.694   2.956  12.584
 6205SOL     OW19366   2.778   2.772  11.463
 6205SOL    HW119367   2.841   2.810  11.395
 6205SOL    HW219368   2.818   2.689  11.502
 6206SOL     OW19369   3.366   3.469  11.216
 6206SOL    HW119370   3.274   3.506  11.223
 6206SOL    HW219371   3.404   3.489  11.126
 6207SOL     OW19372   2.234   3.150  12.662
 6207SOL    HW119373   2.221   3.243  12.628
 6207SOL    HW219374   2.150   3.098  12.649
 6208SOL     OW19375   3.476   3.154  12.461
 6208SOL    HW119376   3.536   3.157  12.541
 6208SOL    HW219377   3.401   3.218  12.474
 6209SOL     OW19378   2.901   2.960  11.868
 6209SOL    HW119379   2.831   2.913  11.922
 6209SOL    HW219380   2.960   2.892  11.825
 6210SOL     OW19381   2.876   2.098  12.143
 6210SOL    HW119382   2.868   2.062  12.050
 6210SOL    HW219383   2.874   2.022  12.208
 6211SOL     OW19384   2.452   3.349  11.663
 6211SOL    HW119385   2.494   3.291  11.593
 6211SOL    HW219386   2.408   3.428  11.619
 6212SOL     OW19387   3.571   2.247  12.553
 6212SOL    HW119388   3.644   2.316  12.557
 6212SOL    HW219389   3.599   2.172  12.494
 6213SOL     OW19390   2.117   3.210  11.462
 6213SOL    HW119391   2.021   3.211  11.435
 6213SOL    HW219392   2.129   3.263  11.546
 6214SOL     OW19393   1.967   2.875  12.898
 6214SOL    HW119394   1.890   2.842  12.952
 6214SOL    HW219395   2.052   2.845  12.940
 6215SOL     OW19396   2.534   2.065  12.661
 6215SOL    HW119397   2.624   2.049  12.621
 6215SOL    HW219398   2.542   2.070  12.760
 6216SOL     OW19399   3.302   2.718  12.570
 6216SOL    HW119400   3.245   2.770  12.507
 6216SOL    HW219401   3.398   2.730  12.546
 6217SOL     OW19402   3.045   3.197  11.291
 6217SOL    HW119403   2.946   3.186  11.293
 6217SOL    HW219404   3.079   3.212  11.384
 6218SOL     OW19405   2.475   2.704  12.603
 6218SOL    HW119406   2.531   2.785  12.586
 6218SOL    HW219407   2.534   2.624  12.606
 6219SOL     OW19408   3.355   3.629  12.131
 6219SOL    HW119409   3.388   3.693  12.062
 6219SOL    HW219410   3.421   3.623  12.206
 6220SOL     OW19411   2.578   2.427  12.880
 6220SOL    HW119412   2.597   2.492  12.954
 6220SOL    HW219413   2.638   2.347  12.889
 6221SOL     OW19414   3.312   3.082  12.805
 6221SOL    HW119415   3.303   3.072  12.904
 6221SOL    HW219416   3.408   3.075  12.779
 6222SOL     OW19417   2.252   3.603  12.732
 6222SOL    HW119418   2.161   3.644  12.730
 6222SOL    HW219419   2.245   3.509  12.764
 6223SOL     OW19420   3.536   2.745  12.426
 6223SOL    HW119421   3.509   2.656  12.389
 6223SOL    HW219422   3.537   2.813  12.353
 6224SOL     OW19423   3.087   2.187  11.621
 6224SOL    HW119424   3.152   2.113  11.610
 6224SOL    HW219425   3.107   2.237  11.705
 6225SOL     OW19426   2.456   2.607  11.824
 6225SOL    HW119427   2.506   2.692  11.805
 6225SOL    HW219428   2.368   2.609  11.776
 6226SOL     OW19429   3.639   2.204  12.814
 6226SOL    HW119430   3.622   2.235  12.720
 6226SOL    HW219431   3.555   2.167  12.852
 6227SOL     OW19432   3.592   2.796  12.689
 6227SOL    HW119433   3.630   2.887  12.704
 6227SOL    HW219434   3.584   2.779  12.590
 6228SOL     OW19435   2.721   3.236  11.188
 6228SOL    HW119436   2.675   3.251  11.276
 6228SOL    HW219437   2.765   3.321  11.158
 6229SOL     OW19438   2.523   3.652  12.125
 6229SOL    HW119439   2.477   3.740  12.112
 6229SOL    HW219440   2.622   3.664  12.118
 6230SOL     OW19441   2.721   2.818  12.033
 6230SOL    HW119442   2.775   2.749  12.081
 6230SOL    HW219443   2.689   2.887  12.099
 6231SOL     OW19444   2.945   2.846  11.259
 6231SOL    HW119445   2.922   2.899  11.177
 6231SOL    HW219446   3.026   2.790  11.240
 6232SOL     OW19447   3.723   3.431  12.023
 6232SOL    HW119448   3.652   3.419  11.953
 6232SOL    HW219449   3.724   3.352  12.083
 6233SOL     OW19450   2.083   3.176  13.016
 6233SOL    HW119451   2.018   3.103  12.995
 6233SOL    HW219452   2.087   3.190  13.114
 6234SOL     OW19453   1.941   3.102  11.825
 6234SOL    HW119454   1.940   3.055  11.913
 6234SOL    HW219455   2.023   3.074  11.774
 6235SOL     OW19456   2.534   3.253  12.796
 6235SOL    HW119457   2.456   3.203  12.834
 6235SOL    HW219458   2.531   3.348  12.827
 6236SOL     OW19459   3.686   2.054  12.399
 6236SOL    HW119460   3.682   1.964  12.443
 6236SOL    HW219461   3.689   2.043  12.300
 6237SOL     OW19462   3.567   3.349  12.276
 6237SOL    HW119463   3.474   3.324  12.249
 6237SOL    HW219464   3.593   3.299  12.358
 6238SOL     OW19465   2.179   2.409  12.452
 6238SOL    HW119466   2.217   2.350  12.524
 6238SOL    HW219467   2.219   2.383  12.364
 6239SOL     OW19468   2.674   3.448  11.859
 6239SOL    HW119469   2.706   3.458  11.765
 6239SOL    HW219470   2.595   3.386  11.861
 6240SOL     OW19471   3.286   2.076  12.284
 6240SOL    HW119472   3.338   2.011  12.339
 6240SOL    HW219473   3.237   2.139  12.345
 6241SOL     OW19474   2.863   1.896  12.326
 6241SOL    HW119475   2.800   1.824  12.295
 6241SOL    HW219476   2.956   1.860  12.326
 6242SOL     OW19477   2.632   3.192  11.473
 6242SOL    HW119478   2.586   3.105  11.490
 6242SOL    HW219479   2.723   3.189  11.514
 6243SOL     OW19480   2.480   3.429  12.456
 6243SOL    HW119481   2.475   3.511  12.513
 6243SOL    HW219482   2.569   3.426  12.411
 6244SOL     OW19483   3.214   1.914  11.340
 6244SOL    HW119484   3.249   1.873  11.256
 6244SOL    HW219485   3.124   1.876  11.360
 6245SOL     OW19486   3.162   2.315  11.863
 6245SOL    HW119487   3.103   2.395  11.867
 6245SOL    HW219488   3.177   2.280  11.956
 6246SOL     OW19489   3.455   2.083  12.054
 6246SOL    HW119490   3.371   2.082  12.108
 6246SOL    HW219491   3.457   2.166  11.998
 6247SOL     OW19492   1.901   2.939  11.472
 6247SOL    HW119493   2.000   2.928  11.463
 6247SOL    HW219494   1.861   2.853  11.504
 6248SOL     OW19495   2.737   3.508  11.509
 6248SOL    HW119496   2.660   3.473  11.455
 6248SOL    HW219497   2.705   3.579  11.571
 6249SOL     OW19498   2.092   2.490  13.147
 6249SOL    HW119499   1.999   2.488  13.184
 6249SOL    HW219500   2.093   2.451  13.055
 6250SOL     OW19501   1.881   2.230  13.681
 6250SOL    HW119502   1.799   2.273  13.720
 6250SOL    HW219503   1.853   2.157  13.618
 6251SOL     OW19504   3.417   3.373  13.737
 6251SOL    HW119505   3.360   3.357  13.818
 6251SOL    HW219506   3.358   3.383  13.657
 6252SOL     OW19507   2.997   2.565  13.751
 6252SOL    HW119508   3.054   2.643  13.726
 6252SOL    HW219509   2.937   2.591  13.827
 6253SOL     OW19510   3.617   2.469  13.265
 6253SOL    HW119511   3.605   2.456  13.166
 6253SOL    HW219512   3.587   2.388  13.314
 6254SOL     OW19513   2.547   2.874  13.699
 6254SOL    HW119514   2.616   2.858  13.769
 6254SOL    HW219515   2.474   2.931  13.737
 6255SOL     OW19516   3.465   2.309  13.771
 6255SOL    HW119517   3.391   2.355  13.721
 6255SOL    HW219518   3.516   2.377  13.824
 6256SOL     OW19519   2.093   3.575  13.517
 6256SOL    HW119520   2.127   3.652  13.571
 6256SOL    HW219521   2.137   3.575  13.427
 6257SOL     OW19522   2.092   3.296  13.572
 6257SOL    HW119523   2.066   3.392  13.572
 6257SOL    HW219524   2.021   3.242  13.617
 6258SOL     OW19525   2.102   2.953  13.920
 6258SOL    HW119526   2.116   2.869  13.972
 6258SOL    HW219527   2.047   3.017  13.975
 6259SOL     OW19528   2.468   2.826  13.157
 6259SOL    HW119529   2.475   2.910  13.103
 6259SOL    HW219530   2.514   2.839  13.245
 6260SOL     OW19531   1.984   2.505  13.597
 6260SOL    HW119532   1.939   2.417  13.614
 6260SOL    HW219533   1.983   2.559  13.681
 6261SOL     OW19534   3.704   3.629  13.393
 6261SOL    HW119535   3.758   3.600  13.473
 6261SOL    HW219536   3.734   3.719  13.364
 6262SOL     OW19537   1.889   3.458  13.151
 6262SOL    HW119538   1.870   3.362  13.172
 6262SOL    HW219539   1.856   3.516  13.226
 6263SOL     OW19540   3.551   2.784  13.646
 6263SOL    HW119541   3.646   2.755  13.654
 6263SOL    HW219542   3.543   2.849  13.571
 6264SOL     OW19543   3.503   2.970  13.466
 6264SOL    HW119544   3.589   2.972  13.414
 6264SOL    HW219545   3.517   3.017  13.554
 6265SOL     OW19546   2.475   3.227  13.760
 6265SOL    HW119547   2.426   3.140  13.769
 6265SOL    HW219548   2.452   3.270  13.673
 6266SOL     OW19549   2.671   1.866  13.536
 6266SOL    HW119550   2.711   1.957  13.527
 6266SOL    HW219551   2.571   1.874  13.542
 6267SOL     OW19552   3.387   2.861  13.224
 6267SOL    HW119553   3.324   2.785  13.237
 6267SOL    HW219554   3.435   2.879  13.310
 6268SOL     OW19555   3.529   3.576  13.606
 6268SOL    HW119556   3.488   3.553  13.518
 6268SOL    HW219557   3.511   3.502  13.671
 6269SOL     OW19558   2.460   2.591  13.304
 6269SOL    HW119559   2.484   2.660  13.236
 6269SOL    HW219560   2.382   2.624  13.358
 6270SOL     OW19561   3.143   2.207  13.978
 6270SOL    HW119562   3.057   2.157  13.965
 6270SOL    HW219563   3.205   2.153  14.034
 6271SOL     OW19564   3.438   3.524  13.341
 6271SOL    HW119565   3.527   3.570  13.344
 6271SOL    HW219566   3.417   3.500  13.246
 6272SOL     OW19567   2.903   2.563  13.463
 6272SOL    HW119568   2.929   2.559  13.559
 6272SOL    HW219569   2.818   2.512  13.449
 6273SOL     OW19570   1.938   2.673  13.823
 6273SOL    HW119571   2.037   2.661  13.832
 6273SOL    HW219572   1.914   2.768  13.844
 6274SOL     OW19573   2.727   2.210  13.229
 6274SOL    HW119574   2.786   2.273  13.180
 6274SOL    HW219575   2.746   2.116  13.200
 6275SOL     OW19576   3.224   3.006  13.579
 6275SOL    HW119577   3.307   2.977  13.531
 6275SOL    HW219578   3.175   3.073  13.523
 6276SOL     OW19579   2.870   3.318  13.511
 6276SOL    HW119580   2.824   3.390  13.459
 6276SOL    HW219581   2.866   3.338  13.609
 6277SOL     OW19582   2.213   3.663  13.887
 6277SOL    HW119583   2.263   3.577  13.893
 6277SOL    HW219584   2.278   3.740  13.884
 6278SOL     OW19585   3.657   2.928  13.907
 6278SOL    HW119586   3.595   2.913  13.831
 6278SOL    HW219587   3.605   2.939  13.992
 6279SOL     OW19588   2.183   2.805  13.276
 6279SOL    HW119589   2.265   2.844  13.234
 6279SOL    HW219590   2.156   2.723  13.227
 6280SOL     OW19591   3.320   2.597  13.762
 6280SOL    HW119592   3.315   2.532  13.837
 6280SOL    HW219593   3.400   2.656  13.775
 6281SOL     OW19594   2.973   3.638  13.271
 6281SOL    HW119595   2.913   3.576  13.321
 6281SOL    HW219596   3.004   3.594  13.186
 6282SOL     OW19597   3.494   3.239  13.115
 6282SOL    HW119598   3.462   3.333  13.105
 6282SOL    HW219599   3.418   3.176  13.103
 6283SOL     OW19600   2.326   3.605  13.357
 6283SOL    HW119601   2.359   3.644  13.443
 6283SOL    HW219602   2.402   3.598  13.292
 6284SOL     OW19603   3.262   1.969  13.460
 6284SOL    HW119604   3.238   1.932  13.370
 6284SOL    HW219605   3.361   1.985  13.464
 6285SOL     OW19606   2.802   3.560  13.938
 6285SOL    HW119607   2.882   3.503  13.959
 6285SOL    HW219608   2.753   3.520  13.861
 6286SOL     OW19609   2.244   2.562  13.514
 6286SOL    HW119610   2.289   2.472  13.511
 6286SOL    HW219611   2.150   2.551  13.547
 6287SOL     OW19612   2.476   1.984  13.151
 6287SOL    HW119613   2.574   1.962  13.158
 6287SOL    HW219614   2.445   1.967  13.058
 6288SOL     OW19615   2.401   1.926  13.546
 6288SOL    HW119616   2.320   1.927  13.604
 6288SOL    HW219617   2.404   2.009  13.491
 6289SOL     OW19618   3.296   3.050  13.075
 6289SOL    HW119619   3.328   2.974  13.132
 6289SOL    HW219620   3.204   3.077  13.105
 6290SOL     OW19621   2.797   2.098  13.514
 6290SOL    HW119622   2.749   2.139  13.436
 6290SOL    HW219623   2.896   2.096  13.495
 6291SOL     OW19624   2.321   3.014  13.775
 6291SOL    HW119625   2.250   2.987  13.840
 6291SOL    HW219626   2.295   2.986  13.682
 6292SOL     OW19627   3.133   3.659  13.625
 6292SOL    HW119628   3.177   3.723  13.561
 6292SOL    HW219629   3.083   3.711  13.695
 6293SOL     OW19630   2.894   2.411  13.050
 6293SOL    HW119631   2.853   2.493  13.011
 6293SOL    HW219632   2.958   2.437  13.123
 6294SOL     OW19633   2.728   2.316  13.676
 6294SOL    HW119634   2.696   2.388  13.614
 6294SOL    HW219635   2.752   2.235  13.623
 6295SOL     OW19636   2.879   1.901  13.787
 6295SOL    HW119637   2.807   1.906  13.718
 6295SOL    HW219638   2.855   1.832  13.856
 6296SOL     OW19639   3.719   2.695  13.411
 6296SOL    HW119640   3.761   2.631  13.475
 6296SOL    HW219641   3.681   2.644  13.333
 6297SOL     OW19642   2.350   3.247  13.208
 6297SOL    HW119643   2.263   3.232  13.255
 6297SOL    HW219644   2.333   3.273  13.113
 6298SOL     OW19645   3.526   3.142  13.691
 6298SOL    HW119646   3.625   3.150  13.705
 6298SOL    HW219647   3.481   3.226  13.722
 6299SOL     OW19648   3.252   2.437  13.112
 6299SOL    HW119649   3.198   2.416  13.193
 6299SOL    HW219650   3.343   2.396  13.121
 6300SOL     OW19651   2.567   2.912  13.402
 6300SOL    HW119652   2.553   2.919  13.501
 6300SOL    HW219653   2.651   2.861  13.384
 6301SOL     OW19654   2.229   2.962  13.535
 6301SOL    HW119655   2.222   3.045  13.479
 6301SOL    HW219656   2.233   2.882  13.475
 6302SOL     OW19657   2.428   2.399  13.899
 6302SOL    HW119658   2.440   2.465  13.825
 6302SOL    HW219659   2.474   2.433  13.982
 6303SOL     OW19660   3.114   3.210  13.422
 6303SOL    HW119661   3.164   3.287  13.462
 6303SOL    HW219662   3.019   3.212  13.454
 6304SOL     OW19663   3.444   2.501  13.506
 6304SOL    HW119664   3.413   2.562  13.579
 6304SOL    HW219665   3.494   2.553  13.437
 6305SOL     OW19666   3.071   2.387  13.309
 6305SOL    HW119667   3.084   2.303  13.363
 6305SOL    HW219668   3.042   2.461  13.369
 6306SOL     OW19669   3.484   2.229  13.408
 6306SOL    HW119670   3.486   2.153  13.472
 6306SOL    HW219671   3.436   2.306  13.448
 6307SOL     OW19672   3.402   2.136  13.159
 6307SOL    HW119673   3.341   2.061  13.182
 6307SOL    HW219674   3.424   2.188  13.242
 6308SOL     OW19675   3.165   2.700  13.076
 6308SOL    HW119676   3.199   2.607  13.091
 6308SOL    HW219677   3.183   2.727  12.981
 6309SOL     OW19678   1.870   3.188  13.234
 6309SOL    HW119679   1.777   3.209  13.203
 6309SOL    HW219680   1.880   3.089  13.247
 6310SOL     OW19681   2.677   2.434  13.359
 6310SOL    HW119682   2.684   2.345  13.313
 6310SOL    HW219683   2.583   2.468  13.351
 6311SOL     OW19684   2.335   2.362  13.225
 6311SOL    HW119685   2.396   2.442  13.229
 6311SOL    HW219686   2.240   2.393  13.232
 6312SOL     OW19687   3.164   2.717  13.343
 6312SOL    HW119688   3.078   2.686  13.385
 6312SOL    HW219689   3.160   2.703  13.244
 6313SOL     OW19690   3.588   1.997  13.557
 6313SOL    HW119691   3.661   1.980  13.490
 6313SOL    HW219692   3.557   1.910  13.595
 6314SOL     OW19693   3.250   3.435  13.511
 6314SOL    HW119694   3.317   3.447  13.437
 6314SOL    HW219695   3.210   3.524  13.534
 6315SOL     OW19696   3.142   2.789  13.706
 6315SOL    HW119697   3.202   2.708  13.708
 6315SOL    HW219698   3.182   2.858  13.646
 6316SOL     OW19699   2.534   3.478  13.188
 6316SOL    HW119700   2.543   3.488  13.089
 6316SOL    HW219701   2.494   3.389  13.209
 6317SOL     OW19702   3.703   2.037  13.997
 6317SOL    HW119703   3.742   1.952  13.961
 6317SOL    HW219704   3.605   2.039  13.978
 6318SOL     OW19705   3.056   3.474  13.065
 6318SOL    HW119706   3.062   3.381  13.102
 6318SOL    HW219707   2.997   3.474  12.985
 6319SOL     OW19708   2.778   2.772  13.325
 6319SOL    HW119709   2.841   2.810  13.257
 6319SOL    HW219710   2.818   2.689  13.364
 6320SOL     OW19711   3.366   3.469  13.078
 6320SOL    HW119712   3.274   3.506  13.085
 6320SOL    HW219713   3.404   3.489  12.988
 6321SOL     OW19714   2.901   2.960  13.730
 6321SOL    HW119715   2.831   2.913  13.784
 6321SOL    HW219716   2.960   2.892  13.687
 6322SOL     OW19717   2.452   3.349  13.525
 6322SOL    HW119718   2.494   3.291  13.455
 6322SOL    HW219719   2.408   3.428  13.481
 6323SOL     OW19720   2.117   3.210  13.324
 6323SOL    HW119721   2.021   3.211  13.297
 6323SOL    HW219722   2.129   3.263  13.408
 6324SOL     OW19723   3.045   3.197  13.153
 6324SOL    HW119724   2.946   3.186  13.155
 6324SOL    HW219725   3.079   3.212  13.246
 6325SOL     OW19726   3.087   2.187  13.483
 6325SOL    HW119727   3.152   2.113  13.472
 6325SOL    HW219728   3.107   2.237  13.567
 6326SOL     OW19729   2.456   2.607  13.686
 6326SOL    HW119730   2.506   2.692  13.667
 6326SOL    HW219731   2.368   2.609  13.638
 6327SOL     OW19732   2.721   3.236  13.050
 6327SOL    HW119733   2.675   3.251  13.138
 6327SOL    HW219734   2.765   3.321  13.020
 6328SOL     OW19735   2.523   3.652  13.987
 6328SOL    HW119736   2.477   3.740  13.974
 6328SOL    HW219737   2.622   3.664  13.980
 6329SOL     OW19738   2.721   2.818  13.895
 6329SOL    HW119739   2.775   2.749  13.943
 6329SOL    HW219740   2.689   2.887  13.961
 6330SOL     OW19741   2.945   2.846  13.121
 6330SOL    HW119742   2.922   2.899  13.039
 6330SOL    HW219743   3.026   2.790  13.102
 6331SOL     OW19744   1.941   3.102  13.687
 6331SOL    HW119745   1.940   3.055  13.775
 6331SOL    HW219746   2.023   3.074  13.636
 6332SOL     OW19747   3.567   3.349  14.138
 6332SOL    HW119748   3.474   3.324  14.111
 6332SOL    HW219749   3.593   3.299  14.220
 6333SOL     OW19750   2.674   3.448  13.721
 6333SOL    HW119751   2.706   3.458  13.627
 6333SOL    HW219752   2.595   3.386  13.723
 6334SOL     OW19753   2.632   3.192  13.335
 6334SOL    HW119754   2.586   3.105  13.352
 6334SOL    HW219755   2.723   3.189  13.376
 6335SOL     OW19756   3.214   1.914  13.202
 6335SOL    HW119757   3.249   1.873  13.118
 6335SOL    HW219758   3.124   1.876  13.222
 6336SOL     OW19759   3.162   2.315  13.725
 6336SOL    HW119760   3.103   2.395  13.729
 6336SOL    HW219761   3.177   2.280  13.818
 6337SOL     OW19762   1.901   2.939  13.334
 6337SOL    HW119763   2.000   2.928  13.325
 6337SOL    HW219764   1.861   2.853  13.366
 6338SOL     OW19765   2.737   3.508  13.371
 6338SOL    HW119766   2.660   3.473  13.317
 6338SOL    HW219767   2.705   3.579  13.433
 6339SOL     OW19768   2.087   3.999   0.996
 6339SOL    HW119769   2.122   3.982   1.088
 6339SOL    HW219770   1.999   3.954   0.984
 6340SOL     OW19771   1.881   4.092   0.647
 6340SOL    HW119772   1.799   4.135   0.686
 6340SOL    HW219773   1.853   4.019   0.584
 6341SOL     OW19774   3.617   4.331   0.231
 6341SOL    HW119775   3.605   4.318   0.132
 6341SOL    HW219776   3.587   4.250   0.280
 6342SOL     OW19777   2.300   4.116   1.499
 6342SOL    HW119778   2.382   4.060   1.508
 6342SOL    HW219779   2.219   4.058   1.503
 6343SOL     OW19780   3.456   3.838   1.480
 6343SOL    HW119781   3.438   3.905   1.408
 6343SOL    HW219782   3.453   3.884   1.569
 6344SOL     OW19783   2.671   3.728   0.502
 6344SOL    HW119784   2.711   3.819   0.493
 6344SOL    HW219785   2.571   3.736   0.508
 6345SOL     OW19786   3.143   4.069   0.944
 6345SOL    HW119787   3.057   4.019   0.931
 6345SOL    HW219788   3.205   4.015   1.000
 6346SOL     OW19789   2.412   3.920   0.885
 6346SOL    HW119790   2.407   3.915   0.985
 6346SOL    HW219791   2.414   4.016   0.856
 6347SOL     OW19792   2.064   4.009   1.498
 6347SOL    HW119793   1.984   4.069   1.485
 6347SOL    HW219794   2.054   3.960   1.584
 6348SOL     OW19795   3.262   3.831   0.426
 6348SOL    HW119796   3.238   3.794   0.336
 6348SOL    HW219797   3.361   3.847   0.430
 6349SOL     OW19798   3.409   3.946   1.729
 6349SOL    HW119799   3.404   3.983   1.821
 6349SOL    HW219800   3.337   3.877   1.717
 6350SOL     OW19801   2.643   3.988   1.749
 6350SOL    HW119802   2.710   3.927   1.792
 6350SOL    HW219803   2.570   4.007   1.814
 6351SOL     OW19804   2.401   3.788   0.512
 6351SOL    HW119805   2.320   3.789   0.570
 6351SOL    HW219806   2.404   3.871   0.457
 6352SOL     OW19807   2.159   3.759   0.171
 6352SOL    HW119808   2.208   3.843   0.150
 6352SOL    HW219809   2.221   3.694   0.216
 6353SOL     OW19810   2.423   3.946   1.147
 6353SOL    HW119811   2.461   3.862   1.184
 6353SOL    HW219812   2.335   3.965   1.191
 6354SOL     OW19813   2.879   3.763   0.753
 6354SOL    HW119814   2.807   3.768   0.684
 6354SOL    HW219815   2.855   3.694   0.822
 6355SOL     OW19816   2.777   3.813   1.402
 6355SOL    HW119817   2.802   3.793   1.307
 6355SOL    HW219818   2.849   3.869   1.444
 6356SOL     OW19819   3.136   4.110   1.262
 6356SOL    HW119820   3.157   4.184   1.326
 6356SOL    HW219821   3.047   4.127   1.219
 6357SOL     OW19822   2.366   3.774   1.740
 6357SOL    HW119823   2.324   3.717   1.670
 6357SOL    HW219824   2.300   3.843   1.772
 6358SOL     OW19825   2.169   3.937   1.231
 6358SOL    HW119826   2.146   3.974   1.321
 6358SOL    HW219827   2.139   3.842   1.225
 6359SOL     OW19828   3.402   3.998   0.125
 6359SOL    HW119829   3.341   3.923   0.148
 6359SOL    HW219830   3.424   4.050   0.208
 6360SOL     OW19831   3.022   3.931   1.477
 6360SOL    HW119832   3.022   3.995   1.554
 6360SOL    HW219833   3.050   3.979   1.394
 6361SOL     OW19834   2.765   3.810   0.133
 6361SOL    HW119835   2.816   3.811   0.047
 6361SOL    HW219836   2.821   3.768   0.204
 6362SOL     OW19837   3.588   3.859   0.523
 6362SOL    HW119838   3.661   3.842   0.456
 6362SOL    HW219839   3.557   3.772   0.561
 6363SOL     OW19840   3.703   3.899   0.963
 6363SOL    HW119841   3.742   3.814   0.927
 6363SOL    HW219842   3.605   3.901   0.944
 6364SOL     OW19843   2.534   3.927   1.489
 6364SOL    HW119844   2.624   3.911   1.449
 6364SOL    HW219845   2.542   3.932   1.588
 6365SOL     OW19846   1.934   3.890   0.318
 6365SOL    HW119847   1.917   3.973   0.264
 6365SOL    HW219848   2.024   3.853   0.296
 6366SOL     OW19849   3.087   4.049   0.449
 6366SOL    HW119850   3.152   3.975   0.438
 6366SOL    HW219851   3.107   4.099   0.533
 6367SOL     OW19852   3.639   4.066   1.642
 6367SOL    HW119853   3.622   4.097   1.548
 6367SOL    HW219854   3.555   4.029   1.680
 6368SOL     OW19855   3.686   3.916   1.227
 6368SOL    HW119856   3.682   3.826   1.271
 6368SOL    HW219857   3.689   3.905   1.128
 6369SOL     OW19858   3.286   3.938   1.112
 6369SOL    HW119859   3.338   3.873   1.167
 6369SOL    HW219860   3.237   4.001   1.173
 6370SOL     OW19861   2.863   3.758   1.154
 6370SOL    HW119862   2.800   3.686   1.123
 6370SOL    HW219863   2.956   3.722   1.154
 6371SOL     OW19864   3.214   3.776   0.168
 6371SOL    HW119865   3.249   3.735   0.084
 6371SOL    HW219866   3.124   3.738   0.188
 6372SOL     OW19867   3.162   4.177   0.691
 6372SOL    HW119868   3.103   4.257   0.695
 6372SOL    HW219869   3.177   4.142   0.784
 6373SOL     OW19870   3.455   3.945   0.882
 6373SOL    HW119871   3.371   3.944   0.936
 6373SOL    HW219872   3.457   4.028   0.826
 6374SOL     OW19873   2.087   3.999   2.858
 6374SOL    HW119874   2.122   3.982   2.950
 6374SOL    HW219875   1.999   3.954   2.846
 6375SOL     OW19876   1.881   4.092   2.509
 6375SOL    HW119877   1.799   4.135   2.548
 6375SOL    HW219878   1.853   4.019   2.446
 6376SOL     OW19879   3.617   4.331   2.093
 6376SOL    HW119880   3.605   4.318   1.994
 6376SOL    HW219881   3.587   4.250   2.142
 6377SOL     OW19882   2.300   4.116   3.361
 6377SOL    HW119883   2.382   4.060   3.370
 6377SOL    HW219884   2.219   4.058   3.365
 6378SOL     OW19885   3.456   3.838   3.342
 6378SOL    HW119886   3.438   3.905   3.270
 6378SOL    HW219887   3.453   3.884   3.431
 6379SOL     OW19888   2.671   3.728   2.364
 6379SOL    HW119889   2.711   3.819   2.355
 6379SOL    HW219890   2.571   3.736   2.370
 6380SOL     OW19891   3.143   4.069   2.806
 6380SOL    HW119892   3.057   4.019   2.793
 6380SOL    HW219893   3.205   4.015   2.862
 6381SOL     OW19894   2.412   3.920   2.747
 6381SOL    HW119895   2.407   3.915   2.847
 6381SOL    HW219896   2.414   4.016   2.718
 6382SOL     OW19897   2.064   4.009   3.360
 6382SOL    HW119898   1.984   4.069   3.347
 6382SOL    HW219899   2.054   3.960   3.446
 6383SOL     OW19900   3.262   3.831   2.288
 6383SOL    HW119901   3.238   3.794   2.198
 6383SOL    HW219902   3.361   3.847   2.292
 6384SOL     OW19903   3.409   3.946   3.591
 6384SOL    HW119904   3.404   3.983   3.683
 6384SOL    HW219905   3.337   3.877   3.579
 6385SOL     OW19906   2.476   3.846   1.979
 6385SOL    HW119907   2.574   3.824   1.986
 6385SOL    HW219908   2.445   3.829   1.886
 6386SOL     OW19909   2.643   3.988   3.611
 6386SOL    HW119910   2.710   3.927   3.654
 6386SOL    HW219911   2.570   4.007   3.676
 6387SOL     OW19912   2.401   3.788   2.374
 6387SOL    HW119913   2.320   3.789   2.432
 6387SOL    HW219914   2.404   3.871   2.319
 6388SOL     OW19915   2.159   3.759   2.033
 6388SOL    HW119916   2.208   3.843   2.012
 6388SOL    HW219917   2.221   3.694   2.078
 6389SOL     OW19918   2.423   3.946   3.009
 6389SOL    HW119919   2.461   3.862   3.046
 6389SOL    HW219920   2.335   3.965   3.053
 6390SOL     OW19921   2.879   3.763   2.615
 6390SOL    HW119922   2.807   3.768   2.546
 6390SOL    HW219923   2.855   3.694   2.684
 6391SOL     OW19924   2.777   3.813   3.264
 6391SOL    HW119925   2.802   3.793   3.169
 6391SOL    HW219926   2.849   3.869   3.306
 6392SOL     OW19927   3.136   4.110   3.124
 6392SOL    HW119928   3.157   4.184   3.188
 6392SOL    HW219929   3.047   4.127   3.081
 6393SOL     OW19930   2.366   3.774   3.602
 6393SOL    HW119931   2.324   3.717   3.532
 6393SOL    HW219932   2.300   3.843   3.634
 6394SOL     OW19933   2.169   3.937   3.093
 6394SOL    HW119934   2.146   3.974   3.183
 6394SOL    HW219935   2.139   3.842   3.087
 6395SOL     OW19936   3.402   3.998   1.987
 6395SOL    HW119937   3.341   3.923   2.010
 6395SOL    HW219938   3.424   4.050   2.070
 6396SOL     OW19939   3.022   3.931   3.339
 6396SOL    HW119940   3.022   3.995   3.416
 6396SOL    HW219941   3.050   3.979   3.256
 6397SOL     OW19942   2.765   3.810   1.995
 6397SOL    HW119943   2.816   3.811   1.909
 6397SOL    HW219944   2.821   3.768   2.066
 6398SOL     OW19945   3.588   3.859   2.385
 6398SOL    HW119946   3.661   3.842   2.318
 6398SOL    HW219947   3.557   3.772   2.423
 6399SOL     OW19948   3.703   3.899   2.825
 6399SOL    HW119949   3.742   3.814   2.789
 6399SOL    HW219950   3.605   3.901   2.806
 6400SOL     OW19951   2.534   3.927   3.351
 6400SOL    HW119952   2.624   3.911   3.311
 6400SOL    HW219953   2.542   3.932   3.450
 6401SOL     OW19954   1.937   4.069   1.895
 6401SOL    HW119955   1.845   4.041   1.866
 6401SOL    HW219956   1.968   4.146   1.839
 6402SOL     OW19957   1.934   3.890   2.180
 6402SOL    HW119958   1.917   3.973   2.126
 6402SOL    HW219959   2.024   3.853   2.158
 6403SOL     OW19960   3.087   4.049   2.311
 6403SOL    HW119961   3.152   3.975   2.300
 6403SOL    HW219962   3.107   4.099   2.395
 6404SOL     OW19963   3.639   4.066   3.504
 6404SOL    HW119964   3.622   4.097   3.410
 6404SOL    HW219965   3.555   4.029   3.542
 6405SOL     OW19966   3.686   3.916   3.089
 6405SOL    HW119967   3.682   3.826   3.133
 6405SOL    HW219968   3.689   3.905   2.990
 6406SOL     OW19969   3.286   3.938   2.974
 6406SOL    HW119970   3.338   3.873   3.029
 6406SOL    HW219971   3.237   4.001   3.035
 6407SOL     OW19972   2.863   3.758   3.016
 6407SOL    HW119973   2.800   3.686   2.985
 6407SOL    HW219974   2.956   3.722   3.016
 6408SOL     OW19975   3.214   3.776   2.030
 6408SOL    HW119976   3.249   3.735   1.946
 6408SOL    HW219977   3.124   3.738   2.050
 6409SOL     OW19978   3.162   4.177   2.553
 6409SOL    HW119979   3.103   4.257   2.557
 6409SOL    HW219980   3.177   4.142   2.646
 6410SOL     OW19981   3.455   3.945   2.744
 6410SOL    HW119982   3.371   3.944   2.798
 6410SOL    HW219983   3.457   4.028   2.688
 6411SOL     OW19984   2.087   3.999   4.720
 6411SOL    HW119985   2.122   3.982   4.812
 6411SOL    HW219986   1.999   3.954   4.708
 6412SOL     OW19987   1.881   4.092   4.371
 6412SOL    HW119988   1.799   4.135   4.410
 6412SOL    HW219989   1.853   4.019   4.308
 6413SOL     OW19990   3.617   4.331   3.955
 6413SOL    HW119991   3.605   4.318   3.856
 6413SOL    HW219992   3.587   4.250   4.004
 6414SOL     OW19993   2.300   4.116   5.223
 6414SOL    HW119994   2.382   4.060   5.232
 6414SOL    HW219995   2.219   4.058   5.227
 6415SOL     OW19996   3.456   3.838   5.204
 6415SOL    HW119997   3.438   3.905   5.132
 6415SOL    HW219998   3.453   3.884   5.293
 6416SOL     OW19999   2.671   3.728   4.226
 6416SOL    HW120000   2.711   3.819   4.217
 6416SOL    HW220001   2.571   3.736   4.232
 6417SOL     OW20002   3.143   4.069   4.668
 6417SOL    HW120003   3.057   4.019   4.655
 6417SOL    HW220004   3.205   4.015   4.724
 6418SOL     OW20005   2.412   3.920   4.609
 6418SOL    HW120006   2.407   3.915   4.709
 6418SOL    HW220007   2.414   4.016   4.580
 6419SOL     OW20008   2.064   4.009   5.222
 6419SOL    HW120009   1.984   4.069   5.209
 6419SOL    HW220010   2.054   3.960   5.308
 6420SOL     OW20011   3.262   3.831   4.150
 6420SOL    HW120012   3.238   3.794   4.060
 6420SOL    HW220013   3.361   3.847   4.154
 6421SOL     OW20014   3.409   3.946   5.453
 6421SOL    HW120015   3.404   3.983   5.545
 6421SOL    HW220016   3.337   3.877   5.441
 6422SOL     OW20017   2.476   3.846   3.841
 6422SOL    HW120018   2.574   3.824   3.848
 6422SOL    HW220019   2.445   3.829   3.748
 6423SOL     OW20020   2.643   3.988   5.473
 6423SOL    HW120021   2.710   3.927   5.516
 6423SOL    HW220022   2.570   4.007   5.538
 6424SOL     OW20023   2.401   3.788   4.236
 6424SOL    HW120024   2.320   3.789   4.294
 6424SOL    HW220025   2.404   3.871   4.181
 6425SOL     OW20026   2.159   3.759   3.895
 6425SOL    HW120027   2.208   3.843   3.874
 6425SOL    HW220028   2.221   3.694   3.940
 6426SOL     OW20029   2.423   3.946   4.871
 6426SOL    HW120030   2.461   3.862   4.908
 6426SOL    HW220031   2.335   3.965   4.915
 6427SOL     OW20032   2.879   3.763   4.477
 6427SOL    HW120033   2.807   3.768   4.408
 6427SOL    HW220034   2.855   3.694   4.546
 6428SOL     OW20035   2.777   3.813   5.126
 6428SOL    HW120036   2.802   3.793   5.031
 6428SOL    HW220037   2.849   3.869   5.168
 6429SOL     OW20038   3.136   4.110   4.986
 6429SOL    HW120039   3.157   4.184   5.050
 6429SOL    HW220040   3.047   4.127   4.943
 6430SOL     OW20041   2.366   3.774   5.464
 6430SOL    HW120042   2.324   3.717   5.394
 6430SOL    HW220043   2.300   3.843   5.496
 6431SOL     OW20044   2.169   3.937   4.955
 6431SOL    HW120045   2.146   3.974   5.045
 6431SOL    HW220046   2.139   3.842   4.949
 6432SOL     OW20047   3.402   3.998   3.849
 6432SOL    HW120048   3.341   3.923   3.872
 6432SOL    HW220049   3.424   4.050   3.932
 6433SOL     OW20050   3.022   3.931   5.201
 6433SOL    HW120051   3.022   3.995   5.278
 6433SOL    HW220052   3.050   3.979   5.118
 6434SOL     OW20053   2.765   3.810   3.857
 6434SOL    HW120054   2.816   3.811   3.771
 6434SOL    HW220055   2.821   3.768   3.928
 6435SOL     OW20056   3.588   3.859   4.247
 6435SOL    HW120057   3.661   3.842   4.180
 6435SOL    HW220058   3.557   3.772   4.285
 6436SOL     OW20059   3.703   3.899   4.687
 6436SOL    HW120060   3.742   3.814   4.651
 6436SOL    HW220061   3.605   3.901   4.668
 6437SOL     OW20062   2.534   3.927   5.213
 6437SOL    HW120063   2.624   3.911   5.173
 6437SOL    HW220064   2.542   3.932   5.312
 6438SOL     OW20065   1.937   4.069   3.757
 6438SOL    HW120066   1.845   4.041   3.728
 6438SOL    HW220067   1.968   4.146   3.701
 6439SOL     OW20068   1.934   3.890   4.042
 6439SOL    HW120069   1.917   3.973   3.988
 6439SOL    HW220070   2.024   3.853   4.020
 6440SOL     OW20071   3.087   4.049   4.173
 6440SOL    HW120072   3.152   3.975   4.162
 6440SOL    HW220073   3.107   4.099   4.257
 6441SOL     OW20074   3.639   4.066   5.366
 6441SOL    HW120075   3.622   4.097   5.272
 6441SOL    HW220076   3.555   4.029   5.404
 6442SOL     OW20077   3.686   3.916   4.951
 6442SOL    HW120078   3.682   3.826   4.995
 6442SOL    HW220079   3.689   3.905   4.852
 6443SOL     OW20080   3.286   3.938   4.836
 6443SOL    HW120081   3.338   3.873   4.891
 6443SOL    HW220082   3.237   4.001   4.897
 6444SOL     OW20083   2.863   3.758   4.878
 6444SOL    HW120084   2.800   3.686   4.847
 6444SOL    HW220085   2.956   3.722   4.878
 6445SOL     OW20086   3.214   3.776   3.892
 6445SOL    HW120087   3.249   3.735   3.808
 6445SOL    HW220088   3.124   3.738   3.912
 6446SOL     OW20089   3.162   4.177   4.415
 6446SOL    HW120090   3.103   4.257   4.419
 6446SOL    HW220091   3.177   4.142   4.508
 6447SOL     OW20092   3.455   3.945   4.606
 6447SOL    HW120093   3.371   3.944   4.660
 6447SOL    HW220094   3.457   4.028   4.550
 6448SOL     OW20095   2.087   3.999   6.582
 6448SOL    HW120096   2.122   3.982   6.674
 6448SOL    HW220097   1.999   3.954   6.570
 6449SOL     OW20098   1.881   4.092   6.233
 6449SOL    HW120099   1.799   4.135   6.272
 6449SOL    HW220100   1.853   4.019   6.170
 6450SOL     OW20101   3.617   4.331   5.817
 6450SOL    HW120102   3.605   4.318   5.718
 6450SOL    HW220103   3.587   4.250   5.866
 6451SOL     OW20104   2.300   4.116   7.085
 6451SOL    HW120105   2.382   4.060   7.094
 6451SOL    HW220106   2.219   4.058   7.089
 6452SOL     OW20107   3.456   3.838   7.066
 6452SOL    HW120108   3.438   3.905   6.994
 6452SOL    HW220109   3.453   3.884   7.155
 6453SOL     OW20110   2.671   3.728   6.088
 6453SOL    HW120111   2.711   3.819   6.079
 6453SOL    HW220112   2.571   3.736   6.094
 6454SOL     OW20113   3.143   4.069   6.530
 6454SOL    HW120114   3.057   4.019   6.517
 6454SOL    HW220115   3.205   4.015   6.586
 6455SOL     OW20116   2.412   3.920   6.471
 6455SOL    HW120117   2.407   3.915   6.571
 6455SOL    HW220118   2.414   4.016   6.442
 6456SOL     OW20119   2.064   4.009   7.084
 6456SOL    HW120120   1.984   4.069   7.071
 6456SOL    HW220121   2.054   3.960   7.170
 6457SOL     OW20122   3.262   3.831   6.012
 6457SOL    HW120123   3.238   3.794   5.922
 6457SOL    HW220124   3.361   3.847   6.016
 6458SOL     OW20125   3.409   3.946   7.315
 6458SOL    HW120126   3.404   3.983   7.407
 6458SOL    HW220127   3.337   3.877   7.303
 6459SOL     OW20128   2.476   3.846   5.703
 6459SOL    HW120129   2.574   3.824   5.710
 6459SOL    HW220130   2.445   3.829   5.610
 6460SOL     OW20131   2.643   3.988   7.335
 6460SOL    HW120132   2.710   3.927   7.378
 6460SOL    HW220133   2.570   4.007   7.400
 6461SOL     OW20134   2.401   3.788   6.098
 6461SOL    HW120135   2.320   3.789   6.156
 6461SOL    HW220136   2.404   3.871   6.043
 6462SOL     OW20137   2.159   3.759   5.757
 6462SOL    HW120138   2.208   3.843   5.736
 6462SOL    HW220139   2.221   3.694   5.802
 6463SOL     OW20140   2.423   3.946   6.733
 6463SOL    HW120141   2.461   3.862   6.770
 6463SOL    HW220142   2.335   3.965   6.777
 6464SOL     OW20143   2.879   3.763   6.339
 6464SOL    HW120144   2.807   3.768   6.270
 6464SOL    HW220145   2.855   3.694   6.408
 6465SOL     OW20146   2.777   3.813   6.988
 6465SOL    HW120147   2.802   3.793   6.893
 6465SOL    HW220148   2.849   3.869   7.030
 6466SOL     OW20149   3.136   4.110   6.848
 6466SOL    HW120150   3.157   4.184   6.912
 6466SOL    HW220151   3.047   4.127   6.805
 6467SOL     OW20152   2.366   3.774   7.326
 6467SOL    HW120153   2.324   3.717   7.256
 6467SOL    HW220154   2.300   3.843   7.358
 6468SOL     OW20155   2.169   3.937   6.817
 6468SOL    HW120156   2.146   3.974   6.907
 6468SOL    HW220157   2.139   3.842   6.811
 6469SOL     OW20158   3.402   3.998   5.711
 6469SOL    HW120159   3.341   3.923   5.734
 6469SOL    HW220160   3.424   4.050   5.794
 6470SOL     OW20161   3.022   3.931   7.063
 6470SOL    HW120162   3.022   3.995   7.140
 6470SOL    HW220163   3.050   3.979   6.980
 6471SOL     OW20164   2.765   3.810   5.719
 6471SOL    HW120165   2.816   3.811   5.633
 6471SOL    HW220166   2.821   3.768   5.790
 6472SOL     OW20167   3.588   3.859   6.109
 6472SOL    HW120168   3.661   3.842   6.042
 6472SOL    HW220169   3.557   3.772   6.147
 6473SOL     OW20170   3.703   3.899   6.549
 6473SOL    HW120171   3.742   3.814   6.513
 6473SOL    HW220172   3.605   3.901   6.530
 6474SOL     OW20173   2.534   3.927   7.075
 6474SOL    HW120174   2.624   3.911   7.035
 6474SOL    HW220175   2.542   3.932   7.174
 6475SOL     OW20176   1.937   4.069   5.619
 6475SOL    HW120177   1.845   4.041   5.590
 6475SOL    HW220178   1.968   4.146   5.563
 6476SOL     OW20179   1.934   3.890   5.904
 6476SOL    HW120180   1.917   3.973   5.850
 6476SOL    HW220181   2.024   3.853   5.882
 6477SOL     OW20182   3.087   4.049   6.035
 6477SOL    HW120183   3.152   3.975   6.024
 6477SOL    HW220184   3.107   4.099   6.119
 6478SOL     OW20185   3.639   4.066   7.228
 6478SOL    HW120186   3.622   4.097   7.134
 6478SOL    HW220187   3.555   4.029   7.266
 6479SOL     OW20188   3.686   3.916   6.813
 6479SOL    HW120189   3.682   3.826   6.857
 6479SOL    HW220190   3.689   3.905   6.714
 6480SOL     OW20191   3.286   3.938   6.698
 6480SOL    HW120192   3.338   3.873   6.753
 6480SOL    HW220193   3.237   4.001   6.759
 6481SOL     OW20194   2.863   3.758   6.740
 6481SOL    HW120195   2.800   3.686   6.709
 6481SOL    HW220196   2.956   3.722   6.740
 6482SOL     OW20197   3.214   3.776   5.754
 6482SOL    HW120198   3.249   3.735   5.670
 6482SOL    HW220199   3.124   3.738   5.774
 6483SOL     OW20200   3.162   4.177   6.277
 6483SOL    HW120201   3.103   4.257   6.281
 6483SOL    HW220202   3.177   4.142   6.370
 6484SOL     OW20203   3.455   3.945   6.468
 6484SOL    HW120204   3.371   3.944   6.522
 6484SOL    HW220205   3.457   4.028   6.412
 6485SOL     OW20206   2.087   3.999   8.444
 6485SOL    HW120207   2.122   3.982   8.536
 6485SOL    HW220208   1.999   3.954   8.432
 6486SOL     OW20209   1.881   4.092   8.095
 6486SOL    HW120210   1.799   4.135   8.134
 6486SOL    HW220211   1.853   4.019   8.032
 6487SOL     OW20212   3.617   4.331   7.679
 6487SOL    HW120213   3.605   4.318   7.580
 6487SOL    HW220214   3.587   4.250   7.728
 6488SOL     OW20215   2.300   4.116   8.947
 6488SOL    HW120216   2.382   4.060   8.956
 6488SOL    HW220217   2.219   4.058   8.951
 6489SOL     OW20218   3.456   3.838   8.928
 6489SOL    HW120219   3.438   3.905   8.856
 6489SOL    HW220220   3.453   3.884   9.017
 6490SOL     OW20221   2.671   3.728   7.950
 6490SOL    HW120222   2.711   3.819   7.941
 6490SOL    HW220223   2.571   3.736   7.956
 6491SOL     OW20224   3.143   4.069   8.392
 6491SOL    HW120225   3.057   4.019   8.379
 6491SOL    HW220226   3.205   4.015   8.448
 6492SOL     OW20227   2.412   3.920   8.333
 6492SOL    HW120228   2.407   3.915   8.433
 6492SOL    HW220229   2.414   4.016   8.304
 6493SOL     OW20230   2.064   4.009   8.946
 6493SOL    HW120231   1.984   4.069   8.933
 6493SOL    HW220232   2.054   3.960   9.032
 6494SOL     OW20233   3.262   3.831   7.874
 6494SOL    HW120234   3.238   3.794   7.784
 6494SOL    HW220235   3.361   3.847   7.878
 6495SOL     OW20236   3.409   3.946   9.177
 6495SOL    HW120237   3.404   3.983   9.269
 6495SOL    HW220238   3.337   3.877   9.165
 6496SOL     OW20239   2.476   3.846   7.565
 6496SOL    HW120240   2.574   3.824   7.572
 6496SOL    HW220241   2.445   3.829   7.472
 6497SOL     OW20242   2.643   3.988   9.197
 6497SOL    HW120243   2.710   3.927   9.240
 6497SOL    HW220244   2.570   4.007   9.262
 6498SOL     OW20245   2.401   3.788   7.960
 6498SOL    HW120246   2.320   3.789   8.018
 6498SOL    HW220247   2.404   3.871   7.905
 6499SOL     OW20248   2.159   3.759   7.619
 6499SOL    HW120249   2.208   3.843   7.598
 6499SOL    HW220250   2.221   3.694   7.664
 6500SOL     OW20251   2.423   3.946   8.595
 6500SOL    HW120252   2.461   3.862   8.632
 6500SOL    HW220253   2.335   3.965   8.639
 6501SOL     OW20254   2.879   3.763   8.201
 6501SOL    HW120255   2.807   3.768   8.132
 6501SOL    HW220256   2.855   3.694   8.270
 6502SOL     OW20257   2.777   3.813   8.850
 6502SOL    HW120258   2.802   3.793   8.755
 6502SOL    HW220259   2.849   3.869   8.892
 6503SOL     OW20260   3.136   4.110   8.710
 6503SOL    HW120261   3.157   4.184   8.774
 6503SOL    HW220262   3.047   4.127   8.667
 6504SOL     OW20263   2.366   3.774   9.188
 6504SOL    HW120264   2.324   3.717   9.118
 6504SOL    HW220265   2.300   3.843   9.220
 6505SOL     OW20266   2.169   3.937   8.679
 6505SOL    HW120267   2.146   3.974   8.769
 6505SOL    HW220268   2.139   3.842   8.673
 6506SOL     OW20269   3.402   3.998   7.573
 6506SOL    HW120270   3.341   3.923   7.596
 6506SOL    HW220271   3.424   4.050   7.656
 6507SOL     OW20272   3.022   3.931   8.925
 6507SOL    HW120273   3.022   3.995   9.002
 6507SOL    HW220274   3.050   3.979   8.842
 6508SOL     OW20275   2.765   3.810   7.581
 6508SOL    HW120276   2.816   3.811   7.495
 6508SOL    HW220277   2.821   3.768   7.652
 6509SOL     OW20278   3.588   3.859   7.971
 6509SOL    HW120279   3.661   3.842   7.904
 6509SOL    HW220280   3.557   3.772   8.009
 6510SOL     OW20281   3.703   3.899   8.411
 6510SOL    HW120282   3.742   3.814   8.375
 6510SOL    HW220283   3.605   3.901   8.392
 6511SOL     OW20284   2.534   3.927   8.937
 6511SOL    HW120285   2.624   3.911   8.897
 6511SOL    HW220286   2.542   3.932   9.036
 6512SOL     OW20287   1.937   4.069   7.481
 6512SOL    HW120288   1.845   4.041   7.452
 6512SOL    HW220289   1.968   4.146   7.425
 6513SOL     OW20290   1.934   3.890   7.766
 6513SOL    HW120291   1.917   3.973   7.712
 6513SOL    HW220292   2.024   3.853   7.744
 6514SOL     OW20293   3.087   4.049   7.897
 6514SOL    HW120294   3.152   3.975   7.886
 6514SOL    HW220295   3.107   4.099   7.981
 6515SOL     OW20296   3.639   4.066   9.090
 6515SOL    HW120297   3.622   4.097   8.996
 6515SOL    HW220298   3.555   4.029   9.128
 6516SOL     OW20299   3.686   3.916   8.675
 6516SOL    HW120300   3.682   3.826   8.719
 6516SOL    HW220301   3.689   3.905   8.576
 6517SOL     OW20302   3.286   3.938   8.560
 6517SOL    HW120303   3.338   3.873   8.615
 6517SOL    HW220304   3.237   4.001   8.621
 6518SOL     OW20305   2.863   3.758   8.602
 6518SOL    HW120306   2.800   3.686   8.571
 6518SOL    HW220307   2.956   3.722   8.602
 6519SOL     OW20308   3.214   3.776   7.616
 6519SOL    HW120309   3.249   3.735   7.532
 6519SOL    HW220310   3.124   3.738   7.636
 6520SOL     OW20311   3.162   4.177   8.139
 6520SOL    HW120312   3.103   4.257   8.143
 6520SOL    HW220313   3.177   4.142   8.232
 6521SOL     OW20314   3.455   3.945   8.330
 6521SOL    HW120315   3.371   3.944   8.384
 6521SOL    HW220316   3.457   4.028   8.274
 6522SOL     OW20317   2.087   3.999  10.306
 6522SOL    HW120318   2.122   3.982  10.398
 6522SOL    HW220319   1.999   3.954  10.294
 6523SOL     OW20320   1.881   4.092   9.957
 6523SOL    HW120321   1.799   4.135   9.996
 6523SOL    HW220322   1.853   4.019   9.894
 6524SOL     OW20323   3.617   4.331   9.541
 6524SOL    HW120324   3.605   4.318   9.442
 6524SOL    HW220325   3.587   4.250   9.590
 6525SOL     OW20326   2.300   4.116  10.809
 6525SOL    HW120327   2.382   4.060  10.818
 6525SOL    HW220328   2.219   4.058  10.813
 6526SOL     OW20329   3.456   3.838  10.790
 6526SOL    HW120330   3.438   3.905  10.718
 6526SOL    HW220331   3.453   3.884  10.879
 6527SOL     OW20332   2.671   3.728   9.812
 6527SOL    HW120333   2.711   3.819   9.803
 6527SOL    HW220334   2.571   3.736   9.818
 6528SOL     OW20335   3.143   4.069  10.254
 6528SOL    HW120336   3.057   4.019  10.241
 6528SOL    HW220337   3.205   4.015  10.310
 6529SOL     OW20338   2.412   3.920  10.195
 6529SOL    HW120339   2.407   3.915  10.295
 6529SOL    HW220340   2.414   4.016  10.166
 6530SOL     OW20341   2.064   4.009  10.808
 6530SOL    HW120342   1.984   4.069  10.795
 6530SOL    HW220343   2.054   3.960  10.894
 6531SOL     OW20344   3.262   3.831   9.736
 6531SOL    HW120345   3.238   3.794   9.646
 6531SOL    HW220346   3.361   3.847   9.740
 6532SOL     OW20347   3.409   3.946  11.039
 6532SOL    HW120348   3.404   3.983  11.131
 6532SOL    HW220349   3.337   3.877  11.027
 6533SOL     OW20350   2.476   3.846   9.427
 6533SOL    HW120351   2.574   3.824   9.434
 6533SOL    HW220352   2.445   3.829   9.334
 6534SOL     OW20353   2.643   3.988  11.059
 6534SOL    HW120354   2.710   3.927  11.102
 6534SOL    HW220355   2.570   4.007  11.124
 6535SOL     OW20356   2.401   3.788   9.822
 6535SOL    HW120357   2.320   3.789   9.880
 6535SOL    HW220358   2.404   3.871   9.767
 6536SOL     OW20359   2.159   3.759   9.481
 6536SOL    HW120360   2.208   3.843   9.460
 6536SOL    HW220361   2.221   3.694   9.526
 6537SOL     OW20362   2.423   3.946  10.457
 6537SOL    HW120363   2.461   3.862  10.494
 6537SOL    HW220364   2.335   3.965  10.501
 6538SOL     OW20365   2.879   3.763  10.063
 6538SOL    HW120366   2.807   3.768   9.994
 6538SOL    HW220367   2.855   3.694  10.132
 6539SOL     OW20368   2.777   3.813  10.712
 6539SOL    HW120369   2.802   3.793  10.617
 6539SOL    HW220370   2.849   3.869  10.754
 6540SOL     OW20371   3.136   4.110  10.572
 6540SOL    HW120372   3.157   4.184  10.636
 6540SOL    HW220373   3.047   4.127  10.529
 6541SOL     OW20374   2.366   3.774  11.050
 6541SOL    HW120375   2.324   3.717  10.980
 6541SOL    HW220376   2.300   3.843  11.082
 6542SOL     OW20377   2.169   3.937  10.541
 6542SOL    HW120378   2.146   3.974  10.631
 6542SOL    HW220379   2.139   3.842  10.535
 6543SOL     OW20380   3.402   3.998   9.435
 6543SOL    HW120381   3.341   3.923   9.458
 6543SOL    HW220382   3.424   4.050   9.518
 6544SOL     OW20383   3.022   3.931  10.787
 6544SOL    HW120384   3.022   3.995  10.864
 6544SOL    HW220385   3.050   3.979  10.704
 6545SOL     OW20386   2.765   3.810   9.443
 6545SOL    HW120387   2.816   3.811   9.357
 6545SOL    HW220388   2.821   3.768   9.514
 6546SOL     OW20389   3.588   3.859   9.833
 6546SOL    HW120390   3.661   3.842   9.766
 6546SOL    HW220391   3.557   3.772   9.871
 6547SOL     OW20392   3.703   3.899  10.273
 6547SOL    HW120393   3.742   3.814  10.237
 6547SOL    HW220394   3.605   3.901  10.254
 6548SOL     OW20395   2.534   3.927  10.799
 6548SOL    HW120396   2.624   3.911  10.759
 6548SOL    HW220397   2.542   3.932  10.898
 6549SOL     OW20398   1.937   4.069   9.343
 6549SOL    HW120399   1.845   4.041   9.314
 6549SOL    HW220400   1.968   4.146   9.287
 6550SOL     OW20401   1.934   3.890   9.628
 6550SOL    HW120402   1.917   3.973   9.574
 6550SOL    HW220403   2.024   3.853   9.606
 6551SOL     OW20404   3.087   4.049   9.759
 6551SOL    HW120405   3.152   3.975   9.748
 6551SOL    HW220406   3.107   4.099   9.843
 6552SOL     OW20407   3.639   4.066  10.952
 6552SOL    HW120408   3.622   4.097  10.858
 6552SOL    HW220409   3.555   4.029  10.990
 6553SOL     OW20410   3.686   3.916  10.537
 6553SOL    HW120411   3.682   3.826  10.581
 6553SOL    HW220412   3.689   3.905  10.438
 6554SOL     OW20413   3.286   3.938  10.422
 6554SOL    HW120414   3.338   3.873  10.477
 6554SOL    HW220415   3.237   4.001  10.483
 6555SOL     OW20416   2.863   3.758  10.464
 6555SOL    HW120417   2.800   3.686  10.433
 6555SOL    HW220418   2.956   3.722  10.464
 6556SOL     OW20419   3.214   3.776   9.478
 6556SOL    HW120420   3.249   3.735   9.394
 6556SOL    HW220421   3.124   3.738   9.498
 6557SOL     OW20422   3.162   4.177  10.001
 6557SOL    HW120423   3.103   4.257  10.005
 6557SOL    HW220424   3.177   4.142  10.094
 6558SOL     OW20425   3.455   3.945  10.192
 6558SOL    HW120426   3.371   3.944  10.246
 6558SOL    HW220427   3.457   4.028  10.136
 6559SOL     OW20428   2.087   3.999  12.168
 6559SOL    HW120429   2.122   3.982  12.260
 6559SOL    HW220430   1.999   3.954  12.156
 6560SOL     OW20431   1.881   4.092  11.819
 6560SOL    HW120432   1.799   4.135  11.858
 6560SOL    HW220433   1.853   4.019  11.756
 6561SOL     OW20434   3.617   4.331  11.403
 6561SOL    HW120435   3.605   4.318  11.304
 6561SOL    HW220436   3.587   4.250  11.452
 6562SOL     OW20437   2.300   4.116  12.671
 6562SOL    HW120438   2.382   4.060  12.680
 6562SOL    HW220439   2.219   4.058  12.675
 6563SOL     OW20440   3.456   3.838  12.652
 6563SOL    HW120441   3.438   3.905  12.580
 6563SOL    HW220442   3.453   3.884  12.741
 6564SOL     OW20443   2.671   3.728  11.674
 6564SOL    HW120444   2.711   3.819  11.665
 6564SOL    HW220445   2.571   3.736  11.680
 6565SOL     OW20446   3.143   4.069  12.116
 6565SOL    HW120447   3.057   4.019  12.103
 6565SOL    HW220448   3.205   4.015  12.172
 6566SOL     OW20449   2.412   3.920  12.057
 6566SOL    HW120450   2.407   3.915  12.157
 6566SOL    HW220451   2.414   4.016  12.028
 6567SOL     OW20452   2.064   4.009  12.670
 6567SOL    HW120453   1.984   4.069  12.657
 6567SOL    HW220454   2.054   3.960  12.756
 6568SOL     OW20455   3.262   3.831  11.598
 6568SOL    HW120456   3.238   3.794  11.508
 6568SOL    HW220457   3.361   3.847  11.602
 6569SOL     OW20458   3.409   3.946  12.901
 6569SOL    HW120459   3.404   3.983  12.993
 6569SOL    HW220460   3.337   3.877  12.889
 6570SOL     OW20461   2.476   3.846  11.289
 6570SOL    HW120462   2.574   3.824  11.296
 6570SOL    HW220463   2.445   3.829  11.196
 6571SOL     OW20464   2.643   3.988  12.921
 6571SOL    HW120465   2.710   3.927  12.964
 6571SOL    HW220466   2.570   4.007  12.986
 6572SOL     OW20467   2.401   3.788  11.684
 6572SOL    HW120468   2.320   3.789  11.742
 6572SOL    HW220469   2.404   3.871  11.629
 6573SOL     OW20470   2.159   3.759  11.343
 6573SOL    HW120471   2.208   3.843  11.322
 6573SOL    HW220472   2.221   3.694  11.388
 6574SOL     OW20473   2.423   3.946  12.319
 6574SOL    HW120474   2.461   3.862  12.356
 6574SOL    HW220475   2.335   3.965  12.363
 6575SOL     OW20476   2.879   3.763  11.925
 6575SOL    HW120477   2.807   3.768  11.856
 6575SOL    HW220478   2.855   3.694  11.994
 6576SOL     OW20479   2.777   3.813  12.574
 6576SOL    HW120480   2.802   3.793  12.479
 6576SOL    HW220481   2.849   3.869  12.616
 6577SOL     OW20482   3.136   4.110  12.434
 6577SOL    HW120483   3.157   4.184  12.498
 6577SOL    HW220484   3.047   4.127  12.391
 6578SOL     OW20485   2.366   3.774  12.912
 6578SOL    HW120486   2.324   3.717  12.842
 6578SOL    HW220487   2.300   3.843  12.944
 6579SOL     OW20488   2.169   3.937  12.403
 6579SOL    HW120489   2.146   3.974  12.493
 6579SOL    HW220490   2.139   3.842  12.397
 6580SOL     OW20491   3.402   3.998  11.297
 6580SOL    HW120492   3.341   3.923  11.320
 6580SOL    HW220493   3.424   4.050  11.380
 6581SOL     OW20494   3.022   3.931  12.649
 6581SOL    HW120495   3.022   3.995  12.726
 6581SOL    HW220496   3.050   3.979  12.566
 6582SOL     OW20497   2.765   3.810  11.305
 6582SOL    HW120498   2.816   3.811  11.219
 6582SOL    HW220499   2.821   3.768  11.376
 6583SOL     OW20500   3.588   3.859  11.695
 6583SOL    HW120501   3.661   3.842  11.628
 6583SOL    HW220502   3.557   3.772  11.733
 6584SOL     OW20503   3.703   3.899  12.135
 6584SOL    HW120504   3.742   3.814  12.099
 6584SOL    HW220505   3.605   3.901  12.116
 6585SOL     OW20506   2.534   3.927  12.661
 6585SOL    HW120507   2.624   3.911  12.621
 6585SOL    HW220508   2.542   3.932  12.760
 6586SOL     OW20509   1.937   4.069  11.205
 6586SOL    HW120510   1.845   4.041  11.176
 6586SOL    HW220511   1.968   4.146  11.149
 6587SOL     OW20512   1.934   3.890  11.490
 6587SOL    HW120513   1.917   3.973  11.436
 6587SOL    HW220514   2.024   3.853  11.468
 6588SOL     OW20515   3.087   4.049  11.621
 6588SOL    HW120516   3.152   3.975  11.610
 6588SOL    HW220517   3.107   4.099  11.705
 6589SOL     OW20518   3.639   4.066  12.814
 6589SOL    HW120519   3.622   4.097  12.720
 6589SOL    HW220520   3.555   4.029  12.852
 6590SOL     OW20521   3.686   3.916  12.399
 6590SOL    HW120522   3.682   3.826  12.443
 6590SOL    HW220523   3.689   3.905  12.300
 6591SOL     OW20524   3.286   3.938  12.284
 6591SOL    HW120525   3.338   3.873  12.339
 6591SOL    HW220526   3.237   4.001  12.345
 6592SOL     OW20527   2.863   3.758  12.326
 6592SOL    HW120528   2.800   3.686  12.295
 6592SOL    HW220529   2.956   3.722  12.326
 6593SOL     OW20530   3.214   3.776  11.340
 6593SOL    HW120531   3.249   3.735  11.256
 6593SOL    HW220532   3.124   3.738  11.360
 6594SOL     OW20533   3.162   4.177  11.863
 6594SOL    HW120534   3.103   4.257  11.867
 6594SOL    HW220535   3.177   4.142  11.956
 6595SOL     OW20536   3.455   3.945  12.054
 6595SOL    HW120537   3.371   3.944  12.108
 6595SOL    HW220538   3.457   4.028  11.998
 6596SOL     OW20539   1.881   4.092  13.681
 6596SOL    HW120540   1.799   4.135  13.720
 6596SOL    HW220541   1.853   4.019  13.618
 6597SOL     OW20542   3.617   4.331  13.265
 6597SOL    HW120543   3.605   4.318  13.166
 6597SOL    HW220544   3.587   4.250  13.314
 6598SOL     OW20545   3.465   4.171  13.771
 6598SOL    HW120546   3.391   4.217  13.721
 6598SOL    HW220547   3.516   4.239  13.824
 6599SOL     OW20548   2.671   3.728  13.536
 6599SOL    HW120549   2.711   3.819  13.527
 6599SOL    HW220550   2.571   3.736  13.542
 6600SOL     OW20551   3.262   3.831  13.460
 6600SOL    HW120552   3.238   3.794  13.370
 6600SOL    HW220553   3.361   3.847  13.464
 6601SOL     OW20554   2.476   3.846  13.151
 6601SOL    HW120555   2.574   3.824  13.158
 6601SOL    HW220556   2.445   3.829  13.058
 6602SOL     OW20557   2.401   3.788  13.546
 6602SOL    HW120558   2.320   3.789  13.604
 6602SOL    HW220559   2.404   3.871  13.491
 6603SOL     OW20560   2.159   3.759  13.205
 6603SOL    HW120561   2.208   3.843  13.184
 6603SOL    HW220562   2.221   3.694  13.250
 6604SOL     OW20563   2.879   3.763  13.787
 6604SOL    HW120564   2.807   3.768  13.718
 6604SOL    HW220565   2.855   3.694  13.856
 6605SOL     OW20566   3.402   3.998  13.159
 6605SOL    HW120567   3.341   3.923  13.182
 6605SOL    HW220568   3.424   4.050  13.242
 6606SOL     OW20569   2.765   3.810  13.167
 6606SOL    HW120570   2.816   3.811  13.081
 6606SOL    HW220571   2.821   3.768  13.238
 6607SOL     OW20572   3.588   3.859  13.557
 6607SOL    HW120573   3.661   3.842  13.490
 6607SOL    HW220574   3.557   3.772  13.595
 6608SOL     OW20575   3.703   3.899  13.997
 6608SOL    HW120576   3.742   3.814  13.961
 6608SOL    HW220577   3.605   3.901  13.978
 6609SOL     OW20578   1.937   4.069  13.067
 6609SOL    HW120579   1.845   4.041  13.038
 6609SOL    HW220580   1.968   4.146  13.011
 6610SOL     OW20581   1.934   3.890  13.352
 6610SOL    HW120582   1.917   3.973  13.298
 6610SOL    HW220583   2.024   3.853  13.330
 6611SOL     OW20584   3.087   4.049  13.483
 6611SOL    HW120585   3.152   3.975  13.472
 6611SOL    HW220586   3.107   4.099  13.567
 6612SOL     OW20587   3.214   3.776  13.202
 6612SOL    HW120588   3.249   3.735  13.118
 6612SOL    HW220589   3.124   3.738  13.222
 6613SOL     OW20590   3.162   4.177  13.725
 6613SOL    HW120591   3.103   4.257  13.729
 6613SOL    HW220592   3.177   4.142  13.818
 6614SOL     OW20593   3.954   0.628   0.113
 6614SOL    HW120594   3.861   0.626   0.150
 6614SOL    HW220595   3.955   0.589   0.021
 6615SOL     OW20596   3.949   0.275   0.996
 6615SOL    HW120597   3.984   0.258   1.088
 6615SOL    HW220598   3.861   0.230   0.984
 6616SOL     OW20599   3.743   0.368   0.647
 6616SOL    HW120600   3.661   0.411   0.686
 6616SOL    HW220601   3.715   0.295   0.584
 6617SOL     OW20602   4.059   1.435   1.061
 6617SOL    HW120603   3.981   1.404   1.008
 6617SOL    HW220604   4.117   1.493   1.004
 6618SOL     OW20605   3.955   1.713   0.483
 6618SOL    HW120606   3.989   1.790   0.537
 6618SOL    HW220607   3.999   1.713   0.393
 6619SOL     OW20608   3.954   1.434   0.538
 6619SOL    HW120609   3.928   1.530   0.538
 6619SOL    HW220610   3.883   1.380   0.583
 6620SOL     OW20611   3.846   0.643   0.563
 6620SOL    HW120612   3.801   0.555   0.580
 6620SOL    HW220613   3.845   0.697   0.647
 6621SOL     OW20614   3.751   1.596   0.117
 6621SOL    HW120615   3.732   1.500   0.138
 6621SOL    HW220616   3.718   1.654   0.192
 6622SOL     OW20617   3.837   0.737   1.597
 6622SOL    HW120618   3.925   0.724   1.642
 6622SOL    HW220619   3.824   0.834   1.575
 6623SOL     OW20620   3.800   0.811   0.789
 6623SOL    HW120621   3.899   0.799   0.798
 6623SOL    HW220622   3.776   0.906   0.810
 6624SOL     OW20623   3.854   1.821   1.571
 6624SOL    HW120624   3.844   1.806   1.670
 6624SOL    HW220625   3.768   1.857   1.535
 6625SOL     OW20626   3.926   0.285   1.498
 6625SOL    HW120627   3.846   0.345   1.485
 6625SOL    HW220628   3.916   0.236   1.584
 6626SOL     OW20629   3.802   0.556   1.386
 6626SOL    HW120630   3.894   0.555   1.345
 6626SOL    HW220631   3.796   0.630   1.453
 6627SOL     OW20632   3.788   1.564   1.331
 6627SOL    HW120633   3.742   1.646   1.297
 6627SOL    HW220634   3.886   1.583   1.340
 6628SOL     OW20635   4.091   1.100   0.501
 6628SOL    HW120636   4.084   1.183   0.445
 6628SOL    HW220637   4.095   1.020   0.441
 6629SOL     OW20638   4.031   0.213   1.231
 6629SOL    HW120639   4.008   0.250   1.321
 6629SOL    HW220640   4.001   0.118   1.225
 6630SOL     OW20641   3.761   1.310   1.282
 6630SOL    HW120642   3.814   1.261   1.350
 6630SOL    HW220643   3.783   1.408   1.287
 6631SOL     OW20644   3.732   1.326   0.200
 6631SOL    HW120645   3.639   1.347   0.169
 6631SOL    HW220646   3.742   1.227   0.213
 6632SOL     OW20647   3.812   1.801   0.927
 6632SOL    HW120648   3.770   1.715   0.900
 6632SOL    HW220649   3.906   1.804   0.893
 6633SOL     OW20650   4.228   1.568   0.910
 6633SOL    HW120651   4.294   1.642   0.919
 6633SOL    HW220652   4.272   1.489   0.868
 6634SOL     OW20653   3.764   0.544   1.114
 6634SOL    HW120654   3.849   0.511   1.073
 6634SOL    HW220655   3.777   0.559   1.212
 6635SOL     OW20656   3.913   0.520   1.722
 6635SOL    HW120657   3.972   0.480   1.652
 6635SOL    HW220658   3.855   0.591   1.681
 6636SOL     OW20659   3.976   1.564   1.744
 6636SOL    HW120660   3.946   1.621   1.820
 6636SOL    HW220661   3.969   1.467   1.770
 6637SOL     OW20662   3.883   1.137   1.466
 6637SOL    HW120663   3.905   1.076   1.542
 6637SOL    HW220664   3.893   1.088   1.380
 6638SOL     OW20665   3.807   1.258   1.022
 6638SOL    HW120666   3.802   1.257   1.122
 6638SOL    HW220667   3.724   1.217   0.984
 6639SOL     OW20668   3.854   1.794   1.851
 6639SOL    HW120669   3.813   1.720   1.904
 6639SOL    HW220670   3.918   1.845   1.909
 6640SOL     OW20671   3.799   0.345   0.033
 6640SOL    HW120672   3.707   0.317   0.004
 6640SOL    HW220673   3.830   0.422  -0.023
 6641SOL     OW20674   3.796   0.166   0.318
 6641SOL    HW120675   3.779   0.249   0.264
 6641SOL    HW220676   3.886   0.129   0.296
 6642SOL     OW20677   3.803   1.240   0.653
 6642SOL    HW120678   3.802   1.193   0.741
 6642SOL    HW220679   3.885   1.212   0.602
 6643SOL     OW20680   3.763   1.077   0.300
 6643SOL    HW120681   3.862   1.066   0.291
 6643SOL    HW220682   3.723   0.991   0.332
 6644SOL     OW20683   3.954   0.628   1.975
 6644SOL    HW120684   3.861   0.626   2.012
 6644SOL    HW220685   3.955   0.589   1.883
 6645SOL     OW20686   3.949   0.275   2.858
 6645SOL    HW120687   3.984   0.258   2.950
 6645SOL    HW220688   3.861   0.230   2.846
 6646SOL     OW20689   3.743   0.368   2.509
 6646SOL    HW120690   3.661   0.411   2.548
 6646SOL    HW220691   3.715   0.295   2.446
 6647SOL     OW20692   4.059   1.435   2.923
 6647SOL    HW120693   3.981   1.404   2.870
 6647SOL    HW220694   4.117   1.493   2.866
 6648SOL     OW20695   3.955   1.713   2.345
 6648SOL    HW120696   3.989   1.790   2.399
 6648SOL    HW220697   3.999   1.713   2.255
 6649SOL     OW20698   3.954   1.434   2.400
 6649SOL    HW120699   3.928   1.530   2.400
 6649SOL    HW220700   3.883   1.380   2.445
 6650SOL     OW20701   3.846   0.643   2.425
 6650SOL    HW120702   3.801   0.555   2.442
 6650SOL    HW220703   3.845   0.697   2.509
 6651SOL     OW20704   3.751   1.596   1.979
 6651SOL    HW120705   3.732   1.500   2.000
 6651SOL    HW220706   3.718   1.654   2.054
 6652SOL     OW20707   3.837   0.737   3.459
 6652SOL    HW120708   3.925   0.724   3.504
 6652SOL    HW220709   3.824   0.834   3.437
 6653SOL     OW20710   3.800   0.811   2.651
 6653SOL    HW120711   3.899   0.799   2.660
 6653SOL    HW220712   3.776   0.906   2.672
 6654SOL     OW20713   3.854   1.821   3.433
 6654SOL    HW120714   3.844   1.806   3.532
 6654SOL    HW220715   3.768   1.857   3.397
 6655SOL     OW20716   3.926   0.285   3.360
 6655SOL    HW120717   3.846   0.345   3.347
 6655SOL    HW220718   3.916   0.236   3.446
 6656SOL     OW20719   3.802   0.556   3.248
 6656SOL    HW120720   3.894   0.555   3.207
 6656SOL    HW220721   3.796   0.630   3.315
 6657SOL     OW20722   4.251   0.256   2.190
 6657SOL    HW120723   4.278   0.197   2.115
 6657SOL    HW220724   4.251   0.351   2.159
 6658SOL     OW20725   3.788   1.564   3.193
 6658SOL    HW120726   3.742   1.646   3.159
 6658SOL    HW220727   3.886   1.583   3.202
 6659SOL     OW20728   4.091   1.100   2.363
 6659SOL    HW120729   4.084   1.183   2.307
 6659SOL    HW220730   4.095   1.020   2.303
 6660SOL     OW20731   4.031   0.213   3.093
 6660SOL    HW120732   4.008   0.250   3.183
 6660SOL    HW220733   4.001   0.118   3.087
 6661SOL     OW20734   3.761   1.310   3.144
 6661SOL    HW120735   3.814   1.261   3.212
 6661SOL    HW220736   3.783   1.408   3.149
 6662SOL     OW20737   3.732   1.326   2.062
 6662SOL    HW120738   3.639   1.347   2.031
 6662SOL    HW220739   3.742   1.227   2.075
 6663SOL     OW20740   3.812   1.801   2.789
 6663SOL    HW120741   3.770   1.715   2.762
 6663SOL    HW220742   3.906   1.804   2.755
 6664SOL     OW20743   4.228   1.568   2.772
 6664SOL    HW120744   4.294   1.642   2.781
 6664SOL    HW220745   4.272   1.489   2.730
 6665SOL     OW20746   3.764   0.544   2.976
 6665SOL    HW120747   3.849   0.511   2.935
 6665SOL    HW220748   3.777   0.559   3.074
 6666SOL     OW20749   3.913   0.520   3.584
 6666SOL    HW120750   3.972   0.480   3.514
 6666SOL    HW220751   3.855   0.591   3.543
 6667SOL     OW20752   3.976   1.564   3.606
 6667SOL    HW120753   3.946   1.621   3.682
 6667SOL    HW220754   3.969   1.467   3.632
 6668SOL     OW20755   3.883   1.137   3.328
 6668SOL    HW120756   3.905   1.076   3.404
 6668SOL    HW220757   3.893   1.088   3.242
 6669SOL     OW20758   3.807   1.258   2.884
 6669SOL    HW120759   3.802   1.257   2.984
 6669SOL    HW220760   3.724   1.217   2.846
 6670SOL     OW20761   3.854   1.794   3.713
 6670SOL    HW120762   3.813   1.720   3.766
 6670SOL    HW220763   3.918   1.845   3.771
 6671SOL     OW20764   3.799   0.345   1.895
 6671SOL    HW120765   3.707   0.317   1.866
 6671SOL    HW220766   3.830   0.422   1.839
 6672SOL     OW20767   3.796   0.166   2.180
 6672SOL    HW120768   3.779   0.249   2.126
 6672SOL    HW220769   3.886   0.129   2.158
 6673SOL     OW20770   3.803   1.240   2.515
 6673SOL    HW120771   3.802   1.193   2.603
 6673SOL    HW220772   3.885   1.212   2.464
 6674SOL     OW20773   3.763   1.077   2.162
 6674SOL    HW120774   3.862   1.066   2.153
 6674SOL    HW220775   3.723   0.991   2.194
 6675SOL     OW20776   3.954   0.628   3.837
 6675SOL    HW120777   3.861   0.626   3.874
 6675SOL    HW220778   3.955   0.589   3.745
 6676SOL     OW20779   3.949   0.275   4.720
 6676SOL    HW120780   3.984   0.258   4.812
 6676SOL    HW220781   3.861   0.230   4.708
 6677SOL     OW20782   3.743   0.368   4.371
 6677SOL    HW120783   3.661   0.411   4.410
 6677SOL    HW220784   3.715   0.295   4.308
 6678SOL     OW20785   4.059   1.435   4.785
 6678SOL    HW120786   3.981   1.404   4.732
 6678SOL    HW220787   4.117   1.493   4.728
 6679SOL     OW20788   3.955   1.713   4.207
 6679SOL    HW120789   3.989   1.790   4.261
 6679SOL    HW220790   3.999   1.713   4.117
 6680SOL     OW20791   3.954   1.434   4.262
 6680SOL    HW120792   3.928   1.530   4.262
 6680SOL    HW220793   3.883   1.380   4.307
 6681SOL     OW20794   3.846   0.643   4.287
 6681SOL    HW120795   3.801   0.555   4.304
 6681SOL    HW220796   3.845   0.697   4.371
 6682SOL     OW20797   3.751   1.596   3.841
 6682SOL    HW120798   3.732   1.500   3.862
 6682SOL    HW220799   3.718   1.654   3.916
 6683SOL     OW20800   3.837   0.737   5.321
 6683SOL    HW120801   3.925   0.724   5.366
 6683SOL    HW220802   3.824   0.834   5.299
 6684SOL     OW20803   3.800   0.811   4.513
 6684SOL    HW120804   3.899   0.799   4.522
 6684SOL    HW220805   3.776   0.906   4.534
 6685SOL     OW20806   3.854   1.821   5.295
 6685SOL    HW120807   3.844   1.806   5.394
 6685SOL    HW220808   3.768   1.857   5.259
 6686SOL     OW20809   3.926   0.285   5.222
 6686SOL    HW120810   3.846   0.345   5.209
 6686SOL    HW220811   3.916   0.236   5.308
 6687SOL     OW20812   3.802   0.556   5.110
 6687SOL    HW120813   3.894   0.555   5.069
 6687SOL    HW220814   3.796   0.630   5.177
 6688SOL     OW20815   4.251   0.256   4.052
 6688SOL    HW120816   4.278   0.197   3.977
 6688SOL    HW220817   4.251   0.351   4.021
 6689SOL     OW20818   3.788   1.564   5.055
 6689SOL    HW120819   3.742   1.646   5.021
 6689SOL    HW220820   3.886   1.583   5.064
 6690SOL     OW20821   4.091   1.100   4.225
 6690SOL    HW120822   4.084   1.183   4.169
 6690SOL    HW220823   4.095   1.020   4.165
 6691SOL     OW20824   4.031   0.213   4.955
 6691SOL    HW120825   4.008   0.250   5.045
 6691SOL    HW220826   4.001   0.118   4.949
 6692SOL     OW20827   3.761   1.310   5.006
 6692SOL    HW120828   3.814   1.261   5.074
 6692SOL    HW220829   3.783   1.408   5.011
 6693SOL     OW20830   3.732   1.326   3.924
 6693SOL    HW120831   3.639   1.347   3.893
 6693SOL    HW220832   3.742   1.227   3.937
 6694SOL     OW20833   3.812   1.801   4.651
 6694SOL    HW120834   3.770   1.715   4.624
 6694SOL    HW220835   3.906   1.804   4.617
 6695SOL     OW20836   4.228   1.568   4.634
 6695SOL    HW120837   4.294   1.642   4.643
 6695SOL    HW220838   4.272   1.489   4.592
 6696SOL     OW20839   3.764   0.544   4.838
 6696SOL    HW120840   3.849   0.511   4.797
 6696SOL    HW220841   3.777   0.559   4.936
 6697SOL     OW20842   3.913   0.520   5.446
 6697SOL    HW120843   3.972   0.480   5.376
 6697SOL    HW220844   3.855   0.591   5.405
 6698SOL     OW20845   3.976   1.564   5.468
 6698SOL    HW120846   3.946   1.621   5.544
 6698SOL    HW220847   3.969   1.467   5.494
 6699SOL     OW20848   3.883   1.137   5.190
 6699SOL    HW120849   3.905   1.076   5.266
 6699SOL    HW220850   3.893   1.088   5.104
 6700SOL     OW20851   3.807   1.258   4.746
 6700SOL    HW120852   3.802   1.257   4.846
 6700SOL    HW220853   3.724   1.217   4.708
 6701SOL     OW20854   3.854   1.794   5.575
 6701SOL    HW120855   3.813   1.720   5.628
 6701SOL    HW220856   3.918   1.845   5.633
 6702SOL     OW20857   3.799   0.345   3.757
 6702SOL    HW120858   3.707   0.317   3.728
 6702SOL    HW220859   3.830   0.422   3.701
 6703SOL     OW20860   3.796   0.166   4.042
 6703SOL    HW120861   3.779   0.249   3.988
 6703SOL    HW220862   3.886   0.129   4.020
 6704SOL     OW20863   3.803   1.240   4.377
 6704SOL    HW120864   3.802   1.193   4.465
 6704SOL    HW220865   3.885   1.212   4.326
 6705SOL     OW20866   3.763   1.077   4.024
 6705SOL    HW120867   3.862   1.066   4.015
 6705SOL    HW220868   3.723   0.991   4.056
 6706SOL     OW20869   3.954   0.628   5.699
 6706SOL    HW120870   3.861   0.626   5.736
 6706SOL    HW220871   3.955   0.589   5.607
 6707SOL     OW20872   3.949   0.275   6.582
 6707SOL    HW120873   3.984   0.258   6.674
 6707SOL    HW220874   3.861   0.230   6.570
 6708SOL     OW20875   3.743   0.368   6.233
 6708SOL    HW120876   3.661   0.411   6.272
 6708SOL    HW220877   3.715   0.295   6.170
 6709SOL     OW20878   4.059   1.435   6.647
 6709SOL    HW120879   3.981   1.404   6.594
 6709SOL    HW220880   4.117   1.493   6.590
 6710SOL     OW20881   3.955   1.713   6.069
 6710SOL    HW120882   3.989   1.790   6.123
 6710SOL    HW220883   3.999   1.713   5.979
 6711SOL     OW20884   3.954   1.434   6.124
 6711SOL    HW120885   3.928   1.530   6.124
 6711SOL    HW220886   3.883   1.380   6.169
 6712SOL     OW20887   3.846   0.643   6.149
 6712SOL    HW120888   3.801   0.555   6.166
 6712SOL    HW220889   3.845   0.697   6.233
 6713SOL     OW20890   3.751   1.596   5.703
 6713SOL    HW120891   3.732   1.500   5.724
 6713SOL    HW220892   3.718   1.654   5.778
 6714SOL     OW20893   3.837   0.737   7.183
 6714SOL    HW120894   3.925   0.724   7.228
 6714SOL    HW220895   3.824   0.834   7.161
 6715SOL     OW20896   3.800   0.811   6.375
 6715SOL    HW120897   3.899   0.799   6.384
 6715SOL    HW220898   3.776   0.906   6.396
 6716SOL     OW20899   3.854   1.821   7.157
 6716SOL    HW120900   3.844   1.806   7.256
 6716SOL    HW220901   3.768   1.857   7.121
 6717SOL     OW20902   3.926   0.285   7.084
 6717SOL    HW120903   3.846   0.345   7.071
 6717SOL    HW220904   3.916   0.236   7.170
 6718SOL     OW20905   3.802   0.556   6.972
 6718SOL    HW120906   3.894   0.555   6.931
 6718SOL    HW220907   3.796   0.630   7.039
 6719SOL     OW20908   4.251   0.256   5.914
 6719SOL    HW120909   4.278   0.197   5.839
 6719SOL    HW220910   4.251   0.351   5.883
 6720SOL     OW20911   3.788   1.564   6.917
 6720SOL    HW120912   3.742   1.646   6.883
 6720SOL    HW220913   3.886   1.583   6.926
 6721SOL     OW20914   4.091   1.100   6.087
 6721SOL    HW120915   4.084   1.183   6.031
 6721SOL    HW220916   4.095   1.020   6.027
 6722SOL     OW20917   4.031   0.213   6.817
 6722SOL    HW120918   4.008   0.250   6.907
 6722SOL    HW220919   4.001   0.118   6.811
 6723SOL     OW20920   3.761   1.310   6.868
 6723SOL    HW120921   3.814   1.261   6.936
 6723SOL    HW220922   3.783   1.408   6.873
 6724SOL     OW20923   3.732   1.326   5.786
 6724SOL    HW120924   3.639   1.347   5.755
 6724SOL    HW220925   3.742   1.227   5.799
 6725SOL     OW20926   3.812   1.801   6.513
 6725SOL    HW120927   3.770   1.715   6.486
 6725SOL    HW220928   3.906   1.804   6.479
 6726SOL     OW20929   4.228   1.568   6.496
 6726SOL    HW120930   4.294   1.642   6.505
 6726SOL    HW220931   4.272   1.489   6.454
 6727SOL     OW20932   3.764   0.544   6.700
 6727SOL    HW120933   3.849   0.511   6.659
 6727SOL    HW220934   3.777   0.559   6.798
 6728SOL     OW20935   3.913   0.520   7.308
 6728SOL    HW120936   3.972   0.480   7.238
 6728SOL    HW220937   3.855   0.591   7.267
 6729SOL     OW20938   3.976   1.564   7.330
 6729SOL    HW120939   3.946   1.621   7.406
 6729SOL    HW220940   3.969   1.467   7.356
 6730SOL     OW20941   3.883   1.137   7.052
 6730SOL    HW120942   3.905   1.076   7.128
 6730SOL    HW220943   3.893   1.088   6.966
 6731SOL     OW20944   3.807   1.258   6.608
 6731SOL    HW120945   3.802   1.257   6.708
 6731SOL    HW220946   3.724   1.217   6.570
 6732SOL     OW20947   3.854   1.794   7.437
 6732SOL    HW120948   3.813   1.720   7.490
 6732SOL    HW220949   3.918   1.845   7.495
 6733SOL     OW20950   3.799   0.345   5.619
 6733SOL    HW120951   3.707   0.317   5.590
 6733SOL    HW220952   3.830   0.422   5.563
 6734SOL     OW20953   3.796   0.166   5.904
 6734SOL    HW120954   3.779   0.249   5.850
 6734SOL    HW220955   3.886   0.129   5.882
 6735SOL     OW20956   3.803   1.240   6.239
 6735SOL    HW120957   3.802   1.193   6.327
 6735SOL    HW220958   3.885   1.212   6.188
 6736SOL     OW20959   3.763   1.077   5.886
 6736SOL    HW120960   3.862   1.066   5.877
 6736SOL    HW220961   3.723   0.991   5.918
 6737SOL     OW20962   3.954   0.628   7.561
 6737SOL    HW120963   3.861   0.626   7.598
 6737SOL    HW220964   3.955   0.589   7.469
 6738SOL     OW20965   3.949   0.275   8.444
 6738SOL    HW120966   3.984   0.258   8.536
 6738SOL    HW220967   3.861   0.230   8.432
 6739SOL     OW20968   3.743   0.368   8.095
 6739SOL    HW120969   3.661   0.411   8.134
 6739SOL    HW220970   3.715   0.295   8.032
 6740SOL     OW20971   4.059   1.435   8.509
 6740SOL    HW120972   3.981   1.404   8.456
 6740SOL    HW220973   4.117   1.493   8.452
 6741SOL     OW20974   3.955   1.713   7.931
 6741SOL    HW120975   3.989   1.790   7.985
 6741SOL    HW220976   3.999   1.713   7.841
 6742SOL     OW20977   3.954   1.434   7.986
 6742SOL    HW120978   3.928   1.530   7.986
 6742SOL    HW220979   3.883   1.380   8.031
 6743SOL     OW20980   3.846   0.643   8.011
 6743SOL    HW120981   3.801   0.555   8.028
 6743SOL    HW220982   3.845   0.697   8.095
 6744SOL     OW20983   3.751   1.596   7.565
 6744SOL    HW120984   3.732   1.500   7.586
 6744SOL    HW220985   3.718   1.654   7.640
 6745SOL     OW20986   3.837   0.737   9.045
 6745SOL    HW120987   3.925   0.724   9.090
 6745SOL    HW220988   3.824   0.834   9.023
 6746SOL     OW20989   3.800   0.811   8.237
 6746SOL    HW120990   3.899   0.799   8.246
 6746SOL    HW220991   3.776   0.906   8.258
 6747SOL     OW20992   3.854   1.821   9.019
 6747SOL    HW120993   3.844   1.806   9.118
 6747SOL    HW220994   3.768   1.857   8.983
 6748SOL     OW20995   3.926   0.285   8.946
 6748SOL    HW120996   3.846   0.345   8.933
 6748SOL    HW220997   3.916   0.236   9.032
 6749SOL     OW20998   3.802   0.556   8.834
 6749SOL    HW120999   3.894   0.555   8.793
 6749SOL    HW221000   3.796   0.630   8.901
 6750SOL     OW21001   4.251   0.256   7.776
 6750SOL    HW121002   4.278   0.197   7.701
 6750SOL    HW221003   4.251   0.351   7.745
 6751SOL     OW21004   3.788   1.564   8.779
 6751SOL    HW121005   3.742   1.646   8.745
 6751SOL    HW221006   3.886   1.583   8.788
 6752SOL     OW21007   4.091   1.100   7.949
 6752SOL    HW121008   4.084   1.183   7.893
 6752SOL    HW221009   4.095   1.020   7.889
 6753SOL     OW21010   4.031   0.213   8.679
 6753SOL    HW121011   4.008   0.250   8.769
 6753SOL    HW221012   4.001   0.118   8.673
 6754SOL     OW21013   3.761   1.310   8.730
 6754SOL    HW121014   3.814   1.261   8.798
 6754SOL    HW221015   3.783   1.408   8.735
 6755SOL     OW21016   3.732   1.326   7.648
 6755SOL    HW121017   3.639   1.347   7.617
 6755SOL    HW221018   3.742   1.227   7.661
 6756SOL     OW21019   3.812   1.801   8.375
 6756SOL    HW121020   3.770   1.715   8.348
 6756SOL    HW221021   3.906   1.804   8.341
 6757SOL     OW21022   4.228   1.568   8.358
 6757SOL    HW121023   4.294   1.642   8.367
 6757SOL    HW221024   4.272   1.489   8.316
 6758SOL     OW21025   3.764   0.544   8.562
 6758SOL    HW121026   3.849   0.511   8.521
 6758SOL    HW221027   3.777   0.559   8.660
 6759SOL     OW21028   3.913   0.520   9.170
 6759SOL    HW121029   3.972   0.480   9.100
 6759SOL    HW221030   3.855   0.591   9.129
 6760SOL     OW21031   3.976   1.564   9.192
 6760SOL    HW121032   3.946   1.621   9.268
 6760SOL    HW221033   3.969   1.467   9.218
 6761SOL     OW21034   3.883   1.137   8.914
 6761SOL    HW121035   3.905   1.076   8.990
 6761SOL    HW221036   3.893   1.088   8.828
 6762SOL     OW21037   3.807   1.258   8.470
 6762SOL    HW121038   3.802   1.257   8.570
 6762SOL    HW221039   3.724   1.217   8.432
 6763SOL     OW21040   3.854   1.794   9.299
 6763SOL    HW121041   3.813   1.720   9.352
 6763SOL    HW221042   3.918   1.845   9.357
 6764SOL     OW21043   3.799   0.345   7.481
 6764SOL    HW121044   3.707   0.317   7.452
 6764SOL    HW221045   3.830   0.422   7.425
 6765SOL     OW21046   3.796   0.166   7.766
 6765SOL    HW121047   3.779   0.249   7.712
 6765SOL    HW221048   3.886   0.129   7.744
 6766SOL     OW21049   3.803   1.240   8.101
 6766SOL    HW121050   3.802   1.193   8.189
 6766SOL    HW221051   3.885   1.212   8.050
 6767SOL     OW21052   3.763   1.077   7.748
 6767SOL    HW121053   3.862   1.066   7.739
 6767SOL    HW221054   3.723   0.991   7.780
 6768SOL     OW21055   3.954   0.628   9.423
 6768SOL    HW121056   3.861   0.626   9.460
 6768SOL    HW221057   3.955   0.589   9.331
 6769SOL     OW21058   3.949   0.275  10.306
 6769SOL    HW121059   3.984   0.258  10.398
 6769SOL    HW221060   3.861   0.230  10.294
 6770SOL     OW21061   3.743   0.368   9.957
 6770SOL    HW121062   3.661   0.411   9.996
 6770SOL    HW221063   3.715   0.295   9.894
 6771SOL     OW21064   4.059   1.435  10.371
 6771SOL    HW121065   3.981   1.404  10.318
 6771SOL    HW221066   4.117   1.493  10.314
 6772SOL     OW21067   3.955   1.713   9.793
 6772SOL    HW121068   3.989   1.790   9.847
 6772SOL    HW221069   3.999   1.713   9.703
 6773SOL     OW21070   3.954   1.434   9.848
 6773SOL    HW121071   3.928   1.530   9.848
 6773SOL    HW221072   3.883   1.380   9.893
 6774SOL     OW21073   3.846   0.643   9.873
 6774SOL    HW121074   3.801   0.555   9.890
 6774SOL    HW221075   3.845   0.697   9.957
 6775SOL     OW21076   3.751   1.596   9.427
 6775SOL    HW121077   3.732   1.500   9.448
 6775SOL    HW221078   3.718   1.654   9.502
 6776SOL     OW21079   3.837   0.737  10.907
 6776SOL    HW121080   3.925   0.724  10.952
 6776SOL    HW221081   3.824   0.834  10.885
 6777SOL     OW21082   3.800   0.811  10.099
 6777SOL    HW121083   3.899   0.799  10.108
 6777SOL    HW221084   3.776   0.906  10.120
 6778SOL     OW21085   3.854   1.821  10.881
 6778SOL    HW121086   3.844   1.806  10.980
 6778SOL    HW221087   3.768   1.857  10.845
 6779SOL     OW21088   3.926   0.285  10.808
 6779SOL    HW121089   3.846   0.345  10.795
 6779SOL    HW221090   3.916   0.236  10.894
 6780SOL     OW21091   3.802   0.556  10.696
 6780SOL    HW121092   3.894   0.555  10.655
 6780SOL    HW221093   3.796   0.630  10.763
 6781SOL     OW21094   4.251   0.256   9.638
 6781SOL    HW121095   4.278   0.197   9.563
 6781SOL    HW221096   4.251   0.351   9.607
 6782SOL     OW21097   3.788   1.564  10.641
 6782SOL    HW121098   3.742   1.646  10.607
 6782SOL    HW221099   3.886   1.583  10.650
 6783SOL     OW21100   4.091   1.100   9.811
 6783SOL    HW121101   4.084   1.183   9.755
 6783SOL    HW221102   4.095   1.020   9.751
 6784SOL     OW21103   4.031   0.213  10.541
 6784SOL    HW121104   4.008   0.250  10.631
 6784SOL    HW221105   4.001   0.118  10.535
 6785SOL     OW21106   3.761   1.310  10.592
 6785SOL    HW121107   3.814   1.261  10.660
 6785SOL    HW221108   3.783   1.408  10.597
 6786SOL     OW21109   3.732   1.326   9.510
 6786SOL    HW121110   3.639   1.347   9.479
 6786SOL    HW221111   3.742   1.227   9.523
 6787SOL     OW21112   3.812   1.801  10.237
 6787SOL    HW121113   3.770   1.715  10.210
 6787SOL    HW221114   3.906   1.804  10.203
 6788SOL     OW21115   4.228   1.568  10.220
 6788SOL    HW121116   4.294   1.642  10.229
 6788SOL    HW221117   4.272   1.489  10.178
 6789SOL     OW21118   3.764   0.544  10.424
 6789SOL    HW121119   3.849   0.511  10.383
 6789SOL    HW221120   3.777   0.559  10.522
 6790SOL     OW21121   3.913   0.520  11.032
 6790SOL    HW121122   3.972   0.480  10.962
 6790SOL    HW221123   3.855   0.591  10.991
 6791SOL     OW21124   3.976   1.564  11.054
 6791SOL    HW121125   3.946   1.621  11.130
 6791SOL    HW221126   3.969   1.467  11.080
 6792SOL     OW21127   3.883   1.137  10.776
 6792SOL    HW121128   3.905   1.076  10.852
 6792SOL    HW221129   3.893   1.088  10.690
 6793SOL     OW21130   3.807   1.258  10.332
 6793SOL    HW121131   3.802   1.257  10.432
 6793SOL    HW221132   3.724   1.217  10.294
 6794SOL     OW21133   3.854   1.794  11.161
 6794SOL    HW121134   3.813   1.720  11.214
 6794SOL    HW221135   3.918   1.845  11.219
 6795SOL     OW21136   3.799   0.345   9.343
 6795SOL    HW121137   3.707   0.317   9.314
 6795SOL    HW221138   3.830   0.422   9.287
 6796SOL     OW21139   3.796   0.166   9.628
 6796SOL    HW121140   3.779   0.249   9.574
 6796SOL    HW221141   3.886   0.129   9.606
 6797SOL     OW21142   3.803   1.240   9.963
 6797SOL    HW121143   3.802   1.193  10.051
 6797SOL    HW221144   3.885   1.212   9.912
 6798SOL     OW21145   3.763   1.077   9.610
 6798SOL    HW121146   3.862   1.066   9.601
 6798SOL    HW221147   3.723   0.991   9.642
 6799SOL     OW21148   3.954   0.628  11.285
 6799SOL    HW121149   3.861   0.626  11.322
 6799SOL    HW221150   3.955   0.589  11.193
 6800SOL     OW21151   3.949   0.275  12.168
 6800SOL    HW121152   3.984   0.258  12.260
 6800SOL    HW221153   3.861   0.230  12.156
 6801SOL     OW21154   3.743   0.368  11.819
 6801SOL    HW121155   3.661   0.411  11.858
 6801SOL    HW221156   3.715   0.295  11.756
 6802SOL     OW21157   4.059   1.435  12.233
 6802SOL    HW121158   3.981   1.404  12.180
 6802SOL    HW221159   4.117   1.493  12.176
 6803SOL     OW21160   3.955   1.713  11.655
 6803SOL    HW121161   3.989   1.790  11.709
 6803SOL    HW221162   3.999   1.713  11.565
 6804SOL     OW21163   3.954   1.434  11.710
 6804SOL    HW121164   3.928   1.530  11.710
 6804SOL    HW221165   3.883   1.380  11.755
 6805SOL     OW21166   3.846   0.643  11.735
 6805SOL    HW121167   3.801   0.555  11.752
 6805SOL    HW221168   3.845   0.697  11.819
 6806SOL     OW21169   3.751   1.596  11.289
 6806SOL    HW121170   3.732   1.500  11.310
 6806SOL    HW221171   3.718   1.654  11.364
 6807SOL     OW21172   3.837   0.737  12.769
 6807SOL    HW121173   3.925   0.724  12.814
 6807SOL    HW221174   3.824   0.834  12.747
 6808SOL     OW21175   3.800   0.811  11.961
 6808SOL    HW121176   3.899   0.799  11.970
 6808SOL    HW221177   3.776   0.906  11.982
 6809SOL     OW21178   3.854   1.821  12.743
 6809SOL    HW121179   3.844   1.806  12.842
 6809SOL    HW221180   3.768   1.857  12.707
 6810SOL     OW21181   3.926   0.285  12.670
 6810SOL    HW121182   3.846   0.345  12.657
 6810SOL    HW221183   3.916   0.236  12.756
 6811SOL     OW21184   3.802   0.556  12.558
 6811SOL    HW121185   3.894   0.555  12.517
 6811SOL    HW221186   3.796   0.630  12.625
 6812SOL     OW21187   4.251   0.256  11.500
 6812SOL    HW121188   4.278   0.197  11.425
 6812SOL    HW221189   4.251   0.351  11.469
 6813SOL     OW21190   3.788   1.564  12.503
 6813SOL    HW121191   3.742   1.646  12.469
 6813SOL    HW221192   3.886   1.583  12.512
 6814SOL     OW21193   4.091   1.100  11.673
 6814SOL    HW121194   4.084   1.183  11.617
 6814SOL    HW221195   4.095   1.020  11.613
 6815SOL     OW21196   4.031   0.213  12.403
 6815SOL    HW121197   4.008   0.250  12.493
 6815SOL    HW221198   4.001   0.118  12.397
 6816SOL     OW21199   3.761   1.310  12.454
 6816SOL    HW121200   3.814   1.261  12.522
 6816SOL    HW221201   3.783   1.408  12.459
 6817SOL     OW21202   3.732   1.326  11.372
 6817SOL    HW121203   3.639   1.347  11.341
 6817SOL    HW221204   3.742   1.227  11.385
 6818SOL     OW21205   3.812   1.801  12.099
 6818SOL    HW121206   3.770   1.715  12.072
 6818SOL    HW221207   3.906   1.804  12.065
 6819SOL     OW21208   4.228   1.568  12.082
 6819SOL    HW121209   4.294   1.642  12.091
 6819SOL    HW221210   4.272   1.489  12.040
 6820SOL     OW21211   3.764   0.544  12.286
 6820SOL    HW121212   3.849   0.511  12.245
 6820SOL    HW221213   3.777   0.559  12.384
 6821SOL     OW21214   3.913   0.520  12.894
 6821SOL    HW121215   3.972   0.480  12.824
 6821SOL    HW221216   3.855   0.591  12.853
 6822SOL     OW21217   3.976   1.564  12.916
 6822SOL    HW121218   3.946   1.621  12.992
 6822SOL    HW221219   3.969   1.467  12.942
 6823SOL     OW21220   3.883   1.137  12.638
 6823SOL    HW121221   3.905   1.076  12.714
 6823SOL    HW221222   3.893   1.088  12.552
 6824SOL     OW21223   3.807   1.258  12.194
 6824SOL    HW121224   3.802   1.257  12.294
 6824SOL    HW221225   3.724   1.217  12.156
 6825SOL     OW21226   3.854   1.794  13.023
 6825SOL    HW121227   3.813   1.720  13.076
 6825SOL    HW221228   3.918   1.845  13.081
 6826SOL     OW21229   3.799   0.345  11.205
 6826SOL    HW121230   3.707   0.317  11.176
 6826SOL    HW221231   3.830   0.422  11.149
 6827SOL     OW21232   3.796   0.166  11.490
 6827SOL    HW121233   3.779   0.249  11.436
 6827SOL    HW221234   3.886   0.129  11.468
 6828SOL     OW21235   3.803   1.240  11.825
 6828SOL    HW121236   3.802   1.193  11.913
 6828SOL    HW221237   3.885   1.212  11.774
 6829SOL     OW21238   3.763   1.077  11.472
 6829SOL    HW121239   3.862   1.066  11.463
 6829SOL    HW221240   3.723   0.991  11.504
 6830SOL     OW21241   3.954   0.628  13.147
 6830SOL    HW121242   3.861   0.626  13.184
 6830SOL    HW221243   3.955   0.589  13.055
 6831SOL     OW21244   3.743   0.368  13.681
 6831SOL    HW121245   3.661   0.411  13.720
 6831SOL    HW221246   3.715   0.295  13.618
 6832SOL     OW21247   3.955   1.713  13.517
 6832SOL    HW121248   3.989   1.790  13.571
 6832SOL    HW221249   3.999   1.713  13.427
 6833SOL     OW21250   3.954   1.434  13.572
 6833SOL    HW121251   3.928   1.530  13.572
 6833SOL    HW221252   3.883   1.380  13.617
 6834SOL     OW21253   3.964   1.091  13.920
 6834SOL    HW121254   3.978   1.007  13.972
 6834SOL    HW221255   3.909   1.155  13.975
 6835SOL     OW21256   3.846   0.643  13.597
 6835SOL    HW121257   3.801   0.555  13.614
 6835SOL    HW221258   3.845   0.697  13.681
 6836SOL     OW21259   3.751   1.596  13.151
 6836SOL    HW121260   3.732   1.500  13.172
 6836SOL    HW221261   3.718   1.654  13.226
 6837SOL     OW21262   3.800   0.811  13.823
 6837SOL    HW121263   3.899   0.799  13.832
 6837SOL    HW221264   3.776   0.906  13.844
 6838SOL     OW21265   4.075   1.801  13.887
 6838SOL    HW121266   4.125   1.715  13.893
 6838SOL    HW221267   4.140   1.878  13.884
 6839SOL     OW21268   4.251   0.256  13.362
 6839SOL    HW121269   4.278   0.197  13.287
 6839SOL    HW221270   4.251   0.351  13.331
 6840SOL     OW21271   4.091   1.100  13.535
 6840SOL    HW121272   4.084   1.183  13.479
 6840SOL    HW221273   4.095   1.020  13.475
 6841SOL     OW21274   3.732   1.326  13.234
 6841SOL    HW121275   3.639   1.347  13.203
 6841SOL    HW221276   3.742   1.227  13.247
 6842SOL     OW21277   4.228   1.568  13.944
 6842SOL    HW121278   4.294   1.642  13.953
 6842SOL    HW221279   4.272   1.489  13.902
 6843SOL     OW21280   3.799   0.345  13.067
 6843SOL    HW121281   3.707   0.317  13.038
 6843SOL    HW221282   3.830   0.422  13.011
 6844SOL     OW21283   3.796   0.166  13.352
 6844SOL    HW121284   3.779   0.249  13.298
 6844SOL    HW221285   3.886   0.129  13.330
 6845SOL     OW21286   3.803   1.240  13.687
 6845SOL    HW121287   3.802   1.193  13.775
 6845SOL    HW221288   3.885   1.212  13.636
 6846SOL     OW21289   3.763   1.077  13.334
 6846SOL    HW121290   3.862   1.066  13.325
 6846SOL    HW221291   3.723   0.991  13.366
 6847SOL     OW21292   3.954   2.490   0.113
 6847SOL    HW121293   3.861   2.488   0.150
 6847SOL    HW221294   3.955   2.451   0.021
 6848SOL     OW21295   3.949   2.137   0.996
 6848SOL    HW121296   3.984   2.120   1.088
 6848SOL    HW221297   3.861   2.092   0.984
 6849SOL     OW21298   3.743   2.230   0.647
 6849SOL    HW121299   3.661   2.273   0.686
 6849SOL    HW221300   3.715   2.157   0.584
 6850SOL     OW21301   4.059   3.297   1.061
 6850SOL    HW121302   3.981   3.266   1.008
 6850SOL    HW221303   4.117   3.355   1.004
 6851SOL     OW21304   3.955   3.575   0.483
 6851SOL    HW121305   3.989   3.652   0.537
 6851SOL    HW221306   3.999   3.575   0.393
 6852SOL     OW21307   3.954   3.296   0.538
 6852SOL    HW121308   3.928   3.392   0.538
 6852SOL    HW221309   3.883   3.242   0.583
 6853SOL     OW21310   3.846   2.505   0.563
 6853SOL    HW121311   3.801   2.417   0.580
 6853SOL    HW221312   3.845   2.559   0.647
 6854SOL     OW21313   3.751   3.458   0.117
 6854SOL    HW121314   3.732   3.362   0.138
 6854SOL    HW221315   3.718   3.516   0.192
 6855SOL     OW21316   3.837   2.599   1.597
 6855SOL    HW121317   3.925   2.586   1.642
 6855SOL    HW221318   3.824   2.696   1.575
 6856SOL     OW21319   3.800   2.673   0.789
 6856SOL    HW121320   3.899   2.661   0.798
 6856SOL    HW221321   3.776   2.768   0.810
 6857SOL     OW21322   3.854   3.683   1.571
 6857SOL    HW121323   3.844   3.668   1.670
 6857SOL    HW221324   3.768   3.719   1.535
 6858SOL     OW21325   3.926   2.147   1.498
 6858SOL    HW121326   3.846   2.207   1.485
 6858SOL    HW221327   3.916   2.098   1.584
 6859SOL     OW21328   3.802   2.418   1.386
 6859SOL    HW121329   3.894   2.417   1.345
 6859SOL    HW221330   3.796   2.492   1.453
 6860SOL     OW21331   3.788   3.426   1.331
 6860SOL    HW121332   3.742   3.508   1.297
 6860SOL    HW221333   3.886   3.445   1.340
 6861SOL     OW21334   4.091   2.962   0.501
 6861SOL    HW121335   4.084   3.045   0.445
 6861SOL    HW221336   4.095   2.882   0.441
 6862SOL     OW21337   4.031   2.075   1.231
 6862SOL    HW121338   4.008   2.112   1.321
 6862SOL    HW221339   4.001   1.980   1.225
 6863SOL     OW21340   3.761   3.172   1.282
 6863SOL    HW121341   3.814   3.123   1.350
 6863SOL    HW221342   3.783   3.270   1.287
 6864SOL     OW21343   4.031   1.925   0.618
 6864SOL    HW121344   4.020   2.019   0.651
 6864SOL    HW221345   4.026   1.862   0.695
 6865SOL     OW21346   3.732   3.188   0.200
 6865SOL    HW121347   3.639   3.209   0.169
 6865SOL    HW221348   3.742   3.089   0.213
 6866SOL     OW21349   3.812   3.663   0.927
 6866SOL    HW121350   3.770   3.577   0.900
 6866SOL    HW221351   3.906   3.666   0.893
 6867SOL     OW21352   4.228   3.430   0.910
 6867SOL    HW121353   4.294   3.504   0.919
 6867SOL    HW221354   4.272   3.351   0.868
 6868SOL     OW21355   3.764   2.406   1.114
 6868SOL    HW121356   3.849   2.373   1.073
 6868SOL    HW221357   3.777   2.421   1.212
 6869SOL     OW21358   3.913   2.382   1.722
 6869SOL    HW121359   3.972   2.342   1.652
 6869SOL    HW221360   3.855   2.453   1.681
 6870SOL     OW21361   3.976   3.426   1.744
 6870SOL    HW121362   3.946   3.483   1.820
 6870SOL    HW221363   3.969   3.329   1.770
 6871SOL     OW21364   3.883   2.999   1.466
 6871SOL    HW121365   3.905   2.938   1.542
 6871SOL    HW221366   3.893   2.950   1.380
 6872SOL     OW21367   3.807   3.120   1.022
 6872SOL    HW121368   3.802   3.119   1.122
 6872SOL    HW221369   3.724   3.079   0.984
 6873SOL     OW21370   3.854   3.656   1.851
 6873SOL    HW121371   3.813   3.582   1.904
 6873SOL    HW221372   3.918   3.707   1.909
 6874SOL     OW21373   3.799   2.207   0.033
 6874SOL    HW121374   3.707   2.179   0.004
 6874SOL    HW221375   3.830   2.284  -0.023
 6875SOL     OW21376   3.796   2.028   0.318
 6875SOL    HW121377   3.779   2.111   0.264
 6875SOL    HW221378   3.886   1.991   0.296
 6876SOL     OW21379   3.803   3.102   0.653
 6876SOL    HW121380   3.802   3.055   0.741
 6876SOL    HW221381   3.885   3.074   0.602
 6877SOL     OW21382   3.763   2.939   0.300
 6877SOL    HW121383   3.862   2.928   0.291
 6877SOL    HW221384   3.723   2.853   0.332
 6878SOL     OW21385   3.954   2.490   1.975
 6878SOL    HW121386   3.861   2.488   2.012
 6878SOL    HW221387   3.955   2.451   1.883
 6879SOL     OW21388   3.949   2.137   2.858
 6879SOL    HW121389   3.984   2.120   2.950
 6879SOL    HW221390   3.861   2.092   2.846
 6880SOL     OW21391   3.743   2.230   2.509
 6880SOL    HW121392   3.661   2.273   2.548
 6880SOL    HW221393   3.715   2.157   2.446
 6881SOL     OW21394   4.059   3.297   2.923
 6881SOL    HW121395   3.981   3.266   2.870
 6881SOL    HW221396   4.117   3.355   2.866
 6882SOL     OW21397   3.955   3.575   2.345
 6882SOL    HW121398   3.989   3.652   2.399
 6882SOL    HW221399   3.999   3.575   2.255
 6883SOL     OW21400   3.954   3.296   2.400
 6883SOL    HW121401   3.928   3.392   2.400
 6883SOL    HW221402   3.883   3.242   2.445
 6884SOL     OW21403   3.846   2.505   2.425
 6884SOL    HW121404   3.801   2.417   2.442
 6884SOL    HW221405   3.845   2.559   2.509
 6885SOL     OW21406   3.751   3.458   1.979
 6885SOL    HW121407   3.732   3.362   2.000
 6885SOL    HW221408   3.718   3.516   2.054
 6886SOL     OW21409   3.837   2.599   3.459
 6886SOL    HW121410   3.925   2.586   3.504
 6886SOL    HW221411   3.824   2.696   3.437
 6887SOL     OW21412   3.800   2.673   2.651
 6887SOL    HW121413   3.899   2.661   2.660
 6887SOL    HW221414   3.776   2.768   2.672
 6888SOL     OW21415   3.854   3.683   3.433
 6888SOL    HW121416   3.844   3.668   3.532
 6888SOL    HW221417   3.768   3.719   3.397
 6889SOL     OW21418   3.926   2.147   3.360
 6889SOL    HW121419   3.846   2.207   3.347
 6889SOL    HW221420   3.916   2.098   3.446
 6890SOL     OW21421   4.021   1.897   2.033
 6890SOL    HW121422   4.070   1.981   2.012
 6890SOL    HW221423   4.083   1.832   2.078
 6891SOL     OW21424   3.802   2.418   3.248
 6891SOL    HW121425   3.894   2.417   3.207
 6891SOL    HW221426   3.796   2.492   3.315
 6892SOL     OW21427   4.251   2.118   2.190
 6892SOL    HW121428   4.278   2.059   2.115
 6892SOL    HW221429   4.251   2.213   2.159
 6893SOL     OW21430   3.788   3.426   3.193
 6893SOL    HW121431   3.742   3.508   3.159
 6893SOL    HW221432   3.886   3.445   3.202
 6894SOL     OW21433   4.091   2.962   2.363
 6894SOL    HW121434   4.084   3.045   2.307
 6894SOL    HW221435   4.095   2.882   2.303
 6895SOL     OW21436   4.031   2.075   3.093
 6895SOL    HW121437   4.008   2.112   3.183
 6895SOL    HW221438   4.001   1.980   3.087
 6896SOL     OW21439   3.761   3.172   3.144
 6896SOL    HW121440   3.814   3.123   3.212
 6896SOL    HW221441   3.783   3.270   3.149
 6897SOL     OW21442   4.031   1.925   2.480
 6897SOL    HW121443   4.020   2.019   2.513
 6897SOL    HW221444   4.026   1.862   2.557
 6898SOL     OW21445   3.732   3.188   2.062
 6898SOL    HW121446   3.639   3.209   2.031
 6898SOL    HW221447   3.742   3.089   2.075
 6899SOL     OW21448   3.812   3.663   2.789
 6899SOL    HW121449   3.770   3.577   2.762
 6899SOL    HW221450   3.906   3.666   2.755
 6900SOL     OW21451   4.228   3.430   2.772
 6900SOL    HW121452   4.294   3.504   2.781
 6900SOL    HW221453   4.272   3.351   2.730
 6901SOL     OW21454   3.764   2.406   2.976
 6901SOL    HW121455   3.849   2.373   2.935
 6901SOL    HW221456   3.777   2.421   3.074
 6902SOL     OW21457   3.913   2.382   3.584
 6902SOL    HW121458   3.972   2.342   3.514
 6902SOL    HW221459   3.855   2.453   3.543
 6903SOL     OW21460   3.976   3.426   3.606
 6903SOL    HW121461   3.946   3.483   3.682
 6903SOL    HW221462   3.969   3.329   3.632
 6904SOL     OW21463   3.883   2.999   3.328
 6904SOL    HW121464   3.905   2.938   3.404
 6904SOL    HW221465   3.893   2.950   3.242
 6905SOL     OW21466   3.807   3.120   2.884
 6905SOL    HW121467   3.802   3.119   2.984
 6905SOL    HW221468   3.724   3.079   2.846
 6906SOL     OW21469   3.854   3.656   3.713
 6906SOL    HW121470   3.813   3.582   3.766
 6906SOL    HW221471   3.918   3.707   3.771
 6907SOL     OW21472   3.799   2.207   1.895
 6907SOL    HW121473   3.707   2.179   1.866
 6907SOL    HW221474   3.830   2.284   1.839
 6908SOL     OW21475   3.796   2.028   2.180
 6908SOL    HW121476   3.779   2.111   2.126
 6908SOL    HW221477   3.886   1.991   2.158
 6909SOL     OW21478   3.803   3.102   2.515
 6909SOL    HW121479   3.802   3.055   2.603
 6909SOL    HW221480   3.885   3.074   2.464
 6910SOL     OW21481   3.763   2.939   2.162
 6910SOL    HW121482   3.862   2.928   2.153
 6910SOL    HW221483   3.723   2.853   2.194
 6911SOL     OW21484   3.954   2.490   3.837
 6911SOL    HW121485   3.861   2.488   3.874
 6911SOL    HW221486   3.955   2.451   3.745
 6912SOL     OW21487   3.949   2.137   4.720
 6912SOL    HW121488   3.984   2.120   4.812
 6912SOL    HW221489   3.861   2.092   4.708
 6913SOL     OW21490   3.743   2.230   4.371
 6913SOL    HW121491   3.661   2.273   4.410
 6913SOL    HW221492   3.715   2.157   4.308
 6914SOL     OW21493   4.059   3.297   4.785
 6914SOL    HW121494   3.981   3.266   4.732
 6914SOL    HW221495   4.117   3.355   4.728
 6915SOL     OW21496   3.955   3.575   4.207
 6915SOL    HW121497   3.989   3.652   4.261
 6915SOL    HW221498   3.999   3.575   4.117
 6916SOL     OW21499   3.954   3.296   4.262
 6916SOL    HW121500   3.928   3.392   4.262
 6916SOL    HW221501   3.883   3.242   4.307
 6917SOL     OW21502   3.846   2.505   4.287
 6917SOL    HW121503   3.801   2.417   4.304
 6917SOL    HW221504   3.845   2.559   4.371
 6918SOL     OW21505   3.751   3.458   3.841
 6918SOL    HW121506   3.732   3.362   3.862
 6918SOL    HW221507   3.718   3.516   3.916
 6919SOL     OW21508   3.837   2.599   5.321
 6919SOL    HW121509   3.925   2.586   5.366
 6919SOL    HW221510   3.824   2.696   5.299
 6920SOL     OW21511   3.800   2.673   4.513
 6920SOL    HW121512   3.899   2.661   4.522
 6920SOL    HW221513   3.776   2.768   4.534
 6921SOL     OW21514   3.854   3.683   5.295
 6921SOL    HW121515   3.844   3.668   5.394
 6921SOL    HW221516   3.768   3.719   5.259
 6922SOL     OW21517   3.926   2.147   5.222
 6922SOL    HW121518   3.846   2.207   5.209
 6922SOL    HW221519   3.916   2.098   5.308
 6923SOL     OW21520   4.021   1.897   3.895
 6923SOL    HW121521   4.070   1.981   3.874
 6923SOL    HW221522   4.083   1.832   3.940
 6924SOL     OW21523   3.802   2.418   5.110
 6924SOL    HW121524   3.894   2.417   5.069
 6924SOL    HW221525   3.796   2.492   5.177
 6925SOL     OW21526   4.251   2.118   4.052
 6925SOL    HW121527   4.278   2.059   3.977
 6925SOL    HW221528   4.251   2.213   4.021
 6926SOL     OW21529   3.788   3.426   5.055
 6926SOL    HW121530   3.742   3.508   5.021
 6926SOL    HW221531   3.886   3.445   5.064
 6927SOL     OW21532   4.091   2.962   4.225
 6927SOL    HW121533   4.084   3.045   4.169
 6927SOL    HW221534   4.095   2.882   4.165
 6928SOL     OW21535   4.031   2.075   4.955
 6928SOL    HW121536   4.008   2.112   5.045
 6928SOL    HW221537   4.001   1.980   4.949
 6929SOL     OW21538   3.761   3.172   5.006
 6929SOL    HW121539   3.814   3.123   5.074
 6929SOL    HW221540   3.783   3.270   5.011
 6930SOL     OW21541   4.031   1.925   4.342
 6930SOL    HW121542   4.020   2.019   4.375
 6930SOL    HW221543   4.026   1.862   4.419
 6931SOL     OW21544   3.732   3.188   3.924
 6931SOL    HW121545   3.639   3.209   3.893
 6931SOL    HW221546   3.742   3.089   3.937
 6932SOL     OW21547   3.812   3.663   4.651
 6932SOL    HW121548   3.770   3.577   4.624
 6932SOL    HW221549   3.906   3.666   4.617
 6933SOL     OW21550   4.228   3.430   4.634
 6933SOL    HW121551   4.294   3.504   4.643
 6933SOL    HW221552   4.272   3.351   4.592
 6934SOL     OW21553   3.764   2.406   4.838
 6934SOL    HW121554   3.849   2.373   4.797
 6934SOL    HW221555   3.777   2.421   4.936
 6935SOL     OW21556   3.913   2.382   5.446
 6935SOL    HW121557   3.972   2.342   5.376
 6935SOL    HW221558   3.855   2.453   5.405
 6936SOL     OW21559   3.976   3.426   5.468
 6936SOL    HW121560   3.946   3.483   5.544
 6936SOL    HW221561   3.969   3.329   5.494
 6937SOL     OW21562   3.883   2.999   5.190
 6937SOL    HW121563   3.905   2.938   5.266
 6937SOL    HW221564   3.893   2.950   5.104
 6938SOL     OW21565   3.807   3.120   4.746
 6938SOL    HW121566   3.802   3.119   4.846
 6938SOL    HW221567   3.724   3.079   4.708
 6939SOL     OW21568   3.854   3.656   5.575
 6939SOL    HW121569   3.813   3.582   5.628
 6939SOL    HW221570   3.918   3.707   5.633
 6940SOL     OW21571   3.799   2.207   3.757
 6940SOL    HW121572   3.707   2.179   3.728
 6940SOL    HW221573   3.830   2.284   3.701
 6941SOL     OW21574   3.796   2.028   4.042
 6941SOL    HW121575   3.779   2.111   3.988
 6941SOL    HW221576   3.886   1.991   4.020
 6942SOL     OW21577   3.803   3.102   4.377
 6942SOL    HW121578   3.802   3.055   4.465
 6942SOL    HW221579   3.885   3.074   4.326
 6943SOL     OW21580   3.763   2.939   4.024
 6943SOL    HW121581   3.862   2.928   4.015
 6943SOL    HW221582   3.723   2.853   4.056
 6944SOL     OW21583   3.954   2.490   5.699
 6944SOL    HW121584   3.861   2.488   5.736
 6944SOL    HW221585   3.955   2.451   5.607
 6945SOL     OW21586   3.949   2.137   6.582
 6945SOL    HW121587   3.984   2.120   6.674
 6945SOL    HW221588   3.861   2.092   6.570
 6946SOL     OW21589   3.743   2.230   6.233
 6946SOL    HW121590   3.661   2.273   6.272
 6946SOL    HW221591   3.715   2.157   6.170
 6947SOL     OW21592   4.059   3.297   6.647
 6947SOL    HW121593   3.981   3.266   6.594
 6947SOL    HW221594   4.117   3.355   6.590
 6948SOL     OW21595   3.955   3.575   6.069
 6948SOL    HW121596   3.989   3.652   6.123
 6948SOL    HW221597   3.999   3.575   5.979
 6949SOL     OW21598   3.954   3.296   6.124
 6949SOL    HW121599   3.928   3.392   6.124
 6949SOL    HW221600   3.883   3.242   6.169
 6950SOL     OW21601   3.846   2.505   6.149
 6950SOL    HW121602   3.801   2.417   6.166
 6950SOL    HW221603   3.845   2.559   6.233
 6951SOL     OW21604   3.751   3.458   5.703
 6951SOL    HW121605   3.732   3.362   5.724
 6951SOL    HW221606   3.718   3.516   5.778
 6952SOL     OW21607   3.837   2.599   7.183
 6952SOL    HW121608   3.925   2.586   7.228
 6952SOL    HW221609   3.824   2.696   7.161
 6953SOL     OW21610   3.800   2.673   6.375
 6953SOL    HW121611   3.899   2.661   6.384
 6953SOL    HW221612   3.776   2.768   6.396
 6954SOL     OW21613   3.854   3.683   7.157
 6954SOL    HW121614   3.844   3.668   7.256
 6954SOL    HW221615   3.768   3.719   7.121
 6955SOL     OW21616   3.926   2.147   7.084
 6955SOL    HW121617   3.846   2.207   7.071
 6955SOL    HW221618   3.916   2.098   7.170
 6956SOL     OW21619   4.021   1.897   5.757
 6956SOL    HW121620   4.070   1.981   5.736
 6956SOL    HW221621   4.083   1.832   5.802
 6957SOL     OW21622   3.802   2.418   6.972
 6957SOL    HW121623   3.894   2.417   6.931
 6957SOL    HW221624   3.796   2.492   7.039
 6958SOL     OW21625   4.251   2.118   5.914
 6958SOL    HW121626   4.278   2.059   5.839
 6958SOL    HW221627   4.251   2.213   5.883
 6959SOL     OW21628   3.788   3.426   6.917
 6959SOL    HW121629   3.742   3.508   6.883
 6959SOL    HW221630   3.886   3.445   6.926
 6960SOL     OW21631   4.091   2.962   6.087
 6960SOL    HW121632   4.084   3.045   6.031
 6960SOL    HW221633   4.095   2.882   6.027
 6961SOL     OW21634   4.031   2.075   6.817
 6961SOL    HW121635   4.008   2.112   6.907
 6961SOL    HW221636   4.001   1.980   6.811
 6962SOL     OW21637   3.761   3.172   6.868
 6962SOL    HW121638   3.814   3.123   6.936
 6962SOL    HW221639   3.783   3.270   6.873
 6963SOL     OW21640   4.031   1.925   6.204
 6963SOL    HW121641   4.020   2.019   6.237
 6963SOL    HW221642   4.026   1.862   6.281
 6964SOL     OW21643   3.732   3.188   5.786
 6964SOL    HW121644   3.639   3.209   5.755
 6964SOL    HW221645   3.742   3.089   5.799
 6965SOL     OW21646   3.812   3.663   6.513
 6965SOL    HW121647   3.770   3.577   6.486
 6965SOL    HW221648   3.906   3.666   6.479
 6966SOL     OW21649   4.228   3.430   6.496
 6966SOL    HW121650   4.294   3.504   6.505
 6966SOL    HW221651   4.272   3.351   6.454
 6967SOL     OW21652   3.764   2.406   6.700
 6967SOL    HW121653   3.849   2.373   6.659
 6967SOL    HW221654   3.777   2.421   6.798
 6968SOL     OW21655   3.913   2.382   7.308
 6968SOL    HW121656   3.972   2.342   7.238
 6968SOL    HW221657   3.855   2.453   7.267
 6969SOL     OW21658   3.976   3.426   7.330
 6969SOL    HW121659   3.946   3.483   7.406
 6969SOL    HW221660   3.969   3.329   7.356
 6970SOL     OW21661   3.883   2.999   7.052
 6970SOL    HW121662   3.905   2.938   7.128
 6970SOL    HW221663   3.893   2.950   6.966
 6971SOL     OW21664   3.807   3.120   6.608
 6971SOL    HW121665   3.802   3.119   6.708
 6971SOL    HW221666   3.724   3.079   6.570
 6972SOL     OW21667   3.854   3.656   7.437
 6972SOL    HW121668   3.813   3.582   7.490
 6972SOL    HW221669   3.918   3.707   7.495
 6973SOL     OW21670   3.799   2.207   5.619
 6973SOL    HW121671   3.707   2.179   5.590
 6973SOL    HW221672   3.830   2.284   5.563
 6974SOL     OW21673   3.796   2.028   5.904
 6974SOL    HW121674   3.779   2.111   5.850
 6974SOL    HW221675   3.886   1.991   5.882
 6975SOL     OW21676   3.803   3.102   6.239
 6975SOL    HW121677   3.802   3.055   6.327
 6975SOL    HW221678   3.885   3.074   6.188
 6976SOL     OW21679   3.763   2.939   5.886
 6976SOL    HW121680   3.862   2.928   5.877
 6976SOL    HW221681   3.723   2.853   5.918
 6977SOL     OW21682   3.954   2.490   7.561
 6977SOL    HW121683   3.861   2.488   7.598
 6977SOL    HW221684   3.955   2.451   7.469
 6978SOL     OW21685   3.949   2.137   8.444
 6978SOL    HW121686   3.984   2.120   8.536
 6978SOL    HW221687   3.861   2.092   8.432
 6979SOL     OW21688   3.743   2.230   8.095
 6979SOL    HW121689   3.661   2.273   8.134
 6979SOL    HW221690   3.715   2.157   8.032
 6980SOL     OW21691   4.059   3.297   8.509
 6980SOL    HW121692   3.981   3.266   8.456
 6980SOL    HW221693   4.117   3.355   8.452
 6981SOL     OW21694   3.955   3.575   7.931
 6981SOL    HW121695   3.989   3.652   7.985
 6981SOL    HW221696   3.999   3.575   7.841
 6982SOL     OW21697   3.954   3.296   7.986
 6982SOL    HW121698   3.928   3.392   7.986
 6982SOL    HW221699   3.883   3.242   8.031
 6983SOL     OW21700   3.846   2.505   8.011
 6983SOL    HW121701   3.801   2.417   8.028
 6983SOL    HW221702   3.845   2.559   8.095
 6984SOL     OW21703   3.751   3.458   7.565
 6984SOL    HW121704   3.732   3.362   7.586
 6984SOL    HW221705   3.718   3.516   7.640
 6985SOL     OW21706   3.837   2.599   9.045
 6985SOL    HW121707   3.925   2.586   9.090
 6985SOL    HW221708   3.824   2.696   9.023
 6986SOL     OW21709   3.800   2.673   8.237
 6986SOL    HW121710   3.899   2.661   8.246
 6986SOL    HW221711   3.776   2.768   8.258
 6987SOL     OW21712   3.854   3.683   9.019
 6987SOL    HW121713   3.844   3.668   9.118
 6987SOL    HW221714   3.768   3.719   8.983
 6988SOL     OW21715   3.926   2.147   8.946
 6988SOL    HW121716   3.846   2.207   8.933
 6988SOL    HW221717   3.916   2.098   9.032
 6989SOL     OW21718   4.021   1.897   7.619
 6989SOL    HW121719   4.070   1.981   7.598
 6989SOL    HW221720   4.083   1.832   7.664
 6990SOL     OW21721   3.802   2.418   8.834
 6990SOL    HW121722   3.894   2.417   8.793
 6990SOL    HW221723   3.796   2.492   8.901
 6991SOL     OW21724   4.251   2.118   7.776
 6991SOL    HW121725   4.278   2.059   7.701
 6991SOL    HW221726   4.251   2.213   7.745
 6992SOL     OW21727   3.788   3.426   8.779
 6992SOL    HW121728   3.742   3.508   8.745
 6992SOL    HW221729   3.886   3.445   8.788
 6993SOL     OW21730   4.091   2.962   7.949
 6993SOL    HW121731   4.084   3.045   7.893
 6993SOL    HW221732   4.095   2.882   7.889
 6994SOL     OW21733   4.031   2.075   8.679
 6994SOL    HW121734   4.008   2.112   8.769
 6994SOL    HW221735   4.001   1.980   8.673
 6995SOL     OW21736   3.761   3.172   8.730
 6995SOL    HW121737   3.814   3.123   8.798
 6995SOL    HW221738   3.783   3.270   8.735
 6996SOL     OW21739   4.031   1.925   8.066
 6996SOL    HW121740   4.020   2.019   8.099
 6996SOL    HW221741   4.026   1.862   8.143
 6997SOL     OW21742   3.732   3.188   7.648
 6997SOL    HW121743   3.639   3.209   7.617
 6997SOL    HW221744   3.742   3.089   7.661
 6998SOL     OW21745   3.812   3.663   8.375
 6998SOL    HW121746   3.770   3.577   8.348
 6998SOL    HW221747   3.906   3.666   8.341
 6999SOL     OW21748   4.228   3.430   8.358
 6999SOL    HW121749   4.294   3.504   8.367
 6999SOL    HW221750   4.272   3.351   8.316
 7000SOL     OW21751   3.764   2.406   8.562
 7000SOL    HW121752   3.849   2.373   8.521
 7000SOL    HW221753   3.777   2.421   8.660
 7001SOL     OW21754   3.913   2.382   9.170
 7001SOL    HW121755   3.972   2.342   9.100
 7001SOL    HW221756   3.855   2.453   9.129
 7002SOL     OW21757   3.976   3.426   9.192
 7002SOL    HW121758   3.946   3.483   9.268
 7002SOL    HW221759   3.969   3.329   9.218
 7003SOL     OW21760   3.883   2.999   8.914
 7003SOL    HW121761   3.905   2.938   8.990
 7003SOL    HW221762   3.893   2.950   8.828
 7004SOL     OW21763   3.807   3.120   8.470
 7004SOL    HW121764   3.802   3.119   8.570
 7004SOL    HW221765   3.724   3.079   8.432
 7005SOL     OW21766   3.854   3.656   9.299
 7005SOL    HW121767   3.813   3.582   9.352
 7005SOL    HW221768   3.918   3.707   9.357
 7006SOL     OW21769   3.799   2.207   7.481
 7006SOL    HW121770   3.707   2.179   7.452
 7006SOL    HW221771   3.830   2.284   7.425
 7007SOL     OW21772   3.796   2.028   7.766
 7007SOL    HW121773   3.779   2.111   7.712
 7007SOL    HW221774   3.886   1.991   7.744
 7008SOL     OW21775   3.803   3.102   8.101
 7008SOL    HW121776   3.802   3.055   8.189
 7008SOL    HW221777   3.885   3.074   8.050
 7009SOL     OW21778   3.763   2.939   7.748
 7009SOL    HW121779   3.862   2.928   7.739
 7009SOL    HW221780   3.723   2.853   7.780
 7010SOL     OW21781   3.954   2.490   9.423
 7010SOL    HW121782   3.861   2.488   9.460
 7010SOL    HW221783   3.955   2.451   9.331
 7011SOL     OW21784   3.949   2.137  10.306
 7011SOL    HW121785   3.984   2.120  10.398
 7011SOL    HW221786   3.861   2.092  10.294
 7012SOL     OW21787   3.743   2.230   9.957
 7012SOL    HW121788   3.661   2.273   9.996
 7012SOL    HW221789   3.715   2.157   9.894
 7013SOL     OW21790   4.059   3.297  10.371
 7013SOL    HW121791   3.981   3.266  10.318
 7013SOL    HW221792   4.117   3.355  10.314
 7014SOL     OW21793   3.955   3.575   9.793
 7014SOL    HW121794   3.989   3.652   9.847
 7014SOL    HW221795   3.999   3.575   9.703
 7015SOL     OW21796   3.954   3.296   9.848
 7015SOL    HW121797   3.928   3.392   9.848
 7015SOL    HW221798   3.883   3.242   9.893
 7016SOL     OW21799   3.846   2.505   9.873
 7016SOL    HW121800   3.801   2.417   9.890
 7016SOL    HW221801   3.845   2.559   9.957
 7017SOL     OW21802   3.751   3.458   9.427
 7017SOL    HW121803   3.732   3.362   9.448
 7017SOL    HW221804   3.718   3.516   9.502
 7018SOL     OW21805   3.837   2.599  10.907
 7018SOL    HW121806   3.925   2.586  10.952
 7018SOL    HW221807   3.824   2.696  10.885
 7019SOL     OW21808   3.800   2.673  10.099
 7019SOL    HW121809   3.899   2.661  10.108
 7019SOL    HW221810   3.776   2.768  10.120
 7020SOL     OW21811   3.854   3.683  10.881
 7020SOL    HW121812   3.844   3.668  10.980
 7020SOL    HW221813   3.768   3.719  10.845
 7021SOL     OW21814   3.926   2.147  10.808
 7021SOL    HW121815   3.846   2.207  10.795
 7021SOL    HW221816   3.916   2.098  10.894
 7022SOL     OW21817   4.021   1.897   9.481
 7022SOL    HW121818   4.070   1.981   9.460
 7022SOL    HW221819   4.083   1.832   9.526
 7023SOL     OW21820   3.802   2.418  10.696
 7023SOL    HW121821   3.894   2.417  10.655
 7023SOL    HW221822   3.796   2.492  10.763
 7024SOL     OW21823   4.251   2.118   9.638
 7024SOL    HW121824   4.278   2.059   9.563
 7024SOL    HW221825   4.251   2.213   9.607
 7025SOL     OW21826   3.788   3.426  10.641
 7025SOL    HW121827   3.742   3.508  10.607
 7025SOL    HW221828   3.886   3.445  10.650
 7026SOL     OW21829   4.091   2.962   9.811
 7026SOL    HW121830   4.084   3.045   9.755
 7026SOL    HW221831   4.095   2.882   9.751
 7027SOL     OW21832   4.031   2.075  10.541
 7027SOL    HW121833   4.008   2.112  10.631
 7027SOL    HW221834   4.001   1.980  10.535
 7028SOL     OW21835   3.761   3.172  10.592
 7028SOL    HW121836   3.814   3.123  10.660
 7028SOL    HW221837   3.783   3.270  10.597
 7029SOL     OW21838   4.031   1.925   9.928
 7029SOL    HW121839   4.020   2.019   9.961
 7029SOL    HW221840   4.026   1.862  10.005
 7030SOL     OW21841   3.732   3.188   9.510
 7030SOL    HW121842   3.639   3.209   9.479
 7030SOL    HW221843   3.742   3.089   9.523
 7031SOL     OW21844   3.812   3.663  10.237
 7031SOL    HW121845   3.770   3.577  10.210
 7031SOL    HW221846   3.906   3.666  10.203
 7032SOL     OW21847   4.228   3.430  10.220
 7032SOL    HW121848   4.294   3.504  10.229
 7032SOL    HW221849   4.272   3.351  10.178
 7033SOL     OW21850   3.764   2.406  10.424
 7033SOL    HW121851   3.849   2.373  10.383
 7033SOL    HW221852   3.777   2.421  10.522
 7034SOL     OW21853   3.913   2.382  11.032
 7034SOL    HW121854   3.972   2.342  10.962
 7034SOL    HW221855   3.855   2.453  10.991
 7035SOL     OW21856   3.976   3.426  11.054
 7035SOL    HW121857   3.946   3.483  11.130
 7035SOL    HW221858   3.969   3.329  11.080
 7036SOL     OW21859   3.883   2.999  10.776
 7036SOL    HW121860   3.905   2.938  10.852
 7036SOL    HW221861   3.893   2.950  10.690
 7037SOL     OW21862   3.807   3.120  10.332
 7037SOL    HW121863   3.802   3.119  10.432
 7037SOL    HW221864   3.724   3.079  10.294
 7038SOL     OW21865   3.854   3.656  11.161
 7038SOL    HW121866   3.813   3.582  11.214
 7038SOL    HW221867   3.918   3.707  11.219
 7039SOL     OW21868   3.799   2.207   9.343
 7039SOL    HW121869   3.707   2.179   9.314
 7039SOL    HW221870   3.830   2.284   9.287
 7040SOL     OW21871   3.796   2.028   9.628
 7040SOL    HW121872   3.779   2.111   9.574
 7040SOL    HW221873   3.886   1.991   9.606
 7041SOL     OW21874   3.803   3.102   9.963
 7041SOL    HW121875   3.802   3.055  10.051
 7041SOL    HW221876   3.885   3.074   9.912
 7042SOL     OW21877   3.763   2.939   9.610
 7042SOL    HW121878   3.862   2.928   9.601
 7042SOL    HW221879   3.723   2.853   9.642
 7043SOL     OW21880   3.954   2.490  11.285
 7043SOL    HW121881   3.861   2.488  11.322
 7043SOL    HW221882   3.955   2.451  11.193
 7044SOL     OW21883   3.949   2.137  12.168
 7044SOL    HW121884   3.984   2.120  12.260
 7044SOL    HW221885   3.861   2.092  12.156
 7045SOL     OW21886   3.743   2.230  11.819
 7045SOL    HW121887   3.661   2.273  11.858
 7045SOL    HW221888   3.715   2.157  11.756
 7046SOL     OW21889   4.059   3.297  12.233
 7046SOL    HW121890   3.981   3.266  12.180
 7046SOL    HW221891   4.117   3.355  12.176
 7047SOL     OW21892   3.955   3.575  11.655
 7047SOL    HW121893   3.989   3.652  11.709
 7047SOL    HW221894   3.999   3.575  11.565
 7048SOL     OW21895   3.954   3.296  11.710
 7048SOL    HW121896   3.928   3.392  11.710
 7048SOL    HW221897   3.883   3.242  11.755
 7049SOL     OW21898   3.846   2.505  11.735
 7049SOL    HW121899   3.801   2.417  11.752
 7049SOL    HW221900   3.845   2.559  11.819
 7050SOL     OW21901   3.751   3.458  11.289
 7050SOL    HW121902   3.732   3.362  11.310
 7050SOL    HW221903   3.718   3.516  11.364
 7051SOL     OW21904   3.837   2.599  12.769
 7051SOL    HW121905   3.925   2.586  12.814
 7051SOL    HW221906   3.824   2.696  12.747
 7052SOL     OW21907   3.800   2.673  11.961
 7052SOL    HW121908   3.899   2.661  11.970
 7052SOL    HW221909   3.776   2.768  11.982
 7053SOL     OW21910   3.854   3.683  12.743
 7053SOL    HW121911   3.844   3.668  12.842
 7053SOL    HW221912   3.768   3.719  12.707
 7054SOL     OW21913   3.926   2.147  12.670
 7054SOL    HW121914   3.846   2.207  12.657
 7054SOL    HW221915   3.916   2.098  12.756
 7055SOL     OW21916   4.021   1.897  11.343
 7055SOL    HW121917   4.070   1.981  11.322
 7055SOL    HW221918   4.083   1.832  11.388
 7056SOL     OW21919   3.802   2.418  12.558
 7056SOL    HW121920   3.894   2.417  12.517
 7056SOL    HW221921   3.796   2.492  12.625
 7057SOL     OW21922   4.251   2.118  11.500
 7057SOL    HW121923   4.278   2.059  11.425
 7057SOL    HW221924   4.251   2.213  11.469
 7058SOL     OW21925   3.788   3.426  12.503
 7058SOL    HW121926   3.742   3.508  12.469
 7058SOL    HW221927   3.886   3.445  12.512
 7059SOL     OW21928   4.091   2.962  11.673
 7059SOL    HW121929   4.084   3.045  11.617
 7059SOL    HW221930   4.095   2.882  11.613
 7060SOL     OW21931   4.031   2.075  12.403
 7060SOL    HW121932   4.008   2.112  12.493
 7060SOL    HW221933   4.001   1.980  12.397
 7061SOL     OW21934   3.761   3.172  12.454
 7061SOL    HW121935   3.814   3.123  12.522
 7061SOL    HW221936   3.783   3.270  12.459
 7062SOL     OW21937   4.031   1.925  11.790
 7062SOL    HW121938   4.020   2.019  11.823
 7062SOL    HW221939   4.026   1.862  11.867
 7063SOL     OW21940   3.732   3.188  11.372
 7063SOL    HW121941   3.639   3.209  11.341
 7063SOL    HW221942   3.742   3.089  11.385
 7064SOL     OW21943   3.812   3.663  12.099
 7064SOL    HW121944   3.770   3.577  12.072
 7064SOL    HW221945   3.906   3.666  12.065
 7065SOL     OW21946   4.228   3.430  12.082
 7065SOL    HW121947   4.294   3.504  12.091
 7065SOL    HW221948   4.272   3.351  12.040
 7066SOL     OW21949   3.764   2.406  12.286
 7066SOL    HW121950   3.849   2.373  12.245
 7066SOL    HW221951   3.777   2.421  12.384
 7067SOL     OW21952   3.913   2.382  12.894
 7067SOL    HW121953   3.972   2.342  12.824
 7067SOL    HW221954   3.855   2.453  12.853
 7068SOL     OW21955   3.976   3.426  12.916
 7068SOL    HW121956   3.946   3.483  12.992
 7068SOL    HW221957   3.969   3.329  12.942
 7069SOL     OW21958   3.883   2.999  12.638
 7069SOL    HW121959   3.905   2.938  12.714
 7069SOL    HW221960   3.893   2.950  12.552
 7070SOL     OW21961   3.807   3.120  12.194
 7070SOL    HW121962   3.802   3.119  12.294
 7070SOL    HW221963   3.724   3.079  12.156
 7071SOL     OW21964   3.854   3.656  13.023
 7071SOL    HW121965   3.813   3.582  13.076
 7071SOL    HW221966   3.918   3.707  13.081
 7072SOL     OW21967   3.799   2.207  11.205
 7072SOL    HW121968   3.707   2.179  11.176
 7072SOL    HW221969   3.830   2.284  11.149
 7073SOL     OW21970   3.796   2.028  11.490
 7073SOL    HW121971   3.779   2.111  11.436
 7073SOL    HW221972   3.886   1.991  11.468
 7074SOL     OW21973   3.803   3.102  11.825
 7074SOL    HW121974   3.802   3.055  11.913
 7074SOL    HW221975   3.885   3.074  11.774
 7075SOL     OW21976   3.763   2.939  11.472
 7075SOL    HW121977   3.862   2.928  11.463
 7075SOL    HW221978   3.723   2.853  11.504
 7076SOL     OW21979   3.954   2.490  13.147
 7076SOL    HW121980   3.861   2.488  13.184
 7076SOL    HW221981   3.955   2.451  13.055
 7077SOL     OW21982   3.743   2.230  13.681
 7077SOL    HW121983   3.661   2.273  13.720
 7077SOL    HW221984   3.715   2.157  13.618
 7078SOL     OW21985   3.955   3.575  13.517
 7078SOL    HW121986   3.989   3.652  13.571
 7078SOL    HW221987   3.999   3.575  13.427
 7079SOL     OW21988   3.954   3.296  13.572
 7079SOL    HW121989   3.928   3.392  13.572
 7079SOL    HW221990   3.883   3.242  13.617
 7080SOL     OW21991   3.964   2.953  13.920
 7080SOL    HW121992   3.978   2.869  13.972
 7080SOL    HW221993   3.909   3.017  13.975
 7081SOL     OW21994   3.846   2.505  13.597
 7081SOL    HW121995   3.801   2.417  13.614
 7081SOL    HW221996   3.845   2.559  13.681
 7082SOL     OW21997   3.751   3.458  13.151
 7082SOL    HW121998   3.732   3.362  13.172
 7082SOL    HW221999   3.718   3.516  13.226
 7083SOL     OW22000   3.800   2.673  13.823
 7083SOL    HW122001   3.899   2.661  13.832
 7083SOL    HW222002   3.776   2.768  13.844
 7084SOL     OW22003   4.075   3.663  13.887
 7084SOL    HW122004   4.125   3.577  13.893
 7084SOL    HW222005   4.140   3.740  13.884
 7085SOL     OW22006   4.021   1.897  13.205
 7085SOL    HW122007   4.070   1.981  13.184
 7085SOL    HW222008   4.083   1.832  13.250
 7086SOL     OW22009   4.251   2.118  13.362
 7086SOL    HW122010   4.278   2.059  13.287
 7086SOL    HW222011   4.251   2.213  13.331
 7087SOL     OW22012   4.091   2.962  13.535
 7087SOL    HW122013   4.084   3.045  13.479
 7087SOL    HW222014   4.095   2.882  13.475
 7088SOL     OW22015   4.031   1.925  13.652
 7088SOL    HW122016   4.020   2.019  13.685
 7088SOL    HW222017   4.026   1.862  13.729
 7089SOL     OW22018   3.732   3.188  13.234
 7089SOL    HW122019   3.639   3.209  13.203
 7089SOL    HW222020   3.742   3.089  13.247
 7090SOL     OW22021   4.228   3.430  13.944
 7090SOL    HW122022   4.294   3.504  13.953
 7090SOL    HW222023   4.272   3.351  13.902
 7091SOL     OW22024   3.799   2.207  13.067
 7091SOL    HW122025   3.707   2.179  13.038
 7091SOL    HW222026   3.830   2.284  13.011
 7092SOL     OW22027   3.796   2.028  13.352
 7092SOL    HW122028   3.779   2.111  13.298
 7092SOL    HW222029   3.886   1.991  13.330
 7093SOL     OW22030   3.803   3.102  13.687
 7093SOL    HW122031   3.802   3.055  13.775
 7093SOL    HW222032   3.885   3.074  13.636
 7094SOL     OW22033   3.763   2.939  13.334
 7094SOL    HW122034   3.862   2.928  13.325
 7094SOL    HW222035   3.723   2.853  13.366
 7095SOL     OW22036   3.949   3.999   0.996
 7095SOL    HW122037   3.984   3.982   1.088
 7095SOL    HW222038   3.861   3.954   0.984
 7096SOL     OW22039   3.743   4.092   0.647
 7096SOL    HW122040   3.661   4.135   0.686
 7096SOL    HW222041   3.715   4.019   0.584
 7097SOL     OW22042   3.926   4.009   1.498
 7097SOL    HW122043   3.846   4.069   1.485
 7097SOL    HW222044   3.916   3.960   1.584
 7098SOL     OW22045   4.021   3.759   0.171
 7098SOL    HW122046   4.070   3.843   0.150
 7098SOL    HW222047   4.083   3.694   0.216
 7099SOL     OW22048   4.031   3.937   1.231
 7099SOL    HW122049   4.008   3.974   1.321
 7099SOL    HW222050   4.001   3.842   1.225
 7100SOL     OW22051   4.031   3.787   0.618
 7100SOL    HW122052   4.020   3.881   0.651
 7100SOL    HW222053   4.026   3.724   0.695
 7101SOL     OW22054   3.796   3.890   0.318
 7101SOL    HW122055   3.779   3.973   0.264
 7101SOL    HW222056   3.886   3.853   0.296
 7102SOL     OW22057   3.949   3.999   2.858
 7102SOL    HW122058   3.984   3.982   2.950
 7102SOL    HW222059   3.861   3.954   2.846
 7103SOL     OW22060   3.743   4.092   2.509
 7103SOL    HW122061   3.661   4.135   2.548
 7103SOL    HW222062   3.715   4.019   2.446
 7104SOL     OW22063   3.926   4.009   3.360
 7104SOL    HW122064   3.846   4.069   3.347
 7104SOL    HW222065   3.916   3.960   3.446
 7105SOL     OW22066   4.021   3.759   2.033
 7105SOL    HW122067   4.070   3.843   2.012
 7105SOL    HW222068   4.083   3.694   2.078
 7106SOL     OW22069   4.031   3.937   3.093
 7106SOL    HW122070   4.008   3.974   3.183
 7106SOL    HW222071   4.001   3.842   3.087
 7107SOL     OW22072   4.031   3.787   2.480
 7107SOL    HW122073   4.020   3.881   2.513
 7107SOL    HW222074   4.026   3.724   2.557
 7108SOL     OW22075   3.799   4.069   1.895
 7108SOL    HW122076   3.707   4.041   1.866
 7108SOL    HW222077   3.830   4.146   1.839
 7109SOL     OW22078   3.796   3.890   2.180
 7109SOL    HW122079   3.779   3.973   2.126
 7109SOL    HW222080   3.886   3.853   2.158
 7110SOL     OW22081   3.949   3.999   4.720
 7110SOL    HW122082   3.984   3.982   4.812
 7110SOL    HW222083   3.861   3.954   4.708
 7111SOL     OW22084   3.743   4.092   4.371
 7111SOL    HW122085   3.661   4.135   4.410
 7111SOL    HW222086   3.715   4.019   4.308
 7112SOL     OW22087   3.926   4.009   5.222
 7112SOL    HW122088   3.846   4.069   5.209
 7112SOL    HW222089   3.916   3.960   5.308
 7113SOL     OW22090   4.021   3.759   3.895
 7113SOL    HW122091   4.070   3.843   3.874
 7113SOL    HW222092   4.083   3.694   3.940
 7114SOL     OW22093   4.031   3.937   4.955
 7114SOL    HW122094   4.008   3.974   5.045
 7114SOL    HW222095   4.001   3.842   4.949
 7115SOL     OW22096   4.031   3.787   4.342
 7115SOL    HW122097   4.020   3.881   4.375
 7115SOL    HW222098   4.026   3.724   4.419
 7116SOL     OW22099   3.799   4.069   3.757
 7116SOL    HW122100   3.707   4.041   3.728
 7116SOL    HW222101   3.830   4.146   3.701
 7117SOL     OW22102   3.796   3.890   4.042
 7117SOL    HW122103   3.779   3.973   3.988
 7117SOL    HW222104   3.886   3.853   4.020
 7118SOL     OW22105   3.949   3.999   6.582
 7118SOL    HW122106   3.984   3.982   6.674
 7118SOL    HW222107   3.861   3.954   6.570
 7119SOL     OW22108   3.743   4.092   6.233
 7119SOL    HW122109   3.661   4.135   6.272
 7119SOL    HW222110   3.715   4.019   6.170
 7120SOL     OW22111   3.926   4.009   7.084
 7120SOL    HW122112   3.846   4.069   7.071
 7120SOL    HW222113   3.916   3.960   7.170
 7121SOL     OW22114   4.021   3.759   5.757
 7121SOL    HW122115   4.070   3.843   5.736
 7121SOL    HW222116   4.083   3.694   5.802
 7122SOL     OW22117   4.031   3.937   6.817
 7122SOL    HW122118   4.008   3.974   6.907
 7122SOL    HW222119   4.001   3.842   6.811
 7123SOL     OW22120   4.031   3.787   6.204
 7123SOL    HW122121   4.020   3.881   6.237
 7123SOL    HW222122   4.026   3.724   6.281
 7124SOL     OW22123   3.799   4.069   5.619
 7124SOL    HW122124   3.707   4.041   5.590
 7124SOL    HW222125   3.830   4.146   5.563
 7125SOL     OW22126   3.796   3.890   5.904
 7125SOL    HW122127   3.779   3.973   5.850
 7125SOL    HW222128   3.886   3.853   5.882
 7126SOL     OW22129   3.949   3.999   8.444
 7126SOL    HW122130   3.984   3.982   8.536
 7126SOL    HW222131   3.861   3.954   8.432
 7127SOL     OW22132   3.743   4.092   8.095
 7127SOL    HW122133   3.661   4.135   8.134
 7127SOL    HW222134   3.715   4.019   8.032
 7128SOL     OW22135   3.926   4.009   8.946
 7128SOL    HW122136   3.846   4.069   8.933
 7128SOL    HW222137   3.916   3.960   9.032
 7129SOL     OW22138   4.021   3.759   7.619
 7129SOL    HW122139   4.070   3.843   7.598
 7129SOL    HW222140   4.083   3.694   7.664
 7130SOL     OW22141   4.031   3.937   8.679
 7130SOL    HW122142   4.008   3.974   8.769
 7130SOL    HW222143   4.001   3.842   8.673
 7131SOL     OW22144   4.031   3.787   8.066
 7131SOL    HW122145   4.020   3.881   8.099
 7131SOL    HW222146   4.026   3.724   8.143
 7132SOL     OW22147   3.799   4.069   7.481
 7132SOL    HW122148   3.707   4.041   7.452
 7132SOL    HW222149   3.830   4.146   7.425
 7133SOL     OW22150   3.796   3.890   7.766
 7133SOL    HW122151   3.779   3.973   7.712
 7133SOL    HW222152   3.886   3.853   7.744
 7134SOL     OW22153   3.949   3.999  10.306
 7134SOL    HW122154   3.984   3.982  10.398
 7134SOL    HW222155   3.861   3.954  10.294
 7135SOL     OW22156   3.743   4.092   9.957
 7135SOL    HW122157   3.661   4.135   9.996
 7135SOL    HW222158   3.715   4.019   9.894
 7136SOL     OW22159   3.926   4.009  10.808
 7136SOL    HW122160   3.846   4.069  10.795
 7136SOL    HW222161   3.916   3.960  10.894
 7137SOL     OW22162   4.021   3.759   9.481
 7137SOL    HW122163   4.070   3.843   9.460
 7137SOL    HW222164   4.083   3.694   9.526
 7138SOL     OW22165   4.031   3.937  10.541
 7138SOL    HW122166   4.008   3.974  10.631
 7138SOL    HW222167   4.001   3.842  10.535
 7139SOL     OW22168   4.031   3.787   9.928
 7139SOL    HW122169   4.020   3.881   9.961
 7139SOL    HW222170   4.026   3.724  10.005
 7140SOL     OW22171   3.799   4.069   9.343
 7140SOL    HW122172   3.707   4.041   9.314
 7140SOL    HW222173   3.830   4.146   9.287
 7141SOL     OW22174   3.796   3.890   9.628
 7141SOL    HW122175   3.779   3.973   9.574
 7141SOL    HW222176   3.886   3.853   9.606
 7142SOL     OW22177   3.949   3.999  12.168
 7142SOL    HW122178   3.984   3.982  12.260
 7142SOL    HW222179   3.861   3.954  12.156
 7143SOL     OW22180   3.743   4.092  11.819
 7143SOL    HW122181   3.661   4.135  11.858
 7143SOL    HW222182   3.715   4.019  11.756
 7144SOL     OW22183   3.926   4.009  12.670
 7144SOL    HW122184   3.846   4.069  12.657
 7144SOL    HW222185   3.916   3.960  12.756
 7145SOL     OW22186   4.021   3.759  11.343
 7145SOL    HW122187   4.070   3.843  11.322
 7145SOL    HW222188   4.083   3.694  11.388
 7146SOL     OW22189   4.031   3.937  12.403
 7146SOL    HW122190   4.008   3.974  12.493
 7146SOL    HW222191   4.001   3.842  12.397
 7147SOL     OW22192   4.031   3.787  11.790
 7147SOL    HW122193   4.020   3.881  11.823
 7147SOL    HW222194   4.026   3.724  11.867
 7148SOL     OW22195   3.799   4.069  11.205
 7148SOL    HW122196   3.707   4.041  11.176
 7148SOL    HW222197   3.830   4.146  11.149
 7149SOL     OW22198   3.796   3.890  11.490
 7149SOL    HW122199   3.779   3.973  11.436
 7149SOL    HW222200   3.886   3.853  11.468
 7150SOL     OW22201   3.743   4.092  13.681
 7150SOL    HW122202   3.661   4.135  13.720
 7150SOL    HW222203   3.715   4.019  13.618
 7151SOL     OW22204   4.021   3.759  13.205
 7151SOL    HW122205   4.070   3.843  13.184
 7151SOL    HW222206   4.083   3.694  13.250
 7152SOL     OW22207   4.031   3.787  13.652
 7152SOL    HW122208   4.020   3.881  13.685
 7152SOL    HW222209   4.026   3.724  13.729
 7153SOL     OW22210   3.799   4.069  13.067
 7153SOL    HW122211   3.707   4.041  13.038
 7153SOL    HW222212   3.830   4.146  13.011
 7154SOL     OW22213   3.796   3.890  13.352
 7154SOL    HW122214   3.779   3.973  13.298
 7154SOL    HW222215   3.886   3.853  13.330
   4.00000   4.00000  13.90000
