Built with Packmol
22134
    1LIG      O    1   2.627   2.620   0.038
    1LIG      C    2   2.692   2.670   0.126
    1LIG     C1    3   2.621   2.617   0.219
    1LIG     O1    4   2.685   2.667   0.308
    1LIG     C2    5   2.620   2.618   0.396
    1LIG     C3    6   2.691   2.673   0.487
    1LIG     O2    7   2.627   2.625   0.575
    1LIG     C4    8   2.690   2.675   0.664
    1LIG     C5    9   2.618   2.621   0.756
    1LIG     O3   10   2.681   2.670   0.844
    1LIG     C6   11   2.616   2.621   0.932
    1LIG     C7   12   2.688   2.677   1.023
    1LIG     O4   13   2.624   2.629   1.112
    1LIG     C8   14   2.688   2.679   1.200
    1LIG     C9   15   2.615   2.623   1.291
    1LIG     O5   16   2.679   2.673   1.379
    1LIG    C10   17   2.615   2.624   1.468
    1LIG    C11   18   2.687   2.680   1.559
    1LIG     O6   19   2.623   2.631   1.647
    1LIG    C12   20   2.686   2.680   1.735
    1LIG    C13   21   2.613   2.625   1.827
    1LIG     O7   22   2.677   2.674   1.915
    1LIG    C14   23   2.613   2.625   2.003
    1LIG    C15   24   2.685   2.680   2.095
    1LIG     O8   25   2.621   2.632   2.184
    1LIG    C16   26   2.685   2.681   2.272
    1LIG    C17   27   2.614   2.626   2.363
    1LIG     O9   28   2.677   2.675   2.452
    1LIG    C18   29   2.612   2.626   2.540
    1LIG    C19   30   2.684   2.681   2.631
    1LIG    O10   31   2.621   2.632   2.720
    1LIG    C20   32   2.685   2.682   2.807
    1LIG    C21   33   2.612   2.626   2.899
    1LIG    O11   34   2.676   2.675   2.987
    1LIG    C22   35   2.612   2.626   3.075
    1LIG    C23   36   2.684   2.682   3.166
    1LIG    O12   37   2.620   2.633   3.254
    1LIG    C24   38   2.684   2.682   3.343
    1LIG    C25   39   2.612   2.627   3.435
    1LIG    O13   40   2.675   2.676   3.524
    1LIG    C26   41   2.611   2.627   3.611
    1LIG    C27   42   2.683   2.682   3.703
    1LIG    O14   43   2.619   2.633   3.791
    1LIG    C28   44   2.684   2.682   3.879
    1LIG    C29   45   2.612   2.626   3.971
    1LIG    O15   46   2.676   2.676   4.059
    1LIG    C30   47   2.612   2.626   4.147
    1LIG    C31   48   2.684   2.681   4.238
    1LIG    O16   49   2.620   2.632   4.326
    1LIG    C32   50   2.684   2.681   4.415
    1LIG    C33   51   2.612   2.626   4.506
    1LIG    O17   52   2.676   2.675   4.595
    1LIG    C34   53   2.612   2.625   4.683
    1LIG    C35   54   2.684   2.680   4.774
    1LIG    O18   55   2.620   2.631   4.863
    1LIG    C36   56   2.684   2.681   4.951
    1LIG    C37   57   2.613   2.625   5.042
    1LIG    O19   58   2.677   2.674   5.131
    1LIG    C38   59   2.613   2.624   5.219
    1LIG    C39   60   2.684   2.679   5.311
    1LIG    O20   61   2.621   2.630   5.399
    1LIG    C40   62   2.685   2.679   5.487
    1LIG    C41   63   2.614   2.624   5.579
    1LIG    O21   64   2.677   2.673   5.667
    1LIG    C42   65   2.613   2.623   5.755
    1LIG    C43   66   2.685   2.678   5.846
    1LIG    O22   67   2.622   2.629   5.935
    1LIG    C44   68   2.686   2.678   6.023
    1LIG    C45   69   2.614   2.622   6.114
    1LIG    O23   70   2.678   2.671   6.202
    1LIG    C46   71   2.614   2.622   6.291
    1LIG    C47   72   2.687   2.678   6.382
    1LIG    O24   73   2.623   2.628   6.470
    1LIG    C48   74   2.686   2.677   6.558
    1LIG    C49   75   2.614   2.621   6.650
    1LIG    O25   76   2.678   2.670   6.738
    1LIG    C50   77   2.615   2.621   6.826
    1LIG    C51   78   2.687   2.677   6.917
    1LIG    O26   79   2.624   2.627   7.005
    1LIG    C52   80   2.687   2.676   7.094
    1LIG    C53   81   2.615   2.620   7.185
    1LIG    O27   82   2.679   2.669   7.273
    1LIG    C54   83   2.616   2.619   7.362
    1LIG    C55   84   2.688   2.675   7.454
    1LIG    O28   85   2.624   2.625   7.542
    1LIG    C56   86   2.688   2.674   7.630
    1LIG    C57   87   2.617   2.618   7.723
    1LIG    O29   88   2.681   2.667   7.811
    1LIG    C58   89   2.617   2.617   7.899
    1LIG    C59   90   2.688   2.672   7.991
    1LIG      H   91   2.689   2.780   0.125
    1LIG     H1   92   2.797   2.639   0.125
    1LIG     H2   93   2.624   2.508   0.219
    1LIG     H3   94   2.516   2.648   0.218
    1LIG     H4   95   2.623   2.508   0.397
    1LIG     H5   96   2.515   2.649   0.396
    1LIG     H6   97   2.689   2.783   0.486
    1LIG     H7   98   2.797   2.642   0.487
    1LIG     H8   99   2.688   2.784   0.664
    1LIG     H9  100   2.795   2.644   0.665
    1LIG    H10  101   2.621   2.511   0.755
    1LIG    H11  102   2.513   2.651   0.754
    1LIG    H12  103   2.619   2.512   0.933
    1LIG    H13  104   2.511   2.652   0.933
    1LIG    H14  105   2.685   2.787   1.022
    1LIG    H15  106   2.793   2.647   1.023
    1LIG    H16  107   2.685   2.788   1.201
    1LIG    H17  108   2.793   2.648   1.202
    1LIG    H18  109   2.618   2.514   1.290
    1LIG    H19  110   2.510   2.655   1.290
    1LIG    H20  111   2.617   2.515   1.469
    1LIG    H21  112   2.509   2.655   1.469
    1LIG    H22  113   2.684   2.789   1.558
    1LIG    H23  114   2.792   2.649   1.558
    1LIG    H24  115   2.683   2.790   1.736
    1LIG    H25  116   2.791   2.649   1.737
    1LIG    H26  117   2.616   2.515   1.826
    1LIG    H27  118   2.508   2.656   1.825
    1LIG    H28  119   2.616   2.515   2.004
    1LIG    H29  120   2.508   2.656   2.004
    1LIG    H30  121   2.682   2.790   2.094
    1LIG    H31  122   2.790   2.649   2.094
    1LIG    H32  123   2.682   2.791   2.272
    1LIG    H33  124   2.790   2.650   2.273
    1LIG    H34  125   2.616   2.517   2.362
    1LIG    H35  126   2.508   2.657   2.362
    1LIG    H36  127   2.615   2.516   2.541
    1LIG    H37  128   2.507   2.657   2.541
    1LIG    H38  129   2.681   2.791   2.630
    1LIG    H39  130   2.789   2.650   2.630
    1LIG    H40  131   2.682   2.791   2.809
    1LIG    H41  132   2.790   2.651   2.809
    1LIG    H42  133   2.615   2.517   2.897
    1LIG    H43  134   2.507   2.657   2.897
    1LIG    H44  135   2.615   2.517   3.076
    1LIG    H45  136   2.507   2.657   3.076
    1LIG    H46  137   2.681   2.792   3.165
    1LIG    H47  138   2.790   2.651   3.165
    1LIG    H48  139   2.681   2.792   3.344
    1LIG    H49  140   2.789   2.651   3.344
    1LIG    H50  141   2.615   2.517   3.434
    1LIG    H51  142   2.507   2.658   3.434
    1LIG    H52  143   2.614   2.517   3.612
    1LIG    H53  144   2.506   2.658   3.612
    1LIG    H54  145   2.680   2.792   3.702
    1LIG    H55  146   2.788   2.651   3.701
    1LIG    H56  147   2.681   2.791   3.880
    1LIG    H57  148   2.789   2.651   3.880
    1LIG    H58  149   2.615   2.517   3.970
    1LIG    H59  150   2.507   2.657   3.970
    1LIG    H60  151   2.615   2.516   4.148
    1LIG    H61  152   2.507   2.657   4.148
    1LIG    H62  153   2.681   2.791   4.237
    1LIG    H63  154   2.789   2.651   4.237
    1LIG    H64  155   2.681   2.791   4.416
    1LIG    H65  156   2.789   2.650   4.416
    1LIG    H66  157   2.615   2.516   4.505
    1LIG    H67  158   2.507   2.657   4.505
    1LIG    H68  159   2.615   2.516   4.683
    1LIG    H69  160   2.507   2.656   4.683
    1LIG    H70  161   2.681   2.790   4.773
    1LIG    H71  162   2.789   2.650   4.773
    1LIG    H72  163   2.681   2.790   4.952
    1LIG    H73  164   2.790   2.650   4.951
    1LIG    H74  165   2.616   2.516   5.041
    1LIG    H75  166   2.508   2.656   5.042
    1LIG    H76  167   2.616   2.515   5.219
    1LIG    H77  168   2.508   2.655   5.220
    1LIG    H78  169   2.681   2.789   5.310
    1LIG    H79  170   2.790   2.648   5.309
    1LIG    H80  171   2.682   2.789   5.488
    1LIG    H81  172   2.790   2.649   5.488
    1LIG    H82  173   2.617   2.514   5.577
    1LIG    H83  174   2.508   2.654   5.578
    1LIG    H84  175   2.617   2.513   5.756
    1LIG    H85  176   2.508   2.654   5.756
    1LIG    H86  177   2.682   2.788   5.845
    1LIG    H87  178   2.791   2.648   5.845
    1LIG    H88  179   2.683   2.788   6.024
    1LIG    H89  180   2.791   2.648   6.024
    1LIG    H90  181   2.617   2.513   6.113
    1LIG    H91  182   2.509   2.653   6.113
    1LIG    H92  183   2.618   2.512   6.292
    1LIG    H93  184   2.509   2.652   6.292
    1LIG    H94  185   2.683   2.787   6.381
    1LIG    H95  186   2.792   2.647   6.381
    1LIG    H96  187   2.683   2.786   6.560
    1LIG    H97  188   2.791   2.646   6.560
    1LIG    H98  189   2.618   2.511   6.648
    1LIG    H99  190   2.509   2.651   6.649
    1LIG   H100  191   2.618   2.511   6.827
    1LIG   H101  192   2.510   2.651   6.828
    1LIG   H102  193   2.684   2.786   6.916
    1LIG   H103  194   2.792   2.646   6.916
    1LIG   H104  195   2.684   2.785   7.095
    1LIG   H105  196   2.792   2.645   7.095
    1LIG   H106  197   2.619   2.510   7.184
    1LIG   H107  198   2.510   2.650   7.184
    1LIG   H108  199   2.620   2.510   7.363
    1LIG   H109  200   2.511   2.650   7.363
    1LIG   H110  201   2.684   2.784   7.453
    1LIG   H111  202   2.793   2.644   7.452
    1LIG   H112  203   2.685   2.784   7.631
    1LIG   H113  204   2.794   2.644   7.631
    1LIG   H114  205   2.621   2.509   7.721
    1LIG   H115  206   2.512   2.649   7.722
    1LIG   H116  207   2.621   2.508   7.899
    1LIG   H117  208   2.512   2.649   7.900
    1LIG   H118  209   2.793   2.642   7.991
    1LIG   H119  210   2.641   2.635   8.060
    1MOL     C1  211   2.097   2.647   3.552
    1MOL     H1  212   2.008   2.707   3.531
    1MOL     O1  213   2.123   2.574   3.434
    1MOL     C2  214   2.244   2.495   3.440
    1MOL     H2  215   2.329   2.559   3.465
    1MOL     C3  216   2.268   2.439   3.299
    1MOL     H3  217   2.172   2.436   3.246
    1MOL     H4  218   2.308   2.337   3.304
    1MOL     O2  219   2.357   2.521   3.224
    1MOL     H5  220   2.445   2.477   3.225
    1MOL     C4  221   2.075   2.551   3.670
    1MOL     H6  222   1.986   2.491   3.649
    1MOL     O3  223   2.050   2.619   3.792
    1MOL     H7  224   2.104   2.701   3.793
    1MOL     C5  225   2.196   2.459   3.683
    1MOL     H8  226   2.283   2.520   3.712
    1MOL     O4  227   2.174   2.358   3.782
    1MOL     H9  228   2.139   2.404   3.860
    1MOL     C6  229   2.230   2.390   3.552
    1MOL    H10  230   2.153   2.316   3.527
    1MOL     O5  231   2.356   2.325   3.574
    1MOL     C7  232   2.376   2.192   3.534
    1MOL    H11  233   2.281   2.143   3.509
    1MOL     O6  234   2.455   2.183   3.417
    1MOL     C8  235   2.584   2.248   3.428
    1MOL    H12  236   2.570   2.353   3.456
    1MOL     C9  237   2.647   2.243   3.291
    1MOL    H13  238   2.631   2.144   3.247
    1MOL    H14  239   2.755   2.262   3.299
    1MOL     O7  240   2.585   2.344   3.210
    1MOL    H15  241   2.608   2.329   3.117
    1MOL    C10  242   2.447   2.121   3.651
    1MOL    H16  243   2.457   2.015   3.625
    1MOL     O8  244   2.373   2.127   3.771
    1MOL    H17  245   2.327   2.213   3.777
    1MOL    C11  246   2.586   2.181   3.669
    1MOL    H18  247   2.575   2.285   3.700
    1MOL     O9  248   2.659   2.108   3.768
    1MOL    H19  249   2.598   2.098   3.843
    1MOL    C12  250   2.667   2.180   3.539
    1MOL    H20  251   2.691   2.076   3.511
    1MOL    O10  252   2.787   2.253   3.563
    1MOL    C13  253   2.914   2.193   3.544
    1MOL    H21  254   2.902   2.086   3.523
    1MOL    O11  255   2.980   2.247   3.432
    1MOL    C14  256   3.006   2.388   3.437
    1MOL    H22  257   2.910   2.443   3.436
    1MOL    C15  258   3.083   2.425   3.311
    1MOL    H23  259   3.087   2.535   3.305
    1MOL    H24  260   3.027   2.387   3.224
    1MOL    O12  261   3.213   2.369   3.318
    1MOL    H25  262   3.267   2.411   3.250
    1MOL    C16  263   2.996   2.217   3.671
    1MOL    H26  264   3.094   2.170   3.656
    1MOL    O13  265   2.941   2.159   3.787
    1MOL    H27  266   2.843   2.162   3.783
    1MOL    C17  267   3.016   2.367   3.689
    1MOL    H28  268   2.918   2.414   3.703
    1MOL    O14  269   3.099   2.394   3.802
    1MOL    H29  270   3.066   2.337   3.873
    1MOL    C18  271   3.082   2.428   3.566
    1MOL    H30  272   3.186   2.394   3.559
    1MOL    O15  273   3.076   2.570   3.581
    1MOL    C19  274   3.192   2.649   3.566
    1MOL    H31  275   3.281   2.586   3.552
    1MOL    O16  276   3.184   2.730   3.450
    1MOL    C20  277   3.069   2.817   3.446
    1MOL    H32  278   2.978   2.756   3.444
    1MOL    C21  279   3.076   2.896   3.316
    1MOL    H33  280   2.979   2.945   3.301
    1MOL    H34  281   3.093   2.825   3.234
    1MOL    O17  282   3.182   2.991   3.324
    1MOL    H35  283   3.174   3.050   3.248
    1MOL    C22  284   3.204   2.737   3.691
    1MOL    H36  285   3.293   2.800   3.681
    1MOL    O18  286   3.219   2.663   3.811
    1MOL    H37  287   3.162   2.584   3.808
    1MOL    C23  288   3.081   2.828   3.699
    1MOL    H38  289   2.992   2.765   3.713
    1MOL    O19  290   3.092   2.920   3.807
    1MOL    H39  291   3.121   2.868   3.883
    1MOL    C24  292   3.062   2.908   3.570
    1MOL    H40  293   3.139   2.985   3.564
    1MOL    O20  294   2.932   2.967   3.580
    1MOL    C25  295   2.911   3.100   3.539
    1MOL    H41  296   3.005   3.148   3.512
    1MOL    O21  297   2.829   3.106   3.424
    1MOL    C26  298   2.700   3.041   3.439
    1MOL    H42  299   2.718   2.937   3.468
    1MOL    C27  300   2.629   3.043   3.303
    1MOL    H43  301   2.572   2.951   3.290
    1MOL    H44  302   2.708   3.044   3.226
    1MOL    O22  303   2.546   3.157   3.282
    1MOL    H45  304   2.455   3.126   3.300
    1MOL    C28  305   2.843   3.172   3.657
    1MOL    H46  306   2.831   3.278   3.632
    1MOL    O23  307   2.920   3.168   3.776
    1MOL    H47  308   2.958   3.078   3.786
    1MOL    C29  309   2.704   3.111   3.680
    1MOL    H48  310   2.717   3.007   3.713
    1MOL    O24  311   2.632   3.185   3.779
    1MOL    H49  312   2.695   3.198   3.853
    1MOL    C30  313   2.623   3.112   3.552
    1MOL    H50  314   2.601   3.215   3.521
    1MOL    O25  315   2.501   3.043   3.581
    1MOL    C31  316   2.378   3.102   3.547
    1MOL    H51  317   2.391   3.208   3.522
    1MOL    O26  318   2.321   3.042   3.431
    1MOL    C32  319   2.300   2.899   3.441
    1MOL    H52  320   2.396   2.850   3.462
    1MOL    C33  321   2.250   2.851   3.304
    1MOL    H53  322   2.196   2.934   3.258
    1MOL    H54  323   2.181   2.768   3.318
    1MOL    O27  324   2.357   2.814   3.219
    1MOL    H55  325   2.362   2.716   3.219
    1MOL    C34  326   2.284   3.084   3.667
    1MOL    H56  327   2.189   3.135   3.644
    1MOL    O28  328   2.334   3.143   3.785
    1MOL    H57  329   2.432   3.135   3.786
    1MOL    C35  330   2.257   2.935   3.687
    1MOL    H58  331   2.352   2.887   3.714
    1MOL    O29  332   2.161   2.914   3.790
    1MOL    H59  333   2.188   2.971   3.864
    1MOL    C36  334   2.206   2.869   3.559
    1MOL    H60  335   2.103   2.904   3.538
    1MOL    O30  336   2.206   2.729   3.588
    1MOL     C1  337   3.203   2.647   4.528
    1MOL     H1  338   3.292   2.707   4.549
    1MOL     O1  339   3.177   2.574   4.646
    1MOL     C2  340   3.056   2.495   4.640
    1MOL     H2  341   2.971   2.559   4.615
    1MOL     C3  342   3.032   2.439   4.781
    1MOL     H3  343   3.128   2.436   4.834
    1MOL     H4  344   2.992   2.337   4.776
    1MOL     O2  345   2.943   2.521   4.856
    1MOL     H5  346   2.856   2.477   4.855
    1MOL     C4  347   3.225   2.551   4.410
    1MOL     H6  348   3.314   2.491   4.431
    1MOL     O3  349   3.250   2.619   4.288
    1MOL     H7  350   3.196   2.701   4.287
    1MOL     C5  351   3.104   2.459   4.397
    1MOL     H8  352   3.017   2.520   4.368
    1MOL     O4  353   3.126   2.358   4.298
    1MOL     H9  354   3.161   2.404   4.220
    1MOL     C6  355   3.070   2.390   4.528
    1MOL    H10  356   3.147   2.316   4.553
    1MOL     O5  357   2.944   2.325   4.506
    1MOL     C7  358   2.924   2.192   4.546
    1MOL    H11  359   3.019   2.143   4.571
    1MOL     O6  360   2.845   2.183   4.663
    1MOL     C8  361   2.716   2.248   4.652
    1MOL    H12  362   2.730   2.353   4.624
    1MOL     C9  363   2.653   2.243   4.789
    1MOL    H13  364   2.669   2.144   4.833
    1MOL    H14  365   2.545   2.262   4.781
    1MOL     O7  366   2.715   2.344   4.870
    1MOL    H15  367   2.692   2.329   4.962
    1MOL    C10  368   2.854   2.121   4.429
    1MOL    H16  369   2.843   2.015   4.455
    1MOL     O8  370   2.927   2.127   4.308
    1MOL    H17  371   2.973   2.213   4.303
    1MOL    C11  372   2.714   2.181   4.411
    1MOL    H18  373   2.725   2.285   4.380
    1MOL     O9  374   2.641   2.108   4.312
    1MOL    H19  375   2.702   2.098   4.237
    1MOL    C12  376   2.633   2.180   4.541
    1MOL    H20  377   2.610   2.076   4.569
    1MOL    O10  378   2.514   2.253   4.517
    1MOL    C13  379   2.386   2.193   4.536
    1MOL    H21  380   2.398   2.086   4.556
    1MOL    O11  381   2.320   2.247   4.648
    1MOL    C14  382   2.294   2.388   4.643
    1MOL    H22  383   2.390   2.443   4.644
    1MOL    C15  384   2.217   2.425   4.769
    1MOL    H23  385   2.213   2.535   4.775
    1MOL    H24  386   2.273   2.387   4.856
    1MOL    O12  387   2.087   2.369   4.762
    1MOL    H25  388   2.033   2.411   4.830
    1MOL    C16  389   2.304   2.217   4.409
    1MOL    H26  390   2.206   2.170   4.424
    1MOL    O13  391   2.359   2.159   4.292
    1MOL    H27  392   2.457   2.162   4.297
    1MOL    C17  393   2.284   2.367   4.391
    1MOL    H28  394   2.382   2.414   4.377
    1MOL    O14  395   2.201   2.394   4.278
    1MOL    H29  396   2.234   2.337   4.207
    1MOL    C18  397   2.218   2.428   4.514
    1MOL    H30  398   2.114   2.394   4.521
    1MOL    O15  399   2.224   2.570   4.498
    1MOL    C19  400   2.108   2.649   4.514
    1MOL    H31  401   2.019   2.586   4.528
    1MOL    O16  402   2.116   2.730   4.630
    1MOL    C20  403   2.231   2.817   4.634
    1MOL    H32  404   2.322   2.756   4.636
    1MOL    C21  405   2.224   2.896   4.764
    1MOL    H33  406   2.321   2.945   4.779
    1MOL    H34  407   2.207   2.825   4.846
    1MOL    O17  408   2.118   2.991   4.755
    1MOL    H35  409   2.126   3.050   4.832
    1MOL    C22  410   2.096   2.737   4.389
    1MOL    H36  411   2.007   2.800   4.399
    1MOL    O18  412   2.081   2.663   4.269
    1MOL    H37  413   2.138   2.584   4.272
    1MOL    C23  414   2.219   2.828   4.381
    1MOL    H38  415   2.308   2.765   4.367
    1MOL    O19  416   2.208   2.920   4.273
    1MOL    H39  417   2.179   2.868   4.197
    1MOL    C24  418   2.238   2.908   4.509
    1MOL    H40  419   2.161   2.985   4.516
    1MOL    O20  420   2.368   2.967   4.500
    1MOL    C25  421   2.390   3.100   4.541
    1MOL    H41  422   2.295   3.148   4.568
    1MOL    O21  423   2.471   3.106   4.656
    1MOL    C26  424   2.600   3.041   4.641
    1MOL    H42  425   2.582   2.937   4.612
    1MOL    C27  426   2.671   3.043   4.777
    1MOL    H43  427   2.728   2.951   4.790
    1MOL    H44  428   2.593   3.044   4.854
    1MOL    O22  429   2.754   3.157   4.798
    1MOL    H45  430   2.845   3.126   4.780
    1MOL    C28  431   2.457   3.172   4.422
    1MOL    H46  432   2.469   3.278   4.448
    1MOL    O23  433   2.380   3.168   4.304
    1MOL    H47  434   2.342   3.078   4.294
    1MOL    C29  435   2.596   3.111   4.400
    1MOL    H48  436   2.584   3.007   4.367
    1MOL    O24  437   2.668   3.185   4.300
    1MOL    H49  438   2.605   3.198   4.227
    1MOL    C30  439   2.677   3.112   4.528
    1MOL    H50  440   2.699   3.215   4.559
    1MOL    O25  441   2.799   3.043   4.499
    1MOL    C31  442   2.922   3.102   4.533
    1MOL    H51  443   2.909   3.208   4.558
    1MOL    O26  444   2.979   3.042   4.649
    1MOL    C32  445   3.000   2.899   4.639
    1MOL    H52  446   2.904   2.850   4.618
    1MOL    C33  447   3.050   2.851   4.776
    1MOL    H53  448   3.105   2.934   4.822
    1MOL    H54  449   3.120   2.768   4.762
    1MOL    O27  450   2.943   2.814   4.861
    1MOL    H55  451   2.938   2.716   4.860
    1MOL    C34  452   3.016   3.084   4.413
    1MOL    H56  453   3.111   3.135   4.436
    1MOL    O28  454   2.966   3.143   4.295
    1MOL    H57  455   2.868   3.135   4.294
    1MOL    C35  456   3.044   2.935   4.393
    1MOL    H58  457   2.949   2.887   4.366
    1MOL    O29  458   3.140   2.914   4.290
    1MOL    H59  459   3.112   2.971   4.216
    1MOL    C36  460   3.094   2.869   4.520
    1MOL    H60  461   3.197   2.904   4.542
    1MOL    O30  462   3.095   2.729   4.492
    2SOL     OW  463   0.230   0.628   0.113
    2SOL    HW1  464   0.137   0.626   0.150
    2SOL    HW2  465   0.231   0.589   0.021
    3SOL     OW  466   0.225   0.275   0.996
    3SOL    HW1  467   0.260   0.258   1.088
    3SOL    HW2  468   0.137   0.230   0.984
    4SOL     OW  469   0.019   0.368   0.647
    4SOL    HW1  470  -0.063   0.411   0.686
    4SOL    HW2  471  -0.009   0.295   0.584
    5SOL     OW  472   0.569   1.275   1.165
    5SOL    HW1  473   0.476   1.268   1.128
    5SOL    HW2  474   0.580   1.364   1.209
    6SOL     OW  475   1.555   1.511   0.703
    6SOL    HW1  476   1.498   1.495   0.784
    6SOL    HW2  477   1.496   1.521   0.623
    7SOL     OW  478   1.135   0.703   0.717
    7SOL    HW1  479   1.192   0.781   0.692
    7SOL    HW2  480   1.075   0.729   0.793
    8SOL     OW  481   1.755   0.607   0.231
    8SOL    HW1  482   1.743   0.594   0.132
    8SOL    HW2  483   1.725   0.526   0.280
    9SOL     OW  484   0.768   1.144   1.023
    9SOL    HW1  485   0.690   1.161   1.083
    9SOL    HW2  486   0.802   1.231   0.987
   10SOL     OW  487   0.850   0.798   1.823
   10SOL    HW1  488   0.846   0.874   1.888
   10SOL    HW2  489   0.872   0.834   1.732
   11SOL     OW  490   0.685   1.012   0.665
   11SOL    HW1  491   0.754   0.996   0.735
   11SOL    HW2  492   0.612   1.069   0.703
   12SOL     OW  493   0.686   1.161   1.803
   12SOL    HW1  494   0.746   1.240   1.817
   12SOL    HW2  495   0.600   1.192   1.762
   13SOL     OW  496   0.335   1.435   1.061
   13SOL    HW1  497   0.257   1.404   1.008
   13SOL    HW2  498   0.393   1.493   1.004
   14SOL     OW  499   1.460   1.505   1.339
   14SOL    HW1  500   1.484   1.599   1.365
   14SOL    HW2  501   1.444   1.451   1.421
   15SOL     OW  502   0.438   0.392   1.499
   15SOL    HW1  503   0.520   0.336   1.508
   15SOL    HW2  504   0.357   0.334   1.503
   16SOL     OW  505   1.603   0.447   0.737
   16SOL    HW1  506   1.529   0.493   0.687
   16SOL    HW2  507   1.654   0.515   0.790
   17SOL     OW  508   0.231   1.713   0.483
   17SOL    HW1  509   0.265   1.790   0.537
   17SOL    HW2  510   0.275   1.713   0.393
   18SOL     OW  511   1.127   1.341   1.690
   18SOL    HW1  512   1.174   1.341   1.778
   18SOL    HW2  513   1.079   1.254   1.679
   19SOL     OW  514   0.230   1.434   0.538
   19SOL    HW1  515   0.204   1.530   0.538
   19SOL    HW2  516   0.159   1.380   0.583
   20SOL     OW  517   0.240   1.091   0.886
   20SOL    HW1  518   0.254   1.007   0.938
   20SOL    HW2  519   0.185   1.155   0.941
   21SOL     OW  520   0.620   1.786   1.439
   21SOL    HW1  521   0.528   1.769   1.474
   21SOL    HW2  522   0.648   1.878   1.465
   22SOL     OW  523   0.606   0.964   0.123
   22SOL    HW1  524   0.613   1.048   0.069
   22SOL    HW2  525   0.652   0.977   0.211
   23SOL     OW  526   1.594   0.114   1.480
   23SOL    HW1  527   1.576   0.181   1.408
   23SOL    HW2  528   1.591   0.160   1.569
   24SOL     OW  529   0.122   0.643   0.563
   24SOL    HW1  530   0.077   0.555   0.580
   24SOL    HW2  531   0.121   0.697   0.647
   25SOL     OW  532   1.842   1.767   0.359
   25SOL    HW1  533   1.896   1.738   0.439
   25SOL    HW2  534   1.872   1.857   0.330
   26SOL     OW  535   0.027   1.596   0.117
   26SOL    HW1  536   0.008   1.500   0.138
   26SOL    HW2  537  -0.006   1.654   0.192
   27SOL     OW  538   1.689   0.922   0.612
   27SOL    HW1  539   1.784   0.893   0.620
   27SOL    HW2  540   1.681   0.987   0.537
   28SOL     OW  541   1.641   1.108   0.432
   28SOL    HW1  542   1.727   1.110   0.380
   28SOL    HW2  543   1.655   1.155   0.520
   29SOL     OW  544   0.113   0.737   1.597
   29SOL    HW1  545   0.201   0.724   1.642
   29SOL    HW2  546   0.100   0.834   1.575
   30SOL     OW  547   0.613   1.365   0.726
   30SOL    HW1  548   0.564   1.278   0.735
   30SOL    HW2  549   0.590   1.408   0.639
   31SOL     OW  550   1.293   1.228   1.423
   31SOL    HW1  551   1.330   1.155   1.365
   31SOL    HW2  552   1.345   1.233   1.508
   32SOL     OW  553   0.809   0.004   0.502
   32SOL    HW1  554   0.849   0.095   0.493
   32SOL    HW2  555   0.709   0.012   0.508
   33SOL     OW  556   0.197   0.976   1.264
   33SOL    HW1  557   0.286   0.931   1.250
   33SOL    HW2  558   0.124   0.911   1.245
   34SOL     OW  559   1.525   0.999   0.190
   34SOL    HW1  560   1.462   0.923   0.203
   34SOL    HW2  561   1.573   1.017   0.276
   35SOL     OW  562   1.187   1.792   1.616
   35SOL    HW1  563   1.211   1.852   1.540
   35SOL    HW2  564   1.194   1.697   1.586
   36SOL     OW  565   0.317   0.251   1.801
   36SOL    HW1  566   0.388   0.322   1.807
   36SOL    HW2  567   0.229   0.290   1.829
   37SOL     OW  568   1.466   1.417   0.953
   37SOL    HW1  569   1.407   1.423   1.033
   37SOL    HW2  570   1.451   1.329   0.907
   38SOL     OW  571   1.667   1.714   0.572
   38SOL    HW1  572   1.626   1.691   0.484
   38SOL    HW2  573   1.649   1.640   0.637
   39SOL     OW  574   0.598   0.729   0.270
   39SOL    HW1  575   0.622   0.798   0.202
   39SOL    HW2  576   0.520   0.762   0.324
   40SOL     OW  577   1.281   0.345   0.944
   40SOL    HW1  578   1.195   0.295   0.931
   40SOL    HW2  579   1.343   0.291   1.000
   41SOL     OW  580   1.576   1.662   0.307
   41SOL    HW1  581   1.665   1.708   0.310
   41SOL    HW2  582   1.555   1.638   0.212
   42SOL     OW  583   0.807   0.605   1.465
   42SOL    HW1  584   0.760   0.602   1.554
   42SOL    HW2  585   0.756   0.550   1.399
   43SOL     OW  586   1.394   0.469   1.674
   43SOL    HW1  587   1.374   0.512   1.762
   43SOL    HW2  588   1.472   0.407   1.683
   44SOL     OW  589   0.973   0.890   1.572
   44SOL    HW1  590   1.019   0.806   1.543
   44SOL    HW2  591   0.917   0.924   1.497
   45SOL     OW  592   0.991   0.410   1.242
   45SOL    HW1  593   0.914   0.444   1.296
   45SOL    HW2  594   0.957   0.359   1.163
   46SOL     OW  595   1.041   0.701   0.429
   46SOL    HW1  596   1.067   0.697   0.525
   46SOL    HW2  597   0.956   0.650   0.415
   47SOL     OW  598   0.076   0.811   0.789
   47SOL    HW1  599   0.175   0.799   0.798
   47SOL    HW2  600   0.052   0.906   0.810
   48SOL     OW  601   0.130   1.821   1.571
   48SOL    HW1  602   0.120   1.806   1.670
   48SOL    HW2  603   0.044   1.857   1.535
   49SOL     OW  604   0.865   0.348   0.195
   49SOL    HW1  605   0.924   0.411   0.146
   49SOL    HW2  606   0.884   0.254   0.166
   50SOL     OW  607   1.719   0.585   1.831
   50SOL    HW1  608   1.693   0.674   1.795
   50SOL    HW2  609   1.717   0.517   1.758
   51SOL     OW  610   1.362   1.144   0.545
   51SOL    HW1  611   1.445   1.115   0.497
   51SOL    HW2  612   1.313   1.211   0.489
   52SOL     OW  613   0.550   0.196   0.885
   52SOL    HW1  614   0.545   0.191   0.985
   52SOL    HW2  615   0.552   0.292   0.856
   53SOL     OW  616   1.008   1.456   0.477
   53SOL    HW1  617   0.962   1.528   0.425
   53SOL    HW2  618   1.004   1.476   0.575
   54SOL     OW  619   0.351   1.801   0.853
   54SOL    HW1  620   0.401   1.715   0.859
   54SOL    HW2  621   0.416   1.878   0.850
   55SOL     OW  622   1.795   1.066   0.873
   55SOL    HW1  623   1.733   1.051   0.797
   55SOL    HW2  624   1.743   1.077   0.958
   56SOL     OW  625   1.227   1.550   1.506
   56SOL    HW1  626   1.233   1.473   1.570
   56SOL    HW2  627   1.175   1.524   1.426
   57SOL     OW  628   0.321   0.943   0.242
   57SOL    HW1  629   0.403   0.982   0.200
   57SOL    HW2  630   0.294   0.861   0.193
   58SOL     OW  631   1.458   0.735   0.728
   58SOL    HW1  632   1.453   0.670   0.803
   58SOL    HW2  633   1.538   0.794   0.741
   59SOL     OW  634   0.461   1.266   1.727
   59SOL    HW1  635   0.411   1.267   1.641
   59SOL    HW2  636   0.398   1.248   1.803
   60SOL     OW  637   1.111   1.776   0.237
   60SOL    HW1  638   1.051   1.714   0.287
   60SOL    HW2  639   1.142   1.732   0.152
   61SOL     OW  640   0.202   0.285   1.498
   61SOL    HW1  641   0.122   0.345   1.485
   61SOL    HW2  642   0.192   0.236   1.584
   62SOL     OW  643   1.632   1.377   0.081
   62SOL    HW1  644   1.600   1.471   0.071
   62SOL    HW2  645   1.556   1.314   0.069
   63SOL     OW  646   0.464   1.743   0.323
   63SOL    HW1  647   0.497   1.782   0.409
   63SOL    HW2  648   0.540   1.736   0.258
   64SOL     OW  649   1.400   0.107   0.426
   64SOL    HW1  650   1.376   0.070   0.336
   64SOL    HW2  651   1.499   0.123   0.430
   65SOL     OW  652   0.249   1.785   1.241
   65SOL    HW1  653   0.306   1.720   1.291
   65SOL    HW2  654   0.233   1.752   1.148
   66SOL     OW  655   0.940   1.698   0.904
   66SOL    HW1  656   1.020   1.641   0.925
   66SOL    HW2  657   0.891   1.658   0.827
   67SOL     OW  658   0.382   0.700   0.480
   67SOL    HW1  659   0.427   0.610   0.477
   67SOL    HW2  660   0.288   0.689   0.513
   68SOL     OW  661   1.547   0.222   1.729
   68SOL    HW1  662   1.542   0.259   1.821
   68SOL    HW2  663   1.475   0.153   1.717
   69SOL     OW  664   0.614   0.122   0.117
   69SOL    HW1  665   0.712   0.100   0.124
   69SOL    HW2  666   0.583   0.105   0.024
   70SOL     OW  667   0.781   0.264   1.749
   70SOL    HW1  668   0.848   0.203   1.792
   70SOL    HW2  669   0.708   0.283   1.814
   71SOL     OW  670   0.888   1.514   1.195
   71SOL    HW1  671   0.865   1.489   1.101
   71SOL    HW2  672   0.949   1.445   1.234
   72SOL     OW  673   1.351   0.590   1.433
   72SOL    HW1  674   1.379   0.547   1.518
   72SOL    HW2  675   1.376   0.686   1.434
   73SOL     OW  676   0.803   1.402   0.924
   73SOL    HW1  677   0.893   1.416   0.882
   73SOL    HW2  678   0.732   1.404   0.853
   74SOL     OW  679   0.922   0.503   0.899
   74SOL    HW1  680   0.897   0.494   0.803
   74SOL    HW2  681   0.970   0.421   0.930
   75SOL     OW  682   0.539   0.064   0.512
   75SOL    HW1  683   0.458   0.065   0.570
   75SOL    HW2  684   0.542   0.147   0.457
   76SOL     OW  685   1.434   1.188   0.041
   76SOL    HW1  686   1.466   1.112   0.098
   76SOL    HW2  687   1.342   1.215   0.071
   77SOL     OW  688   0.297   0.035   0.171
   77SOL    HW1  689   0.346   0.119   0.150
   77SOL    HW2  690   0.359  -0.030   0.216
   78SOL     OW  691   0.935   0.236   0.480
   78SOL    HW1  692   0.887   0.277   0.402
   78SOL    HW2  693   1.034   0.234   0.461
   79SOL     OW  694   1.076   0.683   1.464
   79SOL    HW1  695   0.996   0.622   1.467
   79SOL    HW2  696   1.157   0.630   1.440
   80SOL     OW  697   1.227   1.570   0.793
   80SOL    HW1  698   1.248   1.644   0.728
   80SOL    HW2  699   1.295   1.570   0.866
   81SOL     OW  700   0.459   1.152   0.741
   81SOL    HW1  701   0.388   1.125   0.806
   81SOL    HW2  702   0.433   1.124   0.648
   82SOL     OW  703   1.271   1.797   0.591
   82SOL    HW1  704   1.315   1.861   0.527
   82SOL    HW2  705   1.221   1.849   0.661
   83SOL     OW  706   1.032   0.549   0.016
   83SOL    HW1  707   0.991   0.631  -0.023
   83SOL    HW2  708   1.096   0.575   0.089
   84SOL     OW  709   0.078   0.556   1.386
   84SOL    HW1  710   0.170   0.555   1.345
   84SOL    HW2  711   0.072   0.630   1.453
   85SOL     OW  712   0.561   0.222   1.147
   85SOL    HW1  713   0.599   0.138   1.184
   85SOL    HW2  714   0.473   0.241   1.191
   86SOL     OW  715   0.866   0.454   0.642
   86SOL    HW1  716   0.834   0.526   0.580
   86SOL    HW2  717   0.890   0.373   0.589
   87SOL     OW  718   1.017   0.039   0.753
   87SOL    HW1  719   0.945   0.044   0.684
   87SOL    HW2  720   0.993  -0.030   0.822
   88SOL     OW  721   1.429   1.173   0.867
   88SOL    HW1  722   1.374   1.089   0.860
   88SOL    HW2  723   1.455   1.202   0.775
   89SOL     OW  724   1.466   0.590   0.992
   89SOL    HW1  725   1.436   0.495   0.999
   89SOL    HW2  726   1.539   0.606   1.058
   90SOL     OW  727   1.857   0.833   0.377
   90SOL    HW1  728   1.899   0.769   0.441
   90SOL    HW2  729   1.819   0.782   0.299
   91SOL     OW  730   0.488   1.385   0.174
   91SOL    HW1  731   0.401   1.370   0.221
   91SOL    HW2  732   0.471   1.411   0.079
   92SOL     OW  733   1.664   1.280   0.657
   92SOL    HW1  734   1.763   1.288   0.671
   92SOL    HW2  735   1.619   1.364   0.688
   93SOL     OW  736   1.390   0.575   0.078
   93SOL    HW1  737   1.336   0.554   0.159
   93SOL    HW2  738   1.481   0.534   0.087
   94SOL     OW  739   0.527   0.256   0.328
   94SOL    HW1  740   0.554   0.197   0.253
   94SOL    HW2  741   0.527   0.351   0.297
   95SOL     OW  742   1.754   1.223   1.588
   95SOL    HW1  743   1.845   1.184   1.575
   95SOL    HW2  744   1.762   1.319   1.612
   96SOL     OW  745   1.064   1.347   1.340
   96SOL    HW1  746   0.984   1.324   1.395
   96SOL    HW2  747   1.147   1.321   1.389
   97SOL     OW  748   1.592   1.629   1.625
   97SOL    HW1  749   1.619   1.663   1.535
   97SOL    HW2  750   1.671   1.591   1.671
   98SOL     OW  751   1.111   1.195   1.100
   98SOL    HW1  752   1.071   1.239   1.181
   98SOL    HW2  753   1.070   1.232   1.017
   99SOL     OW  754   1.638   1.099   1.079
   99SOL    HW1  755   1.643   1.180   1.138
   99SOL    HW2  756   1.552   1.101   1.028
  100SOL     OW  757   0.915   0.089   1.402
  100SOL    HW1  758   0.940   0.069   1.307
  100SOL    HW2  759   0.987   0.145   1.444
  101SOL     OW  760   0.980   1.116   1.719
  101SOL    HW1  761   0.881   1.122   1.729
  101SOL    HW2  762   1.003   1.036   1.663
  102SOL     OW  763   0.705   1.050   0.368
  102SOL    HW1  764   0.691   1.057   0.467
  102SOL    HW2  765   0.789   0.999   0.350
  103SOL     OW  766   0.410   0.813   1.251
  103SOL    HW1  767   0.496   0.825   1.301
  103SOL    HW2  768   0.368   0.726   1.278
  104SOL     OW  769   1.274   0.386   1.262
  104SOL    HW1  770   1.295   0.460   1.326
  104SOL    HW2  771   1.185   0.403   1.219
  105SOL     OW  772   0.064   1.564   1.331
  105SOL    HW1  773   0.018   1.646   1.297
  105SOL    HW2  774   0.162   1.583   1.340
  106SOL     OW  775   0.367   1.100   0.501
  106SOL    HW1  776   0.360   1.183   0.445
  106SOL    HW2  777   0.371   1.020   0.441
  107SOL     OW  778   0.566   0.537   0.865
  107SOL    HW1  779   0.578   0.603   0.791
  107SOL    HW2  780   0.612   0.571   0.948
  108SOL     OW  781   1.252   1.348   0.388
  108SOL    HW1  782   1.302   1.425   0.428
  108SOL    HW2  783   1.157   1.350   0.420
  109SOL     OW  784   1.272   1.445   1.142
  109SOL    HW1  785   1.319   1.458   1.229
  109SOL    HW2  786   1.206   1.371   1.151
  110SOL     OW  787   1.582   0.639   0.472
  110SOL    HW1  788   1.551   0.700   0.545
  110SOL    HW2  789   1.632   0.691   0.403
  111SOL     OW  790   0.354   1.510   1.329
  111SOL    HW1  791   0.333   1.466   1.242
  111SOL    HW2  792   0.451   1.536   1.332
  112SOL     OW  793   0.402   0.751   1.598
  112SOL    HW1  794   0.470   0.806   1.551
  112SOL    HW2  795   0.442   0.663   1.625
  113SOL     OW  796   1.587   0.779   1.670
  113SOL    HW1  797   1.495   0.817   1.665
  113SOL    HW2  798   1.647   0.826   1.605
  114SOL     OW  799   1.013   0.105   1.770
  114SOL    HW1  800   1.019   0.190   1.718
  114SOL    HW2  801   1.045   0.029   1.713
  115SOL     OW  802   0.504   0.050   1.740
  115SOL    HW1  803   0.462  -0.007   1.670
  115SOL    HW2  804   0.438   0.119   1.772
  116SOL     OW  805   0.573   0.870   1.029
  116SOL    HW1  806   0.617   0.959   1.020
  116SOL    HW2  807   0.510   0.870   1.106
  117SOL     OW  808   1.360   0.862   1.045
  117SOL    HW1  809   1.285   0.862   0.979
  117SOL    HW2  810   1.397   0.770   1.054
  118SOL     OW  811   1.209   0.525   0.275
  118SOL    HW1  812   1.222   0.441   0.329
  118SOL    HW2  813   1.180   0.599   0.335
  119SOL     OW  814   0.307   0.213   1.231
  119SOL    HW1  815   0.284   0.250   1.321
  119SOL    HW2  816   0.277   0.118   1.225
  120SOL     OW  817   0.037   1.310   1.282
  120SOL    HW1  818   0.090   1.261   1.350
  120SOL    HW2  819   0.059   1.408   1.287
  121SOL     OW  820   0.732   0.634   1.064
  121SOL    HW1  821   0.791   0.608   0.988
  121SOL    HW2  822   0.704   0.730   1.053
  122SOL     OW  823   1.728   0.935   1.854
  122SOL    HW1  824   1.682   0.928   1.765
  122SOL    HW2  825   1.666   0.979   1.920
  123SOL     OW  826   0.307   0.063   0.618
  123SOL    HW1  827   0.296   0.157   0.651
  123SOL    HW2  828   0.302   0.000   0.695
  124SOL     OW  829   1.622   0.367   0.374
  124SOL    HW1  830   1.624   0.291   0.438
  124SOL    HW2  831   1.574   0.444   0.414
  125SOL     OW  832   1.023   0.766   0.966
  125SOL    HW1  833   1.038   0.787   1.062
  125SOL    HW2  834   0.993   0.671   0.957
  126SOL     OW  835   0.980   1.573   1.700
  126SOL    HW1  836   0.960   1.617   1.612
  126SOL    HW2  837   1.019   1.482   1.684
  127SOL     OW  838   1.859   1.518   1.605
  127SOL    HW1  839   1.873   1.545   1.510
  127SOL    HW2  840   1.942   1.540   1.658
  128SOL     OW  841   0.350   0.898   1.804
  128SOL    HW1  842   0.426   0.942   1.852
  128SOL    HW2  843   0.385   0.851   1.722
  129SOL     OW  844   1.540   0.274   0.125
  129SOL    HW1  845   1.479   0.199   0.148
  129SOL    HW2  846   1.562   0.326   0.208
  130SOL     OW  847   1.303   0.838   0.042
  130SOL    HW1  848   1.337   0.745   0.057
  130SOL    HW2  849   1.321   0.865  -0.053
  131SOL     OW  850   1.068   1.333   0.849
  131SOL    HW1  851   1.075   1.249   0.794
  131SOL    HW2  852   1.130   1.402   0.813
  132SOL     OW  853   0.319   0.810   0.949
  132SOL    HW1  854   0.412   0.846   0.954
  132SOL    HW2  855   0.313   0.725   1.001
  133SOL     OW  856   0.339   0.509   1.006
  133SOL    HW1  857   0.287   0.426   0.989
  133SOL    HW2  858   0.416   0.514   0.942
  134SOL     OW  859   1.138   0.380   1.678
  134SOL    HW1  860   1.093   0.443   1.742
  134SOL    HW2  861   1.231   0.411   1.661
  135SOL     OW  862   1.160   0.207   1.477
  135SOL    HW1  863   1.160   0.271   1.554
  135SOL    HW2  864   1.188   0.255   1.394
  136SOL     OW  865   0.008   1.326   0.200
  136SOL    HW1  866  -0.085   1.347   0.169
  136SOL    HW2  867   0.018   1.227   0.213
  137SOL     OW  868   0.088   1.801   0.927
  137SOL    HW1  869   0.046   1.715   0.900
  137SOL    HW2  870   0.182   1.804   0.893
  138SOL     OW  871   0.504   1.568   0.910
  138SOL    HW1  872   0.570   1.642   0.919
  138SOL    HW2  873   0.548   1.489   0.868
  139SOL     OW  874   1.002   0.796   1.238
  139SOL    HW1  875   1.043   0.764   1.324
  139SOL    HW2  876   0.906   0.769   1.235
  140SOL     OW  877   0.040   0.544   1.114
  140SOL    HW1  878   0.125   0.511   1.073
  140SOL    HW2  879   0.053   0.559   1.212
  141SOL     OW  880   0.189   0.520   1.722
  141SOL    HW1  881   0.248   0.480   1.652
  141SOL    HW2  882   0.131   0.591   1.681
  142SOL     OW  883   1.369   0.950   1.660
  142SOL    HW1  884   1.408   1.039   1.680
  142SOL    HW2  885   1.379   0.930   1.563
  143SOL     OW  886   0.815   0.572   0.325
  143SOL    HW1  887   0.822   0.483   0.279
  143SOL    HW2  888   0.721   0.606   0.317
  144SOL     OW  889   1.657   0.604   1.206
  144SOL    HW1  890   1.619   0.535   1.268
  144SOL    HW2  891   1.739   0.568   1.162
  145SOL     OW  892   0.252   1.564   1.744
  145SOL    HW1  893   0.222   1.621   1.820
  145SOL    HW2  894   0.245   1.467   1.770
  146SOL     OW  895   0.671   0.464   1.269
  146SOL    HW1  896   0.637   0.375   1.239
  146SOL    HW2  897   0.697   0.518   1.189
  147SOL     OW  898   0.930   1.678   1.465
  147SOL    HW1  899   0.906   1.660   1.370
  147SOL    HW2  900   0.960   1.772   1.475
  148SOL     OW  901   0.473   0.500   0.191
  148SOL    HW1  902   0.534   0.580   0.195
  148SOL    HW2  903   0.378   0.531   0.198
  149SOL     OW  904   0.159   1.137   1.466
  149SOL    HW1  905   0.181   1.076   1.542
  149SOL    HW2  906   0.169   1.088   1.380
  150SOL     OW  907   1.347   1.059   1.234
  150SOL    HW1  908   1.371   0.996   1.160
  150SOL    HW2  909   1.257   1.099   1.216
  151SOL     OW  910   1.302   0.855   0.309
  151SOL    HW1  911   1.216   0.824   0.351
  151SOL    HW2  912   1.298   0.841   0.210
  152SOL     OW  913   1.759   1.747   1.154
  152SOL    HW1  914   1.820   1.777   1.081
  152SOL    HW2  915   1.721   1.658   1.132
  153SOL     OW  916   1.252   1.731   1.128
  153SOL    HW1  917   1.336   1.736   1.074
  153SOL    HW2  918   1.229   1.635   1.146
  154SOL     OW  919   0.083   1.258   1.022
  154SOL    HW1  920   0.078   1.257   1.122
  154SOL    HW2  921   0.000   1.217   0.984
  155SOL     OW  922   0.688   1.662   1.716
  155SOL    HW1  923   0.632   1.743   1.725
  155SOL    HW2  924   0.740   1.666   1.630
  156SOL     OW  925   0.903   0.086   0.133
  156SOL    HW1  926   0.954   0.087   0.047
  156SOL    HW2  927   0.959   0.044   0.204
  157SOL     OW  928   1.726   0.135   0.523
  157SOL    HW1  929   1.799   0.118   0.456
  157SOL    HW2  930   1.695   0.048   0.561
  158SOL     OW  931   1.388   1.573   0.477
  158SOL    HW1  932   1.455   1.585   0.403
  158SOL    HW2  933   1.348   1.662   0.500
  159SOL     OW  934   0.130   1.794   1.851
  159SOL    HW1  935   0.089   1.720   1.904
  159SOL    HW2  936   0.194   1.845   1.909
  160SOL     OW  937   1.280   0.927   0.672
  160SOL    HW1  938   1.340   0.846   0.674
  160SOL    HW2  939   1.320   0.996   0.612
  161SOL     OW  940   0.830   1.273   1.422
  161SOL    HW1  941   0.825   1.306   1.517
  161SOL    HW2  942   0.744   1.292   1.376
  162SOL     OW  943   0.672   1.616   0.154
  162SOL    HW1  944   0.681   1.626   0.055
  162SOL    HW2  945   0.632   1.527   0.175
  163SOL     OW  946   1.650   1.720   1.394
  163SOL    HW1  947   1.703   1.730   1.310
  163SOL    HW2  948   1.623   1.810   1.428
  164SOL     OW  949   1.841   0.175   0.963
  164SOL    HW1  950   1.880   0.090   0.927
  164SOL    HW2  951   1.743   0.177   0.944
  165SOL     OW  952   0.263   0.326   0.720
  165SOL    HW1  953   0.184   0.377   0.686
  165SOL    HW2  954   0.254   0.311   0.818
  166SOL     OW  955   1.194   1.612   0.031
  166SOL    HW1  956   1.200   1.519   0.068
  166SOL    HW2  957   1.135   1.612  -0.049
  167SOL     OW  958   0.822   1.002   1.372
  167SOL    HW1  959   0.862   1.001   1.280
  167SOL    HW2  960   0.832   1.094   1.412
  168SOL     OW  961   0.916   0.910   0.291
  168SOL    HW1  962   0.979   0.948   0.223
  168SOL    HW2  963   0.956   0.827   0.330
  169SOL     OW  964   1.504   1.607   0.044
  169SOL    HW1  965   1.412   1.644   0.051
  169SOL    HW2  966   1.542   1.627  -0.046
  170SOL     OW  967   0.372   1.288   1.490
  170SOL    HW1  968   0.359   1.381   1.456
  170SOL    HW2  969   0.288   1.236   1.477
  171SOL     OW  970   1.614   1.292   1.289
  171SOL    HW1  971   1.674   1.295   1.369
  171SOL    HW2  972   1.539   1.356   1.302
  172SOL     OW  973   1.039   1.098   0.696
  172SOL    HW1  974   0.969   1.051   0.750
  172SOL    HW2  975   1.098   1.030   0.653
  173SOL     OW  976   1.014   0.236   0.971
  173SOL    HW1  977   1.006   0.200   0.878
  173SOL    HW2  978   1.012   0.160   1.036
  174SOL     OW  979   0.590   1.487   0.491
  174SOL    HW1  980   0.632   1.429   0.421
  174SOL    HW2  981   0.546   1.566   0.447
  175SOL     OW  982   1.709   0.385   1.381
  175SOL    HW1  983   1.782   0.454   1.385
  175SOL    HW2  984   1.737   0.310   1.322
  176SOL     OW  985   0.255   1.348   0.290
  176SOL    HW1  986   0.159   1.349   0.263
  176SOL    HW2  987   0.267   1.401   0.374
  177SOL     OW  988   0.105   1.013   1.726
  177SOL    HW1  989   0.028   0.980   1.780
  177SOL    HW2  990   0.190   0.983   1.768
  178SOL     OW  991   0.672   0.203   1.489
  178SOL    HW1  992   0.762   0.187   1.449
  178SOL    HW2  993   0.680   0.208   1.588
  179SOL     OW  994   0.075   0.345   0.033
  179SOL    HW1  995  -0.017   0.317   0.004
  179SOL    HW2  996   0.106   0.422  -0.023
  180SOL     OW  997   1.440   0.856   1.398
  180SOL    HW1  998   1.383   0.908   1.335
  180SOL    HW2  999   1.536   0.868   1.374
  181SOL     OW 1000   0.072   0.166   0.318
  181SOL    HW1 1001   0.055   0.249   0.264
  181SOL    HW2 1002   0.162   0.129   0.296
  182SOL     OW 1003   1.183   1.335   0.119
  182SOL    HW1 1004   1.084   1.324   0.121
  182SOL    HW2 1005   1.217   1.350   0.212
  183SOL     OW 1006   0.613   0.842   1.431
  183SOL    HW1 1007   0.669   0.923   1.414
  183SOL    HW2 1008   0.672   0.762   1.434
  184SOL     OW 1009   1.493   1.767   0.959
  184SOL    HW1 1010   1.526   1.831   0.890
  184SOL    HW2 1011   1.559   1.761   1.034
  185SOL     OW 1012   0.716   0.565   1.708
  185SOL    HW1 1013   0.735   0.630   1.782
  185SOL    HW2 1014   0.776   0.485   1.717
  186SOL     OW 1015   1.450   1.220   1.633
  186SOL    HW1 1016   1.441   1.210   1.732
  186SOL    HW2 1017   1.546   1.213   1.607
  187SOL     OW 1018   0.390   1.741   1.560
  187SOL    HW1 1019   0.299   1.782   1.558
  187SOL    HW2 1020   0.383   1.647   1.592
  188SOL     OW 1021   1.674   0.883   1.254
  188SOL    HW1 1022   1.647   0.794   1.217
  188SOL    HW2 1023   1.675   0.951   1.181
  189SOL     OW 1024   1.225   0.325   0.449
  189SOL    HW1 1025   1.290   0.251   0.438
  189SOL    HW2 1026   1.245   0.375   0.533
  190SOL     OW 1027   0.594   0.745   0.652
  190SOL    HW1 1028   0.644   0.830   0.633
  190SOL    HW2 1029   0.506   0.747   0.604
  191SOL     OW 1030   1.777   0.342   1.642
  191SOL    HW1 1031   1.760   0.373   1.548
  191SOL    HW2 1032   1.693   0.305   1.680
  192SOL     OW 1033   1.730   0.934   1.517
  192SOL    HW1 1034   1.768   1.025   1.532
  192SOL    HW2 1035   1.722   0.917   1.418
  193SOL     OW 1036   0.859   1.374   0.016
  193SOL    HW1 1037   0.813   1.389   0.104
  193SOL    HW2 1038   0.903   1.459  -0.014
  194SOL     OW 1039   0.661   1.790   0.953
  194SOL    HW1 1040   0.615   1.878   0.940
  194SOL    HW2 1041   0.760   1.802   0.946
  195SOL     OW 1042   0.859   0.956   0.861
  195SOL    HW1 1043   0.913   0.887   0.909
  195SOL    HW2 1044   0.827   1.025   0.927
  196SOL     OW 1045   1.083   0.984   0.087
  196SOL    HW1 1046   1.060   1.037   0.005
  196SOL    HW2 1047   1.164   0.928   0.068
  197SOL     OW 1048   1.861   1.569   0.851
  197SOL    HW1 1049   1.790   1.557   0.781
  197SOL    HW2 1050   1.862   1.490   0.911
  198SOL     OW 1051   0.221   1.314   1.844
  198SOL    HW1 1052   0.156   1.241   1.823
  198SOL    HW2 1053   0.225   1.328   1.942
  199SOL     OW 1054   0.079   1.240   0.653
  199SOL    HW1 1055   0.078   1.193   0.741
  199SOL    HW2 1056   0.161   1.212   0.602
  200SOL     OW 1057   0.672   1.391   1.624
  200SOL    HW1 1058   0.594   1.341   1.662
  200SOL    HW2 1059   0.669   1.486   1.655
  201SOL     OW 1060   1.824   0.192   1.227
  201SOL    HW1 1061   1.820   0.102   1.271
  201SOL    HW2 1062   1.827   0.181   1.128
  202SOL     OW 1063   0.428   0.424   0.520
  202SOL    HW1 1064   0.458   0.352   0.458
  202SOL    HW2 1065   0.389   0.384   0.603
  203SOL     OW 1066   1.705   1.487   1.104
  203SOL    HW1 1067   1.612   1.462   1.077
  203SOL    HW2 1068   1.731   1.437   1.186
  204SOL     OW 1069   0.317   0.547   1.280
  204SOL    HW1 1070   0.355   0.488   1.352
  204SOL    HW2 1071   0.357   0.521   1.192
  205SOL     OW 1072   0.812   1.586   0.687
  205SOL    HW1 1073   0.844   1.596   0.593
  205SOL    HW2 1074   0.733   1.524   0.689
  206SOL     OW 1075   1.424   0.214   1.112
  206SOL    HW1 1076   1.476   0.149   1.167
  206SOL    HW2 1077   1.375   0.277   1.173
  207SOL     OW 1078   1.001   0.034   1.154
  207SOL    HW1 1079   0.938  -0.038   1.123
  207SOL    HW2 1080   1.094  -0.002   1.154
  208SOL     OW 1081   0.770   1.330   0.301
  208SOL    HW1 1082   0.724   1.243   0.318
  208SOL    HW2 1083   0.861   1.327   0.342
  209SOL     OW 1084   0.618   1.567   1.284
  209SOL    HW1 1085   0.613   1.649   1.341
  209SOL    HW2 1086   0.707   1.564   1.239
  210SOL     OW 1087   1.352   0.052   0.168
  210SOL    HW1 1088   1.387   0.011   0.084
  210SOL    HW2 1089   1.262   0.014   0.188
  211SOL     OW 1090   1.300   0.453   0.691
  211SOL    HW1 1091   1.241   0.533   0.695
  211SOL    HW2 1092   1.315   0.418   0.784
  212SOL     OW 1093   1.593   0.221   0.882
  212SOL    HW1 1094   1.509   0.220   0.936
  212SOL    HW2 1095   1.595   0.304   0.826
  213SOL     OW 1096   0.039   1.077   0.300
  213SOL    HW1 1097   0.138   1.066   0.291
  213SOL    HW2 1098  -0.001   0.991   0.332
  214SOL     OW 1099   0.875   1.646   0.337
  214SOL    HW1 1100   0.798   1.611   0.283
  214SOL    HW2 1101   0.843   1.717   0.399
  215SOL     OW 1102   0.230   0.628   1.975
  215SOL    HW1 1103   0.137   0.626   2.012
  215SOL    HW2 1104   0.231   0.589   1.883
  216SOL     OW 1105   0.225   0.275   2.858
  216SOL    HW1 1106   0.260   0.258   2.950
  216SOL    HW2 1107   0.137   0.230   2.846
  217SOL     OW 1108   0.019   0.368   2.509
  217SOL    HW1 1109  -0.063   0.411   2.548
  217SOL    HW2 1110  -0.009   0.295   2.446
  218SOL     OW 1111   0.569   1.275   3.027
  218SOL    HW1 1112   0.476   1.268   2.990
  218SOL    HW2 1113   0.580   1.364   3.071
  219SOL     OW 1114   1.555   1.511   2.565
  219SOL    HW1 1115   1.498   1.495   2.646
  219SOL    HW2 1116   1.496   1.521   2.485
  220SOL     OW 1117   1.135   0.703   2.579
  220SOL    HW1 1118   1.192   0.781   2.554
  220SOL    HW2 1119   1.075   0.729   2.655
  221SOL     OW 1120   1.755   0.607   2.093
  221SOL    HW1 1121   1.743   0.594   1.994
  221SOL    HW2 1122   1.725   0.526   2.142
  222SOL     OW 1123   0.768   1.144   2.885
  222SOL    HW1 1124   0.690   1.161   2.945
  222SOL    HW2 1125   0.802   1.231   2.849
  223SOL     OW 1126   0.850   0.798   3.685
  223SOL    HW1 1127   0.846   0.874   3.750
  223SOL    HW2 1128   0.872   0.834   3.594
  224SOL     OW 1129   0.685   1.012   2.527
  224SOL    HW1 1130   0.754   0.996   2.597
  224SOL    HW2 1131   0.612   1.069   2.565
  225SOL     OW 1132   0.686   1.161   3.665
  225SOL    HW1 1133   0.746   1.240   3.679
  225SOL    HW2 1134   0.600   1.192   3.624
  226SOL     OW 1135   0.335   1.435   2.923
  226SOL    HW1 1136   0.257   1.404   2.870
  226SOL    HW2 1137   0.393   1.493   2.866
  227SOL     OW 1138   1.460   1.505   3.201
  227SOL    HW1 1139   1.484   1.599   3.227
  227SOL    HW2 1140   1.444   1.451   3.283
  228SOL     OW 1141   0.438   0.392   3.361
  228SOL    HW1 1142   0.520   0.336   3.370
  228SOL    HW2 1143   0.357   0.334   3.365
  229SOL     OW 1144   1.603   0.447   2.599
  229SOL    HW1 1145   1.529   0.493   2.549
  229SOL    HW2 1146   1.654   0.515   2.652
  230SOL     OW 1147   0.231   1.713   2.345
  230SOL    HW1 1148   0.265   1.790   2.399
  230SOL    HW2 1149   0.275   1.713   2.255
  231SOL     OW 1150   1.127   1.341   3.552
  231SOL    HW1 1151   1.174   1.341   3.640
  231SOL    HW2 1152   1.079   1.254   3.541
  232SOL     OW 1153   0.230   1.434   2.400
  232SOL    HW1 1154   0.204   1.530   2.400
  232SOL    HW2 1155   0.159   1.380   2.445
  233SOL     OW 1156   0.240   1.091   2.748
  233SOL    HW1 1157   0.254   1.007   2.800
  233SOL    HW2 1158   0.185   1.155   2.803
  234SOL     OW 1159   0.620   1.786   3.301
  234SOL    HW1 1160   0.528   1.769   3.336
  234SOL    HW2 1161   0.648   1.878   3.327
  235SOL     OW 1162   0.606   0.964   1.985
  235SOL    HW1 1163   0.613   1.048   1.931
  235SOL    HW2 1164   0.652   0.977   2.073
  236SOL     OW 1165   1.594   0.114   3.342
  236SOL    HW1 1166   1.576   0.181   3.270
  236SOL    HW2 1167   1.591   0.160   3.431
  237SOL     OW 1168   0.122   0.643   2.425
  237SOL    HW1 1169   0.077   0.555   2.442
  237SOL    HW2 1170   0.121   0.697   2.509
  238SOL     OW 1171   1.842   1.767   2.221
  238SOL    HW1 1172   1.896   1.738   2.301
  238SOL    HW2 1173   1.872   1.857   2.192
  239SOL     OW 1174   0.027   1.596   1.979
  239SOL    HW1 1175   0.008   1.500   2.000
  239SOL    HW2 1176  -0.006   1.654   2.054
  240SOL     OW 1177   1.689   0.922   2.474
  240SOL    HW1 1178   1.784   0.893   2.482
  240SOL    HW2 1179   1.681   0.987   2.399
  241SOL     OW 1180   1.641   1.108   2.294
  241SOL    HW1 1181   1.727   1.110   2.242
  241SOL    HW2 1182   1.655   1.155   2.382
  242SOL     OW 1183   0.113   0.737   3.459
  242SOL    HW1 1184   0.201   0.724   3.504
  242SOL    HW2 1185   0.100   0.834   3.437
  243SOL     OW 1186   0.613   1.365   2.588
  243SOL    HW1 1187   0.564   1.278   2.597
  243SOL    HW2 1188   0.590   1.408   2.501
  244SOL     OW 1189   1.293   1.228   3.285
  244SOL    HW1 1190   1.330   1.155   3.227
  244SOL    HW2 1191   1.345   1.233   3.370
  245SOL     OW 1192   0.809   0.004   2.364
  245SOL    HW1 1193   0.849   0.095   2.355
  245SOL    HW2 1194   0.709   0.012   2.370
  246SOL     OW 1195   0.197   0.976   3.126
  246SOL    HW1 1196   0.286   0.931   3.112
  246SOL    HW2 1197   0.124   0.911   3.107
  247SOL     OW 1198   1.525   0.999   2.052
  247SOL    HW1 1199   1.462   0.923   2.065
  247SOL    HW2 1200   1.573   1.017   2.138
  248SOL     OW 1201   1.187   1.792   3.478
  248SOL    HW1 1202   1.211   1.852   3.402
  248SOL    HW2 1203   1.194   1.697   3.448
  249SOL     OW 1204   0.317   0.251   3.663
  249SOL    HW1 1205   0.388   0.322   3.669
  249SOL    HW2 1206   0.229   0.290   3.691
  250SOL     OW 1207   1.466   1.417   2.815
  250SOL    HW1 1208   1.407   1.423   2.895
  250SOL    HW2 1209   1.451   1.329   2.769
  251SOL     OW 1210   1.667   1.714   2.434
  251SOL    HW1 1211   1.626   1.691   2.346
  251SOL    HW2 1212   1.649   1.640   2.499
  252SOL     OW 1213   0.598   0.729   2.132
  252SOL    HW1 1214   0.622   0.798   2.064
  252SOL    HW2 1215   0.520   0.762   2.186
  253SOL     OW 1216   1.281   0.345   2.806
  253SOL    HW1 1217   1.195   0.295   2.793
  253SOL    HW2 1218   1.343   0.291   2.862
  254SOL     OW 1219   1.576   1.662   2.169
  254SOL    HW1 1220   1.665   1.708   2.172
  254SOL    HW2 1221   1.555   1.638   2.074
  255SOL     OW 1222   0.807   0.605   3.327
  255SOL    HW1 1223   0.760   0.602   3.416
  255SOL    HW2 1224   0.756   0.550   3.261
  256SOL     OW 1225   1.394   0.469   3.536
  256SOL    HW1 1226   1.374   0.512   3.624
  256SOL    HW2 1227   1.472   0.407   3.545
  257SOL     OW 1228   0.973   0.890   3.434
  257SOL    HW1 1229   1.019   0.806   3.405
  257SOL    HW2 1230   0.917   0.924   3.359
  258SOL     OW 1231   0.991   0.410   3.104
  258SOL    HW1 1232   0.914   0.444   3.158
  258SOL    HW2 1233   0.957   0.359   3.025
  259SOL     OW 1234   1.041   0.701   2.291
  259SOL    HW1 1235   1.067   0.697   2.387
  259SOL    HW2 1236   0.956   0.650   2.277
  260SOL     OW 1237   0.076   0.811   2.651
  260SOL    HW1 1238   0.175   0.799   2.660
  260SOL    HW2 1239   0.052   0.906   2.672
  261SOL     OW 1240   0.130   1.821   3.433
  261SOL    HW1 1241   0.120   1.806   3.532
  261SOL    HW2 1242   0.044   1.857   3.397
  262SOL     OW 1243   0.865   0.348   2.057
  262SOL    HW1 1244   0.924   0.411   2.008
  262SOL    HW2 1245   0.884   0.254   2.028
  263SOL     OW 1246   1.719   0.585   3.693
  263SOL    HW1 1247   1.693   0.674   3.657
  263SOL    HW2 1248   1.717   0.517   3.620
  264SOL     OW 1249   1.362   1.144   2.407
  264SOL    HW1 1250   1.445   1.115   2.359
  264SOL    HW2 1251   1.313   1.211   2.351
  265SOL     OW 1252   0.550   0.196   2.747
  265SOL    HW1 1253   0.545   0.191   2.847
  265SOL    HW2 1254   0.552   0.292   2.718
  266SOL     OW 1255   1.008   1.456   2.339
  266SOL    HW1 1256   0.962   1.528   2.287
  266SOL    HW2 1257   1.004   1.476   2.437
  267SOL     OW 1258   0.351   1.801   2.715
  267SOL    HW1 1259   0.401   1.715   2.721
  267SOL    HW2 1260   0.416   1.878   2.712
  268SOL     OW 1261   1.795   1.066   2.735
  268SOL    HW1 1262   1.733   1.051   2.659
  268SOL    HW2 1263   1.743   1.077   2.820
  269SOL     OW 1264   1.227   1.550   3.368
  269SOL    HW1 1265   1.233   1.473   3.432
  269SOL    HW2 1266   1.175   1.524   3.288
  270SOL     OW 1267   0.321   0.943   2.104
  270SOL    HW1 1268   0.403   0.982   2.062
  270SOL    HW2 1269   0.294   0.861   2.055
  271SOL     OW 1270   1.458   0.735   2.590
  271SOL    HW1 1271   1.453   0.670   2.665
  271SOL    HW2 1272   1.538   0.794   2.603
  272SOL     OW 1273   0.461   1.266   3.589
  272SOL    HW1 1274   0.411   1.267   3.503
  272SOL    HW2 1275   0.398   1.248   3.665
  273SOL     OW 1276   1.111   1.776   2.099
  273SOL    HW1 1277   1.051   1.714   2.149
  273SOL    HW2 1278   1.142   1.732   2.014
  274SOL     OW 1279   0.202   0.285   3.360
  274SOL    HW1 1280   0.122   0.345   3.347
  274SOL    HW2 1281   0.192   0.236   3.446
  275SOL     OW 1282   1.632   1.377   1.943
  275SOL    HW1 1283   1.600   1.471   1.933
  275SOL    HW2 1284   1.556   1.314   1.931
  276SOL     OW 1285   0.464   1.743   2.185
  276SOL    HW1 1286   0.497   1.782   2.271
  276SOL    HW2 1287   0.540   1.736   2.120
  277SOL     OW 1288   1.400   0.107   2.288
  277SOL    HW1 1289   1.376   0.070   2.198
  277SOL    HW2 1290   1.499   0.123   2.292
  278SOL     OW 1291   0.249   1.785   3.103
  278SOL    HW1 1292   0.306   1.720   3.153
  278SOL    HW2 1293   0.233   1.752   3.010
  279SOL     OW 1294   0.940   1.698   2.766
  279SOL    HW1 1295   1.020   1.641   2.787
  279SOL    HW2 1296   0.891   1.658   2.689
  280SOL     OW 1297   0.382   0.700   2.342
  280SOL    HW1 1298   0.427   0.610   2.339
  280SOL    HW2 1299   0.288   0.689   2.375
  281SOL     OW 1300   1.547   0.222   3.591
  281SOL    HW1 1301   1.542   0.259   3.683
  281SOL    HW2 1302   1.475   0.153   3.579
  282SOL     OW 1303   0.614   0.122   1.979
  282SOL    HW1 1304   0.712   0.100   1.986
  282SOL    HW2 1305   0.583   0.105   1.886
  283SOL     OW 1306   0.781   0.264   3.611
  283SOL    HW1 1307   0.848   0.203   3.654
  283SOL    HW2 1308   0.708   0.283   3.676
  284SOL     OW 1309   0.888   1.514   3.057
  284SOL    HW1 1310   0.865   1.489   2.963
  284SOL    HW2 1311   0.949   1.445   3.096
  285SOL     OW 1312   1.351   0.590   3.295
  285SOL    HW1 1313   1.379   0.547   3.380
  285SOL    HW2 1314   1.376   0.686   3.296
  286SOL     OW 1315   0.803   1.402   2.786
  286SOL    HW1 1316   0.893   1.416   2.744
  286SOL    HW2 1317   0.732   1.404   2.715
  287SOL     OW 1318   0.922   0.503   2.761
  287SOL    HW1 1319   0.897   0.494   2.665
  287SOL    HW2 1320   0.970   0.421   2.792
  288SOL     OW 1321   0.539   0.064   2.374
  288SOL    HW1 1322   0.458   0.065   2.432
  288SOL    HW2 1323   0.542   0.147   2.319
  289SOL     OW 1324   1.434   1.188   1.903
  289SOL    HW1 1325   1.466   1.112   1.960
  289SOL    HW2 1326   1.342   1.215   1.933
  290SOL     OW 1327   0.297   0.035   2.033
  290SOL    HW1 1328   0.346   0.119   2.012
  290SOL    HW2 1329   0.359  -0.030   2.078
  291SOL     OW 1330   0.935   0.236   2.342
  291SOL    HW1 1331   0.887   0.277   2.264
  291SOL    HW2 1332   1.034   0.234   2.323
  292SOL     OW 1333   1.076   0.683   3.326
  292SOL    HW1 1334   0.996   0.622   3.329
  292SOL    HW2 1335   1.157   0.630   3.302
  293SOL     OW 1336   1.227   1.570   2.655
  293SOL    HW1 1337   1.248   1.644   2.590
  293SOL    HW2 1338   1.295   1.570   2.728
  294SOL     OW 1339   0.459   1.152   2.603
  294SOL    HW1 1340   0.388   1.125   2.668
  294SOL    HW2 1341   0.433   1.124   2.510
  295SOL     OW 1342   1.271   1.797   2.453
  295SOL    HW1 1343   1.315   1.861   2.389
  295SOL    HW2 1344   1.221   1.849   2.523
  296SOL     OW 1345   1.032   0.549   1.878
  296SOL    HW1 1346   0.991   0.631   1.839
  296SOL    HW2 1347   1.096   0.575   1.951
  297SOL     OW 1348   0.078   0.556   3.248
  297SOL    HW1 1349   0.170   0.555   3.207
  297SOL    HW2 1350   0.072   0.630   3.315
  298SOL     OW 1351   0.561   0.222   3.009
  298SOL    HW1 1352   0.599   0.138   3.046
  298SOL    HW2 1353   0.473   0.241   3.053
  299SOL     OW 1354   0.866   0.454   2.504
  299SOL    HW1 1355   0.834   0.526   2.442
  299SOL    HW2 1356   0.890   0.373   2.451
  300SOL     OW 1357   1.017   0.039   2.615
  300SOL    HW1 1358   0.945   0.044   2.546
  300SOL    HW2 1359   0.993  -0.030   2.684
  301SOL     OW 1360   1.429   1.173   2.729
  301SOL    HW1 1361   1.374   1.089   2.722
  301SOL    HW2 1362   1.455   1.202   2.637
  302SOL     OW 1363   1.466   0.590   2.854
  302SOL    HW1 1364   1.436   0.495   2.861
  302SOL    HW2 1365   1.539   0.606   2.920
  303SOL     OW 1366   1.857   0.833   2.239
  303SOL    HW1 1367   1.899   0.769   2.303
  303SOL    HW2 1368   1.819   0.782   2.161
  304SOL     OW 1369   0.488   1.385   2.036
  304SOL    HW1 1370   0.401   1.370   2.083
  304SOL    HW2 1371   0.471   1.411   1.941
  305SOL     OW 1372   1.664   1.280   2.519
  305SOL    HW1 1373   1.763   1.288   2.533
  305SOL    HW2 1374   1.619   1.364   2.550
  306SOL     OW 1375   1.390   0.575   1.940
  306SOL    HW1 1376   1.336   0.554   2.021
  306SOL    HW2 1377   1.481   0.534   1.949
  307SOL     OW 1378   0.527   0.256   2.190
  307SOL    HW1 1379   0.554   0.197   2.115
  307SOL    HW2 1380   0.527   0.351   2.159
  308SOL     OW 1381   1.754   1.223   3.450
  308SOL    HW1 1382   1.845   1.184   3.437
  308SOL    HW2 1383   1.762   1.319   3.474
  309SOL     OW 1384   1.064   1.347   3.202
  309SOL    HW1 1385   0.984   1.324   3.257
  309SOL    HW2 1386   1.147   1.321   3.251
  310SOL     OW 1387   1.592   1.629   3.487
  310SOL    HW1 1388   1.619   1.663   3.397
  310SOL    HW2 1389   1.671   1.591   3.533
  311SOL     OW 1390   1.111   1.195   2.962
  311SOL    HW1 1391   1.071   1.239   3.043
  311SOL    HW2 1392   1.070   1.232   2.879
  312SOL     OW 1393   1.638   1.099   2.941
  312SOL    HW1 1394   1.643   1.180   3.000
  312SOL    HW2 1395   1.552   1.101   2.890
  313SOL     OW 1396   0.915   0.089   3.264
  313SOL    HW1 1397   0.940   0.069   3.169
  313SOL    HW2 1398   0.987   0.145   3.306
  314SOL     OW 1399   0.980   1.116   3.581
  314SOL    HW1 1400   0.881   1.122   3.591
  314SOL    HW2 1401   1.003   1.036   3.525
  315SOL     OW 1402   0.705   1.050   2.230
  315SOL    HW1 1403   0.691   1.057   2.329
  315SOL    HW2 1404   0.789   0.999   2.212
  316SOL     OW 1405   0.410   0.813   3.113
  316SOL    HW1 1406   0.496   0.825   3.163
  316SOL    HW2 1407   0.368   0.726   3.140
  317SOL     OW 1408   1.274   0.386   3.124
  317SOL    HW1 1409   1.295   0.460   3.188
  317SOL    HW2 1410   1.185   0.403   3.081
  318SOL     OW 1411   0.064   1.564   3.193
  318SOL    HW1 1412   0.018   1.646   3.159
  318SOL    HW2 1413   0.162   1.583   3.202
  319SOL     OW 1414   0.367   1.100   2.363
  319SOL    HW1 1415   0.360   1.183   2.307
  319SOL    HW2 1416   0.371   1.020   2.303
  320SOL     OW 1417   0.566   0.537   2.727
  320SOL    HW1 1418   0.578   0.603   2.653
  320SOL    HW2 1419   0.612   0.571   2.810
  321SOL     OW 1420   1.252   1.348   2.250
  321SOL    HW1 1421   1.302   1.425   2.290
  321SOL    HW2 1422   1.157   1.350   2.282
  322SOL     OW 1423   1.272   1.445   3.004
  322SOL    HW1 1424   1.319   1.458   3.091
  322SOL    HW2 1425   1.206   1.371   3.013
  323SOL     OW 1426   1.582   0.639   2.334
  323SOL    HW1 1427   1.551   0.700   2.407
  323SOL    HW2 1428   1.632   0.691   2.265
  324SOL     OW 1429   0.354   1.510   3.191
  324SOL    HW1 1430   0.333   1.466   3.104
  324SOL    HW2 1431   0.451   1.536   3.194
  325SOL     OW 1432   0.402   0.751   3.460
  325SOL    HW1 1433   0.470   0.806   3.413
  325SOL    HW2 1434   0.442   0.663   3.487
  326SOL     OW 1435   1.587   0.779   3.532
  326SOL    HW1 1436   1.495   0.817   3.527
  326SOL    HW2 1437   1.647   0.826   3.467
  327SOL     OW 1438   1.013   0.105   3.632
  327SOL    HW1 1439   1.019   0.190   3.580
  327SOL    HW2 1440   1.045   0.029   3.575
  328SOL     OW 1441   0.504   0.050   3.602
  328SOL    HW1 1442   0.462  -0.007   3.532
  328SOL    HW2 1443   0.438   0.119   3.634
  329SOL     OW 1444   0.573   0.870   2.891
  329SOL    HW1 1445   0.617   0.959   2.882
  329SOL    HW2 1446   0.510   0.870   2.968
  330SOL     OW 1447   1.360   0.862   2.907
  330SOL    HW1 1448   1.285   0.862   2.841
  330SOL    HW2 1449   1.397   0.770   2.916
  331SOL     OW 1450   1.209   0.525   2.137
  331SOL    HW1 1451   1.222   0.441   2.191
  331SOL    HW2 1452   1.180   0.599   2.197
  332SOL     OW 1453   0.307   0.213   3.093
  332SOL    HW1 1454   0.284   0.250   3.183
  332SOL    HW2 1455   0.277   0.118   3.087
  333SOL     OW 1456   0.037   1.310   3.144
  333SOL    HW1 1457   0.090   1.261   3.212
  333SOL    HW2 1458   0.059   1.408   3.149
  334SOL     OW 1459   0.732   0.634   2.926
  334SOL    HW1 1460   0.791   0.608   2.850
  334SOL    HW2 1461   0.704   0.730   2.915
  335SOL     OW 1462   1.728   0.935   3.716
  335SOL    HW1 1463   1.682   0.928   3.627
  335SOL    HW2 1464   1.666   0.979   3.782
  336SOL     OW 1465   0.307   0.063   2.480
  336SOL    HW1 1466   0.296   0.157   2.513
  336SOL    HW2 1467   0.302   0.000   2.557
  337SOL     OW 1468   1.622   0.367   2.236
  337SOL    HW1 1469   1.624   0.291   2.300
  337SOL    HW2 1470   1.574   0.444   2.276
  338SOL     OW 1471   1.023   0.766   2.828
  338SOL    HW1 1472   1.038   0.787   2.924
  338SOL    HW2 1473   0.993   0.671   2.819
  339SOL     OW 1474   0.980   1.573   3.562
  339SOL    HW1 1475   0.960   1.617   3.474
  339SOL    HW2 1476   1.019   1.482   3.546
  340SOL     OW 1477   1.859   1.518   3.467
  340SOL    HW1 1478   1.873   1.545   3.372
  340SOL    HW2 1479   1.942   1.540   3.520
  341SOL     OW 1480   0.350   0.898   3.666
  341SOL    HW1 1481   0.426   0.942   3.714
  341SOL    HW2 1482   0.385   0.851   3.584
  342SOL     OW 1483   1.540   0.274   1.987
  342SOL    HW1 1484   1.479   0.199   2.010
  342SOL    HW2 1485   1.562   0.326   2.070
  343SOL     OW 1486   1.303   0.838   1.904
  343SOL    HW1 1487   1.337   0.745   1.919
  343SOL    HW2 1488   1.321   0.865   1.809
  344SOL     OW 1489   1.068   1.333   2.711
  344SOL    HW1 1490   1.075   1.249   2.656
  344SOL    HW2 1491   1.130   1.402   2.675
  345SOL     OW 1492   0.319   0.810   2.811
  345SOL    HW1 1493   0.412   0.846   2.816
  345SOL    HW2 1494   0.313   0.725   2.863
  346SOL     OW 1495   0.339   0.509   2.868
  346SOL    HW1 1496   0.287   0.426   2.851
  346SOL    HW2 1497   0.416   0.514   2.804
  347SOL     OW 1498   1.138   0.380   3.540
  347SOL    HW1 1499   1.093   0.443   3.604
  347SOL    HW2 1500   1.231   0.411   3.523
  348SOL     OW 1501   1.160   0.207   3.339
  348SOL    HW1 1502   1.160   0.271   3.416
  348SOL    HW2 1503   1.188   0.255   3.256
  349SOL     OW 1504   0.008   1.326   2.062
  349SOL    HW1 1505  -0.085   1.347   2.031
  349SOL    HW2 1506   0.018   1.227   2.075
  350SOL     OW 1507   0.088   1.801   2.789
  350SOL    HW1 1508   0.046   1.715   2.762
  350SOL    HW2 1509   0.182   1.804   2.755
  351SOL     OW 1510   0.504   1.568   2.772
  351SOL    HW1 1511   0.570   1.642   2.781
  351SOL    HW2 1512   0.548   1.489   2.730
  352SOL     OW 1513   1.002   0.796   3.100
  352SOL    HW1 1514   1.043   0.764   3.186
  352SOL    HW2 1515   0.906   0.769   3.097
  353SOL     OW 1516   0.040   0.544   2.976
  353SOL    HW1 1517   0.125   0.511   2.935
  353SOL    HW2 1518   0.053   0.559   3.074
  354SOL     OW 1519   0.189   0.520   3.584
  354SOL    HW1 1520   0.248   0.480   3.514
  354SOL    HW2 1521   0.131   0.591   3.543
  355SOL     OW 1522   1.369   0.950   3.522
  355SOL    HW1 1523   1.408   1.039   3.542
  355SOL    HW2 1524   1.379   0.930   3.425
  356SOL     OW 1525   0.815   0.572   2.187
  356SOL    HW1 1526   0.822   0.483   2.141
  356SOL    HW2 1527   0.721   0.606   2.179
  357SOL     OW 1528   1.657   0.604   3.068
  357SOL    HW1 1529   1.619   0.535   3.130
  357SOL    HW2 1530   1.739   0.568   3.024
  358SOL     OW 1531   0.252   1.564   3.606
  358SOL    HW1 1532   0.222   1.621   3.682
  358SOL    HW2 1533   0.245   1.467   3.632
  359SOL     OW 1534   0.671   0.464   3.131
  359SOL    HW1 1535   0.637   0.375   3.101
  359SOL    HW2 1536   0.697   0.518   3.051
  360SOL     OW 1537   0.930   1.678   3.327
  360SOL    HW1 1538   0.906   1.660   3.232
  360SOL    HW2 1539   0.960   1.772   3.337
  361SOL     OW 1540   0.473   0.500   2.053
  361SOL    HW1 1541   0.534   0.580   2.057
  361SOL    HW2 1542   0.378   0.531   2.060
  362SOL     OW 1543   0.159   1.137   3.328
  362SOL    HW1 1544   0.181   1.076   3.404
  362SOL    HW2 1545   0.169   1.088   3.242
  363SOL     OW 1546   1.347   1.059   3.096
  363SOL    HW1 1547   1.371   0.996   3.022
  363SOL    HW2 1548   1.257   1.099   3.078
  364SOL     OW 1549   1.302   0.855   2.171
  364SOL    HW1 1550   1.216   0.824   2.213
  364SOL    HW2 1551   1.298   0.841   2.072
  365SOL     OW 1552   1.759   1.747   3.016
  365SOL    HW1 1553   1.820   1.777   2.943
  365SOL    HW2 1554   1.721   1.658   2.994
  366SOL     OW 1555   1.252   1.731   2.990
  366SOL    HW1 1556   1.336   1.736   2.936
  366SOL    HW2 1557   1.229   1.635   3.008
  367SOL     OW 1558   0.083   1.258   2.884
  367SOL    HW1 1559   0.078   1.257   2.984
  367SOL    HW2 1560   0.000   1.217   2.846
  368SOL     OW 1561   0.688   1.662   3.578
  368SOL    HW1 1562   0.632   1.743   3.587
  368SOL    HW2 1563   0.740   1.666   3.492
  369SOL     OW 1564   1.726   0.135   2.385
  369SOL    HW1 1565   1.799   0.118   2.318
  369SOL    HW2 1566   1.695   0.048   2.423
  370SOL     OW 1567   1.388   1.573   2.339
  370SOL    HW1 1568   1.455   1.585   2.265
  370SOL    HW2 1569   1.348   1.662   2.362
  371SOL     OW 1570   0.130   1.794   3.713
  371SOL    HW1 1571   0.089   1.720   3.766
  371SOL    HW2 1572   0.194   1.845   3.771
  372SOL     OW 1573   1.280   0.927   2.534
  372SOL    HW1 1574   1.340   0.846   2.536
  372SOL    HW2 1575   1.320   0.996   2.474
  373SOL     OW 1576   0.830   1.273   3.284
  373SOL    HW1 1577   0.825   1.306   3.379
  373SOL    HW2 1578   0.744   1.292   3.238
  374SOL     OW 1579   0.672   1.616   2.016
  374SOL    HW1 1580   0.681   1.626   1.917
  374SOL    HW2 1581   0.632   1.527   2.037
  375SOL     OW 1582   1.650   1.720   3.256
  375SOL    HW1 1583   1.703   1.730   3.172
  375SOL    HW2 1584   1.623   1.810   3.290
  376SOL     OW 1585   1.841   0.175   2.825
  376SOL    HW1 1586   1.880   0.090   2.789
  376SOL    HW2 1587   1.743   0.177   2.806
  377SOL     OW 1588   0.263   0.326   2.582
  377SOL    HW1 1589   0.184   0.377   2.548
  377SOL    HW2 1590   0.254   0.311   2.680
  378SOL     OW 1591   1.194   1.612   1.893
  378SOL    HW1 1592   1.200   1.519   1.930
  378SOL    HW2 1593   1.135   1.612   1.813
  379SOL     OW 1594   0.822   1.002   3.234
  379SOL    HW1 1595   0.862   1.001   3.142
  379SOL    HW2 1596   0.832   1.094   3.274
  380SOL     OW 1597   0.916   0.910   2.153
  380SOL    HW1 1598   0.979   0.948   2.085
  380SOL    HW2 1599   0.956   0.827   2.192
  381SOL     OW 1600   1.504   1.607   1.906
  381SOL    HW1 1601   1.412   1.644   1.913
  381SOL    HW2 1602   1.542   1.627   1.816
  382SOL     OW 1603   0.372   1.288   3.352
  382SOL    HW1 1604   0.359   1.381   3.318
  382SOL    HW2 1605   0.288   1.236   3.339
  383SOL     OW 1606   1.614   1.292   3.151
  383SOL    HW1 1607   1.674   1.295   3.231
  383SOL    HW2 1608   1.539   1.356   3.164
  384SOL     OW 1609   1.039   1.098   2.558
  384SOL    HW1 1610   0.969   1.051   2.612
  384SOL    HW2 1611   1.098   1.030   2.515
  385SOL     OW 1612   1.014   0.236   2.833
  385SOL    HW1 1613   1.006   0.200   2.740
  385SOL    HW2 1614   1.012   0.160   2.898
  386SOL     OW 1615   0.590   1.487   2.353
  386SOL    HW1 1616   0.632   1.429   2.283
  386SOL    HW2 1617   0.546   1.566   2.309
  387SOL     OW 1618   1.709   0.385   3.243
  387SOL    HW1 1619   1.782   0.454   3.247
  387SOL    HW2 1620   1.737   0.310   3.184
  388SOL     OW 1621   0.255   1.348   2.152
  388SOL    HW1 1622   0.159   1.349   2.125
  388SOL    HW2 1623   0.267   1.401   2.236
  389SOL     OW 1624   0.105   1.013   3.588
  389SOL    HW1 1625   0.028   0.980   3.642
  389SOL    HW2 1626   0.190   0.983   3.630
  390SOL     OW 1627   0.672   0.203   3.351
  390SOL    HW1 1628   0.762   0.187   3.311
  390SOL    HW2 1629   0.680   0.208   3.450
  391SOL     OW 1630   0.075   0.345   1.895
  391SOL    HW1 1631  -0.017   0.317   1.866
  391SOL    HW2 1632   0.106   0.422   1.839
  392SOL     OW 1633   1.440   0.856   3.260
  392SOL    HW1 1634   1.383   0.908   3.197
  392SOL    HW2 1635   1.536   0.868   3.236
  393SOL     OW 1636   0.072   0.166   2.180
  393SOL    HW1 1637   0.055   0.249   2.126
  393SOL    HW2 1638   0.162   0.129   2.158
  394SOL     OW 1639   1.183   1.335   1.981
  394SOL    HW1 1640   1.084   1.324   1.983
  394SOL    HW2 1641   1.217   1.350   2.074
  395SOL     OW 1642   0.613   0.842   3.293
  395SOL    HW1 1643   0.669   0.923   3.276
  395SOL    HW2 1644   0.672   0.762   3.296
  396SOL     OW 1645   1.493   1.767   2.821
  396SOL    HW1 1646   1.526   1.831   2.752
  396SOL    HW2 1647   1.559   1.761   2.896
  397SOL     OW 1648   0.716   0.565   3.570
  397SOL    HW1 1649   0.735   0.630   3.644
  397SOL    HW2 1650   0.776   0.485   3.579
  398SOL     OW 1651   1.450   1.220   3.495
  398SOL    HW1 1652   1.441   1.210   3.594
  398SOL    HW2 1653   1.546   1.213   3.469
  399SOL     OW 1654   0.390   1.741   3.422
  399SOL    HW1 1655   0.299   1.782   3.420
  399SOL    HW2 1656   0.383   1.647   3.454
  400SOL     OW 1657   1.674   0.883   3.116
  400SOL    HW1 1658   1.647   0.794   3.079
  400SOL    HW2 1659   1.675   0.951   3.043
  401SOL     OW 1660   1.225   0.325   2.311
  401SOL    HW1 1661   1.290   0.251   2.300
  401SOL    HW2 1662   1.245   0.375   2.395
  402SOL     OW 1663   0.594   0.745   2.514
  402SOL    HW1 1664   0.644   0.830   2.495
  402SOL    HW2 1665   0.506   0.747   2.466
  403SOL     OW 1666   1.777   0.342   3.504
  403SOL    HW1 1667   1.760   0.373   3.410
  403SOL    HW2 1668   1.693   0.305   3.542
  404SOL     OW 1669   1.730   0.934   3.379
  404SOL    HW1 1670   1.768   1.025   3.394
  404SOL    HW2 1671   1.722   0.917   3.280
  405SOL     OW 1672   0.859   1.374   1.878
  405SOL    HW1 1673   0.813   1.389   1.966
  405SOL    HW2 1674   0.903   1.459   1.848
  406SOL     OW 1675   0.661   1.790   2.815
  406SOL    HW1 1676   0.615   1.878   2.802
  406SOL    HW2 1677   0.760   1.802   2.808
  407SOL     OW 1678   0.859   0.956   2.723
  407SOL    HW1 1679   0.913   0.887   2.771
  407SOL    HW2 1680   0.827   1.025   2.789
  408SOL     OW 1681   1.083   0.984   1.949
  408SOL    HW1 1682   1.060   1.037   1.867
  408SOL    HW2 1683   1.164   0.928   1.930
  409SOL     OW 1684   1.861   1.569   2.713
  409SOL    HW1 1685   1.790   1.557   2.643
  409SOL    HW2 1686   1.862   1.490   2.773
  410SOL     OW 1687   0.221   1.314   3.706
  410SOL    HW1 1688   0.156   1.241   3.685
  410SOL    HW2 1689   0.225   1.328   3.804
  411SOL     OW 1690   0.079   1.240   2.515
  411SOL    HW1 1691   0.078   1.193   2.603
  411SOL    HW2 1692   0.161   1.212   2.464
  412SOL     OW 1693   0.672   1.391   3.486
  412SOL    HW1 1694   0.594   1.341   3.524
  412SOL    HW2 1695   0.669   1.486   3.517
  413SOL     OW 1696   1.824   0.192   3.089
  413SOL    HW1 1697   1.820   0.102   3.133
  413SOL    HW2 1698   1.827   0.181   2.990
  414SOL     OW 1699   0.428   0.424   2.382
  414SOL    HW1 1700   0.458   0.352   2.320
  414SOL    HW2 1701   0.389   0.384   2.465
  415SOL     OW 1702   1.705   1.487   2.966
  415SOL    HW1 1703   1.612   1.462   2.939
  415SOL    HW2 1704   1.731   1.437   3.048
  416SOL     OW 1705   0.317   0.547   3.142
  416SOL    HW1 1706   0.355   0.488   3.214
  416SOL    HW2 1707   0.357   0.521   3.054
  417SOL     OW 1708   0.812   1.586   2.549
  417SOL    HW1 1709   0.844   1.596   2.455
  417SOL    HW2 1710   0.733   1.524   2.551
  418SOL     OW 1711   1.424   0.214   2.974
  418SOL    HW1 1712   1.476   0.149   3.029
  418SOL    HW2 1713   1.375   0.277   3.035
  419SOL     OW 1714   1.001   0.034   3.016
  419SOL    HW1 1715   0.938  -0.038   2.985
  419SOL    HW2 1716   1.094  -0.002   3.016
  420SOL     OW 1717   0.770   1.330   2.163
  420SOL    HW1 1718   0.724   1.243   2.180
  420SOL    HW2 1719   0.861   1.327   2.204
  421SOL     OW 1720   0.618   1.567   3.146
  421SOL    HW1 1721   0.613   1.649   3.203
  421SOL    HW2 1722   0.707   1.564   3.101
  422SOL     OW 1723   1.352   0.052   2.030
  422SOL    HW1 1724   1.387   0.011   1.946
  422SOL    HW2 1725   1.262   0.014   2.050
  423SOL     OW 1726   1.300   0.453   2.553
  423SOL    HW1 1727   1.241   0.533   2.557
  423SOL    HW2 1728   1.315   0.418   2.646
  424SOL     OW 1729   1.593   0.221   2.744
  424SOL    HW1 1730   1.509   0.220   2.798
  424SOL    HW2 1731   1.595   0.304   2.688
  425SOL     OW 1732   0.039   1.077   2.162
  425SOL    HW1 1733   0.138   1.066   2.153
  425SOL    HW2 1734  -0.001   0.991   2.194
  426SOL     OW 1735   0.875   1.646   2.199
  426SOL    HW1 1736   0.798   1.611   2.145
  426SOL    HW2 1737   0.843   1.717   2.261
  427SOL     OW 1738   0.230   0.628   3.837
  427SOL    HW1 1739   0.137   0.626   3.874
  427SOL    HW2 1740   0.231   0.589   3.745
  428SOL     OW 1741   0.225   0.275   4.720
  428SOL    HW1 1742   0.260   0.258   4.812
  428SOL    HW2 1743   0.137   0.230   4.708
  429SOL     OW 1744   0.019   0.368   4.371
  429SOL    HW1 1745  -0.063   0.411   4.410
  429SOL    HW2 1746  -0.009   0.295   4.308
  430SOL     OW 1747   0.569   1.275   4.889
  430SOL    HW1 1748   0.476   1.268   4.852
  430SOL    HW2 1749   0.580   1.364   4.933
  431SOL     OW 1750   1.555   1.511   4.427
  431SOL    HW1 1751   1.498   1.495   4.508
  431SOL    HW2 1752   1.496   1.521   4.347
  432SOL     OW 1753   1.135   0.703   4.441
  432SOL    HW1 1754   1.192   0.781   4.416
  432SOL    HW2 1755   1.075   0.729   4.517
  433SOL     OW 1756   1.755   0.607   3.955
  433SOL    HW1 1757   1.743   0.594   3.856
  433SOL    HW2 1758   1.725   0.526   4.004
  434SOL     OW 1759   0.768   1.144   4.747
  434SOL    HW1 1760   0.690   1.161   4.807
  434SOL    HW2 1761   0.802   1.231   4.711
  435SOL     OW 1762   0.850   0.798   5.547
  435SOL    HW1 1763   0.846   0.874   5.612
  435SOL    HW2 1764   0.872   0.834   5.456
  436SOL     OW 1765   0.685   1.012   4.389
  436SOL    HW1 1766   0.754   0.996   4.459
  436SOL    HW2 1767   0.612   1.069   4.427
  437SOL     OW 1768   0.686   1.161   5.527
  437SOL    HW1 1769   0.746   1.240   5.541
  437SOL    HW2 1770   0.600   1.192   5.486
  438SOL     OW 1771   0.335   1.435   4.785
  438SOL    HW1 1772   0.257   1.404   4.732
  438SOL    HW2 1773   0.393   1.493   4.728
  439SOL     OW 1774   1.460   1.505   5.063
  439SOL    HW1 1775   1.484   1.599   5.089
  439SOL    HW2 1776   1.444   1.451   5.145
  440SOL     OW 1777   0.438   0.392   5.223
  440SOL    HW1 1778   0.520   0.336   5.232
  440SOL    HW2 1779   0.357   0.334   5.227
  441SOL     OW 1780   1.603   0.447   4.461
  441SOL    HW1 1781   1.529   0.493   4.411
  441SOL    HW2 1782   1.654   0.515   4.514
  442SOL     OW 1783   0.231   1.713   4.207
  442SOL    HW1 1784   0.265   1.790   4.261
  442SOL    HW2 1785   0.275   1.713   4.117
  443SOL     OW 1786   1.127   1.341   5.414
  443SOL    HW1 1787   1.174   1.341   5.502
  443SOL    HW2 1788   1.079   1.254   5.403
  444SOL     OW 1789   0.230   1.434   4.262
  444SOL    HW1 1790   0.204   1.530   4.262
  444SOL    HW2 1791   0.159   1.380   4.307
  445SOL     OW 1792   0.240   1.091   4.610
  445SOL    HW1 1793   0.254   1.007   4.662
  445SOL    HW2 1794   0.185   1.155   4.665
  446SOL     OW 1795   0.620   1.786   5.163
  446SOL    HW1 1796   0.528   1.769   5.198
  446SOL    HW2 1797   0.648   1.878   5.189
  447SOL     OW 1798   0.606   0.964   3.847
  447SOL    HW1 1799   0.613   1.048   3.793
  447SOL    HW2 1800   0.652   0.977   3.935
  448SOL     OW 1801   1.594   0.114   5.204
  448SOL    HW1 1802   1.576   0.181   5.132
  448SOL    HW2 1803   1.591   0.160   5.293
  449SOL     OW 1804   0.122   0.643   4.287
  449SOL    HW1 1805   0.077   0.555   4.304
  449SOL    HW2 1806   0.121   0.697   4.371
  450SOL     OW 1807   1.842   1.767   4.083
  450SOL    HW1 1808   1.896   1.738   4.163
  450SOL    HW2 1809   1.872   1.857   4.054
  451SOL     OW 1810   0.027   1.596   3.841
  451SOL    HW1 1811   0.008   1.500   3.862
  451SOL    HW2 1812  -0.006   1.654   3.916
  452SOL     OW 1813   1.689   0.922   4.336
  452SOL    HW1 1814   1.784   0.893   4.344
  452SOL    HW2 1815   1.681   0.987   4.261
  453SOL     OW 1816   1.641   1.108   4.156
  453SOL    HW1 1817   1.727   1.110   4.104
  453SOL    HW2 1818   1.655   1.155   4.244
  454SOL     OW 1819   0.113   0.737   5.321
  454SOL    HW1 1820   0.201   0.724   5.366
  454SOL    HW2 1821   0.100   0.834   5.299
  455SOL     OW 1822   0.613   1.365   4.450
  455SOL    HW1 1823   0.564   1.278   4.459
  455SOL    HW2 1824   0.590   1.408   4.363
  456SOL     OW 1825   1.293   1.228   5.147
  456SOL    HW1 1826   1.330   1.155   5.089
  456SOL    HW2 1827   1.345   1.233   5.232
  457SOL     OW 1828   0.809   0.004   4.226
  457SOL    HW1 1829   0.849   0.095   4.217
  457SOL    HW2 1830   0.709   0.012   4.232
  458SOL     OW 1831   0.197   0.976   4.988
  458SOL    HW1 1832   0.286   0.931   4.974
  458SOL    HW2 1833   0.124   0.911   4.969
  459SOL     OW 1834   1.525   0.999   3.914
  459SOL    HW1 1835   1.462   0.923   3.927
  459SOL    HW2 1836   1.573   1.017   4.000
  460SOL     OW 1837   1.187   1.792   5.340
  460SOL    HW1 1838   1.211   1.852   5.264
  460SOL    HW2 1839   1.194   1.697   5.310
  461SOL     OW 1840   0.317   0.251   5.525
  461SOL    HW1 1841   0.388   0.322   5.531
  461SOL    HW2 1842   0.229   0.290   5.553
  462SOL     OW 1843   1.466   1.417   4.677
  462SOL    HW1 1844   1.407   1.423   4.757
  462SOL    HW2 1845   1.451   1.329   4.631
  463SOL     OW 1846   1.667   1.714   4.296
  463SOL    HW1 1847   1.626   1.691   4.208
  463SOL    HW2 1848   1.649   1.640   4.361
  464SOL     OW 1849   0.598   0.729   3.994
  464SOL    HW1 1850   0.622   0.798   3.926
  464SOL    HW2 1851   0.520   0.762   4.048
  465SOL     OW 1852   1.281   0.345   4.668
  465SOL    HW1 1853   1.195   0.295   4.655
  465SOL    HW2 1854   1.343   0.291   4.724
  466SOL     OW 1855   1.576   1.662   4.031
  466SOL    HW1 1856   1.665   1.708   4.034
  466SOL    HW2 1857   1.555   1.638   3.936
  467SOL     OW 1858   0.807   0.605   5.189
  467SOL    HW1 1859   0.760   0.602   5.278
  467SOL    HW2 1860   0.756   0.550   5.123
  468SOL     OW 1861   1.394   0.469   5.398
  468SOL    HW1 1862   1.374   0.512   5.486
  468SOL    HW2 1863   1.472   0.407   5.407
  469SOL     OW 1864   0.973   0.890   5.296
  469SOL    HW1 1865   1.019   0.806   5.267
  469SOL    HW2 1866   0.917   0.924   5.221
  470SOL     OW 1867   0.991   0.410   4.966
  470SOL    HW1 1868   0.914   0.444   5.020
  470SOL    HW2 1869   0.957   0.359   4.887
  471SOL     OW 1870   1.041   0.701   4.153
  471SOL    HW1 1871   1.067   0.697   4.249
  471SOL    HW2 1872   0.956   0.650   4.139
  472SOL     OW 1873   0.076   0.811   4.513
  472SOL    HW1 1874   0.175   0.799   4.522
  472SOL    HW2 1875   0.052   0.906   4.534
  473SOL     OW 1876   0.130   1.821   5.295
  473SOL    HW1 1877   0.120   1.806   5.394
  473SOL    HW2 1878   0.044   1.857   5.259
  474SOL     OW 1879   0.865   0.348   3.919
  474SOL    HW1 1880   0.924   0.411   3.870
  474SOL    HW2 1881   0.884   0.254   3.890
  475SOL     OW 1882   1.719   0.585   5.555
  475SOL    HW1 1883   1.693   0.674   5.519
  475SOL    HW2 1884   1.717   0.517   5.482
  476SOL     OW 1885   1.362   1.144   4.269
  476SOL    HW1 1886   1.445   1.115   4.221
  476SOL    HW2 1887   1.313   1.211   4.213
  477SOL     OW 1888   0.550   0.196   4.609
  477SOL    HW1 1889   0.545   0.191   4.709
  477SOL    HW2 1890   0.552   0.292   4.580
  478SOL     OW 1891   1.008   1.456   4.201
  478SOL    HW1 1892   0.962   1.528   4.149
  478SOL    HW2 1893   1.004   1.476   4.299
  479SOL     OW 1894   0.351   1.801   4.577
  479SOL    HW1 1895   0.401   1.715   4.583
  479SOL    HW2 1896   0.416   1.878   4.574
  480SOL     OW 1897   1.795   1.066   4.597
  480SOL    HW1 1898   1.733   1.051   4.521
  480SOL    HW2 1899   1.743   1.077   4.682
  481SOL     OW 1900   1.227   1.550   5.230
  481SOL    HW1 1901   1.233   1.473   5.294
  481SOL    HW2 1902   1.175   1.524   5.150
  482SOL     OW 1903   0.321   0.943   3.966
  482SOL    HW1 1904   0.403   0.982   3.924
  482SOL    HW2 1905   0.294   0.861   3.917
  483SOL     OW 1906   1.458   0.735   4.452
  483SOL    HW1 1907   1.453   0.670   4.527
  483SOL    HW2 1908   1.538   0.794   4.465
  484SOL     OW 1909   0.461   1.266   5.451
  484SOL    HW1 1910   0.411   1.267   5.365
  484SOL    HW2 1911   0.398   1.248   5.527
  485SOL     OW 1912   1.111   1.776   3.961
  485SOL    HW1 1913   1.051   1.714   4.011
  485SOL    HW2 1914   1.142   1.732   3.876
  486SOL     OW 1915   0.202   0.285   5.222
  486SOL    HW1 1916   0.122   0.345   5.209
  486SOL    HW2 1917   0.192   0.236   5.308
  487SOL     OW 1918   1.632   1.377   3.805
  487SOL    HW1 1919   1.600   1.471   3.795
  487SOL    HW2 1920   1.556   1.314   3.793
  488SOL     OW 1921   0.464   1.743   4.047
  488SOL    HW1 1922   0.497   1.782   4.133
  488SOL    HW2 1923   0.540   1.736   3.982
  489SOL     OW 1924   1.400   0.107   4.150
  489SOL    HW1 1925   1.376   0.070   4.060
  489SOL    HW2 1926   1.499   0.123   4.154
  490SOL     OW 1927   0.249   1.785   4.965
  490SOL    HW1 1928   0.306   1.720   5.015
  490SOL    HW2 1929   0.233   1.752   4.872
  491SOL     OW 1930   0.940   1.698   4.628
  491SOL    HW1 1931   1.020   1.641   4.649
  491SOL    HW2 1932   0.891   1.658   4.551
  492SOL     OW 1933   0.382   0.700   4.204
  492SOL    HW1 1934   0.427   0.610   4.201
  492SOL    HW2 1935   0.288   0.689   4.237
  493SOL     OW 1936   1.547   0.222   5.453
  493SOL    HW1 1937   1.542   0.259   5.545
  493SOL    HW2 1938   1.475   0.153   5.441
  494SOL     OW 1939   0.614   0.122   3.841
  494SOL    HW1 1940   0.712   0.100   3.848
  494SOL    HW2 1941   0.583   0.105   3.748
  495SOL     OW 1942   0.781   0.264   5.473
  495SOL    HW1 1943   0.848   0.203   5.516
  495SOL    HW2 1944   0.708   0.283   5.538
  496SOL     OW 1945   0.888   1.514   4.919
  496SOL    HW1 1946   0.865   1.489   4.825
  496SOL    HW2 1947   0.949   1.445   4.958
  497SOL     OW 1948   1.351   0.590   5.157
  497SOL    HW1 1949   1.379   0.547   5.242
  497SOL    HW2 1950   1.376   0.686   5.158
  498SOL     OW 1951   0.803   1.402   4.648
  498SOL    HW1 1952   0.893   1.416   4.606
  498SOL    HW2 1953   0.732   1.404   4.577
  499SOL     OW 1954   0.922   0.503   4.623
  499SOL    HW1 1955   0.897   0.494   4.527
  499SOL    HW2 1956   0.970   0.421   4.654
  500SOL     OW 1957   0.539   0.064   4.236
  500SOL    HW1 1958   0.458   0.065   4.294
  500SOL    HW2 1959   0.542   0.147   4.181
  501SOL     OW 1960   1.434   1.188   3.765
  501SOL    HW1 1961   1.466   1.112   3.822
  501SOL    HW2 1962   1.342   1.215   3.795
  502SOL     OW 1963   0.297   0.035   3.895
  502SOL    HW1 1964   0.346   0.119   3.874
  502SOL    HW2 1965   0.359  -0.030   3.940
  503SOL     OW 1966   0.935   0.236   4.204
  503SOL    HW1 1967   0.887   0.277   4.126
  503SOL    HW2 1968   1.034   0.234   4.185
  504SOL     OW 1969   1.076   0.683   5.188
  504SOL    HW1 1970   0.996   0.622   5.191
  504SOL    HW2 1971   1.157   0.630   5.164
  505SOL     OW 1972   1.227   1.570   4.517
  505SOL    HW1 1973   1.248   1.644   4.452
  505SOL    HW2 1974   1.295   1.570   4.590
  506SOL     OW 1975   0.459   1.152   4.465
  506SOL    HW1 1976   0.388   1.125   4.530
  506SOL    HW2 1977   0.433   1.124   4.372
  507SOL     OW 1978   1.271   1.797   4.315
  507SOL    HW1 1979   1.315   1.861   4.251
  507SOL    HW2 1980   1.221   1.849   4.385
  508SOL     OW 1981   1.032   0.549   3.740
  508SOL    HW1 1982   0.991   0.631   3.701
  508SOL    HW2 1983   1.096   0.575   3.813
  509SOL     OW 1984   0.078   0.556   5.110
  509SOL    HW1 1985   0.170   0.555   5.069
  509SOL    HW2 1986   0.072   0.630   5.177
  510SOL     OW 1987   0.561   0.222   4.871
  510SOL    HW1 1988   0.599   0.138   4.908
  510SOL    HW2 1989   0.473   0.241   4.915
  511SOL     OW 1990   0.866   0.454   4.366
  511SOL    HW1 1991   0.834   0.526   4.304
  511SOL    HW2 1992   0.890   0.373   4.313
  512SOL     OW 1993   1.017   0.039   4.477
  512SOL    HW1 1994   0.945   0.044   4.408
  512SOL    HW2 1995   0.993  -0.030   4.546
  513SOL     OW 1996   1.429   1.173   4.591
  513SOL    HW1 1997   1.374   1.089   4.584
  513SOL    HW2 1998   1.455   1.202   4.499
  514SOL     OW 1999   1.466   0.590   4.716
  514SOL    HW1 2000   1.436   0.495   4.723
  514SOL    HW2 2001   1.539   0.606   4.782
  515SOL     OW 2002   1.857   0.833   4.101
  515SOL    HW1 2003   1.899   0.769   4.165
  515SOL    HW2 2004   1.819   0.782   4.023
  516SOL     OW 2005   0.488   1.385   3.898
  516SOL    HW1 2006   0.401   1.370   3.945
  516SOL    HW2 2007   0.471   1.411   3.803
  517SOL     OW 2008   1.664   1.280   4.381
  517SOL    HW1 2009   1.763   1.288   4.395
  517SOL    HW2 2010   1.619   1.364   4.412
  518SOL     OW 2011   1.390   0.575   3.802
  518SOL    HW1 2012   1.336   0.554   3.883
  518SOL    HW2 2013   1.481   0.534   3.811
  519SOL     OW 2014   0.527   0.256   4.052
  519SOL    HW1 2015   0.554   0.197   3.977
  519SOL    HW2 2016   0.527   0.351   4.021
  520SOL     OW 2017   1.754   1.223   5.312
  520SOL    HW1 2018   1.845   1.184   5.299
  520SOL    HW2 2019   1.762   1.319   5.336
  521SOL     OW 2020   1.064   1.347   5.064
  521SOL    HW1 2021   0.984   1.324   5.119
  521SOL    HW2 2022   1.147   1.321   5.113
  522SOL     OW 2023   1.592   1.629   5.349
  522SOL    HW1 2024   1.619   1.663   5.259
  522SOL    HW2 2025   1.671   1.591   5.395
  523SOL     OW 2026   1.111   1.195   4.824
  523SOL    HW1 2027   1.071   1.239   4.905
  523SOL    HW2 2028   1.070   1.232   4.741
  524SOL     OW 2029   1.638   1.099   4.803
  524SOL    HW1 2030   1.643   1.180   4.862
  524SOL    HW2 2031   1.552   1.101   4.752
  525SOL     OW 2032   0.915   0.089   5.126
  525SOL    HW1 2033   0.940   0.069   5.031
  525SOL    HW2 2034   0.987   0.145   5.168
  526SOL     OW 2035   0.980   1.116   5.443
  526SOL    HW1 2036   0.881   1.122   5.453
  526SOL    HW2 2037   1.003   1.036   5.387
  527SOL     OW 2038   0.705   1.050   4.092
  527SOL    HW1 2039   0.691   1.057   4.191
  527SOL    HW2 2040   0.789   0.999   4.074
  528SOL     OW 2041   0.410   0.813   4.975
  528SOL    HW1 2042   0.496   0.825   5.025
  528SOL    HW2 2043   0.368   0.726   5.002
  529SOL     OW 2044   1.274   0.386   4.986
  529SOL    HW1 2045   1.295   0.460   5.050
  529SOL    HW2 2046   1.185   0.403   4.943
  530SOL     OW 2047   0.064   1.564   5.055
  530SOL    HW1 2048   0.018   1.646   5.021
  530SOL    HW2 2049   0.162   1.583   5.064
  531SOL     OW 2050   0.367   1.100   4.225
  531SOL    HW1 2051   0.360   1.183   4.169
  531SOL    HW2 2052   0.371   1.020   4.165
  532SOL     OW 2053   0.566   0.537   4.589
  532SOL    HW1 2054   0.578   0.603   4.515
  532SOL    HW2 2055   0.612   0.571   4.672
  533SOL     OW 2056   1.252   1.348   4.112
  533SOL    HW1 2057   1.302   1.425   4.152
  533SOL    HW2 2058   1.157   1.350   4.144
  534SOL     OW 2059   1.272   1.445   4.866
  534SOL    HW1 2060   1.319   1.458   4.953
  534SOL    HW2 2061   1.206   1.371   4.875
  535SOL     OW 2062   1.582   0.639   4.196
  535SOL    HW1 2063   1.551   0.700   4.269
  535SOL    HW2 2064   1.632   0.691   4.127
  536SOL     OW 2065   0.354   1.510   5.053
  536SOL    HW1 2066   0.333   1.466   4.966
  536SOL    HW2 2067   0.451   1.536   5.056
  537SOL     OW 2068   0.402   0.751   5.322
  537SOL    HW1 2069   0.470   0.806   5.275
  537SOL    HW2 2070   0.442   0.663   5.349
  538SOL     OW 2071   1.587   0.779   5.394
  538SOL    HW1 2072   1.495   0.817   5.389
  538SOL    HW2 2073   1.647   0.826   5.329
  539SOL     OW 2074   1.013   0.105   5.494
  539SOL    HW1 2075   1.019   0.190   5.442
  539SOL    HW2 2076   1.045   0.029   5.437
  540SOL     OW 2077   0.504   0.050   5.464
  540SOL    HW1 2078   0.462  -0.007   5.394
  540SOL    HW2 2079   0.438   0.119   5.496
  541SOL     OW 2080   0.573   0.870   4.753
  541SOL    HW1 2081   0.617   0.959   4.744
  541SOL    HW2 2082   0.510   0.870   4.830
  542SOL     OW 2083   1.360   0.862   4.769
  542SOL    HW1 2084   1.285   0.862   4.703
  542SOL    HW2 2085   1.397   0.770   4.778
  543SOL     OW 2086   1.209   0.525   3.999
  543SOL    HW1 2087   1.222   0.441   4.053
  543SOL    HW2 2088   1.180   0.599   4.059
  544SOL     OW 2089   0.307   0.213   4.955
  544SOL    HW1 2090   0.284   0.250   5.045
  544SOL    HW2 2091   0.277   0.118   4.949
  545SOL     OW 2092   0.037   1.310   5.006
  545SOL    HW1 2093   0.090   1.261   5.074
  545SOL    HW2 2094   0.059   1.408   5.011
  546SOL     OW 2095   0.732   0.634   4.788
  546SOL    HW1 2096   0.791   0.608   4.712
  546SOL    HW2 2097   0.704   0.730   4.777
  547SOL     OW 2098   1.728   0.935   5.578
  547SOL    HW1 2099   1.682   0.928   5.489
  547SOL    HW2 2100   1.666   0.979   5.644
  548SOL     OW 2101   0.307   0.063   4.342
  548SOL    HW1 2102   0.296   0.157   4.375
  548SOL    HW2 2103   0.302   0.000   4.419
  549SOL     OW 2104   1.622   0.367   4.098
  549SOL    HW1 2105   1.624   0.291   4.162
  549SOL    HW2 2106   1.574   0.444   4.138
  550SOL     OW 2107   1.023   0.766   4.690
  550SOL    HW1 2108   1.038   0.787   4.786
  550SOL    HW2 2109   0.993   0.671   4.681
  551SOL     OW 2110   0.980   1.573   5.424
  551SOL    HW1 2111   0.960   1.617   5.336
  551SOL    HW2 2112   1.019   1.482   5.408
  552SOL     OW 2113   1.859   1.518   5.329
  552SOL    HW1 2114   1.873   1.545   5.234
  552SOL    HW2 2115   1.942   1.540   5.382
  553SOL     OW 2116   0.350   0.898   5.528
  553SOL    HW1 2117   0.426   0.942   5.576
  553SOL    HW2 2118   0.385   0.851   5.446
  554SOL     OW 2119   1.540   0.274   3.849
  554SOL    HW1 2120   1.479   0.199   3.872
  554SOL    HW2 2121   1.562   0.326   3.932
  555SOL     OW 2122   1.303   0.838   3.766
  555SOL    HW1 2123   1.337   0.745   3.781
  555SOL    HW2 2124   1.321   0.865   3.671
  556SOL     OW 2125   1.068   1.333   4.573
  556SOL    HW1 2126   1.075   1.249   4.518
  556SOL    HW2 2127   1.130   1.402   4.537
  557SOL     OW 2128   0.319   0.810   4.673
  557SOL    HW1 2129   0.412   0.846   4.678
  557SOL    HW2 2130   0.313   0.725   4.725
  558SOL     OW 2131   0.339   0.509   4.730
  558SOL    HW1 2132   0.287   0.426   4.713
  558SOL    HW2 2133   0.416   0.514   4.666
  559SOL     OW 2134   1.138   0.380   5.402
  559SOL    HW1 2135   1.093   0.443   5.466
  559SOL    HW2 2136   1.231   0.411   5.385
  560SOL     OW 2137   1.160   0.207   5.201
  560SOL    HW1 2138   1.160   0.271   5.278
  560SOL    HW2 2139   1.188   0.255   5.118
  561SOL     OW 2140   0.008   1.326   3.924
  561SOL    HW1 2141  -0.085   1.347   3.893
  561SOL    HW2 2142   0.018   1.227   3.937
  562SOL     OW 2143   0.088   1.801   4.651
  562SOL    HW1 2144   0.046   1.715   4.624
  562SOL    HW2 2145   0.182   1.804   4.617
  563SOL     OW 2146   0.504   1.568   4.634
  563SOL    HW1 2147   0.570   1.642   4.643
  563SOL    HW2 2148   0.548   1.489   4.592
  564SOL     OW 2149   1.002   0.796   4.962
  564SOL    HW1 2150   1.043   0.764   5.048
  564SOL    HW2 2151   0.906   0.769   4.959
  565SOL     OW 2152   0.040   0.544   4.838
  565SOL    HW1 2153   0.125   0.511   4.797
  565SOL    HW2 2154   0.053   0.559   4.936
  566SOL     OW 2155   0.189   0.520   5.446
  566SOL    HW1 2156   0.248   0.480   5.376
  566SOL    HW2 2157   0.131   0.591   5.405
  567SOL     OW 2158   1.369   0.950   5.384
  567SOL    HW1 2159   1.408   1.039   5.404
  567SOL    HW2 2160   1.379   0.930   5.287
  568SOL     OW 2161   0.815   0.572   4.049
  568SOL    HW1 2162   0.822   0.483   4.003
  568SOL    HW2 2163   0.721   0.606   4.041
  569SOL     OW 2164   1.657   0.604   4.930
  569SOL    HW1 2165   1.619   0.535   4.992
  569SOL    HW2 2166   1.739   0.568   4.886
  570SOL     OW 2167   0.252   1.564   5.468
  570SOL    HW1 2168   0.222   1.621   5.544
  570SOL    HW2 2169   0.245   1.467   5.494
  571SOL     OW 2170   0.671   0.464   4.993
  571SOL    HW1 2171   0.637   0.375   4.963
  571SOL    HW2 2172   0.697   0.518   4.913
  572SOL     OW 2173   0.930   1.678   5.189
  572SOL    HW1 2174   0.906   1.660   5.094
  572SOL    HW2 2175   0.960   1.772   5.199
  573SOL     OW 2176   0.473   0.500   3.915
  573SOL    HW1 2177   0.534   0.580   3.919
  573SOL    HW2 2178   0.378   0.531   3.922
  574SOL     OW 2179   0.159   1.137   5.190
  574SOL    HW1 2180   0.181   1.076   5.266
  574SOL    HW2 2181   0.169   1.088   5.104
  575SOL     OW 2182   1.347   1.059   4.958
  575SOL    HW1 2183   1.371   0.996   4.884
  575SOL    HW2 2184   1.257   1.099   4.940
  576SOL     OW 2185   1.302   0.855   4.033
  576SOL    HW1 2186   1.216   0.824   4.075
  576SOL    HW2 2187   1.298   0.841   3.934
  577SOL     OW 2188   1.759   1.747   4.878
  577SOL    HW1 2189   1.820   1.777   4.805
  577SOL    HW2 2190   1.721   1.658   4.856
  578SOL     OW 2191   1.252   1.731   4.852
  578SOL    HW1 2192   1.336   1.736   4.798
  578SOL    HW2 2193   1.229   1.635   4.870
  579SOL     OW 2194   0.083   1.258   4.746
  579SOL    HW1 2195   0.078   1.257   4.846
  579SOL    HW2 2196   0.000   1.217   4.708
  580SOL     OW 2197   0.688   1.662   5.440
  580SOL    HW1 2198   0.632   1.743   5.449
  580SOL    HW2 2199   0.740   1.666   5.354
  581SOL     OW 2200   1.726   0.135   4.247
  581SOL    HW1 2201   1.799   0.118   4.180
  581SOL    HW2 2202   1.695   0.048   4.285
  582SOL     OW 2203   1.388   1.573   4.201
  582SOL    HW1 2204   1.455   1.585   4.127
  582SOL    HW2 2205   1.348   1.662   4.224
  583SOL     OW 2206   0.130   1.794   5.575
  583SOL    HW1 2207   0.089   1.720   5.628
  583SOL    HW2 2208   0.194   1.845   5.633
  584SOL     OW 2209   1.280   0.927   4.396
  584SOL    HW1 2210   1.340   0.846   4.398
  584SOL    HW2 2211   1.320   0.996   4.336
  585SOL     OW 2212   0.830   1.273   5.146
  585SOL    HW1 2213   0.825   1.306   5.241
  585SOL    HW2 2214   0.744   1.292   5.100
  586SOL     OW 2215   0.672   1.616   3.878
  586SOL    HW1 2216   0.681   1.626   3.779
  586SOL    HW2 2217   0.632   1.527   3.899
  587SOL     OW 2218   1.650   1.720   5.118
  587SOL    HW1 2219   1.703   1.730   5.034
  587SOL    HW2 2220   1.623   1.810   5.152
  588SOL     OW 2221   1.841   0.175   4.687
  588SOL    HW1 2222   1.880   0.090   4.651
  588SOL    HW2 2223   1.743   0.177   4.668
  589SOL     OW 2224   0.263   0.326   4.444
  589SOL    HW1 2225   0.184   0.377   4.410
  589SOL    HW2 2226   0.254   0.311   4.542
  590SOL     OW 2227   1.194   1.612   3.755
  590SOL    HW1 2228   1.200   1.519   3.792
  590SOL    HW2 2229   1.135   1.612   3.675
  591SOL     OW 2230   0.822   1.002   5.096
  591SOL    HW1 2231   0.862   1.001   5.004
  591SOL    HW2 2232   0.832   1.094   5.136
  592SOL     OW 2233   0.916   0.910   4.015
  592SOL    HW1 2234   0.979   0.948   3.947
  592SOL    HW2 2235   0.956   0.827   4.054
  593SOL     OW 2236   1.504   1.607   3.768
  593SOL    HW1 2237   1.412   1.644   3.775
  593SOL    HW2 2238   1.542   1.627   3.678
  594SOL     OW 2239   0.372   1.288   5.214
  594SOL    HW1 2240   0.359   1.381   5.180
  594SOL    HW2 2241   0.288   1.236   5.201
  595SOL     OW 2242   1.614   1.292   5.013
  595SOL    HW1 2243   1.674   1.295   5.093
  595SOL    HW2 2244   1.539   1.356   5.026
  596SOL     OW 2245   1.039   1.098   4.420
  596SOL    HW1 2246   0.969   1.051   4.474
  596SOL    HW2 2247   1.098   1.030   4.377
  597SOL     OW 2248   1.014   0.236   4.695
  597SOL    HW1 2249   1.006   0.200   4.602
  597SOL    HW2 2250   1.012   0.160   4.760
  598SOL     OW 2251   0.590   1.487   4.215
  598SOL    HW1 2252   0.632   1.429   4.145
  598SOL    HW2 2253   0.546   1.566   4.171
  599SOL     OW 2254   1.709   0.385   5.105
  599SOL    HW1 2255   1.782   0.454   5.109
  599SOL    HW2 2256   1.737   0.310   5.046
  600SOL     OW 2257   0.255   1.348   4.014
  600SOL    HW1 2258   0.159   1.349   3.987
  600SOL    HW2 2259   0.267   1.401   4.098
  601SOL     OW 2260   0.105   1.013   5.450
  601SOL    HW1 2261   0.028   0.980   5.504
  601SOL    HW2 2262   0.190   0.983   5.492
  602SOL     OW 2263   0.672   0.203   5.213
  602SOL    HW1 2264   0.762   0.187   5.173
  602SOL    HW2 2265   0.680   0.208   5.312
  603SOL     OW 2266   0.075   0.345   3.757
  603SOL    HW1 2267  -0.017   0.317   3.728
  603SOL    HW2 2268   0.106   0.422   3.701
  604SOL     OW 2269   1.440   0.856   5.122
  604SOL    HW1 2270   1.383   0.908   5.059
  604SOL    HW2 2271   1.536   0.868   5.098
  605SOL     OW 2272   0.072   0.166   4.042
  605SOL    HW1 2273   0.055   0.249   3.988
  605SOL    HW2 2274   0.162   0.129   4.020
  606SOL     OW 2275   1.183   1.335   3.843
  606SOL    HW1 2276   1.084   1.324   3.845
  606SOL    HW2 2277   1.217   1.350   3.936
  607SOL     OW 2278   0.613   0.842   5.155
  607SOL    HW1 2279   0.669   0.923   5.138
  607SOL    HW2 2280   0.672   0.762   5.158
  608SOL     OW 2281   1.493   1.767   4.683
  608SOL    HW1 2282   1.526   1.831   4.614
  608SOL    HW2 2283   1.559   1.761   4.758
  609SOL     OW 2284   0.716   0.565   5.432
  609SOL    HW1 2285   0.735   0.630   5.506
  609SOL    HW2 2286   0.776   0.485   5.441
  610SOL     OW 2287   1.450   1.220   5.357
  610SOL    HW1 2288   1.441   1.210   5.456
  610SOL    HW2 2289   1.546   1.213   5.331
  611SOL     OW 2290   0.390   1.741   5.284
  611SOL    HW1 2291   0.299   1.782   5.282
  611SOL    HW2 2292   0.383   1.647   5.316
  612SOL     OW 2293   1.674   0.883   4.978
  612SOL    HW1 2294   1.647   0.794   4.941
  612SOL    HW2 2295   1.675   0.951   4.905
  613SOL     OW 2296   1.225   0.325   4.173
  613SOL    HW1 2297   1.290   0.251   4.162
  613SOL    HW2 2298   1.245   0.375   4.257
  614SOL     OW 2299   0.594   0.745   4.376
  614SOL    HW1 2300   0.644   0.830   4.357
  614SOL    HW2 2301   0.506   0.747   4.328
  615SOL     OW 2302   1.777   0.342   5.366
  615SOL    HW1 2303   1.760   0.373   5.272
  615SOL    HW2 2304   1.693   0.305   5.404
  616SOL     OW 2305   1.730   0.934   5.241
  616SOL    HW1 2306   1.768   1.025   5.256
  616SOL    HW2 2307   1.722   0.917   5.142
  617SOL     OW 2308   0.859   1.374   3.740
  617SOL    HW1 2309   0.813   1.389   3.828
  617SOL    HW2 2310   0.903   1.459   3.710
  618SOL     OW 2311   0.661   1.790   4.677
  618SOL    HW1 2312   0.615   1.878   4.664
  618SOL    HW2 2313   0.760   1.802   4.670
  619SOL     OW 2314   0.859   0.956   4.585
  619SOL    HW1 2315   0.913   0.887   4.633
  619SOL    HW2 2316   0.827   1.025   4.651
  620SOL     OW 2317   1.083   0.984   3.811
  620SOL    HW1 2318   1.060   1.037   3.729
  620SOL    HW2 2319   1.164   0.928   3.792
  621SOL     OW 2320   1.861   1.569   4.575
  621SOL    HW1 2321   1.790   1.557   4.505
  621SOL    HW2 2322   1.862   1.490   4.635
  622SOL     OW 2323   0.221   1.314   5.568
  622SOL    HW1 2324   0.156   1.241   5.547
  622SOL    HW2 2325   0.225   1.328   5.666
  623SOL     OW 2326   0.079   1.240   4.377
  623SOL    HW1 2327   0.078   1.193   4.465
  623SOL    HW2 2328   0.161   1.212   4.326
  624SOL     OW 2329   0.672   1.391   5.348
  624SOL    HW1 2330   0.594   1.341   5.386
  624SOL    HW2 2331   0.669   1.486   5.379
  625SOL     OW 2332   1.824   0.192   4.951
  625SOL    HW1 2333   1.820   0.102   4.995
  625SOL    HW2 2334   1.827   0.181   4.852
  626SOL     OW 2335   0.428   0.424   4.244
  626SOL    HW1 2336   0.458   0.352   4.182
  626SOL    HW2 2337   0.389   0.384   4.327
  627SOL     OW 2338   1.705   1.487   4.828
  627SOL    HW1 2339   1.612   1.462   4.801
  627SOL    HW2 2340   1.731   1.437   4.910
  628SOL     OW 2341   0.317   0.547   5.004
  628SOL    HW1 2342   0.355   0.488   5.076
  628SOL    HW2 2343   0.357   0.521   4.916
  629SOL     OW 2344   0.812   1.586   4.411
  629SOL    HW1 2345   0.844   1.596   4.317
  629SOL    HW2 2346   0.733   1.524   4.413
  630SOL     OW 2347   1.424   0.214   4.836
  630SOL    HW1 2348   1.476   0.149   4.891
  630SOL    HW2 2349   1.375   0.277   4.897
  631SOL     OW 2350   1.001   0.034   4.878
  631SOL    HW1 2351   0.938  -0.038   4.847
  631SOL    HW2 2352   1.094  -0.002   4.878
  632SOL     OW 2353   0.770   1.330   4.025
  632SOL    HW1 2354   0.724   1.243   4.042
  632SOL    HW2 2355   0.861   1.327   4.066
  633SOL     OW 2356   0.618   1.567   5.008
  633SOL    HW1 2357   0.613   1.649   5.065
  633SOL    HW2 2358   0.707   1.564   4.963
  634SOL     OW 2359   1.352   0.052   3.892
  634SOL    HW1 2360   1.387   0.011   3.808
  634SOL    HW2 2361   1.262   0.014   3.912
  635SOL     OW 2362   1.300   0.453   4.415
  635SOL    HW1 2363   1.241   0.533   4.419
  635SOL    HW2 2364   1.315   0.418   4.508
  636SOL     OW 2365   1.593   0.221   4.606
  636SOL    HW1 2366   1.509   0.220   4.660
  636SOL    HW2 2367   1.595   0.304   4.550
  637SOL     OW 2368   0.039   1.077   4.024
  637SOL    HW1 2369   0.138   1.066   4.015
  637SOL    HW2 2370  -0.001   0.991   4.056
  638SOL     OW 2371   0.875   1.646   4.061
  638SOL    HW1 2372   0.798   1.611   4.007
  638SOL    HW2 2373   0.843   1.717   4.123
  639SOL     OW 2374   0.230   0.628   5.699
  639SOL    HW1 2375   0.137   0.626   5.736
  639SOL    HW2 2376   0.231   0.589   5.607
  640SOL     OW 2377   0.225   0.275   6.582
  640SOL    HW1 2378   0.260   0.258   6.674
  640SOL    HW2 2379   0.137   0.230   6.570
  641SOL     OW 2380   0.019   0.368   6.233
  641SOL    HW1 2381  -0.063   0.411   6.272
  641SOL    HW2 2382  -0.009   0.295   6.170
  642SOL     OW 2383   0.569   1.275   6.751
  642SOL    HW1 2384   0.476   1.268   6.714
  642SOL    HW2 2385   0.580   1.364   6.795
  643SOL     OW 2386   1.555   1.511   6.289
  643SOL    HW1 2387   1.498   1.495   6.370
  643SOL    HW2 2388   1.496   1.521   6.209
  644SOL     OW 2389   1.135   0.703   6.303
  644SOL    HW1 2390   1.192   0.781   6.278
  644SOL    HW2 2391   1.075   0.729   6.379
  645SOL     OW 2392   1.755   0.607   5.817
  645SOL    HW1 2393   1.743   0.594   5.718
  645SOL    HW2 2394   1.725   0.526   5.866
  646SOL     OW 2395   0.768   1.144   6.609
  646SOL    HW1 2396   0.690   1.161   6.669
  646SOL    HW2 2397   0.802   1.231   6.573
  647SOL     OW 2398   0.850   0.798   7.409
  647SOL    HW1 2399   0.846   0.874   7.474
  647SOL    HW2 2400   0.872   0.834   7.318
  648SOL     OW 2401   0.685   1.012   6.251
  648SOL    HW1 2402   0.754   0.996   6.321
  648SOL    HW2 2403   0.612   1.069   6.289
  649SOL     OW 2404   0.686   1.161   7.389
  649SOL    HW1 2405   0.746   1.240   7.403
  649SOL    HW2 2406   0.600   1.192   7.348
  650SOL     OW 2407   0.335   1.435   6.647
  650SOL    HW1 2408   0.257   1.404   6.594
  650SOL    HW2 2409   0.393   1.493   6.590
  651SOL     OW 2410   1.460   1.505   6.925
  651SOL    HW1 2411   1.484   1.599   6.951
  651SOL    HW2 2412   1.444   1.451   7.007
  652SOL     OW 2413   0.438   0.392   7.085
  652SOL    HW1 2414   0.520   0.336   7.094
  652SOL    HW2 2415   0.357   0.334   7.089
  653SOL     OW 2416   1.603   0.447   6.323
  653SOL    HW1 2417   1.529   0.493   6.273
  653SOL    HW2 2418   1.654   0.515   6.376
  654SOL     OW 2419   0.231   1.713   6.069
  654SOL    HW1 2420   0.265   1.790   6.123
  654SOL    HW2 2421   0.275   1.713   5.979
  655SOL     OW 2422   1.127   1.341   7.276
  655SOL    HW1 2423   1.174   1.341   7.364
  655SOL    HW2 2424   1.079   1.254   7.265
  656SOL     OW 2425   0.230   1.434   6.124
  656SOL    HW1 2426   0.204   1.530   6.124
  656SOL    HW2 2427   0.159   1.380   6.169
  657SOL     OW 2428   0.240   1.091   6.472
  657SOL    HW1 2429   0.254   1.007   6.524
  657SOL    HW2 2430   0.185   1.155   6.527
  658SOL     OW 2431   0.620   1.786   7.025
  658SOL    HW1 2432   0.528   1.769   7.060
  658SOL    HW2 2433   0.648   1.878   7.051
  659SOL     OW 2434   0.606   0.964   5.709
  659SOL    HW1 2435   0.613   1.048   5.655
  659SOL    HW2 2436   0.652   0.977   5.797
  660SOL     OW 2437   1.594   0.114   7.066
  660SOL    HW1 2438   1.576   0.181   6.994
  660SOL    HW2 2439   1.591   0.160   7.155
  661SOL     OW 2440   0.122   0.643   6.149
  661SOL    HW1 2441   0.077   0.555   6.166
  661SOL    HW2 2442   0.121   0.697   6.233
  662SOL     OW 2443   1.842   1.767   5.945
  662SOL    HW1 2444   1.896   1.738   6.025
  662SOL    HW2 2445   1.872   1.857   5.916
  663SOL     OW 2446   0.027   1.596   5.703
  663SOL    HW1 2447   0.008   1.500   5.724
  663SOL    HW2 2448  -0.006   1.654   5.778
  664SOL     OW 2449   1.689   0.922   6.198
  664SOL    HW1 2450   1.784   0.893   6.206
  664SOL    HW2 2451   1.681   0.987   6.123
  665SOL     OW 2452   1.641   1.108   6.018
  665SOL    HW1 2453   1.727   1.110   5.966
  665SOL    HW2 2454   1.655   1.155   6.106
  666SOL     OW 2455   0.113   0.737   7.183
  666SOL    HW1 2456   0.201   0.724   7.228
  666SOL    HW2 2457   0.100   0.834   7.161
  667SOL     OW 2458   0.613   1.365   6.312
  667SOL    HW1 2459   0.564   1.278   6.321
  667SOL    HW2 2460   0.590   1.408   6.225
  668SOL     OW 2461   1.293   1.228   7.009
  668SOL    HW1 2462   1.330   1.155   6.951
  668SOL    HW2 2463   1.345   1.233   7.094
  669SOL     OW 2464   0.809   0.004   6.088
  669SOL    HW1 2465   0.849   0.095   6.079
  669SOL    HW2 2466   0.709   0.012   6.094
  670SOL     OW 2467   0.197   0.976   6.850
  670SOL    HW1 2468   0.286   0.931   6.836
  670SOL    HW2 2469   0.124   0.911   6.831
  671SOL     OW 2470   1.525   0.999   5.776
  671SOL    HW1 2471   1.462   0.923   5.789
  671SOL    HW2 2472   1.573   1.017   5.862
  672SOL     OW 2473   1.187   1.792   7.202
  672SOL    HW1 2474   1.211   1.852   7.126
  672SOL    HW2 2475   1.194   1.697   7.172
  673SOL     OW 2476   0.317   0.251   7.387
  673SOL    HW1 2477   0.388   0.322   7.393
  673SOL    HW2 2478   0.229   0.290   7.415
  674SOL     OW 2479   1.466   1.417   6.539
  674SOL    HW1 2480   1.407   1.423   6.619
  674SOL    HW2 2481   1.451   1.329   6.493
  675SOL     OW 2482   1.667   1.714   6.158
  675SOL    HW1 2483   1.626   1.691   6.070
  675SOL    HW2 2484   1.649   1.640   6.223
  676SOL     OW 2485   0.598   0.729   5.856
  676SOL    HW1 2486   0.622   0.798   5.788
  676SOL    HW2 2487   0.520   0.762   5.910
  677SOL     OW 2488   1.281   0.345   6.530
  677SOL    HW1 2489   1.195   0.295   6.517
  677SOL    HW2 2490   1.343   0.291   6.586
  678SOL     OW 2491   1.576   1.662   5.893
  678SOL    HW1 2492   1.665   1.708   5.896
  678SOL    HW2 2493   1.555   1.638   5.798
  679SOL     OW 2494   0.807   0.605   7.051
  679SOL    HW1 2495   0.760   0.602   7.140
  679SOL    HW2 2496   0.756   0.550   6.985
  680SOL     OW 2497   1.394   0.469   7.260
  680SOL    HW1 2498   1.374   0.512   7.348
  680SOL    HW2 2499   1.472   0.407   7.269
  681SOL     OW 2500   0.973   0.890   7.158
  681SOL    HW1 2501   1.019   0.806   7.129
  681SOL    HW2 2502   0.917   0.924   7.083
  682SOL     OW 2503   0.991   0.410   6.828
  682SOL    HW1 2504   0.914   0.444   6.882
  682SOL    HW2 2505   0.957   0.359   6.749
  683SOL     OW 2506   1.041   0.701   6.015
  683SOL    HW1 2507   1.067   0.697   6.111
  683SOL    HW2 2508   0.956   0.650   6.001
  684SOL     OW 2509   0.076   0.811   6.375
  684SOL    HW1 2510   0.175   0.799   6.384
  684SOL    HW2 2511   0.052   0.906   6.396
  685SOL     OW 2512   0.130   1.821   7.157
  685SOL    HW1 2513   0.120   1.806   7.256
  685SOL    HW2 2514   0.044   1.857   7.121
  686SOL     OW 2515   0.865   0.348   5.781
  686SOL    HW1 2516   0.924   0.411   5.732
  686SOL    HW2 2517   0.884   0.254   5.752
  687SOL     OW 2518   1.719   0.585   7.417
  687SOL    HW1 2519   1.693   0.674   7.381
  687SOL    HW2 2520   1.717   0.517   7.344
  688SOL     OW 2521   1.362   1.144   6.131
  688SOL    HW1 2522   1.445   1.115   6.083
  688SOL    HW2 2523   1.313   1.211   6.075
  689SOL     OW 2524   0.550   0.196   6.471
  689SOL    HW1 2525   0.545   0.191   6.571
  689SOL    HW2 2526   0.552   0.292   6.442
  690SOL     OW 2527   1.008   1.456   6.063
  690SOL    HW1 2528   0.962   1.528   6.011
  690SOL    HW2 2529   1.004   1.476   6.161
  691SOL     OW 2530   0.351   1.801   6.439
  691SOL    HW1 2531   0.401   1.715   6.445
  691SOL    HW2 2532   0.416   1.878   6.436
  692SOL     OW 2533   1.795   1.066   6.459
  692SOL    HW1 2534   1.733   1.051   6.383
  692SOL    HW2 2535   1.743   1.077   6.544
  693SOL     OW 2536   1.227   1.550   7.092
  693SOL    HW1 2537   1.233   1.473   7.156
  693SOL    HW2 2538   1.175   1.524   7.012
  694SOL     OW 2539   0.321   0.943   5.828
  694SOL    HW1 2540   0.403   0.982   5.786
  694SOL    HW2 2541   0.294   0.861   5.779
  695SOL     OW 2542   1.458   0.735   6.314
  695SOL    HW1 2543   1.453   0.670   6.389
  695SOL    HW2 2544   1.538   0.794   6.327
  696SOL     OW 2545   0.461   1.266   7.313
  696SOL    HW1 2546   0.411   1.267   7.227
  696SOL    HW2 2547   0.398   1.248   7.389
  697SOL     OW 2548   1.111   1.776   5.823
  697SOL    HW1 2549   1.051   1.714   5.873
  697SOL    HW2 2550   1.142   1.732   5.738
  698SOL     OW 2551   0.202   0.285   7.084
  698SOL    HW1 2552   0.122   0.345   7.071
  698SOL    HW2 2553   0.192   0.236   7.170
  699SOL     OW 2554   1.632   1.377   5.667
  699SOL    HW1 2555   1.600   1.471   5.657
  699SOL    HW2 2556   1.556   1.314   5.655
  700SOL     OW 2557   0.464   1.743   5.909
  700SOL    HW1 2558   0.497   1.782   5.995
  700SOL    HW2 2559   0.540   1.736   5.844
  701SOL     OW 2560   1.400   0.107   6.012
  701SOL    HW1 2561   1.376   0.070   5.922
  701SOL    HW2 2562   1.499   0.123   6.016
  702SOL     OW 2563   0.249   1.785   6.827
  702SOL    HW1 2564   0.306   1.720   6.877
  702SOL    HW2 2565   0.233   1.752   6.734
  703SOL     OW 2566   0.940   1.698   6.490
  703SOL    HW1 2567   1.020   1.641   6.511
  703SOL    HW2 2568   0.891   1.658   6.413
  704SOL     OW 2569   0.382   0.700   6.066
  704SOL    HW1 2570   0.427   0.610   6.063
  704SOL    HW2 2571   0.288   0.689   6.099
  705SOL     OW 2572   1.547   0.222   7.315
  705SOL    HW1 2573   1.542   0.259   7.407
  705SOL    HW2 2574   1.475   0.153   7.303
  706SOL     OW 2575   0.614   0.122   5.703
  706SOL    HW1 2576   0.712   0.100   5.710
  706SOL    HW2 2577   0.583   0.105   5.610
  707SOL     OW 2578   0.781   0.264   7.335
  707SOL    HW1 2579   0.848   0.203   7.378
  707SOL    HW2 2580   0.708   0.283   7.400
  708SOL     OW 2581   0.888   1.514   6.781
  708SOL    HW1 2582   0.865   1.489   6.687
  708SOL    HW2 2583   0.949   1.445   6.820
  709SOL     OW 2584   1.351   0.590   7.019
  709SOL    HW1 2585   1.379   0.547   7.104
  709SOL    HW2 2586   1.376   0.686   7.020
  710SOL     OW 2587   0.803   1.402   6.510
  710SOL    HW1 2588   0.893   1.416   6.468
  710SOL    HW2 2589   0.732   1.404   6.439
  711SOL     OW 2590   0.922   0.503   6.485
  711SOL    HW1 2591   0.897   0.494   6.389
  711SOL    HW2 2592   0.970   0.421   6.516
  712SOL     OW 2593   0.539   0.064   6.098
  712SOL    HW1 2594   0.458   0.065   6.156
  712SOL    HW2 2595   0.542   0.147   6.043
  713SOL     OW 2596   1.434   1.188   5.627
  713SOL    HW1 2597   1.466   1.112   5.684
  713SOL    HW2 2598   1.342   1.215   5.657
  714SOL     OW 2599   0.297   0.035   5.757
  714SOL    HW1 2600   0.346   0.119   5.736
  714SOL    HW2 2601   0.359  -0.030   5.802
  715SOL     OW 2602   0.935   0.236   6.066
  715SOL    HW1 2603   0.887   0.277   5.988
  715SOL    HW2 2604   1.034   0.234   6.047
  716SOL     OW 2605   1.076   0.683   7.050
  716SOL    HW1 2606   0.996   0.622   7.053
  716SOL    HW2 2607   1.157   0.630   7.026
  717SOL     OW 2608   1.227   1.570   6.379
  717SOL    HW1 2609   1.248   1.644   6.314
  717SOL    HW2 2610   1.295   1.570   6.452
  718SOL     OW 2611   0.459   1.152   6.327
  718SOL    HW1 2612   0.388   1.125   6.392
  718SOL    HW2 2613   0.433   1.124   6.234
  719SOL     OW 2614   1.271   1.797   6.177
  719SOL    HW1 2615   1.315   1.861   6.113
  719SOL    HW2 2616   1.221   1.849   6.247
  720SOL     OW 2617   1.032   0.549   5.602
  720SOL    HW1 2618   0.991   0.631   5.563
  720SOL    HW2 2619   1.096   0.575   5.675
  721SOL     OW 2620   0.078   0.556   6.972
  721SOL    HW1 2621   0.170   0.555   6.931
  721SOL    HW2 2622   0.072   0.630   7.039
  722SOL     OW 2623   0.561   0.222   6.733
  722SOL    HW1 2624   0.599   0.138   6.770
  722SOL    HW2 2625   0.473   0.241   6.777
  723SOL     OW 2626   0.866   0.454   6.228
  723SOL    HW1 2627   0.834   0.526   6.166
  723SOL    HW2 2628   0.890   0.373   6.175
  724SOL     OW 2629   1.017   0.039   6.339
  724SOL    HW1 2630   0.945   0.044   6.270
  724SOL    HW2 2631   0.993  -0.030   6.408
  725SOL     OW 2632   1.429   1.173   6.453
  725SOL    HW1 2633   1.374   1.089   6.446
  725SOL    HW2 2634   1.455   1.202   6.361
  726SOL     OW 2635   1.466   0.590   6.578
  726SOL    HW1 2636   1.436   0.495   6.585
  726SOL    HW2 2637   1.539   0.606   6.644
  727SOL     OW 2638   1.857   0.833   5.963
  727SOL    HW1 2639   1.899   0.769   6.027
  727SOL    HW2 2640   1.819   0.782   5.885
  728SOL     OW 2641   0.488   1.385   5.760
  728SOL    HW1 2642   0.401   1.370   5.807
  728SOL    HW2 2643   0.471   1.411   5.665
  729SOL     OW 2644   1.664   1.280   6.243
  729SOL    HW1 2645   1.763   1.288   6.257
  729SOL    HW2 2646   1.619   1.364   6.274
  730SOL     OW 2647   1.390   0.575   5.664
  730SOL    HW1 2648   1.336   0.554   5.745
  730SOL    HW2 2649   1.481   0.534   5.673
  731SOL     OW 2650   0.527   0.256   5.914
  731SOL    HW1 2651   0.554   0.197   5.839
  731SOL    HW2 2652   0.527   0.351   5.883
  732SOL     OW 2653   1.754   1.223   7.174
  732SOL    HW1 2654   1.845   1.184   7.161
  732SOL    HW2 2655   1.762   1.319   7.198
  733SOL     OW 2656   1.064   1.347   6.926
  733SOL    HW1 2657   0.984   1.324   6.981
  733SOL    HW2 2658   1.147   1.321   6.975
  734SOL     OW 2659   1.592   1.629   7.211
  734SOL    HW1 2660   1.619   1.663   7.121
  734SOL    HW2 2661   1.671   1.591   7.257
  735SOL     OW 2662   1.111   1.195   6.686
  735SOL    HW1 2663   1.071   1.239   6.767
  735SOL    HW2 2664   1.070   1.232   6.603
  736SOL     OW 2665   1.638   1.099   6.665
  736SOL    HW1 2666   1.643   1.180   6.724
  736SOL    HW2 2667   1.552   1.101   6.614
  737SOL     OW 2668   0.915   0.089   6.988
  737SOL    HW1 2669   0.940   0.069   6.893
  737SOL    HW2 2670   0.987   0.145   7.030
  738SOL     OW 2671   0.980   1.116   7.305
  738SOL    HW1 2672   0.881   1.122   7.315
  738SOL    HW2 2673   1.003   1.036   7.249
  739SOL     OW 2674   0.705   1.050   5.954
  739SOL    HW1 2675   0.691   1.057   6.053
  739SOL    HW2 2676   0.789   0.999   5.936
  740SOL     OW 2677   0.410   0.813   6.837
  740SOL    HW1 2678   0.496   0.825   6.887
  740SOL    HW2 2679   0.368   0.726   6.864
  741SOL     OW 2680   1.274   0.386   6.848
  741SOL    HW1 2681   1.295   0.460   6.912
  741SOL    HW2 2682   1.185   0.403   6.805
  742SOL     OW 2683   0.064   1.564   6.917
  742SOL    HW1 2684   0.018   1.646   6.883
  742SOL    HW2 2685   0.162   1.583   6.926
  743SOL     OW 2686   0.367   1.100   6.087
  743SOL    HW1 2687   0.360   1.183   6.031
  743SOL    HW2 2688   0.371   1.020   6.027
  744SOL     OW 2689   0.566   0.537   6.451
  744SOL    HW1 2690   0.578   0.603   6.377
  744SOL    HW2 2691   0.612   0.571   6.534
  745SOL     OW 2692   1.252   1.348   5.974
  745SOL    HW1 2693   1.302   1.425   6.014
  745SOL    HW2 2694   1.157   1.350   6.006
  746SOL     OW 2695   1.272   1.445   6.728
  746SOL    HW1 2696   1.319   1.458   6.815
  746SOL    HW2 2697   1.206   1.371   6.737
  747SOL     OW 2698   1.582   0.639   6.058
  747SOL    HW1 2699   1.551   0.700   6.131
  747SOL    HW2 2700   1.632   0.691   5.989
  748SOL     OW 2701   0.354   1.510   6.915
  748SOL    HW1 2702   0.333   1.466   6.828
  748SOL    HW2 2703   0.451   1.536   6.918
  749SOL     OW 2704   0.402   0.751   7.184
  749SOL    HW1 2705   0.470   0.806   7.137
  749SOL    HW2 2706   0.442   0.663   7.211
  750SOL     OW 2707   1.587   0.779   7.256
  750SOL    HW1 2708   1.495   0.817   7.251
  750SOL    HW2 2709   1.647   0.826   7.191
  751SOL     OW 2710   1.013   0.105   7.356
  751SOL    HW1 2711   1.019   0.190   7.304
  751SOL    HW2 2712   1.045   0.029   7.299
  752SOL     OW 2713   0.504   0.050   7.326
  752SOL    HW1 2714   0.462  -0.007   7.256
  752SOL    HW2 2715   0.438   0.119   7.358
  753SOL     OW 2716   0.573   0.870   6.615
  753SOL    HW1 2717   0.617   0.959   6.606
  753SOL    HW2 2718   0.510   0.870   6.692
  754SOL     OW 2719   1.360   0.862   6.631
  754SOL    HW1 2720   1.285   0.862   6.565
  754SOL    HW2 2721   1.397   0.770   6.640
  755SOL     OW 2722   1.209   0.525   5.861
  755SOL    HW1 2723   1.222   0.441   5.915
  755SOL    HW2 2724   1.180   0.599   5.921
  756SOL     OW 2725   0.307   0.213   6.817
  756SOL    HW1 2726   0.284   0.250   6.907
  756SOL    HW2 2727   0.277   0.118   6.811
  757SOL     OW 2728   0.037   1.310   6.868
  757SOL    HW1 2729   0.090   1.261   6.936
  757SOL    HW2 2730   0.059   1.408   6.873
  758SOL     OW 2731   0.732   0.634   6.650
  758SOL    HW1 2732   0.791   0.608   6.574
  758SOL    HW2 2733   0.704   0.730   6.639
  759SOL     OW 2734   1.728   0.935   7.440
  759SOL    HW1 2735   1.682   0.928   7.351
  759SOL    HW2 2736   1.666   0.979   7.506
  760SOL     OW 2737   0.307   0.063   6.204
  760SOL    HW1 2738   0.296   0.157   6.237
  760SOL    HW2 2739   0.302   0.000   6.281
  761SOL     OW 2740   1.622   0.367   5.960
  761SOL    HW1 2741   1.624   0.291   6.024
  761SOL    HW2 2742   1.574   0.444   6.000
  762SOL     OW 2743   1.023   0.766   6.552
  762SOL    HW1 2744   1.038   0.787   6.648
  762SOL    HW2 2745   0.993   0.671   6.543
  763SOL     OW 2746   0.980   1.573   7.286
  763SOL    HW1 2747   0.960   1.617   7.198
  763SOL    HW2 2748   1.019   1.482   7.270
  764SOL     OW 2749   1.859   1.518   7.191
  764SOL    HW1 2750   1.873   1.545   7.096
  764SOL    HW2 2751   1.942   1.540   7.244
  765SOL     OW 2752   0.350   0.898   7.390
  765SOL    HW1 2753   0.426   0.942   7.438
  765SOL    HW2 2754   0.385   0.851   7.308
  766SOL     OW 2755   1.540   0.274   5.711
  766SOL    HW1 2756   1.479   0.199   5.734
  766SOL    HW2 2757   1.562   0.326   5.794
  767SOL     OW 2758   1.303   0.838   5.628
  767SOL    HW1 2759   1.337   0.745   5.643
  767SOL    HW2 2760   1.321   0.865   5.533
  768SOL     OW 2761   1.068   1.333   6.435
  768SOL    HW1 2762   1.075   1.249   6.380
  768SOL    HW2 2763   1.130   1.402   6.399
  769SOL     OW 2764   0.319   0.810   6.535
  769SOL    HW1 2765   0.412   0.846   6.540
  769SOL    HW2 2766   0.313   0.725   6.587
  770SOL     OW 2767   0.339   0.509   6.592
  770SOL    HW1 2768   0.287   0.426   6.575
  770SOL    HW2 2769   0.416   0.514   6.528
  771SOL     OW 2770   1.138   0.380   7.264
  771SOL    HW1 2771   1.093   0.443   7.328
  771SOL    HW2 2772   1.231   0.411   7.247
  772SOL     OW 2773   1.160   0.207   7.063
  772SOL    HW1 2774   1.160   0.271   7.140
  772SOL    HW2 2775   1.188   0.255   6.980
  773SOL     OW 2776   0.008   1.326   5.786
  773SOL    HW1 2777  -0.085   1.347   5.755
  773SOL    HW2 2778   0.018   1.227   5.799
  774SOL     OW 2779   0.088   1.801   6.513
  774SOL    HW1 2780   0.046   1.715   6.486
  774SOL    HW2 2781   0.182   1.804   6.479
  775SOL     OW 2782   0.504   1.568   6.496
  775SOL    HW1 2783   0.570   1.642   6.505
  775SOL    HW2 2784   0.548   1.489   6.454
  776SOL     OW 2785   1.002   0.796   6.824
  776SOL    HW1 2786   1.043   0.764   6.910
  776SOL    HW2 2787   0.906   0.769   6.821
  777SOL     OW 2788   0.040   0.544   6.700
  777SOL    HW1 2789   0.125   0.511   6.659
  777SOL    HW2 2790   0.053   0.559   6.798
  778SOL     OW 2791   0.189   0.520   7.308
  778SOL    HW1 2792   0.248   0.480   7.238
  778SOL    HW2 2793   0.131   0.591   7.267
  779SOL     OW 2794   1.369   0.950   7.246
  779SOL    HW1 2795   1.408   1.039   7.266
  779SOL    HW2 2796   1.379   0.930   7.149
  780SOL     OW 2797   0.815   0.572   5.911
  780SOL    HW1 2798   0.822   0.483   5.865
  780SOL    HW2 2799   0.721   0.606   5.903
  781SOL     OW 2800   1.657   0.604   6.792
  781SOL    HW1 2801   1.619   0.535   6.854
  781SOL    HW2 2802   1.739   0.568   6.748
  782SOL     OW 2803   0.252   1.564   7.330
  782SOL    HW1 2804   0.222   1.621   7.406
  782SOL    HW2 2805   0.245   1.467   7.356
  783SOL     OW 2806   0.671   0.464   6.855
  783SOL    HW1 2807   0.637   0.375   6.825
  783SOL    HW2 2808   0.697   0.518   6.775
  784SOL     OW 2809   0.930   1.678   7.051
  784SOL    HW1 2810   0.906   1.660   6.956
  784SOL    HW2 2811   0.960   1.772   7.061
  785SOL     OW 2812   0.473   0.500   5.777
  785SOL    HW1 2813   0.534   0.580   5.781
  785SOL    HW2 2814   0.378   0.531   5.784
  786SOL     OW 2815   0.159   1.137   7.052
  786SOL    HW1 2816   0.181   1.076   7.128
  786SOL    HW2 2817   0.169   1.088   6.966
  787SOL     OW 2818   1.347   1.059   6.820
  787SOL    HW1 2819   1.371   0.996   6.746
  787SOL    HW2 2820   1.257   1.099   6.802
  788SOL     OW 2821   1.302   0.855   5.895
  788SOL    HW1 2822   1.216   0.824   5.937
  788SOL    HW2 2823   1.298   0.841   5.796
  789SOL     OW 2824   1.759   1.747   6.740
  789SOL    HW1 2825   1.820   1.777   6.667
  789SOL    HW2 2826   1.721   1.658   6.718
  790SOL     OW 2827   1.252   1.731   6.714
  790SOL    HW1 2828   1.336   1.736   6.660
  790SOL    HW2 2829   1.229   1.635   6.732
  791SOL     OW 2830   0.083   1.258   6.608
  791SOL    HW1 2831   0.078   1.257   6.708
  791SOL    HW2 2832   0.000   1.217   6.570
  792SOL     OW 2833   0.688   1.662   7.302
  792SOL    HW1 2834   0.632   1.743   7.311
  792SOL    HW2 2835   0.740   1.666   7.216
  793SOL     OW 2836   1.726   0.135   6.109
  793SOL    HW1 2837   1.799   0.118   6.042
  793SOL    HW2 2838   1.695   0.048   6.147
  794SOL     OW 2839   1.388   1.573   6.063
  794SOL    HW1 2840   1.455   1.585   5.989
  794SOL    HW2 2841   1.348   1.662   6.086
  795SOL     OW 2842   0.130   1.794   7.437
  795SOL    HW1 2843   0.089   1.720   7.490
  795SOL    HW2 2844   0.194   1.845   7.495
  796SOL     OW 2845   1.280   0.927   6.258
  796SOL    HW1 2846   1.340   0.846   6.260
  796SOL    HW2 2847   1.320   0.996   6.198
  797SOL     OW 2848   0.830   1.273   7.008
  797SOL    HW1 2849   0.825   1.306   7.103
  797SOL    HW2 2850   0.744   1.292   6.962
  798SOL     OW 2851   0.672   1.616   5.740
  798SOL    HW1 2852   0.681   1.626   5.641
  798SOL    HW2 2853   0.632   1.527   5.761
  799SOL     OW 2854   1.650   1.720   6.980
  799SOL    HW1 2855   1.703   1.730   6.896
  799SOL    HW2 2856   1.623   1.810   7.014
  800SOL     OW 2857   1.841   0.175   6.549
  800SOL    HW1 2858   1.880   0.090   6.513
  800SOL    HW2 2859   1.743   0.177   6.530
  801SOL     OW 2860   0.263   0.326   6.306
  801SOL    HW1 2861   0.184   0.377   6.272
  801SOL    HW2 2862   0.254   0.311   6.404
  802SOL     OW 2863   1.194   1.612   5.617
  802SOL    HW1 2864   1.200   1.519   5.654
  802SOL    HW2 2865   1.135   1.612   5.537
  803SOL     OW 2866   0.822   1.002   6.958
  803SOL    HW1 2867   0.862   1.001   6.866
  803SOL    HW2 2868   0.832   1.094   6.998
  804SOL     OW 2869   0.916   0.910   5.877
  804SOL    HW1 2870   0.979   0.948   5.809
  804SOL    HW2 2871   0.956   0.827   5.916
  805SOL     OW 2872   1.504   1.607   5.630
  805SOL    HW1 2873   1.412   1.644   5.637
  805SOL    HW2 2874   1.542   1.627   5.540
  806SOL     OW 2875   0.372   1.288   7.076
  806SOL    HW1 2876   0.359   1.381   7.042
  806SOL    HW2 2877   0.288   1.236   7.063
  807SOL     OW 2878   1.614   1.292   6.875
  807SOL    HW1 2879   1.674   1.295   6.955
  807SOL    HW2 2880   1.539   1.356   6.888
  808SOL     OW 2881   1.039   1.098   6.282
  808SOL    HW1 2882   0.969   1.051   6.336
  808SOL    HW2 2883   1.098   1.030   6.239
  809SOL     OW 2884   1.014   0.236   6.557
  809SOL    HW1 2885   1.006   0.200   6.464
  809SOL    HW2 2886   1.012   0.160   6.622
  810SOL     OW 2887   0.590   1.487   6.077
  810SOL    HW1 2888   0.632   1.429   6.007
  810SOL    HW2 2889   0.546   1.566   6.033
  811SOL     OW 2890   1.709   0.385   6.967
  811SOL    HW1 2891   1.782   0.454   6.971
  811SOL    HW2 2892   1.737   0.310   6.908
  812SOL     OW 2893   0.255   1.348   5.876
  812SOL    HW1 2894   0.159   1.349   5.849
  812SOL    HW2 2895   0.267   1.401   5.960
  813SOL     OW 2896   0.105   1.013   7.312
  813SOL    HW1 2897   0.028   0.980   7.366
  813SOL    HW2 2898   0.190   0.983   7.354
  814SOL     OW 2899   0.672   0.203   7.075
  814SOL    HW1 2900   0.762   0.187   7.035
  814SOL    HW2 2901   0.680   0.208   7.174
  815SOL     OW 2902   0.075   0.345   5.619
  815SOL    HW1 2903  -0.017   0.317   5.590
  815SOL    HW2 2904   0.106   0.422   5.563
  816SOL     OW 2905   1.440   0.856   6.984
  816SOL    HW1 2906   1.383   0.908   6.921
  816SOL    HW2 2907   1.536   0.868   6.960
  817SOL     OW 2908   0.072   0.166   5.904
  817SOL    HW1 2909   0.055   0.249   5.850
  817SOL    HW2 2910   0.162   0.129   5.882
  818SOL     OW 2911   1.183   1.335   5.705
  818SOL    HW1 2912   1.084   1.324   5.707
  818SOL    HW2 2913   1.217   1.350   5.798
  819SOL     OW 2914   0.613   0.842   7.017
  819SOL    HW1 2915   0.669   0.923   7.000
  819SOL    HW2 2916   0.672   0.762   7.020
  820SOL     OW 2917   1.493   1.767   6.545
  820SOL    HW1 2918   1.526   1.831   6.476
  820SOL    HW2 2919   1.559   1.761   6.620
  821SOL     OW 2920   0.716   0.565   7.294
  821SOL    HW1 2921   0.735   0.630   7.368
  821SOL    HW2 2922   0.776   0.485   7.303
  822SOL     OW 2923   1.450   1.220   7.219
  822SOL    HW1 2924   1.441   1.210   7.318
  822SOL    HW2 2925   1.546   1.213   7.193
  823SOL     OW 2926   0.390   1.741   7.146
  823SOL    HW1 2927   0.299   1.782   7.144
  823SOL    HW2 2928   0.383   1.647   7.178
  824SOL     OW 2929   1.674   0.883   6.840
  824SOL    HW1 2930   1.647   0.794   6.803
  824SOL    HW2 2931   1.675   0.951   6.767
  825SOL     OW 2932   1.225   0.325   6.035
  825SOL    HW1 2933   1.290   0.251   6.024
  825SOL    HW2 2934   1.245   0.375   6.119
  826SOL     OW 2935   0.594   0.745   6.238
  826SOL    HW1 2936   0.644   0.830   6.219
  826SOL    HW2 2937   0.506   0.747   6.190
  827SOL     OW 2938   1.777   0.342   7.228
  827SOL    HW1 2939   1.760   0.373   7.134
  827SOL    HW2 2940   1.693   0.305   7.266
  828SOL     OW 2941   1.730   0.934   7.103
  828SOL    HW1 2942   1.768   1.025   7.118
  828SOL    HW2 2943   1.722   0.917   7.004
  829SOL     OW 2944   0.859   1.374   5.602
  829SOL    HW1 2945   0.813   1.389   5.690
  829SOL    HW2 2946   0.903   1.459   5.572
  830SOL     OW 2947   0.661   1.790   6.539
  830SOL    HW1 2948   0.615   1.878   6.526
  830SOL    HW2 2949   0.760   1.802   6.532
  831SOL     OW 2950   0.859   0.956   6.447
  831SOL    HW1 2951   0.913   0.887   6.495
  831SOL    HW2 2952   0.827   1.025   6.513
  832SOL     OW 2953   1.083   0.984   5.673
  832SOL    HW1 2954   1.060   1.037   5.591
  832SOL    HW2 2955   1.164   0.928   5.654
  833SOL     OW 2956   1.861   1.569   6.437
  833SOL    HW1 2957   1.790   1.557   6.367
  833SOL    HW2 2958   1.862   1.490   6.497
  834SOL     OW 2959   0.221   1.314   7.430
  834SOL    HW1 2960   0.156   1.241   7.409
  834SOL    HW2 2961   0.225   1.328   7.528
  835SOL     OW 2962   0.079   1.240   6.239
  835SOL    HW1 2963   0.078   1.193   6.327
  835SOL    HW2 2964   0.161   1.212   6.188
  836SOL     OW 2965   0.672   1.391   7.210
  836SOL    HW1 2966   0.594   1.341   7.248
  836SOL    HW2 2967   0.669   1.486   7.241
  837SOL     OW 2968   1.824   0.192   6.813
  837SOL    HW1 2969   1.820   0.102   6.857
  837SOL    HW2 2970   1.827   0.181   6.714
  838SOL     OW 2971   0.428   0.424   6.106
  838SOL    HW1 2972   0.458   0.352   6.044
  838SOL    HW2 2973   0.389   0.384   6.189
  839SOL     OW 2974   1.705   1.487   6.690
  839SOL    HW1 2975   1.612   1.462   6.663
  839SOL    HW2 2976   1.731   1.437   6.772
  840SOL     OW 2977   0.317   0.547   6.866
  840SOL    HW1 2978   0.355   0.488   6.938
  840SOL    HW2 2979   0.357   0.521   6.778
  841SOL     OW 2980   0.812   1.586   6.273
  841SOL    HW1 2981   0.844   1.596   6.179
  841SOL    HW2 2982   0.733   1.524   6.275
  842SOL     OW 2983   1.424   0.214   6.698
  842SOL    HW1 2984   1.476   0.149   6.753
  842SOL    HW2 2985   1.375   0.277   6.759
  843SOL     OW 2986   1.001   0.034   6.740
  843SOL    HW1 2987   0.938  -0.038   6.709
  843SOL    HW2 2988   1.094  -0.002   6.740
  844SOL     OW 2989   0.770   1.330   5.887
  844SOL    HW1 2990   0.724   1.243   5.904
  844SOL    HW2 2991   0.861   1.327   5.928
  845SOL     OW 2992   0.618   1.567   6.870
  845SOL    HW1 2993   0.613   1.649   6.927
  845SOL    HW2 2994   0.707   1.564   6.825
  846SOL     OW 2995   1.352   0.052   5.754
  846SOL    HW1 2996   1.387   0.011   5.670
  846SOL    HW2 2997   1.262   0.014   5.774
  847SOL     OW 2998   1.300   0.453   6.277
  847SOL    HW1 2999   1.241   0.533   6.281
  847SOL    HW2 3000   1.315   0.418   6.370
  848SOL     OW 3001   1.593   0.221   6.468
  848SOL    HW1 3002   1.509   0.220   6.522
  848SOL    HW2 3003   1.595   0.304   6.412
  849SOL     OW 3004   0.039   1.077   5.886
  849SOL    HW1 3005   0.138   1.066   5.877
  849SOL    HW2 3006  -0.001   0.991   5.918
  850SOL     OW 3007   0.875   1.646   5.923
  850SOL    HW1 3008   0.798   1.611   5.869
  850SOL    HW2 3009   0.843   1.717   5.985
  851SOL     OW 3010   0.230   0.628   7.561
  851SOL    HW1 3011   0.137   0.626   7.598
  851SOL    HW2 3012   0.231   0.589   7.469
  852SOL     OW 3013   1.755   0.607   7.679
  852SOL    HW1 3014   1.743   0.594   7.580
  852SOL    HW2 3015   1.725   0.526   7.728
  853SOL     OW 3016   0.231   1.713   7.931
  853SOL    HW1 3017   0.265   1.790   7.985
  853SOL    HW2 3018   0.275   1.713   7.841
  854SOL     OW 3019   0.230   1.434   7.986
  854SOL    HW1 3020   0.204   1.530   7.986
  854SOL    HW2 3021   0.159   1.380   8.031
  855SOL     OW 3022   0.606   0.964   7.571
  855SOL    HW1 3023   0.613   1.048   7.517
  855SOL    HW2 3024   0.652   0.977   7.659
  856SOL     OW 3025   1.842   1.767   7.807
  856SOL    HW1 3026   1.896   1.738   7.887
  856SOL    HW2 3027   1.872   1.857   7.778
  857SOL     OW 3028   0.027   1.596   7.565
  857SOL    HW1 3029   0.008   1.500   7.586
  857SOL    HW2 3030  -0.006   1.654   7.640
  858SOL     OW 3031   1.689   0.922   8.060
  858SOL    HW1 3032   1.784   0.893   8.068
  858SOL    HW2 3033   1.681   0.987   7.985
  859SOL     OW 3034   1.641   1.108   7.880
  859SOL    HW1 3035   1.727   1.110   7.828
  859SOL    HW2 3036   1.655   1.155   7.968
  860SOL     OW 3037   0.809   0.004   7.950
  860SOL    HW1 3038   0.849   0.095   7.941
  860SOL    HW2 3039   0.709   0.012   7.956
  861SOL     OW 3040   1.525   0.999   7.638
  861SOL    HW1 3041   1.462   0.923   7.651
  861SOL    HW2 3042   1.573   1.017   7.724
  862SOL     OW 3043   0.598   0.729   7.718
  862SOL    HW1 3044   0.622   0.798   7.650
  862SOL    HW2 3045   0.520   0.762   7.772
  863SOL     OW 3046   1.576   1.662   7.755
  863SOL    HW1 3047   1.665   1.708   7.758
  863SOL    HW2 3048   1.555   1.638   7.660
  864SOL     OW 3049   0.076   0.811   8.237
  864SOL    HW1 3050   0.175   0.799   8.246
  864SOL    HW2 3051   0.052   0.906   8.258
  865SOL     OW 3052   0.865   0.348   7.643
  865SOL    HW1 3053   0.924   0.411   7.594
  865SOL    HW2 3054   0.884   0.254   7.614
  866SOL     OW 3055   0.321   0.943   7.690
  866SOL    HW1 3056   0.403   0.982   7.648
  866SOL    HW2 3057   0.294   0.861   7.641
  867SOL     OW 3058   1.111   1.776   7.685
  867SOL    HW1 3059   1.051   1.714   7.735
  867SOL    HW2 3060   1.142   1.732   7.600
  868SOL     OW 3061   1.632   1.377   7.529
  868SOL    HW1 3062   1.600   1.471   7.519
  868SOL    HW2 3063   1.556   1.314   7.517
  869SOL     OW 3064   0.464   1.743   7.771
  869SOL    HW1 3065   0.497   1.782   7.857
  869SOL    HW2 3066   0.540   1.736   7.706
  870SOL     OW 3067   1.400   0.107   7.874
  870SOL    HW1 3068   1.376   0.070   7.784
  870SOL    HW2 3069   1.499   0.123   7.878
  871SOL     OW 3070   0.382   0.700   7.928
  871SOL    HW1 3071   0.427   0.610   7.925
  871SOL    HW2 3072   0.288   0.689   7.961
  872SOL     OW 3073   0.614   0.122   7.565
  872SOL    HW1 3074   0.712   0.100   7.572
  872SOL    HW2 3075   0.583   0.105   7.472
  873SOL     OW 3076   0.539   0.064   7.960
  873SOL    HW1 3077   0.458   0.065   8.018
  873SOL    HW2 3078   0.542   0.147   7.905
  874SOL     OW 3079   1.434   1.188   7.489
  874SOL    HW1 3080   1.466   1.112   7.546
  874SOL    HW2 3081   1.342   1.215   7.519
  875SOL     OW 3082   0.297   0.035   7.619
  875SOL    HW1 3083   0.346   0.119   7.598
  875SOL    HW2 3084   0.359  -0.030   7.664
  876SOL     OW 3085   0.935   0.236   7.928
  876SOL    HW1 3086   0.887   0.277   7.850
  876SOL    HW2 3087   1.034   0.234   7.909
  877SOL     OW 3088   0.459   1.152   8.189
  877SOL    HW1 3089   0.388   1.125   8.254
  877SOL    HW2 3090   0.433   1.124   8.096
  878SOL     OW 3091   1.271   1.797   8.039
  878SOL    HW1 3092   1.315   1.861   7.975
  878SOL    HW2 3093   1.221   1.849   8.109
  879SOL     OW 3094   1.032   0.549   7.464
  879SOL    HW1 3095   0.991   0.631   7.425
  879SOL    HW2 3096   1.096   0.575   7.537
  880SOL     OW 3097   1.857   0.833   7.825
  880SOL    HW1 3098   1.899   0.769   7.889
  880SOL    HW2 3099   1.819   0.782   7.747
  881SOL     OW 3100   0.488   1.385   7.622
  881SOL    HW1 3101   0.401   1.370   7.669
  881SOL    HW2 3102   0.471   1.411   7.527
  882SOL     OW 3103   1.390   0.575   7.526
  882SOL    HW1 3104   1.336   0.554   7.607
  882SOL    HW2 3105   1.481   0.534   7.535
  883SOL     OW 3106   0.527   0.256   7.776
  883SOL    HW1 3107   0.554   0.197   7.701
  883SOL    HW2 3108   0.527   0.351   7.745
  884SOL     OW 3109   0.705   1.050   7.816
  884SOL    HW1 3110   0.691   1.057   7.915
  884SOL    HW2 3111   0.789   0.999   7.798
  885SOL     OW 3112   0.367   1.100   7.949
  885SOL    HW1 3113   0.360   1.183   7.893
  885SOL    HW2 3114   0.371   1.020   7.889
  886SOL     OW 3115   1.252   1.348   7.836
  886SOL    HW1 3116   1.302   1.425   7.876
  886SOL    HW2 3117   1.157   1.350   7.868
  887SOL     OW 3118   1.582   0.639   7.920
  887SOL    HW1 3119   1.551   0.700   7.993
  887SOL    HW2 3120   1.632   0.691   7.851
  888SOL     OW 3121   1.209   0.525   7.723
  888SOL    HW1 3122   1.222   0.441   7.777
  888SOL    HW2 3123   1.180   0.599   7.783
  889SOL     OW 3124   1.622   0.367   7.822
  889SOL    HW1 3125   1.624   0.291   7.886
  889SOL    HW2 3126   1.574   0.444   7.862
  890SOL     OW 3127   1.540   0.274   7.573
  890SOL    HW1 3128   1.479   0.199   7.596
  890SOL    HW2 3129   1.562   0.326   7.656
  891SOL     OW 3130   1.303   0.838   7.490
  891SOL    HW1 3131   1.337   0.745   7.505
  891SOL    HW2 3132   1.321   0.865   7.395
  892SOL     OW 3133   0.008   1.326   7.648
  892SOL    HW1 3134  -0.085   1.347   7.617
  892SOL    HW2 3135   0.018   1.227   7.661
  893SOL     OW 3136   0.815   0.572   7.773
  893SOL    HW1 3137   0.822   0.483   7.727
  893SOL    HW2 3138   0.721   0.606   7.765
  894SOL     OW 3139   0.473   0.500   7.639
  894SOL    HW1 3140   0.534   0.580   7.643
  894SOL    HW2 3141   0.378   0.531   7.646
  895SOL     OW 3142   1.302   0.855   7.757
  895SOL    HW1 3143   1.216   0.824   7.799
  895SOL    HW2 3144   1.298   0.841   7.658
  896SOL     OW 3145   1.726   0.135   7.971
  896SOL    HW1 3146   1.799   0.118   7.904
  896SOL    HW2 3147   1.695   0.048   8.009
  897SOL     OW 3148   1.388   1.573   7.925
  897SOL    HW1 3149   1.455   1.585   7.851
  897SOL    HW2 3150   1.348   1.662   7.948
  898SOL     OW 3151   0.672   1.616   7.602
  898SOL    HW1 3152   0.681   1.626   7.503
  898SOL    HW2 3153   0.632   1.527   7.623
  899SOL     OW 3154   1.194   1.612   7.479
  899SOL    HW1 3155   1.200   1.519   7.516
  899SOL    HW2 3156   1.135   1.612   7.399
  900SOL     OW 3157   0.916   0.910   7.739
  900SOL    HW1 3158   0.979   0.948   7.671
  900SOL    HW2 3159   0.956   0.827   7.778
  901SOL     OW 3160   1.504   1.607   7.492
  901SOL    HW1 3161   1.412   1.644   7.499
  901SOL    HW2 3162   1.542   1.627   7.402
  902SOL     OW 3163   0.590   1.487   7.939
  902SOL    HW1 3164   0.632   1.429   7.869
  902SOL    HW2 3165   0.546   1.566   7.895
  903SOL     OW 3166   0.255   1.348   7.738
  903SOL    HW1 3167   0.159   1.349   7.711
  903SOL    HW2 3168   0.267   1.401   7.822
  904SOL     OW 3169   0.075   0.345   7.481
  904SOL    HW1 3170  -0.017   0.317   7.452
  904SOL    HW2 3171   0.106   0.422   7.425
  905SOL     OW 3172   0.072   0.166   7.766
  905SOL    HW1 3173   0.055   0.249   7.712
  905SOL    HW2 3174   0.162   0.129   7.744
  906SOL     OW 3175   1.183   1.335   7.567
  906SOL    HW1 3176   1.084   1.324   7.569
  906SOL    HW2 3177   1.217   1.350   7.660
  907SOL     OW 3178   1.225   0.325   7.897
  907SOL    HW1 3179   1.290   0.251   7.886
  907SOL    HW2 3180   1.245   0.375   7.981
  908SOL     OW 3181   0.594   0.745   8.100
  908SOL    HW1 3182   0.644   0.830   8.081
  908SOL    HW2 3183   0.506   0.747   8.052
  909SOL     OW 3184   0.859   1.374   7.464
  909SOL    HW1 3185   0.813   1.389   7.552
  909SOL    HW2 3186   0.903   1.459   7.434
  910SOL     OW 3187   1.083   0.984   7.535
  910SOL    HW1 3188   1.060   1.037   7.453
  910SOL    HW2 3189   1.164   0.928   7.516
  911SOL     OW 3190   0.428   0.424   7.968
  911SOL    HW1 3191   0.458   0.352   7.906
  911SOL    HW2 3192   0.389   0.384   8.051
  912SOL     OW 3193   0.770   1.330   7.749
  912SOL    HW1 3194   0.724   1.243   7.766
  912SOL    HW2 3195   0.861   1.327   7.790
  913SOL     OW 3196   1.352   0.052   7.616
  913SOL    HW1 3197   1.387   0.011   7.532
  913SOL    HW2 3198   1.262   0.014   7.636
  914SOL     OW 3199   0.039   1.077   7.748
  914SOL    HW1 3200   0.138   1.066   7.739
  914SOL    HW2 3201  -0.001   0.991   7.780
  915SOL     OW 3202   0.875   1.646   7.785
  915SOL    HW1 3203   0.798   1.611   7.731
  915SOL    HW2 3204   0.843   1.717   7.847
  916SOL     OW 3205   0.230   2.490   0.113
  916SOL    HW1 3206   0.137   2.488   0.150
  916SOL    HW2 3207   0.231   2.451   0.021
  917SOL     OW 3208   0.225   2.137   0.996
  917SOL    HW1 3209   0.260   2.120   1.088
  917SOL    HW2 3210   0.137   2.092   0.984
  918SOL     OW 3211   0.019   2.230   0.647
  918SOL    HW1 3212  -0.063   2.273   0.686
  918SOL    HW2 3213  -0.009   2.157   0.584
  919SOL     OW 3214   0.569   3.137   1.165
  919SOL    HW1 3215   0.476   3.130   1.128
  919SOL    HW2 3216   0.580   3.226   1.209
  920SOL     OW 3217   1.555   3.373   0.703
  920SOL    HW1 3218   1.498   3.357   0.784
  920SOL    HW2 3219   1.496   3.383   0.623
  921SOL     OW 3220   1.135   2.565   0.717
  921SOL    HW1 3221   1.192   2.643   0.692
  921SOL    HW2 3222   1.075   2.591   0.793
  922SOL     OW 3223   1.755   2.469   0.231
  922SOL    HW1 3224   1.743   2.456   0.132
  922SOL    HW2 3225   1.725   2.388   0.280
  923SOL     OW 3226   0.768   3.006   1.023
  923SOL    HW1 3227   0.690   3.023   1.083
  923SOL    HW2 3228   0.802   3.093   0.987
  924SOL     OW 3229   0.850   2.660   1.823
  924SOL    HW1 3230   0.846   2.736   1.888
  924SOL    HW2 3231   0.872   2.696   1.732
  925SOL     OW 3232   0.685   2.874   0.665
  925SOL    HW1 3233   0.754   2.858   0.735
  925SOL    HW2 3234   0.612   2.931   0.703
  926SOL     OW 3235   0.686   3.023   1.803
  926SOL    HW1 3236   0.746   3.102   1.817
  926SOL    HW2 3237   0.600   3.054   1.762
  927SOL     OW 3238   0.335   3.297   1.061
  927SOL    HW1 3239   0.257   3.266   1.008
  927SOL    HW2 3240   0.393   3.355   1.004
  928SOL     OW 3241   1.460   3.367   1.339
  928SOL    HW1 3242   1.484   3.461   1.365
  928SOL    HW2 3243   1.444   3.313   1.421
  929SOL     OW 3244   0.438   2.254   1.499
  929SOL    HW1 3245   0.520   2.198   1.508
  929SOL    HW2 3246   0.357   2.196   1.503
  930SOL     OW 3247   1.603   2.309   0.737
  930SOL    HW1 3248   1.529   2.355   0.687
  930SOL    HW2 3249   1.654   2.377   0.790
  931SOL     OW 3250   0.231   3.575   0.483
  931SOL    HW1 3251   0.265   3.652   0.537
  931SOL    HW2 3252   0.275   3.575   0.393
  932SOL     OW 3253   1.127   3.203   1.690
  932SOL    HW1 3254   1.174   3.203   1.778
  932SOL    HW2 3255   1.079   3.116   1.679
  933SOL     OW 3256   0.230   3.296   0.538
  933SOL    HW1 3257   0.204   3.392   0.538
  933SOL    HW2 3258   0.159   3.242   0.583
  934SOL     OW 3259   0.240   2.953   0.886
  934SOL    HW1 3260   0.254   2.869   0.938
  934SOL    HW2 3261   0.185   3.017   0.941
  935SOL     OW 3262   0.620   3.648   1.439
  935SOL    HW1 3263   0.528   3.631   1.474
  935SOL    HW2 3264   0.648   3.740   1.465
  936SOL     OW 3265   0.606   2.826   0.123
  936SOL    HW1 3266   0.613   2.910   0.069
  936SOL    HW2 3267   0.652   2.839   0.211
  937SOL     OW 3268   1.594   1.976   1.480
  937SOL    HW1 3269   1.576   2.043   1.408
  937SOL    HW2 3270   1.591   2.022   1.569
  938SOL     OW 3271   0.122   2.505   0.563
  938SOL    HW1 3272   0.077   2.417   0.580
  938SOL    HW2 3273   0.121   2.559   0.647
  939SOL     OW 3274   1.842   3.629   0.359
  939SOL    HW1 3275   1.896   3.600   0.439
  939SOL    HW2 3276   1.872   3.719   0.330
  940SOL     OW 3277   0.027   3.458   0.117
  940SOL    HW1 3278   0.008   3.362   0.138
  940SOL    HW2 3279  -0.006   3.516   0.192
  941SOL     OW 3280   1.689   2.784   0.612
  941SOL    HW1 3281   1.784   2.755   0.620
  941SOL    HW2 3282   1.681   2.849   0.537
  942SOL     OW 3283   1.641   2.970   0.432
  942SOL    HW1 3284   1.727   2.972   0.380
  942SOL    HW2 3285   1.655   3.017   0.520
  943SOL     OW 3286   0.113   2.599   1.597
  943SOL    HW1 3287   0.201   2.586   1.642
  943SOL    HW2 3288   0.100   2.696   1.575
  944SOL     OW 3289   0.613   3.227   0.726
  944SOL    HW1 3290   0.564   3.140   0.735
  944SOL    HW2 3291   0.590   3.270   0.639
  945SOL     OW 3292   1.293   3.090   1.423
  945SOL    HW1 3293   1.330   3.017   1.365
  945SOL    HW2 3294   1.345   3.095   1.508
  946SOL     OW 3295   0.809   1.866   0.502
  946SOL    HW1 3296   0.849   1.957   0.493
  946SOL    HW2 3297   0.709   1.874   0.508
  947SOL     OW 3298   0.197   2.838   1.264
  947SOL    HW1 3299   0.286   2.793   1.250
  947SOL    HW2 3300   0.124   2.773   1.245
  948SOL     OW 3301   1.525   2.861   0.190
  948SOL    HW1 3302   1.462   2.785   0.203
  948SOL    HW2 3303   1.573   2.879   0.276
  949SOL     OW 3304   1.187   3.654   1.616
  949SOL    HW1 3305   1.211   3.714   1.540
  949SOL    HW2 3306   1.194   3.559   1.586
  950SOL     OW 3307   0.317   2.113   1.801
  950SOL    HW1 3308   0.388   2.184   1.807
  950SOL    HW2 3309   0.229   2.152   1.829
  951SOL     OW 3310   1.466   3.279   0.953
  951SOL    HW1 3311   1.407   3.285   1.033
  951SOL    HW2 3312   1.451   3.191   0.907
  952SOL     OW 3313   1.667   3.576   0.572
  952SOL    HW1 3314   1.626   3.553   0.484
  952SOL    HW2 3315   1.649   3.502   0.637
  953SOL     OW 3316   0.598   2.591   0.270
  953SOL    HW1 3317   0.622   2.660   0.202
  953SOL    HW2 3318   0.520   2.624   0.324
  954SOL     OW 3319   1.281   2.207   0.944
  954SOL    HW1 3320   1.195   2.157   0.931
  954SOL    HW2 3321   1.343   2.153   1.000
  955SOL     OW 3322   1.576   3.524   0.307
  955SOL    HW1 3323   1.665   3.570   0.310
  955SOL    HW2 3324   1.555   3.500   0.212
  956SOL     OW 3325   0.807   2.467   1.465
  956SOL    HW1 3326   0.760   2.464   1.554
  956SOL    HW2 3327   0.756   2.412   1.399
  957SOL     OW 3328   1.394   2.331   1.674
  957SOL    HW1 3329   1.374   2.374   1.762
  957SOL    HW2 3330   1.472   2.269   1.683
  958SOL     OW 3331   0.973   2.752   1.572
  958SOL    HW1 3332   1.019   2.668   1.543
  958SOL    HW2 3333   0.917   2.786   1.497
  959SOL     OW 3334   0.991   2.272   1.242
  959SOL    HW1 3335   0.914   2.306   1.296
  959SOL    HW2 3336   0.957   2.221   1.163
  960SOL     OW 3337   1.041   2.563   0.429
  960SOL    HW1 3338   1.067   2.559   0.525
  960SOL    HW2 3339   0.956   2.512   0.415
  961SOL     OW 3340   0.076   2.673   0.789
  961SOL    HW1 3341   0.175   2.661   0.798
  961SOL    HW2 3342   0.052   2.768   0.810
  962SOL     OW 3343   0.130   3.683   1.571
  962SOL    HW1 3344   0.120   3.668   1.670
  962SOL    HW2 3345   0.044   3.719   1.535
  963SOL     OW 3346   0.865   2.210   0.195
  963SOL    HW1 3347   0.924   2.273   0.146
  963SOL    HW2 3348   0.884   2.116   0.166
  964SOL     OW 3349   1.719   2.447   1.831
  964SOL    HW1 3350   1.693   2.536   1.795
  964SOL    HW2 3351   1.717   2.379   1.758
  965SOL     OW 3352   1.362   3.006   0.545
  965SOL    HW1 3353   1.445   2.977   0.497
  965SOL    HW2 3354   1.313   3.073   0.489
  966SOL     OW 3355   0.550   2.058   0.885
  966SOL    HW1 3356   0.545   2.053   0.985
  966SOL    HW2 3357   0.552   2.154   0.856
  967SOL     OW 3358   1.008   3.318   0.477
  967SOL    HW1 3359   0.962   3.390   0.425
  967SOL    HW2 3360   1.004   3.338   0.575
  968SOL     OW 3361   0.351   3.663   0.853
  968SOL    HW1 3362   0.401   3.577   0.859
  968SOL    HW2 3363   0.416   3.740   0.850
  969SOL     OW 3364   1.795   2.928   0.873
  969SOL    HW1 3365   1.733   2.913   0.797
  969SOL    HW2 3366   1.743   2.939   0.958
  970SOL     OW 3367   1.227   3.412   1.506
  970SOL    HW1 3368   1.233   3.335   1.570
  970SOL    HW2 3369   1.175   3.386   1.426
  971SOL     OW 3370   0.321   2.805   0.242
  971SOL    HW1 3371   0.403   2.844   0.200
  971SOL    HW2 3372   0.294   2.723   0.193
  972SOL     OW 3373   1.458   2.597   0.728
  972SOL    HW1 3374   1.453   2.532   0.803
  972SOL    HW2 3375   1.538   2.656   0.741
  973SOL     OW 3376   0.461   3.128   1.727
  973SOL    HW1 3377   0.411   3.129   1.641
  973SOL    HW2 3378   0.398   3.110   1.803
  974SOL     OW 3379   1.111   3.638   0.237
  974SOL    HW1 3380   1.051   3.576   0.287
  974SOL    HW2 3381   1.142   3.594   0.152
  975SOL     OW 3382   0.202   2.147   1.498
  975SOL    HW1 3383   0.122   2.207   1.485
  975SOL    HW2 3384   0.192   2.098   1.584
  976SOL     OW 3385   1.632   3.239   0.081
  976SOL    HW1 3386   1.600   3.333   0.071
  976SOL    HW2 3387   1.556   3.176   0.069
  977SOL     OW 3388   0.464   3.605   0.323
  977SOL    HW1 3389   0.497   3.644   0.409
  977SOL    HW2 3390   0.540   3.598   0.258
  978SOL     OW 3391   1.400   1.969   0.426
  978SOL    HW1 3392   1.376   1.932   0.336
  978SOL    HW2 3393   1.499   1.985   0.430
  979SOL     OW 3394   0.249   3.647   1.241
  979SOL    HW1 3395   0.306   3.582   1.291
  979SOL    HW2 3396   0.233   3.614   1.148
  980SOL     OW 3397   0.940   3.560   0.904
  980SOL    HW1 3398   1.020   3.503   0.925
  980SOL    HW2 3399   0.891   3.520   0.827
  981SOL     OW 3400   0.382   2.562   0.480
  981SOL    HW1 3401   0.427   2.472   0.477
  981SOL    HW2 3402   0.288   2.551   0.513
  982SOL     OW 3403   1.547   2.084   1.729
  982SOL    HW1 3404   1.542   2.121   1.821
  982SOL    HW2 3405   1.475   2.015   1.717
  983SOL     OW 3406   0.614   1.984   0.117
  983SOL    HW1 3407   0.712   1.962   0.124
  983SOL    HW2 3408   0.583   1.967   0.024
  984SOL     OW 3409   0.781   2.126   1.749
  984SOL    HW1 3410   0.848   2.065   1.792
  984SOL    HW2 3411   0.708   2.145   1.814
  985SOL     OW 3412   0.888   3.376   1.195
  985SOL    HW1 3413   0.865   3.351   1.101
  985SOL    HW2 3414   0.949   3.307   1.234
  986SOL     OW 3415   1.351   2.452   1.433
  986SOL    HW1 3416   1.379   2.409   1.518
  986SOL    HW2 3417   1.376   2.548   1.434
  987SOL     OW 3418   0.803   3.264   0.924
  987SOL    HW1 3419   0.893   3.278   0.882
  987SOL    HW2 3420   0.732   3.266   0.853
  988SOL     OW 3421   0.922   2.365   0.899
  988SOL    HW1 3422   0.897   2.356   0.803
  988SOL    HW2 3423   0.970   2.283   0.930
  989SOL     OW 3424   0.539   1.926   0.512
  989SOL    HW1 3425   0.458   1.927   0.570
  989SOL    HW2 3426   0.542   2.009   0.457
  990SOL     OW 3427   1.434   3.050   0.041
  990SOL    HW1 3428   1.466   2.974   0.098
  990SOL    HW2 3429   1.342   3.077   0.071
  991SOL     OW 3430   0.297   1.897   0.171
  991SOL    HW1 3431   0.346   1.981   0.150
  991SOL    HW2 3432   0.359   1.832   0.216
  992SOL     OW 3433   0.935   2.098   0.480
  992SOL    HW1 3434   0.887   2.139   0.402
  992SOL    HW2 3435   1.034   2.096   0.461
  993SOL     OW 3436   1.076   2.545   1.464
  993SOL    HW1 3437   0.996   2.484   1.467
  993SOL    HW2 3438   1.157   2.492   1.440
  994SOL     OW 3439   1.227   3.432   0.793
  994SOL    HW1 3440   1.248   3.506   0.728
  994SOL    HW2 3441   1.295   3.432   0.866
  995SOL     OW 3442   0.459   3.014   0.741
  995SOL    HW1 3443   0.388   2.987   0.806
  995SOL    HW2 3444   0.433   2.986   0.648
  996SOL     OW 3445   1.271   3.659   0.591
  996SOL    HW1 3446   1.315   3.723   0.527
  996SOL    HW2 3447   1.221   3.711   0.661
  997SOL     OW 3448   1.032   2.411   0.016
  997SOL    HW1 3449   0.991   2.493  -0.023
  997SOL    HW2 3450   1.096   2.437   0.089
  998SOL     OW 3451   0.078   2.418   1.386
  998SOL    HW1 3452   0.170   2.417   1.345
  998SOL    HW2 3453   0.072   2.492   1.453
  999SOL     OW 3454   0.561   2.084   1.147
  999SOL    HW1 3455   0.599   2.000   1.184
  999SOL    HW2 3456   0.473   2.103   1.191
 1000SOL     OW 3457   0.866   2.316   0.642
 1000SOL    HW1 3458   0.834   2.388   0.580
 1000SOL    HW2 3459   0.890   2.235   0.589
 1001SOL     OW 3460   1.017   1.901   0.753
 1001SOL    HW1 3461   0.945   1.906   0.684
 1001SOL    HW2 3462   0.993   1.832   0.822
 1002SOL     OW 3463   1.429   3.035   0.867
 1002SOL    HW1 3464   1.374   2.951   0.860
 1002SOL    HW2 3465   1.455   3.064   0.775
 1003SOL     OW 3466   1.466   2.452   0.992
 1003SOL    HW1 3467   1.436   2.357   0.999
 1003SOL    HW2 3468   1.539   2.468   1.058
 1004SOL     OW 3469   1.857   2.695   0.377
 1004SOL    HW1 3470   1.899   2.631   0.441
 1004SOL    HW2 3471   1.819   2.644   0.299
 1005SOL     OW 3472   0.488   3.247   0.174
 1005SOL    HW1 3473   0.401   3.232   0.221
 1005SOL    HW2 3474   0.471   3.273   0.079
 1006SOL     OW 3475   1.664   3.142   0.657
 1006SOL    HW1 3476   1.763   3.150   0.671
 1006SOL    HW2 3477   1.619   3.226   0.688
 1007SOL     OW 3478   1.390   2.437   0.078
 1007SOL    HW1 3479   1.336   2.416   0.159
 1007SOL    HW2 3480   1.481   2.396   0.087
 1008SOL     OW 3481   0.527   2.118   0.328
 1008SOL    HW1 3482   0.554   2.059   0.253
 1008SOL    HW2 3483   0.527   2.213   0.297
 1009SOL     OW 3484   1.754   3.085   1.588
 1009SOL    HW1 3485   1.845   3.046   1.575
 1009SOL    HW2 3486   1.762   3.181   1.612
 1010SOL     OW 3487   1.064   3.209   1.340
 1010SOL    HW1 3488   0.984   3.186   1.395
 1010SOL    HW2 3489   1.147   3.183   1.389
 1011SOL     OW 3490   1.592   3.491   1.625
 1011SOL    HW1 3491   1.619   3.525   1.535
 1011SOL    HW2 3492   1.671   3.453   1.671
 1012SOL     OW 3493   1.111   3.057   1.100
 1012SOL    HW1 3494   1.071   3.101   1.181
 1012SOL    HW2 3495   1.070   3.094   1.017
 1013SOL     OW 3496   1.638   2.961   1.079
 1013SOL    HW1 3497   1.643   3.042   1.138
 1013SOL    HW2 3498   1.552   2.963   1.028
 1014SOL     OW 3499   0.915   1.951   1.402
 1014SOL    HW1 3500   0.940   1.931   1.307
 1014SOL    HW2 3501   0.987   2.007   1.444
 1015SOL     OW 3502   0.980   2.978   1.719
 1015SOL    HW1 3503   0.881   2.984   1.729
 1015SOL    HW2 3504   1.003   2.898   1.663
 1016SOL     OW 3505   0.705   2.912   0.368
 1016SOL    HW1 3506   0.691   2.919   0.467
 1016SOL    HW2 3507   0.789   2.861   0.350
 1017SOL     OW 3508   0.410   2.675   1.251
 1017SOL    HW1 3509   0.496   2.687   1.301
 1017SOL    HW2 3510   0.368   2.588   1.278
 1018SOL     OW 3511   1.274   2.248   1.262
 1018SOL    HW1 3512   1.295   2.322   1.326
 1018SOL    HW2 3513   1.185   2.265   1.219
 1019SOL     OW 3514   0.064   3.426   1.331
 1019SOL    HW1 3515   0.018   3.508   1.297
 1019SOL    HW2 3516   0.162   3.445   1.340
 1020SOL     OW 3517   0.367   2.962   0.501
 1020SOL    HW1 3518   0.360   3.045   0.445
 1020SOL    HW2 3519   0.371   2.882   0.441
 1021SOL     OW 3520   0.566   2.399   0.865
 1021SOL    HW1 3521   0.578   2.465   0.791
 1021SOL    HW2 3522   0.612   2.433   0.948
 1022SOL     OW 3523   1.252   3.210   0.388
 1022SOL    HW1 3524   1.302   3.287   0.428
 1022SOL    HW2 3525   1.157   3.212   0.420
 1023SOL     OW 3526   1.272   3.307   1.142
 1023SOL    HW1 3527   1.319   3.320   1.229
 1023SOL    HW2 3528   1.206   3.233   1.151
 1024SOL     OW 3529   1.582   2.501   0.472
 1024SOL    HW1 3530   1.551   2.562   0.545
 1024SOL    HW2 3531   1.632   2.553   0.403
 1025SOL     OW 3532   0.354   3.372   1.329
 1025SOL    HW1 3533   0.333   3.328   1.242
 1025SOL    HW2 3534   0.451   3.398   1.332
 1026SOL     OW 3535   0.402   2.613   1.598
 1026SOL    HW1 3536   0.470   2.668   1.551
 1026SOL    HW2 3537   0.442   2.525   1.625
 1027SOL     OW 3538   1.587   2.641   1.670
 1027SOL    HW1 3539   1.495   2.679   1.665
 1027SOL    HW2 3540   1.647   2.688   1.605
 1028SOL     OW 3541   1.013   1.967   1.770
 1028SOL    HW1 3542   1.019   2.052   1.718
 1028SOL    HW2 3543   1.045   1.891   1.713
 1029SOL     OW 3544   0.504   1.912   1.740
 1029SOL    HW1 3545   0.462   1.855   1.670
 1029SOL    HW2 3546   0.438   1.981   1.772
 1030SOL     OW 3547   0.573   2.732   1.029
 1030SOL    HW1 3548   0.617   2.821   1.020
 1030SOL    HW2 3549   0.510   2.732   1.106
 1031SOL     OW 3550   1.360   2.724   1.045
 1031SOL    HW1 3551   1.285   2.724   0.979
 1031SOL    HW2 3552   1.397   2.632   1.054
 1032SOL     OW 3553   1.209   2.387   0.275
 1032SOL    HW1 3554   1.222   2.303   0.329
 1032SOL    HW2 3555   1.180   2.461   0.335
 1033SOL     OW 3556   0.307   2.075   1.231
 1033SOL    HW1 3557   0.284   2.112   1.321
 1033SOL    HW2 3558   0.277   1.980   1.225
 1034SOL     OW 3559   0.037   3.172   1.282
 1034SOL    HW1 3560   0.090   3.123   1.350
 1034SOL    HW2 3561   0.059   3.270   1.287
 1035SOL     OW 3562   0.732   2.496   1.064
 1035SOL    HW1 3563   0.791   2.470   0.988
 1035SOL    HW2 3564   0.704   2.592   1.053
 1036SOL     OW 3565   1.728   2.797   1.854
 1036SOL    HW1 3566   1.682   2.790   1.765
 1036SOL    HW2 3567   1.666   2.841   1.920
 1037SOL     OW 3568   0.307   1.925   0.618
 1037SOL    HW1 3569   0.296   2.019   0.651
 1037SOL    HW2 3570   0.302   1.862   0.695
 1038SOL     OW 3571   1.622   2.229   0.374
 1038SOL    HW1 3572   1.624   2.153   0.438
 1038SOL    HW2 3573   1.574   2.306   0.414
 1039SOL     OW 3574   1.023   2.628   0.966
 1039SOL    HW1 3575   1.038   2.649   1.062
 1039SOL    HW2 3576   0.993   2.533   0.957
 1040SOL     OW 3577   0.980   3.435   1.700
 1040SOL    HW1 3578   0.960   3.479   1.612
 1040SOL    HW2 3579   1.019   3.344   1.684
 1041SOL     OW 3580   1.859   3.380   1.605
 1041SOL    HW1 3581   1.873   3.407   1.510
 1041SOL    HW2 3582   1.942   3.402   1.658
 1042SOL     OW 3583   0.350   2.760   1.804
 1042SOL    HW1 3584   0.426   2.804   1.852
 1042SOL    HW2 3585   0.385   2.713   1.722
 1043SOL     OW 3586   1.540   2.136   0.125
 1043SOL    HW1 3587   1.479   2.061   0.148
 1043SOL    HW2 3588   1.562   2.188   0.208
 1044SOL     OW 3589   1.303   2.700   0.042
 1044SOL    HW1 3590   1.337   2.607   0.057
 1044SOL    HW2 3591   1.321   2.727  -0.053
 1045SOL     OW 3592   1.068   3.195   0.849
 1045SOL    HW1 3593   1.075   3.111   0.794
 1045SOL    HW2 3594   1.130   3.264   0.813
 1046SOL     OW 3595   0.319   2.672   0.949
 1046SOL    HW1 3596   0.412   2.708   0.954
 1046SOL    HW2 3597   0.313   2.587   1.001
 1047SOL     OW 3598   0.339   2.371   1.006
 1047SOL    HW1 3599   0.287   2.288   0.989
 1047SOL    HW2 3600   0.416   2.376   0.942
 1048SOL     OW 3601   1.138   2.242   1.678
 1048SOL    HW1 3602   1.093   2.305   1.742
 1048SOL    HW2 3603   1.231   2.273   1.661
 1049SOL     OW 3604   1.160   2.069   1.477
 1049SOL    HW1 3605   1.160   2.133   1.554
 1049SOL    HW2 3606   1.188   2.117   1.394
 1050SOL     OW 3607   0.008   3.188   0.200
 1050SOL    HW1 3608  -0.085   3.209   0.169
 1050SOL    HW2 3609   0.018   3.089   0.213
 1051SOL     OW 3610   0.088   3.663   0.927
 1051SOL    HW1 3611   0.046   3.577   0.900
 1051SOL    HW2 3612   0.182   3.666   0.893
 1052SOL     OW 3613   0.504   3.430   0.910
 1052SOL    HW1 3614   0.570   3.504   0.919
 1052SOL    HW2 3615   0.548   3.351   0.868
 1053SOL     OW 3616   1.002   2.658   1.238
 1053SOL    HW1 3617   1.043   2.626   1.324
 1053SOL    HW2 3618   0.906   2.631   1.235
 1054SOL     OW 3619   0.040   2.406   1.114
 1054SOL    HW1 3620   0.125   2.373   1.073
 1054SOL    HW2 3621   0.053   2.421   1.212
 1055SOL     OW 3622   0.189   2.382   1.722
 1055SOL    HW1 3623   0.248   2.342   1.652
 1055SOL    HW2 3624   0.131   2.453   1.681
 1056SOL     OW 3625   1.369   2.812   1.660
 1056SOL    HW1 3626   1.408   2.901   1.680
 1056SOL    HW2 3627   1.379   2.792   1.563
 1057SOL     OW 3628   0.815   2.434   0.325
 1057SOL    HW1 3629   0.822   2.345   0.279
 1057SOL    HW2 3630   0.721   2.468   0.317
 1058SOL     OW 3631   1.657   2.466   1.206
 1058SOL    HW1 3632   1.619   2.397   1.268
 1058SOL    HW2 3633   1.739   2.430   1.162
 1059SOL     OW 3634   0.252   3.426   1.744
 1059SOL    HW1 3635   0.222   3.483   1.820
 1059SOL    HW2 3636   0.245   3.329   1.770
 1060SOL     OW 3637   0.671   2.326   1.269
 1060SOL    HW1 3638   0.637   2.237   1.239
 1060SOL    HW2 3639   0.697   2.380   1.189
 1061SOL     OW 3640   0.930   3.540   1.465
 1061SOL    HW1 3641   0.906   3.522   1.370
 1061SOL    HW2 3642   0.960   3.634   1.475
 1062SOL     OW 3643   0.473   2.362   0.191
 1062SOL    HW1 3644   0.534   2.442   0.195
 1062SOL    HW2 3645   0.378   2.393   0.198
 1063SOL     OW 3646   0.159   2.999   1.466
 1063SOL    HW1 3647   0.181   2.938   1.542
 1063SOL    HW2 3648   0.169   2.950   1.380
 1064SOL     OW 3649   1.347   2.921   1.234
 1064SOL    HW1 3650   1.371   2.858   1.160
 1064SOL    HW2 3651   1.257   2.961   1.216
 1065SOL     OW 3652   1.302   2.717   0.309
 1065SOL    HW1 3653   1.216   2.686   0.351
 1065SOL    HW2 3654   1.298   2.703   0.210
 1066SOL     OW 3655   1.759   3.609   1.154
 1066SOL    HW1 3656   1.820   3.639   1.081
 1066SOL    HW2 3657   1.721   3.520   1.132
 1067SOL     OW 3658   1.252   3.593   1.128
 1067SOL    HW1 3659   1.336   3.598   1.074
 1067SOL    HW2 3660   1.229   3.497   1.146
 1068SOL     OW 3661   0.083   3.120   1.022
 1068SOL    HW1 3662   0.078   3.119   1.122
 1068SOL    HW2 3663   0.000   3.079   0.984
 1069SOL     OW 3664   0.688   3.524   1.716
 1069SOL    HW1 3665   0.632   3.605   1.725
 1069SOL    HW2 3666   0.740   3.528   1.630
 1070SOL     OW 3667   0.903   1.948   0.133
 1070SOL    HW1 3668   0.954   1.949   0.047
 1070SOL    HW2 3669   0.959   1.906   0.204
 1071SOL     OW 3670   1.726   1.997   0.523
 1071SOL    HW1 3671   1.799   1.980   0.456
 1071SOL    HW2 3672   1.695   1.910   0.561
 1072SOL     OW 3673   1.388   3.435   0.477
 1072SOL    HW1 3674   1.455   3.447   0.403
 1072SOL    HW2 3675   1.348   3.524   0.500
 1073SOL     OW 3676   0.130   3.656   1.851
 1073SOL    HW1 3677   0.089   3.582   1.904
 1073SOL    HW2 3678   0.194   3.707   1.909
 1074SOL     OW 3679   1.280   2.789   0.672
 1074SOL    HW1 3680   1.340   2.708   0.674
 1074SOL    HW2 3681   1.320   2.858   0.612
 1075SOL     OW 3682   0.830   3.135   1.422
 1075SOL    HW1 3683   0.825   3.168   1.517
 1075SOL    HW2 3684   0.744   3.154   1.376
 1076SOL     OW 3685   0.672   3.478   0.154
 1076SOL    HW1 3686   0.681   3.488   0.055
 1076SOL    HW2 3687   0.632   3.389   0.175
 1077SOL     OW 3688   1.650   3.582   1.394
 1077SOL    HW1 3689   1.703   3.592   1.310
 1077SOL    HW2 3690   1.623   3.672   1.428
 1078SOL     OW 3691   1.841   2.037   0.963
 1078SOL    HW1 3692   1.880   1.952   0.927
 1078SOL    HW2 3693   1.743   2.039   0.944
 1079SOL     OW 3694   0.263   2.188   0.720
 1079SOL    HW1 3695   0.184   2.239   0.686
 1079SOL    HW2 3696   0.254   2.173   0.818
 1080SOL     OW 3697   1.194   3.474   0.031
 1080SOL    HW1 3698   1.200   3.381   0.068
 1080SOL    HW2 3699   1.135   3.474  -0.049
 1081SOL     OW 3700   0.822   2.864   1.372
 1081SOL    HW1 3701   0.862   2.863   1.280
 1081SOL    HW2 3702   0.832   2.956   1.412
 1082SOL     OW 3703   0.916   2.772   0.291
 1082SOL    HW1 3704   0.979   2.810   0.223
 1082SOL    HW2 3705   0.956   2.689   0.330
 1083SOL     OW 3706   1.504   3.469   0.044
 1083SOL    HW1 3707   1.412   3.506   0.051
 1083SOL    HW2 3708   1.542   3.489  -0.046
 1084SOL     OW 3709   0.372   3.150   1.490
 1084SOL    HW1 3710   0.359   3.243   1.456
 1084SOL    HW2 3711   0.288   3.098   1.477
 1085SOL     OW 3712   1.614   3.154   1.289
 1085SOL    HW1 3713   1.674   3.157   1.369
 1085SOL    HW2 3714   1.539   3.218   1.302
 1086SOL     OW 3715   1.039   2.960   0.696
 1086SOL    HW1 3716   0.969   2.913   0.750
 1086SOL    HW2 3717   1.098   2.892   0.653
 1087SOL     OW 3718   1.014   2.098   0.971
 1087SOL    HW1 3719   1.006   2.062   0.878
 1087SOL    HW2 3720   1.012   2.022   1.036
 1088SOL     OW 3721   0.590   3.349   0.491
 1088SOL    HW1 3722   0.632   3.291   0.421
 1088SOL    HW2 3723   0.546   3.428   0.447
 1089SOL     OW 3724   1.709   2.247   1.381
 1089SOL    HW1 3725   1.782   2.316   1.385
 1089SOL    HW2 3726   1.737   2.172   1.322
 1090SOL     OW 3727   0.255   3.210   0.290
 1090SOL    HW1 3728   0.159   3.211   0.263
 1090SOL    HW2 3729   0.267   3.263   0.374
 1091SOL     OW 3730   0.105   2.875   1.726
 1091SOL    HW1 3731   0.028   2.842   1.780
 1091SOL    HW2 3732   0.190   2.845   1.768
 1092SOL     OW 3733   0.672   2.065   1.489
 1092SOL    HW1 3734   0.762   2.049   1.449
 1092SOL    HW2 3735   0.680   2.070   1.588
 1093SOL     OW 3736   0.075   2.207   0.033
 1093SOL    HW1 3737  -0.017   2.179   0.004
 1093SOL    HW2 3738   0.106   2.284  -0.023
 1094SOL     OW 3739   1.440   2.718   1.398
 1094SOL    HW1 3740   1.383   2.770   1.335
 1094SOL    HW2 3741   1.536   2.730   1.374
 1095SOL     OW 3742   0.072   2.028   0.318
 1095SOL    HW1 3743   0.055   2.111   0.264
 1095SOL    HW2 3744   0.162   1.991   0.296
 1096SOL     OW 3745   1.183   3.197   0.119
 1096SOL    HW1 3746   1.084   3.186   0.121
 1096SOL    HW2 3747   1.217   3.212   0.212
 1097SOL     OW 3748   0.613   2.704   1.431
 1097SOL    HW1 3749   0.669   2.785   1.414
 1097SOL    HW2 3750   0.672   2.624   1.434
 1098SOL     OW 3751   1.493   3.629   0.959
 1098SOL    HW1 3752   1.526   3.693   0.890
 1098SOL    HW2 3753   1.559   3.623   1.034
 1099SOL     OW 3754   0.716   2.427   1.708
 1099SOL    HW1 3755   0.735   2.492   1.782
 1099SOL    HW2 3756   0.776   2.347   1.717
 1100SOL     OW 3757   1.450   3.082   1.633
 1100SOL    HW1 3758   1.441   3.072   1.732
 1100SOL    HW2 3759   1.546   3.075   1.607
 1101SOL     OW 3760   0.390   3.603   1.560
 1101SOL    HW1 3761   0.299   3.644   1.558
 1101SOL    HW2 3762   0.383   3.509   1.592
 1102SOL     OW 3763   1.674   2.745   1.254
 1102SOL    HW1 3764   1.647   2.656   1.217
 1102SOL    HW2 3765   1.675   2.813   1.181
 1103SOL     OW 3766   1.225   2.187   0.449
 1103SOL    HW1 3767   1.290   2.113   0.438
 1103SOL    HW2 3768   1.245   2.237   0.533
 1104SOL     OW 3769   0.594   2.607   0.652
 1104SOL    HW1 3770   0.644   2.692   0.633
 1104SOL    HW2 3771   0.506   2.609   0.604
 1105SOL     OW 3772   1.777   2.204   1.642
 1105SOL    HW1 3773   1.760   2.235   1.548
 1105SOL    HW2 3774   1.693   2.167   1.680
 1106SOL     OW 3775   1.730   2.796   1.517
 1106SOL    HW1 3776   1.768   2.887   1.532
 1106SOL    HW2 3777   1.722   2.779   1.418
 1107SOL     OW 3778   0.859   3.236   0.016
 1107SOL    HW1 3779   0.813   3.251   0.104
 1107SOL    HW2 3780   0.903   3.321  -0.014
 1108SOL     OW 3781   0.661   3.652   0.953
 1108SOL    HW1 3782   0.615   3.740   0.940
 1108SOL    HW2 3783   0.760   3.664   0.946
 1109SOL     OW 3784   0.859   2.818   0.861
 1109SOL    HW1 3785   0.913   2.749   0.909
 1109SOL    HW2 3786   0.827   2.887   0.927
 1110SOL     OW 3787   1.083   2.846   0.087
 1110SOL    HW1 3788   1.060   2.899   0.005
 1110SOL    HW2 3789   1.164   2.790   0.068
 1111SOL     OW 3790   1.861   3.431   0.851
 1111SOL    HW1 3791   1.790   3.419   0.781
 1111SOL    HW2 3792   1.862   3.352   0.911
 1112SOL     OW 3793   0.221   3.176   1.844
 1112SOL    HW1 3794   0.156   3.103   1.823
 1112SOL    HW2 3795   0.225   3.190   1.942
 1113SOL     OW 3796   0.079   3.102   0.653
 1113SOL    HW1 3797   0.078   3.055   0.741
 1113SOL    HW2 3798   0.161   3.074   0.602
 1114SOL     OW 3799   0.672   3.253   1.624
 1114SOL    HW1 3800   0.594   3.203   1.662
 1114SOL    HW2 3801   0.669   3.348   1.655
 1115SOL     OW 3802   1.824   2.054   1.227
 1115SOL    HW1 3803   1.820   1.964   1.271
 1115SOL    HW2 3804   1.827   2.043   1.128
 1116SOL     OW 3805   0.428   2.286   0.520
 1116SOL    HW1 3806   0.458   2.214   0.458
 1116SOL    HW2 3807   0.389   2.246   0.603
 1117SOL     OW 3808   1.705   3.349   1.104
 1117SOL    HW1 3809   1.612   3.324   1.077
 1117SOL    HW2 3810   1.731   3.299   1.186
 1118SOL     OW 3811   0.317   2.409   1.280
 1118SOL    HW1 3812   0.355   2.350   1.352
 1118SOL    HW2 3813   0.357   2.383   1.192
 1119SOL     OW 3814   0.812   3.448   0.687
 1119SOL    HW1 3815   0.844   3.458   0.593
 1119SOL    HW2 3816   0.733   3.386   0.689
 1120SOL     OW 3817   1.424   2.076   1.112
 1120SOL    HW1 3818   1.476   2.011   1.167
 1120SOL    HW2 3819   1.375   2.139   1.173
 1121SOL     OW 3820   1.001   1.896   1.154
 1121SOL    HW1 3821   0.938   1.824   1.123
 1121SOL    HW2 3822   1.094   1.860   1.154
 1122SOL     OW 3823   0.770   3.192   0.301
 1122SOL    HW1 3824   0.724   3.105   0.318
 1122SOL    HW2 3825   0.861   3.189   0.342
 1123SOL     OW 3826   0.618   3.429   1.284
 1123SOL    HW1 3827   0.613   3.511   1.341
 1123SOL    HW2 3828   0.707   3.426   1.239
 1124SOL     OW 3829   1.352   1.914   0.168
 1124SOL    HW1 3830   1.387   1.873   0.084
 1124SOL    HW2 3831   1.262   1.876   0.188
 1125SOL     OW 3832   1.300   2.315   0.691
 1125SOL    HW1 3833   1.241   2.395   0.695
 1125SOL    HW2 3834   1.315   2.280   0.784
 1126SOL     OW 3835   1.593   2.083   0.882
 1126SOL    HW1 3836   1.509   2.082   0.936
 1126SOL    HW2 3837   1.595   2.166   0.826
 1127SOL     OW 3838   0.039   2.939   0.300
 1127SOL    HW1 3839   0.138   2.928   0.291
 1127SOL    HW2 3840  -0.001   2.853   0.332
 1128SOL     OW 3841   0.875   3.508   0.337
 1128SOL    HW1 3842   0.798   3.473   0.283
 1128SOL    HW2 3843   0.843   3.579   0.399
 1129SOL     OW 3844   0.230   2.490   1.975
 1129SOL    HW1 3845   0.137   2.488   2.012
 1129SOL    HW2 3846   0.231   2.451   1.883
 1130SOL     OW 3847   0.225   2.137   2.858
 1130SOL    HW1 3848   0.260   2.120   2.950
 1130SOL    HW2 3849   0.137   2.092   2.846
 1131SOL     OW 3850   0.019   2.230   2.509
 1131SOL    HW1 3851  -0.063   2.273   2.548
 1131SOL    HW2 3852  -0.009   2.157   2.446
 1132SOL     OW 3853   0.569   3.137   3.027
 1132SOL    HW1 3854   0.476   3.130   2.990
 1132SOL    HW2 3855   0.580   3.226   3.071
 1133SOL     OW 3856   1.555   3.373   2.565
 1133SOL    HW1 3857   1.498   3.357   2.646
 1133SOL    HW2 3858   1.496   3.383   2.485
 1134SOL     OW 3859   1.135   2.565   2.579
 1134SOL    HW1 3860   1.192   2.643   2.554
 1134SOL    HW2 3861   1.075   2.591   2.655
 1135SOL     OW 3862   1.755   2.469   2.093
 1135SOL    HW1 3863   1.743   2.456   1.994
 1135SOL    HW2 3864   1.725   2.388   2.142
 1136SOL     OW 3865   0.768   3.006   2.885
 1136SOL    HW1 3866   0.690   3.023   2.945
 1136SOL    HW2 3867   0.802   3.093   2.849
 1137SOL     OW 3868   0.850   2.660   3.685
 1137SOL    HW1 3869   0.846   2.736   3.750
 1137SOL    HW2 3870   0.872   2.696   3.594
 1138SOL     OW 3871   0.685   2.874   2.527
 1138SOL    HW1 3872   0.754   2.858   2.597
 1138SOL    HW2 3873   0.612   2.931   2.565
 1139SOL     OW 3874   0.686   3.023   3.665
 1139SOL    HW1 3875   0.746   3.102   3.679
 1139SOL    HW2 3876   0.600   3.054   3.624
 1140SOL     OW 3877   0.335   3.297   2.923
 1140SOL    HW1 3878   0.257   3.266   2.870
 1140SOL    HW2 3879   0.393   3.355   2.866
 1141SOL     OW 3880   1.460   3.367   3.201
 1141SOL    HW1 3881   1.484   3.461   3.227
 1141SOL    HW2 3882   1.444   3.313   3.283
 1142SOL     OW 3883   0.438   2.254   3.361
 1142SOL    HW1 3884   0.520   2.198   3.370
 1142SOL    HW2 3885   0.357   2.196   3.365
 1143SOL     OW 3886   1.603   2.309   2.599
 1143SOL    HW1 3887   1.529   2.355   2.549
 1143SOL    HW2 3888   1.654   2.377   2.652
 1144SOL     OW 3889   0.231   3.575   2.345
 1144SOL    HW1 3890   0.265   3.652   2.399
 1144SOL    HW2 3891   0.275   3.575   2.255
 1145SOL     OW 3892   1.127   3.203   3.552
 1145SOL    HW1 3893   1.174   3.203   3.640
 1145SOL    HW2 3894   1.079   3.116   3.541
 1146SOL     OW 3895   0.230   3.296   2.400
 1146SOL    HW1 3896   0.204   3.392   2.400
 1146SOL    HW2 3897   0.159   3.242   2.445
 1147SOL     OW 3898   0.240   2.953   2.748
 1147SOL    HW1 3899   0.254   2.869   2.800
 1147SOL    HW2 3900   0.185   3.017   2.803
 1148SOL     OW 3901   0.620   3.648   3.301
 1148SOL    HW1 3902   0.528   3.631   3.336
 1148SOL    HW2 3903   0.648   3.740   3.327
 1149SOL     OW 3904   0.606   2.826   1.985
 1149SOL    HW1 3905   0.613   2.910   1.931
 1149SOL    HW2 3906   0.652   2.839   2.073
 1150SOL     OW 3907   1.594   1.976   3.342
 1150SOL    HW1 3908   1.576   2.043   3.270
 1150SOL    HW2 3909   1.591   2.022   3.431
 1151SOL     OW 3910   0.122   2.505   2.425
 1151SOL    HW1 3911   0.077   2.417   2.442
 1151SOL    HW2 3912   0.121   2.559   2.509
 1152SOL     OW 3913   1.842   3.629   2.221
 1152SOL    HW1 3914   1.896   3.600   2.301
 1152SOL    HW2 3915   1.872   3.719   2.192
 1153SOL     OW 3916   0.027   3.458   1.979
 1153SOL    HW1 3917   0.008   3.362   2.000
 1153SOL    HW2 3918  -0.006   3.516   2.054
 1154SOL     OW 3919   1.689   2.784   2.474
 1154SOL    HW1 3920   1.784   2.755   2.482
 1154SOL    HW2 3921   1.681   2.849   2.399
 1155SOL     OW 3922   1.641   2.970   2.294
 1155SOL    HW1 3923   1.727   2.972   2.242
 1155SOL    HW2 3924   1.655   3.017   2.382
 1156SOL     OW 3925   0.113   2.599   3.459
 1156SOL    HW1 3926   0.201   2.586   3.504
 1156SOL    HW2 3927   0.100   2.696   3.437
 1157SOL     OW 3928   0.613   3.227   2.588
 1157SOL    HW1 3929   0.564   3.140   2.597
 1157SOL    HW2 3930   0.590   3.270   2.501
 1158SOL     OW 3931   1.293   3.090   3.285
 1158SOL    HW1 3932   1.330   3.017   3.227
 1158SOL    HW2 3933   1.345   3.095   3.370
 1159SOL     OW 3934   0.809   1.866   2.364
 1159SOL    HW1 3935   0.849   1.957   2.355
 1159SOL    HW2 3936   0.709   1.874   2.370
 1160SOL     OW 3937   0.197   2.838   3.126
 1160SOL    HW1 3938   0.286   2.793   3.112
 1160SOL    HW2 3939   0.124   2.773   3.107
 1161SOL     OW 3940   1.525   2.861   2.052
 1161SOL    HW1 3941   1.462   2.785   2.065
 1161SOL    HW2 3942   1.573   2.879   2.138
 1162SOL     OW 3943   1.187   3.654   3.478
 1162SOL    HW1 3944   1.211   3.714   3.402
 1162SOL    HW2 3945   1.194   3.559   3.448
 1163SOL     OW 3946   0.317   2.113   3.663
 1163SOL    HW1 3947   0.388   2.184   3.669
 1163SOL    HW2 3948   0.229   2.152   3.691
 1164SOL     OW 3949   1.466   3.279   2.815
 1164SOL    HW1 3950   1.407   3.285   2.895
 1164SOL    HW2 3951   1.451   3.191   2.769
 1165SOL     OW 3952   1.667   3.576   2.434
 1165SOL    HW1 3953   1.626   3.553   2.346
 1165SOL    HW2 3954   1.649   3.502   2.499
 1166SOL     OW 3955   0.598   2.591   2.132
 1166SOL    HW1 3956   0.622   2.660   2.064
 1166SOL    HW2 3957   0.520   2.624   2.186
 1167SOL     OW 3958   1.281   2.207   2.806
 1167SOL    HW1 3959   1.195   2.157   2.793
 1167SOL    HW2 3960   1.343   2.153   2.862
 1168SOL     OW 3961   1.576   3.524   2.169
 1168SOL    HW1 3962   1.665   3.570   2.172
 1168SOL    HW2 3963   1.555   3.500   2.074
 1169SOL     OW 3964   0.807   2.467   3.327
 1169SOL    HW1 3965   0.760   2.464   3.416
 1169SOL    HW2 3966   0.756   2.412   3.261
 1170SOL     OW 3967   1.394   2.331   3.536
 1170SOL    HW1 3968   1.374   2.374   3.624
 1170SOL    HW2 3969   1.472   2.269   3.545
 1171SOL     OW 3970   0.973   2.752   3.434
 1171SOL    HW1 3971   1.019   2.668   3.405
 1171SOL    HW2 3972   0.917   2.786   3.359
 1172SOL     OW 3973   0.991   2.272   3.104
 1172SOL    HW1 3974   0.914   2.306   3.158
 1172SOL    HW2 3975   0.957   2.221   3.025
 1173SOL     OW 3976   1.041   2.563   2.291
 1173SOL    HW1 3977   1.067   2.559   2.387
 1173SOL    HW2 3978   0.956   2.512   2.277
 1174SOL     OW 3979   0.076   2.673   2.651
 1174SOL    HW1 3980   0.175   2.661   2.660
 1174SOL    HW2 3981   0.052   2.768   2.672
 1175SOL     OW 3982   0.130   3.683   3.433
 1175SOL    HW1 3983   0.120   3.668   3.532
 1175SOL    HW2 3984   0.044   3.719   3.397
 1176SOL     OW 3985   0.865   2.210   2.057
 1176SOL    HW1 3986   0.924   2.273   2.008
 1176SOL    HW2 3987   0.884   2.116   2.028
 1177SOL     OW 3988   1.719   2.447   3.693
 1177SOL    HW1 3989   1.693   2.536   3.657
 1177SOL    HW2 3990   1.717   2.379   3.620
 1178SOL     OW 3991   1.362   3.006   2.407
 1178SOL    HW1 3992   1.445   2.977   2.359
 1178SOL    HW2 3993   1.313   3.073   2.351
 1179SOL     OW 3994   0.550   2.058   2.747
 1179SOL    HW1 3995   0.545   2.053   2.847
 1179SOL    HW2 3996   0.552   2.154   2.718
 1180SOL     OW 3997   1.008   3.318   2.339
 1180SOL    HW1 3998   0.962   3.390   2.287
 1180SOL    HW2 3999   1.004   3.338   2.437
 1181SOL     OW 4000   0.351   3.663   2.715
 1181SOL    HW1 4001   0.401   3.577   2.721
 1181SOL    HW2 4002   0.416   3.740   2.712
 1182SOL     OW 4003   1.795   2.928   2.735
 1182SOL    HW1 4004   1.733   2.913   2.659
 1182SOL    HW2 4005   1.743   2.939   2.820
 1183SOL     OW 4006   1.227   3.412   3.368
 1183SOL    HW1 4007   1.233   3.335   3.432
 1183SOL    HW2 4008   1.175   3.386   3.288
 1184SOL     OW 4009   0.321   2.805   2.104
 1184SOL    HW1 4010   0.403   2.844   2.062
 1184SOL    HW2 4011   0.294   2.723   2.055
 1185SOL     OW 4012   1.458   2.597   2.590
 1185SOL    HW1 4013   1.453   2.532   2.665
 1185SOL    HW2 4014   1.538   2.656   2.603
 1186SOL     OW 4015   0.461   3.128   3.589
 1186SOL    HW1 4016   0.411   3.129   3.503
 1186SOL    HW2 4017   0.398   3.110   3.665
 1187SOL     OW 4018   1.111   3.638   2.099
 1187SOL    HW1 4019   1.051   3.576   2.149
 1187SOL    HW2 4020   1.142   3.594   2.014
 1188SOL     OW 4021   0.202   2.147   3.360
 1188SOL    HW1 4022   0.122   2.207   3.347
 1188SOL    HW2 4023   0.192   2.098   3.446
 1189SOL     OW 4024   1.632   3.239   1.943
 1189SOL    HW1 4025   1.600   3.333   1.933
 1189SOL    HW2 4026   1.556   3.176   1.931
 1190SOL     OW 4027   0.464   3.605   2.185
 1190SOL    HW1 4028   0.497   3.644   2.271
 1190SOL    HW2 4029   0.540   3.598   2.120
 1191SOL     OW 4030   1.400   1.969   2.288
 1191SOL    HW1 4031   1.376   1.932   2.198
 1191SOL    HW2 4032   1.499   1.985   2.292
 1192SOL     OW 4033   0.249   3.647   3.103
 1192SOL    HW1 4034   0.306   3.582   3.153
 1192SOL    HW2 4035   0.233   3.614   3.010
 1193SOL     OW 4036   0.940   3.560   2.766
 1193SOL    HW1 4037   1.020   3.503   2.787
 1193SOL    HW2 4038   0.891   3.520   2.689
 1194SOL     OW 4039   0.382   2.562   2.342
 1194SOL    HW1 4040   0.427   2.472   2.339
 1194SOL    HW2 4041   0.288   2.551   2.375
 1195SOL     OW 4042   1.547   2.084   3.591
 1195SOL    HW1 4043   1.542   2.121   3.683
 1195SOL    HW2 4044   1.475   2.015   3.579
 1196SOL     OW 4045   0.614   1.984   1.979
 1196SOL    HW1 4046   0.712   1.962   1.986
 1196SOL    HW2 4047   0.583   1.967   1.886
 1197SOL     OW 4048   0.781   2.126   3.611
 1197SOL    HW1 4049   0.848   2.065   3.654
 1197SOL    HW2 4050   0.708   2.145   3.676
 1198SOL     OW 4051   0.888   3.376   3.057
 1198SOL    HW1 4052   0.865   3.351   2.963
 1198SOL    HW2 4053   0.949   3.307   3.096
 1199SOL     OW 4054   1.351   2.452   3.295
 1199SOL    HW1 4055   1.379   2.409   3.380
 1199SOL    HW2 4056   1.376   2.548   3.296
 1200SOL     OW 4057   0.803   3.264   2.786
 1200SOL    HW1 4058   0.893   3.278   2.744
 1200SOL    HW2 4059   0.732   3.266   2.715
 1201SOL     OW 4060   0.922   2.365   2.761
 1201SOL    HW1 4061   0.897   2.356   2.665
 1201SOL    HW2 4062   0.970   2.283   2.792
 1202SOL     OW 4063   0.539   1.926   2.374
 1202SOL    HW1 4064   0.458   1.927   2.432
 1202SOL    HW2 4065   0.542   2.009   2.319
 1203SOL     OW 4066   1.434   3.050   1.903
 1203SOL    HW1 4067   1.466   2.974   1.960
 1203SOL    HW2 4068   1.342   3.077   1.933
 1204SOL     OW 4069   0.297   1.897   2.033
 1204SOL    HW1 4070   0.346   1.981   2.012
 1204SOL    HW2 4071   0.359   1.832   2.078
 1205SOL     OW 4072   0.935   2.098   2.342
 1205SOL    HW1 4073   0.887   2.139   2.264
 1205SOL    HW2 4074   1.034   2.096   2.323
 1206SOL     OW 4075   1.076   2.545   3.326
 1206SOL    HW1 4076   0.996   2.484   3.329
 1206SOL    HW2 4077   1.157   2.492   3.302
 1207SOL     OW 4078   1.227   3.432   2.655
 1207SOL    HW1 4079   1.248   3.506   2.590
 1207SOL    HW2 4080   1.295   3.432   2.728
 1208SOL     OW 4081   0.459   3.014   2.603
 1208SOL    HW1 4082   0.388   2.987   2.668
 1208SOL    HW2 4083   0.433   2.986   2.510
 1209SOL     OW 4084   1.271   3.659   2.453
 1209SOL    HW1 4085   1.315   3.723   2.389
 1209SOL    HW2 4086   1.221   3.711   2.523
 1210SOL     OW 4087   1.032   2.411   1.878
 1210SOL    HW1 4088   0.991   2.493   1.839
 1210SOL    HW2 4089   1.096   2.437   1.951
 1211SOL     OW 4090   0.078   2.418   3.248
 1211SOL    HW1 4091   0.170   2.417   3.207
 1211SOL    HW2 4092   0.072   2.492   3.315
 1212SOL     OW 4093   0.561   2.084   3.009
 1212SOL    HW1 4094   0.599   2.000   3.046
 1212SOL    HW2 4095   0.473   2.103   3.053
 1213SOL     OW 4096   0.866   2.316   2.504
 1213SOL    HW1 4097   0.834   2.388   2.442
 1213SOL    HW2 4098   0.890   2.235   2.451
 1214SOL     OW 4099   1.017   1.901   2.615
 1214SOL    HW1 4100   0.945   1.906   2.546
 1214SOL    HW2 4101   0.993   1.832   2.684
 1215SOL     OW 4102   1.429   3.035   2.729
 1215SOL    HW1 4103   1.374   2.951   2.722
 1215SOL    HW2 4104   1.455   3.064   2.637
 1216SOL     OW 4105   1.466   2.452   2.854
 1216SOL    HW1 4106   1.436   2.357   2.861
 1216SOL    HW2 4107   1.539   2.468   2.920
 1217SOL     OW 4108   1.857   2.695   2.239
 1217SOL    HW1 4109   1.899   2.631   2.303
 1217SOL    HW2 4110   1.819   2.644   2.161
 1218SOL     OW 4111   0.488   3.247   2.036
 1218SOL    HW1 4112   0.401   3.232   2.083
 1218SOL    HW2 4113   0.471   3.273   1.941
 1219SOL     OW 4114   1.664   3.142   2.519
 1219SOL    HW1 4115   1.763   3.150   2.533
 1219SOL    HW2 4116   1.619   3.226   2.550
 1220SOL     OW 4117   1.390   2.437   1.940
 1220SOL    HW1 4118   1.336   2.416   2.021
 1220SOL    HW2 4119   1.481   2.396   1.949
 1221SOL     OW 4120   0.527   2.118   2.190
 1221SOL    HW1 4121   0.554   2.059   2.115
 1221SOL    HW2 4122   0.527   2.213   2.159
 1222SOL     OW 4123   1.754   3.085   3.450
 1222SOL    HW1 4124   1.845   3.046   3.437
 1222SOL    HW2 4125   1.762   3.181   3.474
 1223SOL     OW 4126   1.064   3.209   3.202
 1223SOL    HW1 4127   0.984   3.186   3.257
 1223SOL    HW2 4128   1.147   3.183   3.251
 1224SOL     OW 4129   1.592   3.491   3.487
 1224SOL    HW1 4130   1.619   3.525   3.397
 1224SOL    HW2 4131   1.671   3.453   3.533
 1225SOL     OW 4132   1.111   3.057   2.962
 1225SOL    HW1 4133   1.071   3.101   3.043
 1225SOL    HW2 4134   1.070   3.094   2.879
 1226SOL     OW 4135   1.638   2.961   2.941
 1226SOL    HW1 4136   1.643   3.042   3.000
 1226SOL    HW2 4137   1.552   2.963   2.890
 1227SOL     OW 4138   0.915   1.951   3.264
 1227SOL    HW1 4139   0.940   1.931   3.169
 1227SOL    HW2 4140   0.987   2.007   3.306
 1228SOL     OW 4141   0.980   2.978   3.581
 1228SOL    HW1 4142   0.881   2.984   3.591
 1228SOL    HW2 4143   1.003   2.898   3.525
 1229SOL     OW 4144   0.705   2.912   2.230
 1229SOL    HW1 4145   0.691   2.919   2.329
 1229SOL    HW2 4146   0.789   2.861   2.212
 1230SOL     OW 4147   0.410   2.675   3.113
 1230SOL    HW1 4148   0.496   2.687   3.163
 1230SOL    HW2 4149   0.368   2.588   3.140
 1231SOL     OW 4150   1.274   2.248   3.124
 1231SOL    HW1 4151   1.295   2.322   3.188
 1231SOL    HW2 4152   1.185   2.265   3.081
 1232SOL     OW 4153   0.064   3.426   3.193
 1232SOL    HW1 4154   0.018   3.508   3.159
 1232SOL    HW2 4155   0.162   3.445   3.202
 1233SOL     OW 4156   0.367   2.962   2.363
 1233SOL    HW1 4157   0.360   3.045   2.307
 1233SOL    HW2 4158   0.371   2.882   2.303
 1234SOL     OW 4159   0.566   2.399   2.727
 1234SOL    HW1 4160   0.578   2.465   2.653
 1234SOL    HW2 4161   0.612   2.433   2.810
 1235SOL     OW 4162   1.252   3.210   2.250
 1235SOL    HW1 4163   1.302   3.287   2.290
 1235SOL    HW2 4164   1.157   3.212   2.282
 1236SOL     OW 4165   1.272   3.307   3.004
 1236SOL    HW1 4166   1.319   3.320   3.091
 1236SOL    HW2 4167   1.206   3.233   3.013
 1237SOL     OW 4168   1.582   2.501   2.334
 1237SOL    HW1 4169   1.551   2.562   2.407
 1237SOL    HW2 4170   1.632   2.553   2.265
 1238SOL     OW 4171   0.354   3.372   3.191
 1238SOL    HW1 4172   0.333   3.328   3.104
 1238SOL    HW2 4173   0.451   3.398   3.194
 1239SOL     OW 4174   0.402   2.613   3.460
 1239SOL    HW1 4175   0.470   2.668   3.413
 1239SOL    HW2 4176   0.442   2.525   3.487
 1240SOL     OW 4177   1.587   2.641   3.532
 1240SOL    HW1 4178   1.495   2.679   3.527
 1240SOL    HW2 4179   1.647   2.688   3.467
 1241SOL     OW 4180   1.013   1.967   3.632
 1241SOL    HW1 4181   1.019   2.052   3.580
 1241SOL    HW2 4182   1.045   1.891   3.575
 1242SOL     OW 4183   0.504   1.912   3.602
 1242SOL    HW1 4184   0.462   1.855   3.532
 1242SOL    HW2 4185   0.438   1.981   3.634
 1243SOL     OW 4186   0.573   2.732   2.891
 1243SOL    HW1 4187   0.617   2.821   2.882
 1243SOL    HW2 4188   0.510   2.732   2.968
 1244SOL     OW 4189   1.360   2.724   2.907
 1244SOL    HW1 4190   1.285   2.724   2.841
 1244SOL    HW2 4191   1.397   2.632   2.916
 1245SOL     OW 4192   1.209   2.387   2.137
 1245SOL    HW1 4193   1.222   2.303   2.191
 1245SOL    HW2 4194   1.180   2.461   2.197
 1246SOL     OW 4195   0.307   2.075   3.093
 1246SOL    HW1 4196   0.284   2.112   3.183
 1246SOL    HW2 4197   0.277   1.980   3.087
 1247SOL     OW 4198   0.037   3.172   3.144
 1247SOL    HW1 4199   0.090   3.123   3.212
 1247SOL    HW2 4200   0.059   3.270   3.149
 1248SOL     OW 4201   0.732   2.496   2.926
 1248SOL    HW1 4202   0.791   2.470   2.850
 1248SOL    HW2 4203   0.704   2.592   2.915
 1249SOL     OW 4204   1.728   2.797   3.716
 1249SOL    HW1 4205   1.682   2.790   3.627
 1249SOL    HW2 4206   1.666   2.841   3.782
 1250SOL     OW 4207   0.307   1.925   2.480
 1250SOL    HW1 4208   0.296   2.019   2.513
 1250SOL    HW2 4209   0.302   1.862   2.557
 1251SOL     OW 4210   1.622   2.229   2.236
 1251SOL    HW1 4211   1.624   2.153   2.300
 1251SOL    HW2 4212   1.574   2.306   2.276
 1252SOL     OW 4213   1.023   2.628   2.828
 1252SOL    HW1 4214   1.038   2.649   2.924
 1252SOL    HW2 4215   0.993   2.533   2.819
 1253SOL     OW 4216   0.980   3.435   3.562
 1253SOL    HW1 4217   0.960   3.479   3.474
 1253SOL    HW2 4218   1.019   3.344   3.546
 1254SOL     OW 4219   1.859   3.380   3.467
 1254SOL    HW1 4220   1.873   3.407   3.372
 1254SOL    HW2 4221   1.942   3.402   3.520
 1255SOL     OW 4222   0.350   2.760   3.666
 1255SOL    HW1 4223   0.426   2.804   3.714
 1255SOL    HW2 4224   0.385   2.713   3.584
 1256SOL     OW 4225   1.540   2.136   1.987
 1256SOL    HW1 4226   1.479   2.061   2.010
 1256SOL    HW2 4227   1.562   2.188   2.070
 1257SOL     OW 4228   1.303   2.700   1.904
 1257SOL    HW1 4229   1.337   2.607   1.919
 1257SOL    HW2 4230   1.321   2.727   1.809
 1258SOL     OW 4231   1.068   3.195   2.711
 1258SOL    HW1 4232   1.075   3.111   2.656
 1258SOL    HW2 4233   1.130   3.264   2.675
 1259SOL     OW 4234   0.319   2.672   2.811
 1259SOL    HW1 4235   0.412   2.708   2.816
 1259SOL    HW2 4236   0.313   2.587   2.863
 1260SOL     OW 4237   0.339   2.371   2.868
 1260SOL    HW1 4238   0.287   2.288   2.851
 1260SOL    HW2 4239   0.416   2.376   2.804
 1261SOL     OW 4240   1.138   2.242   3.540
 1261SOL    HW1 4241   1.093   2.305   3.604
 1261SOL    HW2 4242   1.231   2.273   3.523
 1262SOL     OW 4243   1.160   2.069   3.339
 1262SOL    HW1 4244   1.160   2.133   3.416
 1262SOL    HW2 4245   1.188   2.117   3.256
 1263SOL     OW 4246   0.008   3.188   2.062
 1263SOL    HW1 4247  -0.085   3.209   2.031
 1263SOL    HW2 4248   0.018   3.089   2.075
 1264SOL     OW 4249   0.088   3.663   2.789
 1264SOL    HW1 4250   0.046   3.577   2.762
 1264SOL    HW2 4251   0.182   3.666   2.755
 1265SOL     OW 4252   0.504   3.430   2.772
 1265SOL    HW1 4253   0.570   3.504   2.781
 1265SOL    HW2 4254   0.548   3.351   2.730
 1266SOL     OW 4255   1.002   2.658   3.100
 1266SOL    HW1 4256   1.043   2.626   3.186
 1266SOL    HW2 4257   0.906   2.631   3.097
 1267SOL     OW 4258   0.040   2.406   2.976
 1267SOL    HW1 4259   0.125   2.373   2.935
 1267SOL    HW2 4260   0.053   2.421   3.074
 1268SOL     OW 4261   0.189   2.382   3.584
 1268SOL    HW1 4262   0.248   2.342   3.514
 1268SOL    HW2 4263   0.131   2.453   3.543
 1269SOL     OW 4264   1.369   2.812   3.522
 1269SOL    HW1 4265   1.408   2.901   3.542
 1269SOL    HW2 4266   1.379   2.792   3.425
 1270SOL     OW 4267   0.815   2.434   2.187
 1270SOL    HW1 4268   0.822   2.345   2.141
 1270SOL    HW2 4269   0.721   2.468   2.179
 1271SOL     OW 4270   1.657   2.466   3.068
 1271SOL    HW1 4271   1.619   2.397   3.130
 1271SOL    HW2 4272   1.739   2.430   3.024
 1272SOL     OW 4273   0.252   3.426   3.606
 1272SOL    HW1 4274   0.222   3.483   3.682
 1272SOL    HW2 4275   0.245   3.329   3.632
 1273SOL     OW 4276   0.671   2.326   3.131
 1273SOL    HW1 4277   0.637   2.237   3.101
 1273SOL    HW2 4278   0.697   2.380   3.051
 1274SOL     OW 4279   0.930   3.540   3.327
 1274SOL    HW1 4280   0.906   3.522   3.232
 1274SOL    HW2 4281   0.960   3.634   3.337
 1275SOL     OW 4282   0.473   2.362   2.053
 1275SOL    HW1 4283   0.534   2.442   2.057
 1275SOL    HW2 4284   0.378   2.393   2.060
 1276SOL     OW 4285   0.159   2.999   3.328
 1276SOL    HW1 4286   0.181   2.938   3.404
 1276SOL    HW2 4287   0.169   2.950   3.242
 1277SOL     OW 4288   1.347   2.921   3.096
 1277SOL    HW1 4289   1.371   2.858   3.022
 1277SOL    HW2 4290   1.257   2.961   3.078
 1278SOL     OW 4291   1.302   2.717   2.171
 1278SOL    HW1 4292   1.216   2.686   2.213
 1278SOL    HW2 4293   1.298   2.703   2.072
 1279SOL     OW 4294   1.759   3.609   3.016
 1279SOL    HW1 4295   1.820   3.639   2.943
 1279SOL    HW2 4296   1.721   3.520   2.994
 1280SOL     OW 4297   1.252   3.593   2.990
 1280SOL    HW1 4298   1.336   3.598   2.936
 1280SOL    HW2 4299   1.229   3.497   3.008
 1281SOL     OW 4300   0.083   3.120   2.884
 1281SOL    HW1 4301   0.078   3.119   2.984
 1281SOL    HW2 4302   0.000   3.079   2.846
 1282SOL     OW 4303   0.688   3.524   3.578
 1282SOL    HW1 4304   0.632   3.605   3.587
 1282SOL    HW2 4305   0.740   3.528   3.492
 1283SOL     OW 4306   1.726   1.997   2.385
 1283SOL    HW1 4307   1.799   1.980   2.318
 1283SOL    HW2 4308   1.695   1.910   2.423
 1284SOL     OW 4309   1.388   3.435   2.339
 1284SOL    HW1 4310   1.455   3.447   2.265
 1284SOL    HW2 4311   1.348   3.524   2.362
 1285SOL     OW 4312   0.130   3.656   3.713
 1285SOL    HW1 4313   0.089   3.582   3.766
 1285SOL    HW2 4314   0.194   3.707   3.771
 1286SOL     OW 4315   1.280   2.789   2.534
 1286SOL    HW1 4316   1.340   2.708   2.536
 1286SOL    HW2 4317   1.320   2.858   2.474
 1287SOL     OW 4318   0.830   3.135   3.284
 1287SOL    HW1 4319   0.825   3.168   3.379
 1287SOL    HW2 4320   0.744   3.154   3.238
 1288SOL     OW 4321   0.672   3.478   2.016
 1288SOL    HW1 4322   0.681   3.488   1.917
 1288SOL    HW2 4323   0.632   3.389   2.037
 1289SOL     OW 4324   1.650   3.582   3.256
 1289SOL    HW1 4325   1.703   3.592   3.172
 1289SOL    HW2 4326   1.623   3.672   3.290
 1290SOL     OW 4327   1.841   2.037   2.825
 1290SOL    HW1 4328   1.880   1.952   2.789
 1290SOL    HW2 4329   1.743   2.039   2.806
 1291SOL     OW 4330   0.263   2.188   2.582
 1291SOL    HW1 4331   0.184   2.239   2.548
 1291SOL    HW2 4332   0.254   2.173   2.680
 1292SOL     OW 4333   1.194   3.474   1.893
 1292SOL    HW1 4334   1.200   3.381   1.930
 1292SOL    HW2 4335   1.135   3.474   1.813
 1293SOL     OW 4336   0.822   2.864   3.234
 1293SOL    HW1 4337   0.862   2.863   3.142
 1293SOL    HW2 4338   0.832   2.956   3.274
 1294SOL     OW 4339   0.916   2.772   2.153
 1294SOL    HW1 4340   0.979   2.810   2.085
 1294SOL    HW2 4341   0.956   2.689   2.192
 1295SOL     OW 4342   1.504   3.469   1.906
 1295SOL    HW1 4343   1.412   3.506   1.913
 1295SOL    HW2 4344   1.542   3.489   1.816
 1296SOL     OW 4345   0.372   3.150   3.352
 1296SOL    HW1 4346   0.359   3.243   3.318
 1296SOL    HW2 4347   0.288   3.098   3.339
 1297SOL     OW 4348   1.614   3.154   3.151
 1297SOL    HW1 4349   1.674   3.157   3.231
 1297SOL    HW2 4350   1.539   3.218   3.164
 1298SOL     OW 4351   1.039   2.960   2.558
 1298SOL    HW1 4352   0.969   2.913   2.612
 1298SOL    HW2 4353   1.098   2.892   2.515
 1299SOL     OW 4354   1.014   2.098   2.833
 1299SOL    HW1 4355   1.006   2.062   2.740
 1299SOL    HW2 4356   1.012   2.022   2.898
 1300SOL     OW 4357   0.590   3.349   2.353
 1300SOL    HW1 4358   0.632   3.291   2.283
 1300SOL    HW2 4359   0.546   3.428   2.309
 1301SOL     OW 4360   1.709   2.247   3.243
 1301SOL    HW1 4361   1.782   2.316   3.247
 1301SOL    HW2 4362   1.737   2.172   3.184
 1302SOL     OW 4363   0.255   3.210   2.152
 1302SOL    HW1 4364   0.159   3.211   2.125
 1302SOL    HW2 4365   0.267   3.263   2.236
 1303SOL     OW 4366   0.105   2.875   3.588
 1303SOL    HW1 4367   0.028   2.842   3.642
 1303SOL    HW2 4368   0.190   2.845   3.630
 1304SOL     OW 4369   0.672   2.065   3.351
 1304SOL    HW1 4370   0.762   2.049   3.311
 1304SOL    HW2 4371   0.680   2.070   3.450
 1305SOL     OW 4372   0.075   2.207   1.895
 1305SOL    HW1 4373  -0.017   2.179   1.866
 1305SOL    HW2 4374   0.106   2.284   1.839
 1306SOL     OW 4375   1.440   2.718   3.260
 1306SOL    HW1 4376   1.383   2.770   3.197
 1306SOL    HW2 4377   1.536   2.730   3.236
 1307SOL     OW 4378   0.072   2.028   2.180
 1307SOL    HW1 4379   0.055   2.111   2.126
 1307SOL    HW2 4380   0.162   1.991   2.158
 1308SOL     OW 4381   1.183   3.197   1.981
 1308SOL    HW1 4382   1.084   3.186   1.983
 1308SOL    HW2 4383   1.217   3.212   2.074
 1309SOL     OW 4384   0.613   2.704   3.293
 1309SOL    HW1 4385   0.669   2.785   3.276
 1309SOL    HW2 4386   0.672   2.624   3.296
 1310SOL     OW 4387   1.493   3.629   2.821
 1310SOL    HW1 4388   1.526   3.693   2.752
 1310SOL    HW2 4389   1.559   3.623   2.896
 1311SOL     OW 4390   0.716   2.427   3.570
 1311SOL    HW1 4391   0.735   2.492   3.644
 1311SOL    HW2 4392   0.776   2.347   3.579
 1312SOL     OW 4393   1.450   3.082   3.495
 1312SOL    HW1 4394   1.441   3.072   3.594
 1312SOL    HW2 4395   1.546   3.075   3.469
 1313SOL     OW 4396   0.390   3.603   3.422
 1313SOL    HW1 4397   0.299   3.644   3.420
 1313SOL    HW2 4398   0.383   3.509   3.454
 1314SOL     OW 4399   1.674   2.745   3.116
 1314SOL    HW1 4400   1.647   2.656   3.079
 1314SOL    HW2 4401   1.675   2.813   3.043
 1315SOL     OW 4402   1.225   2.187   2.311
 1315SOL    HW1 4403   1.290   2.113   2.300
 1315SOL    HW2 4404   1.245   2.237   2.395
 1316SOL     OW 4405   0.594   2.607   2.514
 1316SOL    HW1 4406   0.644   2.692   2.495
 1316SOL    HW2 4407   0.506   2.609   2.466
 1317SOL     OW 4408   1.777   2.204   3.504
 1317SOL    HW1 4409   1.760   2.235   3.410
 1317SOL    HW2 4410   1.693   2.167   3.542
 1318SOL     OW 4411   1.730   2.796   3.379
 1318SOL    HW1 4412   1.768   2.887   3.394
 1318SOL    HW2 4413   1.722   2.779   3.280
 1319SOL     OW 4414   0.859   3.236   1.878
 1319SOL    HW1 4415   0.813   3.251   1.966
 1319SOL    HW2 4416   0.903   3.321   1.848
 1320SOL     OW 4417   0.661   3.652   2.815
 1320SOL    HW1 4418   0.615   3.740   2.802
 1320SOL    HW2 4419   0.760   3.664   2.808
 1321SOL     OW 4420   0.859   2.818   2.723
 1321SOL    HW1 4421   0.913   2.749   2.771
 1321SOL    HW2 4422   0.827   2.887   2.789
 1322SOL     OW 4423   1.083   2.846   1.949
 1322SOL    HW1 4424   1.060   2.899   1.867
 1322SOL    HW2 4425   1.164   2.790   1.930
 1323SOL     OW 4426   1.861   3.431   2.713
 1323SOL    HW1 4427   1.790   3.419   2.643
 1323SOL    HW2 4428   1.862   3.352   2.773
 1324SOL     OW 4429   0.221   3.176   3.706
 1324SOL    HW1 4430   0.156   3.103   3.685
 1324SOL    HW2 4431   0.225   3.190   3.804
 1325SOL     OW 4432   0.079   3.102   2.515
 1325SOL    HW1 4433   0.078   3.055   2.603
 1325SOL    HW2 4434   0.161   3.074   2.464
 1326SOL     OW 4435   0.672   3.253   3.486
 1326SOL    HW1 4436   0.594   3.203   3.524
 1326SOL    HW2 4437   0.669   3.348   3.517
 1327SOL     OW 4438   1.824   2.054   3.089
 1327SOL    HW1 4439   1.820   1.964   3.133
 1327SOL    HW2 4440   1.827   2.043   2.990
 1328SOL     OW 4441   0.428   2.286   2.382
 1328SOL    HW1 4442   0.458   2.214   2.320
 1328SOL    HW2 4443   0.389   2.246   2.465
 1329SOL     OW 4444   1.705   3.349   2.966
 1329SOL    HW1 4445   1.612   3.324   2.939
 1329SOL    HW2 4446   1.731   3.299   3.048
 1330SOL     OW 4447   0.317   2.409   3.142
 1330SOL    HW1 4448   0.355   2.350   3.214
 1330SOL    HW2 4449   0.357   2.383   3.054
 1331SOL     OW 4450   0.812   3.448   2.549
 1331SOL    HW1 4451   0.844   3.458   2.455
 1331SOL    HW2 4452   0.733   3.386   2.551
 1332SOL     OW 4453   1.424   2.076   2.974
 1332SOL    HW1 4454   1.476   2.011   3.029
 1332SOL    HW2 4455   1.375   2.139   3.035
 1333SOL     OW 4456   1.001   1.896   3.016
 1333SOL    HW1 4457   0.938   1.824   2.985
 1333SOL    HW2 4458   1.094   1.860   3.016
 1334SOL     OW 4459   0.770   3.192   2.163
 1334SOL    HW1 4460   0.724   3.105   2.180
 1334SOL    HW2 4461   0.861   3.189   2.204
 1335SOL     OW 4462   0.618   3.429   3.146
 1335SOL    HW1 4463   0.613   3.511   3.203
 1335SOL    HW2 4464   0.707   3.426   3.101
 1336SOL     OW 4465   1.352   1.914   2.030
 1336SOL    HW1 4466   1.387   1.873   1.946
 1336SOL    HW2 4467   1.262   1.876   2.050
 1337SOL     OW 4468   1.300   2.315   2.553
 1337SOL    HW1 4469   1.241   2.395   2.557
 1337SOL    HW2 4470   1.315   2.280   2.646
 1338SOL     OW 4471   1.593   2.083   2.744
 1338SOL    HW1 4472   1.509   2.082   2.798
 1338SOL    HW2 4473   1.595   2.166   2.688
 1339SOL     OW 4474   0.039   2.939   2.162
 1339SOL    HW1 4475   0.138   2.928   2.153
 1339SOL    HW2 4476  -0.001   2.853   2.194
 1340SOL     OW 4477   0.875   3.508   2.199
 1340SOL    HW1 4478   0.798   3.473   2.145
 1340SOL    HW2 4479   0.843   3.579   2.261
 1341SOL     OW 4480   0.230   2.490   3.837
 1341SOL    HW1 4481   0.137   2.488   3.874
 1341SOL    HW2 4482   0.231   2.451   3.745
 1342SOL     OW 4483   0.225   2.137   4.720
 1342SOL    HW1 4484   0.260   2.120   4.812
 1342SOL    HW2 4485   0.137   2.092   4.708
 1343SOL     OW 4486   0.019   2.230   4.371
 1343SOL    HW1 4487  -0.063   2.273   4.410
 1343SOL    HW2 4488  -0.009   2.157   4.308
 1344SOL     OW 4489   0.569   3.137   4.889
 1344SOL    HW1 4490   0.476   3.130   4.852
 1344SOL    HW2 4491   0.580   3.226   4.933
 1345SOL     OW 4492   1.555   3.373   4.427
 1345SOL    HW1 4493   1.498   3.357   4.508
 1345SOL    HW2 4494   1.496   3.383   4.347
 1346SOL     OW 4495   1.135   2.565   4.441
 1346SOL    HW1 4496   1.192   2.643   4.416
 1346SOL    HW2 4497   1.075   2.591   4.517
 1347SOL     OW 4498   1.755   2.469   3.955
 1347SOL    HW1 4499   1.743   2.456   3.856
 1347SOL    HW2 4500   1.725   2.388   4.004
 1348SOL     OW 4501   0.768   3.006   4.747
 1348SOL    HW1 4502   0.690   3.023   4.807
 1348SOL    HW2 4503   0.802   3.093   4.711
 1349SOL     OW 4504   0.850   2.660   5.547
 1349SOL    HW1 4505   0.846   2.736   5.612
 1349SOL    HW2 4506   0.872   2.696   5.456
 1350SOL     OW 4507   0.685   2.874   4.389
 1350SOL    HW1 4508   0.754   2.858   4.459
 1350SOL    HW2 4509   0.612   2.931   4.427
 1351SOL     OW 4510   0.686   3.023   5.527
 1351SOL    HW1 4511   0.746   3.102   5.541
 1351SOL    HW2 4512   0.600   3.054   5.486
 1352SOL     OW 4513   0.335   3.297   4.785
 1352SOL    HW1 4514   0.257   3.266   4.732
 1352SOL    HW2 4515   0.393   3.355   4.728
 1353SOL     OW 4516   1.460   3.367   5.063
 1353SOL    HW1 4517   1.484   3.461   5.089
 1353SOL    HW2 4518   1.444   3.313   5.145
 1354SOL     OW 4519   0.438   2.254   5.223
 1354SOL    HW1 4520   0.520   2.198   5.232
 1354SOL    HW2 4521   0.357   2.196   5.227
 1355SOL     OW 4522   1.603   2.309   4.461
 1355SOL    HW1 4523   1.529   2.355   4.411
 1355SOL    HW2 4524   1.654   2.377   4.514
 1356SOL     OW 4525   0.231   3.575   4.207
 1356SOL    HW1 4526   0.265   3.652   4.261
 1356SOL    HW2 4527   0.275   3.575   4.117
 1357SOL     OW 4528   1.127   3.203   5.414
 1357SOL    HW1 4529   1.174   3.203   5.502
 1357SOL    HW2 4530   1.079   3.116   5.403
 1358SOL     OW 4531   0.230   3.296   4.262
 1358SOL    HW1 4532   0.204   3.392   4.262
 1358SOL    HW2 4533   0.159   3.242   4.307
 1359SOL     OW 4534   0.240   2.953   4.610
 1359SOL    HW1 4535   0.254   2.869   4.662
 1359SOL    HW2 4536   0.185   3.017   4.665
 1360SOL     OW 4537   0.620   3.648   5.163
 1360SOL    HW1 4538   0.528   3.631   5.198
 1360SOL    HW2 4539   0.648   3.740   5.189
 1361SOL     OW 4540   0.606   2.826   3.847
 1361SOL    HW1 4541   0.613   2.910   3.793
 1361SOL    HW2 4542   0.652   2.839   3.935
 1362SOL     OW 4543   1.594   1.976   5.204
 1362SOL    HW1 4544   1.576   2.043   5.132
 1362SOL    HW2 4545   1.591   2.022   5.293
 1363SOL     OW 4546   0.122   2.505   4.287
 1363SOL    HW1 4547   0.077   2.417   4.304
 1363SOL    HW2 4548   0.121   2.559   4.371
 1364SOL     OW 4549   1.842   3.629   4.083
 1364SOL    HW1 4550   1.896   3.600   4.163
 1364SOL    HW2 4551   1.872   3.719   4.054
 1365SOL     OW 4552   0.027   3.458   3.841
 1365SOL    HW1 4553   0.008   3.362   3.862
 1365SOL    HW2 4554  -0.006   3.516   3.916
 1366SOL     OW 4555   1.689   2.784   4.336
 1366SOL    HW1 4556   1.784   2.755   4.344
 1366SOL    HW2 4557   1.681   2.849   4.261
 1367SOL     OW 4558   1.641   2.970   4.156
 1367SOL    HW1 4559   1.727   2.972   4.104
 1367SOL    HW2 4560   1.655   3.017   4.244
 1368SOL     OW 4561   0.113   2.599   5.321
 1368SOL    HW1 4562   0.201   2.586   5.366
 1368SOL    HW2 4563   0.100   2.696   5.299
 1369SOL     OW 4564   0.613   3.227   4.450
 1369SOL    HW1 4565   0.564   3.140   4.459
 1369SOL    HW2 4566   0.590   3.270   4.363
 1370SOL     OW 4567   1.293   3.090   5.147
 1370SOL    HW1 4568   1.330   3.017   5.089
 1370SOL    HW2 4569   1.345   3.095   5.232
 1371SOL     OW 4570   0.809   1.866   4.226
 1371SOL    HW1 4571   0.849   1.957   4.217
 1371SOL    HW2 4572   0.709   1.874   4.232
 1372SOL     OW 4573   0.197   2.838   4.988
 1372SOL    HW1 4574   0.286   2.793   4.974
 1372SOL    HW2 4575   0.124   2.773   4.969
 1373SOL     OW 4576   1.525   2.861   3.914
 1373SOL    HW1 4577   1.462   2.785   3.927
 1373SOL    HW2 4578   1.573   2.879   4.000
 1374SOL     OW 4579   1.187   3.654   5.340
 1374SOL    HW1 4580   1.211   3.714   5.264
 1374SOL    HW2 4581   1.194   3.559   5.310
 1375SOL     OW 4582   0.317   2.113   5.525
 1375SOL    HW1 4583   0.388   2.184   5.531
 1375SOL    HW2 4584   0.229   2.152   5.553
 1376SOL     OW 4585   1.466   3.279   4.677
 1376SOL    HW1 4586   1.407   3.285   4.757
 1376SOL    HW2 4587   1.451   3.191   4.631
 1377SOL     OW 4588   1.667   3.576   4.296
 1377SOL    HW1 4589   1.626   3.553   4.208
 1377SOL    HW2 4590   1.649   3.502   4.361
 1378SOL     OW 4591   0.598   2.591   3.994
 1378SOL    HW1 4592   0.622   2.660   3.926
 1378SOL    HW2 4593   0.520   2.624   4.048
 1379SOL     OW 4594   1.281   2.207   4.668
 1379SOL    HW1 4595   1.195   2.157   4.655
 1379SOL    HW2 4596   1.343   2.153   4.724
 1380SOL     OW 4597   1.576   3.524   4.031
 1380SOL    HW1 4598   1.665   3.570   4.034
 1380SOL    HW2 4599   1.555   3.500   3.936
 1381SOL     OW 4600   0.807   2.467   5.189
 1381SOL    HW1 4601   0.760   2.464   5.278
 1381SOL    HW2 4602   0.756   2.412   5.123
 1382SOL     OW 4603   1.394   2.331   5.398
 1382SOL    HW1 4604   1.374   2.374   5.486
 1382SOL    HW2 4605   1.472   2.269   5.407
 1383SOL     OW 4606   0.973   2.752   5.296
 1383SOL    HW1 4607   1.019   2.668   5.267
 1383SOL    HW2 4608   0.917   2.786   5.221
 1384SOL     OW 4609   0.991   2.272   4.966
 1384SOL    HW1 4610   0.914   2.306   5.020
 1384SOL    HW2 4611   0.957   2.221   4.887
 1385SOL     OW 4612   1.041   2.563   4.153
 1385SOL    HW1 4613   1.067   2.559   4.249
 1385SOL    HW2 4614   0.956   2.512   4.139
 1386SOL     OW 4615   0.076   2.673   4.513
 1386SOL    HW1 4616   0.175   2.661   4.522
 1386SOL    HW2 4617   0.052   2.768   4.534
 1387SOL     OW 4618   0.130   3.683   5.295
 1387SOL    HW1 4619   0.120   3.668   5.394
 1387SOL    HW2 4620   0.044   3.719   5.259
 1388SOL     OW 4621   0.865   2.210   3.919
 1388SOL    HW1 4622   0.924   2.273   3.870
 1388SOL    HW2 4623   0.884   2.116   3.890
 1389SOL     OW 4624   1.719   2.447   5.555
 1389SOL    HW1 4625   1.693   2.536   5.519
 1389SOL    HW2 4626   1.717   2.379   5.482
 1390SOL     OW 4627   1.362   3.006   4.269
 1390SOL    HW1 4628   1.445   2.977   4.221
 1390SOL    HW2 4629   1.313   3.073   4.213
 1391SOL     OW 4630   0.550   2.058   4.609
 1391SOL    HW1 4631   0.545   2.053   4.709
 1391SOL    HW2 4632   0.552   2.154   4.580
 1392SOL     OW 4633   1.008   3.318   4.201
 1392SOL    HW1 4634   0.962   3.390   4.149
 1392SOL    HW2 4635   1.004   3.338   4.299
 1393SOL     OW 4636   0.351   3.663   4.577
 1393SOL    HW1 4637   0.401   3.577   4.583
 1393SOL    HW2 4638   0.416   3.740   4.574
 1394SOL     OW 4639   1.795   2.928   4.597
 1394SOL    HW1 4640   1.733   2.913   4.521
 1394SOL    HW2 4641   1.743   2.939   4.682
 1395SOL     OW 4642   1.227   3.412   5.230
 1395SOL    HW1 4643   1.233   3.335   5.294
 1395SOL    HW2 4644   1.175   3.386   5.150
 1396SOL     OW 4645   0.321   2.805   3.966
 1396SOL    HW1 4646   0.403   2.844   3.924
 1396SOL    HW2 4647   0.294   2.723   3.917
 1397SOL     OW 4648   1.458   2.597   4.452
 1397SOL    HW1 4649   1.453   2.532   4.527
 1397SOL    HW2 4650   1.538   2.656   4.465
 1398SOL     OW 4651   0.461   3.128   5.451
 1398SOL    HW1 4652   0.411   3.129   5.365
 1398SOL    HW2 4653   0.398   3.110   5.527
 1399SOL     OW 4654   1.111   3.638   3.961
 1399SOL    HW1 4655   1.051   3.576   4.011
 1399SOL    HW2 4656   1.142   3.594   3.876
 1400SOL     OW 4657   0.202   2.147   5.222
 1400SOL    HW1 4658   0.122   2.207   5.209
 1400SOL    HW2 4659   0.192   2.098   5.308
 1401SOL     OW 4660   1.632   3.239   3.805
 1401SOL    HW1 4661   1.600   3.333   3.795
 1401SOL    HW2 4662   1.556   3.176   3.793
 1402SOL     OW 4663   0.464   3.605   4.047
 1402SOL    HW1 4664   0.497   3.644   4.133
 1402SOL    HW2 4665   0.540   3.598   3.982
 1403SOL     OW 4666   1.400   1.969   4.150
 1403SOL    HW1 4667   1.376   1.932   4.060
 1403SOL    HW2 4668   1.499   1.985   4.154
 1404SOL     OW 4669   0.249   3.647   4.965
 1404SOL    HW1 4670   0.306   3.582   5.015
 1404SOL    HW2 4671   0.233   3.614   4.872
 1405SOL     OW 4672   0.940   3.560   4.628
 1405SOL    HW1 4673   1.020   3.503   4.649
 1405SOL    HW2 4674   0.891   3.520   4.551
 1406SOL     OW 4675   0.382   2.562   4.204
 1406SOL    HW1 4676   0.427   2.472   4.201
 1406SOL    HW2 4677   0.288   2.551   4.237
 1407SOL     OW 4678   1.547   2.084   5.453
 1407SOL    HW1 4679   1.542   2.121   5.545
 1407SOL    HW2 4680   1.475   2.015   5.441
 1408SOL     OW 4681   0.614   1.984   3.841
 1408SOL    HW1 4682   0.712   1.962   3.848
 1408SOL    HW2 4683   0.583   1.967   3.748
 1409SOL     OW 4684   0.781   2.126   5.473
 1409SOL    HW1 4685   0.848   2.065   5.516
 1409SOL    HW2 4686   0.708   2.145   5.538
 1410SOL     OW 4687   0.888   3.376   4.919
 1410SOL    HW1 4688   0.865   3.351   4.825
 1410SOL    HW2 4689   0.949   3.307   4.958
 1411SOL     OW 4690   1.351   2.452   5.157
 1411SOL    HW1 4691   1.379   2.409   5.242
 1411SOL    HW2 4692   1.376   2.548   5.158
 1412SOL     OW 4693   0.803   3.264   4.648
 1412SOL    HW1 4694   0.893   3.278   4.606
 1412SOL    HW2 4695   0.732   3.266   4.577
 1413SOL     OW 4696   0.922   2.365   4.623
 1413SOL    HW1 4697   0.897   2.356   4.527
 1413SOL    HW2 4698   0.970   2.283   4.654
 1414SOL     OW 4699   0.539   1.926   4.236
 1414SOL    HW1 4700   0.458   1.927   4.294
 1414SOL    HW2 4701   0.542   2.009   4.181
 1415SOL     OW 4702   1.434   3.050   3.765
 1415SOL    HW1 4703   1.466   2.974   3.822
 1415SOL    HW2 4704   1.342   3.077   3.795
 1416SOL     OW 4705   0.297   1.897   3.895
 1416SOL    HW1 4706   0.346   1.981   3.874
 1416SOL    HW2 4707   0.359   1.832   3.940
 1417SOL     OW 4708   0.935   2.098   4.204
 1417SOL    HW1 4709   0.887   2.139   4.126
 1417SOL    HW2 4710   1.034   2.096   4.185
 1418SOL     OW 4711   1.076   2.545   5.188
 1418SOL    HW1 4712   0.996   2.484   5.191
 1418SOL    HW2 4713   1.157   2.492   5.164
 1419SOL     OW 4714   1.227   3.432   4.517
 1419SOL    HW1 4715   1.248   3.506   4.452
 1419SOL    HW2 4716   1.295   3.432   4.590
 1420SOL     OW 4717   0.459   3.014   4.465
 1420SOL    HW1 4718   0.388   2.987   4.530
 1420SOL    HW2 4719   0.433   2.986   4.372
 1421SOL     OW 4720   1.271   3.659   4.315
 1421SOL    HW1 4721   1.315   3.723   4.251
 1421SOL    HW2 4722   1.221   3.711   4.385
 1422SOL     OW 4723   1.032   2.411   3.740
 1422SOL    HW1 4724   0.991   2.493   3.701
 1422SOL    HW2 4725   1.096   2.437   3.813
 1423SOL     OW 4726   0.078   2.418   5.110
 1423SOL    HW1 4727   0.170   2.417   5.069
 1423SOL    HW2 4728   0.072   2.492   5.177
 1424SOL     OW 4729   0.561   2.084   4.871
 1424SOL    HW1 4730   0.599   2.000   4.908
 1424SOL    HW2 4731   0.473   2.103   4.915
 1425SOL     OW 4732   0.866   2.316   4.366
 1425SOL    HW1 4733   0.834   2.388   4.304
 1425SOL    HW2 4734   0.890   2.235   4.313
 1426SOL     OW 4735   1.017   1.901   4.477
 1426SOL    HW1 4736   0.945   1.906   4.408
 1426SOL    HW2 4737   0.993   1.832   4.546
 1427SOL     OW 4738   1.429   3.035   4.591
 1427SOL    HW1 4739   1.374   2.951   4.584
 1427SOL    HW2 4740   1.455   3.064   4.499
 1428SOL     OW 4741   1.466   2.452   4.716
 1428SOL    HW1 4742   1.436   2.357   4.723
 1428SOL    HW2 4743   1.539   2.468   4.782
 1429SOL     OW 4744   1.857   2.695   4.101
 1429SOL    HW1 4745   1.899   2.631   4.165
 1429SOL    HW2 4746   1.819   2.644   4.023
 1430SOL     OW 4747   0.488   3.247   3.898
 1430SOL    HW1 4748   0.401   3.232   3.945
 1430SOL    HW2 4749   0.471   3.273   3.803
 1431SOL     OW 4750   1.664   3.142   4.381
 1431SOL    HW1 4751   1.763   3.150   4.395
 1431SOL    HW2 4752   1.619   3.226   4.412
 1432SOL     OW 4753   1.390   2.437   3.802
 1432SOL    HW1 4754   1.336   2.416   3.883
 1432SOL    HW2 4755   1.481   2.396   3.811
 1433SOL     OW 4756   0.527   2.118   4.052
 1433SOL    HW1 4757   0.554   2.059   3.977
 1433SOL    HW2 4758   0.527   2.213   4.021
 1434SOL     OW 4759   1.754   3.085   5.312
 1434SOL    HW1 4760   1.845   3.046   5.299
 1434SOL    HW2 4761   1.762   3.181   5.336
 1435SOL     OW 4762   1.064   3.209   5.064
 1435SOL    HW1 4763   0.984   3.186   5.119
 1435SOL    HW2 4764   1.147   3.183   5.113
 1436SOL     OW 4765   1.592   3.491   5.349
 1436SOL    HW1 4766   1.619   3.525   5.259
 1436SOL    HW2 4767   1.671   3.453   5.395
 1437SOL     OW 4768   1.111   3.057   4.824
 1437SOL    HW1 4769   1.071   3.101   4.905
 1437SOL    HW2 4770   1.070   3.094   4.741
 1438SOL     OW 4771   1.638   2.961   4.803
 1438SOL    HW1 4772   1.643   3.042   4.862
 1438SOL    HW2 4773   1.552   2.963   4.752
 1439SOL     OW 4774   0.915   1.951   5.126
 1439SOL    HW1 4775   0.940   1.931   5.031
 1439SOL    HW2 4776   0.987   2.007   5.168
 1440SOL     OW 4777   0.980   2.978   5.443
 1440SOL    HW1 4778   0.881   2.984   5.453
 1440SOL    HW2 4779   1.003   2.898   5.387
 1441SOL     OW 4780   0.705   2.912   4.092
 1441SOL    HW1 4781   0.691   2.919   4.191
 1441SOL    HW2 4782   0.789   2.861   4.074
 1442SOL     OW 4783   0.410   2.675   4.975
 1442SOL    HW1 4784   0.496   2.687   5.025
 1442SOL    HW2 4785   0.368   2.588   5.002
 1443SOL     OW 4786   1.274   2.248   4.986
 1443SOL    HW1 4787   1.295   2.322   5.050
 1443SOL    HW2 4788   1.185   2.265   4.943
 1444SOL     OW 4789   0.064   3.426   5.055
 1444SOL    HW1 4790   0.018   3.508   5.021
 1444SOL    HW2 4791   0.162   3.445   5.064
 1445SOL     OW 4792   0.367   2.962   4.225
 1445SOL    HW1 4793   0.360   3.045   4.169
 1445SOL    HW2 4794   0.371   2.882   4.165
 1446SOL     OW 4795   0.566   2.399   4.589
 1446SOL    HW1 4796   0.578   2.465   4.515
 1446SOL    HW2 4797   0.612   2.433   4.672
 1447SOL     OW 4798   1.252   3.210   4.112
 1447SOL    HW1 4799   1.302   3.287   4.152
 1447SOL    HW2 4800   1.157   3.212   4.144
 1448SOL     OW 4801   1.272   3.307   4.866
 1448SOL    HW1 4802   1.319   3.320   4.953
 1448SOL    HW2 4803   1.206   3.233   4.875
 1449SOL     OW 4804   1.582   2.501   4.196
 1449SOL    HW1 4805   1.551   2.562   4.269
 1449SOL    HW2 4806   1.632   2.553   4.127
 1450SOL     OW 4807   0.354   3.372   5.053
 1450SOL    HW1 4808   0.333   3.328   4.966
 1450SOL    HW2 4809   0.451   3.398   5.056
 1451SOL     OW 4810   0.402   2.613   5.322
 1451SOL    HW1 4811   0.470   2.668   5.275
 1451SOL    HW2 4812   0.442   2.525   5.349
 1452SOL     OW 4813   1.587   2.641   5.394
 1452SOL    HW1 4814   1.495   2.679   5.389
 1452SOL    HW2 4815   1.647   2.688   5.329
 1453SOL     OW 4816   1.013   1.967   5.494
 1453SOL    HW1 4817   1.019   2.052   5.442
 1453SOL    HW2 4818   1.045   1.891   5.437
 1454SOL     OW 4819   0.504   1.912   5.464
 1454SOL    HW1 4820   0.462   1.855   5.394
 1454SOL    HW2 4821   0.438   1.981   5.496
 1455SOL     OW 4822   0.573   2.732   4.753
 1455SOL    HW1 4823   0.617   2.821   4.744
 1455SOL    HW2 4824   0.510   2.732   4.830
 1456SOL     OW 4825   1.360   2.724   4.769
 1456SOL    HW1 4826   1.285   2.724   4.703
 1456SOL    HW2 4827   1.397   2.632   4.778
 1457SOL     OW 4828   1.209   2.387   3.999
 1457SOL    HW1 4829   1.222   2.303   4.053
 1457SOL    HW2 4830   1.180   2.461   4.059
 1458SOL     OW 4831   0.307   2.075   4.955
 1458SOL    HW1 4832   0.284   2.112   5.045
 1458SOL    HW2 4833   0.277   1.980   4.949
 1459SOL     OW 4834   0.037   3.172   5.006
 1459SOL    HW1 4835   0.090   3.123   5.074
 1459SOL    HW2 4836   0.059   3.270   5.011
 1460SOL     OW 4837   0.732   2.496   4.788
 1460SOL    HW1 4838   0.791   2.470   4.712
 1460SOL    HW2 4839   0.704   2.592   4.777
 1461SOL     OW 4840   1.728   2.797   5.578
 1461SOL    HW1 4841   1.682   2.790   5.489
 1461SOL    HW2 4842   1.666   2.841   5.644
 1462SOL     OW 4843   0.307   1.925   4.342
 1462SOL    HW1 4844   0.296   2.019   4.375
 1462SOL    HW2 4845   0.302   1.862   4.419
 1463SOL     OW 4846   1.622   2.229   4.098
 1463SOL    HW1 4847   1.624   2.153   4.162
 1463SOL    HW2 4848   1.574   2.306   4.138
 1464SOL     OW 4849   1.023   2.628   4.690
 1464SOL    HW1 4850   1.038   2.649   4.786
 1464SOL    HW2 4851   0.993   2.533   4.681
 1465SOL     OW 4852   0.980   3.435   5.424
 1465SOL    HW1 4853   0.960   3.479   5.336
 1465SOL    HW2 4854   1.019   3.344   5.408
 1466SOL     OW 4855   1.859   3.380   5.329
 1466SOL    HW1 4856   1.873   3.407   5.234
 1466SOL    HW2 4857   1.942   3.402   5.382
 1467SOL     OW 4858   0.350   2.760   5.528
 1467SOL    HW1 4859   0.426   2.804   5.576
 1467SOL    HW2 4860   0.385   2.713   5.446
 1468SOL     OW 4861   1.540   2.136   3.849
 1468SOL    HW1 4862   1.479   2.061   3.872
 1468SOL    HW2 4863   1.562   2.188   3.932
 1469SOL     OW 4864   1.303   2.700   3.766
 1469SOL    HW1 4865   1.337   2.607   3.781
 1469SOL    HW2 4866   1.321   2.727   3.671
 1470SOL     OW 4867   1.068   3.195   4.573
 1470SOL    HW1 4868   1.075   3.111   4.518
 1470SOL    HW2 4869   1.130   3.264   4.537
 1471SOL     OW 4870   0.319   2.672   4.673
 1471SOL    HW1 4871   0.412   2.708   4.678
 1471SOL    HW2 4872   0.313   2.587   4.725
 1472SOL     OW 4873   0.339   2.371   4.730
 1472SOL    HW1 4874   0.287   2.288   4.713
 1472SOL    HW2 4875   0.416   2.376   4.666
 1473SOL     OW 4876   1.138   2.242   5.402
 1473SOL    HW1 4877   1.093   2.305   5.466
 1473SOL    HW2 4878   1.231   2.273   5.385
 1474SOL     OW 4879   1.160   2.069   5.201
 1474SOL    HW1 4880   1.160   2.133   5.278
 1474SOL    HW2 4881   1.188   2.117   5.118
 1475SOL     OW 4882   0.008   3.188   3.924
 1475SOL    HW1 4883  -0.085   3.209   3.893
 1475SOL    HW2 4884   0.018   3.089   3.937
 1476SOL     OW 4885   0.088   3.663   4.651
 1476SOL    HW1 4886   0.046   3.577   4.624
 1476SOL    HW2 4887   0.182   3.666   4.617
 1477SOL     OW 4888   0.504   3.430   4.634
 1477SOL    HW1 4889   0.570   3.504   4.643
 1477SOL    HW2 4890   0.548   3.351   4.592
 1478SOL     OW 4891   1.002   2.658   4.962
 1478SOL    HW1 4892   1.043   2.626   5.048
 1478SOL    HW2 4893   0.906   2.631   4.959
 1479SOL     OW 4894   0.040   2.406   4.838
 1479SOL    HW1 4895   0.125   2.373   4.797
 1479SOL    HW2 4896   0.053   2.421   4.936
 1480SOL     OW 4897   0.189   2.382   5.446
 1480SOL    HW1 4898   0.248   2.342   5.376
 1480SOL    HW2 4899   0.131   2.453   5.405
 1481SOL     OW 4900   1.369   2.812   5.384
 1481SOL    HW1 4901   1.408   2.901   5.404
 1481SOL    HW2 4902   1.379   2.792   5.287
 1482SOL     OW 4903   0.815   2.434   4.049
 1482SOL    HW1 4904   0.822   2.345   4.003
 1482SOL    HW2 4905   0.721   2.468   4.041
 1483SOL     OW 4906   1.657   2.466   4.930
 1483SOL    HW1 4907   1.619   2.397   4.992
 1483SOL    HW2 4908   1.739   2.430   4.886
 1484SOL     OW 4909   0.252   3.426   5.468
 1484SOL    HW1 4910   0.222   3.483   5.544
 1484SOL    HW2 4911   0.245   3.329   5.494
 1485SOL     OW 4912   0.671   2.326   4.993
 1485SOL    HW1 4913   0.637   2.237   4.963
 1485SOL    HW2 4914   0.697   2.380   4.913
 1486SOL     OW 4915   0.930   3.540   5.189
 1486SOL    HW1 4916   0.906   3.522   5.094
 1486SOL    HW2 4917   0.960   3.634   5.199
 1487SOL     OW 4918   0.473   2.362   3.915
 1487SOL    HW1 4919   0.534   2.442   3.919
 1487SOL    HW2 4920   0.378   2.393   3.922
 1488SOL     OW 4921   0.159   2.999   5.190
 1488SOL    HW1 4922   0.181   2.938   5.266
 1488SOL    HW2 4923   0.169   2.950   5.104
 1489SOL     OW 4924   1.347   2.921   4.958
 1489SOL    HW1 4925   1.371   2.858   4.884
 1489SOL    HW2 4926   1.257   2.961   4.940
 1490SOL     OW 4927   1.302   2.717   4.033
 1490SOL    HW1 4928   1.216   2.686   4.075
 1490SOL    HW2 4929   1.298   2.703   3.934
 1491SOL     OW 4930   1.759   3.609   4.878
 1491SOL    HW1 4931   1.820   3.639   4.805
 1491SOL    HW2 4932   1.721   3.520   4.856
 1492SOL     OW 4933   1.252   3.593   4.852
 1492SOL    HW1 4934   1.336   3.598   4.798
 1492SOL    HW2 4935   1.229   3.497   4.870
 1493SOL     OW 4936   0.083   3.120   4.746
 1493SOL    HW1 4937   0.078   3.119   4.846
 1493SOL    HW2 4938   0.000   3.079   4.708
 1494SOL     OW 4939   0.688   3.524   5.440
 1494SOL    HW1 4940   0.632   3.605   5.449
 1494SOL    HW2 4941   0.740   3.528   5.354
 1495SOL     OW 4942   1.726   1.997   4.247
 1495SOL    HW1 4943   1.799   1.980   4.180
 1495SOL    HW2 4944   1.695   1.910   4.285
 1496SOL     OW 4945   1.388   3.435   4.201
 1496SOL    HW1 4946   1.455   3.447   4.127
 1496SOL    HW2 4947   1.348   3.524   4.224
 1497SOL     OW 4948   0.130   3.656   5.575
 1497SOL    HW1 4949   0.089   3.582   5.628
 1497SOL    HW2 4950   0.194   3.707   5.633
 1498SOL     OW 4951   1.280   2.789   4.396
 1498SOL    HW1 4952   1.340   2.708   4.398
 1498SOL    HW2 4953   1.320   2.858   4.336
 1499SOL     OW 4954   0.830   3.135   5.146
 1499SOL    HW1 4955   0.825   3.168   5.241
 1499SOL    HW2 4956   0.744   3.154   5.100
 1500SOL     OW 4957   0.672   3.478   3.878
 1500SOL    HW1 4958   0.681   3.488   3.779
 1500SOL    HW2 4959   0.632   3.389   3.899
 1501SOL     OW 4960   1.650   3.582   5.118
 1501SOL    HW1 4961   1.703   3.592   5.034
 1501SOL    HW2 4962   1.623   3.672   5.152
 1502SOL     OW 4963   1.841   2.037   4.687
 1502SOL    HW1 4964   1.880   1.952   4.651
 1502SOL    HW2 4965   1.743   2.039   4.668
 1503SOL     OW 4966   0.263   2.188   4.444
 1503SOL    HW1 4967   0.184   2.239   4.410
 1503SOL    HW2 4968   0.254   2.173   4.542
 1504SOL     OW 4969   1.194   3.474   3.755
 1504SOL    HW1 4970   1.200   3.381   3.792
 1504SOL    HW2 4971   1.135   3.474   3.675
 1505SOL     OW 4972   0.822   2.864   5.096
 1505SOL    HW1 4973   0.862   2.863   5.004
 1505SOL    HW2 4974   0.832   2.956   5.136
 1506SOL     OW 4975   0.916   2.772   4.015
 1506SOL    HW1 4976   0.979   2.810   3.947
 1506SOL    HW2 4977   0.956   2.689   4.054
 1507SOL     OW 4978   1.504   3.469   3.768
 1507SOL    HW1 4979   1.412   3.506   3.775
 1507SOL    HW2 4980   1.542   3.489   3.678
 1508SOL     OW 4981   0.372   3.150   5.214
 1508SOL    HW1 4982   0.359   3.243   5.180
 1508SOL    HW2 4983   0.288   3.098   5.201
 1509SOL     OW 4984   1.614   3.154   5.013
 1509SOL    HW1 4985   1.674   3.157   5.093
 1509SOL    HW2 4986   1.539   3.218   5.026
 1510SOL     OW 4987   1.039   2.960   4.420
 1510SOL    HW1 4988   0.969   2.913   4.474
 1510SOL    HW2 4989   1.098   2.892   4.377
 1511SOL     OW 4990   1.014   2.098   4.695
 1511SOL    HW1 4991   1.006   2.062   4.602
 1511SOL    HW2 4992   1.012   2.022   4.760
 1512SOL     OW 4993   0.590   3.349   4.215
 1512SOL    HW1 4994   0.632   3.291   4.145
 1512SOL    HW2 4995   0.546   3.428   4.171
 1513SOL     OW 4996   1.709   2.247   5.105
 1513SOL    HW1 4997   1.782   2.316   5.109
 1513SOL    HW2 4998   1.737   2.172   5.046
 1514SOL     OW 4999   0.255   3.210   4.014
 1514SOL    HW1 5000   0.159   3.211   3.987
 1514SOL    HW2 5001   0.267   3.263   4.098
 1515SOL     OW 5002   0.105   2.875   5.450
 1515SOL    HW1 5003   0.028   2.842   5.504
 1515SOL    HW2 5004   0.190   2.845   5.492
 1516SOL     OW 5005   0.672   2.065   5.213
 1516SOL    HW1 5006   0.762   2.049   5.173
 1516SOL    HW2 5007   0.680   2.070   5.312
 1517SOL     OW 5008   0.075   2.207   3.757
 1517SOL    HW1 5009  -0.017   2.179   3.728
 1517SOL    HW2 5010   0.106   2.284   3.701
 1518SOL     OW 5011   1.440   2.718   5.122
 1518SOL    HW1 5012   1.383   2.770   5.059
 1518SOL    HW2 5013   1.536   2.730   5.098
 1519SOL     OW 5014   0.072   2.028   4.042
 1519SOL    HW1 5015   0.055   2.111   3.988
 1519SOL    HW2 5016   0.162   1.991   4.020
 1520SOL     OW 5017   1.183   3.197   3.843
 1520SOL    HW1 5018   1.084   3.186   3.845
 1520SOL    HW2 5019   1.217   3.212   3.936
 1521SOL     OW 5020   0.613   2.704   5.155
 1521SOL    HW1 5021   0.669   2.785   5.138
 1521SOL    HW2 5022   0.672   2.624   5.158
 1522SOL     OW 5023   1.493   3.629   4.683
 1522SOL    HW1 5024   1.526   3.693   4.614
 1522SOL    HW2 5025   1.559   3.623   4.758
 1523SOL     OW 5026   0.716   2.427   5.432
 1523SOL    HW1 5027   0.735   2.492   5.506
 1523SOL    HW2 5028   0.776   2.347   5.441
 1524SOL     OW 5029   1.450   3.082   5.357
 1524SOL    HW1 5030   1.441   3.072   5.456
 1524SOL    HW2 5031   1.546   3.075   5.331
 1525SOL     OW 5032   0.390   3.603   5.284
 1525SOL    HW1 5033   0.299   3.644   5.282
 1525SOL    HW2 5034   0.383   3.509   5.316
 1526SOL     OW 5035   1.674   2.745   4.978
 1526SOL    HW1 5036   1.647   2.656   4.941
 1526SOL    HW2 5037   1.675   2.813   4.905
 1527SOL     OW 5038   1.225   2.187   4.173
 1527SOL    HW1 5039   1.290   2.113   4.162
 1527SOL    HW2 5040   1.245   2.237   4.257
 1528SOL     OW 5041   0.594   2.607   4.376
 1528SOL    HW1 5042   0.644   2.692   4.357
 1528SOL    HW2 5043   0.506   2.609   4.328
 1529SOL     OW 5044   1.777   2.204   5.366
 1529SOL    HW1 5045   1.760   2.235   5.272
 1529SOL    HW2 5046   1.693   2.167   5.404
 1530SOL     OW 5047   1.730   2.796   5.241
 1530SOL    HW1 5048   1.768   2.887   5.256
 1530SOL    HW2 5049   1.722   2.779   5.142
 1531SOL     OW 5050   0.859   3.236   3.740
 1531SOL    HW1 5051   0.813   3.251   3.828
 1531SOL    HW2 5052   0.903   3.321   3.710
 1532SOL     OW 5053   0.661   3.652   4.677
 1532SOL    HW1 5054   0.615   3.740   4.664
 1532SOL    HW2 5055   0.760   3.664   4.670
 1533SOL     OW 5056   0.859   2.818   4.585
 1533SOL    HW1 5057   0.913   2.749   4.633
 1533SOL    HW2 5058   0.827   2.887   4.651
 1534SOL     OW 5059   1.083   2.846   3.811
 1534SOL    HW1 5060   1.060   2.899   3.729
 1534SOL    HW2 5061   1.164   2.790   3.792
 1535SOL     OW 5062   1.861   3.431   4.575
 1535SOL    HW1 5063   1.790   3.419   4.505
 1535SOL    HW2 5064   1.862   3.352   4.635
 1536SOL     OW 5065   0.221   3.176   5.568
 1536SOL    HW1 5066   0.156   3.103   5.547
 1536SOL    HW2 5067   0.225   3.190   5.666
 1537SOL     OW 5068   0.079   3.102   4.377
 1537SOL    HW1 5069   0.078   3.055   4.465
 1537SOL    HW2 5070   0.161   3.074   4.326
 1538SOL     OW 5071   0.672   3.253   5.348
 1538SOL    HW1 5072   0.594   3.203   5.386
 1538SOL    HW2 5073   0.669   3.348   5.379
 1539SOL     OW 5074   1.824   2.054   4.951
 1539SOL    HW1 5075   1.820   1.964   4.995
 1539SOL    HW2 5076   1.827   2.043   4.852
 1540SOL     OW 5077   0.428   2.286   4.244
 1540SOL    HW1 5078   0.458   2.214   4.182
 1540SOL    HW2 5079   0.389   2.246   4.327
 1541SOL     OW 5080   1.705   3.349   4.828
 1541SOL    HW1 5081   1.612   3.324   4.801
 1541SOL    HW2 5082   1.731   3.299   4.910
 1542SOL     OW 5083   0.317   2.409   5.004
 1542SOL    HW1 5084   0.355   2.350   5.076
 1542SOL    HW2 5085   0.357   2.383   4.916
 1543SOL     OW 5086   0.812   3.448   4.411
 1543SOL    HW1 5087   0.844   3.458   4.317
 1543SOL    HW2 5088   0.733   3.386   4.413
 1544SOL     OW 5089   1.424   2.076   4.836
 1544SOL    HW1 5090   1.476   2.011   4.891
 1544SOL    HW2 5091   1.375   2.139   4.897
 1545SOL     OW 5092   1.001   1.896   4.878
 1545SOL    HW1 5093   0.938   1.824   4.847
 1545SOL    HW2 5094   1.094   1.860   4.878
 1546SOL     OW 5095   0.770   3.192   4.025
 1546SOL    HW1 5096   0.724   3.105   4.042
 1546SOL    HW2 5097   0.861   3.189   4.066
 1547SOL     OW 5098   0.618   3.429   5.008
 1547SOL    HW1 5099   0.613   3.511   5.065
 1547SOL    HW2 5100   0.707   3.426   4.963
 1548SOL     OW 5101   1.352   1.914   3.892
 1548SOL    HW1 5102   1.387   1.873   3.808
 1548SOL    HW2 5103   1.262   1.876   3.912
 1549SOL     OW 5104   1.300   2.315   4.415
 1549SOL    HW1 5105   1.241   2.395   4.419
 1549SOL    HW2 5106   1.315   2.280   4.508
 1550SOL     OW 5107   1.593   2.083   4.606
 1550SOL    HW1 5108   1.509   2.082   4.660
 1550SOL    HW2 5109   1.595   2.166   4.550
 1551SOL     OW 5110   0.039   2.939   4.024
 1551SOL    HW1 5111   0.138   2.928   4.015
 1551SOL    HW2 5112  -0.001   2.853   4.056
 1552SOL     OW 5113   0.875   3.508   4.061
 1552SOL    HW1 5114   0.798   3.473   4.007
 1552SOL    HW2 5115   0.843   3.579   4.123
 1553SOL     OW 5116   0.230   2.490   5.699
 1553SOL    HW1 5117   0.137   2.488   5.736
 1553SOL    HW2 5118   0.231   2.451   5.607
 1554SOL     OW 5119   0.225   2.137   6.582
 1554SOL    HW1 5120   0.260   2.120   6.674
 1554SOL    HW2 5121   0.137   2.092   6.570
 1555SOL     OW 5122   0.019   2.230   6.233
 1555SOL    HW1 5123  -0.063   2.273   6.272
 1555SOL    HW2 5124  -0.009   2.157   6.170
 1556SOL     OW 5125   0.569   3.137   6.751
 1556SOL    HW1 5126   0.476   3.130   6.714
 1556SOL    HW2 5127   0.580   3.226   6.795
 1557SOL     OW 5128   1.555   3.373   6.289
 1557SOL    HW1 5129   1.498   3.357   6.370
 1557SOL    HW2 5130   1.496   3.383   6.209
 1558SOL     OW 5131   1.135   2.565   6.303
 1558SOL    HW1 5132   1.192   2.643   6.278
 1558SOL    HW2 5133   1.075   2.591   6.379
 1559SOL     OW 5134   1.755   2.469   5.817
 1559SOL    HW1 5135   1.743   2.456   5.718
 1559SOL    HW2 5136   1.725   2.388   5.866
 1560SOL     OW 5137   0.768   3.006   6.609
 1560SOL    HW1 5138   0.690   3.023   6.669
 1560SOL    HW2 5139   0.802   3.093   6.573
 1561SOL     OW 5140   0.850   2.660   7.409
 1561SOL    HW1 5141   0.846   2.736   7.474
 1561SOL    HW2 5142   0.872   2.696   7.318
 1562SOL     OW 5143   0.685   2.874   6.251
 1562SOL    HW1 5144   0.754   2.858   6.321
 1562SOL    HW2 5145   0.612   2.931   6.289
 1563SOL     OW 5146   0.686   3.023   7.389
 1563SOL    HW1 5147   0.746   3.102   7.403
 1563SOL    HW2 5148   0.600   3.054   7.348
 1564SOL     OW 5149   0.335   3.297   6.647
 1564SOL    HW1 5150   0.257   3.266   6.594
 1564SOL    HW2 5151   0.393   3.355   6.590
 1565SOL     OW 5152   1.460   3.367   6.925
 1565SOL    HW1 5153   1.484   3.461   6.951
 1565SOL    HW2 5154   1.444   3.313   7.007
 1566SOL     OW 5155   0.438   2.254   7.085
 1566SOL    HW1 5156   0.520   2.198   7.094
 1566SOL    HW2 5157   0.357   2.196   7.089
 1567SOL     OW 5158   1.603   2.309   6.323
 1567SOL    HW1 5159   1.529   2.355   6.273
 1567SOL    HW2 5160   1.654   2.377   6.376
 1568SOL     OW 5161   0.231   3.575   6.069
 1568SOL    HW1 5162   0.265   3.652   6.123
 1568SOL    HW2 5163   0.275   3.575   5.979
 1569SOL     OW 5164   1.127   3.203   7.276
 1569SOL    HW1 5165   1.174   3.203   7.364
 1569SOL    HW2 5166   1.079   3.116   7.265
 1570SOL     OW 5167   0.230   3.296   6.124
 1570SOL    HW1 5168   0.204   3.392   6.124
 1570SOL    HW2 5169   0.159   3.242   6.169
 1571SOL     OW 5170   0.240   2.953   6.472
 1571SOL    HW1 5171   0.254   2.869   6.524
 1571SOL    HW2 5172   0.185   3.017   6.527
 1572SOL     OW 5173   0.620   3.648   7.025
 1572SOL    HW1 5174   0.528   3.631   7.060
 1572SOL    HW2 5175   0.648   3.740   7.051
 1573SOL     OW 5176   0.606   2.826   5.709
 1573SOL    HW1 5177   0.613   2.910   5.655
 1573SOL    HW2 5178   0.652   2.839   5.797
 1574SOL     OW 5179   1.594   1.976   7.066
 1574SOL    HW1 5180   1.576   2.043   6.994
 1574SOL    HW2 5181   1.591   2.022   7.155
 1575SOL     OW 5182   0.122   2.505   6.149
 1575SOL    HW1 5183   0.077   2.417   6.166
 1575SOL    HW2 5184   0.121   2.559   6.233
 1576SOL     OW 5185   1.842   3.629   5.945
 1576SOL    HW1 5186   1.896   3.600   6.025
 1576SOL    HW2 5187   1.872   3.719   5.916
 1577SOL     OW 5188   0.027   3.458   5.703
 1577SOL    HW1 5189   0.008   3.362   5.724
 1577SOL    HW2 5190  -0.006   3.516   5.778
 1578SOL     OW 5191   1.689   2.784   6.198
 1578SOL    HW1 5192   1.784   2.755   6.206
 1578SOL    HW2 5193   1.681   2.849   6.123
 1579SOL     OW 5194   1.641   2.970   6.018
 1579SOL    HW1 5195   1.727   2.972   5.966
 1579SOL    HW2 5196   1.655   3.017   6.106
 1580SOL     OW 5197   0.113   2.599   7.183
 1580SOL    HW1 5198   0.201   2.586   7.228
 1580SOL    HW2 5199   0.100   2.696   7.161
 1581SOL     OW 5200   0.613   3.227   6.312
 1581SOL    HW1 5201   0.564   3.140   6.321
 1581SOL    HW2 5202   0.590   3.270   6.225
 1582SOL     OW 5203   1.293   3.090   7.009
 1582SOL    HW1 5204   1.330   3.017   6.951
 1582SOL    HW2 5205   1.345   3.095   7.094
 1583SOL     OW 5206   0.809   1.866   6.088
 1583SOL    HW1 5207   0.849   1.957   6.079
 1583SOL    HW2 5208   0.709   1.874   6.094
 1584SOL     OW 5209   0.197   2.838   6.850
 1584SOL    HW1 5210   0.286   2.793   6.836
 1584SOL    HW2 5211   0.124   2.773   6.831
 1585SOL     OW 5212   1.525   2.861   5.776
 1585SOL    HW1 5213   1.462   2.785   5.789
 1585SOL    HW2 5214   1.573   2.879   5.862
 1586SOL     OW 5215   1.187   3.654   7.202
 1586SOL    HW1 5216   1.211   3.714   7.126
 1586SOL    HW2 5217   1.194   3.559   7.172
 1587SOL     OW 5218   0.317   2.113   7.387
 1587SOL    HW1 5219   0.388   2.184   7.393
 1587SOL    HW2 5220   0.229   2.152   7.415
 1588SOL     OW 5221   1.466   3.279   6.539
 1588SOL    HW1 5222   1.407   3.285   6.619
 1588SOL    HW2 5223   1.451   3.191   6.493
 1589SOL     OW 5224   1.667   3.576   6.158
 1589SOL    HW1 5225   1.626   3.553   6.070
 1589SOL    HW2 5226   1.649   3.502   6.223
 1590SOL     OW 5227   0.598   2.591   5.856
 1590SOL    HW1 5228   0.622   2.660   5.788
 1590SOL    HW2 5229   0.520   2.624   5.910
 1591SOL     OW 5230   1.281   2.207   6.530
 1591SOL    HW1 5231   1.195   2.157   6.517
 1591SOL    HW2 5232   1.343   2.153   6.586
 1592SOL     OW 5233   1.576   3.524   5.893
 1592SOL    HW1 5234   1.665   3.570   5.896
 1592SOL    HW2 5235   1.555   3.500   5.798
 1593SOL     OW 5236   0.807   2.467   7.051
 1593SOL    HW1 5237   0.760   2.464   7.140
 1593SOL    HW2 5238   0.756   2.412   6.985
 1594SOL     OW 5239   1.394   2.331   7.260
 1594SOL    HW1 5240   1.374   2.374   7.348
 1594SOL    HW2 5241   1.472   2.269   7.269
 1595SOL     OW 5242   0.973   2.752   7.158
 1595SOL    HW1 5243   1.019   2.668   7.129
 1595SOL    HW2 5244   0.917   2.786   7.083
 1596SOL     OW 5245   0.991   2.272   6.828
 1596SOL    HW1 5246   0.914   2.306   6.882
 1596SOL    HW2 5247   0.957   2.221   6.749
 1597SOL     OW 5248   1.041   2.563   6.015
 1597SOL    HW1 5249   1.067   2.559   6.111
 1597SOL    HW2 5250   0.956   2.512   6.001
 1598SOL     OW 5251   0.076   2.673   6.375
 1598SOL    HW1 5252   0.175   2.661   6.384
 1598SOL    HW2 5253   0.052   2.768   6.396
 1599SOL     OW 5254   0.130   3.683   7.157
 1599SOL    HW1 5255   0.120   3.668   7.256
 1599SOL    HW2 5256   0.044   3.719   7.121
 1600SOL     OW 5257   0.865   2.210   5.781
 1600SOL    HW1 5258   0.924   2.273   5.732
 1600SOL    HW2 5259   0.884   2.116   5.752
 1601SOL     OW 5260   1.719   2.447   7.417
 1601SOL    HW1 5261   1.693   2.536   7.381
 1601SOL    HW2 5262   1.717   2.379   7.344
 1602SOL     OW 5263   1.362   3.006   6.131
 1602SOL    HW1 5264   1.445   2.977   6.083
 1602SOL    HW2 5265   1.313   3.073   6.075
 1603SOL     OW 5266   0.550   2.058   6.471
 1603SOL    HW1 5267   0.545   2.053   6.571
 1603SOL    HW2 5268   0.552   2.154   6.442
 1604SOL     OW 5269   1.008   3.318   6.063
 1604SOL    HW1 5270   0.962   3.390   6.011
 1604SOL    HW2 5271   1.004   3.338   6.161
 1605SOL     OW 5272   0.351   3.663   6.439
 1605SOL    HW1 5273   0.401   3.577   6.445
 1605SOL    HW2 5274   0.416   3.740   6.436
 1606SOL     OW 5275   1.795   2.928   6.459
 1606SOL    HW1 5276   1.733   2.913   6.383
 1606SOL    HW2 5277   1.743   2.939   6.544
 1607SOL     OW 5278   1.227   3.412   7.092
 1607SOL    HW1 5279   1.233   3.335   7.156
 1607SOL    HW2 5280   1.175   3.386   7.012
 1608SOL     OW 5281   0.321   2.805   5.828
 1608SOL    HW1 5282   0.403   2.844   5.786
 1608SOL    HW2 5283   0.294   2.723   5.779
 1609SOL     OW 5284   1.458   2.597   6.314
 1609SOL    HW1 5285   1.453   2.532   6.389
 1609SOL    HW2 5286   1.538   2.656   6.327
 1610SOL     OW 5287   0.461   3.128   7.313
 1610SOL    HW1 5288   0.411   3.129   7.227
 1610SOL    HW2 5289   0.398   3.110   7.389
 1611SOL     OW 5290   1.111   3.638   5.823
 1611SOL    HW1 5291   1.051   3.576   5.873
 1611SOL    HW2 5292   1.142   3.594   5.738
 1612SOL     OW 5293   0.202   2.147   7.084
 1612SOL    HW1 5294   0.122   2.207   7.071
 1612SOL    HW2 5295   0.192   2.098   7.170
 1613SOL     OW 5296   1.632   3.239   5.667
 1613SOL    HW1 5297   1.600   3.333   5.657
 1613SOL    HW2 5298   1.556   3.176   5.655
 1614SOL     OW 5299   0.464   3.605   5.909
 1614SOL    HW1 5300   0.497   3.644   5.995
 1614SOL    HW2 5301   0.540   3.598   5.844
 1615SOL     OW 5302   1.400   1.969   6.012
 1615SOL    HW1 5303   1.376   1.932   5.922
 1615SOL    HW2 5304   1.499   1.985   6.016
 1616SOL     OW 5305   0.249   3.647   6.827
 1616SOL    HW1 5306   0.306   3.582   6.877
 1616SOL    HW2 5307   0.233   3.614   6.734
 1617SOL     OW 5308   0.940   3.560   6.490
 1617SOL    HW1 5309   1.020   3.503   6.511
 1617SOL    HW2 5310   0.891   3.520   6.413
 1618SOL     OW 5311   0.382   2.562   6.066
 1618SOL    HW1 5312   0.427   2.472   6.063
 1618SOL    HW2 5313   0.288   2.551   6.099
 1619SOL     OW 5314   1.547   2.084   7.315
 1619SOL    HW1 5315   1.542   2.121   7.407
 1619SOL    HW2 5316   1.475   2.015   7.303
 1620SOL     OW 5317   0.614   1.984   5.703
 1620SOL    HW1 5318   0.712   1.962   5.710
 1620SOL    HW2 5319   0.583   1.967   5.610
 1621SOL     OW 5320   0.781   2.126   7.335
 1621SOL    HW1 5321   0.848   2.065   7.378
 1621SOL    HW2 5322   0.708   2.145   7.400
 1622SOL     OW 5323   0.888   3.376   6.781
 1622SOL    HW1 5324   0.865   3.351   6.687
 1622SOL    HW2 5325   0.949   3.307   6.820
 1623SOL     OW 5326   1.351   2.452   7.019
 1623SOL    HW1 5327   1.379   2.409   7.104
 1623SOL    HW2 5328   1.376   2.548   7.020
 1624SOL     OW 5329   0.803   3.264   6.510
 1624SOL    HW1 5330   0.893   3.278   6.468
 1624SOL    HW2 5331   0.732   3.266   6.439
 1625SOL     OW 5332   0.922   2.365   6.485
 1625SOL    HW1 5333   0.897   2.356   6.389
 1625SOL    HW2 5334   0.970   2.283   6.516
 1626SOL     OW 5335   0.539   1.926   6.098
 1626SOL    HW1 5336   0.458   1.927   6.156
 1626SOL    HW2 5337   0.542   2.009   6.043
 1627SOL     OW 5338   1.434   3.050   5.627
 1627SOL    HW1 5339   1.466   2.974   5.684
 1627SOL    HW2 5340   1.342   3.077   5.657
 1628SOL     OW 5341   0.297   1.897   5.757
 1628SOL    HW1 5342   0.346   1.981   5.736
 1628SOL    HW2 5343   0.359   1.832   5.802
 1629SOL     OW 5344   0.935   2.098   6.066
 1629SOL    HW1 5345   0.887   2.139   5.988
 1629SOL    HW2 5346   1.034   2.096   6.047
 1630SOL     OW 5347   1.076   2.545   7.050
 1630SOL    HW1 5348   0.996   2.484   7.053
 1630SOL    HW2 5349   1.157   2.492   7.026
 1631SOL     OW 5350   1.227   3.432   6.379
 1631SOL    HW1 5351   1.248   3.506   6.314
 1631SOL    HW2 5352   1.295   3.432   6.452
 1632SOL     OW 5353   0.459   3.014   6.327
 1632SOL    HW1 5354   0.388   2.987   6.392
 1632SOL    HW2 5355   0.433   2.986   6.234
 1633SOL     OW 5356   1.271   3.659   6.177
 1633SOL    HW1 5357   1.315   3.723   6.113
 1633SOL    HW2 5358   1.221   3.711   6.247
 1634SOL     OW 5359   1.032   2.411   5.602
 1634SOL    HW1 5360   0.991   2.493   5.563
 1634SOL    HW2 5361   1.096   2.437   5.675
 1635SOL     OW 5362   0.078   2.418   6.972
 1635SOL    HW1 5363   0.170   2.417   6.931
 1635SOL    HW2 5364   0.072   2.492   7.039
 1636SOL     OW 5365   0.561   2.084   6.733
 1636SOL    HW1 5366   0.599   2.000   6.770
 1636SOL    HW2 5367   0.473   2.103   6.777
 1637SOL     OW 5368   0.866   2.316   6.228
 1637SOL    HW1 5369   0.834   2.388   6.166
 1637SOL    HW2 5370   0.890   2.235   6.175
 1638SOL     OW 5371   1.017   1.901   6.339
 1638SOL    HW1 5372   0.945   1.906   6.270
 1638SOL    HW2 5373   0.993   1.832   6.408
 1639SOL     OW 5374   1.429   3.035   6.453
 1639SOL    HW1 5375   1.374   2.951   6.446
 1639SOL    HW2 5376   1.455   3.064   6.361
 1640SOL     OW 5377   1.466   2.452   6.578
 1640SOL    HW1 5378   1.436   2.357   6.585
 1640SOL    HW2 5379   1.539   2.468   6.644
 1641SOL     OW 5380   1.857   2.695   5.963
 1641SOL    HW1 5381   1.899   2.631   6.027
 1641SOL    HW2 5382   1.819   2.644   5.885
 1642SOL     OW 5383   0.488   3.247   5.760
 1642SOL    HW1 5384   0.401   3.232   5.807
 1642SOL    HW2 5385   0.471   3.273   5.665
 1643SOL     OW 5386   1.664   3.142   6.243
 1643SOL    HW1 5387   1.763   3.150   6.257
 1643SOL    HW2 5388   1.619   3.226   6.274
 1644SOL     OW 5389   1.390   2.437   5.664
 1644SOL    HW1 5390   1.336   2.416   5.745
 1644SOL    HW2 5391   1.481   2.396   5.673
 1645SOL     OW 5392   0.527   2.118   5.914
 1645SOL    HW1 5393   0.554   2.059   5.839
 1645SOL    HW2 5394   0.527   2.213   5.883
 1646SOL     OW 5395   1.754   3.085   7.174
 1646SOL    HW1 5396   1.845   3.046   7.161
 1646SOL    HW2 5397   1.762   3.181   7.198
 1647SOL     OW 5398   1.064   3.209   6.926
 1647SOL    HW1 5399   0.984   3.186   6.981
 1647SOL    HW2 5400   1.147   3.183   6.975
 1648SOL     OW 5401   1.592   3.491   7.211
 1648SOL    HW1 5402   1.619   3.525   7.121
 1648SOL    HW2 5403   1.671   3.453   7.257
 1649SOL     OW 5404   1.111   3.057   6.686
 1649SOL    HW1 5405   1.071   3.101   6.767
 1649SOL    HW2 5406   1.070   3.094   6.603
 1650SOL     OW 5407   1.638   2.961   6.665
 1650SOL    HW1 5408   1.643   3.042   6.724
 1650SOL    HW2 5409   1.552   2.963   6.614
 1651SOL     OW 5410   0.915   1.951   6.988
 1651SOL    HW1 5411   0.940   1.931   6.893
 1651SOL    HW2 5412   0.987   2.007   7.030
 1652SOL     OW 5413   0.980   2.978   7.305
 1652SOL    HW1 5414   0.881   2.984   7.315
 1652SOL    HW2 5415   1.003   2.898   7.249
 1653SOL     OW 5416   0.705   2.912   5.954
 1653SOL    HW1 5417   0.691   2.919   6.053
 1653SOL    HW2 5418   0.789   2.861   5.936
 1654SOL     OW 5419   0.410   2.675   6.837
 1654SOL    HW1 5420   0.496   2.687   6.887
 1654SOL    HW2 5421   0.368   2.588   6.864
 1655SOL     OW 5422   1.274   2.248   6.848
 1655SOL    HW1 5423   1.295   2.322   6.912
 1655SOL    HW2 5424   1.185   2.265   6.805
 1656SOL     OW 5425   0.064   3.426   6.917
 1656SOL    HW1 5426   0.018   3.508   6.883
 1656SOL    HW2 5427   0.162   3.445   6.926
 1657SOL     OW 5428   0.367   2.962   6.087
 1657SOL    HW1 5429   0.360   3.045   6.031
 1657SOL    HW2 5430   0.371   2.882   6.027
 1658SOL     OW 5431   0.566   2.399   6.451
 1658SOL    HW1 5432   0.578   2.465   6.377
 1658SOL    HW2 5433   0.612   2.433   6.534
 1659SOL     OW 5434   1.252   3.210   5.974
 1659SOL    HW1 5435   1.302   3.287   6.014
 1659SOL    HW2 5436   1.157   3.212   6.006
 1660SOL     OW 5437   1.272   3.307   6.728
 1660SOL    HW1 5438   1.319   3.320   6.815
 1660SOL    HW2 5439   1.206   3.233   6.737
 1661SOL     OW 5440   1.582   2.501   6.058
 1661SOL    HW1 5441   1.551   2.562   6.131
 1661SOL    HW2 5442   1.632   2.553   5.989
 1662SOL     OW 5443   0.354   3.372   6.915
 1662SOL    HW1 5444   0.333   3.328   6.828
 1662SOL    HW2 5445   0.451   3.398   6.918
 1663SOL     OW 5446   0.402   2.613   7.184
 1663SOL    HW1 5447   0.470   2.668   7.137
 1663SOL    HW2 5448   0.442   2.525   7.211
 1664SOL     OW 5449   1.587   2.641   7.256
 1664SOL    HW1 5450   1.495   2.679   7.251
 1664SOL    HW2 5451   1.647   2.688   7.191
 1665SOL     OW 5452   1.013   1.967   7.356
 1665SOL    HW1 5453   1.019   2.052   7.304
 1665SOL    HW2 5454   1.045   1.891   7.299
 1666SOL     OW 5455   0.504   1.912   7.326
 1666SOL    HW1 5456   0.462   1.855   7.256
 1666SOL    HW2 5457   0.438   1.981   7.358
 1667SOL     OW 5458   0.573   2.732   6.615
 1667SOL    HW1 5459   0.617   2.821   6.606
 1667SOL    HW2 5460   0.510   2.732   6.692
 1668SOL     OW 5461   1.360   2.724   6.631
 1668SOL    HW1 5462   1.285   2.724   6.565
 1668SOL    HW2 5463   1.397   2.632   6.640
 1669SOL     OW 5464   1.209   2.387   5.861
 1669SOL    HW1 5465   1.222   2.303   5.915
 1669SOL    HW2 5466   1.180   2.461   5.921
 1670SOL     OW 5467   0.307   2.075   6.817
 1670SOL    HW1 5468   0.284   2.112   6.907
 1670SOL    HW2 5469   0.277   1.980   6.811
 1671SOL     OW 5470   0.037   3.172   6.868
 1671SOL    HW1 5471   0.090   3.123   6.936
 1671SOL    HW2 5472   0.059   3.270   6.873
 1672SOL     OW 5473   0.732   2.496   6.650
 1672SOL    HW1 5474   0.791   2.470   6.574
 1672SOL    HW2 5475   0.704   2.592   6.639
 1673SOL     OW 5476   1.728   2.797   7.440
 1673SOL    HW1 5477   1.682   2.790   7.351
 1673SOL    HW2 5478   1.666   2.841   7.506
 1674SOL     OW 5479   0.307   1.925   6.204
 1674SOL    HW1 5480   0.296   2.019   6.237
 1674SOL    HW2 5481   0.302   1.862   6.281
 1675SOL     OW 5482   1.622   2.229   5.960
 1675SOL    HW1 5483   1.624   2.153   6.024
 1675SOL    HW2 5484   1.574   2.306   6.000
 1676SOL     OW 5485   1.023   2.628   6.552
 1676SOL    HW1 5486   1.038   2.649   6.648
 1676SOL    HW2 5487   0.993   2.533   6.543
 1677SOL     OW 5488   0.980   3.435   7.286
 1677SOL    HW1 5489   0.960   3.479   7.198
 1677SOL    HW2 5490   1.019   3.344   7.270
 1678SOL     OW 5491   1.859   3.380   7.191
 1678SOL    HW1 5492   1.873   3.407   7.096
 1678SOL    HW2 5493   1.942   3.402   7.244
 1679SOL     OW 5494   0.350   2.760   7.390
 1679SOL    HW1 5495   0.426   2.804   7.438
 1679SOL    HW2 5496   0.385   2.713   7.308
 1680SOL     OW 5497   1.540   2.136   5.711
 1680SOL    HW1 5498   1.479   2.061   5.734
 1680SOL    HW2 5499   1.562   2.188   5.794
 1681SOL     OW 5500   1.303   2.700   5.628
 1681SOL    HW1 5501   1.337   2.607   5.643
 1681SOL    HW2 5502   1.321   2.727   5.533
 1682SOL     OW 5503   1.068   3.195   6.435
 1682SOL    HW1 5504   1.075   3.111   6.380
 1682SOL    HW2 5505   1.130   3.264   6.399
 1683SOL     OW 5506   0.319   2.672   6.535
 1683SOL    HW1 5507   0.412   2.708   6.540
 1683SOL    HW2 5508   0.313   2.587   6.587
 1684SOL     OW 5509   0.339   2.371   6.592
 1684SOL    HW1 5510   0.287   2.288   6.575
 1684SOL    HW2 5511   0.416   2.376   6.528
 1685SOL     OW 5512   1.138   2.242   7.264
 1685SOL    HW1 5513   1.093   2.305   7.328
 1685SOL    HW2 5514   1.231   2.273   7.247
 1686SOL     OW 5515   1.160   2.069   7.063
 1686SOL    HW1 5516   1.160   2.133   7.140
 1686SOL    HW2 5517   1.188   2.117   6.980
 1687SOL     OW 5518   0.008   3.188   5.786
 1687SOL    HW1 5519  -0.085   3.209   5.755
 1687SOL    HW2 5520   0.018   3.089   5.799
 1688SOL     OW 5521   0.088   3.663   6.513
 1688SOL    HW1 5522   0.046   3.577   6.486
 1688SOL    HW2 5523   0.182   3.666   6.479
 1689SOL     OW 5524   0.504   3.430   6.496
 1689SOL    HW1 5525   0.570   3.504   6.505
 1689SOL    HW2 5526   0.548   3.351   6.454
 1690SOL     OW 5527   1.002   2.658   6.824
 1690SOL    HW1 5528   1.043   2.626   6.910
 1690SOL    HW2 5529   0.906   2.631   6.821
 1691SOL     OW 5530   0.040   2.406   6.700
 1691SOL    HW1 5531   0.125   2.373   6.659
 1691SOL    HW2 5532   0.053   2.421   6.798
 1692SOL     OW 5533   0.189   2.382   7.308
 1692SOL    HW1 5534   0.248   2.342   7.238
 1692SOL    HW2 5535   0.131   2.453   7.267
 1693SOL     OW 5536   1.369   2.812   7.246
 1693SOL    HW1 5537   1.408   2.901   7.266
 1693SOL    HW2 5538   1.379   2.792   7.149
 1694SOL     OW 5539   0.815   2.434   5.911
 1694SOL    HW1 5540   0.822   2.345   5.865
 1694SOL    HW2 5541   0.721   2.468   5.903
 1695SOL     OW 5542   1.657   2.466   6.792
 1695SOL    HW1 5543   1.619   2.397   6.854
 1695SOL    HW2 5544   1.739   2.430   6.748
 1696SOL     OW 5545   0.252   3.426   7.330
 1696SOL    HW1 5546   0.222   3.483   7.406
 1696SOL    HW2 5547   0.245   3.329   7.356
 1697SOL     OW 5548   0.671   2.326   6.855
 1697SOL    HW1 5549   0.637   2.237   6.825
 1697SOL    HW2 5550   0.697   2.380   6.775
 1698SOL     OW 5551   0.930   3.540   7.051
 1698SOL    HW1 5552   0.906   3.522   6.956
 1698SOL    HW2 5553   0.960   3.634   7.061
 1699SOL     OW 5554   0.473   2.362   5.777
 1699SOL    HW1 5555   0.534   2.442   5.781
 1699SOL    HW2 5556   0.378   2.393   5.784
 1700SOL     OW 5557   0.159   2.999   7.052
 1700SOL    HW1 5558   0.181   2.938   7.128
 1700SOL    HW2 5559   0.169   2.950   6.966
 1701SOL     OW 5560   1.347   2.921   6.820
 1701SOL    HW1 5561   1.371   2.858   6.746
 1701SOL    HW2 5562   1.257   2.961   6.802
 1702SOL     OW 5563   1.302   2.717   5.895
 1702SOL    HW1 5564   1.216   2.686   5.937
 1702SOL    HW2 5565   1.298   2.703   5.796
 1703SOL     OW 5566   1.759   3.609   6.740
 1703SOL    HW1 5567   1.820   3.639   6.667
 1703SOL    HW2 5568   1.721   3.520   6.718
 1704SOL     OW 5569   1.252   3.593   6.714
 1704SOL    HW1 5570   1.336   3.598   6.660
 1704SOL    HW2 5571   1.229   3.497   6.732
 1705SOL     OW 5572   0.083   3.120   6.608
 1705SOL    HW1 5573   0.078   3.119   6.708
 1705SOL    HW2 5574   0.000   3.079   6.570
 1706SOL     OW 5575   0.688   3.524   7.302
 1706SOL    HW1 5576   0.632   3.605   7.311
 1706SOL    HW2 5577   0.740   3.528   7.216
 1707SOL     OW 5578   1.726   1.997   6.109
 1707SOL    HW1 5579   1.799   1.980   6.042
 1707SOL    HW2 5580   1.695   1.910   6.147
 1708SOL     OW 5581   1.388   3.435   6.063
 1708SOL    HW1 5582   1.455   3.447   5.989
 1708SOL    HW2 5583   1.348   3.524   6.086
 1709SOL     OW 5584   0.130   3.656   7.437
 1709SOL    HW1 5585   0.089   3.582   7.490
 1709SOL    HW2 5586   0.194   3.707   7.495
 1710SOL     OW 5587   1.280   2.789   6.258
 1710SOL    HW1 5588   1.340   2.708   6.260
 1710SOL    HW2 5589   1.320   2.858   6.198
 1711SOL     OW 5590   0.830   3.135   7.008
 1711SOL    HW1 5591   0.825   3.168   7.103
 1711SOL    HW2 5592   0.744   3.154   6.962
 1712SOL     OW 5593   0.672   3.478   5.740
 1712SOL    HW1 5594   0.681   3.488   5.641
 1712SOL    HW2 5595   0.632   3.389   5.761
 1713SOL     OW 5596   1.650   3.582   6.980
 1713SOL    HW1 5597   1.703   3.592   6.896
 1713SOL    HW2 5598   1.623   3.672   7.014
 1714SOL     OW 5599   1.841   2.037   6.549
 1714SOL    HW1 5600   1.880   1.952   6.513
 1714SOL    HW2 5601   1.743   2.039   6.530
 1715SOL     OW 5602   0.263   2.188   6.306
 1715SOL    HW1 5603   0.184   2.239   6.272
 1715SOL    HW2 5604   0.254   2.173   6.404
 1716SOL     OW 5605   1.194   3.474   5.617
 1716SOL    HW1 5606   1.200   3.381   5.654
 1716SOL    HW2 5607   1.135   3.474   5.537
 1717SOL     OW 5608   0.822   2.864   6.958
 1717SOL    HW1 5609   0.862   2.863   6.866
 1717SOL    HW2 5610   0.832   2.956   6.998
 1718SOL     OW 5611   0.916   2.772   5.877
 1718SOL    HW1 5612   0.979   2.810   5.809
 1718SOL    HW2 5613   0.956   2.689   5.916
 1719SOL     OW 5614   1.504   3.469   5.630
 1719SOL    HW1 5615   1.412   3.506   5.637
 1719SOL    HW2 5616   1.542   3.489   5.540
 1720SOL     OW 5617   0.372   3.150   7.076
 1720SOL    HW1 5618   0.359   3.243   7.042
 1720SOL    HW2 5619   0.288   3.098   7.063
 1721SOL     OW 5620   1.614   3.154   6.875
 1721SOL    HW1 5621   1.674   3.157   6.955
 1721SOL    HW2 5622   1.539   3.218   6.888
 1722SOL     OW 5623   1.039   2.960   6.282
 1722SOL    HW1 5624   0.969   2.913   6.336
 1722SOL    HW2 5625   1.098   2.892   6.239
 1723SOL     OW 5626   1.014   2.098   6.557
 1723SOL    HW1 5627   1.006   2.062   6.464
 1723SOL    HW2 5628   1.012   2.022   6.622
 1724SOL     OW 5629   0.590   3.349   6.077
 1724SOL    HW1 5630   0.632   3.291   6.007
 1724SOL    HW2 5631   0.546   3.428   6.033
 1725SOL     OW 5632   1.709   2.247   6.967
 1725SOL    HW1 5633   1.782   2.316   6.971
 1725SOL    HW2 5634   1.737   2.172   6.908
 1726SOL     OW 5635   0.255   3.210   5.876
 1726SOL    HW1 5636   0.159   3.211   5.849
 1726SOL    HW2 5637   0.267   3.263   5.960
 1727SOL     OW 5638   0.105   2.875   7.312
 1727SOL    HW1 5639   0.028   2.842   7.366
 1727SOL    HW2 5640   0.190   2.845   7.354
 1728SOL     OW 5641   0.672   2.065   7.075
 1728SOL    HW1 5642   0.762   2.049   7.035
 1728SOL    HW2 5643   0.680   2.070   7.174
 1729SOL     OW 5644   0.075   2.207   5.619
 1729SOL    HW1 5645  -0.017   2.179   5.590
 1729SOL    HW2 5646   0.106   2.284   5.563
 1730SOL     OW 5647   1.440   2.718   6.984
 1730SOL    HW1 5648   1.383   2.770   6.921
 1730SOL    HW2 5649   1.536   2.730   6.960
 1731SOL     OW 5650   0.072   2.028   5.904
 1731SOL    HW1 5651   0.055   2.111   5.850
 1731SOL    HW2 5652   0.162   1.991   5.882
 1732SOL     OW 5653   1.183   3.197   5.705
 1732SOL    HW1 5654   1.084   3.186   5.707
 1732SOL    HW2 5655   1.217   3.212   5.798
 1733SOL     OW 5656   0.613   2.704   7.017
 1733SOL    HW1 5657   0.669   2.785   7.000
 1733SOL    HW2 5658   0.672   2.624   7.020
 1734SOL     OW 5659   1.493   3.629   6.545
 1734SOL    HW1 5660   1.526   3.693   6.476
 1734SOL    HW2 5661   1.559   3.623   6.620
 1735SOL     OW 5662   0.716   2.427   7.294
 1735SOL    HW1 5663   0.735   2.492   7.368
 1735SOL    HW2 5664   0.776   2.347   7.303
 1736SOL     OW 5665   1.450   3.082   7.219
 1736SOL    HW1 5666   1.441   3.072   7.318
 1736SOL    HW2 5667   1.546   3.075   7.193
 1737SOL     OW 5668   0.390   3.603   7.146
 1737SOL    HW1 5669   0.299   3.644   7.144
 1737SOL    HW2 5670   0.383   3.509   7.178
 1738SOL     OW 5671   1.674   2.745   6.840
 1738SOL    HW1 5672   1.647   2.656   6.803
 1738SOL    HW2 5673   1.675   2.813   6.767
 1739SOL     OW 5674   1.225   2.187   6.035
 1739SOL    HW1 5675   1.290   2.113   6.024
 1739SOL    HW2 5676   1.245   2.237   6.119
 1740SOL     OW 5677   0.594   2.607   6.238
 1740SOL    HW1 5678   0.644   2.692   6.219
 1740SOL    HW2 5679   0.506   2.609   6.190
 1741SOL     OW 5680   1.777   2.204   7.228
 1741SOL    HW1 5681   1.760   2.235   7.134
 1741SOL    HW2 5682   1.693   2.167   7.266
 1742SOL     OW 5683   1.730   2.796   7.103
 1742SOL    HW1 5684   1.768   2.887   7.118
 1742SOL    HW2 5685   1.722   2.779   7.004
 1743SOL     OW 5686   0.859   3.236   5.602
 1743SOL    HW1 5687   0.813   3.251   5.690
 1743SOL    HW2 5688   0.903   3.321   5.572
 1744SOL     OW 5689   0.661   3.652   6.539
 1744SOL    HW1 5690   0.615   3.740   6.526
 1744SOL    HW2 5691   0.760   3.664   6.532
 1745SOL     OW 5692   0.859   2.818   6.447
 1745SOL    HW1 5693   0.913   2.749   6.495
 1745SOL    HW2 5694   0.827   2.887   6.513
 1746SOL     OW 5695   1.083   2.846   5.673
 1746SOL    HW1 5696   1.060   2.899   5.591
 1746SOL    HW2 5697   1.164   2.790   5.654
 1747SOL     OW 5698   1.861   3.431   6.437
 1747SOL    HW1 5699   1.790   3.419   6.367
 1747SOL    HW2 5700   1.862   3.352   6.497
 1748SOL     OW 5701   0.221   3.176   7.430
 1748SOL    HW1 5702   0.156   3.103   7.409
 1748SOL    HW2 5703   0.225   3.190   7.528
 1749SOL     OW 5704   0.079   3.102   6.239
 1749SOL    HW1 5705   0.078   3.055   6.327
 1749SOL    HW2 5706   0.161   3.074   6.188
 1750SOL     OW 5707   0.672   3.253   7.210
 1750SOL    HW1 5708   0.594   3.203   7.248
 1750SOL    HW2 5709   0.669   3.348   7.241
 1751SOL     OW 5710   1.824   2.054   6.813
 1751SOL    HW1 5711   1.820   1.964   6.857
 1751SOL    HW2 5712   1.827   2.043   6.714
 1752SOL     OW 5713   0.428   2.286   6.106
 1752SOL    HW1 5714   0.458   2.214   6.044
 1752SOL    HW2 5715   0.389   2.246   6.189
 1753SOL     OW 5716   1.705   3.349   6.690
 1753SOL    HW1 5717   1.612   3.324   6.663
 1753SOL    HW2 5718   1.731   3.299   6.772
 1754SOL     OW 5719   0.317   2.409   6.866
 1754SOL    HW1 5720   0.355   2.350   6.938
 1754SOL    HW2 5721   0.357   2.383   6.778
 1755SOL     OW 5722   0.812   3.448   6.273
 1755SOL    HW1 5723   0.844   3.458   6.179
 1755SOL    HW2 5724   0.733   3.386   6.275
 1756SOL     OW 5725   1.424   2.076   6.698
 1756SOL    HW1 5726   1.476   2.011   6.753
 1756SOL    HW2 5727   1.375   2.139   6.759
 1757SOL     OW 5728   1.001   1.896   6.740
 1757SOL    HW1 5729   0.938   1.824   6.709
 1757SOL    HW2 5730   1.094   1.860   6.740
 1758SOL     OW 5731   0.770   3.192   5.887
 1758SOL    HW1 5732   0.724   3.105   5.904
 1758SOL    HW2 5733   0.861   3.189   5.928
 1759SOL     OW 5734   0.618   3.429   6.870
 1759SOL    HW1 5735   0.613   3.511   6.927
 1759SOL    HW2 5736   0.707   3.426   6.825
 1760SOL     OW 5737   1.352   1.914   5.754
 1760SOL    HW1 5738   1.387   1.873   5.670
 1760SOL    HW2 5739   1.262   1.876   5.774
 1761SOL     OW 5740   1.300   2.315   6.277
 1761SOL    HW1 5741   1.241   2.395   6.281
 1761SOL    HW2 5742   1.315   2.280   6.370
 1762SOL     OW 5743   1.593   2.083   6.468
 1762SOL    HW1 5744   1.509   2.082   6.522
 1762SOL    HW2 5745   1.595   2.166   6.412
 1763SOL     OW 5746   0.039   2.939   5.886
 1763SOL    HW1 5747   0.138   2.928   5.877
 1763SOL    HW2 5748  -0.001   2.853   5.918
 1764SOL     OW 5749   0.875   3.508   5.923
 1764SOL    HW1 5750   0.798   3.473   5.869
 1764SOL    HW2 5751   0.843   3.579   5.985
 1765SOL     OW 5752   0.230   2.490   7.561
 1765SOL    HW1 5753   0.137   2.488   7.598
 1765SOL    HW2 5754   0.231   2.451   7.469
 1766SOL     OW 5755   1.755   2.469   7.679
 1766SOL    HW1 5756   1.743   2.456   7.580
 1766SOL    HW2 5757   1.725   2.388   7.728
 1767SOL     OW 5758   0.231   3.575   7.931
 1767SOL    HW1 5759   0.265   3.652   7.985
 1767SOL    HW2 5760   0.275   3.575   7.841
 1768SOL     OW 5761   0.230   3.296   7.986
 1768SOL    HW1 5762   0.204   3.392   7.986
 1768SOL    HW2 5763   0.159   3.242   8.031
 1769SOL     OW 5764   0.606   2.826   7.571
 1769SOL    HW1 5765   0.613   2.910   7.517
 1769SOL    HW2 5766   0.652   2.839   7.659
 1770SOL     OW 5767   1.842   3.629   7.807
 1770SOL    HW1 5768   1.896   3.600   7.887
 1770SOL    HW2 5769   1.872   3.719   7.778
 1771SOL     OW 5770   0.027   3.458   7.565
 1771SOL    HW1 5771   0.008   3.362   7.586
 1771SOL    HW2 5772  -0.006   3.516   7.640
 1772SOL     OW 5773   1.689   2.784   8.060
 1772SOL    HW1 5774   1.784   2.755   8.068
 1772SOL    HW2 5775   1.681   2.849   7.985
 1773SOL     OW 5776   1.641   2.970   7.880
 1773SOL    HW1 5777   1.727   2.972   7.828
 1773SOL    HW2 5778   1.655   3.017   7.968
 1774SOL     OW 5779   0.809   1.866   7.950
 1774SOL    HW1 5780   0.849   1.957   7.941
 1774SOL    HW2 5781   0.709   1.874   7.956
 1775SOL     OW 5782   1.525   2.861   7.638
 1775SOL    HW1 5783   1.462   2.785   7.651
 1775SOL    HW2 5784   1.573   2.879   7.724
 1776SOL     OW 5785   0.598   2.591   7.718
 1776SOL    HW1 5786   0.622   2.660   7.650
 1776SOL    HW2 5787   0.520   2.624   7.772
 1777SOL     OW 5788   1.576   3.524   7.755
 1777SOL    HW1 5789   1.665   3.570   7.758
 1777SOL    HW2 5790   1.555   3.500   7.660
 1778SOL     OW 5791   0.076   2.673   8.237
 1778SOL    HW1 5792   0.175   2.661   8.246
 1778SOL    HW2 5793   0.052   2.768   8.258
 1779SOL     OW 5794   0.865   2.210   7.643
 1779SOL    HW1 5795   0.924   2.273   7.594
 1779SOL    HW2 5796   0.884   2.116   7.614
 1780SOL     OW 5797   0.321   2.805   7.690
 1780SOL    HW1 5798   0.403   2.844   7.648
 1780SOL    HW2 5799   0.294   2.723   7.641
 1781SOL     OW 5800   1.111   3.638   7.685
 1781SOL    HW1 5801   1.051   3.576   7.735
 1781SOL    HW2 5802   1.142   3.594   7.600
 1782SOL     OW 5803   1.632   3.239   7.529
 1782SOL    HW1 5804   1.600   3.333   7.519
 1782SOL    HW2 5805   1.556   3.176   7.517
 1783SOL     OW 5806   0.464   3.605   7.771
 1783SOL    HW1 5807   0.497   3.644   7.857
 1783SOL    HW2 5808   0.540   3.598   7.706
 1784SOL     OW 5809   1.400   1.969   7.874
 1784SOL    HW1 5810   1.376   1.932   7.784
 1784SOL    HW2 5811   1.499   1.985   7.878
 1785SOL     OW 5812   0.382   2.562   7.928
 1785SOL    HW1 5813   0.427   2.472   7.925
 1785SOL    HW2 5814   0.288   2.551   7.961
 1786SOL     OW 5815   0.614   1.984   7.565
 1786SOL    HW1 5816   0.712   1.962   7.572
 1786SOL    HW2 5817   0.583   1.967   7.472
 1787SOL     OW 5818   0.539   1.926   7.960
 1787SOL    HW1 5819   0.458   1.927   8.018
 1787SOL    HW2 5820   0.542   2.009   7.905
 1788SOL     OW 5821   1.434   3.050   7.489
 1788SOL    HW1 5822   1.466   2.974   7.546
 1788SOL    HW2 5823   1.342   3.077   7.519
 1789SOL     OW 5824   0.297   1.897   7.619
 1789SOL    HW1 5825   0.346   1.981   7.598
 1789SOL    HW2 5826   0.359   1.832   7.664
 1790SOL     OW 5827   0.935   2.098   7.928
 1790SOL    HW1 5828   0.887   2.139   7.850
 1790SOL    HW2 5829   1.034   2.096   7.909
 1791SOL     OW 5830   0.459   3.014   8.189
 1791SOL    HW1 5831   0.388   2.987   8.254
 1791SOL    HW2 5832   0.433   2.986   8.096
 1792SOL     OW 5833   1.271   3.659   8.039
 1792SOL    HW1 5834   1.315   3.723   7.975
 1792SOL    HW2 5835   1.221   3.711   8.109
 1793SOL     OW 5836   1.032   2.411   7.464
 1793SOL    HW1 5837   0.991   2.493   7.425
 1793SOL    HW2 5838   1.096   2.437   7.537
 1794SOL     OW 5839   1.857   2.695   7.825
 1794SOL    HW1 5840   1.899   2.631   7.889
 1794SOL    HW2 5841   1.819   2.644   7.747
 1795SOL     OW 5842   0.488   3.247   7.622
 1795SOL    HW1 5843   0.401   3.232   7.669
 1795SOL    HW2 5844   0.471   3.273   7.527
 1796SOL     OW 5845   1.390   2.437   7.526
 1796SOL    HW1 5846   1.336   2.416   7.607
 1796SOL    HW2 5847   1.481   2.396   7.535
 1797SOL     OW 5848   0.527   2.118   7.776
 1797SOL    HW1 5849   0.554   2.059   7.701
 1797SOL    HW2 5850   0.527   2.213   7.745
 1798SOL     OW 5851   0.705   2.912   7.816
 1798SOL    HW1 5852   0.691   2.919   7.915
 1798SOL    HW2 5853   0.789   2.861   7.798
 1799SOL     OW 5854   0.367   2.962   7.949
 1799SOL    HW1 5855   0.360   3.045   7.893
 1799SOL    HW2 5856   0.371   2.882   7.889
 1800SOL     OW 5857   1.252   3.210   7.836
 1800SOL    HW1 5858   1.302   3.287   7.876
 1800SOL    HW2 5859   1.157   3.212   7.868
 1801SOL     OW 5860   1.582   2.501   7.920
 1801SOL    HW1 5861   1.551   2.562   7.993
 1801SOL    HW2 5862   1.632   2.553   7.851
 1802SOL     OW 5863   1.209   2.387   7.723
 1802SOL    HW1 5864   1.222   2.303   7.777
 1802SOL    HW2 5865   1.180   2.461   7.783
 1803SOL     OW 5866   1.622   2.229   7.822
 1803SOL    HW1 5867   1.624   2.153   7.886
 1803SOL    HW2 5868   1.574   2.306   7.862
 1804SOL     OW 5869   1.540   2.136   7.573
 1804SOL    HW1 5870   1.479   2.061   7.596
 1804SOL    HW2 5871   1.562   2.188   7.656
 1805SOL     OW 5872   1.303   2.700   7.490
 1805SOL    HW1 5873   1.337   2.607   7.505
 1805SOL    HW2 5874   1.321   2.727   7.395
 1806SOL     OW 5875   0.008   3.188   7.648
 1806SOL    HW1 5876  -0.085   3.209   7.617
 1806SOL    HW2 5877   0.018   3.089   7.661
 1807SOL     OW 5878   0.815   2.434   7.773
 1807SOL    HW1 5879   0.822   2.345   7.727
 1807SOL    HW2 5880   0.721   2.468   7.765
 1808SOL     OW 5881   0.473   2.362   7.639
 1808SOL    HW1 5882   0.534   2.442   7.643
 1808SOL    HW2 5883   0.378   2.393   7.646
 1809SOL     OW 5884   1.302   2.717   7.757
 1809SOL    HW1 5885   1.216   2.686   7.799
 1809SOL    HW2 5886   1.298   2.703   7.658
 1810SOL     OW 5887   1.726   1.997   7.971
 1810SOL    HW1 5888   1.799   1.980   7.904
 1810SOL    HW2 5889   1.695   1.910   8.009
 1811SOL     OW 5890   1.388   3.435   7.925
 1811SOL    HW1 5891   1.455   3.447   7.851
 1811SOL    HW2 5892   1.348   3.524   7.948
 1812SOL     OW 5893   0.672   3.478   7.602
 1812SOL    HW1 5894   0.681   3.488   7.503
 1812SOL    HW2 5895   0.632   3.389   7.623
 1813SOL     OW 5896   1.194   3.474   7.479
 1813SOL    HW1 5897   1.200   3.381   7.516
 1813SOL    HW2 5898   1.135   3.474   7.399
 1814SOL     OW 5899   0.916   2.772   7.739
 1814SOL    HW1 5900   0.979   2.810   7.671
 1814SOL    HW2 5901   0.956   2.689   7.778
 1815SOL     OW 5902   1.504   3.469   7.492
 1815SOL    HW1 5903   1.412   3.506   7.499
 1815SOL    HW2 5904   1.542   3.489   7.402
 1816SOL     OW 5905   0.590   3.349   7.939
 1816SOL    HW1 5906   0.632   3.291   7.869
 1816SOL    HW2 5907   0.546   3.428   7.895
 1817SOL     OW 5908   0.255   3.210   7.738
 1817SOL    HW1 5909   0.159   3.211   7.711
 1817SOL    HW2 5910   0.267   3.263   7.822
 1818SOL     OW 5911   0.075   2.207   7.481
 1818SOL    HW1 5912  -0.017   2.179   7.452
 1818SOL    HW2 5913   0.106   2.284   7.425
 1819SOL     OW 5914   0.072   2.028   7.766
 1819SOL    HW1 5915   0.055   2.111   7.712
 1819SOL    HW2 5916   0.162   1.991   7.744
 1820SOL     OW 5917   1.183   3.197   7.567
 1820SOL    HW1 5918   1.084   3.186   7.569
 1820SOL    HW2 5919   1.217   3.212   7.660
 1821SOL     OW 5920   1.225   2.187   7.897
 1821SOL    HW1 5921   1.290   2.113   7.886
 1821SOL    HW2 5922   1.245   2.237   7.981
 1822SOL     OW 5923   0.594   2.607   8.100
 1822SOL    HW1 5924   0.644   2.692   8.081
 1822SOL    HW2 5925   0.506   2.609   8.052
 1823SOL     OW 5926   0.859   3.236   7.464
 1823SOL    HW1 5927   0.813   3.251   7.552
 1823SOL    HW2 5928   0.903   3.321   7.434
 1824SOL     OW 5929   1.083   2.846   7.535
 1824SOL    HW1 5930   1.060   2.899   7.453
 1824SOL    HW2 5931   1.164   2.790   7.516
 1825SOL     OW 5932   0.428   2.286   7.968
 1825SOL    HW1 5933   0.458   2.214   7.906
 1825SOL    HW2 5934   0.389   2.246   8.051
 1826SOL     OW 5935   0.770   3.192   7.749
 1826SOL    HW1 5936   0.724   3.105   7.766
 1826SOL    HW2 5937   0.861   3.189   7.790
 1827SOL     OW 5938   1.352   1.914   7.616
 1827SOL    HW1 5939   1.387   1.873   7.532
 1827SOL    HW2 5940   1.262   1.876   7.636
 1828SOL     OW 5941   0.039   2.939   7.748
 1828SOL    HW1 5942   0.138   2.928   7.739
 1828SOL    HW2 5943  -0.001   2.853   7.780
 1829SOL     OW 5944   0.875   3.508   7.785
 1829SOL    HW1 5945   0.798   3.473   7.731
 1829SOL    HW2 5946   0.843   3.579   7.847
 1830SOL     OW 5947   0.230   4.352   0.113
 1830SOL    HW1 5948   0.137   4.350   0.150
 1830SOL    HW2 5949   0.231   4.313   0.021
 1831SOL     OW 5950   0.225   3.999   0.996
 1831SOL    HW1 5951   0.260   3.982   1.088
 1831SOL    HW2 5952   0.137   3.954   0.984
 1832SOL     OW 5953   0.019   4.092   0.647
 1832SOL    HW1 5954  -0.063   4.135   0.686
 1832SOL    HW2 5955  -0.009   4.019   0.584
 1833SOL     OW 5956   0.569   4.999   1.165
 1833SOL    HW1 5957   0.476   4.992   1.128
 1833SOL    HW2 5958   0.580   5.088   1.209
 1834SOL     OW 5959   1.555   5.235   0.703
 1834SOL    HW1 5960   1.498   5.219   0.784
 1834SOL    HW2 5961   1.496   5.245   0.623
 1835SOL     OW 5962   1.135   4.427   0.717
 1835SOL    HW1 5963   1.192   4.505   0.692
 1835SOL    HW2 5964   1.075   4.453   0.793
 1836SOL     OW 5965   1.755   4.331   0.231
 1836SOL    HW1 5966   1.743   4.318   0.132
 1836SOL    HW2 5967   1.725   4.250   0.280
 1837SOL     OW 5968   0.768   4.868   1.023
 1837SOL    HW1 5969   0.690   4.885   1.083
 1837SOL    HW2 5970   0.802   4.955   0.987
 1838SOL     OW 5971   0.850   4.522   1.823
 1838SOL    HW1 5972   0.846   4.598   1.888
 1838SOL    HW2 5973   0.872   4.558   1.732
 1839SOL     OW 5974   0.685   4.736   0.665
 1839SOL    HW1 5975   0.754   4.720   0.735
 1839SOL    HW2 5976   0.612   4.793   0.703
 1840SOL     OW 5977   0.686   4.885   1.803
 1840SOL    HW1 5978   0.746   4.964   1.817
 1840SOL    HW2 5979   0.600   4.916   1.762
 1841SOL     OW 5980   0.335   5.159   1.061
 1841SOL    HW1 5981   0.257   5.128   1.008
 1841SOL    HW2 5982   0.393   5.217   1.004
 1842SOL     OW 5983   1.460   5.229   1.339
 1842SOL    HW1 5984   1.484   5.323   1.365
 1842SOL    HW2 5985   1.444   5.175   1.421
 1843SOL     OW 5986   0.438   4.116   1.499
 1843SOL    HW1 5987   0.520   4.060   1.508
 1843SOL    HW2 5988   0.357   4.058   1.503
 1844SOL     OW 5989   1.603   4.171   0.737
 1844SOL    HW1 5990   1.529   4.217   0.687
 1844SOL    HW2 5991   1.654   4.239   0.790
 1845SOL     OW 5992   1.127   5.065   1.690
 1845SOL    HW1 5993   1.174   5.065   1.778
 1845SOL    HW2 5994   1.079   4.978   1.679
 1846SOL     OW 5995   0.230   5.158   0.538
 1846SOL    HW1 5996   0.204   5.254   0.538
 1846SOL    HW2 5997   0.159   5.104   0.583
 1847SOL     OW 5998   0.240   4.815   0.886
 1847SOL    HW1 5999   0.254   4.731   0.938
 1847SOL    HW2 6000   0.185   4.879   0.941
 1848SOL     OW 6001   0.606   4.688   0.123
 1848SOL    HW1 6002   0.613   4.772   0.069
 1848SOL    HW2 6003   0.652   4.701   0.211
 1849SOL     OW 6004   1.594   3.838   1.480
 1849SOL    HW1 6005   1.576   3.905   1.408
 1849SOL    HW2 6006   1.591   3.884   1.569
 1850SOL     OW 6007   0.122   4.367   0.563
 1850SOL    HW1 6008   0.077   4.279   0.580
 1850SOL    HW2 6009   0.121   4.421   0.647
 1851SOL     OW 6010   0.027   5.320   0.117
 1851SOL    HW1 6011   0.008   5.224   0.138
 1851SOL    HW2 6012  -0.006   5.378   0.192
 1852SOL     OW 6013   1.689   4.646   0.612
 1852SOL    HW1 6014   1.784   4.617   0.620
 1852SOL    HW2 6015   1.681   4.711   0.537
 1853SOL     OW 6016   1.641   4.832   0.432
 1853SOL    HW1 6017   1.727   4.834   0.380
 1853SOL    HW2 6018   1.655   4.879   0.520
 1854SOL     OW 6019   0.113   4.461   1.597
 1854SOL    HW1 6020   0.201   4.448   1.642
 1854SOL    HW2 6021   0.100   4.558   1.575
 1855SOL     OW 6022   0.613   5.089   0.726
 1855SOL    HW1 6023   0.564   5.002   0.735
 1855SOL    HW2 6024   0.590   5.132   0.639
 1856SOL     OW 6025   1.293   4.952   1.423
 1856SOL    HW1 6026   1.330   4.879   1.365
 1856SOL    HW2 6027   1.345   4.957   1.508
 1857SOL     OW 6028   0.809   3.728   0.502
 1857SOL    HW1 6029   0.849   3.819   0.493
 1857SOL    HW2 6030   0.709   3.736   0.508
 1858SOL     OW 6031   0.197   4.700   1.264
 1858SOL    HW1 6032   0.286   4.655   1.250
 1858SOL    HW2 6033   0.124   4.635   1.245
 1859SOL     OW 6034   1.525   4.723   0.190
 1859SOL    HW1 6035   1.462   4.647   0.203
 1859SOL    HW2 6036   1.573   4.741   0.276
 1860SOL     OW 6037   0.317   3.975   1.801
 1860SOL    HW1 6038   0.388   4.046   1.807
 1860SOL    HW2 6039   0.229   4.014   1.829
 1861SOL     OW 6040   1.466   5.141   0.953
 1861SOL    HW1 6041   1.407   5.147   1.033
 1861SOL    HW2 6042   1.451   5.053   0.907
 1862SOL     OW 6043   0.598   4.453   0.270
 1862SOL    HW1 6044   0.622   4.522   0.202
 1862SOL    HW2 6045   0.520   4.486   0.324
 1863SOL     OW 6046   1.281   4.069   0.944
 1863SOL    HW1 6047   1.195   4.019   0.931
 1863SOL    HW2 6048   1.343   4.015   1.000
 1864SOL     OW 6049   0.807   4.329   1.465
 1864SOL    HW1 6050   0.760   4.326   1.554
 1864SOL    HW2 6051   0.756   4.274   1.399
 1865SOL     OW 6052   1.394   4.193   1.674
 1865SOL    HW1 6053   1.374   4.236   1.762
 1865SOL    HW2 6054   1.472   4.131   1.683
 1866SOL     OW 6055   0.973   4.614   1.572
 1866SOL    HW1 6056   1.019   4.530   1.543
 1866SOL    HW2 6057   0.917   4.648   1.497
 1867SOL     OW 6058   0.991   4.134   1.242
 1867SOL    HW1 6059   0.914   4.168   1.296
 1867SOL    HW2 6060   0.957   4.083   1.163
 1868SOL     OW 6061   1.041   4.425   0.429
 1868SOL    HW1 6062   1.067   4.421   0.525
 1868SOL    HW2 6063   0.956   4.374   0.415
 1869SOL     OW 6064   0.076   4.535   0.789
 1869SOL    HW1 6065   0.175   4.523   0.798
 1869SOL    HW2 6066   0.052   4.630   0.810
 1870SOL     OW 6067   0.865   4.072   0.195
 1870SOL    HW1 6068   0.924   4.135   0.146
 1870SOL    HW2 6069   0.884   3.978   0.166
 1871SOL     OW 6070   1.719   4.309   1.831
 1871SOL    HW1 6071   1.693   4.398   1.795
 1871SOL    HW2 6072   1.717   4.241   1.758
 1872SOL     OW 6073   1.362   4.868   0.545
 1872SOL    HW1 6074   1.445   4.839   0.497
 1872SOL    HW2 6075   1.313   4.935   0.489
 1873SOL     OW 6076   0.550   3.920   0.885
 1873SOL    HW1 6077   0.545   3.915   0.985
 1873SOL    HW2 6078   0.552   4.016   0.856
 1874SOL     OW 6079   1.008   5.180   0.477
 1874SOL    HW1 6080   0.962   5.252   0.425
 1874SOL    HW2 6081   1.004   5.200   0.575
 1875SOL     OW 6082   1.795   4.790   0.873
 1875SOL    HW1 6083   1.733   4.775   0.797
 1875SOL    HW2 6084   1.743   4.801   0.958
 1876SOL     OW 6085   1.227   5.274   1.506
 1876SOL    HW1 6086   1.233   5.197   1.570
 1876SOL    HW2 6087   1.175   5.248   1.426
 1877SOL     OW 6088   0.321   4.667   0.242
 1877SOL    HW1 6089   0.403   4.706   0.200
 1877SOL    HW2 6090   0.294   4.585   0.193
 1878SOL     OW 6091   1.458   4.459   0.728
 1878SOL    HW1 6092   1.453   4.394   0.803
 1878SOL    HW2 6093   1.538   4.518   0.741
 1879SOL     OW 6094   0.461   4.990   1.727
 1879SOL    HW1 6095   0.411   4.991   1.641
 1879SOL    HW2 6096   0.398   4.972   1.803
 1880SOL     OW 6097   1.111   5.500   0.237
 1880SOL    HW1 6098   1.051   5.438   0.287
 1880SOL    HW2 6099   1.142   5.456   0.152
 1881SOL     OW 6100   0.202   4.009   1.498
 1881SOL    HW1 6101   0.122   4.069   1.485
 1881SOL    HW2 6102   0.192   3.960   1.584
 1882SOL     OW 6103   1.632   5.101   0.081
 1882SOL    HW1 6104   1.600   5.195   0.071
 1882SOL    HW2 6105   1.556   5.038   0.069
 1883SOL     OW 6106   1.400   3.831   0.426
 1883SOL    HW1 6107   1.376   3.794   0.336
 1883SOL    HW2 6108   1.499   3.847   0.430
 1884SOL     OW 6109   0.382   4.424   0.480
 1884SOL    HW1 6110   0.427   4.334   0.477
 1884SOL    HW2 6111   0.288   4.413   0.513
 1885SOL     OW 6112   1.547   3.946   1.729
 1885SOL    HW1 6113   1.542   3.983   1.821
 1885SOL    HW2 6114   1.475   3.877   1.717
 1886SOL     OW 6115   0.614   3.846   0.117
 1886SOL    HW1 6116   0.712   3.824   0.124
 1886SOL    HW2 6117   0.583   3.829   0.024
 1887SOL     OW 6118   0.781   3.988   1.749
 1887SOL    HW1 6119   0.848   3.927   1.792
 1887SOL    HW2 6120   0.708   4.007   1.814
 1888SOL     OW 6121   1.351   4.314   1.433
 1888SOL    HW1 6122   1.379   4.271   1.518
 1888SOL    HW2 6123   1.376   4.410   1.434
 1889SOL     OW 6124   0.803   5.126   0.924
 1889SOL    HW1 6125   0.893   5.140   0.882
 1889SOL    HW2 6126   0.732   5.128   0.853
 1890SOL     OW 6127   0.922   4.227   0.899
 1890SOL    HW1 6128   0.897   4.218   0.803
 1890SOL    HW2 6129   0.970   4.145   0.930
 1891SOL     OW 6130   0.539   3.788   0.512
 1891SOL    HW1 6131   0.458   3.789   0.570
 1891SOL    HW2 6132   0.542   3.871   0.457
 1892SOL     OW 6133   1.434   4.912   0.041
 1892SOL    HW1 6134   1.466   4.836   0.098
 1892SOL    HW2 6135   1.342   4.939   0.071
 1893SOL     OW 6136   0.297   3.759   0.171
 1893SOL    HW1 6137   0.346   3.843   0.150
 1893SOL    HW2 6138   0.359   3.694   0.216
 1894SOL     OW 6139   0.935   3.960   0.480
 1894SOL    HW1 6140   0.887   4.001   0.402
 1894SOL    HW2 6141   1.034   3.958   0.461
 1895SOL     OW 6142   1.076   4.407   1.464
 1895SOL    HW1 6143   0.996   4.346   1.467
 1895SOL    HW2 6144   1.157   4.354   1.440
 1896SOL     OW 6145   1.227   5.294   0.793
 1896SOL    HW1 6146   1.248   5.368   0.728
 1896SOL    HW2 6147   1.295   5.294   0.866
 1897SOL     OW 6148   0.459   4.876   0.741
 1897SOL    HW1 6149   0.388   4.849   0.806
 1897SOL    HW2 6150   0.433   4.848   0.648
 1898SOL     OW 6151   1.032   4.273   0.016
 1898SOL    HW1 6152   0.991   4.355  -0.023
 1898SOL    HW2 6153   1.096   4.299   0.089
 1899SOL     OW 6154   0.078   4.280   1.386
 1899SOL    HW1 6155   0.170   4.279   1.345
 1899SOL    HW2 6156   0.072   4.354   1.453
 1900SOL     OW 6157   0.561   3.946   1.147
 1900SOL    HW1 6158   0.599   3.862   1.184
 1900SOL    HW2 6159   0.473   3.965   1.191
 1901SOL     OW 6160   0.866   4.178   0.642
 1901SOL    HW1 6161   0.834   4.250   0.580
 1901SOL    HW2 6162   0.890   4.097   0.589
 1902SOL     OW 6163   1.017   3.763   0.753
 1902SOL    HW1 6164   0.945   3.768   0.684
 1902SOL    HW2 6165   0.993   3.694   0.822
 1903SOL     OW 6166   1.429   4.897   0.867
 1903SOL    HW1 6167   1.374   4.813   0.860
 1903SOL    HW2 6168   1.455   4.926   0.775
 1904SOL     OW 6169   1.466   4.314   0.992
 1904SOL    HW1 6170   1.436   4.219   0.999
 1904SOL    HW2 6171   1.539   4.330   1.058
 1905SOL     OW 6172   1.857   4.557   0.377
 1905SOL    HW1 6173   1.899   4.493   0.441
 1905SOL    HW2 6174   1.819   4.506   0.299
 1906SOL     OW 6175   0.488   5.109   0.174
 1906SOL    HW1 6176   0.401   5.094   0.221
 1906SOL    HW2 6177   0.471   5.135   0.079
 1907SOL     OW 6178   1.664   5.004   0.657
 1907SOL    HW1 6179   1.763   5.012   0.671
 1907SOL    HW2 6180   1.619   5.088   0.688
 1908SOL     OW 6181   1.390   4.299   0.078
 1908SOL    HW1 6182   1.336   4.278   0.159
 1908SOL    HW2 6183   1.481   4.258   0.087
 1909SOL     OW 6184   0.527   3.980   0.328
 1909SOL    HW1 6185   0.554   3.921   0.253
 1909SOL    HW2 6186   0.527   4.075   0.297
 1910SOL     OW 6187   1.754   4.947   1.588
 1910SOL    HW1 6188   1.845   4.908   1.575
 1910SOL    HW2 6189   1.762   5.043   1.612
 1911SOL     OW 6190   1.064   5.071   1.340
 1911SOL    HW1 6191   0.984   5.048   1.395
 1911SOL    HW2 6192   1.147   5.045   1.389
 1912SOL     OW 6193   1.111   4.919   1.100
 1912SOL    HW1 6194   1.071   4.963   1.181
 1912SOL    HW2 6195   1.070   4.956   1.017
 1913SOL     OW 6196   1.638   4.823   1.079
 1913SOL    HW1 6197   1.643   4.904   1.138
 1913SOL    HW2 6198   1.552   4.825   1.028
 1914SOL     OW 6199   0.915   3.813   1.402
 1914SOL    HW1 6200   0.940   3.793   1.307
 1914SOL    HW2 6201   0.987   3.869   1.444
 1915SOL     OW 6202   0.980   4.840   1.719
 1915SOL    HW1 6203   0.881   4.846   1.729
 1915SOL    HW2 6204   1.003   4.760   1.663
 1916SOL     OW 6205   0.705   4.774   0.368
 1916SOL    HW1 6206   0.691   4.781   0.467
 1916SOL    HW2 6207   0.789   4.723   0.350
 1917SOL     OW 6208   0.410   4.537   1.251
 1917SOL    HW1 6209   0.496   4.549   1.301
 1917SOL    HW2 6210   0.368   4.450   1.278
 1918SOL     OW 6211   1.274   4.110   1.262
 1918SOL    HW1 6212   1.295   4.184   1.326
 1918SOL    HW2 6213   1.185   4.127   1.219
 1919SOL     OW 6214   0.064   5.288   1.331
 1919SOL    HW1 6215   0.018   5.370   1.297
 1919SOL    HW2 6216   0.162   5.307   1.340
 1920SOL     OW 6217   0.367   4.824   0.501
 1920SOL    HW1 6218   0.360   4.907   0.445
 1920SOL    HW2 6219   0.371   4.744   0.441
 1921SOL     OW 6220   0.566   4.261   0.865
 1921SOL    HW1 6221   0.578   4.327   0.791
 1921SOL    HW2 6222   0.612   4.295   0.948
 1922SOL     OW 6223   1.252   5.072   0.388
 1922SOL    HW1 6224   1.302   5.149   0.428
 1922SOL    HW2 6225   1.157   5.074   0.420
 1923SOL     OW 6226   1.272   5.169   1.142
 1923SOL    HW1 6227   1.319   5.182   1.229
 1923SOL    HW2 6228   1.206   5.095   1.151
 1924SOL     OW 6229   1.582   4.363   0.472
 1924SOL    HW1 6230   1.551   4.424   0.545
 1924SOL    HW2 6231   1.632   4.415   0.403
 1925SOL     OW 6232   0.354   5.234   1.329
 1925SOL    HW1 6233   0.333   5.190   1.242
 1925SOL    HW2 6234   0.451   5.260   1.332
 1926SOL     OW 6235   0.402   4.475   1.598
 1926SOL    HW1 6236   0.470   4.530   1.551
 1926SOL    HW2 6237   0.442   4.387   1.625
 1927SOL     OW 6238   1.587   4.503   1.670
 1927SOL    HW1 6239   1.495   4.541   1.665
 1927SOL    HW2 6240   1.647   4.550   1.605
 1928SOL     OW 6241   1.013   3.829   1.770
 1928SOL    HW1 6242   1.019   3.914   1.718
 1928SOL    HW2 6243   1.045   3.753   1.713
 1929SOL     OW 6244   0.504   3.774   1.740
 1929SOL    HW1 6245   0.462   3.717   1.670
 1929SOL    HW2 6246   0.438   3.843   1.772
 1930SOL     OW 6247   0.573   4.594   1.029
 1930SOL    HW1 6248   0.617   4.683   1.020
 1930SOL    HW2 6249   0.510   4.594   1.106
 1931SOL     OW 6250   1.360   4.586   1.045
 1931SOL    HW1 6251   1.285   4.586   0.979
 1931SOL    HW2 6252   1.397   4.494   1.054
 1932SOL     OW 6253   1.209   4.249   0.275
 1932SOL    HW1 6254   1.222   4.165   0.329
 1932SOL    HW2 6255   1.180   4.323   0.335
 1933SOL     OW 6256   0.307   3.937   1.231
 1933SOL    HW1 6257   0.284   3.974   1.321
 1933SOL    HW2 6258   0.277   3.842   1.225
 1934SOL     OW 6259   0.037   5.034   1.282
 1934SOL    HW1 6260   0.090   4.985   1.350
 1934SOL    HW2 6261   0.059   5.132   1.287
 1935SOL     OW 6262   0.732   4.358   1.064
 1935SOL    HW1 6263   0.791   4.332   0.988
 1935SOL    HW2 6264   0.704   4.454   1.053
 1936SOL     OW 6265   1.728   4.659   1.854
 1936SOL    HW1 6266   1.682   4.652   1.765
 1936SOL    HW2 6267   1.666   4.703   1.920
 1937SOL     OW 6268   0.307   3.787   0.618
 1937SOL    HW1 6269   0.296   3.881   0.651
 1937SOL    HW2 6270   0.302   3.724   0.695
 1938SOL     OW 6271   1.622   4.091   0.374
 1938SOL    HW1 6272   1.624   4.015   0.438
 1938SOL    HW2 6273   1.574   4.168   0.414
 1939SOL     OW 6274   1.023   4.490   0.966
 1939SOL    HW1 6275   1.038   4.511   1.062
 1939SOL    HW2 6276   0.993   4.395   0.957
 1940SOL     OW 6277   1.859   5.242   1.605
 1940SOL    HW1 6278   1.873   5.269   1.510
 1940SOL    HW2 6279   1.942   5.264   1.658
 1941SOL     OW 6280   0.350   4.622   1.804
 1941SOL    HW1 6281   0.426   4.666   1.852
 1941SOL    HW2 6282   0.385   4.575   1.722
 1942SOL     OW 6283   1.540   3.998   0.125
 1942SOL    HW1 6284   1.479   3.923   0.148
 1942SOL    HW2 6285   1.562   4.050   0.208
 1943SOL     OW 6286   1.303   4.562   0.042
 1943SOL    HW1 6287   1.337   4.469   0.057
 1943SOL    HW2 6288   1.321   4.589  -0.053
 1944SOL     OW 6289   1.068   5.057   0.849
 1944SOL    HW1 6290   1.075   4.973   0.794
 1944SOL    HW2 6291   1.130   5.126   0.813
 1945SOL     OW 6292   0.319   4.534   0.949
 1945SOL    HW1 6293   0.412   4.570   0.954
 1945SOL    HW2 6294   0.313   4.449   1.001
 1946SOL     OW 6295   0.339   4.233   1.006
 1946SOL    HW1 6296   0.287   4.150   0.989
 1946SOL    HW2 6297   0.416   4.238   0.942
 1947SOL     OW 6298   1.138   4.104   1.678
 1947SOL    HW1 6299   1.093   4.167   1.742
 1947SOL    HW2 6300   1.231   4.135   1.661
 1948SOL     OW 6301   1.160   3.931   1.477
 1948SOL    HW1 6302   1.160   3.995   1.554
 1948SOL    HW2 6303   1.188   3.979   1.394
 1949SOL     OW 6304   0.008   5.050   0.200
 1949SOL    HW1 6305  -0.085   5.071   0.169
 1949SOL    HW2 6306   0.018   4.951   0.213
 1950SOL     OW 6307   1.002   4.520   1.238
 1950SOL    HW1 6308   1.043   4.488   1.324
 1950SOL    HW2 6309   0.906   4.493   1.235
 1951SOL     OW 6310   0.040   4.268   1.114
 1951SOL    HW1 6311   0.125   4.235   1.073
 1951SOL    HW2 6312   0.053   4.283   1.212
 1952SOL     OW 6313   0.189   4.244   1.722
 1952SOL    HW1 6314   0.248   4.204   1.652
 1952SOL    HW2 6315   0.131   4.315   1.681
 1953SOL     OW 6316   1.369   4.674   1.660
 1953SOL    HW1 6317   1.408   4.763   1.680
 1953SOL    HW2 6318   1.379   4.654   1.563
 1954SOL     OW 6319   0.815   4.296   0.325
 1954SOL    HW1 6320   0.822   4.207   0.279
 1954SOL    HW2 6321   0.721   4.330   0.317
 1955SOL     OW 6322   1.657   4.328   1.206
 1955SOL    HW1 6323   1.619   4.259   1.268
 1955SOL    HW2 6324   1.739   4.292   1.162
 1956SOL     OW 6325   0.252   5.288   1.744
 1956SOL    HW1 6326   0.222   5.345   1.820
 1956SOL    HW2 6327   0.245   5.191   1.770
 1957SOL     OW 6328   0.671   4.188   1.269
 1957SOL    HW1 6329   0.637   4.099   1.239
 1957SOL    HW2 6330   0.697   4.242   1.189
 1958SOL     OW 6331   0.473   4.224   0.191
 1958SOL    HW1 6332   0.534   4.304   0.195
 1958SOL    HW2 6333   0.378   4.255   0.198
 1959SOL     OW 6334   0.159   4.861   1.466
 1959SOL    HW1 6335   0.181   4.800   1.542
 1959SOL    HW2 6336   0.169   4.812   1.380
 1960SOL     OW 6337   1.347   4.783   1.234
 1960SOL    HW1 6338   1.371   4.720   1.160
 1960SOL    HW2 6339   1.257   4.823   1.216
 1961SOL     OW 6340   1.302   4.579   0.309
 1961SOL    HW1 6341   1.216   4.548   0.351
 1961SOL    HW2 6342   1.298   4.565   0.210
 1962SOL     OW 6343   0.083   4.982   1.022
 1962SOL    HW1 6344   0.078   4.981   1.122
 1962SOL    HW2 6345   0.000   4.941   0.984
 1963SOL     OW 6346   0.688   5.386   1.716
 1963SOL    HW1 6347   0.632   5.467   1.725
 1963SOL    HW2 6348   0.740   5.390   1.630
 1964SOL     OW 6349   0.903   3.810   0.133
 1964SOL    HW1 6350   0.954   3.811   0.047
 1964SOL    HW2 6351   0.959   3.768   0.204
 1965SOL     OW 6352   1.726   3.859   0.523
 1965SOL    HW1 6353   1.799   3.842   0.456
 1965SOL    HW2 6354   1.695   3.772   0.561
 1966SOL     OW 6355   1.280   4.651   0.672
 1966SOL    HW1 6356   1.340   4.570   0.674
 1966SOL    HW2 6357   1.320   4.720   0.612
 1967SOL     OW 6358   0.830   4.997   1.422
 1967SOL    HW1 6359   0.825   5.030   1.517
 1967SOL    HW2 6360   0.744   5.016   1.376
 1968SOL     OW 6361   1.841   3.899   0.963
 1968SOL    HW1 6362   1.880   3.814   0.927
 1968SOL    HW2 6363   1.743   3.901   0.944
 1969SOL     OW 6364   0.263   4.050   0.720
 1969SOL    HW1 6365   0.184   4.101   0.686
 1969SOL    HW2 6366   0.254   4.035   0.818
 1970SOL     OW 6367   1.194   5.336   0.031
 1970SOL    HW1 6368   1.200   5.243   0.068
 1970SOL    HW2 6369   1.135   5.336  -0.049
 1971SOL     OW 6370   0.822   4.726   1.372
 1971SOL    HW1 6371   0.862   4.725   1.280
 1971SOL    HW2 6372   0.832   4.818   1.412
 1972SOL     OW 6373   0.916   4.634   0.291
 1972SOL    HW1 6374   0.979   4.672   0.223
 1972SOL    HW2 6375   0.956   4.551   0.330
 1973SOL     OW 6376   0.372   5.012   1.490
 1973SOL    HW1 6377   0.359   5.105   1.456
 1973SOL    HW2 6378   0.288   4.960   1.477
 1974SOL     OW 6379   1.614   5.016   1.289
 1974SOL    HW1 6380   1.674   5.019   1.369
 1974SOL    HW2 6381   1.539   5.080   1.302
 1975SOL     OW 6382   1.039   4.822   0.696
 1975SOL    HW1 6383   0.969   4.775   0.750
 1975SOL    HW2 6384   1.098   4.754   0.653
 1976SOL     OW 6385   1.014   3.960   0.971
 1976SOL    HW1 6386   1.006   3.924   0.878
 1976SOL    HW2 6387   1.012   3.884   1.036
 1977SOL     OW 6388   1.709   4.109   1.381
 1977SOL    HW1 6389   1.782   4.178   1.385
 1977SOL    HW2 6390   1.737   4.034   1.322
 1978SOL     OW 6391   0.255   5.072   0.290
 1978SOL    HW1 6392   0.159   5.073   0.263
 1978SOL    HW2 6393   0.267   5.125   0.374
 1979SOL     OW 6394   0.105   4.737   1.726
 1979SOL    HW1 6395   0.028   4.704   1.780
 1979SOL    HW2 6396   0.190   4.707   1.768
 1980SOL     OW 6397   0.672   3.927   1.489
 1980SOL    HW1 6398   0.762   3.911   1.449
 1980SOL    HW2 6399   0.680   3.932   1.588
 1981SOL     OW 6400   0.075   4.069   0.033
 1981SOL    HW1 6401  -0.017   4.041   0.004
 1981SOL    HW2 6402   0.106   4.146  -0.023
 1982SOL     OW 6403   1.440   4.580   1.398
 1982SOL    HW1 6404   1.383   4.632   1.335
 1982SOL    HW2 6405   1.536   4.592   1.374
 1983SOL     OW 6406   0.072   3.890   0.318
 1983SOL    HW1 6407   0.055   3.973   0.264
 1983SOL    HW2 6408   0.162   3.853   0.296
 1984SOL     OW 6409   1.183   5.059   0.119
 1984SOL    HW1 6410   1.084   5.048   0.121
 1984SOL    HW2 6411   1.217   5.074   0.212
 1985SOL     OW 6412   0.613   4.566   1.431
 1985SOL    HW1 6413   0.669   4.647   1.414
 1985SOL    HW2 6414   0.672   4.486   1.434
 1986SOL     OW 6415   0.716   4.289   1.708
 1986SOL    HW1 6416   0.735   4.354   1.782
 1986SOL    HW2 6417   0.776   4.209   1.717
 1987SOL     OW 6418   1.450   4.944   1.633
 1987SOL    HW1 6419   1.441   4.934   1.732
 1987SOL    HW2 6420   1.546   4.937   1.607
 1988SOL     OW 6421   1.674   4.607   1.254
 1988SOL    HW1 6422   1.647   4.518   1.217
 1988SOL    HW2 6423   1.675   4.675   1.181
 1989SOL     OW 6424   1.225   4.049   0.449
 1989SOL    HW1 6425   1.290   3.975   0.438
 1989SOL    HW2 6426   1.245   4.099   0.533
 1990SOL     OW 6427   0.594   4.469   0.652
 1990SOL    HW1 6428   0.644   4.554   0.633
 1990SOL    HW2 6429   0.506   4.471   0.604
 1991SOL     OW 6430   1.777   4.066   1.642
 1991SOL    HW1 6431   1.760   4.097   1.548
 1991SOL    HW2 6432   1.693   4.029   1.680
 1992SOL     OW 6433   1.730   4.658   1.517
 1992SOL    HW1 6434   1.768   4.749   1.532
 1992SOL    HW2 6435   1.722   4.641   1.418
 1993SOL     OW 6436   0.859   5.098   0.016
 1993SOL    HW1 6437   0.813   5.113   0.104
 1993SOL    HW2 6438   0.903   5.183  -0.014
 1994SOL     OW 6439   0.859   4.680   0.861
 1994SOL    HW1 6440   0.913   4.611   0.909
 1994SOL    HW2 6441   0.827   4.749   0.927
 1995SOL     OW 6442   1.083   4.708   0.087
 1995SOL    HW1 6443   1.060   4.761   0.005
 1995SOL    HW2 6444   1.164   4.652   0.068
 1996SOL     OW 6445   0.221   5.038   1.844
 1996SOL    HW1 6446   0.156   4.965   1.823
 1996SOL    HW2 6447   0.225   5.052   1.942
 1997SOL     OW 6448   0.079   4.964   0.653
 1997SOL    HW1 6449   0.078   4.917   0.741
 1997SOL    HW2 6450   0.161   4.936   0.602
 1998SOL     OW 6451   0.672   5.115   1.624
 1998SOL    HW1 6452   0.594   5.065   1.662
 1998SOL    HW2 6453   0.669   5.210   1.655
 1999SOL     OW 6454   1.824   3.916   1.227
 1999SOL    HW1 6455   1.820   3.826   1.271
 1999SOL    HW2 6456   1.827   3.905   1.128
 2000SOL     OW 6457   0.428   4.148   0.520
 2000SOL    HW1 6458   0.458   4.076   0.458
 2000SOL    HW2 6459   0.389   4.108   0.603
 2001SOL     OW 6460   1.705   5.211   1.104
 2001SOL    HW1 6461   1.612   5.186   1.077
 2001SOL    HW2 6462   1.731   5.161   1.186
 2002SOL     OW 6463   0.317   4.271   1.280
 2002SOL    HW1 6464   0.355   4.212   1.352
 2002SOL    HW2 6465   0.357   4.245   1.192
 2003SOL     OW 6466   1.424   3.938   1.112
 2003SOL    HW1 6467   1.476   3.873   1.167
 2003SOL    HW2 6468   1.375   4.001   1.173
 2004SOL     OW 6469   1.001   3.758   1.154
 2004SOL    HW1 6470   0.938   3.686   1.123
 2004SOL    HW2 6471   1.094   3.722   1.154
 2005SOL     OW 6472   0.770   5.054   0.301
 2005SOL    HW1 6473   0.724   4.967   0.318
 2005SOL    HW2 6474   0.861   5.051   0.342
 2006SOL     OW 6475   0.618   5.291   1.284
 2006SOL    HW1 6476   0.613   5.373   1.341
 2006SOL    HW2 6477   0.707   5.288   1.239
 2007SOL     OW 6478   1.352   3.776   0.168
 2007SOL    HW1 6479   1.387   3.735   0.084
 2007SOL    HW2 6480   1.262   3.738   0.188
 2008SOL     OW 6481   1.300   4.177   0.691
 2008SOL    HW1 6482   1.241   4.257   0.695
 2008SOL    HW2 6483   1.315   4.142   0.784
 2009SOL     OW 6484   1.593   3.945   0.882
 2009SOL    HW1 6485   1.509   3.944   0.936
 2009SOL    HW2 6486   1.595   4.028   0.826
 2010SOL     OW 6487   0.039   4.801   0.300
 2010SOL    HW1 6488   0.138   4.790   0.291
 2010SOL    HW2 6489  -0.001   4.715   0.332
 2011SOL     OW 6490   0.230   4.352   1.975
 2011SOL    HW1 6491   0.137   4.350   2.012
 2011SOL    HW2 6492   0.231   4.313   1.883
 2012SOL     OW 6493   0.225   3.999   2.858
 2012SOL    HW1 6494   0.260   3.982   2.950
 2012SOL    HW2 6495   0.137   3.954   2.846
 2013SOL     OW 6496   0.019   4.092   2.509
 2013SOL    HW1 6497  -0.063   4.135   2.548
 2013SOL    HW2 6498  -0.009   4.019   2.446
 2014SOL     OW 6499   0.569   4.999   3.027
 2014SOL    HW1 6500   0.476   4.992   2.990
 2014SOL    HW2 6501   0.580   5.088   3.071
 2015SOL     OW 6502   1.555   5.235   2.565
 2015SOL    HW1 6503   1.498   5.219   2.646
 2015SOL    HW2 6504   1.496   5.245   2.485
 2016SOL     OW 6505   1.135   4.427   2.579
 2016SOL    HW1 6506   1.192   4.505   2.554
 2016SOL    HW2 6507   1.075   4.453   2.655
 2017SOL     OW 6508   1.755   4.331   2.093
 2017SOL    HW1 6509   1.743   4.318   1.994
 2017SOL    HW2 6510   1.725   4.250   2.142
 2018SOL     OW 6511   0.768   4.868   2.885
 2018SOL    HW1 6512   0.690   4.885   2.945
 2018SOL    HW2 6513   0.802   4.955   2.849
 2019SOL     OW 6514   0.850   4.522   3.685
 2019SOL    HW1 6515   0.846   4.598   3.750
 2019SOL    HW2 6516   0.872   4.558   3.594
 2020SOL     OW 6517   0.685   4.736   2.527
 2020SOL    HW1 6518   0.754   4.720   2.597
 2020SOL    HW2 6519   0.612   4.793   2.565
 2021SOL     OW 6520   0.686   4.885   3.665
 2021SOL    HW1 6521   0.746   4.964   3.679
 2021SOL    HW2 6522   0.600   4.916   3.624
 2022SOL     OW 6523   0.335   5.159   2.923
 2022SOL    HW1 6524   0.257   5.128   2.870
 2022SOL    HW2 6525   0.393   5.217   2.866
 2023SOL     OW 6526   1.460   5.229   3.201
 2023SOL    HW1 6527   1.484   5.323   3.227
 2023SOL    HW2 6528   1.444   5.175   3.283
 2024SOL     OW 6529   0.438   4.116   3.361
 2024SOL    HW1 6530   0.520   4.060   3.370
 2024SOL    HW2 6531   0.357   4.058   3.365
 2025SOL     OW 6532   1.603   4.171   2.599
 2025SOL    HW1 6533   1.529   4.217   2.549
 2025SOL    HW2 6534   1.654   4.239   2.652
 2026SOL     OW 6535   1.127   5.065   3.552
 2026SOL    HW1 6536   1.174   5.065   3.640
 2026SOL    HW2 6537   1.079   4.978   3.541
 2027SOL     OW 6538   0.230   5.158   2.400
 2027SOL    HW1 6539   0.204   5.254   2.400
 2027SOL    HW2 6540   0.159   5.104   2.445
 2028SOL     OW 6541   0.240   4.815   2.748
 2028SOL    HW1 6542   0.254   4.731   2.800
 2028SOL    HW2 6543   0.185   4.879   2.803
 2029SOL     OW 6544   0.606   4.688   1.985
 2029SOL    HW1 6545   0.613   4.772   1.931
 2029SOL    HW2 6546   0.652   4.701   2.073
 2030SOL     OW 6547   1.594   3.838   3.342
 2030SOL    HW1 6548   1.576   3.905   3.270
 2030SOL    HW2 6549   1.591   3.884   3.431
 2031SOL     OW 6550   0.122   4.367   2.425
 2031SOL    HW1 6551   0.077   4.279   2.442
 2031SOL    HW2 6552   0.121   4.421   2.509
 2032SOL     OW 6553   0.027   5.320   1.979
 2032SOL    HW1 6554   0.008   5.224   2.000
 2032SOL    HW2 6555  -0.006   5.378   2.054
 2033SOL     OW 6556   1.689   4.646   2.474
 2033SOL    HW1 6557   1.784   4.617   2.482
 2033SOL    HW2 6558   1.681   4.711   2.399
 2034SOL     OW 6559   1.641   4.832   2.294
 2034SOL    HW1 6560   1.727   4.834   2.242
 2034SOL    HW2 6561   1.655   4.879   2.382
 2035SOL     OW 6562   0.113   4.461   3.459
 2035SOL    HW1 6563   0.201   4.448   3.504
 2035SOL    HW2 6564   0.100   4.558   3.437
 2036SOL     OW 6565   0.613   5.089   2.588
 2036SOL    HW1 6566   0.564   5.002   2.597
 2036SOL    HW2 6567   0.590   5.132   2.501
 2037SOL     OW 6568   1.293   4.952   3.285
 2037SOL    HW1 6569   1.330   4.879   3.227
 2037SOL    HW2 6570   1.345   4.957   3.370
 2038SOL     OW 6571   0.809   3.728   2.364
 2038SOL    HW1 6572   0.849   3.819   2.355
 2038SOL    HW2 6573   0.709   3.736   2.370
 2039SOL     OW 6574   0.197   4.700   3.126
 2039SOL    HW1 6575   0.286   4.655   3.112
 2039SOL    HW2 6576   0.124   4.635   3.107
 2040SOL     OW 6577   1.525   4.723   2.052
 2040SOL    HW1 6578   1.462   4.647   2.065
 2040SOL    HW2 6579   1.573   4.741   2.138
 2041SOL     OW 6580   0.317   3.975   3.663
 2041SOL    HW1 6581   0.388   4.046   3.669
 2041SOL    HW2 6582   0.229   4.014   3.691
 2042SOL     OW 6583   1.466   5.141   2.815
 2042SOL    HW1 6584   1.407   5.147   2.895
 2042SOL    HW2 6585   1.451   5.053   2.769
 2043SOL     OW 6586   0.598   4.453   2.132
 2043SOL    HW1 6587   0.622   4.522   2.064
 2043SOL    HW2 6588   0.520   4.486   2.186
 2044SOL     OW 6589   1.281   4.069   2.806
 2044SOL    HW1 6590   1.195   4.019   2.793
 2044SOL    HW2 6591   1.343   4.015   2.862
 2045SOL     OW 6592   0.807   4.329   3.327
 2045SOL    HW1 6593   0.760   4.326   3.416
 2045SOL    HW2 6594   0.756   4.274   3.261
 2046SOL     OW 6595   1.394   4.193   3.536
 2046SOL    HW1 6596   1.374   4.236   3.624
 2046SOL    HW2 6597   1.472   4.131   3.545
 2047SOL     OW 6598   0.973   4.614   3.434
 2047SOL    HW1 6599   1.019   4.530   3.405
 2047SOL    HW2 6600   0.917   4.648   3.359
 2048SOL     OW 6601   0.991   4.134   3.104
 2048SOL    HW1 6602   0.914   4.168   3.158
 2048SOL    HW2 6603   0.957   4.083   3.025
 2049SOL     OW 6604   1.041   4.425   2.291
 2049SOL    HW1 6605   1.067   4.421   2.387
 2049SOL    HW2 6606   0.956   4.374   2.277
 2050SOL     OW 6607   0.076   4.535   2.651
 2050SOL    HW1 6608   0.175   4.523   2.660
 2050SOL    HW2 6609   0.052   4.630   2.672
 2051SOL     OW 6610   0.865   4.072   2.057
 2051SOL    HW1 6611   0.924   4.135   2.008
 2051SOL    HW2 6612   0.884   3.978   2.028
 2052SOL     OW 6613   1.719   4.309   3.693
 2052SOL    HW1 6614   1.693   4.398   3.657
 2052SOL    HW2 6615   1.717   4.241   3.620
 2053SOL     OW 6616   1.362   4.868   2.407
 2053SOL    HW1 6617   1.445   4.839   2.359
 2053SOL    HW2 6618   1.313   4.935   2.351
 2054SOL     OW 6619   0.550   3.920   2.747
 2054SOL    HW1 6620   0.545   3.915   2.847
 2054SOL    HW2 6621   0.552   4.016   2.718
 2055SOL     OW 6622   1.008   5.180   2.339
 2055SOL    HW1 6623   0.962   5.252   2.287
 2055SOL    HW2 6624   1.004   5.200   2.437
 2056SOL     OW 6625   1.795   4.790   2.735
 2056SOL    HW1 6626   1.733   4.775   2.659
 2056SOL    HW2 6627   1.743   4.801   2.820
 2057SOL     OW 6628   1.227   5.274   3.368
 2057SOL    HW1 6629   1.233   5.197   3.432
 2057SOL    HW2 6630   1.175   5.248   3.288
 2058SOL     OW 6631   0.321   4.667   2.104
 2058SOL    HW1 6632   0.403   4.706   2.062
 2058SOL    HW2 6633   0.294   4.585   2.055
 2059SOL     OW 6634   1.458   4.459   2.590
 2059SOL    HW1 6635   1.453   4.394   2.665
 2059SOL    HW2 6636   1.538   4.518   2.603
 2060SOL     OW 6637   0.461   4.990   3.589
 2060SOL    HW1 6638   0.411   4.991   3.503
 2060SOL    HW2 6639   0.398   4.972   3.665
 2061SOL     OW 6640   1.111   5.500   2.099
 2061SOL    HW1 6641   1.051   5.438   2.149
 2061SOL    HW2 6642   1.142   5.456   2.014
 2062SOL     OW 6643   0.202   4.009   3.360
 2062SOL    HW1 6644   0.122   4.069   3.347
 2062SOL    HW2 6645   0.192   3.960   3.446
 2063SOL     OW 6646   1.632   5.101   1.943
 2063SOL    HW1 6647   1.600   5.195   1.933
 2063SOL    HW2 6648   1.556   5.038   1.931
 2064SOL     OW 6649   1.400   3.831   2.288
 2064SOL    HW1 6650   1.376   3.794   2.198
 2064SOL    HW2 6651   1.499   3.847   2.292
 2065SOL     OW 6652   0.382   4.424   2.342
 2065SOL    HW1 6653   0.427   4.334   2.339
 2065SOL    HW2 6654   0.288   4.413   2.375
 2066SOL     OW 6655   1.547   3.946   3.591
 2066SOL    HW1 6656   1.542   3.983   3.683
 2066SOL    HW2 6657   1.475   3.877   3.579
 2067SOL     OW 6658   0.614   3.846   1.979
 2067SOL    HW1 6659   0.712   3.824   1.986
 2067SOL    HW2 6660   0.583   3.829   1.886
 2068SOL     OW 6661   0.781   3.988   3.611
 2068SOL    HW1 6662   0.848   3.927   3.654
 2068SOL    HW2 6663   0.708   4.007   3.676
 2069SOL     OW 6664   1.351   4.314   3.295
 2069SOL    HW1 6665   1.379   4.271   3.380
 2069SOL    HW2 6666   1.376   4.410   3.296
 2070SOL     OW 6667   0.803   5.126   2.786
 2070SOL    HW1 6668   0.893   5.140   2.744
 2070SOL    HW2 6669   0.732   5.128   2.715
 2071SOL     OW 6670   0.922   4.227   2.761
 2071SOL    HW1 6671   0.897   4.218   2.665
 2071SOL    HW2 6672   0.970   4.145   2.792
 2072SOL     OW 6673   0.539   3.788   2.374
 2072SOL    HW1 6674   0.458   3.789   2.432
 2072SOL    HW2 6675   0.542   3.871   2.319
 2073SOL     OW 6676   1.434   4.912   1.903
 2073SOL    HW1 6677   1.466   4.836   1.960
 2073SOL    HW2 6678   1.342   4.939   1.933
 2074SOL     OW 6679   0.297   3.759   2.033
 2074SOL    HW1 6680   0.346   3.843   2.012
 2074SOL    HW2 6681   0.359   3.694   2.078
 2075SOL     OW 6682   0.935   3.960   2.342
 2075SOL    HW1 6683   0.887   4.001   2.264
 2075SOL    HW2 6684   1.034   3.958   2.323
 2076SOL     OW 6685   1.076   4.407   3.326
 2076SOL    HW1 6686   0.996   4.346   3.329
 2076SOL    HW2 6687   1.157   4.354   3.302
 2077SOL     OW 6688   1.227   5.294   2.655
 2077SOL    HW1 6689   1.248   5.368   2.590
 2077SOL    HW2 6690   1.295   5.294   2.728
 2078SOL     OW 6691   0.459   4.876   2.603
 2078SOL    HW1 6692   0.388   4.849   2.668
 2078SOL    HW2 6693   0.433   4.848   2.510
 2079SOL     OW 6694   1.032   4.273   1.878
 2079SOL    HW1 6695   0.991   4.355   1.839
 2079SOL    HW2 6696   1.096   4.299   1.951
 2080SOL     OW 6697   0.078   4.280   3.248
 2080SOL    HW1 6698   0.170   4.279   3.207
 2080SOL    HW2 6699   0.072   4.354   3.315
 2081SOL     OW 6700   0.561   3.946   3.009
 2081SOL    HW1 6701   0.599   3.862   3.046
 2081SOL    HW2 6702   0.473   3.965   3.053
 2082SOL     OW 6703   0.866   4.178   2.504
 2082SOL    HW1 6704   0.834   4.250   2.442
 2082SOL    HW2 6705   0.890   4.097   2.451
 2083SOL     OW 6706   1.017   3.763   2.615
 2083SOL    HW1 6707   0.945   3.768   2.546
 2083SOL    HW2 6708   0.993   3.694   2.684
 2084SOL     OW 6709   1.429   4.897   2.729
 2084SOL    HW1 6710   1.374   4.813   2.722
 2084SOL    HW2 6711   1.455   4.926   2.637
 2085SOL     OW 6712   1.466   4.314   2.854
 2085SOL    HW1 6713   1.436   4.219   2.861
 2085SOL    HW2 6714   1.539   4.330   2.920
 2086SOL     OW 6715   1.857   4.557   2.239
 2086SOL    HW1 6716   1.899   4.493   2.303
 2086SOL    HW2 6717   1.819   4.506   2.161
 2087SOL     OW 6718   0.488   5.109   2.036
 2087SOL    HW1 6719   0.401   5.094   2.083
 2087SOL    HW2 6720   0.471   5.135   1.941
 2088SOL     OW 6721   1.664   5.004   2.519
 2088SOL    HW1 6722   1.763   5.012   2.533
 2088SOL    HW2 6723   1.619   5.088   2.550
 2089SOL     OW 6724   1.390   4.299   1.940
 2089SOL    HW1 6725   1.336   4.278   2.021
 2089SOL    HW2 6726   1.481   4.258   1.949
 2090SOL     OW 6727   0.527   3.980   2.190
 2090SOL    HW1 6728   0.554   3.921   2.115
 2090SOL    HW2 6729   0.527   4.075   2.159
 2091SOL     OW 6730   1.754   4.947   3.450
 2091SOL    HW1 6731   1.845   4.908   3.437
 2091SOL    HW2 6732   1.762   5.043   3.474
 2092SOL     OW 6733   1.064   5.071   3.202
 2092SOL    HW1 6734   0.984   5.048   3.257
 2092SOL    HW2 6735   1.147   5.045   3.251
 2093SOL     OW 6736   1.111   4.919   2.962
 2093SOL    HW1 6737   1.071   4.963   3.043
 2093SOL    HW2 6738   1.070   4.956   2.879
 2094SOL     OW 6739   1.638   4.823   2.941
 2094SOL    HW1 6740   1.643   4.904   3.000
 2094SOL    HW2 6741   1.552   4.825   2.890
 2095SOL     OW 6742   0.915   3.813   3.264
 2095SOL    HW1 6743   0.940   3.793   3.169
 2095SOL    HW2 6744   0.987   3.869   3.306
 2096SOL     OW 6745   0.980   4.840   3.581
 2096SOL    HW1 6746   0.881   4.846   3.591
 2096SOL    HW2 6747   1.003   4.760   3.525
 2097SOL     OW 6748   0.705   4.774   2.230
 2097SOL    HW1 6749   0.691   4.781   2.329
 2097SOL    HW2 6750   0.789   4.723   2.212
 2098SOL     OW 6751   0.410   4.537   3.113
 2098SOL    HW1 6752   0.496   4.549   3.163
 2098SOL    HW2 6753   0.368   4.450   3.140
 2099SOL     OW 6754   1.274   4.110   3.124
 2099SOL    HW1 6755   1.295   4.184   3.188
 2099SOL    HW2 6756   1.185   4.127   3.081
 2100SOL     OW 6757   0.064   5.288   3.193
 2100SOL    HW1 6758   0.018   5.370   3.159
 2100SOL    HW2 6759   0.162   5.307   3.202
 2101SOL     OW 6760   0.367   4.824   2.363
 2101SOL    HW1 6761   0.360   4.907   2.307
 2101SOL    HW2 6762   0.371   4.744   2.303
 2102SOL     OW 6763   0.566   4.261   2.727
 2102SOL    HW1 6764   0.578   4.327   2.653
 2102SOL    HW2 6765   0.612   4.295   2.810
 2103SOL     OW 6766   1.252   5.072   2.250
 2103SOL    HW1 6767   1.302   5.149   2.290
 2103SOL    HW2 6768   1.157   5.074   2.282
 2104SOL     OW 6769   1.272   5.169   3.004
 2104SOL    HW1 6770   1.319   5.182   3.091
 2104SOL    HW2 6771   1.206   5.095   3.013
 2105SOL     OW 6772   1.582   4.363   2.334
 2105SOL    HW1 6773   1.551   4.424   2.407
 2105SOL    HW2 6774   1.632   4.415   2.265
 2106SOL     OW 6775   0.354   5.234   3.191
 2106SOL    HW1 6776   0.333   5.190   3.104
 2106SOL    HW2 6777   0.451   5.260   3.194
 2107SOL     OW 6778   0.402   4.475   3.460
 2107SOL    HW1 6779   0.470   4.530   3.413
 2107SOL    HW2 6780   0.442   4.387   3.487
 2108SOL     OW 6781   1.587   4.503   3.532
 2108SOL    HW1 6782   1.495   4.541   3.527
 2108SOL    HW2 6783   1.647   4.550   3.467
 2109SOL     OW 6784   1.013   3.829   3.632
 2109SOL    HW1 6785   1.019   3.914   3.580
 2109SOL    HW2 6786   1.045   3.753   3.575
 2110SOL     OW 6787   0.504   3.774   3.602
 2110SOL    HW1 6788   0.462   3.717   3.532
 2110SOL    HW2 6789   0.438   3.843   3.634
 2111SOL     OW 6790   0.573   4.594   2.891
 2111SOL    HW1 6791   0.617   4.683   2.882
 2111SOL    HW2 6792   0.510   4.594   2.968
 2112SOL     OW 6793   1.360   4.586   2.907
 2112SOL    HW1 6794   1.285   4.586   2.841
 2112SOL    HW2 6795   1.397   4.494   2.916
 2113SOL     OW 6796   1.209   4.249   2.137
 2113SOL    HW1 6797   1.222   4.165   2.191
 2113SOL    HW2 6798   1.180   4.323   2.197
 2114SOL     OW 6799   0.307   3.937   3.093
 2114SOL    HW1 6800   0.284   3.974   3.183
 2114SOL    HW2 6801   0.277   3.842   3.087
 2115SOL     OW 6802   0.037   5.034   3.144
 2115SOL    HW1 6803   0.090   4.985   3.212
 2115SOL    HW2 6804   0.059   5.132   3.149
 2116SOL     OW 6805   0.732   4.358   2.926
 2116SOL    HW1 6806   0.791   4.332   2.850
 2116SOL    HW2 6807   0.704   4.454   2.915
 2117SOL     OW 6808   1.728   4.659   3.716
 2117SOL    HW1 6809   1.682   4.652   3.627
 2117SOL    HW2 6810   1.666   4.703   3.782
 2118SOL     OW 6811   0.307   3.787   2.480
 2118SOL    HW1 6812   0.296   3.881   2.513
 2118SOL    HW2 6813   0.302   3.724   2.557
 2119SOL     OW 6814   1.622   4.091   2.236
 2119SOL    HW1 6815   1.624   4.015   2.300
 2119SOL    HW2 6816   1.574   4.168   2.276
 2120SOL     OW 6817   1.023   4.490   2.828
 2120SOL    HW1 6818   1.038   4.511   2.924
 2120SOL    HW2 6819   0.993   4.395   2.819
 2121SOL     OW 6820   1.859   5.242   3.467
 2121SOL    HW1 6821   1.873   5.269   3.372
 2121SOL    HW2 6822   1.942   5.264   3.520
 2122SOL     OW 6823   0.350   4.622   3.666
 2122SOL    HW1 6824   0.426   4.666   3.714
 2122SOL    HW2 6825   0.385   4.575   3.584
 2123SOL     OW 6826   1.540   3.998   1.987
 2123SOL    HW1 6827   1.479   3.923   2.010
 2123SOL    HW2 6828   1.562   4.050   2.070
 2124SOL     OW 6829   1.303   4.562   1.904
 2124SOL    HW1 6830   1.337   4.469   1.919
 2124SOL    HW2 6831   1.321   4.589   1.809
 2125SOL     OW 6832   1.068   5.057   2.711
 2125SOL    HW1 6833   1.075   4.973   2.656
 2125SOL    HW2 6834   1.130   5.126   2.675
 2126SOL     OW 6835   0.319   4.534   2.811
 2126SOL    HW1 6836   0.412   4.570   2.816
 2126SOL    HW2 6837   0.313   4.449   2.863
 2127SOL     OW 6838   0.339   4.233   2.868
 2127SOL    HW1 6839   0.287   4.150   2.851
 2127SOL    HW2 6840   0.416   4.238   2.804
 2128SOL     OW 6841   1.138   4.104   3.540
 2128SOL    HW1 6842   1.093   4.167   3.604
 2128SOL    HW2 6843   1.231   4.135   3.523
 2129SOL     OW 6844   1.160   3.931   3.339
 2129SOL    HW1 6845   1.160   3.995   3.416
 2129SOL    HW2 6846   1.188   3.979   3.256
 2130SOL     OW 6847   0.008   5.050   2.062
 2130SOL    HW1 6848  -0.085   5.071   2.031
 2130SOL    HW2 6849   0.018   4.951   2.075
 2131SOL     OW 6850   1.002   4.520   3.100
 2131SOL    HW1 6851   1.043   4.488   3.186
 2131SOL    HW2 6852   0.906   4.493   3.097
 2132SOL     OW 6853   0.040   4.268   2.976
 2132SOL    HW1 6854   0.125   4.235   2.935
 2132SOL    HW2 6855   0.053   4.283   3.074
 2133SOL     OW 6856   0.189   4.244   3.584
 2133SOL    HW1 6857   0.248   4.204   3.514
 2133SOL    HW2 6858   0.131   4.315   3.543
 2134SOL     OW 6859   1.369   4.674   3.522
 2134SOL    HW1 6860   1.408   4.763   3.542
 2134SOL    HW2 6861   1.379   4.654   3.425
 2135SOL     OW 6862   0.815   4.296   2.187
 2135SOL    HW1 6863   0.822   4.207   2.141
 2135SOL    HW2 6864   0.721   4.330   2.179
 2136SOL     OW 6865   1.657   4.328   3.068
 2136SOL    HW1 6866   1.619   4.259   3.130
 2136SOL    HW2 6867   1.739   4.292   3.024
 2137SOL     OW 6868   0.252   5.288   3.606
 2137SOL    HW1 6869   0.222   5.345   3.682
 2137SOL    HW2 6870   0.245   5.191   3.632
 2138SOL     OW 6871   0.671   4.188   3.131
 2138SOL    HW1 6872   0.637   4.099   3.101
 2138SOL    HW2 6873   0.697   4.242   3.051
 2139SOL     OW 6874   0.473   4.224   2.053
 2139SOL    HW1 6875   0.534   4.304   2.057
 2139SOL    HW2 6876   0.378   4.255   2.060
 2140SOL     OW 6877   0.159   4.861   3.328
 2140SOL    HW1 6878   0.181   4.800   3.404
 2140SOL    HW2 6879   0.169   4.812   3.242
 2141SOL     OW 6880   1.347   4.783   3.096
 2141SOL    HW1 6881   1.371   4.720   3.022
 2141SOL    HW2 6882   1.257   4.823   3.078
 2142SOL     OW 6883   1.302   4.579   2.171
 2142SOL    HW1 6884   1.216   4.548   2.213
 2142SOL    HW2 6885   1.298   4.565   2.072
 2143SOL     OW 6886   0.083   4.982   2.884
 2143SOL    HW1 6887   0.078   4.981   2.984
 2143SOL    HW2 6888   0.000   4.941   2.846
 2144SOL     OW 6889   0.688   5.386   3.578
 2144SOL    HW1 6890   0.632   5.467   3.587
 2144SOL    HW2 6891   0.740   5.390   3.492
 2145SOL     OW 6892   1.726   3.859   2.385
 2145SOL    HW1 6893   1.799   3.842   2.318
 2145SOL    HW2 6894   1.695   3.772   2.423
 2146SOL     OW 6895   1.280   4.651   2.534
 2146SOL    HW1 6896   1.340   4.570   2.536
 2146SOL    HW2 6897   1.320   4.720   2.474
 2147SOL     OW 6898   0.830   4.997   3.284
 2147SOL    HW1 6899   0.825   5.030   3.379
 2147SOL    HW2 6900   0.744   5.016   3.238
 2148SOL     OW 6901   1.841   3.899   2.825
 2148SOL    HW1 6902   1.880   3.814   2.789
 2148SOL    HW2 6903   1.743   3.901   2.806
 2149SOL     OW 6904   0.263   4.050   2.582
 2149SOL    HW1 6905   0.184   4.101   2.548
 2149SOL    HW2 6906   0.254   4.035   2.680
 2150SOL     OW 6907   0.822   4.726   3.234
 2150SOL    HW1 6908   0.862   4.725   3.142
 2150SOL    HW2 6909   0.832   4.818   3.274
 2151SOL     OW 6910   0.916   4.634   2.153
 2151SOL    HW1 6911   0.979   4.672   2.085
 2151SOL    HW2 6912   0.956   4.551   2.192
 2152SOL     OW 6913   0.372   5.012   3.352
 2152SOL    HW1 6914   0.359   5.105   3.318
 2152SOL    HW2 6915   0.288   4.960   3.339
 2153SOL     OW 6916   1.614   5.016   3.151
 2153SOL    HW1 6917   1.674   5.019   3.231
 2153SOL    HW2 6918   1.539   5.080   3.164
 2154SOL     OW 6919   1.039   4.822   2.558
 2154SOL    HW1 6920   0.969   4.775   2.612
 2154SOL    HW2 6921   1.098   4.754   2.515
 2155SOL     OW 6922   1.014   3.960   2.833
 2155SOL    HW1 6923   1.006   3.924   2.740
 2155SOL    HW2 6924   1.012   3.884   2.898
 2156SOL     OW 6925   1.709   4.109   3.243
 2156SOL    HW1 6926   1.782   4.178   3.247
 2156SOL    HW2 6927   1.737   4.034   3.184
 2157SOL     OW 6928   0.255   5.072   2.152
 2157SOL    HW1 6929   0.159   5.073   2.125
 2157SOL    HW2 6930   0.267   5.125   2.236
 2158SOL     OW 6931   0.105   4.737   3.588
 2158SOL    HW1 6932   0.028   4.704   3.642
 2158SOL    HW2 6933   0.190   4.707   3.630
 2159SOL     OW 6934   0.672   3.927   3.351
 2159SOL    HW1 6935   0.762   3.911   3.311
 2159SOL    HW2 6936   0.680   3.932   3.450
 2160SOL     OW 6937   0.075   4.069   1.895
 2160SOL    HW1 6938  -0.017   4.041   1.866
 2160SOL    HW2 6939   0.106   4.146   1.839
 2161SOL     OW 6940   1.440   4.580   3.260
 2161SOL    HW1 6941   1.383   4.632   3.197
 2161SOL    HW2 6942   1.536   4.592   3.236
 2162SOL     OW 6943   0.072   3.890   2.180
 2162SOL    HW1 6944   0.055   3.973   2.126
 2162SOL    HW2 6945   0.162   3.853   2.158
 2163SOL     OW 6946   1.183   5.059   1.981
 2163SOL    HW1 6947   1.084   5.048   1.983
 2163SOL    HW2 6948   1.217   5.074   2.074
 2164SOL     OW 6949   0.613   4.566   3.293
 2164SOL    HW1 6950   0.669   4.647   3.276
 2164SOL    HW2 6951   0.672   4.486   3.296
 2165SOL     OW 6952   0.716   4.289   3.570
 2165SOL    HW1 6953   0.735   4.354   3.644
 2165SOL    HW2 6954   0.776   4.209   3.579
 2166SOL     OW 6955   1.450   4.944   3.495
 2166SOL    HW1 6956   1.441   4.934   3.594
 2166SOL    HW2 6957   1.546   4.937   3.469
 2167SOL     OW 6958   1.674   4.607   3.116
 2167SOL    HW1 6959   1.647   4.518   3.079
 2167SOL    HW2 6960   1.675   4.675   3.043
 2168SOL     OW 6961   1.225   4.049   2.311
 2168SOL    HW1 6962   1.290   3.975   2.300
 2168SOL    HW2 6963   1.245   4.099   2.395
 2169SOL     OW 6964   0.594   4.469   2.514
 2169SOL    HW1 6965   0.644   4.554   2.495
 2169SOL    HW2 6966   0.506   4.471   2.466
 2170SOL     OW 6967   1.777   4.066   3.504
 2170SOL    HW1 6968   1.760   4.097   3.410
 2170SOL    HW2 6969   1.693   4.029   3.542
 2171SOL     OW 6970   1.730   4.658   3.379
 2171SOL    HW1 6971   1.768   4.749   3.394
 2171SOL    HW2 6972   1.722   4.641   3.280
 2172SOL     OW 6973   0.859   5.098   1.878
 2172SOL    HW1 6974   0.813   5.113   1.966
 2172SOL    HW2 6975   0.903   5.183   1.848
 2173SOL     OW 6976   0.859   4.680   2.723
 2173SOL    HW1 6977   0.913   4.611   2.771
 2173SOL    HW2 6978   0.827   4.749   2.789
 2174SOL     OW 6979   1.083   4.708   1.949
 2174SOL    HW1 6980   1.060   4.761   1.867
 2174SOL    HW2 6981   1.164   4.652   1.930
 2175SOL     OW 6982   0.221   5.038   3.706
 2175SOL    HW1 6983   0.156   4.965   3.685
 2175SOL    HW2 6984   0.225   5.052   3.804
 2176SOL     OW 6985   0.079   4.964   2.515
 2176SOL    HW1 6986   0.078   4.917   2.603
 2176SOL    HW2 6987   0.161   4.936   2.464
 2177SOL     OW 6988   0.672   5.115   3.486
 2177SOL    HW1 6989   0.594   5.065   3.524
 2177SOL    HW2 6990   0.669   5.210   3.517
 2178SOL     OW 6991   1.824   3.916   3.089
 2178SOL    HW1 6992   1.820   3.826   3.133
 2178SOL    HW2 6993   1.827   3.905   2.990
 2179SOL     OW 6994   0.428   4.148   2.382
 2179SOL    HW1 6995   0.458   4.076   2.320
 2179SOL    HW2 6996   0.389   4.108   2.465
 2180SOL     OW 6997   1.705   5.211   2.966
 2180SOL    HW1 6998   1.612   5.186   2.939
 2180SOL    HW2 6999   1.731   5.161   3.048
 2181SOL     OW 7000   0.317   4.271   3.142
 2181SOL    HW1 7001   0.355   4.212   3.214
 2181SOL    HW2 7002   0.357   4.245   3.054
 2182SOL     OW 7003   1.424   3.938   2.974
 2182SOL    HW1 7004   1.476   3.873   3.029
 2182SOL    HW2 7005   1.375   4.001   3.035
 2183SOL     OW 7006   1.001   3.758   3.016
 2183SOL    HW1 7007   0.938   3.686   2.985
 2183SOL    HW2 7008   1.094   3.722   3.016
 2184SOL     OW 7009   0.770   5.054   2.163
 2184SOL    HW1 7010   0.724   4.967   2.180
 2184SOL    HW2 7011   0.861   5.051   2.204
 2185SOL     OW 7012   0.618   5.291   3.146
 2185SOL    HW1 7013   0.613   5.373   3.203
 2185SOL    HW2 7014   0.707   5.288   3.101
 2186SOL     OW 7015   1.352   3.776   2.030
 2186SOL    HW1 7016   1.387   3.735   1.946
 2186SOL    HW2 7017   1.262   3.738   2.050
 2187SOL     OW 7018   1.300   4.177   2.553
 2187SOL    HW1 7019   1.241   4.257   2.557
 2187SOL    HW2 7020   1.315   4.142   2.646
 2188SOL     OW 7021   1.593   3.945   2.744
 2188SOL    HW1 7022   1.509   3.944   2.798
 2188SOL    HW2 7023   1.595   4.028   2.688
 2189SOL     OW 7024   0.039   4.801   2.162
 2189SOL    HW1 7025   0.138   4.790   2.153
 2189SOL    HW2 7026  -0.001   4.715   2.194
 2190SOL     OW 7027   0.230   4.352   3.837
 2190SOL    HW1 7028   0.137   4.350   3.874
 2190SOL    HW2 7029   0.231   4.313   3.745
 2191SOL     OW 7030   0.225   3.999   4.720
 2191SOL    HW1 7031   0.260   3.982   4.812
 2191SOL    HW2 7032   0.137   3.954   4.708
 2192SOL     OW 7033   0.019   4.092   4.371
 2192SOL    HW1 7034  -0.063   4.135   4.410
 2192SOL    HW2 7035  -0.009   4.019   4.308
 2193SOL     OW 7036   0.569   4.999   4.889
 2193SOL    HW1 7037   0.476   4.992   4.852
 2193SOL    HW2 7038   0.580   5.088   4.933
 2194SOL     OW 7039   1.555   5.235   4.427
 2194SOL    HW1 7040   1.498   5.219   4.508
 2194SOL    HW2 7041   1.496   5.245   4.347
 2195SOL     OW 7042   1.135   4.427   4.441
 2195SOL    HW1 7043   1.192   4.505   4.416
 2195SOL    HW2 7044   1.075   4.453   4.517
 2196SOL     OW 7045   1.755   4.331   3.955
 2196SOL    HW1 7046   1.743   4.318   3.856
 2196SOL    HW2 7047   1.725   4.250   4.004
 2197SOL     OW 7048   0.768   4.868   4.747
 2197SOL    HW1 7049   0.690   4.885   4.807
 2197SOL    HW2 7050   0.802   4.955   4.711
 2198SOL     OW 7051   0.850   4.522   5.547
 2198SOL    HW1 7052   0.846   4.598   5.612
 2198SOL    HW2 7053   0.872   4.558   5.456
 2199SOL     OW 7054   0.685   4.736   4.389
 2199SOL    HW1 7055   0.754   4.720   4.459
 2199SOL    HW2 7056   0.612   4.793   4.427
 2200SOL     OW 7057   0.686   4.885   5.527
 2200SOL    HW1 7058   0.746   4.964   5.541
 2200SOL    HW2 7059   0.600   4.916   5.486
 2201SOL     OW 7060   0.335   5.159   4.785
 2201SOL    HW1 7061   0.257   5.128   4.732
 2201SOL    HW2 7062   0.393   5.217   4.728
 2202SOL     OW 7063   1.460   5.229   5.063
 2202SOL    HW1 7064   1.484   5.323   5.089
 2202SOL    HW2 7065   1.444   5.175   5.145
 2203SOL     OW 7066   0.438   4.116   5.223
 2203SOL    HW1 7067   0.520   4.060   5.232
 2203SOL    HW2 7068   0.357   4.058   5.227
 2204SOL     OW 7069   1.603   4.171   4.461
 2204SOL    HW1 7070   1.529   4.217   4.411
 2204SOL    HW2 7071   1.654   4.239   4.514
 2205SOL     OW 7072   1.127   5.065   5.414
 2205SOL    HW1 7073   1.174   5.065   5.502
 2205SOL    HW2 7074   1.079   4.978   5.403
 2206SOL     OW 7075   0.230   5.158   4.262
 2206SOL    HW1 7076   0.204   5.254   4.262
 2206SOL    HW2 7077   0.159   5.104   4.307
 2207SOL     OW 7078   0.240   4.815   4.610
 2207SOL    HW1 7079   0.254   4.731   4.662
 2207SOL    HW2 7080   0.185   4.879   4.665
 2208SOL     OW 7081   0.606   4.688   3.847
 2208SOL    HW1 7082   0.613   4.772   3.793
 2208SOL    HW2 7083   0.652   4.701   3.935
 2209SOL     OW 7084   1.594   3.838   5.204
 2209SOL    HW1 7085   1.576   3.905   5.132
 2209SOL    HW2 7086   1.591   3.884   5.293
 2210SOL     OW 7087   0.122   4.367   4.287
 2210SOL    HW1 7088   0.077   4.279   4.304
 2210SOL    HW2 7089   0.121   4.421   4.371
 2211SOL     OW 7090   0.027   5.320   3.841
 2211SOL    HW1 7091   0.008   5.224   3.862
 2211SOL    HW2 7092  -0.006   5.378   3.916
 2212SOL     OW 7093   1.689   4.646   4.336
 2212SOL    HW1 7094   1.784   4.617   4.344
 2212SOL    HW2 7095   1.681   4.711   4.261
 2213SOL     OW 7096   1.641   4.832   4.156
 2213SOL    HW1 7097   1.727   4.834   4.104
 2213SOL    HW2 7098   1.655   4.879   4.244
 2214SOL     OW 7099   0.113   4.461   5.321
 2214SOL    HW1 7100   0.201   4.448   5.366
 2214SOL    HW2 7101   0.100   4.558   5.299
 2215SOL     OW 7102   0.613   5.089   4.450
 2215SOL    HW1 7103   0.564   5.002   4.459
 2215SOL    HW2 7104   0.590   5.132   4.363
 2216SOL     OW 7105   1.293   4.952   5.147
 2216SOL    HW1 7106   1.330   4.879   5.089
 2216SOL    HW2 7107   1.345   4.957   5.232
 2217SOL     OW 7108   0.809   3.728   4.226
 2217SOL    HW1 7109   0.849   3.819   4.217
 2217SOL    HW2 7110   0.709   3.736   4.232
 2218SOL     OW 7111   0.197   4.700   4.988
 2218SOL    HW1 7112   0.286   4.655   4.974
 2218SOL    HW2 7113   0.124   4.635   4.969
 2219SOL     OW 7114   1.525   4.723   3.914
 2219SOL    HW1 7115   1.462   4.647   3.927
 2219SOL    HW2 7116   1.573   4.741   4.000
 2220SOL     OW 7117   0.317   3.975   5.525
 2220SOL    HW1 7118   0.388   4.046   5.531
 2220SOL    HW2 7119   0.229   4.014   5.553
 2221SOL     OW 7120   1.466   5.141   4.677
 2221SOL    HW1 7121   1.407   5.147   4.757
 2221SOL    HW2 7122   1.451   5.053   4.631
 2222SOL     OW 7123   0.598   4.453   3.994
 2222SOL    HW1 7124   0.622   4.522   3.926
 2222SOL    HW2 7125   0.520   4.486   4.048
 2223SOL     OW 7126   1.281   4.069   4.668
 2223SOL    HW1 7127   1.195   4.019   4.655
 2223SOL    HW2 7128   1.343   4.015   4.724
 2224SOL     OW 7129   0.807   4.329   5.189
 2224SOL    HW1 7130   0.760   4.326   5.278
 2224SOL    HW2 7131   0.756   4.274   5.123
 2225SOL     OW 7132   1.394   4.193   5.398
 2225SOL    HW1 7133   1.374   4.236   5.486
 2225SOL    HW2 7134   1.472   4.131   5.407
 2226SOL     OW 7135   0.973   4.614   5.296
 2226SOL    HW1 7136   1.019   4.530   5.267
 2226SOL    HW2 7137   0.917   4.648   5.221
 2227SOL     OW 7138   0.991   4.134   4.966
 2227SOL    HW1 7139   0.914   4.168   5.020
 2227SOL    HW2 7140   0.957   4.083   4.887
 2228SOL     OW 7141   1.041   4.425   4.153
 2228SOL    HW1 7142   1.067   4.421   4.249
 2228SOL    HW2 7143   0.956   4.374   4.139
 2229SOL     OW 7144   0.076   4.535   4.513
 2229SOL    HW1 7145   0.175   4.523   4.522
 2229SOL    HW2 7146   0.052   4.630   4.534
 2230SOL     OW 7147   0.865   4.072   3.919
 2230SOL    HW1 7148   0.924   4.135   3.870
 2230SOL    HW2 7149   0.884   3.978   3.890
 2231SOL     OW 7150   1.719   4.309   5.555
 2231SOL    HW1 7151   1.693   4.398   5.519
 2231SOL    HW2 7152   1.717   4.241   5.482
 2232SOL     OW 7153   1.362   4.868   4.269
 2232SOL    HW1 7154   1.445   4.839   4.221
 2232SOL    HW2 7155   1.313   4.935   4.213
 2233SOL     OW 7156   0.550   3.920   4.609
 2233SOL    HW1 7157   0.545   3.915   4.709
 2233SOL    HW2 7158   0.552   4.016   4.580
 2234SOL     OW 7159   1.008   5.180   4.201
 2234SOL    HW1 7160   0.962   5.252   4.149
 2234SOL    HW2 7161   1.004   5.200   4.299
 2235SOL     OW 7162   1.795   4.790   4.597
 2235SOL    HW1 7163   1.733   4.775   4.521
 2235SOL    HW2 7164   1.743   4.801   4.682
 2236SOL     OW 7165   1.227   5.274   5.230
 2236SOL    HW1 7166   1.233   5.197   5.294
 2236SOL    HW2 7167   1.175   5.248   5.150
 2237SOL     OW 7168   0.321   4.667   3.966
 2237SOL    HW1 7169   0.403   4.706   3.924
 2237SOL    HW2 7170   0.294   4.585   3.917
 2238SOL     OW 7171   1.458   4.459   4.452
 2238SOL    HW1 7172   1.453   4.394   4.527
 2238SOL    HW2 7173   1.538   4.518   4.465
 2239SOL     OW 7174   0.461   4.990   5.451
 2239SOL    HW1 7175   0.411   4.991   5.365
 2239SOL    HW2 7176   0.398   4.972   5.527
 2240SOL     OW 7177   1.111   5.500   3.961
 2240SOL    HW1 7178   1.051   5.438   4.011
 2240SOL    HW2 7179   1.142   5.456   3.876
 2241SOL     OW 7180   0.202   4.009   5.222
 2241SOL    HW1 7181   0.122   4.069   5.209
 2241SOL    HW2 7182   0.192   3.960   5.308
 2242SOL     OW 7183   1.632   5.101   3.805
 2242SOL    HW1 7184   1.600   5.195   3.795
 2242SOL    HW2 7185   1.556   5.038   3.793
 2243SOL     OW 7186   1.400   3.831   4.150
 2243SOL    HW1 7187   1.376   3.794   4.060
 2243SOL    HW2 7188   1.499   3.847   4.154
 2244SOL     OW 7189   0.382   4.424   4.204
 2244SOL    HW1 7190   0.427   4.334   4.201
 2244SOL    HW2 7191   0.288   4.413   4.237
 2245SOL     OW 7192   1.547   3.946   5.453
 2245SOL    HW1 7193   1.542   3.983   5.545
 2245SOL    HW2 7194   1.475   3.877   5.441
 2246SOL     OW 7195   0.614   3.846   3.841
 2246SOL    HW1 7196   0.712   3.824   3.848
 2246SOL    HW2 7197   0.583   3.829   3.748
 2247SOL     OW 7198   0.781   3.988   5.473
 2247SOL    HW1 7199   0.848   3.927   5.516
 2247SOL    HW2 7200   0.708   4.007   5.538
 2248SOL     OW 7201   1.351   4.314   5.157
 2248SOL    HW1 7202   1.379   4.271   5.242
 2248SOL    HW2 7203   1.376   4.410   5.158
 2249SOL     OW 7204   0.803   5.126   4.648
 2249SOL    HW1 7205   0.893   5.140   4.606
 2249SOL    HW2 7206   0.732   5.128   4.577
 2250SOL     OW 7207   0.922   4.227   4.623
 2250SOL    HW1 7208   0.897   4.218   4.527
 2250SOL    HW2 7209   0.970   4.145   4.654
 2251SOL     OW 7210   0.539   3.788   4.236
 2251SOL    HW1 7211   0.458   3.789   4.294
 2251SOL    HW2 7212   0.542   3.871   4.181
 2252SOL     OW 7213   1.434   4.912   3.765
 2252SOL    HW1 7214   1.466   4.836   3.822
 2252SOL    HW2 7215   1.342   4.939   3.795
 2253SOL     OW 7216   0.297   3.759   3.895
 2253SOL    HW1 7217   0.346   3.843   3.874
 2253SOL    HW2 7218   0.359   3.694   3.940
 2254SOL     OW 7219   0.935   3.960   4.204
 2254SOL    HW1 7220   0.887   4.001   4.126
 2254SOL    HW2 7221   1.034   3.958   4.185
 2255SOL     OW 7222   1.076   4.407   5.188
 2255SOL    HW1 7223   0.996   4.346   5.191
 2255SOL    HW2 7224   1.157   4.354   5.164
 2256SOL     OW 7225   1.227   5.294   4.517
 2256SOL    HW1 7226   1.248   5.368   4.452
 2256SOL    HW2 7227   1.295   5.294   4.590
 2257SOL     OW 7228   0.459   4.876   4.465
 2257SOL    HW1 7229   0.388   4.849   4.530
 2257SOL    HW2 7230   0.433   4.848   4.372
 2258SOL     OW 7231   1.032   4.273   3.740
 2258SOL    HW1 7232   0.991   4.355   3.701
 2258SOL    HW2 7233   1.096   4.299   3.813
 2259SOL     OW 7234   0.078   4.280   5.110
 2259SOL    HW1 7235   0.170   4.279   5.069
 2259SOL    HW2 7236   0.072   4.354   5.177
 2260SOL     OW 7237   0.561   3.946   4.871
 2260SOL    HW1 7238   0.599   3.862   4.908
 2260SOL    HW2 7239   0.473   3.965   4.915
 2261SOL     OW 7240   0.866   4.178   4.366
 2261SOL    HW1 7241   0.834   4.250   4.304
 2261SOL    HW2 7242   0.890   4.097   4.313
 2262SOL     OW 7243   1.017   3.763   4.477
 2262SOL    HW1 7244   0.945   3.768   4.408
 2262SOL    HW2 7245   0.993   3.694   4.546
 2263SOL     OW 7246   1.429   4.897   4.591
 2263SOL    HW1 7247   1.374   4.813   4.584
 2263SOL    HW2 7248   1.455   4.926   4.499
 2264SOL     OW 7249   1.466   4.314   4.716
 2264SOL    HW1 7250   1.436   4.219   4.723
 2264SOL    HW2 7251   1.539   4.330   4.782
 2265SOL     OW 7252   1.857   4.557   4.101
 2265SOL    HW1 7253   1.899   4.493   4.165
 2265SOL    HW2 7254   1.819   4.506   4.023
 2266SOL     OW 7255   0.488   5.109   3.898
 2266SOL    HW1 7256   0.401   5.094   3.945
 2266SOL    HW2 7257   0.471   5.135   3.803
 2267SOL     OW 7258   1.664   5.004   4.381
 2267SOL    HW1 7259   1.763   5.012   4.395
 2267SOL    HW2 7260   1.619   5.088   4.412
 2268SOL     OW 7261   1.390   4.299   3.802
 2268SOL    HW1 7262   1.336   4.278   3.883
 2268SOL    HW2 7263   1.481   4.258   3.811
 2269SOL     OW 7264   0.527   3.980   4.052
 2269SOL    HW1 7265   0.554   3.921   3.977
 2269SOL    HW2 7266   0.527   4.075   4.021
 2270SOL     OW 7267   1.754   4.947   5.312
 2270SOL    HW1 7268   1.845   4.908   5.299
 2270SOL    HW2 7269   1.762   5.043   5.336
 2271SOL     OW 7270   1.064   5.071   5.064
 2271SOL    HW1 7271   0.984   5.048   5.119
 2271SOL    HW2 7272   1.147   5.045   5.113
 2272SOL     OW 7273   1.111   4.919   4.824
 2272SOL    HW1 7274   1.071   4.963   4.905
 2272SOL    HW2 7275   1.070   4.956   4.741
 2273SOL     OW 7276   1.638   4.823   4.803
 2273SOL    HW1 7277   1.643   4.904   4.862
 2273SOL    HW2 7278   1.552   4.825   4.752
 2274SOL     OW 7279   0.915   3.813   5.126
 2274SOL    HW1 7280   0.940   3.793   5.031
 2274SOL    HW2 7281   0.987   3.869   5.168
 2275SOL     OW 7282   0.980   4.840   5.443
 2275SOL    HW1 7283   0.881   4.846   5.453
 2275SOL    HW2 7284   1.003   4.760   5.387
 2276SOL     OW 7285   0.705   4.774   4.092
 2276SOL    HW1 7286   0.691   4.781   4.191
 2276SOL    HW2 7287   0.789   4.723   4.074
 2277SOL     OW 7288   0.410   4.537   4.975
 2277SOL    HW1 7289   0.496   4.549   5.025
 2277SOL    HW2 7290   0.368   4.450   5.002
 2278SOL     OW 7291   1.274   4.110   4.986
 2278SOL    HW1 7292   1.295   4.184   5.050
 2278SOL    HW2 7293   1.185   4.127   4.943
 2279SOL     OW 7294   0.064   5.288   5.055
 2279SOL    HW1 7295   0.018   5.370   5.021
 2279SOL    HW2 7296   0.162   5.307   5.064
 2280SOL     OW 7297   0.367   4.824   4.225
 2280SOL    HW1 7298   0.360   4.907   4.169
 2280SOL    HW2 7299   0.371   4.744   4.165
 2281SOL     OW 7300   0.566   4.261   4.589
 2281SOL    HW1 7301   0.578   4.327   4.515
 2281SOL    HW2 7302   0.612   4.295   4.672
 2282SOL     OW 7303   1.252   5.072   4.112
 2282SOL    HW1 7304   1.302   5.149   4.152
 2282SOL    HW2 7305   1.157   5.074   4.144
 2283SOL     OW 7306   1.272   5.169   4.866
 2283SOL    HW1 7307   1.319   5.182   4.953
 2283SOL    HW2 7308   1.206   5.095   4.875
 2284SOL     OW 7309   1.582   4.363   4.196
 2284SOL    HW1 7310   1.551   4.424   4.269
 2284SOL    HW2 7311   1.632   4.415   4.127
 2285SOL     OW 7312   0.354   5.234   5.053
 2285SOL    HW1 7313   0.333   5.190   4.966
 2285SOL    HW2 7314   0.451   5.260   5.056
 2286SOL     OW 7315   0.402   4.475   5.322
 2286SOL    HW1 7316   0.470   4.530   5.275
 2286SOL    HW2 7317   0.442   4.387   5.349
 2287SOL     OW 7318   1.587   4.503   5.394
 2287SOL    HW1 7319   1.495   4.541   5.389
 2287SOL    HW2 7320   1.647   4.550   5.329
 2288SOL     OW 7321   1.013   3.829   5.494
 2288SOL    HW1 7322   1.019   3.914   5.442
 2288SOL    HW2 7323   1.045   3.753   5.437
 2289SOL     OW 7324   0.504   3.774   5.464
 2289SOL    HW1 7325   0.462   3.717   5.394
 2289SOL    HW2 7326   0.438   3.843   5.496
 2290SOL     OW 7327   0.573   4.594   4.753
 2290SOL    HW1 7328   0.617   4.683   4.744
 2290SOL    HW2 7329   0.510   4.594   4.830
 2291SOL     OW 7330   1.360   4.586   4.769
 2291SOL    HW1 7331   1.285   4.586   4.703
 2291SOL    HW2 7332   1.397   4.494   4.778
 2292SOL     OW 7333   1.209   4.249   3.999
 2292SOL    HW1 7334   1.222   4.165   4.053
 2292SOL    HW2 7335   1.180   4.323   4.059
 2293SOL     OW 7336   0.307   3.937   4.955
 2293SOL    HW1 7337   0.284   3.974   5.045
 2293SOL    HW2 7338   0.277   3.842   4.949
 2294SOL     OW 7339   0.037   5.034   5.006
 2294SOL    HW1 7340   0.090   4.985   5.074
 2294SOL    HW2 7341   0.059   5.132   5.011
 2295SOL     OW 7342   0.732   4.358   4.788
 2295SOL    HW1 7343   0.791   4.332   4.712
 2295SOL    HW2 7344   0.704   4.454   4.777
 2296SOL     OW 7345   1.728   4.659   5.578
 2296SOL    HW1 7346   1.682   4.652   5.489
 2296SOL    HW2 7347   1.666   4.703   5.644
 2297SOL     OW 7348   0.307   3.787   4.342
 2297SOL    HW1 7349   0.296   3.881   4.375
 2297SOL    HW2 7350   0.302   3.724   4.419
 2298SOL     OW 7351   1.622   4.091   4.098
 2298SOL    HW1 7352   1.624   4.015   4.162
 2298SOL    HW2 7353   1.574   4.168   4.138
 2299SOL     OW 7354   1.023   4.490   4.690
 2299SOL    HW1 7355   1.038   4.511   4.786
 2299SOL    HW2 7356   0.993   4.395   4.681
 2300SOL     OW 7357   1.859   5.242   5.329
 2300SOL    HW1 7358   1.873   5.269   5.234
 2300SOL    HW2 7359   1.942   5.264   5.382
 2301SOL     OW 7360   0.350   4.622   5.528
 2301SOL    HW1 7361   0.426   4.666   5.576
 2301SOL    HW2 7362   0.385   4.575   5.446
 2302SOL     OW 7363   1.540   3.998   3.849
 2302SOL    HW1 7364   1.479   3.923   3.872
 2302SOL    HW2 7365   1.562   4.050   3.932
 2303SOL     OW 7366   1.303   4.562   3.766
 2303SOL    HW1 7367   1.337   4.469   3.781
 2303SOL    HW2 7368   1.321   4.589   3.671
 2304SOL     OW 7369   1.068   5.057   4.573
 2304SOL    HW1 7370   1.075   4.973   4.518
 2304SOL    HW2 7371   1.130   5.126   4.537
 2305SOL     OW 7372   0.319   4.534   4.673
 2305SOL    HW1 7373   0.412   4.570   4.678
 2305SOL    HW2 7374   0.313   4.449   4.725
 2306SOL     OW 7375   0.339   4.233   4.730
 2306SOL    HW1 7376   0.287   4.150   4.713
 2306SOL    HW2 7377   0.416   4.238   4.666
 2307SOL     OW 7378   1.138   4.104   5.402
 2307SOL    HW1 7379   1.093   4.167   5.466
 2307SOL    HW2 7380   1.231   4.135   5.385
 2308SOL     OW 7381   1.160   3.931   5.201
 2308SOL    HW1 7382   1.160   3.995   5.278
 2308SOL    HW2 7383   1.188   3.979   5.118
 2309SOL     OW 7384   0.008   5.050   3.924
 2309SOL    HW1 7385  -0.085   5.071   3.893
 2309SOL    HW2 7386   0.018   4.951   3.937
 2310SOL     OW 7387   1.002   4.520   4.962
 2310SOL    HW1 7388   1.043   4.488   5.048
 2310SOL    HW2 7389   0.906   4.493   4.959
 2311SOL     OW 7390   0.040   4.268   4.838
 2311SOL    HW1 7391   0.125   4.235   4.797
 2311SOL    HW2 7392   0.053   4.283   4.936
 2312SOL     OW 7393   0.189   4.244   5.446
 2312SOL    HW1 7394   0.248   4.204   5.376
 2312SOL    HW2 7395   0.131   4.315   5.405
 2313SOL     OW 7396   1.369   4.674   5.384
 2313SOL    HW1 7397   1.408   4.763   5.404
 2313SOL    HW2 7398   1.379   4.654   5.287
 2314SOL     OW 7399   0.815   4.296   4.049
 2314SOL    HW1 7400   0.822   4.207   4.003
 2314SOL    HW2 7401   0.721   4.330   4.041
 2315SOL     OW 7402   1.657   4.328   4.930
 2315SOL    HW1 7403   1.619   4.259   4.992
 2315SOL    HW2 7404   1.739   4.292   4.886
 2316SOL     OW 7405   0.252   5.288   5.468
 2316SOL    HW1 7406   0.222   5.345   5.544
 2316SOL    HW2 7407   0.245   5.191   5.494
 2317SOL     OW 7408   0.671   4.188   4.993
 2317SOL    HW1 7409   0.637   4.099   4.963
 2317SOL    HW2 7410   0.697   4.242   4.913
 2318SOL     OW 7411   0.473   4.224   3.915
 2318SOL    HW1 7412   0.534   4.304   3.919
 2318SOL    HW2 7413   0.378   4.255   3.922
 2319SOL     OW 7414   0.159   4.861   5.190
 2319SOL    HW1 7415   0.181   4.800   5.266
 2319SOL    HW2 7416   0.169   4.812   5.104
 2320SOL     OW 7417   1.347   4.783   4.958
 2320SOL    HW1 7418   1.371   4.720   4.884
 2320SOL    HW2 7419   1.257   4.823   4.940
 2321SOL     OW 7420   1.302   4.579   4.033
 2321SOL    HW1 7421   1.216   4.548   4.075
 2321SOL    HW2 7422   1.298   4.565   3.934
 2322SOL     OW 7423   0.083   4.982   4.746
 2322SOL    HW1 7424   0.078   4.981   4.846
 2322SOL    HW2 7425   0.000   4.941   4.708
 2323SOL     OW 7426   0.688   5.386   5.440
 2323SOL    HW1 7427   0.632   5.467   5.449
 2323SOL    HW2 7428   0.740   5.390   5.354
 2324SOL     OW 7429   1.726   3.859   4.247
 2324SOL    HW1 7430   1.799   3.842   4.180
 2324SOL    HW2 7431   1.695   3.772   4.285
 2325SOL     OW 7432   1.280   4.651   4.396
 2325SOL    HW1 7433   1.340   4.570   4.398
 2325SOL    HW2 7434   1.320   4.720   4.336
 2326SOL     OW 7435   0.830   4.997   5.146
 2326SOL    HW1 7436   0.825   5.030   5.241
 2326SOL    HW2 7437   0.744   5.016   5.100
 2327SOL     OW 7438   1.841   3.899   4.687
 2327SOL    HW1 7439   1.880   3.814   4.651
 2327SOL    HW2 7440   1.743   3.901   4.668
 2328SOL     OW 7441   0.263   4.050   4.444
 2328SOL    HW1 7442   0.184   4.101   4.410
 2328SOL    HW2 7443   0.254   4.035   4.542
 2329SOL     OW 7444   0.822   4.726   5.096
 2329SOL    HW1 7445   0.862   4.725   5.004
 2329SOL    HW2 7446   0.832   4.818   5.136
 2330SOL     OW 7447   0.916   4.634   4.015
 2330SOL    HW1 7448   0.979   4.672   3.947
 2330SOL    HW2 7449   0.956   4.551   4.054
 2331SOL     OW 7450   0.372   5.012   5.214
 2331SOL    HW1 7451   0.359   5.105   5.180
 2331SOL    HW2 7452   0.288   4.960   5.201
 2332SOL     OW 7453   1.614   5.016   5.013
 2332SOL    HW1 7454   1.674   5.019   5.093
 2332SOL    HW2 7455   1.539   5.080   5.026
 2333SOL     OW 7456   1.039   4.822   4.420
 2333SOL    HW1 7457   0.969   4.775   4.474
 2333SOL    HW2 7458   1.098   4.754   4.377
 2334SOL     OW 7459   1.014   3.960   4.695
 2334SOL    HW1 7460   1.006   3.924   4.602
 2334SOL    HW2 7461   1.012   3.884   4.760
 2335SOL     OW 7462   1.709   4.109   5.105
 2335SOL    HW1 7463   1.782   4.178   5.109
 2335SOL    HW2 7464   1.737   4.034   5.046
 2336SOL     OW 7465   0.255   5.072   4.014
 2336SOL    HW1 7466   0.159   5.073   3.987
 2336SOL    HW2 7467   0.267   5.125   4.098
 2337SOL     OW 7468   0.105   4.737   5.450
 2337SOL    HW1 7469   0.028   4.704   5.504
 2337SOL    HW2 7470   0.190   4.707   5.492
 2338SOL     OW 7471   0.672   3.927   5.213
 2338SOL    HW1 7472   0.762   3.911   5.173
 2338SOL    HW2 7473   0.680   3.932   5.312
 2339SOL     OW 7474   0.075   4.069   3.757
 2339SOL    HW1 7475  -0.017   4.041   3.728
 2339SOL    HW2 7476   0.106   4.146   3.701
 2340SOL     OW 7477   1.440   4.580   5.122
 2340SOL    HW1 7478   1.383   4.632   5.059
 2340SOL    HW2 7479   1.536   4.592   5.098
 2341SOL     OW 7480   0.072   3.890   4.042
 2341SOL    HW1 7481   0.055   3.973   3.988
 2341SOL    HW2 7482   0.162   3.853   4.020
 2342SOL     OW 7483   1.183   5.059   3.843
 2342SOL    HW1 7484   1.084   5.048   3.845
 2342SOL    HW2 7485   1.217   5.074   3.936
 2343SOL     OW 7486   0.613   4.566   5.155
 2343SOL    HW1 7487   0.669   4.647   5.138
 2343SOL    HW2 7488   0.672   4.486   5.158
 2344SOL     OW 7489   0.716   4.289   5.432
 2344SOL    HW1 7490   0.735   4.354   5.506
 2344SOL    HW2 7491   0.776   4.209   5.441
 2345SOL     OW 7492   1.450   4.944   5.357
 2345SOL    HW1 7493   1.441   4.934   5.456
 2345SOL    HW2 7494   1.546   4.937   5.331
 2346SOL     OW 7495   1.674   4.607   4.978
 2346SOL    HW1 7496   1.647   4.518   4.941
 2346SOL    HW2 7497   1.675   4.675   4.905
 2347SOL     OW 7498   1.225   4.049   4.173
 2347SOL    HW1 7499   1.290   3.975   4.162
 2347SOL    HW2 7500   1.245   4.099   4.257
 2348SOL     OW 7501   0.594   4.469   4.376
 2348SOL    HW1 7502   0.644   4.554   4.357
 2348SOL    HW2 7503   0.506   4.471   4.328
 2349SOL     OW 7504   1.777   4.066   5.366
 2349SOL    HW1 7505   1.760   4.097   5.272
 2349SOL    HW2 7506   1.693   4.029   5.404
 2350SOL     OW 7507   1.730   4.658   5.241
 2350SOL    HW1 7508   1.768   4.749   5.256
 2350SOL    HW2 7509   1.722   4.641   5.142
 2351SOL     OW 7510   0.859   5.098   3.740
 2351SOL    HW1 7511   0.813   5.113   3.828
 2351SOL    HW2 7512   0.903   5.183   3.710
 2352SOL     OW 7513   0.859   4.680   4.585
 2352SOL    HW1 7514   0.913   4.611   4.633
 2352SOL    HW2 7515   0.827   4.749   4.651
 2353SOL     OW 7516   1.083   4.708   3.811
 2353SOL    HW1 7517   1.060   4.761   3.729
 2353SOL    HW2 7518   1.164   4.652   3.792
 2354SOL     OW 7519   0.221   5.038   5.568
 2354SOL    HW1 7520   0.156   4.965   5.547
 2354SOL    HW2 7521   0.225   5.052   5.666
 2355SOL     OW 7522   0.079   4.964   4.377
 2355SOL    HW1 7523   0.078   4.917   4.465
 2355SOL    HW2 7524   0.161   4.936   4.326
 2356SOL     OW 7525   0.672   5.115   5.348
 2356SOL    HW1 7526   0.594   5.065   5.386
 2356SOL    HW2 7527   0.669   5.210   5.379
 2357SOL     OW 7528   1.824   3.916   4.951
 2357SOL    HW1 7529   1.820   3.826   4.995
 2357SOL    HW2 7530   1.827   3.905   4.852
 2358SOL     OW 7531   0.428   4.148   4.244
 2358SOL    HW1 7532   0.458   4.076   4.182
 2358SOL    HW2 7533   0.389   4.108   4.327
 2359SOL     OW 7534   1.705   5.211   4.828
 2359SOL    HW1 7535   1.612   5.186   4.801
 2359SOL    HW2 7536   1.731   5.161   4.910
 2360SOL     OW 7537   0.317   4.271   5.004
 2360SOL    HW1 7538   0.355   4.212   5.076
 2360SOL    HW2 7539   0.357   4.245   4.916
 2361SOL     OW 7540   1.424   3.938   4.836
 2361SOL    HW1 7541   1.476   3.873   4.891
 2361SOL    HW2 7542   1.375   4.001   4.897
 2362SOL     OW 7543   1.001   3.758   4.878
 2362SOL    HW1 7544   0.938   3.686   4.847
 2362SOL    HW2 7545   1.094   3.722   4.878
 2363SOL     OW 7546   0.770   5.054   4.025
 2363SOL    HW1 7547   0.724   4.967   4.042
 2363SOL    HW2 7548   0.861   5.051   4.066
 2364SOL     OW 7549   0.618   5.291   5.008
 2364SOL    HW1 7550   0.613   5.373   5.065
 2364SOL    HW2 7551   0.707   5.288   4.963
 2365SOL     OW 7552   1.352   3.776   3.892
 2365SOL    HW1 7553   1.387   3.735   3.808
 2365SOL    HW2 7554   1.262   3.738   3.912
 2366SOL     OW 7555   1.300   4.177   4.415
 2366SOL    HW1 7556   1.241   4.257   4.419
 2366SOL    HW2 7557   1.315   4.142   4.508
 2367SOL     OW 7558   1.593   3.945   4.606
 2367SOL    HW1 7559   1.509   3.944   4.660
 2367SOL    HW2 7560   1.595   4.028   4.550
 2368SOL     OW 7561   0.039   4.801   4.024
 2368SOL    HW1 7562   0.138   4.790   4.015
 2368SOL    HW2 7563  -0.001   4.715   4.056
 2369SOL     OW 7564   0.230   4.352   5.699
 2369SOL    HW1 7565   0.137   4.350   5.736
 2369SOL    HW2 7566   0.231   4.313   5.607
 2370SOL     OW 7567   0.225   3.999   6.582
 2370SOL    HW1 7568   0.260   3.982   6.674
 2370SOL    HW2 7569   0.137   3.954   6.570
 2371SOL     OW 7570   0.019   4.092   6.233
 2371SOL    HW1 7571  -0.063   4.135   6.272
 2371SOL    HW2 7572  -0.009   4.019   6.170
 2372SOL     OW 7573   0.569   4.999   6.751
 2372SOL    HW1 7574   0.476   4.992   6.714
 2372SOL    HW2 7575   0.580   5.088   6.795
 2373SOL     OW 7576   1.555   5.235   6.289
 2373SOL    HW1 7577   1.498   5.219   6.370
 2373SOL    HW2 7578   1.496   5.245   6.209
 2374SOL     OW 7579   1.135   4.427   6.303
 2374SOL    HW1 7580   1.192   4.505   6.278
 2374SOL    HW2 7581   1.075   4.453   6.379
 2375SOL     OW 7582   1.755   4.331   5.817
 2375SOL    HW1 7583   1.743   4.318   5.718
 2375SOL    HW2 7584   1.725   4.250   5.866
 2376SOL     OW 7585   0.768   4.868   6.609
 2376SOL    HW1 7586   0.690   4.885   6.669
 2376SOL    HW2 7587   0.802   4.955   6.573
 2377SOL     OW 7588   0.850   4.522   7.409
 2377SOL    HW1 7589   0.846   4.598   7.474
 2377SOL    HW2 7590   0.872   4.558   7.318
 2378SOL     OW 7591   0.685   4.736   6.251
 2378SOL    HW1 7592   0.754   4.720   6.321
 2378SOL    HW2 7593   0.612   4.793   6.289
 2379SOL     OW 7594   0.686   4.885   7.389
 2379SOL    HW1 7595   0.746   4.964   7.403
 2379SOL    HW2 7596   0.600   4.916   7.348
 2380SOL     OW 7597   0.335   5.159   6.647
 2380SOL    HW1 7598   0.257   5.128   6.594
 2380SOL    HW2 7599   0.393   5.217   6.590
 2381SOL     OW 7600   1.460   5.229   6.925
 2381SOL    HW1 7601   1.484   5.323   6.951
 2381SOL    HW2 7602   1.444   5.175   7.007
 2382SOL     OW 7603   0.438   4.116   7.085
 2382SOL    HW1 7604   0.520   4.060   7.094
 2382SOL    HW2 7605   0.357   4.058   7.089
 2383SOL     OW 7606   1.603   4.171   6.323
 2383SOL    HW1 7607   1.529   4.217   6.273
 2383SOL    HW2 7608   1.654   4.239   6.376
 2384SOL     OW 7609   1.127   5.065   7.276
 2384SOL    HW1 7610   1.174   5.065   7.364
 2384SOL    HW2 7611   1.079   4.978   7.265
 2385SOL     OW 7612   0.230   5.158   6.124
 2385SOL    HW1 7613   0.204   5.254   6.124
 2385SOL    HW2 7614   0.159   5.104   6.169
 2386SOL     OW 7615   0.240   4.815   6.472
 2386SOL    HW1 7616   0.254   4.731   6.524
 2386SOL    HW2 7617   0.185   4.879   6.527
 2387SOL     OW 7618   0.606   4.688   5.709
 2387SOL    HW1 7619   0.613   4.772   5.655
 2387SOL    HW2 7620   0.652   4.701   5.797
 2388SOL     OW 7621   1.594   3.838   7.066
 2388SOL    HW1 7622   1.576   3.905   6.994
 2388SOL    HW2 7623   1.591   3.884   7.155
 2389SOL     OW 7624   0.122   4.367   6.149
 2389SOL    HW1 7625   0.077   4.279   6.166
 2389SOL    HW2 7626   0.121   4.421   6.233
 2390SOL     OW 7627   0.027   5.320   5.703
 2390SOL    HW1 7628   0.008   5.224   5.724
 2390SOL    HW2 7629  -0.006   5.378   5.778
 2391SOL     OW 7630   1.689   4.646   6.198
 2391SOL    HW1 7631   1.784   4.617   6.206
 2391SOL    HW2 7632   1.681   4.711   6.123
 2392SOL     OW 7633   1.641   4.832   6.018
 2392SOL    HW1 7634   1.727   4.834   5.966
 2392SOL    HW2 7635   1.655   4.879   6.106
 2393SOL     OW 7636   0.113   4.461   7.183
 2393SOL    HW1 7637   0.201   4.448   7.228
 2393SOL    HW2 7638   0.100   4.558   7.161
 2394SOL     OW 7639   0.613   5.089   6.312
 2394SOL    HW1 7640   0.564   5.002   6.321
 2394SOL    HW2 7641   0.590   5.132   6.225
 2395SOL     OW 7642   1.293   4.952   7.009
 2395SOL    HW1 7643   1.330   4.879   6.951
 2395SOL    HW2 7644   1.345   4.957   7.094
 2396SOL     OW 7645   0.809   3.728   6.088
 2396SOL    HW1 7646   0.849   3.819   6.079
 2396SOL    HW2 7647   0.709   3.736   6.094
 2397SOL     OW 7648   0.197   4.700   6.850
 2397SOL    HW1 7649   0.286   4.655   6.836
 2397SOL    HW2 7650   0.124   4.635   6.831
 2398SOL     OW 7651   1.525   4.723   5.776
 2398SOL    HW1 7652   1.462   4.647   5.789
 2398SOL    HW2 7653   1.573   4.741   5.862
 2399SOL     OW 7654   0.317   3.975   7.387
 2399SOL    HW1 7655   0.388   4.046   7.393
 2399SOL    HW2 7656   0.229   4.014   7.415
 2400SOL     OW 7657   1.466   5.141   6.539
 2400SOL    HW1 7658   1.407   5.147   6.619
 2400SOL    HW2 7659   1.451   5.053   6.493
 2401SOL     OW 7660   0.598   4.453   5.856
 2401SOL    HW1 7661   0.622   4.522   5.788
 2401SOL    HW2 7662   0.520   4.486   5.910
 2402SOL     OW 7663   1.281   4.069   6.530
 2402SOL    HW1 7664   1.195   4.019   6.517
 2402SOL    HW2 7665   1.343   4.015   6.586
 2403SOL     OW 7666   0.807   4.329   7.051
 2403SOL    HW1 7667   0.760   4.326   7.140
 2403SOL    HW2 7668   0.756   4.274   6.985
 2404SOL     OW 7669   1.394   4.193   7.260
 2404SOL    HW1 7670   1.374   4.236   7.348
 2404SOL    HW2 7671   1.472   4.131   7.269
 2405SOL     OW 7672   0.973   4.614   7.158
 2405SOL    HW1 7673   1.019   4.530   7.129
 2405SOL    HW2 7674   0.917   4.648   7.083
 2406SOL     OW 7675   0.991   4.134   6.828
 2406SOL    HW1 7676   0.914   4.168   6.882
 2406SOL    HW2 7677   0.957   4.083   6.749
 2407SOL     OW 7678   1.041   4.425   6.015
 2407SOL    HW1 7679   1.067   4.421   6.111
 2407SOL    HW2 7680   0.956   4.374   6.001
 2408SOL     OW 7681   0.076   4.535   6.375
 2408SOL    HW1 7682   0.175   4.523   6.384
 2408SOL    HW2 7683   0.052   4.630   6.396
 2409SOL     OW 7684   0.865   4.072   5.781
 2409SOL    HW1 7685   0.924   4.135   5.732
 2409SOL    HW2 7686   0.884   3.978   5.752
 2410SOL     OW 7687   1.719   4.309   7.417
 2410SOL    HW1 7688   1.693   4.398   7.381
 2410SOL    HW2 7689   1.717   4.241   7.344
 2411SOL     OW 7690   1.362   4.868   6.131
 2411SOL    HW1 7691   1.445   4.839   6.083
 2411SOL    HW2 7692   1.313   4.935   6.075
 2412SOL     OW 7693   0.550   3.920   6.471
 2412SOL    HW1 7694   0.545   3.915   6.571
 2412SOL    HW2 7695   0.552   4.016   6.442
 2413SOL     OW 7696   1.008   5.180   6.063
 2413SOL    HW1 7697   0.962   5.252   6.011
 2413SOL    HW2 7698   1.004   5.200   6.161
 2414SOL     OW 7699   1.795   4.790   6.459
 2414SOL    HW1 7700   1.733   4.775   6.383
 2414SOL    HW2 7701   1.743   4.801   6.544
 2415SOL     OW 7702   1.227   5.274   7.092
 2415SOL    HW1 7703   1.233   5.197   7.156
 2415SOL    HW2 7704   1.175   5.248   7.012
 2416SOL     OW 7705   0.321   4.667   5.828
 2416SOL    HW1 7706   0.403   4.706   5.786
 2416SOL    HW2 7707   0.294   4.585   5.779
 2417SOL     OW 7708   1.458   4.459   6.314
 2417SOL    HW1 7709   1.453   4.394   6.389
 2417SOL    HW2 7710   1.538   4.518   6.327
 2418SOL     OW 7711   0.461   4.990   7.313
 2418SOL    HW1 7712   0.411   4.991   7.227
 2418SOL    HW2 7713   0.398   4.972   7.389
 2419SOL     OW 7714   1.111   5.500   5.823
 2419SOL    HW1 7715   1.051   5.438   5.873
 2419SOL    HW2 7716   1.142   5.456   5.738
 2420SOL     OW 7717   0.202   4.009   7.084
 2420SOL    HW1 7718   0.122   4.069   7.071
 2420SOL    HW2 7719   0.192   3.960   7.170
 2421SOL     OW 7720   1.632   5.101   5.667
 2421SOL    HW1 7721   1.600   5.195   5.657
 2421SOL    HW2 7722   1.556   5.038   5.655
 2422SOL     OW 7723   1.400   3.831   6.012
 2422SOL    HW1 7724   1.376   3.794   5.922
 2422SOL    HW2 7725   1.499   3.847   6.016
 2423SOL     OW 7726   0.382   4.424   6.066
 2423SOL    HW1 7727   0.427   4.334   6.063
 2423SOL    HW2 7728   0.288   4.413   6.099
 2424SOL     OW 7729   1.547   3.946   7.315
 2424SOL    HW1 7730   1.542   3.983   7.407
 2424SOL    HW2 7731   1.475   3.877   7.303
 2425SOL     OW 7732   0.614   3.846   5.703
 2425SOL    HW1 7733   0.712   3.824   5.710
 2425SOL    HW2 7734   0.583   3.829   5.610
 2426SOL     OW 7735   0.781   3.988   7.335
 2426SOL    HW1 7736   0.848   3.927   7.378
 2426SOL    HW2 7737   0.708   4.007   7.400
 2427SOL     OW 7738   1.351   4.314   7.019
 2427SOL    HW1 7739   1.379   4.271   7.104
 2427SOL    HW2 7740   1.376   4.410   7.020
 2428SOL     OW 7741   0.803   5.126   6.510
 2428SOL    HW1 7742   0.893   5.140   6.468
 2428SOL    HW2 7743   0.732   5.128   6.439
 2429SOL     OW 7744   0.922   4.227   6.485
 2429SOL    HW1 7745   0.897   4.218   6.389
 2429SOL    HW2 7746   0.970   4.145   6.516
 2430SOL     OW 7747   0.539   3.788   6.098
 2430SOL    HW1 7748   0.458   3.789   6.156
 2430SOL    HW2 7749   0.542   3.871   6.043
 2431SOL     OW 7750   1.434   4.912   5.627
 2431SOL    HW1 7751   1.466   4.836   5.684
 2431SOL    HW2 7752   1.342   4.939   5.657
 2432SOL     OW 7753   0.297   3.759   5.757
 2432SOL    HW1 7754   0.346   3.843   5.736
 2432SOL    HW2 7755   0.359   3.694   5.802
 2433SOL     OW 7756   0.935   3.960   6.066
 2433SOL    HW1 7757   0.887   4.001   5.988
 2433SOL    HW2 7758   1.034   3.958   6.047
 2434SOL     OW 7759   1.076   4.407   7.050
 2434SOL    HW1 7760   0.996   4.346   7.053
 2434SOL    HW2 7761   1.157   4.354   7.026
 2435SOL     OW 7762   1.227   5.294   6.379
 2435SOL    HW1 7763   1.248   5.368   6.314
 2435SOL    HW2 7764   1.295   5.294   6.452
 2436SOL     OW 7765   0.459   4.876   6.327
 2436SOL    HW1 7766   0.388   4.849   6.392
 2436SOL    HW2 7767   0.433   4.848   6.234
 2437SOL     OW 7768   1.032   4.273   5.602
 2437SOL    HW1 7769   0.991   4.355   5.563
 2437SOL    HW2 7770   1.096   4.299   5.675
 2438SOL     OW 7771   0.078   4.280   6.972
 2438SOL    HW1 7772   0.170   4.279   6.931
 2438SOL    HW2 7773   0.072   4.354   7.039
 2439SOL     OW 7774   0.561   3.946   6.733
 2439SOL    HW1 7775   0.599   3.862   6.770
 2439SOL    HW2 7776   0.473   3.965   6.777
 2440SOL     OW 7777   0.866   4.178   6.228
 2440SOL    HW1 7778   0.834   4.250   6.166
 2440SOL    HW2 7779   0.890   4.097   6.175
 2441SOL     OW 7780   1.017   3.763   6.339
 2441SOL    HW1 7781   0.945   3.768   6.270
 2441SOL    HW2 7782   0.993   3.694   6.408
 2442SOL     OW 7783   1.429   4.897   6.453
 2442SOL    HW1 7784   1.374   4.813   6.446
 2442SOL    HW2 7785   1.455   4.926   6.361
 2443SOL     OW 7786   1.466   4.314   6.578
 2443SOL    HW1 7787   1.436   4.219   6.585
 2443SOL    HW2 7788   1.539   4.330   6.644
 2444SOL     OW 7789   1.857   4.557   5.963
 2444SOL    HW1 7790   1.899   4.493   6.027
 2444SOL    HW2 7791   1.819   4.506   5.885
 2445SOL     OW 7792   0.488   5.109   5.760
 2445SOL    HW1 7793   0.401   5.094   5.807
 2445SOL    HW2 7794   0.471   5.135   5.665
 2446SOL     OW 7795   1.664   5.004   6.243
 2446SOL    HW1 7796   1.763   5.012   6.257
 2446SOL    HW2 7797   1.619   5.088   6.274
 2447SOL     OW 7798   1.390   4.299   5.664
 2447SOL    HW1 7799   1.336   4.278   5.745
 2447SOL    HW2 7800   1.481   4.258   5.673
 2448SOL     OW 7801   0.527   3.980   5.914
 2448SOL    HW1 7802   0.554   3.921   5.839
 2448SOL    HW2 7803   0.527   4.075   5.883
 2449SOL     OW 7804   1.754   4.947   7.174
 2449SOL    HW1 7805   1.845   4.908   7.161
 2449SOL    HW2 7806   1.762   5.043   7.198
 2450SOL     OW 7807   1.064   5.071   6.926
 2450SOL    HW1 7808   0.984   5.048   6.981
 2450SOL    HW2 7809   1.147   5.045   6.975
 2451SOL     OW 7810   1.111   4.919   6.686
 2451SOL    HW1 7811   1.071   4.963   6.767
 2451SOL    HW2 7812   1.070   4.956   6.603
 2452SOL     OW 7813   1.638   4.823   6.665
 2452SOL    HW1 7814   1.643   4.904   6.724
 2452SOL    HW2 7815   1.552   4.825   6.614
 2453SOL     OW 7816   0.915   3.813   6.988
 2453SOL    HW1 7817   0.940   3.793   6.893
 2453SOL    HW2 7818   0.987   3.869   7.030
 2454SOL     OW 7819   0.980   4.840   7.305
 2454SOL    HW1 7820   0.881   4.846   7.315
 2454SOL    HW2 7821   1.003   4.760   7.249
 2455SOL     OW 7822   0.705   4.774   5.954
 2455SOL    HW1 7823   0.691   4.781   6.053
 2455SOL    HW2 7824   0.789   4.723   5.936
 2456SOL     OW 7825   0.410   4.537   6.837
 2456SOL    HW1 7826   0.496   4.549   6.887
 2456SOL    HW2 7827   0.368   4.450   6.864
 2457SOL     OW 7828   1.274   4.110   6.848
 2457SOL    HW1 7829   1.295   4.184   6.912
 2457SOL    HW2 7830   1.185   4.127   6.805
 2458SOL     OW 7831   0.064   5.288   6.917
 2458SOL    HW1 7832   0.018   5.370   6.883
 2458SOL    HW2 7833   0.162   5.307   6.926
 2459SOL     OW 7834   0.367   4.824   6.087
 2459SOL    HW1 7835   0.360   4.907   6.031
 2459SOL    HW2 7836   0.371   4.744   6.027
 2460SOL     OW 7837   0.566   4.261   6.451
 2460SOL    HW1 7838   0.578   4.327   6.377
 2460SOL    HW2 7839   0.612   4.295   6.534
 2461SOL     OW 7840   1.252   5.072   5.974
 2461SOL    HW1 7841   1.302   5.149   6.014
 2461SOL    HW2 7842   1.157   5.074   6.006
 2462SOL     OW 7843   1.272   5.169   6.728
 2462SOL    HW1 7844   1.319   5.182   6.815
 2462SOL    HW2 7845   1.206   5.095   6.737
 2463SOL     OW 7846   1.582   4.363   6.058
 2463SOL    HW1 7847   1.551   4.424   6.131
 2463SOL    HW2 7848   1.632   4.415   5.989
 2464SOL     OW 7849   0.354   5.234   6.915
 2464SOL    HW1 7850   0.333   5.190   6.828
 2464SOL    HW2 7851   0.451   5.260   6.918
 2465SOL     OW 7852   0.402   4.475   7.184
 2465SOL    HW1 7853   0.470   4.530   7.137
 2465SOL    HW2 7854   0.442   4.387   7.211
 2466SOL     OW 7855   1.587   4.503   7.256
 2466SOL    HW1 7856   1.495   4.541   7.251
 2466SOL    HW2 7857   1.647   4.550   7.191
 2467SOL     OW 7858   1.013   3.829   7.356
 2467SOL    HW1 7859   1.019   3.914   7.304
 2467SOL    HW2 7860   1.045   3.753   7.299
 2468SOL     OW 7861   0.504   3.774   7.326
 2468SOL    HW1 7862   0.462   3.717   7.256
 2468SOL    HW2 7863   0.438   3.843   7.358
 2469SOL     OW 7864   0.573   4.594   6.615
 2469SOL    HW1 7865   0.617   4.683   6.606
 2469SOL    HW2 7866   0.510   4.594   6.692
 2470SOL     OW 7867   1.360   4.586   6.631
 2470SOL    HW1 7868   1.285   4.586   6.565
 2470SOL    HW2 7869   1.397   4.494   6.640
 2471SOL     OW 7870   1.209   4.249   5.861
 2471SOL    HW1 7871   1.222   4.165   5.915
 2471SOL    HW2 7872   1.180   4.323   5.921
 2472SOL     OW 7873   0.307   3.937   6.817
 2472SOL    HW1 7874   0.284   3.974   6.907
 2472SOL    HW2 7875   0.277   3.842   6.811
 2473SOL     OW 7876   0.037   5.034   6.868
 2473SOL    HW1 7877   0.090   4.985   6.936
 2473SOL    HW2 7878   0.059   5.132   6.873
 2474SOL     OW 7879   0.732   4.358   6.650
 2474SOL    HW1 7880   0.791   4.332   6.574
 2474SOL    HW2 7881   0.704   4.454   6.639
 2475SOL     OW 7882   1.728   4.659   7.440
 2475SOL    HW1 7883   1.682   4.652   7.351
 2475SOL    HW2 7884   1.666   4.703   7.506
 2476SOL     OW 7885   0.307   3.787   6.204
 2476SOL    HW1 7886   0.296   3.881   6.237
 2476SOL    HW2 7887   0.302   3.724   6.281
 2477SOL     OW 7888   1.622   4.091   5.960
 2477SOL    HW1 7889   1.624   4.015   6.024
 2477SOL    HW2 7890   1.574   4.168   6.000
 2478SOL     OW 7891   1.023   4.490   6.552
 2478SOL    HW1 7892   1.038   4.511   6.648
 2478SOL    HW2 7893   0.993   4.395   6.543
 2479SOL     OW 7894   1.859   5.242   7.191
 2479SOL    HW1 7895   1.873   5.269   7.096
 2479SOL    HW2 7896   1.942   5.264   7.244
 2480SOL     OW 7897   0.350   4.622   7.390
 2480SOL    HW1 7898   0.426   4.666   7.438
 2480SOL    HW2 7899   0.385   4.575   7.308
 2481SOL     OW 7900   1.540   3.998   5.711
 2481SOL    HW1 7901   1.479   3.923   5.734
 2481SOL    HW2 7902   1.562   4.050   5.794
 2482SOL     OW 7903   1.303   4.562   5.628
 2482SOL    HW1 7904   1.337   4.469   5.643
 2482SOL    HW2 7905   1.321   4.589   5.533
 2483SOL     OW 7906   1.068   5.057   6.435
 2483SOL    HW1 7907   1.075   4.973   6.380
 2483SOL    HW2 7908   1.130   5.126   6.399
 2484SOL     OW 7909   0.319   4.534   6.535
 2484SOL    HW1 7910   0.412   4.570   6.540
 2484SOL    HW2 7911   0.313   4.449   6.587
 2485SOL     OW 7912   0.339   4.233   6.592
 2485SOL    HW1 7913   0.287   4.150   6.575
 2485SOL    HW2 7914   0.416   4.238   6.528
 2486SOL     OW 7915   1.138   4.104   7.264
 2486SOL    HW1 7916   1.093   4.167   7.328
 2486SOL    HW2 7917   1.231   4.135   7.247
 2487SOL     OW 7918   1.160   3.931   7.063
 2487SOL    HW1 7919   1.160   3.995   7.140
 2487SOL    HW2 7920   1.188   3.979   6.980
 2488SOL     OW 7921   0.008   5.050   5.786
 2488SOL    HW1 7922  -0.085   5.071   5.755
 2488SOL    HW2 7923   0.018   4.951   5.799
 2489SOL     OW 7924   1.002   4.520   6.824
 2489SOL    HW1 7925   1.043   4.488   6.910
 2489SOL    HW2 7926   0.906   4.493   6.821
 2490SOL     OW 7927   0.040   4.268   6.700
 2490SOL    HW1 7928   0.125   4.235   6.659
 2490SOL    HW2 7929   0.053   4.283   6.798
 2491SOL     OW 7930   0.189   4.244   7.308
 2491SOL    HW1 7931   0.248   4.204   7.238
 2491SOL    HW2 7932   0.131   4.315   7.267
 2492SOL     OW 7933   1.369   4.674   7.246
 2492SOL    HW1 7934   1.408   4.763   7.266
 2492SOL    HW2 7935   1.379   4.654   7.149
 2493SOL     OW 7936   0.815   4.296   5.911
 2493SOL    HW1 7937   0.822   4.207   5.865
 2493SOL    HW2 7938   0.721   4.330   5.903
 2494SOL     OW 7939   1.657   4.328   6.792
 2494SOL    HW1 7940   1.619   4.259   6.854
 2494SOL    HW2 7941   1.739   4.292   6.748
 2495SOL     OW 7942   0.252   5.288   7.330
 2495SOL    HW1 7943   0.222   5.345   7.406
 2495SOL    HW2 7944   0.245   5.191   7.356
 2496SOL     OW 7945   0.671   4.188   6.855
 2496SOL    HW1 7946   0.637   4.099   6.825
 2496SOL    HW2 7947   0.697   4.242   6.775
 2497SOL     OW 7948   0.473   4.224   5.777
 2497SOL    HW1 7949   0.534   4.304   5.781
 2497SOL    HW2 7950   0.378   4.255   5.784
 2498SOL     OW 7951   0.159   4.861   7.052
 2498SOL    HW1 7952   0.181   4.800   7.128
 2498SOL    HW2 7953   0.169   4.812   6.966
 2499SOL     OW 7954   1.347   4.783   6.820
 2499SOL    HW1 7955   1.371   4.720   6.746
 2499SOL    HW2 7956   1.257   4.823   6.802
 2500SOL     OW 7957   1.302   4.579   5.895
 2500SOL    HW1 7958   1.216   4.548   5.937
 2500SOL    HW2 7959   1.298   4.565   5.796
 2501SOL     OW 7960   0.083   4.982   6.608
 2501SOL    HW1 7961   0.078   4.981   6.708
 2501SOL    HW2 7962   0.000   4.941   6.570
 2502SOL     OW 7963   0.688   5.386   7.302
 2502SOL    HW1 7964   0.632   5.467   7.311
 2502SOL    HW2 7965   0.740   5.390   7.216
 2503SOL     OW 7966   1.726   3.859   6.109
 2503SOL    HW1 7967   1.799   3.842   6.042
 2503SOL    HW2 7968   1.695   3.772   6.147
 2504SOL     OW 7969   1.280   4.651   6.258
 2504SOL    HW1 7970   1.340   4.570   6.260
 2504SOL    HW2 7971   1.320   4.720   6.198
 2505SOL     OW 7972   0.830   4.997   7.008
 2505SOL    HW1 7973   0.825   5.030   7.103
 2505SOL    HW2 7974   0.744   5.016   6.962
 2506SOL     OW 7975   1.841   3.899   6.549
 2506SOL    HW1 7976   1.880   3.814   6.513
 2506SOL    HW2 7977   1.743   3.901   6.530
 2507SOL     OW 7978   0.263   4.050   6.306
 2507SOL    HW1 7979   0.184   4.101   6.272
 2507SOL    HW2 7980   0.254   4.035   6.404
 2508SOL     OW 7981   0.822   4.726   6.958
 2508SOL    HW1 7982   0.862   4.725   6.866
 2508SOL    HW2 7983   0.832   4.818   6.998
 2509SOL     OW 7984   0.916   4.634   5.877
 2509SOL    HW1 7985   0.979   4.672   5.809
 2509SOL    HW2 7986   0.956   4.551   5.916
 2510SOL     OW 7987   0.372   5.012   7.076
 2510SOL    HW1 7988   0.359   5.105   7.042
 2510SOL    HW2 7989   0.288   4.960   7.063
 2511SOL     OW 7990   1.614   5.016   6.875
 2511SOL    HW1 7991   1.674   5.019   6.955
 2511SOL    HW2 7992   1.539   5.080   6.888
 2512SOL     OW 7993   1.039   4.822   6.282
 2512SOL    HW1 7994   0.969   4.775   6.336
 2512SOL    HW2 7995   1.098   4.754   6.239
 2513SOL     OW 7996   1.014   3.960   6.557
 2513SOL    HW1 7997   1.006   3.924   6.464
 2513SOL    HW2 7998   1.012   3.884   6.622
 2514SOL     OW 7999   1.709   4.109   6.967
 2514SOL    HW1 8000   1.782   4.178   6.971
 2514SOL    HW2 8001   1.737   4.034   6.908
 2515SOL     OW 8002   0.255   5.072   5.876
 2515SOL    HW1 8003   0.159   5.073   5.849
 2515SOL    HW2 8004   0.267   5.125   5.960
 2516SOL     OW 8005   0.105   4.737   7.312
 2516SOL    HW1 8006   0.028   4.704   7.366
 2516SOL    HW2 8007   0.190   4.707   7.354
 2517SOL     OW 8008   0.672   3.927   7.075
 2517SOL    HW1 8009   0.762   3.911   7.035
 2517SOL    HW2 8010   0.680   3.932   7.174
 2518SOL     OW 8011   0.075   4.069   5.619
 2518SOL    HW1 8012  -0.017   4.041   5.590
 2518SOL    HW2 8013   0.106   4.146   5.563
 2519SOL     OW 8014   1.440   4.580   6.984
 2519SOL    HW1 8015   1.383   4.632   6.921
 2519SOL    HW2 8016   1.536   4.592   6.960
 2520SOL     OW 8017   0.072   3.890   5.904
 2520SOL    HW1 8018   0.055   3.973   5.850
 2520SOL    HW2 8019   0.162   3.853   5.882
 2521SOL     OW 8020   1.183   5.059   5.705
 2521SOL    HW1 8021   1.084   5.048   5.707
 2521SOL    HW2 8022   1.217   5.074   5.798
 2522SOL     OW 8023   0.613   4.566   7.017
 2522SOL    HW1 8024   0.669   4.647   7.000
 2522SOL    HW2 8025   0.672   4.486   7.020
 2523SOL     OW 8026   0.716   4.289   7.294
 2523SOL    HW1 8027   0.735   4.354   7.368
 2523SOL    HW2 8028   0.776   4.209   7.303
 2524SOL     OW 8029   1.450   4.944   7.219
 2524SOL    HW1 8030   1.441   4.934   7.318
 2524SOL    HW2 8031   1.546   4.937   7.193
 2525SOL     OW 8032   1.674   4.607   6.840
 2525SOL    HW1 8033   1.647   4.518   6.803
 2525SOL    HW2 8034   1.675   4.675   6.767
 2526SOL     OW 8035   1.225   4.049   6.035
 2526SOL    HW1 8036   1.290   3.975   6.024
 2526SOL    HW2 8037   1.245   4.099   6.119
 2527SOL     OW 8038   0.594   4.469   6.238
 2527SOL    HW1 8039   0.644   4.554   6.219
 2527SOL    HW2 8040   0.506   4.471   6.190
 2528SOL     OW 8041   1.777   4.066   7.228
 2528SOL    HW1 8042   1.760   4.097   7.134
 2528SOL    HW2 8043   1.693   4.029   7.266
 2529SOL     OW 8044   1.730   4.658   7.103
 2529SOL    HW1 8045   1.768   4.749   7.118
 2529SOL    HW2 8046   1.722   4.641   7.004
 2530SOL     OW 8047   0.859   5.098   5.602
 2530SOL    HW1 8048   0.813   5.113   5.690
 2530SOL    HW2 8049   0.903   5.183   5.572
 2531SOL     OW 8050   0.859   4.680   6.447
 2531SOL    HW1 8051   0.913   4.611   6.495
 2531SOL    HW2 8052   0.827   4.749   6.513
 2532SOL     OW 8053   1.083   4.708   5.673
 2532SOL    HW1 8054   1.060   4.761   5.591
 2532SOL    HW2 8055   1.164   4.652   5.654
 2533SOL     OW 8056   0.221   5.038   7.430
 2533SOL    HW1 8057   0.156   4.965   7.409
 2533SOL    HW2 8058   0.225   5.052   7.528
 2534SOL     OW 8059   0.079   4.964   6.239
 2534SOL    HW1 8060   0.078   4.917   6.327
 2534SOL    HW2 8061   0.161   4.936   6.188
 2535SOL     OW 8062   0.672   5.115   7.210
 2535SOL    HW1 8063   0.594   5.065   7.248
 2535SOL    HW2 8064   0.669   5.210   7.241
 2536SOL     OW 8065   1.824   3.916   6.813
 2536SOL    HW1 8066   1.820   3.826   6.857
 2536SOL    HW2 8067   1.827   3.905   6.714
 2537SOL     OW 8068   0.428   4.148   6.106
 2537SOL    HW1 8069   0.458   4.076   6.044
 2537SOL    HW2 8070   0.389   4.108   6.189
 2538SOL     OW 8071   1.705   5.211   6.690
 2538SOL    HW1 8072   1.612   5.186   6.663
 2538SOL    HW2 8073   1.731   5.161   6.772
 2539SOL     OW 8074   0.317   4.271   6.866
 2539SOL    HW1 8075   0.355   4.212   6.938
 2539SOL    HW2 8076   0.357   4.245   6.778
 2540SOL     OW 8077   1.424   3.938   6.698
 2540SOL    HW1 8078   1.476   3.873   6.753
 2540SOL    HW2 8079   1.375   4.001   6.759
 2541SOL     OW 8080   1.001   3.758   6.740
 2541SOL    HW1 8081   0.938   3.686   6.709
 2541SOL    HW2 8082   1.094   3.722   6.740
 2542SOL     OW 8083   0.770   5.054   5.887
 2542SOL    HW1 8084   0.724   4.967   5.904
 2542SOL    HW2 8085   0.861   5.051   5.928
 2543SOL     OW 8086   0.618   5.291   6.870
 2543SOL    HW1 8087   0.613   5.373   6.927
 2543SOL    HW2 8088   0.707   5.288   6.825
 2544SOL     OW 8089   1.352   3.776   5.754
 2544SOL    HW1 8090   1.387   3.735   5.670
 2544SOL    HW2 8091   1.262   3.738   5.774
 2545SOL     OW 8092   1.300   4.177   6.277
 2545SOL    HW1 8093   1.241   4.257   6.281
 2545SOL    HW2 8094   1.315   4.142   6.370
 2546SOL     OW 8095   1.593   3.945   6.468
 2546SOL    HW1 8096   1.509   3.944   6.522
 2546SOL    HW2 8097   1.595   4.028   6.412
 2547SOL     OW 8098   0.039   4.801   5.886
 2547SOL    HW1 8099   0.138   4.790   5.877
 2547SOL    HW2 8100  -0.001   4.715   5.918
 2548SOL     OW 8101   0.230   4.352   7.561
 2548SOL    HW1 8102   0.137   4.350   7.598
 2548SOL    HW2 8103   0.231   4.313   7.469
 2549SOL     OW 8104   1.755   4.331   7.679
 2549SOL    HW1 8105   1.743   4.318   7.580
 2549SOL    HW2 8106   1.725   4.250   7.728
 2550SOL     OW 8107   0.231   5.437   7.931
 2550SOL    HW1 8108   0.265   5.514   7.985
 2550SOL    HW2 8109   0.275   5.437   7.841
 2551SOL     OW 8110   0.230   5.158   7.986
 2551SOL    HW1 8111   0.204   5.254   7.986
 2551SOL    HW2 8112   0.159   5.104   8.031
 2552SOL     OW 8113   0.606   4.688   7.571
 2552SOL    HW1 8114   0.613   4.772   7.517
 2552SOL    HW2 8115   0.652   4.701   7.659
 2553SOL     OW 8116   0.027   5.320   7.565
 2553SOL    HW1 8117   0.008   5.224   7.586
 2553SOL    HW2 8118  -0.006   5.378   7.640
 2554SOL     OW 8119   1.689   4.646   8.060
 2554SOL    HW1 8120   1.784   4.617   8.068
 2554SOL    HW2 8121   1.681   4.711   7.985
 2555SOL     OW 8122   1.641   4.832   7.880
 2555SOL    HW1 8123   1.727   4.834   7.828
 2555SOL    HW2 8124   1.655   4.879   7.968
 2556SOL     OW 8125   0.809   3.728   7.950
 2556SOL    HW1 8126   0.849   3.819   7.941
 2556SOL    HW2 8127   0.709   3.736   7.956
 2557SOL     OW 8128   1.525   4.723   7.638
 2557SOL    HW1 8129   1.462   4.647   7.651
 2557SOL    HW2 8130   1.573   4.741   7.724
 2558SOL     OW 8131   0.598   4.453   7.718
 2558SOL    HW1 8132   0.622   4.522   7.650
 2558SOL    HW2 8133   0.520   4.486   7.772
 2559SOL     OW 8134   0.076   4.535   8.237
 2559SOL    HW1 8135   0.175   4.523   8.246
 2559SOL    HW2 8136   0.052   4.630   8.258
 2560SOL     OW 8137   0.865   4.072   7.643
 2560SOL    HW1 8138   0.924   4.135   7.594
 2560SOL    HW2 8139   0.884   3.978   7.614
 2561SOL     OW 8140   0.321   4.667   7.690
 2561SOL    HW1 8141   0.403   4.706   7.648
 2561SOL    HW2 8142   0.294   4.585   7.641
 2562SOL     OW 8143   1.111   5.500   7.685
 2562SOL    HW1 8144   1.051   5.438   7.735
 2562SOL    HW2 8145   1.142   5.456   7.600
 2563SOL     OW 8146   1.632   5.101   7.529
 2563SOL    HW1 8147   1.600   5.195   7.519
 2563SOL    HW2 8148   1.556   5.038   7.517
 2564SOL     OW 8149   1.400   3.831   7.874
 2564SOL    HW1 8150   1.376   3.794   7.784
 2564SOL    HW2 8151   1.499   3.847   7.878
 2565SOL     OW 8152   0.382   4.424   7.928
 2565SOL    HW1 8153   0.427   4.334   7.925
 2565SOL    HW2 8154   0.288   4.413   7.961
 2566SOL     OW 8155   0.614   3.846   7.565
 2566SOL    HW1 8156   0.712   3.824   7.572
 2566SOL    HW2 8157   0.583   3.829   7.472
 2567SOL     OW 8158   0.539   3.788   7.960
 2567SOL    HW1 8159   0.458   3.789   8.018
 2567SOL    HW2 8160   0.542   3.871   7.905
 2568SOL     OW 8161   1.434   4.912   7.489
 2568SOL    HW1 8162   1.466   4.836   7.546
 2568SOL    HW2 8163   1.342   4.939   7.519
 2569SOL     OW 8164   0.297   3.759   7.619
 2569SOL    HW1 8165   0.346   3.843   7.598
 2569SOL    HW2 8166   0.359   3.694   7.664
 2570SOL     OW 8167   0.935   3.960   7.928
 2570SOL    HW1 8168   0.887   4.001   7.850
 2570SOL    HW2 8169   1.034   3.958   7.909
 2571SOL     OW 8170   0.459   4.876   8.189
 2571SOL    HW1 8171   0.388   4.849   8.254
 2571SOL    HW2 8172   0.433   4.848   8.096
 2572SOL     OW 8173   1.032   4.273   7.464
 2572SOL    HW1 8174   0.991   4.355   7.425
 2572SOL    HW2 8175   1.096   4.299   7.537
 2573SOL     OW 8176   1.857   4.557   7.825
 2573SOL    HW1 8177   1.899   4.493   7.889
 2573SOL    HW2 8178   1.819   4.506   7.747
 2574SOL     OW 8179   0.488   5.109   7.622
 2574SOL    HW1 8180   0.401   5.094   7.669
 2574SOL    HW2 8181   0.471   5.135   7.527
 2575SOL     OW 8182   1.390   4.299   7.526
 2575SOL    HW1 8183   1.336   4.278   7.607
 2575SOL    HW2 8184   1.481   4.258   7.535
 2576SOL     OW 8185   0.527   3.980   7.776
 2576SOL    HW1 8186   0.554   3.921   7.701
 2576SOL    HW2 8187   0.527   4.075   7.745
 2577SOL     OW 8188   0.705   4.774   7.816
 2577SOL    HW1 8189   0.691   4.781   7.915
 2577SOL    HW2 8190   0.789   4.723   7.798
 2578SOL     OW 8191   0.367   4.824   7.949
 2578SOL    HW1 8192   0.360   4.907   7.893
 2578SOL    HW2 8193   0.371   4.744   7.889
 2579SOL     OW 8194   1.252   5.072   7.836
 2579SOL    HW1 8195   1.302   5.149   7.876
 2579SOL    HW2 8196   1.157   5.074   7.868
 2580SOL     OW 8197   1.582   4.363   7.920
 2580SOL    HW1 8198   1.551   4.424   7.993
 2580SOL    HW2 8199   1.632   4.415   7.851
 2581SOL     OW 8200   1.209   4.249   7.723
 2581SOL    HW1 8201   1.222   4.165   7.777
 2581SOL    HW2 8202   1.180   4.323   7.783
 2582SOL     OW 8203   1.622   4.091   7.822
 2582SOL    HW1 8204   1.624   4.015   7.886
 2582SOL    HW2 8205   1.574   4.168   7.862
 2583SOL     OW 8206   1.540   3.998   7.573
 2583SOL    HW1 8207   1.479   3.923   7.596
 2583SOL    HW2 8208   1.562   4.050   7.656
 2584SOL     OW 8209   1.303   4.562   7.490
 2584SOL    HW1 8210   1.337   4.469   7.505
 2584SOL    HW2 8211   1.321   4.589   7.395
 2585SOL     OW 8212   0.008   5.050   7.648
 2585SOL    HW1 8213  -0.085   5.071   7.617
 2585SOL    HW2 8214   0.018   4.951   7.661
 2586SOL     OW 8215   0.815   4.296   7.773
 2586SOL    HW1 8216   0.822   4.207   7.727
 2586SOL    HW2 8217   0.721   4.330   7.765
 2587SOL     OW 8218   0.473   4.224   7.639
 2587SOL    HW1 8219   0.534   4.304   7.643
 2587SOL    HW2 8220   0.378   4.255   7.646
 2588SOL     OW 8221   1.302   4.579   7.757
 2588SOL    HW1 8222   1.216   4.548   7.799
 2588SOL    HW2 8223   1.298   4.565   7.658
 2589SOL     OW 8224   1.726   3.859   7.971
 2589SOL    HW1 8225   1.799   3.842   7.904
 2589SOL    HW2 8226   1.695   3.772   8.009
 2590SOL     OW 8227   0.916   4.634   7.739
 2590SOL    HW1 8228   0.979   4.672   7.671
 2590SOL    HW2 8229   0.956   4.551   7.778
 2591SOL     OW 8230   0.255   5.072   7.738
 2591SOL    HW1 8231   0.159   5.073   7.711
 2591SOL    HW2 8232   0.267   5.125   7.822
 2592SOL     OW 8233   0.075   4.069   7.481
 2592SOL    HW1 8234  -0.017   4.041   7.452
 2592SOL    HW2 8235   0.106   4.146   7.425
 2593SOL     OW 8236   0.072   3.890   7.766
 2593SOL    HW1 8237   0.055   3.973   7.712
 2593SOL    HW2 8238   0.162   3.853   7.744
 2594SOL     OW 8239   1.183   5.059   7.567
 2594SOL    HW1 8240   1.084   5.048   7.569
 2594SOL    HW2 8241   1.217   5.074   7.660
 2595SOL     OW 8242   1.225   4.049   7.897
 2595SOL    HW1 8243   1.290   3.975   7.886
 2595SOL    HW2 8244   1.245   4.099   7.981
 2596SOL     OW 8245   0.594   4.469   8.100
 2596SOL    HW1 8246   0.644   4.554   8.081
 2596SOL    HW2 8247   0.506   4.471   8.052
 2597SOL     OW 8248   0.859   5.098   7.464
 2597SOL    HW1 8249   0.813   5.113   7.552
 2597SOL    HW2 8250   0.903   5.183   7.434
 2598SOL     OW 8251   1.083   4.708   7.535
 2598SOL    HW1 8252   1.060   4.761   7.453
 2598SOL    HW2 8253   1.164   4.652   7.516
 2599SOL     OW 8254   0.428   4.148   7.968
 2599SOL    HW1 8255   0.458   4.076   7.906
 2599SOL    HW2 8256   0.389   4.108   8.051
 2600SOL     OW 8257   0.770   5.054   7.749
 2600SOL    HW1 8258   0.724   4.967   7.766
 2600SOL    HW2 8259   0.861   5.051   7.790
 2601SOL     OW 8260   1.352   3.776   7.616
 2601SOL    HW1 8261   1.387   3.735   7.532
 2601SOL    HW2 8262   1.262   3.738   7.636
 2602SOL     OW 8263   0.039   4.801   7.748
 2602SOL    HW1 8264   0.138   4.790   7.739
 2602SOL    HW2 8265  -0.001   4.715   7.780
 2603SOL     OW 8266   2.092   0.628   0.113
 2603SOL    HW1 8267   1.999   0.626   0.150
 2603SOL    HW2 8268   2.093   0.589   0.021
 2604SOL     OW 8269   2.087   0.275   0.996
 2604SOL    HW1 8270   2.122   0.258   1.088
 2604SOL    HW2 8271   1.999   0.230   0.984
 2605SOL     OW 8272   1.881   0.368   0.647
 2605SOL    HW1 8273   1.799   0.411   0.686
 2605SOL    HW2 8274   1.853   0.295   0.584
 2606SOL     OW 8275   2.431   1.275   1.165
 2606SOL    HW1 8276   2.338   1.268   1.128
 2606SOL    HW2 8277   2.442   1.364   1.209
 2607SOL     OW 8278   3.417   1.511   0.703
 2607SOL    HW1 8279   3.360   1.495   0.784
 2607SOL    HW2 8280   3.358   1.521   0.623
 2608SOL     OW 8281   2.997   0.703   0.717
 2608SOL    HW1 8282   3.054   0.781   0.692
 2608SOL    HW2 8283   2.937   0.729   0.793
 2609SOL     OW 8284   3.617   0.607   0.231
 2609SOL    HW1 8285   3.605   0.594   0.132
 2609SOL    HW2 8286   3.587   0.526   0.280
 2610SOL     OW 8287   2.630   1.144   1.023
 2610SOL    HW1 8288   2.552   1.161   1.083
 2610SOL    HW2 8289   2.664   1.231   0.987
 2611SOL     OW 8290   2.712   0.798   1.823
 2611SOL    HW1 8291   2.708   0.874   1.888
 2611SOL    HW2 8292   2.734   0.834   1.732
 2612SOL     OW 8293   2.547   1.012   0.665
 2612SOL    HW1 8294   2.616   0.996   0.735
 2612SOL    HW2 8295   2.474   1.069   0.703
 2613SOL     OW 8296   2.548   1.161   1.803
 2613SOL    HW1 8297   2.608   1.240   1.817
 2613SOL    HW2 8298   2.462   1.192   1.762
 2614SOL     OW 8299   2.197   1.435   1.061
 2614SOL    HW1 8300   2.119   1.404   1.008
 2614SOL    HW2 8301   2.255   1.493   1.004
 2615SOL     OW 8302   3.322   1.505   1.339
 2615SOL    HW1 8303   3.346   1.599   1.365
 2615SOL    HW2 8304   3.306   1.451   1.421
 2616SOL     OW 8305   2.300   0.392   1.499
 2616SOL    HW1 8306   2.382   0.336   1.508
 2616SOL    HW2 8307   2.219   0.334   1.503
 2617SOL     OW 8308   3.465   0.447   0.737
 2617SOL    HW1 8309   3.391   0.493   0.687
 2617SOL    HW2 8310   3.516   0.515   0.790
 2618SOL     OW 8311   2.093   1.713   0.483
 2618SOL    HW1 8312   2.127   1.790   0.537
 2618SOL    HW2 8313   2.137   1.713   0.393
 2619SOL     OW 8314   2.989   1.341   1.690
 2619SOL    HW1 8315   3.036   1.341   1.778
 2619SOL    HW2 8316   2.941   1.254   1.679
 2620SOL     OW 8317   2.092   1.434   0.538
 2620SOL    HW1 8318   2.066   1.530   0.538
 2620SOL    HW2 8319   2.021   1.380   0.583
 2621SOL     OW 8320   2.102   1.091   0.886
 2621SOL    HW1 8321   2.116   1.007   0.938
 2621SOL    HW2 8322   2.047   1.155   0.941
 2622SOL     OW 8323   2.482   1.786   1.439
 2622SOL    HW1 8324   2.390   1.769   1.474
 2622SOL    HW2 8325   2.510   1.878   1.465
 2623SOL     OW 8326   2.468   0.964   0.123
 2623SOL    HW1 8327   2.475   1.048   0.069
 2623SOL    HW2 8328   2.514   0.977   0.211
 2624SOL     OW 8329   3.456   0.114   1.480
 2624SOL    HW1 8330   3.438   0.181   1.408
 2624SOL    HW2 8331   3.453   0.160   1.569
 2625SOL     OW 8332   1.984   0.643   0.563
 2625SOL    HW1 8333   1.939   0.555   0.580
 2625SOL    HW2 8334   1.983   0.697   0.647
 2626SOL     OW 8335   3.704   1.767   0.359
 2626SOL    HW1 8336   3.758   1.738   0.439
 2626SOL    HW2 8337   3.734   1.857   0.330
 2627SOL     OW 8338   1.889   1.596   0.117
 2627SOL    HW1 8339   1.870   1.500   0.138
 2627SOL    HW2 8340   1.856   1.654   0.192
 2628SOL     OW 8341   3.551   0.922   0.612
 2628SOL    HW1 8342   3.646   0.893   0.620
 2628SOL    HW2 8343   3.543   0.987   0.537
 2629SOL     OW 8344   3.503   1.108   0.432
 2629SOL    HW1 8345   3.589   1.110   0.380
 2629SOL    HW2 8346   3.517   1.155   0.520
 2630SOL     OW 8347   1.975   0.737   1.597
 2630SOL    HW1 8348   2.063   0.724   1.642
 2630SOL    HW2 8349   1.962   0.834   1.575
 2631SOL     OW 8350   2.475   1.365   0.726
 2631SOL    HW1 8351   2.426   1.278   0.735
 2631SOL    HW2 8352   2.452   1.408   0.639
 2632SOL     OW 8353   3.155   1.228   1.423
 2632SOL    HW1 8354   3.192   1.155   1.365
 2632SOL    HW2 8355   3.207   1.233   1.508
 2633SOL     OW 8356   2.671   0.004   0.502
 2633SOL    HW1 8357   2.711   0.095   0.493
 2633SOL    HW2 8358   2.571   0.012   0.508
 2634SOL     OW 8359   2.059   0.976   1.264
 2634SOL    HW1 8360   2.148   0.931   1.250
 2634SOL    HW2 8361   1.986   0.911   1.245
 2635SOL     OW 8362   3.387   0.999   0.190
 2635SOL    HW1 8363   3.324   0.923   0.203
 2635SOL    HW2 8364   3.435   1.017   0.276
 2636SOL     OW 8365   3.049   1.792   1.616
 2636SOL    HW1 8366   3.073   1.852   1.540
 2636SOL    HW2 8367   3.056   1.697   1.586
 2637SOL     OW 8368   2.179   0.251   1.801
 2637SOL    HW1 8369   2.250   0.322   1.807
 2637SOL    HW2 8370   2.091   0.290   1.829
 2638SOL     OW 8371   3.328   1.417   0.953
 2638SOL    HW1 8372   3.269   1.423   1.033
 2638SOL    HW2 8373   3.313   1.329   0.907
 2639SOL     OW 8374   3.529   1.714   0.572
 2639SOL    HW1 8375   3.488   1.691   0.484
 2639SOL    HW2 8376   3.511   1.640   0.637
 2640SOL     OW 8377   2.460   0.729   0.270
 2640SOL    HW1 8378   2.484   0.798   0.202
 2640SOL    HW2 8379   2.382   0.762   0.324
 2641SOL     OW 8380   3.143   0.345   0.944
 2641SOL    HW1 8381   3.057   0.295   0.931
 2641SOL    HW2 8382   3.205   0.291   1.000
 2642SOL     OW 8383   3.438   1.662   0.307
 2642SOL    HW1 8384   3.527   1.708   0.310
 2642SOL    HW2 8385   3.417   1.638   0.212
 2643SOL     OW 8386   2.669   0.605   1.465
 2643SOL    HW1 8387   2.622   0.602   1.554
 2643SOL    HW2 8388   2.618   0.550   1.399
 2644SOL     OW 8389   3.256   0.469   1.674
 2644SOL    HW1 8390   3.236   0.512   1.762
 2644SOL    HW2 8391   3.334   0.407   1.683
 2645SOL     OW 8392   2.835   0.890   1.572
 2645SOL    HW1 8393   2.881   0.806   1.543
 2645SOL    HW2 8394   2.779   0.924   1.497
 2646SOL     OW 8395   2.853   0.410   1.242
 2646SOL    HW1 8396   2.776   0.444   1.296
 2646SOL    HW2 8397   2.819   0.359   1.163
 2647SOL     OW 8398   2.903   0.701   0.429
 2647SOL    HW1 8399   2.929   0.697   0.525
 2647SOL    HW2 8400   2.818   0.650   0.415
 2648SOL     OW 8401   1.938   0.811   0.789
 2648SOL    HW1 8402   2.037   0.799   0.798
 2648SOL    HW2 8403   1.914   0.906   0.810
 2649SOL     OW 8404   1.992   1.821   1.571
 2649SOL    HW1 8405   1.982   1.806   1.670
 2649SOL    HW2 8406   1.906   1.857   1.535
 2650SOL     OW 8407   2.727   0.348   0.195
 2650SOL    HW1 8408   2.786   0.411   0.146
 2650SOL    HW2 8409   2.746   0.254   0.166
 2651SOL     OW 8410   3.581   0.585   1.831
 2651SOL    HW1 8411   3.555   0.674   1.795
 2651SOL    HW2 8412   3.579   0.517   1.758
 2652SOL     OW 8413   3.224   1.144   0.545
 2652SOL    HW1 8414   3.307   1.115   0.497
 2652SOL    HW2 8415   3.175   1.211   0.489
 2653SOL     OW 8416   2.412   0.196   0.885
 2653SOL    HW1 8417   2.407   0.191   0.985
 2653SOL    HW2 8418   2.414   0.292   0.856
 2654SOL     OW 8419   2.870   1.456   0.477
 2654SOL    HW1 8420   2.824   1.528   0.425
 2654SOL    HW2 8421   2.866   1.476   0.575
 2655SOL     OW 8422   2.213   1.801   0.853
 2655SOL    HW1 8423   2.263   1.715   0.859
 2655SOL    HW2 8424   2.278   1.878   0.850
 2656SOL     OW 8425   3.657   1.066   0.873
 2656SOL    HW1 8426   3.595   1.051   0.797
 2656SOL    HW2 8427   3.605   1.077   0.958
 2657SOL     OW 8428   3.089   1.550   1.506
 2657SOL    HW1 8429   3.095   1.473   1.570
 2657SOL    HW2 8430   3.037   1.524   1.426
 2658SOL     OW 8431   2.183   0.943   0.242
 2658SOL    HW1 8432   2.265   0.982   0.200
 2658SOL    HW2 8433   2.156   0.861   0.193
 2659SOL     OW 8434   3.320   0.735   0.728
 2659SOL    HW1 8435   3.315   0.670   0.803
 2659SOL    HW2 8436   3.400   0.794   0.741
 2660SOL     OW 8437   2.323   1.266   1.727
 2660SOL    HW1 8438   2.273   1.267   1.641
 2660SOL    HW2 8439   2.260   1.248   1.803
 2661SOL     OW 8440   2.973   1.776   0.237
 2661SOL    HW1 8441   2.913   1.714   0.287
 2661SOL    HW2 8442   3.004   1.732   0.152
 2662SOL     OW 8443   2.064   0.285   1.498
 2662SOL    HW1 8444   1.984   0.345   1.485
 2662SOL    HW2 8445   2.054   0.236   1.584
 2663SOL     OW 8446   3.494   1.377   0.081
 2663SOL    HW1 8447   3.462   1.471   0.071
 2663SOL    HW2 8448   3.418   1.314   0.069
 2664SOL     OW 8449   2.326   1.743   0.323
 2664SOL    HW1 8450   2.359   1.782   0.409
 2664SOL    HW2 8451   2.402   1.736   0.258
 2665SOL     OW 8452   3.262   0.107   0.426
 2665SOL    HW1 8453   3.238   0.070   0.336
 2665SOL    HW2 8454   3.361   0.123   0.430
 2666SOL     OW 8455   2.111   1.785   1.241
 2666SOL    HW1 8456   2.168   1.720   1.291
 2666SOL    HW2 8457   2.095   1.752   1.148
 2667SOL     OW 8458   2.802   1.698   0.904
 2667SOL    HW1 8459   2.882   1.641   0.925
 2667SOL    HW2 8460   2.753   1.658   0.827
 2668SOL     OW 8461   2.244   0.700   0.480
 2668SOL    HW1 8462   2.289   0.610   0.477
 2668SOL    HW2 8463   2.150   0.689   0.513
 2669SOL     OW 8464   3.409   0.222   1.729
 2669SOL    HW1 8465   3.404   0.259   1.821
 2669SOL    HW2 8466   3.337   0.153   1.717
 2670SOL     OW 8467   2.476   0.122   0.117
 2670SOL    HW1 8468   2.574   0.100   0.124
 2670SOL    HW2 8469   2.445   0.105   0.024
 2671SOL     OW 8470   2.643   0.264   1.749
 2671SOL    HW1 8471   2.710   0.203   1.792
 2671SOL    HW2 8472   2.570   0.283   1.814
 2672SOL     OW 8473   2.750   1.514   1.195
 2672SOL    HW1 8474   2.727   1.489   1.101
 2672SOL    HW2 8475   2.811   1.445   1.234
 2673SOL     OW 8476   3.213   0.590   1.433
 2673SOL    HW1 8477   3.241   0.547   1.518
 2673SOL    HW2 8478   3.238   0.686   1.434
 2674SOL     OW 8479   2.665   1.402   0.924
 2674SOL    HW1 8480   2.755   1.416   0.882
 2674SOL    HW2 8481   2.594   1.404   0.853
 2675SOL     OW 8482   2.784   0.503   0.899
 2675SOL    HW1 8483   2.759   0.494   0.803
 2675SOL    HW2 8484   2.832   0.421   0.930
 2676SOL     OW 8485   2.401   0.064   0.512
 2676SOL    HW1 8486   2.320   0.065   0.570
 2676SOL    HW2 8487   2.404   0.147   0.457
 2677SOL     OW 8488   3.296   1.188   0.041
 2677SOL    HW1 8489   3.328   1.112   0.098
 2677SOL    HW2 8490   3.204   1.215   0.071
 2678SOL     OW 8491   2.159   0.035   0.171
 2678SOL    HW1 8492   2.208   0.119   0.150
 2678SOL    HW2 8493   2.221  -0.030   0.216
 2679SOL     OW 8494   2.797   0.236   0.480
 2679SOL    HW1 8495   2.749   0.277   0.402
 2679SOL    HW2 8496   2.896   0.234   0.461
 2680SOL     OW 8497   2.938   0.683   1.464
 2680SOL    HW1 8498   2.858   0.622   1.467
 2680SOL    HW2 8499   3.019   0.630   1.440
 2681SOL     OW 8500   3.089   1.570   0.793
 2681SOL    HW1 8501   3.110   1.644   0.728
 2681SOL    HW2 8502   3.157   1.570   0.866
 2682SOL     OW 8503   2.321   1.152   0.741
 2682SOL    HW1 8504   2.250   1.125   0.806
 2682SOL    HW2 8505   2.295   1.124   0.648
 2683SOL     OW 8506   3.133   1.797   0.591
 2683SOL    HW1 8507   3.177   1.861   0.527
 2683SOL    HW2 8508   3.083   1.849   0.661
 2684SOL     OW 8509   2.894   0.549   0.016
 2684SOL    HW1 8510   2.853   0.631  -0.023
 2684SOL    HW2 8511   2.958   0.575   0.089
 2685SOL     OW 8512   1.940   0.556   1.386
 2685SOL    HW1 8513   2.032   0.555   1.345
 2685SOL    HW2 8514   1.934   0.630   1.453
 2686SOL     OW 8515   2.423   0.222   1.147
 2686SOL    HW1 8516   2.461   0.138   1.184
 2686SOL    HW2 8517   2.335   0.241   1.191
 2687SOL     OW 8518   2.728   0.454   0.642
 2687SOL    HW1 8519   2.696   0.526   0.580
 2687SOL    HW2 8520   2.752   0.373   0.589
 2688SOL     OW 8521   2.879   0.039   0.753
 2688SOL    HW1 8522   2.807   0.044   0.684
 2688SOL    HW2 8523   2.855  -0.030   0.822
 2689SOL     OW 8524   3.291   1.173   0.867
 2689SOL    HW1 8525   3.236   1.089   0.860
 2689SOL    HW2 8526   3.317   1.202   0.775
 2690SOL     OW 8527   3.328   0.590   0.992
 2690SOL    HW1 8528   3.298   0.495   0.999
 2690SOL    HW2 8529   3.401   0.606   1.058
 2691SOL     OW 8530   3.719   0.833   0.377
 2691SOL    HW1 8531   3.761   0.769   0.441
 2691SOL    HW2 8532   3.681   0.782   0.299
 2692SOL     OW 8533   2.350   1.385   0.174
 2692SOL    HW1 8534   2.263   1.370   0.221
 2692SOL    HW2 8535   2.333   1.411   0.079
 2693SOL     OW 8536   3.526   1.280   0.657
 2693SOL    HW1 8537   3.625   1.288   0.671
 2693SOL    HW2 8538   3.481   1.364   0.688
 2694SOL     OW 8539   3.252   0.575   0.078
 2694SOL    HW1 8540   3.198   0.554   0.159
 2694SOL    HW2 8541   3.343   0.534   0.087
 2695SOL     OW 8542   2.389   0.256   0.328
 2695SOL    HW1 8543   2.416   0.197   0.253
 2695SOL    HW2 8544   2.389   0.351   0.297
 2696SOL     OW 8545   3.616   1.223   1.588
 2696SOL    HW1 8546   3.707   1.184   1.575
 2696SOL    HW2 8547   3.624   1.319   1.612
 2697SOL     OW 8548   2.926   1.347   1.340
 2697SOL    HW1 8549   2.846   1.324   1.395
 2697SOL    HW2 8550   3.009   1.321   1.389
 2698SOL     OW 8551   3.454   1.629   1.625
 2698SOL    HW1 8552   3.481   1.663   1.535
 2698SOL    HW2 8553   3.533   1.591   1.671
 2699SOL     OW 8554   2.973   1.195   1.100
 2699SOL    HW1 8555   2.933   1.239   1.181
 2699SOL    HW2 8556   2.932   1.232   1.017
 2700SOL     OW 8557   3.500   1.099   1.079
 2700SOL    HW1 8558   3.505   1.180   1.138
 2700SOL    HW2 8559   3.414   1.101   1.028
 2701SOL     OW 8560   2.777   0.089   1.402
 2701SOL    HW1 8561   2.802   0.069   1.307
 2701SOL    HW2 8562   2.849   0.145   1.444
 2702SOL     OW 8563   2.842   1.116   1.719
 2702SOL    HW1 8564   2.743   1.122   1.729
 2702SOL    HW2 8565   2.865   1.036   1.663
 2703SOL     OW 8566   2.567   1.050   0.368
 2703SOL    HW1 8567   2.553   1.057   0.467
 2703SOL    HW2 8568   2.651   0.999   0.350
 2704SOL     OW 8569   2.272   0.813   1.251
 2704SOL    HW1 8570   2.358   0.825   1.301
 2704SOL    HW2 8571   2.230   0.726   1.278
 2705SOL     OW 8572   3.136   0.386   1.262
 2705SOL    HW1 8573   3.157   0.460   1.326
 2705SOL    HW2 8574   3.047   0.403   1.219
 2706SOL     OW 8575   1.926   1.564   1.331
 2706SOL    HW1 8576   1.880   1.646   1.297
 2706SOL    HW2 8577   2.024   1.583   1.340
 2707SOL     OW 8578   2.229   1.100   0.501
 2707SOL    HW1 8579   2.222   1.183   0.445
 2707SOL    HW2 8580   2.233   1.020   0.441
 2708SOL     OW 8581   2.428   0.537   0.865
 2708SOL    HW1 8582   2.440   0.603   0.791
 2708SOL    HW2 8583   2.474   0.571   0.948
 2709SOL     OW 8584   3.114   1.348   0.388
 2709SOL    HW1 8585   3.164   1.425   0.428
 2709SOL    HW2 8586   3.019   1.350   0.420
 2710SOL     OW 8587   3.134   1.445   1.142
 2710SOL    HW1 8588   3.181   1.458   1.229
 2710SOL    HW2 8589   3.068   1.371   1.151
 2711SOL     OW 8590   3.444   0.639   0.472
 2711SOL    HW1 8591   3.413   0.700   0.545
 2711SOL    HW2 8592   3.494   0.691   0.403
 2712SOL     OW 8593   2.216   1.510   1.329
 2712SOL    HW1 8594   2.195   1.466   1.242
 2712SOL    HW2 8595   2.313   1.536   1.332
 2713SOL     OW 8596   2.264   0.751   1.598
 2713SOL    HW1 8597   2.332   0.806   1.551
 2713SOL    HW2 8598   2.304   0.663   1.625
 2714SOL     OW 8599   3.449   0.779   1.670
 2714SOL    HW1 8600   3.357   0.817   1.665
 2714SOL    HW2 8601   3.509   0.826   1.605
 2715SOL     OW 8602   2.875   0.105   1.770
 2715SOL    HW1 8603   2.881   0.190   1.718
 2715SOL    HW2 8604   2.907   0.029   1.713
 2716SOL     OW 8605   2.366   0.050   1.740
 2716SOL    HW1 8606   2.324  -0.007   1.670
 2716SOL    HW2 8607   2.300   0.119   1.772
 2717SOL     OW 8608   2.435   0.870   1.029
 2717SOL    HW1 8609   2.479   0.959   1.020
 2717SOL    HW2 8610   2.372   0.870   1.106
 2718SOL     OW 8611   3.222   0.862   1.045
 2718SOL    HW1 8612   3.147   0.862   0.979
 2718SOL    HW2 8613   3.259   0.770   1.054
 2719SOL     OW 8614   3.071   0.525   0.275
 2719SOL    HW1 8615   3.084   0.441   0.329
 2719SOL    HW2 8616   3.042   0.599   0.335
 2720SOL     OW 8617   2.169   0.213   1.231
 2720SOL    HW1 8618   2.146   0.250   1.321
 2720SOL    HW2 8619   2.139   0.118   1.225
 2721SOL     OW 8620   1.899   1.310   1.282
 2721SOL    HW1 8621   1.952   1.261   1.350
 2721SOL    HW2 8622   1.921   1.408   1.287
 2722SOL     OW 8623   2.594   0.634   1.064
 2722SOL    HW1 8624   2.653   0.608   0.988
 2722SOL    HW2 8625   2.566   0.730   1.053
 2723SOL     OW 8626   3.590   0.935   1.854
 2723SOL    HW1 8627   3.544   0.928   1.765
 2723SOL    HW2 8628   3.528   0.979   1.920
 2724SOL     OW 8629   2.169   0.063   0.618
 2724SOL    HW1 8630   2.158   0.157   0.651
 2724SOL    HW2 8631   2.164   0.000   0.695
 2725SOL     OW 8632   3.484   0.367   0.374
 2725SOL    HW1 8633   3.486   0.291   0.438
 2725SOL    HW2 8634   3.436   0.444   0.414
 2726SOL     OW 8635   2.885   0.766   0.966
 2726SOL    HW1 8636   2.900   0.787   1.062
 2726SOL    HW2 8637   2.855   0.671   0.957
 2727SOL     OW 8638   2.842   1.573   1.700
 2727SOL    HW1 8639   2.822   1.617   1.612
 2727SOL    HW2 8640   2.881   1.482   1.684
 2728SOL     OW 8641   3.721   1.518   1.605
 2728SOL    HW1 8642   3.735   1.545   1.510
 2728SOL    HW2 8643   3.804   1.540   1.658
 2729SOL     OW 8644   2.212   0.898   1.804
 2729SOL    HW1 8645   2.288   0.942   1.852
 2729SOL    HW2 8646   2.247   0.851   1.722
 2730SOL     OW 8647   3.402   0.274   0.125
 2730SOL    HW1 8648   3.341   0.199   0.148
 2730SOL    HW2 8649   3.424   0.326   0.208
 2731SOL     OW 8650   3.165   0.838   0.042
 2731SOL    HW1 8651   3.199   0.745   0.057
 2731SOL    HW2 8652   3.183   0.865  -0.053
 2732SOL     OW 8653   2.930   1.333   0.849
 2732SOL    HW1 8654   2.937   1.249   0.794
 2732SOL    HW2 8655   2.992   1.402   0.813
 2733SOL     OW 8656   2.181   0.810   0.949
 2733SOL    HW1 8657   2.274   0.846   0.954
 2733SOL    HW2 8658   2.175   0.725   1.001
 2734SOL     OW 8659   2.201   0.509   1.006
 2734SOL    HW1 8660   2.149   0.426   0.989
 2734SOL    HW2 8661   2.278   0.514   0.942
 2735SOL     OW 8662   3.000   0.380   1.678
 2735SOL    HW1 8663   2.955   0.443   1.742
 2735SOL    HW2 8664   3.093   0.411   1.661
 2736SOL     OW 8665   3.022   0.207   1.477
 2736SOL    HW1 8666   3.022   0.271   1.554
 2736SOL    HW2 8667   3.050   0.255   1.394
 2737SOL     OW 8668   1.870   1.326   0.200
 2737SOL    HW1 8669   1.777   1.347   0.169
 2737SOL    HW2 8670   1.880   1.227   0.213
 2738SOL     OW 8671   1.950   1.801   0.927
 2738SOL    HW1 8672   1.908   1.715   0.900
 2738SOL    HW2 8673   2.044   1.804   0.893
 2739SOL     OW 8674   2.366   1.568   0.910
 2739SOL    HW1 8675   2.432   1.642   0.919
 2739SOL    HW2 8676   2.410   1.489   0.868
 2740SOL     OW 8677   2.864   0.796   1.238
 2740SOL    HW1 8678   2.905   0.764   1.324
 2740SOL    HW2 8679   2.768   0.769   1.235
 2741SOL     OW 8680   1.902   0.544   1.114
 2741SOL    HW1 8681   1.987   0.511   1.073
 2741SOL    HW2 8682   1.915   0.559   1.212
 2742SOL     OW 8683   2.051   0.520   1.722
 2742SOL    HW1 8684   2.110   0.480   1.652
 2742SOL    HW2 8685   1.993   0.591   1.681
 2743SOL     OW 8686   3.231   0.950   1.660
 2743SOL    HW1 8687   3.270   1.039   1.680
 2743SOL    HW2 8688   3.241   0.930   1.563
 2744SOL     OW 8689   2.677   0.572   0.325
 2744SOL    HW1 8690   2.684   0.483   0.279
 2744SOL    HW2 8691   2.583   0.606   0.317
 2745SOL     OW 8692   3.519   0.604   1.206
 2745SOL    HW1 8693   3.481   0.535   1.268
 2745SOL    HW2 8694   3.601   0.568   1.162
 2746SOL     OW 8695   2.114   1.564   1.744
 2746SOL    HW1 8696   2.084   1.621   1.820
 2746SOL    HW2 8697   2.107   1.467   1.770
 2747SOL     OW 8698   2.533   0.464   1.269
 2747SOL    HW1 8699   2.499   0.375   1.239
 2747SOL    HW2 8700   2.559   0.518   1.189
 2748SOL     OW 8701   2.792   1.678   1.465
 2748SOL    HW1 8702   2.768   1.660   1.370
 2748SOL    HW2 8703   2.822   1.772   1.475
 2749SOL     OW 8704   2.335   0.500   0.191
 2749SOL    HW1 8705   2.396   0.580   0.195
 2749SOL    HW2 8706   2.240   0.531   0.198
 2750SOL     OW 8707   2.021   1.137   1.466
 2750SOL    HW1 8708   2.043   1.076   1.542
 2750SOL    HW2 8709   2.031   1.088   1.380
 2751SOL     OW 8710   3.209   1.059   1.234
 2751SOL    HW1 8711   3.233   0.996   1.160
 2751SOL    HW2 8712   3.119   1.099   1.216
 2752SOL     OW 8713   3.164   0.855   0.309
 2752SOL    HW1 8714   3.078   0.824   0.351
 2752SOL    HW2 8715   3.160   0.841   0.210
 2753SOL     OW 8716   3.621   1.747   1.154
 2753SOL    HW1 8717   3.682   1.777   1.081
 2753SOL    HW2 8718   3.583   1.658   1.132
 2754SOL     OW 8719   3.114   1.731   1.128
 2754SOL    HW1 8720   3.198   1.736   1.074
 2754SOL    HW2 8721   3.091   1.635   1.146
 2755SOL     OW 8722   1.945   1.258   1.022
 2755SOL    HW1 8723   1.940   1.257   1.122
 2755SOL    HW2 8724   1.862   1.217   0.984
 2756SOL     OW 8725   2.550   1.662   1.716
 2756SOL    HW1 8726   2.494   1.743   1.725
 2756SOL    HW2 8727   2.602   1.666   1.630
 2757SOL     OW 8728   2.765   0.086   0.133
 2757SOL    HW1 8729   2.816   0.087   0.047
 2757SOL    HW2 8730   2.821   0.044   0.204
 2758SOL     OW 8731   3.588   0.135   0.523
 2758SOL    HW1 8732   3.661   0.118   0.456
 2758SOL    HW2 8733   3.557   0.048   0.561
 2759SOL     OW 8734   3.250   1.573   0.477
 2759SOL    HW1 8735   3.317   1.585   0.403
 2759SOL    HW2 8736   3.210   1.662   0.500
 2760SOL     OW 8737   1.992   1.794   1.851
 2760SOL    HW1 8738   1.951   1.720   1.904
 2760SOL    HW2 8739   2.056   1.845   1.909
 2761SOL     OW 8740   3.142   0.927   0.672
 2761SOL    HW1 8741   3.202   0.846   0.674
 2761SOL    HW2 8742   3.182   0.996   0.612
 2762SOL     OW 8743   2.692   1.273   1.422
 2762SOL    HW1 8744   2.687   1.306   1.517
 2762SOL    HW2 8745   2.606   1.292   1.376
 2763SOL     OW 8746   2.534   1.616   0.154
 2763SOL    HW1 8747   2.543   1.626   0.055
 2763SOL    HW2 8748   2.494   1.527   0.175
 2764SOL     OW 8749   3.512   1.720   1.394
 2764SOL    HW1 8750   3.565   1.730   1.310
 2764SOL    HW2 8751   3.485   1.810   1.428
 2765SOL     OW 8752   3.703   0.175   0.963
 2765SOL    HW1 8753   3.742   0.090   0.927
 2765SOL    HW2 8754   3.605   0.177   0.944
 2766SOL     OW 8755   2.125   0.326   0.720
 2766SOL    HW1 8756   2.046   0.377   0.686
 2766SOL    HW2 8757   2.116   0.311   0.818
 2767SOL     OW 8758   3.056   1.612   0.031
 2767SOL    HW1 8759   3.062   1.519   0.068
 2767SOL    HW2 8760   2.997   1.612  -0.049
 2768SOL     OW 8761   2.684   1.002   1.372
 2768SOL    HW1 8762   2.724   1.001   1.280
 2768SOL    HW2 8763   2.694   1.094   1.412
 2769SOL     OW 8764   2.778   0.910   0.291
 2769SOL    HW1 8765   2.841   0.948   0.223
 2769SOL    HW2 8766   2.818   0.827   0.330
 2770SOL     OW 8767   3.366   1.607   0.044
 2770SOL    HW1 8768   3.274   1.644   0.051
 2770SOL    HW2 8769   3.404   1.627  -0.046
 2771SOL     OW 8770   2.234   1.288   1.490
 2771SOL    HW1 8771   2.221   1.381   1.456
 2771SOL    HW2 8772   2.150   1.236   1.477
 2772SOL     OW 8773   3.476   1.292   1.289
 2772SOL    HW1 8774   3.536   1.295   1.369
 2772SOL    HW2 8775   3.401   1.356   1.302
 2773SOL     OW 8776   2.901   1.098   0.696
 2773SOL    HW1 8777   2.831   1.051   0.750
 2773SOL    HW2 8778   2.960   1.030   0.653
 2774SOL     OW 8779   2.876   0.236   0.971
 2774SOL    HW1 8780   2.868   0.200   0.878
 2774SOL    HW2 8781   2.874   0.160   1.036
 2775SOL     OW 8782   2.452   1.487   0.491
 2775SOL    HW1 8783   2.494   1.429   0.421
 2775SOL    HW2 8784   2.408   1.566   0.447
 2776SOL     OW 8785   3.571   0.385   1.381
 2776SOL    HW1 8786   3.644   0.454   1.385
 2776SOL    HW2 8787   3.599   0.310   1.322
 2777SOL     OW 8788   2.117   1.348   0.290
 2777SOL    HW1 8789   2.021   1.349   0.263
 2777SOL    HW2 8790   2.129   1.401   0.374
 2778SOL     OW 8791   1.967   1.013   1.726
 2778SOL    HW1 8792   1.890   0.980   1.780
 2778SOL    HW2 8793   2.052   0.983   1.768
 2779SOL     OW 8794   2.534   0.203   1.489
 2779SOL    HW1 8795   2.624   0.187   1.449
 2779SOL    HW2 8796   2.542   0.208   1.588
 2780SOL     OW 8797   1.937   0.345   0.033
 2780SOL    HW1 8798   1.845   0.317   0.004
 2780SOL    HW2 8799   1.968   0.422  -0.023
 2781SOL     OW 8800   3.302   0.856   1.398
 2781SOL    HW1 8801   3.245   0.908   1.335
 2781SOL    HW2 8802   3.398   0.868   1.374
 2782SOL     OW 8803   1.934   0.166   0.318
 2782SOL    HW1 8804   1.917   0.249   0.264
 2782SOL    HW2 8805   2.024   0.129   0.296
 2783SOL     OW 8806   3.045   1.335   0.119
 2783SOL    HW1 8807   2.946   1.324   0.121
 2783SOL    HW2 8808   3.079   1.350   0.212
 2784SOL     OW 8809   2.475   0.842   1.431
 2784SOL    HW1 8810   2.531   0.923   1.414
 2784SOL    HW2 8811   2.534   0.762   1.434
 2785SOL     OW 8812   3.355   1.767   0.959
 2785SOL    HW1 8813   3.388   1.831   0.890
 2785SOL    HW2 8814   3.421   1.761   1.034
 2786SOL     OW 8815   2.578   0.565   1.708
 2786SOL    HW1 8816   2.597   0.630   1.782
 2786SOL    HW2 8817   2.638   0.485   1.717
 2787SOL     OW 8818   3.312   1.220   1.633
 2787SOL    HW1 8819   3.303   1.210   1.732
 2787SOL    HW2 8820   3.408   1.213   1.607
 2788SOL     OW 8821   2.252   1.741   1.560
 2788SOL    HW1 8822   2.161   1.782   1.558
 2788SOL    HW2 8823   2.245   1.647   1.592
 2789SOL     OW 8824   3.536   0.883   1.254
 2789SOL    HW1 8825   3.509   0.794   1.217
 2789SOL    HW2 8826   3.537   0.951   1.181
 2790SOL     OW 8827   3.087   0.325   0.449
 2790SOL    HW1 8828   3.152   0.251   0.438
 2790SOL    HW2 8829   3.107   0.375   0.533
 2791SOL     OW 8830   2.456   0.745   0.652
 2791SOL    HW1 8831   2.506   0.830   0.633
 2791SOL    HW2 8832   2.368   0.747   0.604
 2792SOL     OW 8833   3.639   0.342   1.642
 2792SOL    HW1 8834   3.622   0.373   1.548
 2792SOL    HW2 8835   3.555   0.305   1.680
 2793SOL     OW 8836   3.592   0.934   1.517
 2793SOL    HW1 8837   3.630   1.025   1.532
 2793SOL    HW2 8838   3.584   0.917   1.418
 2794SOL     OW 8839   2.721   1.374   0.016
 2794SOL    HW1 8840   2.675   1.389   0.104
 2794SOL    HW2 8841   2.765   1.459  -0.014
 2795SOL     OW 8842   2.523   1.790   0.953
 2795SOL    HW1 8843   2.477   1.878   0.940
 2795SOL    HW2 8844   2.622   1.802   0.946
 2796SOL     OW 8845   2.721   0.956   0.861
 2796SOL    HW1 8846   2.775   0.887   0.909
 2796SOL    HW2 8847   2.689   1.025   0.927
 2797SOL     OW 8848   2.945   0.984   0.087
 2797SOL    HW1 8849   2.922   1.037   0.005
 2797SOL    HW2 8850   3.026   0.928   0.068
 2798SOL     OW 8851   3.723   1.569   0.851
 2798SOL    HW1 8852   3.652   1.557   0.781
 2798SOL    HW2 8853   3.724   1.490   0.911
 2799SOL     OW 8854   2.083   1.314   1.844
 2799SOL    HW1 8855   2.018   1.241   1.823
 2799SOL    HW2 8856   2.087   1.328   1.942
 2800SOL     OW 8857   1.941   1.240   0.653
 2800SOL    HW1 8858   1.940   1.193   0.741
 2800SOL    HW2 8859   2.023   1.212   0.602
 2801SOL     OW 8860   2.534   1.391   1.624
 2801SOL    HW1 8861   2.456   1.341   1.662
 2801SOL    HW2 8862   2.531   1.486   1.655
 2802SOL     OW 8863   3.686   0.192   1.227
 2802SOL    HW1 8864   3.682   0.102   1.271
 2802SOL    HW2 8865   3.689   0.181   1.128
 2803SOL     OW 8866   2.290   0.424   0.520
 2803SOL    HW1 8867   2.320   0.352   0.458
 2803SOL    HW2 8868   2.251   0.384   0.603
 2804SOL     OW 8869   3.567   1.487   1.104
 2804SOL    HW1 8870   3.474   1.462   1.077
 2804SOL    HW2 8871   3.593   1.437   1.186
 2805SOL     OW 8872   2.179   0.547   1.280
 2805SOL    HW1 8873   2.217   0.488   1.352
 2805SOL    HW2 8874   2.219   0.521   1.192
 2806SOL     OW 8875   2.674   1.586   0.687
 2806SOL    HW1 8876   2.706   1.596   0.593
 2806SOL    HW2 8877   2.595   1.524   0.689
 2807SOL     OW 8878   3.286   0.214   1.112
 2807SOL    HW1 8879   3.338   0.149   1.167
 2807SOL    HW2 8880   3.237   0.277   1.173
 2808SOL     OW 8881   2.863   0.034   1.154
 2808SOL    HW1 8882   2.800  -0.038   1.123
 2808SOL    HW2 8883   2.956  -0.002   1.154
 2809SOL     OW 8884   2.632   1.330   0.301
 2809SOL    HW1 8885   2.586   1.243   0.318
 2809SOL    HW2 8886   2.723   1.327   0.342
 2810SOL     OW 8887   2.480   1.567   1.284
 2810SOL    HW1 8888   2.475   1.649   1.341
 2810SOL    HW2 8889   2.569   1.564   1.239
 2811SOL     OW 8890   3.214   0.052   0.168
 2811SOL    HW1 8891   3.249   0.011   0.084
 2811SOL    HW2 8892   3.124   0.014   0.188
 2812SOL     OW 8893   3.162   0.453   0.691
 2812SOL    HW1 8894   3.103   0.533   0.695
 2812SOL    HW2 8895   3.177   0.418   0.784
 2813SOL     OW 8896   3.455   0.221   0.882
 2813SOL    HW1 8897   3.371   0.220   0.936
 2813SOL    HW2 8898   3.457   0.304   0.826
 2814SOL     OW 8899   1.901   1.077   0.300
 2814SOL    HW1 8900   2.000   1.066   0.291
 2814SOL    HW2 8901   1.861   0.991   0.332
 2815SOL     OW 8902   2.737   1.646   0.337
 2815SOL    HW1 8903   2.660   1.611   0.283
 2815SOL    HW2 8904   2.705   1.717   0.399
 2816SOL     OW 8905   2.092   0.628   1.975
 2816SOL    HW1 8906   1.999   0.626   2.012
 2816SOL    HW2 8907   2.093   0.589   1.883
 2817SOL     OW 8908   2.087   0.275   2.858
 2817SOL    HW1 8909   2.122   0.258   2.950
 2817SOL    HW2 8910   1.999   0.230   2.846
 2818SOL     OW 8911   1.881   0.368   2.509
 2818SOL    HW1 8912   1.799   0.411   2.548
 2818SOL    HW2 8913   1.853   0.295   2.446
 2819SOL     OW 8914   2.431   1.275   3.027
 2819SOL    HW1 8915   2.338   1.268   2.990
 2819SOL    HW2 8916   2.442   1.364   3.071
 2820SOL     OW 8917   3.417   1.511   2.565
 2820SOL    HW1 8918   3.360   1.495   2.646
 2820SOL    HW2 8919   3.358   1.521   2.485
 2821SOL     OW 8920   2.997   0.703   2.579
 2821SOL    HW1 8921   3.054   0.781   2.554
 2821SOL    HW2 8922   2.937   0.729   2.655
 2822SOL     OW 8923   3.617   0.607   2.093
 2822SOL    HW1 8924   3.605   0.594   1.994
 2822SOL    HW2 8925   3.587   0.526   2.142
 2823SOL     OW 8926   2.630   1.144   2.885
 2823SOL    HW1 8927   2.552   1.161   2.945
 2823SOL    HW2 8928   2.664   1.231   2.849
 2824SOL     OW 8929   2.712   0.798   3.685
 2824SOL    HW1 8930   2.708   0.874   3.750
 2824SOL    HW2 8931   2.734   0.834   3.594
 2825SOL     OW 8932   2.547   1.012   2.527
 2825SOL    HW1 8933   2.616   0.996   2.597
 2825SOL    HW2 8934   2.474   1.069   2.565
 2826SOL     OW 8935   2.548   1.161   3.665
 2826SOL    HW1 8936   2.608   1.240   3.679
 2826SOL    HW2 8937   2.462   1.192   3.624
 2827SOL     OW 8938   2.197   1.435   2.923
 2827SOL    HW1 8939   2.119   1.404   2.870
 2827SOL    HW2 8940   2.255   1.493   2.866
 2828SOL     OW 8941   3.322   1.505   3.201
 2828SOL    HW1 8942   3.346   1.599   3.227
 2828SOL    HW2 8943   3.306   1.451   3.283
 2829SOL     OW 8944   2.300   0.392   3.361
 2829SOL    HW1 8945   2.382   0.336   3.370
 2829SOL    HW2 8946   2.219   0.334   3.365
 2830SOL     OW 8947   3.465   0.447   2.599
 2830SOL    HW1 8948   3.391   0.493   2.549
 2830SOL    HW2 8949   3.516   0.515   2.652
 2831SOL     OW 8950   2.093   1.713   2.345
 2831SOL    HW1 8951   2.127   1.790   2.399
 2831SOL    HW2 8952   2.137   1.713   2.255
 2832SOL     OW 8953   2.989   1.341   3.552
 2832SOL    HW1 8954   3.036   1.341   3.640
 2832SOL    HW2 8955   2.941   1.254   3.541
 2833SOL     OW 8956   2.092   1.434   2.400
 2833SOL    HW1 8957   2.066   1.530   2.400
 2833SOL    HW2 8958   2.021   1.380   2.445
 2834SOL     OW 8959   2.102   1.091   2.748
 2834SOL    HW1 8960   2.116   1.007   2.800
 2834SOL    HW2 8961   2.047   1.155   2.803
 2835SOL     OW 8962   2.482   1.786   3.301
 2835SOL    HW1 8963   2.390   1.769   3.336
 2835SOL    HW2 8964   2.510   1.878   3.327
 2836SOL     OW 8965   2.468   0.964   1.985
 2836SOL    HW1 8966   2.475   1.048   1.931
 2836SOL    HW2 8967   2.514   0.977   2.073
 2837SOL     OW 8968   3.456   0.114   3.342
 2837SOL    HW1 8969   3.438   0.181   3.270
 2837SOL    HW2 8970   3.453   0.160   3.431
 2838SOL     OW 8971   1.984   0.643   2.425
 2838SOL    HW1 8972   1.939   0.555   2.442
 2838SOL    HW2 8973   1.983   0.697   2.509
 2839SOL     OW 8974   3.704   1.767   2.221
 2839SOL    HW1 8975   3.758   1.738   2.301
 2839SOL    HW2 8976   3.734   1.857   2.192
 2840SOL     OW 8977   1.889   1.596   1.979
 2840SOL    HW1 8978   1.870   1.500   2.000
 2840SOL    HW2 8979   1.856   1.654   2.054
 2841SOL     OW 8980   3.551   0.922   2.474
 2841SOL    HW1 8981   3.646   0.893   2.482
 2841SOL    HW2 8982   3.543   0.987   2.399
 2842SOL     OW 8983   3.503   1.108   2.294
 2842SOL    HW1 8984   3.589   1.110   2.242
 2842SOL    HW2 8985   3.517   1.155   2.382
 2843SOL     OW 8986   1.975   0.737   3.459
 2843SOL    HW1 8987   2.063   0.724   3.504
 2843SOL    HW2 8988   1.962   0.834   3.437
 2844SOL     OW 8989   2.475   1.365   2.588
 2844SOL    HW1 8990   2.426   1.278   2.597
 2844SOL    HW2 8991   2.452   1.408   2.501
 2845SOL     OW 8992   3.155   1.228   3.285
 2845SOL    HW1 8993   3.192   1.155   3.227
 2845SOL    HW2 8994   3.207   1.233   3.370
 2846SOL     OW 8995   2.671   0.004   2.364
 2846SOL    HW1 8996   2.711   0.095   2.355
 2846SOL    HW2 8997   2.571   0.012   2.370
 2847SOL     OW 8998   2.059   0.976   3.126
 2847SOL    HW1 8999   2.148   0.931   3.112
 2847SOL    HW2 9000   1.986   0.911   3.107
 2848SOL     OW 9001   3.387   0.999   2.052
 2848SOL    HW1 9002   3.324   0.923   2.065
 2848SOL    HW2 9003   3.435   1.017   2.138
 2849SOL     OW 9004   3.049   1.792   3.478
 2849SOL    HW1 9005   3.073   1.852   3.402
 2849SOL    HW2 9006   3.056   1.697   3.448
 2850SOL     OW 9007   2.179   0.251   3.663
 2850SOL    HW1 9008   2.250   0.322   3.669
 2850SOL    HW2 9009   2.091   0.290   3.691
 2851SOL     OW 9010   3.328   1.417   2.815
 2851SOL    HW1 9011   3.269   1.423   2.895
 2851SOL    HW2 9012   3.313   1.329   2.769
 2852SOL     OW 9013   3.529   1.714   2.434
 2852SOL    HW1 9014   3.488   1.691   2.346
 2852SOL    HW2 9015   3.511   1.640   2.499
 2853SOL     OW 9016   2.460   0.729   2.132
 2853SOL    HW1 9017   2.484   0.798   2.064
 2853SOL    HW2 9018   2.382   0.762   2.186
 2854SOL     OW 9019   3.143   0.345   2.806
 2854SOL    HW1 9020   3.057   0.295   2.793
 2854SOL    HW2 9021   3.205   0.291   2.862
 2855SOL     OW 9022   3.438   1.662   2.169
 2855SOL    HW1 9023   3.527   1.708   2.172
 2855SOL    HW2 9024   3.417   1.638   2.074
 2856SOL     OW 9025   2.669   0.605   3.327
 2856SOL    HW1 9026   2.622   0.602   3.416
 2856SOL    HW2 9027   2.618   0.550   3.261
 2857SOL     OW 9028   3.256   0.469   3.536
 2857SOL    HW1 9029   3.236   0.512   3.624
 2857SOL    HW2 9030   3.334   0.407   3.545
 2858SOL     OW 9031   2.835   0.890   3.434
 2858SOL    HW1 9032   2.881   0.806   3.405
 2858SOL    HW2 9033   2.779   0.924   3.359
 2859SOL     OW 9034   2.853   0.410   3.104
 2859SOL    HW1 9035   2.776   0.444   3.158
 2859SOL    HW2 9036   2.819   0.359   3.025
 2860SOL     OW 9037   2.903   0.701   2.291
 2860SOL    HW1 9038   2.929   0.697   2.387
 2860SOL    HW2 9039   2.818   0.650   2.277
 2861SOL     OW 9040   1.938   0.811   2.651
 2861SOL    HW1 9041   2.037   0.799   2.660
 2861SOL    HW2 9042   1.914   0.906   2.672
 2862SOL     OW 9043   1.992   1.821   3.433
 2862SOL    HW1 9044   1.982   1.806   3.532
 2862SOL    HW2 9045   1.906   1.857   3.397
 2863SOL     OW 9046   2.727   0.348   2.057
 2863SOL    HW1 9047   2.786   0.411   2.008
 2863SOL    HW2 9048   2.746   0.254   2.028
 2864SOL     OW 9049   3.581   0.585   3.693
 2864SOL    HW1 9050   3.555   0.674   3.657
 2864SOL    HW2 9051   3.579   0.517   3.620
 2865SOL     OW 9052   3.224   1.144   2.407
 2865SOL    HW1 9053   3.307   1.115   2.359
 2865SOL    HW2 9054   3.175   1.211   2.351
 2866SOL     OW 9055   2.412   0.196   2.747
 2866SOL    HW1 9056   2.407   0.191   2.847
 2866SOL    HW2 9057   2.414   0.292   2.718
 2867SOL     OW 9058   2.870   1.456   2.339
 2867SOL    HW1 9059   2.824   1.528   2.287
 2867SOL    HW2 9060   2.866   1.476   2.437
 2868SOL     OW 9061   2.213   1.801   2.715
 2868SOL    HW1 9062   2.263   1.715   2.721
 2868SOL    HW2 9063   2.278   1.878   2.712
 2869SOL     OW 9064   3.657   1.066   2.735
 2869SOL    HW1 9065   3.595   1.051   2.659
 2869SOL    HW2 9066   3.605   1.077   2.820
 2870SOL     OW 9067   3.089   1.550   3.368
 2870SOL    HW1 9068   3.095   1.473   3.432
 2870SOL    HW2 9069   3.037   1.524   3.288
 2871SOL     OW 9070   2.183   0.943   2.104
 2871SOL    HW1 9071   2.265   0.982   2.062
 2871SOL    HW2 9072   2.156   0.861   2.055
 2872SOL     OW 9073   3.320   0.735   2.590
 2872SOL    HW1 9074   3.315   0.670   2.665
 2872SOL    HW2 9075   3.400   0.794   2.603
 2873SOL     OW 9076   2.323   1.266   3.589
 2873SOL    HW1 9077   2.273   1.267   3.503
 2873SOL    HW2 9078   2.260   1.248   3.665
 2874SOL     OW 9079   2.973   1.776   2.099
 2874SOL    HW1 9080   2.913   1.714   2.149
 2874SOL    HW2 9081   3.004   1.732   2.014
 2875SOL     OW 9082   2.064   0.285   3.360
 2875SOL    HW1 9083   1.984   0.345   3.347
 2875SOL    HW2 9084   2.054   0.236   3.446
 2876SOL     OW 9085   3.494   1.377   1.943
 2876SOL    HW1 9086   3.462   1.471   1.933
 2876SOL    HW2 9087   3.418   1.314   1.931
 2877SOL     OW 9088   2.326   1.743   2.185
 2877SOL    HW1 9089   2.359   1.782   2.271
 2877SOL    HW2 9090   2.402   1.736   2.120
 2878SOL     OW 9091   3.262   0.107   2.288
 2878SOL    HW1 9092   3.238   0.070   2.198
 2878SOL    HW2 9093   3.361   0.123   2.292
 2879SOL     OW 9094   2.111   1.785   3.103
 2879SOL    HW1 9095   2.168   1.720   3.153
 2879SOL    HW2 9096   2.095   1.752   3.010
 2880SOL     OW 9097   2.802   1.698   2.766
 2880SOL    HW1 9098   2.882   1.641   2.787
 2880SOL    HW2 9099   2.753   1.658   2.689
 2881SOL     OW 9100   2.244   0.700   2.342
 2881SOL    HW1 9101   2.289   0.610   2.339
 2881SOL    HW2 9102   2.150   0.689   2.375
 2882SOL     OW 9103   3.409   0.222   3.591
 2882SOL    HW1 9104   3.404   0.259   3.683
 2882SOL    HW2 9105   3.337   0.153   3.579
 2883SOL     OW 9106   2.476   0.122   1.979
 2883SOL    HW1 9107   2.574   0.100   1.986
 2883SOL    HW2 9108   2.445   0.105   1.886
 2884SOL     OW 9109   2.643   0.264   3.611
 2884SOL    HW1 9110   2.710   0.203   3.654
 2884SOL    HW2 9111   2.570   0.283   3.676
 2885SOL     OW 9112   2.750   1.514   3.057
 2885SOL    HW1 9113   2.727   1.489   2.963
 2885SOL    HW2 9114   2.811   1.445   3.096
 2886SOL     OW 9115   3.213   0.590   3.295
 2886SOL    HW1 9116   3.241   0.547   3.380
 2886SOL    HW2 9117   3.238   0.686   3.296
 2887SOL     OW 9118   2.665   1.402   2.786
 2887SOL    HW1 9119   2.755   1.416   2.744
 2887SOL    HW2 9120   2.594   1.404   2.715
 2888SOL     OW 9121   2.784   0.503   2.761
 2888SOL    HW1 9122   2.759   0.494   2.665
 2888SOL    HW2 9123   2.832   0.421   2.792
 2889SOL     OW 9124   2.401   0.064   2.374
 2889SOL    HW1 9125   2.320   0.065   2.432
 2889SOL    HW2 9126   2.404   0.147   2.319
 2890SOL     OW 9127   3.296   1.188   1.903
 2890SOL    HW1 9128   3.328   1.112   1.960
 2890SOL    HW2 9129   3.204   1.215   1.933
 2891SOL     OW 9130   2.159   0.035   2.033
 2891SOL    HW1 9131   2.208   0.119   2.012
 2891SOL    HW2 9132   2.221  -0.030   2.078
 2892SOL     OW 9133   2.797   0.236   2.342
 2892SOL    HW1 9134   2.749   0.277   2.264
 2892SOL    HW2 9135   2.896   0.234   2.323
 2893SOL     OW 9136   2.938   0.683   3.326
 2893SOL    HW1 9137   2.858   0.622   3.329
 2893SOL    HW2 9138   3.019   0.630   3.302
 2894SOL     OW 9139   3.089   1.570   2.655
 2894SOL    HW1 9140   3.110   1.644   2.590
 2894SOL    HW2 9141   3.157   1.570   2.728
 2895SOL     OW 9142   2.321   1.152   2.603
 2895SOL    HW1 9143   2.250   1.125   2.668
 2895SOL    HW2 9144   2.295   1.124   2.510
 2896SOL     OW 9145   3.133   1.797   2.453
 2896SOL    HW1 9146   3.177   1.861   2.389
 2896SOL    HW2 9147   3.083   1.849   2.523
 2897SOL     OW 9148   2.894   0.549   1.878
 2897SOL    HW1 9149   2.853   0.631   1.839
 2897SOL    HW2 9150   2.958   0.575   1.951
 2898SOL     OW 9151   1.940   0.556   3.248
 2898SOL    HW1 9152   2.032   0.555   3.207
 2898SOL    HW2 9153   1.934   0.630   3.315
 2899SOL     OW 9154   2.423   0.222   3.009
 2899SOL    HW1 9155   2.461   0.138   3.046
 2899SOL    HW2 9156   2.335   0.241   3.053
 2900SOL     OW 9157   2.728   0.454   2.504
 2900SOL    HW1 9158   2.696   0.526   2.442
 2900SOL    HW2 9159   2.752   0.373   2.451
 2901SOL     OW 9160   2.879   0.039   2.615
 2901SOL    HW1 9161   2.807   0.044   2.546
 2901SOL    HW2 9162   2.855  -0.030   2.684
 2902SOL     OW 9163   3.291   1.173   2.729
 2902SOL    HW1 9164   3.236   1.089   2.722
 2902SOL    HW2 9165   3.317   1.202   2.637
 2903SOL     OW 9166   3.328   0.590   2.854
 2903SOL    HW1 9167   3.298   0.495   2.861
 2903SOL    HW2 9168   3.401   0.606   2.920
 2904SOL     OW 9169   3.719   0.833   2.239
 2904SOL    HW1 9170   3.761   0.769   2.303
 2904SOL    HW2 9171   3.681   0.782   2.161
 2905SOL     OW 9172   2.350   1.385   2.036
 2905SOL    HW1 9173   2.263   1.370   2.083
 2905SOL    HW2 9174   2.333   1.411   1.941
 2906SOL     OW 9175   3.526   1.280   2.519
 2906SOL    HW1 9176   3.625   1.288   2.533
 2906SOL    HW2 9177   3.481   1.364   2.550
 2907SOL     OW 9178   3.252   0.575   1.940
 2907SOL    HW1 9179   3.198   0.554   2.021
 2907SOL    HW2 9180   3.343   0.534   1.949
 2908SOL     OW 9181   2.389   0.256   2.190
 2908SOL    HW1 9182   2.416   0.197   2.115
 2908SOL    HW2 9183   2.389   0.351   2.159
 2909SOL     OW 9184   3.616   1.223   3.450
 2909SOL    HW1 9185   3.707   1.184   3.437
 2909SOL    HW2 9186   3.624   1.319   3.474
 2910SOL     OW 9187   2.926   1.347   3.202
 2910SOL    HW1 9188   2.846   1.324   3.257
 2910SOL    HW2 9189   3.009   1.321   3.251
 2911SOL     OW 9190   3.454   1.629   3.487
 2911SOL    HW1 9191   3.481   1.663   3.397
 2911SOL    HW2 9192   3.533   1.591   3.533
 2912SOL     OW 9193   2.973   1.195   2.962
 2912SOL    HW1 9194   2.933   1.239   3.043
 2912SOL    HW2 9195   2.932   1.232   2.879
 2913SOL     OW 9196   3.500   1.099   2.941
 2913SOL    HW1 9197   3.505   1.180   3.000
 2913SOL    HW2 9198   3.414   1.101   2.890
 2914SOL     OW 9199   2.777   0.089   3.264
 2914SOL    HW1 9200   2.802   0.069   3.169
 2914SOL    HW2 9201   2.849   0.145   3.306
 2915SOL     OW 9202   2.842   1.116   3.581
 2915SOL    HW1 9203   2.743   1.122   3.591
 2915SOL    HW2 9204   2.865   1.036   3.525
 2916SOL     OW 9205   2.567   1.050   2.230
 2916SOL    HW1 9206   2.553   1.057   2.329
 2916SOL    HW2 9207   2.651   0.999   2.212
 2917SOL     OW 9208   2.272   0.813   3.113
 2917SOL    HW1 9209   2.358   0.825   3.163
 2917SOL    HW2 9210   2.230   0.726   3.140
 2918SOL     OW 9211   3.136   0.386   3.124
 2918SOL    HW1 9212   3.157   0.460   3.188
 2918SOL    HW2 9213   3.047   0.403   3.081
 2919SOL     OW 9214   1.926   1.564   3.193
 2919SOL    HW1 9215   1.880   1.646   3.159
 2919SOL    HW2 9216   2.024   1.583   3.202
 2920SOL     OW 9217   2.229   1.100   2.363
 2920SOL    HW1 9218   2.222   1.183   2.307
 2920SOL    HW2 9219   2.233   1.020   2.303
 2921SOL     OW 9220   2.428   0.537   2.727
 2921SOL    HW1 9221   2.440   0.603   2.653
 2921SOL    HW2 9222   2.474   0.571   2.810
 2922SOL     OW 9223   3.114   1.348   2.250
 2922SOL    HW1 9224   3.164   1.425   2.290
 2922SOL    HW2 9225   3.019   1.350   2.282
 2923SOL     OW 9226   3.134   1.445   3.004
 2923SOL    HW1 9227   3.181   1.458   3.091
 2923SOL    HW2 9228   3.068   1.371   3.013
 2924SOL     OW 9229   3.444   0.639   2.334
 2924SOL    HW1 9230   3.413   0.700   2.407
 2924SOL    HW2 9231   3.494   0.691   2.265
 2925SOL     OW 9232   2.216   1.510   3.191
 2925SOL    HW1 9233   2.195   1.466   3.104
 2925SOL    HW2 9234   2.313   1.536   3.194
 2926SOL     OW 9235   2.264   0.751   3.460
 2926SOL    HW1 9236   2.332   0.806   3.413
 2926SOL    HW2 9237   2.304   0.663   3.487
 2927SOL     OW 9238   3.449   0.779   3.532
 2927SOL    HW1 9239   3.357   0.817   3.527
 2927SOL    HW2 9240   3.509   0.826   3.467
 2928SOL     OW 9241   2.875   0.105   3.632
 2928SOL    HW1 9242   2.881   0.190   3.580
 2928SOL    HW2 9243   2.907   0.029   3.575
 2929SOL     OW 9244   2.366   0.050   3.602
 2929SOL    HW1 9245   2.324  -0.007   3.532
 2929SOL    HW2 9246   2.300   0.119   3.634
 2930SOL     OW 9247   2.435   0.870   2.891
 2930SOL    HW1 9248   2.479   0.959   2.882
 2930SOL    HW2 9249   2.372   0.870   2.968
 2931SOL     OW 9250   3.222   0.862   2.907
 2931SOL    HW1 9251   3.147   0.862   2.841
 2931SOL    HW2 9252   3.259   0.770   2.916
 2932SOL     OW 9253   3.071   0.525   2.137
 2932SOL    HW1 9254   3.084   0.441   2.191
 2932SOL    HW2 9255   3.042   0.599   2.197
 2933SOL     OW 9256   2.169   0.213   3.093
 2933SOL    HW1 9257   2.146   0.250   3.183
 2933SOL    HW2 9258   2.139   0.118   3.087
 2934SOL     OW 9259   1.899   1.310   3.144
 2934SOL    HW1 9260   1.952   1.261   3.212
 2934SOL    HW2 9261   1.921   1.408   3.149
 2935SOL     OW 9262   2.594   0.634   2.926
 2935SOL    HW1 9263   2.653   0.608   2.850
 2935SOL    HW2 9264   2.566   0.730   2.915
 2936SOL     OW 9265   3.590   0.935   3.716
 2936SOL    HW1 9266   3.544   0.928   3.627
 2936SOL    HW2 9267   3.528   0.979   3.782
 2937SOL     OW 9268   2.169   0.063   2.480
 2937SOL    HW1 9269   2.158   0.157   2.513
 2937SOL    HW2 9270   2.164   0.000   2.557
 2938SOL     OW 9271   3.484   0.367   2.236
 2938SOL    HW1 9272   3.486   0.291   2.300
 2938SOL    HW2 9273   3.436   0.444   2.276
 2939SOL     OW 9274   2.885   0.766   2.828
 2939SOL    HW1 9275   2.900   0.787   2.924
 2939SOL    HW2 9276   2.855   0.671   2.819
 2940SOL     OW 9277   2.842   1.573   3.562
 2940SOL    HW1 9278   2.822   1.617   3.474
 2940SOL    HW2 9279   2.881   1.482   3.546
 2941SOL     OW 9280   3.721   1.518   3.467
 2941SOL    HW1 9281   3.735   1.545   3.372
 2941SOL    HW2 9282   3.804   1.540   3.520
 2942SOL     OW 9283   2.212   0.898   3.666
 2942SOL    HW1 9284   2.288   0.942   3.714
 2942SOL    HW2 9285   2.247   0.851   3.584
 2943SOL     OW 9286   3.402   0.274   1.987
 2943SOL    HW1 9287   3.341   0.199   2.010
 2943SOL    HW2 9288   3.424   0.326   2.070
 2944SOL     OW 9289   3.165   0.838   1.904
 2944SOL    HW1 9290   3.199   0.745   1.919
 2944SOL    HW2 9291   3.183   0.865   1.809
 2945SOL     OW 9292   2.930   1.333   2.711
 2945SOL    HW1 9293   2.937   1.249   2.656
 2945SOL    HW2 9294   2.992   1.402   2.675
 2946SOL     OW 9295   2.181   0.810   2.811
 2946SOL    HW1 9296   2.274   0.846   2.816
 2946SOL    HW2 9297   2.175   0.725   2.863
 2947SOL     OW 9298   2.201   0.509   2.868
 2947SOL    HW1 9299   2.149   0.426   2.851
 2947SOL    HW2 9300   2.278   0.514   2.804
 2948SOL     OW 9301   3.000   0.380   3.540
 2948SOL    HW1 9302   2.955   0.443   3.604
 2948SOL    HW2 9303   3.093   0.411   3.523
 2949SOL     OW 9304   3.022   0.207   3.339
 2949SOL    HW1 9305   3.022   0.271   3.416
 2949SOL    HW2 9306   3.050   0.255   3.256
 2950SOL     OW 9307   1.870   1.326   2.062
 2950SOL    HW1 9308   1.777   1.347   2.031
 2950SOL    HW2 9309   1.880   1.227   2.075
 2951SOL     OW 9310   1.950   1.801   2.789
 2951SOL    HW1 9311   1.908   1.715   2.762
 2951SOL    HW2 9312   2.044   1.804   2.755
 2952SOL     OW 9313   2.366   1.568   2.772
 2952SOL    HW1 9314   2.432   1.642   2.781
 2952SOL    HW2 9315   2.410   1.489   2.730
 2953SOL     OW 9316   2.864   0.796   3.100
 2953SOL    HW1 9317   2.905   0.764   3.186
 2953SOL    HW2 9318   2.768   0.769   3.097
 2954SOL     OW 9319   1.902   0.544   2.976
 2954SOL    HW1 9320   1.987   0.511   2.935
 2954SOL    HW2 9321   1.915   0.559   3.074
 2955SOL     OW 9322   2.051   0.520   3.584
 2955SOL    HW1 9323   2.110   0.480   3.514
 2955SOL    HW2 9324   1.993   0.591   3.543
 2956SOL     OW 9325   3.231   0.950   3.522
 2956SOL    HW1 9326   3.270   1.039   3.542
 2956SOL    HW2 9327   3.241   0.930   3.425
 2957SOL     OW 9328   2.677   0.572   2.187
 2957SOL    HW1 9329   2.684   0.483   2.141
 2957SOL    HW2 9330   2.583   0.606   2.179
 2958SOL     OW 9331   3.519   0.604   3.068
 2958SOL    HW1 9332   3.481   0.535   3.130
 2958SOL    HW2 9333   3.601   0.568   3.024
 2959SOL     OW 9334   2.114   1.564   3.606
 2959SOL    HW1 9335   2.084   1.621   3.682
 2959SOL    HW2 9336   2.107   1.467   3.632
 2960SOL     OW 9337   2.533   0.464   3.131
 2960SOL    HW1 9338   2.499   0.375   3.101
 2960SOL    HW2 9339   2.559   0.518   3.051
 2961SOL     OW 9340   2.792   1.678   3.327
 2961SOL    HW1 9341   2.768   1.660   3.232
 2961SOL    HW2 9342   2.822   1.772   3.337
 2962SOL     OW 9343   2.335   0.500   2.053
 2962SOL    HW1 9344   2.396   0.580   2.057
 2962SOL    HW2 9345   2.240   0.531   2.060
 2963SOL     OW 9346   2.021   1.137   3.328
 2963SOL    HW1 9347   2.043   1.076   3.404
 2963SOL    HW2 9348   2.031   1.088   3.242
 2964SOL     OW 9349   3.209   1.059   3.096
 2964SOL    HW1 9350   3.233   0.996   3.022
 2964SOL    HW2 9351   3.119   1.099   3.078
 2965SOL     OW 9352   3.164   0.855   2.171
 2965SOL    HW1 9353   3.078   0.824   2.213
 2965SOL    HW2 9354   3.160   0.841   2.072
 2966SOL     OW 9355   3.621   1.747   3.016
 2966SOL    HW1 9356   3.682   1.777   2.943
 2966SOL    HW2 9357   3.583   1.658   2.994
 2967SOL     OW 9358   3.114   1.731   2.990
 2967SOL    HW1 9359   3.198   1.736   2.936
 2967SOL    HW2 9360   3.091   1.635   3.008
 2968SOL     OW 9361   1.945   1.258   2.884
 2968SOL    HW1 9362   1.940   1.257   2.984
 2968SOL    HW2 9363   1.862   1.217   2.846
 2969SOL     OW 9364   2.550   1.662   3.578
 2969SOL    HW1 9365   2.494   1.743   3.587
 2969SOL    HW2 9366   2.602   1.666   3.492
 2970SOL     OW 9367   3.588   0.135   2.385
 2970SOL    HW1 9368   3.661   0.118   2.318
 2970SOL    HW2 9369   3.557   0.048   2.423
 2971SOL     OW 9370   3.250   1.573   2.339
 2971SOL    HW1 9371   3.317   1.585   2.265
 2971SOL    HW2 9372   3.210   1.662   2.362
 2972SOL     OW 9373   1.992   1.794   3.713
 2972SOL    HW1 9374   1.951   1.720   3.766
 2972SOL    HW2 9375   2.056   1.845   3.771
 2973SOL     OW 9376   3.142   0.927   2.534
 2973SOL    HW1 9377   3.202   0.846   2.536
 2973SOL    HW2 9378   3.182   0.996   2.474
 2974SOL     OW 9379   2.692   1.273   3.284
 2974SOL    HW1 9380   2.687   1.306   3.379
 2974SOL    HW2 9381   2.606   1.292   3.238
 2975SOL     OW 9382   2.534   1.616   2.016
 2975SOL    HW1 9383   2.543   1.626   1.917
 2975SOL    HW2 9384   2.494   1.527   2.037
 2976SOL     OW 9385   3.512   1.720   3.256
 2976SOL    HW1 9386   3.565   1.730   3.172
 2976SOL    HW2 9387   3.485   1.810   3.290
 2977SOL     OW 9388   3.703   0.175   2.825
 2977SOL    HW1 9389   3.742   0.090   2.789
 2977SOL    HW2 9390   3.605   0.177   2.806
 2978SOL     OW 9391   2.125   0.326   2.582
 2978SOL    HW1 9392   2.046   0.377   2.548
 2978SOL    HW2 9393   2.116   0.311   2.680
 2979SOL     OW 9394   3.056   1.612   1.893
 2979SOL    HW1 9395   3.062   1.519   1.930
 2979SOL    HW2 9396   2.997   1.612   1.813
 2980SOL     OW 9397   2.684   1.002   3.234
 2980SOL    HW1 9398   2.724   1.001   3.142
 2980SOL    HW2 9399   2.694   1.094   3.274
 2981SOL     OW 9400   2.778   0.910   2.153
 2981SOL    HW1 9401   2.841   0.948   2.085
 2981SOL    HW2 9402   2.818   0.827   2.192
 2982SOL     OW 9403   3.366   1.607   1.906
 2982SOL    HW1 9404   3.274   1.644   1.913
 2982SOL    HW2 9405   3.404   1.627   1.816
 2983SOL     OW 9406   2.234   1.288   3.352
 2983SOL    HW1 9407   2.221   1.381   3.318
 2983SOL    HW2 9408   2.150   1.236   3.339
 2984SOL     OW 9409   3.476   1.292   3.151
 2984SOL    HW1 9410   3.536   1.295   3.231
 2984SOL    HW2 9411   3.401   1.356   3.164
 2985SOL     OW 9412   2.901   1.098   2.558
 2985SOL    HW1 9413   2.831   1.051   2.612
 2985SOL    HW2 9414   2.960   1.030   2.515
 2986SOL     OW 9415   2.876   0.236   2.833
 2986SOL    HW1 9416   2.868   0.200   2.740
 2986SOL    HW2 9417   2.874   0.160   2.898
 2987SOL     OW 9418   2.452   1.487   2.353
 2987SOL    HW1 9419   2.494   1.429   2.283
 2987SOL    HW2 9420   2.408   1.566   2.309
 2988SOL     OW 9421   3.571   0.385   3.243
 2988SOL    HW1 9422   3.644   0.454   3.247
 2988SOL    HW2 9423   3.599   0.310   3.184
 2989SOL     OW 9424   2.117   1.348   2.152
 2989SOL    HW1 9425   2.021   1.349   2.125
 2989SOL    HW2 9426   2.129   1.401   2.236
 2990SOL     OW 9427   1.967   1.013   3.588
 2990SOL    HW1 9428   1.890   0.980   3.642
 2990SOL    HW2 9429   2.052   0.983   3.630
 2991SOL     OW 9430   2.534   0.203   3.351
 2991SOL    HW1 9431   2.624   0.187   3.311
 2991SOL    HW2 9432   2.542   0.208   3.450
 2992SOL     OW 9433   1.937   0.345   1.895
 2992SOL    HW1 9434   1.845   0.317   1.866
 2992SOL    HW2 9435   1.968   0.422   1.839
 2993SOL     OW 9436   3.302   0.856   3.260
 2993SOL    HW1 9437   3.245   0.908   3.197
 2993SOL    HW2 9438   3.398   0.868   3.236
 2994SOL     OW 9439   1.934   0.166   2.180
 2994SOL    HW1 9440   1.917   0.249   2.126
 2994SOL    HW2 9441   2.024   0.129   2.158
 2995SOL     OW 9442   3.045   1.335   1.981
 2995SOL    HW1 9443   2.946   1.324   1.983
 2995SOL    HW2 9444   3.079   1.350   2.074
 2996SOL     OW 9445   2.475   0.842   3.293
 2996SOL    HW1 9446   2.531   0.923   3.276
 2996SOL    HW2 9447   2.534   0.762   3.296
 2997SOL     OW 9448   3.355   1.767   2.821
 2997SOL    HW1 9449   3.388   1.831   2.752
 2997SOL    HW2 9450   3.421   1.761   2.896
 2998SOL     OW 9451   2.578   0.565   3.570
 2998SOL    HW1 9452   2.597   0.630   3.644
 2998SOL    HW2 9453   2.638   0.485   3.579
 2999SOL     OW 9454   3.312   1.220   3.495
 2999SOL    HW1 9455   3.303   1.210   3.594
 2999SOL    HW2 9456   3.408   1.213   3.469
 3000SOL     OW 9457   2.252   1.741   3.422
 3000SOL    HW1 9458   2.161   1.782   3.420
 3000SOL    HW2 9459   2.245   1.647   3.454
 3001SOL     OW 9460   3.536   0.883   3.116
 3001SOL    HW1 9461   3.509   0.794   3.079
 3001SOL    HW2 9462   3.537   0.951   3.043
 3002SOL     OW 9463   3.087   0.325   2.311
 3002SOL    HW1 9464   3.152   0.251   2.300
 3002SOL    HW2 9465   3.107   0.375   2.395
 3003SOL     OW 9466   2.456   0.745   2.514
 3003SOL    HW1 9467   2.506   0.830   2.495
 3003SOL    HW2 9468   2.368   0.747   2.466
 3004SOL     OW 9469   3.639   0.342   3.504
 3004SOL    HW1 9470   3.622   0.373   3.410
 3004SOL    HW2 9471   3.555   0.305   3.542
 3005SOL     OW 9472   3.592   0.934   3.379
 3005SOL    HW1 9473   3.630   1.025   3.394
 3005SOL    HW2 9474   3.584   0.917   3.280
 3006SOL     OW 9475   2.721   1.374   1.878
 3006SOL    HW1 9476   2.675   1.389   1.966
 3006SOL    HW2 9477   2.765   1.459   1.848
 3007SOL     OW 9478   2.523   1.790   2.815
 3007SOL    HW1 9479   2.477   1.878   2.802
 3007SOL    HW2 9480   2.622   1.802   2.808
 3008SOL     OW 9481   2.721   0.956   2.723
 3008SOL    HW1 9482   2.775   0.887   2.771
 3008SOL    HW2 9483   2.689   1.025   2.789
 3009SOL     OW 9484   2.945   0.984   1.949
 3009SOL    HW1 9485   2.922   1.037   1.867
 3009SOL    HW2 9486   3.026   0.928   1.930
 3010SOL     OW 9487   3.723   1.569   2.713
 3010SOL    HW1 9488   3.652   1.557   2.643
 3010SOL    HW2 9489   3.724   1.490   2.773
 3011SOL     OW 9490   2.083   1.314   3.706
 3011SOL    HW1 9491   2.018   1.241   3.685
 3011SOL    HW2 9492   2.087   1.328   3.804
 3012SOL     OW 9493   1.941   1.240   2.515
 3012SOL    HW1 9494   1.940   1.193   2.603
 3012SOL    HW2 9495   2.023   1.212   2.464
 3013SOL     OW 9496   2.534   1.391   3.486
 3013SOL    HW1 9497   2.456   1.341   3.524
 3013SOL    HW2 9498   2.531   1.486   3.517
 3014SOL     OW 9499   3.686   0.192   3.089
 3014SOL    HW1 9500   3.682   0.102   3.133
 3014SOL    HW2 9501   3.689   0.181   2.990
 3015SOL     OW 9502   2.290   0.424   2.382
 3015SOL    HW1 9503   2.320   0.352   2.320
 3015SOL    HW2 9504   2.251   0.384   2.465
 3016SOL     OW 9505   3.567   1.487   2.966
 3016SOL    HW1 9506   3.474   1.462   2.939
 3016SOL    HW2 9507   3.593   1.437   3.048
 3017SOL     OW 9508   2.179   0.547   3.142
 3017SOL    HW1 9509   2.217   0.488   3.214
 3017SOL    HW2 9510   2.219   0.521   3.054
 3018SOL     OW 9511   2.674   1.586   2.549
 3018SOL    HW1 9512   2.706   1.596   2.455
 3018SOL    HW2 9513   2.595   1.524   2.551
 3019SOL     OW 9514   3.286   0.214   2.974
 3019SOL    HW1 9515   3.338   0.149   3.029
 3019SOL    HW2 9516   3.237   0.277   3.035
 3020SOL     OW 9517   2.863   0.034   3.016
 3020SOL    HW1 9518   2.800  -0.038   2.985
 3020SOL    HW2 9519   2.956  -0.002   3.016
 3021SOL     OW 9520   2.632   1.330   2.163
 3021SOL    HW1 9521   2.586   1.243   2.180
 3021SOL    HW2 9522   2.723   1.327   2.204
 3022SOL     OW 9523   2.480   1.567   3.146
 3022SOL    HW1 9524   2.475   1.649   3.203
 3022SOL    HW2 9525   2.569   1.564   3.101
 3023SOL     OW 9526   3.214   0.052   2.030
 3023SOL    HW1 9527   3.249   0.011   1.946
 3023SOL    HW2 9528   3.124   0.014   2.050
 3024SOL     OW 9529   3.162   0.453   2.553
 3024SOL    HW1 9530   3.103   0.533   2.557
 3024SOL    HW2 9531   3.177   0.418   2.646
 3025SOL     OW 9532   3.455   0.221   2.744
 3025SOL    HW1 9533   3.371   0.220   2.798
 3025SOL    HW2 9534   3.457   0.304   2.688
 3026SOL     OW 9535   1.901   1.077   2.162
 3026SOL    HW1 9536   2.000   1.066   2.153
 3026SOL    HW2 9537   1.861   0.991   2.194
 3027SOL     OW 9538   2.737   1.646   2.199
 3027SOL    HW1 9539   2.660   1.611   2.145
 3027SOL    HW2 9540   2.705   1.717   2.261
 3028SOL     OW 9541   2.092   0.628   3.837
 3028SOL    HW1 9542   1.999   0.626   3.874
 3028SOL    HW2 9543   2.093   0.589   3.745
 3029SOL     OW 9544   2.087   0.275   4.720
 3029SOL    HW1 9545   2.122   0.258   4.812
 3029SOL    HW2 9546   1.999   0.230   4.708
 3030SOL     OW 9547   1.881   0.368   4.371
 3030SOL    HW1 9548   1.799   0.411   4.410
 3030SOL    HW2 9549   1.853   0.295   4.308
 3031SOL     OW 9550   2.431   1.275   4.889
 3031SOL    HW1 9551   2.338   1.268   4.852
 3031SOL    HW2 9552   2.442   1.364   4.933
 3032SOL     OW 9553   3.417   1.511   4.427
 3032SOL    HW1 9554   3.360   1.495   4.508
 3032SOL    HW2 9555   3.358   1.521   4.347
 3033SOL     OW 9556   2.997   0.703   4.441
 3033SOL    HW1 9557   3.054   0.781   4.416
 3033SOL    HW2 9558   2.937   0.729   4.517
 3034SOL     OW 9559   3.617   0.607   3.955
 3034SOL    HW1 9560   3.605   0.594   3.856
 3034SOL    HW2 9561   3.587   0.526   4.004
 3035SOL     OW 9562   2.630   1.144   4.747
 3035SOL    HW1 9563   2.552   1.161   4.807
 3035SOL    HW2 9564   2.664   1.231   4.711
 3036SOL     OW 9565   2.712   0.798   5.547
 3036SOL    HW1 9566   2.708   0.874   5.612
 3036SOL    HW2 9567   2.734   0.834   5.456
 3037SOL     OW 9568   2.547   1.012   4.389
 3037SOL    HW1 9569   2.616   0.996   4.459
 3037SOL    HW2 9570   2.474   1.069   4.427
 3038SOL     OW 9571   2.548   1.161   5.527
 3038SOL    HW1 9572   2.608   1.240   5.541
 3038SOL    HW2 9573   2.462   1.192   5.486
 3039SOL     OW 9574   2.197   1.435   4.785
 3039SOL    HW1 9575   2.119   1.404   4.732
 3039SOL    HW2 9576   2.255   1.493   4.728
 3040SOL     OW 9577   3.322   1.505   5.063
 3040SOL    HW1 9578   3.346   1.599   5.089
 3040SOL    HW2 9579   3.306   1.451   5.145
 3041SOL     OW 9580   2.300   0.392   5.223
 3041SOL    HW1 9581   2.382   0.336   5.232
 3041SOL    HW2 9582   2.219   0.334   5.227
 3042SOL     OW 9583   3.465   0.447   4.461
 3042SOL    HW1 9584   3.391   0.493   4.411
 3042SOL    HW2 9585   3.516   0.515   4.514
 3043SOL     OW 9586   2.093   1.713   4.207
 3043SOL    HW1 9587   2.127   1.790   4.261
 3043SOL    HW2 9588   2.137   1.713   4.117
 3044SOL     OW 9589   2.989   1.341   5.414
 3044SOL    HW1 9590   3.036   1.341   5.502
 3044SOL    HW2 9591   2.941   1.254   5.403
 3045SOL     OW 9592   2.092   1.434   4.262
 3045SOL    HW1 9593   2.066   1.530   4.262
 3045SOL    HW2 9594   2.021   1.380   4.307
 3046SOL     OW 9595   2.102   1.091   4.610
 3046SOL    HW1 9596   2.116   1.007   4.662
 3046SOL    HW2 9597   2.047   1.155   4.665
 3047SOL     OW 9598   2.482   1.786   5.163
 3047SOL    HW1 9599   2.390   1.769   5.198
 3047SOL    HW2 9600   2.510   1.878   5.189
 3048SOL     OW 9601   2.468   0.964   3.847
 3048SOL    HW1 9602   2.475   1.048   3.793
 3048SOL    HW2 9603   2.514   0.977   3.935
 3049SOL     OW 9604   3.456   0.114   5.204
 3049SOL    HW1 9605   3.438   0.181   5.132
 3049SOL    HW2 9606   3.453   0.160   5.293
 3050SOL     OW 9607   1.984   0.643   4.287
 3050SOL    HW1 9608   1.939   0.555   4.304
 3050SOL    HW2 9609   1.983   0.697   4.371
 3051SOL     OW 9610   3.704   1.767   4.083
 3051SOL    HW1 9611   3.758   1.738   4.163
 3051SOL    HW2 9612   3.734   1.857   4.054
 3052SOL     OW 9613   1.889   1.596   3.841
 3052SOL    HW1 9614   1.870   1.500   3.862
 3052SOL    HW2 9615   1.856   1.654   3.916
 3053SOL     OW 9616   3.551   0.922   4.336
 3053SOL    HW1 9617   3.646   0.893   4.344
 3053SOL    HW2 9618   3.543   0.987   4.261
 3054SOL     OW 9619   3.503   1.108   4.156
 3054SOL    HW1 9620   3.589   1.110   4.104
 3054SOL    HW2 9621   3.517   1.155   4.244
 3055SOL     OW 9622   1.975   0.737   5.321
 3055SOL    HW1 9623   2.063   0.724   5.366
 3055SOL    HW2 9624   1.962   0.834   5.299
 3056SOL     OW 9625   2.475   1.365   4.450
 3056SOL    HW1 9626   2.426   1.278   4.459
 3056SOL    HW2 9627   2.452   1.408   4.363
 3057SOL     OW 9628   3.155   1.228   5.147
 3057SOL    HW1 9629   3.192   1.155   5.089
 3057SOL    HW2 9630   3.207   1.233   5.232
 3058SOL     OW 9631   2.671   0.004   4.226
 3058SOL    HW1 9632   2.711   0.095   4.217
 3058SOL    HW2 9633   2.571   0.012   4.232
 3059SOL     OW 9634   2.059   0.976   4.988
 3059SOL    HW1 9635   2.148   0.931   4.974
 3059SOL    HW2 9636   1.986   0.911   4.969
 3060SOL     OW 9637   3.387   0.999   3.914
 3060SOL    HW1 9638   3.324   0.923   3.927
 3060SOL    HW2 9639   3.435   1.017   4.000
 3061SOL     OW 9640   3.049   1.792   5.340
 3061SOL    HW1 9641   3.073   1.852   5.264
 3061SOL    HW2 9642   3.056   1.697   5.310
 3062SOL     OW 9643   2.179   0.251   5.525
 3062SOL    HW1 9644   2.250   0.322   5.531
 3062SOL    HW2 9645   2.091   0.290   5.553
 3063SOL     OW 9646   3.328   1.417   4.677
 3063SOL    HW1 9647   3.269   1.423   4.757
 3063SOL    HW2 9648   3.313   1.329   4.631
 3064SOL     OW 9649   3.529   1.714   4.296
 3064SOL    HW1 9650   3.488   1.691   4.208
 3064SOL    HW2 9651   3.511   1.640   4.361
 3065SOL     OW 9652   2.460   0.729   3.994
 3065SOL    HW1 9653   2.484   0.798   3.926
 3065SOL    HW2 9654   2.382   0.762   4.048
 3066SOL     OW 9655   3.143   0.345   4.668
 3066SOL    HW1 9656   3.057   0.295   4.655
 3066SOL    HW2 9657   3.205   0.291   4.724
 3067SOL     OW 9658   3.438   1.662   4.031
 3067SOL    HW1 9659   3.527   1.708   4.034
 3067SOL    HW2 9660   3.417   1.638   3.936
 3068SOL     OW 9661   2.669   0.605   5.189
 3068SOL    HW1 9662   2.622   0.602   5.278
 3068SOL    HW2 9663   2.618   0.550   5.123
 3069SOL     OW 9664   3.256   0.469   5.398
 3069SOL    HW1 9665   3.236   0.512   5.486
 3069SOL    HW2 9666   3.334   0.407   5.407
 3070SOL     OW 9667   2.835   0.890   5.296
 3070SOL    HW1 9668   2.881   0.806   5.267
 3070SOL    HW2 9669   2.779   0.924   5.221
 3071SOL     OW 9670   2.853   0.410   4.966
 3071SOL    HW1 9671   2.776   0.444   5.020
 3071SOL    HW2 9672   2.819   0.359   4.887
 3072SOL     OW 9673   2.903   0.701   4.153
 3072SOL    HW1 9674   2.929   0.697   4.249
 3072SOL    HW2 9675   2.818   0.650   4.139
 3073SOL     OW 9676   1.938   0.811   4.513
 3073SOL    HW1 9677   2.037   0.799   4.522
 3073SOL    HW2 9678   1.914   0.906   4.534
 3074SOL     OW 9679   1.992   1.821   5.295
 3074SOL    HW1 9680   1.982   1.806   5.394
 3074SOL    HW2 9681   1.906   1.857   5.259
 3075SOL     OW 9682   2.727   0.348   3.919
 3075SOL    HW1 9683   2.786   0.411   3.870
 3075SOL    HW2 9684   2.746   0.254   3.890
 3076SOL     OW 9685   3.581   0.585   5.555
 3076SOL    HW1 9686   3.555   0.674   5.519
 3076SOL    HW2 9687   3.579   0.517   5.482
 3077SOL     OW 9688   3.224   1.144   4.269
 3077SOL    HW1 9689   3.307   1.115   4.221
 3077SOL    HW2 9690   3.175   1.211   4.213
 3078SOL     OW 9691   2.412   0.196   4.609
 3078SOL    HW1 9692   2.407   0.191   4.709
 3078SOL    HW2 9693   2.414   0.292   4.580
 3079SOL     OW 9694   2.870   1.456   4.201
 3079SOL    HW1 9695   2.824   1.528   4.149
 3079SOL    HW2 9696   2.866   1.476   4.299
 3080SOL     OW 9697   2.213   1.801   4.577
 3080SOL    HW1 9698   2.263   1.715   4.583
 3080SOL    HW2 9699   2.278   1.878   4.574
 3081SOL     OW 9700   3.657   1.066   4.597
 3081SOL    HW1 9701   3.595   1.051   4.521
 3081SOL    HW2 9702   3.605   1.077   4.682
 3082SOL     OW 9703   3.089   1.550   5.230
 3082SOL    HW1 9704   3.095   1.473   5.294
 3082SOL    HW2 9705   3.037   1.524   5.150
 3083SOL     OW 9706   2.183   0.943   3.966
 3083SOL    HW1 9707   2.265   0.982   3.924
 3083SOL    HW2 9708   2.156   0.861   3.917
 3084SOL     OW 9709   3.320   0.735   4.452
 3084SOL    HW1 9710   3.315   0.670   4.527
 3084SOL    HW2 9711   3.400   0.794   4.465
 3085SOL     OW 9712   2.323   1.266   5.451
 3085SOL    HW1 9713   2.273   1.267   5.365
 3085SOL    HW2 9714   2.260   1.248   5.527
 3086SOL     OW 9715   2.973   1.776   3.961
 3086SOL    HW1 9716   2.913   1.714   4.011
 3086SOL    HW2 9717   3.004   1.732   3.876
 3087SOL     OW 9718   2.064   0.285   5.222
 3087SOL    HW1 9719   1.984   0.345   5.209
 3087SOL    HW2 9720   2.054   0.236   5.308
 3088SOL     OW 9721   3.494   1.377   3.805
 3088SOL    HW1 9722   3.462   1.471   3.795
 3088SOL    HW2 9723   3.418   1.314   3.793
 3089SOL     OW 9724   2.326   1.743   4.047
 3089SOL    HW1 9725   2.359   1.782   4.133
 3089SOL    HW2 9726   2.402   1.736   3.982
 3090SOL     OW 9727   3.262   0.107   4.150
 3090SOL    HW1 9728   3.238   0.070   4.060
 3090SOL    HW2 9729   3.361   0.123   4.154
 3091SOL     OW 9730   2.111   1.785   4.965
 3091SOL    HW1 9731   2.168   1.720   5.015
 3091SOL    HW2 9732   2.095   1.752   4.872
 3092SOL     OW 9733   2.802   1.698   4.628
 3092SOL    HW1 9734   2.882   1.641   4.649
 3092SOL    HW2 9735   2.753   1.658   4.551
 3093SOL     OW 9736   2.244   0.700   4.204
 3093SOL    HW1 9737   2.289   0.610   4.201
 3093SOL    HW2 9738   2.150   0.689   4.237
 3094SOL     OW 9739   3.409   0.222   5.453
 3094SOL    HW1 9740   3.404   0.259   5.545
 3094SOL    HW2 9741   3.337   0.153   5.441
 3095SOL     OW 9742   2.476   0.122   3.841
 3095SOL    HW1 9743   2.574   0.100   3.848
 3095SOL    HW2 9744   2.445   0.105   3.748
 3096SOL     OW 9745   2.643   0.264   5.473
 3096SOL    HW1 9746   2.710   0.203   5.516
 3096SOL    HW2 9747   2.570   0.283   5.538
 3097SOL     OW 9748   2.750   1.514   4.919
 3097SOL    HW1 9749   2.727   1.489   4.825
 3097SOL    HW2 9750   2.811   1.445   4.958
 3098SOL     OW 9751   3.213   0.590   5.157
 3098SOL    HW1 9752   3.241   0.547   5.242
 3098SOL    HW2 9753   3.238   0.686   5.158
 3099SOL     OW 9754   2.665   1.402   4.648
 3099SOL    HW1 9755   2.755   1.416   4.606
 3099SOL    HW2 9756   2.594   1.404   4.577
 3100SOL     OW 9757   2.784   0.503   4.623
 3100SOL    HW1 9758   2.759   0.494   4.527
 3100SOL    HW2 9759   2.832   0.421   4.654
 3101SOL     OW 9760   2.401   0.064   4.236
 3101SOL    HW1 9761   2.320   0.065   4.294
 3101SOL    HW2 9762   2.404   0.147   4.181
 3102SOL     OW 9763   3.296   1.188   3.765
 3102SOL    HW1 9764   3.328   1.112   3.822
 3102SOL    HW2 9765   3.204   1.215   3.795
 3103SOL     OW 9766   2.159   0.035   3.895
 3103SOL    HW1 9767   2.208   0.119   3.874
 3103SOL    HW2 9768   2.221  -0.030   3.940
 3104SOL     OW 9769   2.797   0.236   4.204
 3104SOL    HW1 9770   2.749   0.277   4.126
 3104SOL    HW2 9771   2.896   0.234   4.185
 3105SOL     OW 9772   2.938   0.683   5.188
 3105SOL    HW1 9773   2.858   0.622   5.191
 3105SOL    HW2 9774   3.019   0.630   5.164
 3106SOL     OW 9775   3.089   1.570   4.517
 3106SOL    HW1 9776   3.110   1.644   4.452
 3106SOL    HW2 9777   3.157   1.570   4.590
 3107SOL     OW 9778   2.321   1.152   4.465
 3107SOL    HW1 9779   2.250   1.125   4.530
 3107SOL    HW2 9780   2.295   1.124   4.372
 3108SOL     OW 9781   3.133   1.797   4.315
 3108SOL    HW1 9782   3.177   1.861   4.251
 3108SOL    HW2 9783   3.083   1.849   4.385
 3109SOL     OW 9784   2.894   0.549   3.740
 3109SOL    HW1 9785   2.853   0.631   3.701
 3109SOL    HW2 9786   2.958   0.575   3.813
 3110SOL     OW 9787   1.940   0.556   5.110
 3110SOL    HW1 9788   2.032   0.555   5.069
 3110SOL    HW2 9789   1.934   0.630   5.177
 3111SOL     OW 9790   2.423   0.222   4.871
 3111SOL    HW1 9791   2.461   0.138   4.908
 3111SOL    HW2 9792   2.335   0.241   4.915
 3112SOL     OW 9793   2.728   0.454   4.366
 3112SOL    HW1 9794   2.696   0.526   4.304
 3112SOL    HW2 9795   2.752   0.373   4.313
 3113SOL     OW 9796   2.879   0.039   4.477
 3113SOL    HW1 9797   2.807   0.044   4.408
 3113SOL    HW2 9798   2.855  -0.030   4.546
 3114SOL     OW 9799   3.291   1.173   4.591
 3114SOL    HW1 9800   3.236   1.089   4.584
 3114SOL    HW2 9801   3.317   1.202   4.499
 3115SOL     OW 9802   3.328   0.590   4.716
 3115SOL    HW1 9803   3.298   0.495   4.723
 3115SOL    HW2 9804   3.401   0.606   4.782
 3116SOL     OW 9805   3.719   0.833   4.101
 3116SOL    HW1 9806   3.761   0.769   4.165
 3116SOL    HW2 9807   3.681   0.782   4.023
 3117SOL     OW 9808   2.350   1.385   3.898
 3117SOL    HW1 9809   2.263   1.370   3.945
 3117SOL    HW2 9810   2.333   1.411   3.803
 3118SOL     OW 9811   3.526   1.280   4.381
 3118SOL    HW1 9812   3.625   1.288   4.395
 3118SOL    HW2 9813   3.481   1.364   4.412
 3119SOL     OW 9814   3.252   0.575   3.802
 3119SOL    HW1 9815   3.198   0.554   3.883
 3119SOL    HW2 9816   3.343   0.534   3.811
 3120SOL     OW 9817   2.389   0.256   4.052
 3120SOL    HW1 9818   2.416   0.197   3.977
 3120SOL    HW2 9819   2.389   0.351   4.021
 3121SOL     OW 9820   3.616   1.223   5.312
 3121SOL    HW1 9821   3.707   1.184   5.299
 3121SOL    HW2 9822   3.624   1.319   5.336
 3122SOL     OW 9823   2.926   1.347   5.064
 3122SOL    HW1 9824   2.846   1.324   5.119
 3122SOL    HW2 9825   3.009   1.321   5.113
 3123SOL     OW 9826   3.454   1.629   5.349
 3123SOL    HW1 9827   3.481   1.663   5.259
 3123SOL    HW2 9828   3.533   1.591   5.395
 3124SOL     OW 9829   2.973   1.195   4.824
 3124SOL    HW1 9830   2.933   1.239   4.905
 3124SOL    HW2 9831   2.932   1.232   4.741
 3125SOL     OW 9832   3.500   1.099   4.803
 3125SOL    HW1 9833   3.505   1.180   4.862
 3125SOL    HW2 9834   3.414   1.101   4.752
 3126SOL     OW 9835   2.777   0.089   5.126
 3126SOL    HW1 9836   2.802   0.069   5.031
 3126SOL    HW2 9837   2.849   0.145   5.168
 3127SOL     OW 9838   2.842   1.116   5.443
 3127SOL    HW1 9839   2.743   1.122   5.453
 3127SOL    HW2 9840   2.865   1.036   5.387
 3128SOL     OW 9841   2.567   1.050   4.092
 3128SOL    HW1 9842   2.553   1.057   4.191
 3128SOL    HW2 9843   2.651   0.999   4.074
 3129SOL     OW 9844   2.272   0.813   4.975
 3129SOL    HW1 9845   2.358   0.825   5.025
 3129SOL    HW2 9846   2.230   0.726   5.002
 3130SOL     OW 9847   3.136   0.386   4.986
 3130SOL    HW1 9848   3.157   0.460   5.050
 3130SOL    HW2 9849   3.047   0.403   4.943
 3131SOL     OW 9850   1.926   1.564   5.055
 3131SOL    HW1 9851   1.880   1.646   5.021
 3131SOL    HW2 9852   2.024   1.583   5.064
 3132SOL     OW 9853   2.229   1.100   4.225
 3132SOL    HW1 9854   2.222   1.183   4.169
 3132SOL    HW2 9855   2.233   1.020   4.165
 3133SOL     OW 9856   2.428   0.537   4.589
 3133SOL    HW1 9857   2.440   0.603   4.515
 3133SOL    HW2 9858   2.474   0.571   4.672
 3134SOL     OW 9859   3.114   1.348   4.112
 3134SOL    HW1 9860   3.164   1.425   4.152
 3134SOL    HW2 9861   3.019   1.350   4.144
 3135SOL     OW 9862   3.134   1.445   4.866
 3135SOL    HW1 9863   3.181   1.458   4.953
 3135SOL    HW2 9864   3.068   1.371   4.875
 3136SOL     OW 9865   3.444   0.639   4.196
 3136SOL    HW1 9866   3.413   0.700   4.269
 3136SOL    HW2 9867   3.494   0.691   4.127
 3137SOL     OW 9868   2.216   1.510   5.053
 3137SOL    HW1 9869   2.195   1.466   4.966
 3137SOL    HW2 9870   2.313   1.536   5.056
 3138SOL     OW 9871   2.264   0.751   5.322
 3138SOL    HW1 9872   2.332   0.806   5.275
 3138SOL    HW2 9873   2.304   0.663   5.349
 3139SOL     OW 9874   3.449   0.779   5.394
 3139SOL    HW1 9875   3.357   0.817   5.389
 3139SOL    HW2 9876   3.509   0.826   5.329
 3140SOL     OW 9877   2.875   0.105   5.494
 3140SOL    HW1 9878   2.881   0.190   5.442
 3140SOL    HW2 9879   2.907   0.029   5.437
 3141SOL     OW 9880   2.366   0.050   5.464
 3141SOL    HW1 9881   2.324  -0.007   5.394
 3141SOL    HW2 9882   2.300   0.119   5.496
 3142SOL     OW 9883   2.435   0.870   4.753
 3142SOL    HW1 9884   2.479   0.959   4.744
 3142SOL    HW2 9885   2.372   0.870   4.830
 3143SOL     OW 9886   3.222   0.862   4.769
 3143SOL    HW1 9887   3.147   0.862   4.703
 3143SOL    HW2 9888   3.259   0.770   4.778
 3144SOL     OW 9889   3.071   0.525   3.999
 3144SOL    HW1 9890   3.084   0.441   4.053
 3144SOL    HW2 9891   3.042   0.599   4.059
 3145SOL     OW 9892   2.169   0.213   4.955
 3145SOL    HW1 9893   2.146   0.250   5.045
 3145SOL    HW2 9894   2.139   0.118   4.949
 3146SOL     OW 9895   1.899   1.310   5.006
 3146SOL    HW1 9896   1.952   1.261   5.074
 3146SOL    HW2 9897   1.921   1.408   5.011
 3147SOL     OW 9898   2.594   0.634   4.788
 3147SOL    HW1 9899   2.653   0.608   4.712
 3147SOL    HW2 9900   2.566   0.730   4.777
 3148SOL     OW 9901   3.590   0.935   5.578
 3148SOL    HW1 9902   3.544   0.928   5.489
 3148SOL    HW2 9903   3.528   0.979   5.644
 3149SOL     OW 9904   2.169   0.063   4.342
 3149SOL    HW1 9905   2.158   0.157   4.375
 3149SOL    HW2 9906   2.164   0.000   4.419
 3150SOL     OW 9907   3.484   0.367   4.098
 3150SOL    HW1 9908   3.486   0.291   4.162
 3150SOL    HW2 9909   3.436   0.444   4.138
 3151SOL     OW 9910   2.885   0.766   4.690
 3151SOL    HW1 9911   2.900   0.787   4.786
 3151SOL    HW2 9912   2.855   0.671   4.681
 3152SOL     OW 9913   2.842   1.573   5.424
 3152SOL    HW1 9914   2.822   1.617   5.336
 3152SOL    HW2 9915   2.881   1.482   5.408
 3153SOL     OW 9916   3.721   1.518   5.329
 3153SOL    HW1 9917   3.735   1.545   5.234
 3153SOL    HW2 9918   3.804   1.540   5.382
 3154SOL     OW 9919   2.212   0.898   5.528
 3154SOL    HW1 9920   2.288   0.942   5.576
 3154SOL    HW2 9921   2.247   0.851   5.446
 3155SOL     OW 9922   3.402   0.274   3.849
 3155SOL    HW1 9923   3.341   0.199   3.872
 3155SOL    HW2 9924   3.424   0.326   3.932
 3156SOL     OW 9925   3.165   0.838   3.766
 3156SOL    HW1 9926   3.199   0.745   3.781
 3156SOL    HW2 9927   3.183   0.865   3.671
 3157SOL     OW 9928   2.930   1.333   4.573
 3157SOL    HW1 9929   2.937   1.249   4.518
 3157SOL    HW2 9930   2.992   1.402   4.537
 3158SOL     OW 9931   2.181   0.810   4.673
 3158SOL    HW1 9932   2.274   0.846   4.678
 3158SOL    HW2 9933   2.175   0.725   4.725
 3159SOL     OW 9934   2.201   0.509   4.730
 3159SOL    HW1 9935   2.149   0.426   4.713
 3159SOL    HW2 9936   2.278   0.514   4.666
 3160SOL     OW 9937   3.000   0.380   5.402
 3160SOL    HW1 9938   2.955   0.443   5.466
 3160SOL    HW2 9939   3.093   0.411   5.385
 3161SOL     OW 9940   3.022   0.207   5.201
 3161SOL    HW1 9941   3.022   0.271   5.278
 3161SOL    HW2 9942   3.050   0.255   5.118
 3162SOL     OW 9943   1.870   1.326   3.924
 3162SOL    HW1 9944   1.777   1.347   3.893
 3162SOL    HW2 9945   1.880   1.227   3.937
 3163SOL     OW 9946   1.950   1.801   4.651
 3163SOL    HW1 9947   1.908   1.715   4.624
 3163SOL    HW2 9948   2.044   1.804   4.617
 3164SOL     OW 9949   2.366   1.568   4.634
 3164SOL    HW1 9950   2.432   1.642   4.643
 3164SOL    HW2 9951   2.410   1.489   4.592
 3165SOL     OW 9952   2.864   0.796   4.962
 3165SOL    HW1 9953   2.905   0.764   5.048
 3165SOL    HW2 9954   2.768   0.769   4.959
 3166SOL     OW 9955   1.902   0.544   4.838
 3166SOL    HW1 9956   1.987   0.511   4.797
 3166SOL    HW2 9957   1.915   0.559   4.936
 3167SOL     OW 9958   2.051   0.520   5.446
 3167SOL    HW1 9959   2.110   0.480   5.376
 3167SOL    HW2 9960   1.993   0.591   5.405
 3168SOL     OW 9961   3.231   0.950   5.384
 3168SOL    HW1 9962   3.270   1.039   5.404
 3168SOL    HW2 9963   3.241   0.930   5.287
 3169SOL     OW 9964   2.677   0.572   4.049
 3169SOL    HW1 9965   2.684   0.483   4.003
 3169SOL    HW2 9966   2.583   0.606   4.041
 3170SOL     OW 9967   3.519   0.604   4.930
 3170SOL    HW1 9968   3.481   0.535   4.992
 3170SOL    HW2 9969   3.601   0.568   4.886
 3171SOL     OW 9970   2.114   1.564   5.468
 3171SOL    HW1 9971   2.084   1.621   5.544
 3171SOL    HW2 9972   2.107   1.467   5.494
 3172SOL     OW 9973   2.533   0.464   4.993
 3172SOL    HW1 9974   2.499   0.375   4.963
 3172SOL    HW2 9975   2.559   0.518   4.913
 3173SOL     OW 9976   2.792   1.678   5.189
 3173SOL    HW1 9977   2.768   1.660   5.094
 3173SOL    HW2 9978   2.822   1.772   5.199
 3174SOL     OW 9979   2.335   0.500   3.915
 3174SOL    HW1 9980   2.396   0.580   3.919
 3174SOL    HW2 9981   2.240   0.531   3.922
 3175SOL     OW 9982   2.021   1.137   5.190
 3175SOL    HW1 9983   2.043   1.076   5.266
 3175SOL    HW2 9984   2.031   1.088   5.104
 3176SOL     OW 9985   3.209   1.059   4.958
 3176SOL    HW1 9986   3.233   0.996   4.884
 3176SOL    HW2 9987   3.119   1.099   4.940
 3177SOL     OW 9988   3.164   0.855   4.033
 3177SOL    HW1 9989   3.078   0.824   4.075
 3177SOL    HW2 9990   3.160   0.841   3.934
 3178SOL     OW 9991   3.621   1.747   4.878
 3178SOL    HW1 9992   3.682   1.777   4.805
 3178SOL    HW2 9993   3.583   1.658   4.856
 3179SOL     OW 9994   3.114   1.731   4.852
 3179SOL    HW1 9995   3.198   1.736   4.798
 3179SOL    HW2 9996   3.091   1.635   4.870
 3180SOL     OW 9997   1.945   1.258   4.746
 3180SOL    HW1 9998   1.940   1.257   4.846
 3180SOL    HW2 9999   1.862   1.217   4.708
 3181SOL     OW10000   2.550   1.662   5.440
 3181SOL    HW110001   2.494   1.743   5.449
 3181SOL    HW210002   2.602   1.666   5.354
 3182SOL     OW10003   3.588   0.135   4.247
 3182SOL    HW110004   3.661   0.118   4.180
 3182SOL    HW210005   3.557   0.048   4.285
 3183SOL     OW10006   3.250   1.573   4.201
 3183SOL    HW110007   3.317   1.585   4.127
 3183SOL    HW210008   3.210   1.662   4.224
 3184SOL     OW10009   1.992   1.794   5.575
 3184SOL    HW110010   1.951   1.720   5.628
 3184SOL    HW210011   2.056   1.845   5.633
 3185SOL     OW10012   3.142   0.927   4.396
 3185SOL    HW110013   3.202   0.846   4.398
 3185SOL    HW210014   3.182   0.996   4.336
 3186SOL     OW10015   2.692   1.273   5.146
 3186SOL    HW110016   2.687   1.306   5.241
 3186SOL    HW210017   2.606   1.292   5.100
 3187SOL     OW10018   2.534   1.616   3.878
 3187SOL    HW110019   2.543   1.626   3.779
 3187SOL    HW210020   2.494   1.527   3.899
 3188SOL     OW10021   3.512   1.720   5.118
 3188SOL    HW110022   3.565   1.730   5.034
 3188SOL    HW210023   3.485   1.810   5.152
 3189SOL     OW10024   3.703   0.175   4.687
 3189SOL    HW110025   3.742   0.090   4.651
 3189SOL    HW210026   3.605   0.177   4.668
 3190SOL     OW10027   2.125   0.326   4.444
 3190SOL    HW110028   2.046   0.377   4.410
 3190SOL    HW210029   2.116   0.311   4.542
 3191SOL     OW10030   3.056   1.612   3.755
 3191SOL    HW110031   3.062   1.519   3.792
 3191SOL    HW210032   2.997   1.612   3.675
 3192SOL     OW10033   2.684   1.002   5.096
 3192SOL    HW110034   2.724   1.001   5.004
 3192SOL    HW210035   2.694   1.094   5.136
 3193SOL     OW10036   2.778   0.910   4.015
 3193SOL    HW110037   2.841   0.948   3.947
 3193SOL    HW210038   2.818   0.827   4.054
 3194SOL     OW10039   3.366   1.607   3.768
 3194SOL    HW110040   3.274   1.644   3.775
 3194SOL    HW210041   3.404   1.627   3.678
 3195SOL     OW10042   2.234   1.288   5.214
 3195SOL    HW110043   2.221   1.381   5.180
 3195SOL    HW210044   2.150   1.236   5.201
 3196SOL     OW10045   3.476   1.292   5.013
 3196SOL    HW110046   3.536   1.295   5.093
 3196SOL    HW210047   3.401   1.356   5.026
 3197SOL     OW10048   2.901   1.098   4.420
 3197SOL    HW110049   2.831   1.051   4.474
 3197SOL    HW210050   2.960   1.030   4.377
 3198SOL     OW10051   2.876   0.236   4.695
 3198SOL    HW110052   2.868   0.200   4.602
 3198SOL    HW210053   2.874   0.160   4.760
 3199SOL     OW10054   2.452   1.487   4.215
 3199SOL    HW110055   2.494   1.429   4.145
 3199SOL    HW210056   2.408   1.566   4.171
 3200SOL     OW10057   3.571   0.385   5.105
 3200SOL    HW110058   3.644   0.454   5.109
 3200SOL    HW210059   3.599   0.310   5.046
 3201SOL     OW10060   2.117   1.348   4.014
 3201SOL    HW110061   2.021   1.349   3.987
 3201SOL    HW210062   2.129   1.401   4.098
 3202SOL     OW10063   1.967   1.013   5.450
 3202SOL    HW110064   1.890   0.980   5.504
 3202SOL    HW210065   2.052   0.983   5.492
 3203SOL     OW10066   2.534   0.203   5.213
 3203SOL    HW110067   2.624   0.187   5.173
 3203SOL    HW210068   2.542   0.208   5.312
 3204SOL     OW10069   1.937   0.345   3.757
 3204SOL    HW110070   1.845   0.317   3.728
 3204SOL    HW210071   1.968   0.422   3.701
 3205SOL     OW10072   3.302   0.856   5.122
 3205SOL    HW110073   3.245   0.908   5.059
 3205SOL    HW210074   3.398   0.868   5.098
 3206SOL     OW10075   1.934   0.166   4.042
 3206SOL    HW110076   1.917   0.249   3.988
 3206SOL    HW210077   2.024   0.129   4.020
 3207SOL     OW10078   3.045   1.335   3.843
 3207SOL    HW110079   2.946   1.324   3.845
 3207SOL    HW210080   3.079   1.350   3.936
 3208SOL     OW10081   2.475   0.842   5.155
 3208SOL    HW110082   2.531   0.923   5.138
 3208SOL    HW210083   2.534   0.762   5.158
 3209SOL     OW10084   3.355   1.767   4.683
 3209SOL    HW110085   3.388   1.831   4.614
 3209SOL    HW210086   3.421   1.761   4.758
 3210SOL     OW10087   2.578   0.565   5.432
 3210SOL    HW110088   2.597   0.630   5.506
 3210SOL    HW210089   2.638   0.485   5.441
 3211SOL     OW10090   3.312   1.220   5.357
 3211SOL    HW110091   3.303   1.210   5.456
 3211SOL    HW210092   3.408   1.213   5.331
 3212SOL     OW10093   2.252   1.741   5.284
 3212SOL    HW110094   2.161   1.782   5.282
 3212SOL    HW210095   2.245   1.647   5.316
 3213SOL     OW10096   3.536   0.883   4.978
 3213SOL    HW110097   3.509   0.794   4.941
 3213SOL    HW210098   3.537   0.951   4.905
 3214SOL     OW10099   3.087   0.325   4.173
 3214SOL    HW110100   3.152   0.251   4.162
 3214SOL    HW210101   3.107   0.375   4.257
 3215SOL     OW10102   2.456   0.745   4.376
 3215SOL    HW110103   2.506   0.830   4.357
 3215SOL    HW210104   2.368   0.747   4.328
 3216SOL     OW10105   3.639   0.342   5.366
 3216SOL    HW110106   3.622   0.373   5.272
 3216SOL    HW210107   3.555   0.305   5.404
 3217SOL     OW10108   3.592   0.934   5.241
 3217SOL    HW110109   3.630   1.025   5.256
 3217SOL    HW210110   3.584   0.917   5.142
 3218SOL     OW10111   2.721   1.374   3.740
 3218SOL    HW110112   2.675   1.389   3.828
 3218SOL    HW210113   2.765   1.459   3.710
 3219SOL     OW10114   2.523   1.790   4.677
 3219SOL    HW110115   2.477   1.878   4.664
 3219SOL    HW210116   2.622   1.802   4.670
 3220SOL     OW10117   2.721   0.956   4.585
 3220SOL    HW110118   2.775   0.887   4.633
 3220SOL    HW210119   2.689   1.025   4.651
 3221SOL     OW10120   2.945   0.984   3.811
 3221SOL    HW110121   2.922   1.037   3.729
 3221SOL    HW210122   3.026   0.928   3.792
 3222SOL     OW10123   3.723   1.569   4.575
 3222SOL    HW110124   3.652   1.557   4.505
 3222SOL    HW210125   3.724   1.490   4.635
 3223SOL     OW10126   2.083   1.314   5.568
 3223SOL    HW110127   2.018   1.241   5.547
 3223SOL    HW210128   2.087   1.328   5.666
 3224SOL     OW10129   1.941   1.240   4.377
 3224SOL    HW110130   1.940   1.193   4.465
 3224SOL    HW210131   2.023   1.212   4.326
 3225SOL     OW10132   2.534   1.391   5.348
 3225SOL    HW110133   2.456   1.341   5.386
 3225SOL    HW210134   2.531   1.486   5.379
 3226SOL     OW10135   3.686   0.192   4.951
 3226SOL    HW110136   3.682   0.102   4.995
 3226SOL    HW210137   3.689   0.181   4.852
 3227SOL     OW10138   2.290   0.424   4.244
 3227SOL    HW110139   2.320   0.352   4.182
 3227SOL    HW210140   2.251   0.384   4.327
 3228SOL     OW10141   3.567   1.487   4.828
 3228SOL    HW110142   3.474   1.462   4.801
 3228SOL    HW210143   3.593   1.437   4.910
 3229SOL     OW10144   2.179   0.547   5.004
 3229SOL    HW110145   2.217   0.488   5.076
 3229SOL    HW210146   2.219   0.521   4.916
 3230SOL     OW10147   2.674   1.586   4.411
 3230SOL    HW110148   2.706   1.596   4.317
 3230SOL    HW210149   2.595   1.524   4.413
 3231SOL     OW10150   3.286   0.214   4.836
 3231SOL    HW110151   3.338   0.149   4.891
 3231SOL    HW210152   3.237   0.277   4.897
 3232SOL     OW10153   2.863   0.034   4.878
 3232SOL    HW110154   2.800  -0.038   4.847
 3232SOL    HW210155   2.956  -0.002   4.878
 3233SOL     OW10156   2.632   1.330   4.025
 3233SOL    HW110157   2.586   1.243   4.042
 3233SOL    HW210158   2.723   1.327   4.066
 3234SOL     OW10159   2.480   1.567   5.008
 3234SOL    HW110160   2.475   1.649   5.065
 3234SOL    HW210161   2.569   1.564   4.963
 3235SOL     OW10162   3.214   0.052   3.892
 3235SOL    HW110163   3.249   0.011   3.808
 3235SOL    HW210164   3.124   0.014   3.912
 3236SOL     OW10165   3.162   0.453   4.415
 3236SOL    HW110166   3.103   0.533   4.419
 3236SOL    HW210167   3.177   0.418   4.508
 3237SOL     OW10168   3.455   0.221   4.606
 3237SOL    HW110169   3.371   0.220   4.660
 3237SOL    HW210170   3.457   0.304   4.550
 3238SOL     OW10171   1.901   1.077   4.024
 3238SOL    HW110172   2.000   1.066   4.015
 3238SOL    HW210173   1.861   0.991   4.056
 3239SOL     OW10174   2.737   1.646   4.061
 3239SOL    HW110175   2.660   1.611   4.007
 3239SOL    HW210176   2.705   1.717   4.123
 3240SOL     OW10177   2.092   0.628   5.699
 3240SOL    HW110178   1.999   0.626   5.736
 3240SOL    HW210179   2.093   0.589   5.607
 3241SOL     OW10180   2.087   0.275   6.582
 3241SOL    HW110181   2.122   0.258   6.674
 3241SOL    HW210182   1.999   0.230   6.570
 3242SOL     OW10183   1.881   0.368   6.233
 3242SOL    HW110184   1.799   0.411   6.272
 3242SOL    HW210185   1.853   0.295   6.170
 3243SOL     OW10186   2.431   1.275   6.751
 3243SOL    HW110187   2.338   1.268   6.714
 3243SOL    HW210188   2.442   1.364   6.795
 3244SOL     OW10189   3.417   1.511   6.289
 3244SOL    HW110190   3.360   1.495   6.370
 3244SOL    HW210191   3.358   1.521   6.209
 3245SOL     OW10192   2.997   0.703   6.303
 3245SOL    HW110193   3.054   0.781   6.278
 3245SOL    HW210194   2.937   0.729   6.379
 3246SOL     OW10195   3.617   0.607   5.817
 3246SOL    HW110196   3.605   0.594   5.718
 3246SOL    HW210197   3.587   0.526   5.866
 3247SOL     OW10198   2.630   1.144   6.609
 3247SOL    HW110199   2.552   1.161   6.669
 3247SOL    HW210200   2.664   1.231   6.573
 3248SOL     OW10201   2.712   0.798   7.409
 3248SOL    HW110202   2.708   0.874   7.474
 3248SOL    HW210203   2.734   0.834   7.318
 3249SOL     OW10204   2.547   1.012   6.251
 3249SOL    HW110205   2.616   0.996   6.321
 3249SOL    HW210206   2.474   1.069   6.289
 3250SOL     OW10207   2.548   1.161   7.389
 3250SOL    HW110208   2.608   1.240   7.403
 3250SOL    HW210209   2.462   1.192   7.348
 3251SOL     OW10210   2.197   1.435   6.647
 3251SOL    HW110211   2.119   1.404   6.594
 3251SOL    HW210212   2.255   1.493   6.590
 3252SOL     OW10213   3.322   1.505   6.925
 3252SOL    HW110214   3.346   1.599   6.951
 3252SOL    HW210215   3.306   1.451   7.007
 3253SOL     OW10216   2.300   0.392   7.085
 3253SOL    HW110217   2.382   0.336   7.094
 3253SOL    HW210218   2.219   0.334   7.089
 3254SOL     OW10219   3.465   0.447   6.323
 3254SOL    HW110220   3.391   0.493   6.273
 3254SOL    HW210221   3.516   0.515   6.376
 3255SOL     OW10222   2.093   1.713   6.069
 3255SOL    HW110223   2.127   1.790   6.123
 3255SOL    HW210224   2.137   1.713   5.979
 3256SOL     OW10225   2.989   1.341   7.276
 3256SOL    HW110226   3.036   1.341   7.364
 3256SOL    HW210227   2.941   1.254   7.265
 3257SOL     OW10228   2.092   1.434   6.124
 3257SOL    HW110229   2.066   1.530   6.124
 3257SOL    HW210230   2.021   1.380   6.169
 3258SOL     OW10231   2.102   1.091   6.472
 3258SOL    HW110232   2.116   1.007   6.524
 3258SOL    HW210233   2.047   1.155   6.527
 3259SOL     OW10234   2.482   1.786   7.025
 3259SOL    HW110235   2.390   1.769   7.060
 3259SOL    HW210236   2.510   1.878   7.051
 3260SOL     OW10237   2.468   0.964   5.709
 3260SOL    HW110238   2.475   1.048   5.655
 3260SOL    HW210239   2.514   0.977   5.797
 3261SOL     OW10240   3.456   0.114   7.066
 3261SOL    HW110241   3.438   0.181   6.994
 3261SOL    HW210242   3.453   0.160   7.155
 3262SOL     OW10243   1.984   0.643   6.149
 3262SOL    HW110244   1.939   0.555   6.166
 3262SOL    HW210245   1.983   0.697   6.233
 3263SOL     OW10246   3.704   1.767   5.945
 3263SOL    HW110247   3.758   1.738   6.025
 3263SOL    HW210248   3.734   1.857   5.916
 3264SOL     OW10249   1.889   1.596   5.703
 3264SOL    HW110250   1.870   1.500   5.724
 3264SOL    HW210251   1.856   1.654   5.778
 3265SOL     OW10252   3.551   0.922   6.198
 3265SOL    HW110253   3.646   0.893   6.206
 3265SOL    HW210254   3.543   0.987   6.123
 3266SOL     OW10255   3.503   1.108   6.018
 3266SOL    HW110256   3.589   1.110   5.966
 3266SOL    HW210257   3.517   1.155   6.106
 3267SOL     OW10258   1.975   0.737   7.183
 3267SOL    HW110259   2.063   0.724   7.228
 3267SOL    HW210260   1.962   0.834   7.161
 3268SOL     OW10261   2.475   1.365   6.312
 3268SOL    HW110262   2.426   1.278   6.321
 3268SOL    HW210263   2.452   1.408   6.225
 3269SOL     OW10264   3.155   1.228   7.009
 3269SOL    HW110265   3.192   1.155   6.951
 3269SOL    HW210266   3.207   1.233   7.094
 3270SOL     OW10267   2.671   0.004   6.088
 3270SOL    HW110268   2.711   0.095   6.079
 3270SOL    HW210269   2.571   0.012   6.094
 3271SOL     OW10270   2.059   0.976   6.850
 3271SOL    HW110271   2.148   0.931   6.836
 3271SOL    HW210272   1.986   0.911   6.831
 3272SOL     OW10273   3.387   0.999   5.776
 3272SOL    HW110274   3.324   0.923   5.789
 3272SOL    HW210275   3.435   1.017   5.862
 3273SOL     OW10276   3.049   1.792   7.202
 3273SOL    HW110277   3.073   1.852   7.126
 3273SOL    HW210278   3.056   1.697   7.172
 3274SOL     OW10279   2.179   0.251   7.387
 3274SOL    HW110280   2.250   0.322   7.393
 3274SOL    HW210281   2.091   0.290   7.415
 3275SOL     OW10282   3.328   1.417   6.539
 3275SOL    HW110283   3.269   1.423   6.619
 3275SOL    HW210284   3.313   1.329   6.493
 3276SOL     OW10285   3.529   1.714   6.158
 3276SOL    HW110286   3.488   1.691   6.070
 3276SOL    HW210287   3.511   1.640   6.223
 3277SOL     OW10288   2.460   0.729   5.856
 3277SOL    HW110289   2.484   0.798   5.788
 3277SOL    HW210290   2.382   0.762   5.910
 3278SOL     OW10291   3.143   0.345   6.530
 3278SOL    HW110292   3.057   0.295   6.517
 3278SOL    HW210293   3.205   0.291   6.586
 3279SOL     OW10294   3.438   1.662   5.893
 3279SOL    HW110295   3.527   1.708   5.896
 3279SOL    HW210296   3.417   1.638   5.798
 3280SOL     OW10297   2.669   0.605   7.051
 3280SOL    HW110298   2.622   0.602   7.140
 3280SOL    HW210299   2.618   0.550   6.985
 3281SOL     OW10300   3.256   0.469   7.260
 3281SOL    HW110301   3.236   0.512   7.348
 3281SOL    HW210302   3.334   0.407   7.269
 3282SOL     OW10303   2.835   0.890   7.158
 3282SOL    HW110304   2.881   0.806   7.129
 3282SOL    HW210305   2.779   0.924   7.083
 3283SOL     OW10306   2.853   0.410   6.828
 3283SOL    HW110307   2.776   0.444   6.882
 3283SOL    HW210308   2.819   0.359   6.749
 3284SOL     OW10309   2.903   0.701   6.015
 3284SOL    HW110310   2.929   0.697   6.111
 3284SOL    HW210311   2.818   0.650   6.001
 3285SOL     OW10312   1.938   0.811   6.375
 3285SOL    HW110313   2.037   0.799   6.384
 3285SOL    HW210314   1.914   0.906   6.396
 3286SOL     OW10315   1.992   1.821   7.157
 3286SOL    HW110316   1.982   1.806   7.256
 3286SOL    HW210317   1.906   1.857   7.121
 3287SOL     OW10318   2.727   0.348   5.781
 3287SOL    HW110319   2.786   0.411   5.732
 3287SOL    HW210320   2.746   0.254   5.752
 3288SOL     OW10321   3.581   0.585   7.417
 3288SOL    HW110322   3.555   0.674   7.381
 3288SOL    HW210323   3.579   0.517   7.344
 3289SOL     OW10324   3.224   1.144   6.131
 3289SOL    HW110325   3.307   1.115   6.083
 3289SOL    HW210326   3.175   1.211   6.075
 3290SOL     OW10327   2.412   0.196   6.471
 3290SOL    HW110328   2.407   0.191   6.571
 3290SOL    HW210329   2.414   0.292   6.442
 3291SOL     OW10330   2.870   1.456   6.063
 3291SOL    HW110331   2.824   1.528   6.011
 3291SOL    HW210332   2.866   1.476   6.161
 3292SOL     OW10333   2.213   1.801   6.439
 3292SOL    HW110334   2.263   1.715   6.445
 3292SOL    HW210335   2.278   1.878   6.436
 3293SOL     OW10336   3.657   1.066   6.459
 3293SOL    HW110337   3.595   1.051   6.383
 3293SOL    HW210338   3.605   1.077   6.544
 3294SOL     OW10339   3.089   1.550   7.092
 3294SOL    HW110340   3.095   1.473   7.156
 3294SOL    HW210341   3.037   1.524   7.012
 3295SOL     OW10342   2.183   0.943   5.828
 3295SOL    HW110343   2.265   0.982   5.786
 3295SOL    HW210344   2.156   0.861   5.779
 3296SOL     OW10345   3.320   0.735   6.314
 3296SOL    HW110346   3.315   0.670   6.389
 3296SOL    HW210347   3.400   0.794   6.327
 3297SOL     OW10348   2.323   1.266   7.313
 3297SOL    HW110349   2.273   1.267   7.227
 3297SOL    HW210350   2.260   1.248   7.389
 3298SOL     OW10351   2.973   1.776   5.823
 3298SOL    HW110352   2.913   1.714   5.873
 3298SOL    HW210353   3.004   1.732   5.738
 3299SOL     OW10354   2.064   0.285   7.084
 3299SOL    HW110355   1.984   0.345   7.071
 3299SOL    HW210356   2.054   0.236   7.170
 3300SOL     OW10357   3.494   1.377   5.667
 3300SOL    HW110358   3.462   1.471   5.657
 3300SOL    HW210359   3.418   1.314   5.655
 3301SOL     OW10360   2.326   1.743   5.909
 3301SOL    HW110361   2.359   1.782   5.995
 3301SOL    HW210362   2.402   1.736   5.844
 3302SOL     OW10363   3.262   0.107   6.012
 3302SOL    HW110364   3.238   0.070   5.922
 3302SOL    HW210365   3.361   0.123   6.016
 3303SOL     OW10366   2.111   1.785   6.827
 3303SOL    HW110367   2.168   1.720   6.877
 3303SOL    HW210368   2.095   1.752   6.734
 3304SOL     OW10369   2.802   1.698   6.490
 3304SOL    HW110370   2.882   1.641   6.511
 3304SOL    HW210371   2.753   1.658   6.413
 3305SOL     OW10372   2.244   0.700   6.066
 3305SOL    HW110373   2.289   0.610   6.063
 3305SOL    HW210374   2.150   0.689   6.099
 3306SOL     OW10375   3.409   0.222   7.315
 3306SOL    HW110376   3.404   0.259   7.407
 3306SOL    HW210377   3.337   0.153   7.303
 3307SOL     OW10378   2.476   0.122   5.703
 3307SOL    HW110379   2.574   0.100   5.710
 3307SOL    HW210380   2.445   0.105   5.610
 3308SOL     OW10381   2.643   0.264   7.335
 3308SOL    HW110382   2.710   0.203   7.378
 3308SOL    HW210383   2.570   0.283   7.400
 3309SOL     OW10384   2.750   1.514   6.781
 3309SOL    HW110385   2.727   1.489   6.687
 3309SOL    HW210386   2.811   1.445   6.820
 3310SOL     OW10387   3.213   0.590   7.019
 3310SOL    HW110388   3.241   0.547   7.104
 3310SOL    HW210389   3.238   0.686   7.020
 3311SOL     OW10390   2.665   1.402   6.510
 3311SOL    HW110391   2.755   1.416   6.468
 3311SOL    HW210392   2.594   1.404   6.439
 3312SOL     OW10393   2.784   0.503   6.485
 3312SOL    HW110394   2.759   0.494   6.389
 3312SOL    HW210395   2.832   0.421   6.516
 3313SOL     OW10396   2.401   0.064   6.098
 3313SOL    HW110397   2.320   0.065   6.156
 3313SOL    HW210398   2.404   0.147   6.043
 3314SOL     OW10399   3.296   1.188   5.627
 3314SOL    HW110400   3.328   1.112   5.684
 3314SOL    HW210401   3.204   1.215   5.657
 3315SOL     OW10402   2.159   0.035   5.757
 3315SOL    HW110403   2.208   0.119   5.736
 3315SOL    HW210404   2.221  -0.030   5.802
 3316SOL     OW10405   2.797   0.236   6.066
 3316SOL    HW110406   2.749   0.277   5.988
 3316SOL    HW210407   2.896   0.234   6.047
 3317SOL     OW10408   2.938   0.683   7.050
 3317SOL    HW110409   2.858   0.622   7.053
 3317SOL    HW210410   3.019   0.630   7.026
 3318SOL     OW10411   3.089   1.570   6.379
 3318SOL    HW110412   3.110   1.644   6.314
 3318SOL    HW210413   3.157   1.570   6.452
 3319SOL     OW10414   2.321   1.152   6.327
 3319SOL    HW110415   2.250   1.125   6.392
 3319SOL    HW210416   2.295   1.124   6.234
 3320SOL     OW10417   3.133   1.797   6.177
 3320SOL    HW110418   3.177   1.861   6.113
 3320SOL    HW210419   3.083   1.849   6.247
 3321SOL     OW10420   2.894   0.549   5.602
 3321SOL    HW110421   2.853   0.631   5.563
 3321SOL    HW210422   2.958   0.575   5.675
 3322SOL     OW10423   1.940   0.556   6.972
 3322SOL    HW110424   2.032   0.555   6.931
 3322SOL    HW210425   1.934   0.630   7.039
 3323SOL     OW10426   2.423   0.222   6.733
 3323SOL    HW110427   2.461   0.138   6.770
 3323SOL    HW210428   2.335   0.241   6.777
 3324SOL     OW10429   2.728   0.454   6.228
 3324SOL    HW110430   2.696   0.526   6.166
 3324SOL    HW210431   2.752   0.373   6.175
 3325SOL     OW10432   2.879   0.039   6.339
 3325SOL    HW110433   2.807   0.044   6.270
 3325SOL    HW210434   2.855  -0.030   6.408
 3326SOL     OW10435   3.291   1.173   6.453
 3326SOL    HW110436   3.236   1.089   6.446
 3326SOL    HW210437   3.317   1.202   6.361
 3327SOL     OW10438   3.328   0.590   6.578
 3327SOL    HW110439   3.298   0.495   6.585
 3327SOL    HW210440   3.401   0.606   6.644
 3328SOL     OW10441   3.719   0.833   5.963
 3328SOL    HW110442   3.761   0.769   6.027
 3328SOL    HW210443   3.681   0.782   5.885
 3329SOL     OW10444   2.350   1.385   5.760
 3329SOL    HW110445   2.263   1.370   5.807
 3329SOL    HW210446   2.333   1.411   5.665
 3330SOL     OW10447   3.526   1.280   6.243
 3330SOL    HW110448   3.625   1.288   6.257
 3330SOL    HW210449   3.481   1.364   6.274
 3331SOL     OW10450   3.252   0.575   5.664
 3331SOL    HW110451   3.198   0.554   5.745
 3331SOL    HW210452   3.343   0.534   5.673
 3332SOL     OW10453   2.389   0.256   5.914
 3332SOL    HW110454   2.416   0.197   5.839
 3332SOL    HW210455   2.389   0.351   5.883
 3333SOL     OW10456   3.616   1.223   7.174
 3333SOL    HW110457   3.707   1.184   7.161
 3333SOL    HW210458   3.624   1.319   7.198
 3334SOL     OW10459   2.926   1.347   6.926
 3334SOL    HW110460   2.846   1.324   6.981
 3334SOL    HW210461   3.009   1.321   6.975
 3335SOL     OW10462   3.454   1.629   7.211
 3335SOL    HW110463   3.481   1.663   7.121
 3335SOL    HW210464   3.533   1.591   7.257
 3336SOL     OW10465   2.973   1.195   6.686
 3336SOL    HW110466   2.933   1.239   6.767
 3336SOL    HW210467   2.932   1.232   6.603
 3337SOL     OW10468   3.500   1.099   6.665
 3337SOL    HW110469   3.505   1.180   6.724
 3337SOL    HW210470   3.414   1.101   6.614
 3338SOL     OW10471   2.777   0.089   6.988
 3338SOL    HW110472   2.802   0.069   6.893
 3338SOL    HW210473   2.849   0.145   7.030
 3339SOL     OW10474   2.842   1.116   7.305
 3339SOL    HW110475   2.743   1.122   7.315
 3339SOL    HW210476   2.865   1.036   7.249
 3340SOL     OW10477   2.567   1.050   5.954
 3340SOL    HW110478   2.553   1.057   6.053
 3340SOL    HW210479   2.651   0.999   5.936
 3341SOL     OW10480   2.272   0.813   6.837
 3341SOL    HW110481   2.358   0.825   6.887
 3341SOL    HW210482   2.230   0.726   6.864
 3342SOL     OW10483   3.136   0.386   6.848
 3342SOL    HW110484   3.157   0.460   6.912
 3342SOL    HW210485   3.047   0.403   6.805
 3343SOL     OW10486   1.926   1.564   6.917
 3343SOL    HW110487   1.880   1.646   6.883
 3343SOL    HW210488   2.024   1.583   6.926
 3344SOL     OW10489   2.229   1.100   6.087
 3344SOL    HW110490   2.222   1.183   6.031
 3344SOL    HW210491   2.233   1.020   6.027
 3345SOL     OW10492   2.428   0.537   6.451
 3345SOL    HW110493   2.440   0.603   6.377
 3345SOL    HW210494   2.474   0.571   6.534
 3346SOL     OW10495   3.114   1.348   5.974
 3346SOL    HW110496   3.164   1.425   6.014
 3346SOL    HW210497   3.019   1.350   6.006
 3347SOL     OW10498   3.134   1.445   6.728
 3347SOL    HW110499   3.181   1.458   6.815
 3347SOL    HW210500   3.068   1.371   6.737
 3348SOL     OW10501   3.444   0.639   6.058
 3348SOL    HW110502   3.413   0.700   6.131
 3348SOL    HW210503   3.494   0.691   5.989
 3349SOL     OW10504   2.216   1.510   6.915
 3349SOL    HW110505   2.195   1.466   6.828
 3349SOL    HW210506   2.313   1.536   6.918
 3350SOL     OW10507   2.264   0.751   7.184
 3350SOL    HW110508   2.332   0.806   7.137
 3350SOL    HW210509   2.304   0.663   7.211
 3351SOL     OW10510   3.449   0.779   7.256
 3351SOL    HW110511   3.357   0.817   7.251
 3351SOL    HW210512   3.509   0.826   7.191
 3352SOL     OW10513   2.875   0.105   7.356
 3352SOL    HW110514   2.881   0.190   7.304
 3352SOL    HW210515   2.907   0.029   7.299
 3353SOL     OW10516   2.366   0.050   7.326
 3353SOL    HW110517   2.324  -0.007   7.256
 3353SOL    HW210518   2.300   0.119   7.358
 3354SOL     OW10519   2.435   0.870   6.615
 3354SOL    HW110520   2.479   0.959   6.606
 3354SOL    HW210521   2.372   0.870   6.692
 3355SOL     OW10522   3.222   0.862   6.631
 3355SOL    HW110523   3.147   0.862   6.565
 3355SOL    HW210524   3.259   0.770   6.640
 3356SOL     OW10525   3.071   0.525   5.861
 3356SOL    HW110526   3.084   0.441   5.915
 3356SOL    HW210527   3.042   0.599   5.921
 3357SOL     OW10528   2.169   0.213   6.817
 3357SOL    HW110529   2.146   0.250   6.907
 3357SOL    HW210530   2.139   0.118   6.811
 3358SOL     OW10531   1.899   1.310   6.868
 3358SOL    HW110532   1.952   1.261   6.936
 3358SOL    HW210533   1.921   1.408   6.873
 3359SOL     OW10534   2.594   0.634   6.650
 3359SOL    HW110535   2.653   0.608   6.574
 3359SOL    HW210536   2.566   0.730   6.639
 3360SOL     OW10537   3.590   0.935   7.440
 3360SOL    HW110538   3.544   0.928   7.351
 3360SOL    HW210539   3.528   0.979   7.506
 3361SOL     OW10540   2.169   0.063   6.204
 3361SOL    HW110541   2.158   0.157   6.237
 3361SOL    HW210542   2.164   0.000   6.281
 3362SOL     OW10543   3.484   0.367   5.960
 3362SOL    HW110544   3.486   0.291   6.024
 3362SOL    HW210545   3.436   0.444   6.000
 3363SOL     OW10546   2.885   0.766   6.552
 3363SOL    HW110547   2.900   0.787   6.648
 3363SOL    HW210548   2.855   0.671   6.543
 3364SOL     OW10549   2.842   1.573   7.286
 3364SOL    HW110550   2.822   1.617   7.198
 3364SOL    HW210551   2.881   1.482   7.270
 3365SOL     OW10552   3.721   1.518   7.191
 3365SOL    HW110553   3.735   1.545   7.096
 3365SOL    HW210554   3.804   1.540   7.244
 3366SOL     OW10555   2.212   0.898   7.390
 3366SOL    HW110556   2.288   0.942   7.438
 3366SOL    HW210557   2.247   0.851   7.308
 3367SOL     OW10558   3.402   0.274   5.711
 3367SOL    HW110559   3.341   0.199   5.734
 3367SOL    HW210560   3.424   0.326   5.794
 3368SOL     OW10561   3.165   0.838   5.628
 3368SOL    HW110562   3.199   0.745   5.643
 3368SOL    HW210563   3.183   0.865   5.533
 3369SOL     OW10564   2.930   1.333   6.435
 3369SOL    HW110565   2.937   1.249   6.380
 3369SOL    HW210566   2.992   1.402   6.399
 3370SOL     OW10567   2.181   0.810   6.535
 3370SOL    HW110568   2.274   0.846   6.540
 3370SOL    HW210569   2.175   0.725   6.587
 3371SOL     OW10570   2.201   0.509   6.592
 3371SOL    HW110571   2.149   0.426   6.575
 3371SOL    HW210572   2.278   0.514   6.528
 3372SOL     OW10573   3.000   0.380   7.264
 3372SOL    HW110574   2.955   0.443   7.328
 3372SOL    HW210575   3.093   0.411   7.247
 3373SOL     OW10576   3.022   0.207   7.063
 3373SOL    HW110577   3.022   0.271   7.140
 3373SOL    HW210578   3.050   0.255   6.980
 3374SOL     OW10579   1.870   1.326   5.786
 3374SOL    HW110580   1.777   1.347   5.755
 3374SOL    HW210581   1.880   1.227   5.799
 3375SOL     OW10582   1.950   1.801   6.513
 3375SOL    HW110583   1.908   1.715   6.486
 3375SOL    HW210584   2.044   1.804   6.479
 3376SOL     OW10585   2.366   1.568   6.496
 3376SOL    HW110586   2.432   1.642   6.505
 3376SOL    HW210587   2.410   1.489   6.454
 3377SOL     OW10588   2.864   0.796   6.824
 3377SOL    HW110589   2.905   0.764   6.910
 3377SOL    HW210590   2.768   0.769   6.821
 3378SOL     OW10591   1.902   0.544   6.700
 3378SOL    HW110592   1.987   0.511   6.659
 3378SOL    HW210593   1.915   0.559   6.798
 3379SOL     OW10594   2.051   0.520   7.308
 3379SOL    HW110595   2.110   0.480   7.238
 3379SOL    HW210596   1.993   0.591   7.267
 3380SOL     OW10597   3.231   0.950   7.246
 3380SOL    HW110598   3.270   1.039   7.266
 3380SOL    HW210599   3.241   0.930   7.149
 3381SOL     OW10600   2.677   0.572   5.911
 3381SOL    HW110601   2.684   0.483   5.865
 3381SOL    HW210602   2.583   0.606   5.903
 3382SOL     OW10603   3.519   0.604   6.792
 3382SOL    HW110604   3.481   0.535   6.854
 3382SOL    HW210605   3.601   0.568   6.748
 3383SOL     OW10606   2.114   1.564   7.330
 3383SOL    HW110607   2.084   1.621   7.406
 3383SOL    HW210608   2.107   1.467   7.356
 3384SOL     OW10609   2.533   0.464   6.855
 3384SOL    HW110610   2.499   0.375   6.825
 3384SOL    HW210611   2.559   0.518   6.775
 3385SOL     OW10612   2.792   1.678   7.051
 3385SOL    HW110613   2.768   1.660   6.956
 3385SOL    HW210614   2.822   1.772   7.061
 3386SOL     OW10615   2.335   0.500   5.777
 3386SOL    HW110616   2.396   0.580   5.781
 3386SOL    HW210617   2.240   0.531   5.784
 3387SOL     OW10618   2.021   1.137   7.052
 3387SOL    HW110619   2.043   1.076   7.128
 3387SOL    HW210620   2.031   1.088   6.966
 3388SOL     OW10621   3.209   1.059   6.820
 3388SOL    HW110622   3.233   0.996   6.746
 3388SOL    HW210623   3.119   1.099   6.802
 3389SOL     OW10624   3.164   0.855   5.895
 3389SOL    HW110625   3.078   0.824   5.937
 3389SOL    HW210626   3.160   0.841   5.796
 3390SOL     OW10627   3.621   1.747   6.740
 3390SOL    HW110628   3.682   1.777   6.667
 3390SOL    HW210629   3.583   1.658   6.718
 3391SOL     OW10630   3.114   1.731   6.714
 3391SOL    HW110631   3.198   1.736   6.660
 3391SOL    HW210632   3.091   1.635   6.732
 3392SOL     OW10633   1.945   1.258   6.608
 3392SOL    HW110634   1.940   1.257   6.708
 3392SOL    HW210635   1.862   1.217   6.570
 3393SOL     OW10636   2.550   1.662   7.302
 3393SOL    HW110637   2.494   1.743   7.311
 3393SOL    HW210638   2.602   1.666   7.216
 3394SOL     OW10639   3.588   0.135   6.109
 3394SOL    HW110640   3.661   0.118   6.042
 3394SOL    HW210641   3.557   0.048   6.147
 3395SOL     OW10642   3.250   1.573   6.063
 3395SOL    HW110643   3.317   1.585   5.989
 3395SOL    HW210644   3.210   1.662   6.086
 3396SOL     OW10645   1.992   1.794   7.437
 3396SOL    HW110646   1.951   1.720   7.490
 3396SOL    HW210647   2.056   1.845   7.495
 3397SOL     OW10648   3.142   0.927   6.258
 3397SOL    HW110649   3.202   0.846   6.260
 3397SOL    HW210650   3.182   0.996   6.198
 3398SOL     OW10651   2.692   1.273   7.008
 3398SOL    HW110652   2.687   1.306   7.103
 3398SOL    HW210653   2.606   1.292   6.962
 3399SOL     OW10654   2.534   1.616   5.740
 3399SOL    HW110655   2.543   1.626   5.641
 3399SOL    HW210656   2.494   1.527   5.761
 3400SOL     OW10657   3.512   1.720   6.980
 3400SOL    HW110658   3.565   1.730   6.896
 3400SOL    HW210659   3.485   1.810   7.014
 3401SOL     OW10660   3.703   0.175   6.549
 3401SOL    HW110661   3.742   0.090   6.513
 3401SOL    HW210662   3.605   0.177   6.530
 3402SOL     OW10663   2.125   0.326   6.306
 3402SOL    HW110664   2.046   0.377   6.272
 3402SOL    HW210665   2.116   0.311   6.404
 3403SOL     OW10666   3.056   1.612   5.617
 3403SOL    HW110667   3.062   1.519   5.654
 3403SOL    HW210668   2.997   1.612   5.537
 3404SOL     OW10669   2.684   1.002   6.958
 3404SOL    HW110670   2.724   1.001   6.866
 3404SOL    HW210671   2.694   1.094   6.998
 3405SOL     OW10672   2.778   0.910   5.877
 3405SOL    HW110673   2.841   0.948   5.809
 3405SOL    HW210674   2.818   0.827   5.916
 3406SOL     OW10675   3.366   1.607   5.630
 3406SOL    HW110676   3.274   1.644   5.637
 3406SOL    HW210677   3.404   1.627   5.540
 3407SOL     OW10678   2.234   1.288   7.076
 3407SOL    HW110679   2.221   1.381   7.042
 3407SOL    HW210680   2.150   1.236   7.063
 3408SOL     OW10681   3.476   1.292   6.875
 3408SOL    HW110682   3.536   1.295   6.955
 3408SOL    HW210683   3.401   1.356   6.888
 3409SOL     OW10684   2.901   1.098   6.282
 3409SOL    HW110685   2.831   1.051   6.336
 3409SOL    HW210686   2.960   1.030   6.239
 3410SOL     OW10687   2.876   0.236   6.557
 3410SOL    HW110688   2.868   0.200   6.464
 3410SOL    HW210689   2.874   0.160   6.622
 3411SOL     OW10690   2.452   1.487   6.077
 3411SOL    HW110691   2.494   1.429   6.007
 3411SOL    HW210692   2.408   1.566   6.033
 3412SOL     OW10693   3.571   0.385   6.967
 3412SOL    HW110694   3.644   0.454   6.971
 3412SOL    HW210695   3.599   0.310   6.908
 3413SOL     OW10696   2.117   1.348   5.876
 3413SOL    HW110697   2.021   1.349   5.849
 3413SOL    HW210698   2.129   1.401   5.960
 3414SOL     OW10699   1.967   1.013   7.312
 3414SOL    HW110700   1.890   0.980   7.366
 3414SOL    HW210701   2.052   0.983   7.354
 3415SOL     OW10702   2.534   0.203   7.075
 3415SOL    HW110703   2.624   0.187   7.035
 3415SOL    HW210704   2.542   0.208   7.174
 3416SOL     OW10705   1.937   0.345   5.619
 3416SOL    HW110706   1.845   0.317   5.590
 3416SOL    HW210707   1.968   0.422   5.563
 3417SOL     OW10708   3.302   0.856   6.984
 3417SOL    HW110709   3.245   0.908   6.921
 3417SOL    HW210710   3.398   0.868   6.960
 3418SOL     OW10711   1.934   0.166   5.904
 3418SOL    HW110712   1.917   0.249   5.850
 3418SOL    HW210713   2.024   0.129   5.882
 3419SOL     OW10714   3.045   1.335   5.705
 3419SOL    HW110715   2.946   1.324   5.707
 3419SOL    HW210716   3.079   1.350   5.798
 3420SOL     OW10717   2.475   0.842   7.017
 3420SOL    HW110718   2.531   0.923   7.000
 3420SOL    HW210719   2.534   0.762   7.020
 3421SOL     OW10720   3.355   1.767   6.545
 3421SOL    HW110721   3.388   1.831   6.476
 3421SOL    HW210722   3.421   1.761   6.620
 3422SOL     OW10723   2.578   0.565   7.294
 3422SOL    HW110724   2.597   0.630   7.368
 3422SOL    HW210725   2.638   0.485   7.303
 3423SOL     OW10726   3.312   1.220   7.219
 3423SOL    HW110727   3.303   1.210   7.318
 3423SOL    HW210728   3.408   1.213   7.193
 3424SOL     OW10729   2.252   1.741   7.146
 3424SOL    HW110730   2.161   1.782   7.144
 3424SOL    HW210731   2.245   1.647   7.178
 3425SOL     OW10732   3.536   0.883   6.840
 3425SOL    HW110733   3.509   0.794   6.803
 3425SOL    HW210734   3.537   0.951   6.767
 3426SOL     OW10735   3.087   0.325   6.035
 3426SOL    HW110736   3.152   0.251   6.024
 3426SOL    HW210737   3.107   0.375   6.119
 3427SOL     OW10738   2.456   0.745   6.238
 3427SOL    HW110739   2.506   0.830   6.219
 3427SOL    HW210740   2.368   0.747   6.190
 3428SOL     OW10741   3.639   0.342   7.228
 3428SOL    HW110742   3.622   0.373   7.134
 3428SOL    HW210743   3.555   0.305   7.266
 3429SOL     OW10744   3.592   0.934   7.103
 3429SOL    HW110745   3.630   1.025   7.118
 3429SOL    HW210746   3.584   0.917   7.004
 3430SOL     OW10747   2.721   1.374   5.602
 3430SOL    HW110748   2.675   1.389   5.690
 3430SOL    HW210749   2.765   1.459   5.572
 3431SOL     OW10750   2.523   1.790   6.539
 3431SOL    HW110751   2.477   1.878   6.526
 3431SOL    HW210752   2.622   1.802   6.532
 3432SOL     OW10753   2.721   0.956   6.447
 3432SOL    HW110754   2.775   0.887   6.495
 3432SOL    HW210755   2.689   1.025   6.513
 3433SOL     OW10756   2.945   0.984   5.673
 3433SOL    HW110757   2.922   1.037   5.591
 3433SOL    HW210758   3.026   0.928   5.654
 3434SOL     OW10759   3.723   1.569   6.437
 3434SOL    HW110760   3.652   1.557   6.367
 3434SOL    HW210761   3.724   1.490   6.497
 3435SOL     OW10762   2.083   1.314   7.430
 3435SOL    HW110763   2.018   1.241   7.409
 3435SOL    HW210764   2.087   1.328   7.528
 3436SOL     OW10765   1.941   1.240   6.239
 3436SOL    HW110766   1.940   1.193   6.327
 3436SOL    HW210767   2.023   1.212   6.188
 3437SOL     OW10768   2.534   1.391   7.210
 3437SOL    HW110769   2.456   1.341   7.248
 3437SOL    HW210770   2.531   1.486   7.241
 3438SOL     OW10771   3.686   0.192   6.813
 3438SOL    HW110772   3.682   0.102   6.857
 3438SOL    HW210773   3.689   0.181   6.714
 3439SOL     OW10774   2.290   0.424   6.106
 3439SOL    HW110775   2.320   0.352   6.044
 3439SOL    HW210776   2.251   0.384   6.189
 3440SOL     OW10777   3.567   1.487   6.690
 3440SOL    HW110778   3.474   1.462   6.663
 3440SOL    HW210779   3.593   1.437   6.772
 3441SOL     OW10780   2.179   0.547   6.866
 3441SOL    HW110781   2.217   0.488   6.938
 3441SOL    HW210782   2.219   0.521   6.778
 3442SOL     OW10783   2.674   1.586   6.273
 3442SOL    HW110784   2.706   1.596   6.179
 3442SOL    HW210785   2.595   1.524   6.275
 3443SOL     OW10786   3.286   0.214   6.698
 3443SOL    HW110787   3.338   0.149   6.753
 3443SOL    HW210788   3.237   0.277   6.759
 3444SOL     OW10789   2.863   0.034   6.740
 3444SOL    HW110790   2.800  -0.038   6.709
 3444SOL    HW210791   2.956  -0.002   6.740
 3445SOL     OW10792   2.632   1.330   5.887
 3445SOL    HW110793   2.586   1.243   5.904
 3445SOL    HW210794   2.723   1.327   5.928
 3446SOL     OW10795   2.480   1.567   6.870
 3446SOL    HW110796   2.475   1.649   6.927
 3446SOL    HW210797   2.569   1.564   6.825
 3447SOL     OW10798   3.214   0.052   5.754
 3447SOL    HW110799   3.249   0.011   5.670
 3447SOL    HW210800   3.124   0.014   5.774
 3448SOL     OW10801   3.162   0.453   6.277
 3448SOL    HW110802   3.103   0.533   6.281
 3448SOL    HW210803   3.177   0.418   6.370
 3449SOL     OW10804   3.455   0.221   6.468
 3449SOL    HW110805   3.371   0.220   6.522
 3449SOL    HW210806   3.457   0.304   6.412
 3450SOL     OW10807   1.901   1.077   5.886
 3450SOL    HW110808   2.000   1.066   5.877
 3450SOL    HW210809   1.861   0.991   5.918
 3451SOL     OW10810   2.737   1.646   5.923
 3451SOL    HW110811   2.660   1.611   5.869
 3451SOL    HW210812   2.705   1.717   5.985
 3452SOL     OW10813   2.092   0.628   7.561
 3452SOL    HW110814   1.999   0.626   7.598
 3452SOL    HW210815   2.093   0.589   7.469
 3453SOL     OW10816   3.617   0.607   7.679
 3453SOL    HW110817   3.605   0.594   7.580
 3453SOL    HW210818   3.587   0.526   7.728
 3454SOL     OW10819   2.093   1.713   7.931
 3454SOL    HW110820   2.127   1.790   7.985
 3454SOL    HW210821   2.137   1.713   7.841
 3455SOL     OW10822   2.092   1.434   7.986
 3455SOL    HW110823   2.066   1.530   7.986
 3455SOL    HW210824   2.021   1.380   8.031
 3456SOL     OW10825   2.468   0.964   7.571
 3456SOL    HW110826   2.475   1.048   7.517
 3456SOL    HW210827   2.514   0.977   7.659
 3457SOL     OW10828   3.704   1.767   7.807
 3457SOL    HW110829   3.758   1.738   7.887
 3457SOL    HW210830   3.734   1.857   7.778
 3458SOL     OW10831   1.889   1.596   7.565
 3458SOL    HW110832   1.870   1.500   7.586
 3458SOL    HW210833   1.856   1.654   7.640
 3459SOL     OW10834   3.551   0.922   8.060
 3459SOL    HW110835   3.646   0.893   8.068
 3459SOL    HW210836   3.543   0.987   7.985
 3460SOL     OW10837   3.503   1.108   7.880
 3460SOL    HW110838   3.589   1.110   7.828
 3460SOL    HW210839   3.517   1.155   7.968
 3461SOL     OW10840   2.671   0.004   7.950
 3461SOL    HW110841   2.711   0.095   7.941
 3461SOL    HW210842   2.571   0.012   7.956
 3462SOL     OW10843   3.387   0.999   7.638
 3462SOL    HW110844   3.324   0.923   7.651
 3462SOL    HW210845   3.435   1.017   7.724
 3463SOL     OW10846   2.460   0.729   7.718
 3463SOL    HW110847   2.484   0.798   7.650
 3463SOL    HW210848   2.382   0.762   7.772
 3464SOL     OW10849   3.438   1.662   7.755
 3464SOL    HW110850   3.527   1.708   7.758
 3464SOL    HW210851   3.417   1.638   7.660
 3465SOL     OW10852   1.938   0.811   8.237
 3465SOL    HW110853   2.037   0.799   8.246
 3465SOL    HW210854   1.914   0.906   8.258
 3466SOL     OW10855   2.727   0.348   7.643
 3466SOL    HW110856   2.786   0.411   7.594
 3466SOL    HW210857   2.746   0.254   7.614
 3467SOL     OW10858   2.183   0.943   7.690
 3467SOL    HW110859   2.265   0.982   7.648
 3467SOL    HW210860   2.156   0.861   7.641
 3468SOL     OW10861   2.973   1.776   7.685
 3468SOL    HW110862   2.913   1.714   7.735
 3468SOL    HW210863   3.004   1.732   7.600
 3469SOL     OW10864   3.494   1.377   7.529
 3469SOL    HW110865   3.462   1.471   7.519
 3469SOL    HW210866   3.418   1.314   7.517
 3470SOL     OW10867   2.326   1.743   7.771
 3470SOL    HW110868   2.359   1.782   7.857
 3470SOL    HW210869   2.402   1.736   7.706
 3471SOL     OW10870   3.262   0.107   7.874
 3471SOL    HW110871   3.238   0.070   7.784
 3471SOL    HW210872   3.361   0.123   7.878
 3472SOL     OW10873   2.244   0.700   7.928
 3472SOL    HW110874   2.289   0.610   7.925
 3472SOL    HW210875   2.150   0.689   7.961
 3473SOL     OW10876   2.476   0.122   7.565
 3473SOL    HW110877   2.574   0.100   7.572
 3473SOL    HW210878   2.445   0.105   7.472
 3474SOL     OW10879   2.401   0.064   7.960
 3474SOL    HW110880   2.320   0.065   8.018
 3474SOL    HW210881   2.404   0.147   7.905
 3475SOL     OW10882   3.296   1.188   7.489
 3475SOL    HW110883   3.328   1.112   7.546
 3475SOL    HW210884   3.204   1.215   7.519
 3476SOL     OW10885   2.159   0.035   7.619
 3476SOL    HW110886   2.208   0.119   7.598
 3476SOL    HW210887   2.221  -0.030   7.664
 3477SOL     OW10888   2.797   0.236   7.928
 3477SOL    HW110889   2.749   0.277   7.850
 3477SOL    HW210890   2.896   0.234   7.909
 3478SOL     OW10891   2.321   1.152   8.189
 3478SOL    HW110892   2.250   1.125   8.254
 3478SOL    HW210893   2.295   1.124   8.096
 3479SOL     OW10894   3.133   1.797   8.039
 3479SOL    HW110895   3.177   1.861   7.975
 3479SOL    HW210896   3.083   1.849   8.109
 3480SOL     OW10897   2.894   0.549   7.464
 3480SOL    HW110898   2.853   0.631   7.425
 3480SOL    HW210899   2.958   0.575   7.537
 3481SOL     OW10900   3.719   0.833   7.825
 3481SOL    HW110901   3.761   0.769   7.889
 3481SOL    HW210902   3.681   0.782   7.747
 3482SOL     OW10903   2.350   1.385   7.622
 3482SOL    HW110904   2.263   1.370   7.669
 3482SOL    HW210905   2.333   1.411   7.527
 3483SOL     OW10906   3.252   0.575   7.526
 3483SOL    HW110907   3.198   0.554   7.607
 3483SOL    HW210908   3.343   0.534   7.535
 3484SOL     OW10909   2.389   0.256   7.776
 3484SOL    HW110910   2.416   0.197   7.701
 3484SOL    HW210911   2.389   0.351   7.745
 3485SOL     OW10912   2.567   1.050   7.816
 3485SOL    HW110913   2.553   1.057   7.915
 3485SOL    HW210914   2.651   0.999   7.798
 3486SOL     OW10915   2.229   1.100   7.949
 3486SOL    HW110916   2.222   1.183   7.893
 3486SOL    HW210917   2.233   1.020   7.889
 3487SOL     OW10918   3.114   1.348   7.836
 3487SOL    HW110919   3.164   1.425   7.876
 3487SOL    HW210920   3.019   1.350   7.868
 3488SOL     OW10921   3.444   0.639   7.920
 3488SOL    HW110922   3.413   0.700   7.993
 3488SOL    HW210923   3.494   0.691   7.851
 3489SOL     OW10924   3.071   0.525   7.723
 3489SOL    HW110925   3.084   0.441   7.777
 3489SOL    HW210926   3.042   0.599   7.783
 3490SOL     OW10927   3.484   0.367   7.822
 3490SOL    HW110928   3.486   0.291   7.886
 3490SOL    HW210929   3.436   0.444   7.862
 3491SOL     OW10930   3.402   0.274   7.573
 3491SOL    HW110931   3.341   0.199   7.596
 3491SOL    HW210932   3.424   0.326   7.656
 3492SOL     OW10933   3.165   0.838   7.490
 3492SOL    HW110934   3.199   0.745   7.505
 3492SOL    HW210935   3.183   0.865   7.395
 3493SOL     OW10936   1.870   1.326   7.648
 3493SOL    HW110937   1.777   1.347   7.617
 3493SOL    HW210938   1.880   1.227   7.661
 3494SOL     OW10939   2.677   0.572   7.773
 3494SOL    HW110940   2.684   0.483   7.727
 3494SOL    HW210941   2.583   0.606   7.765
 3495SOL     OW10942   2.335   0.500   7.639
 3495SOL    HW110943   2.396   0.580   7.643
 3495SOL    HW210944   2.240   0.531   7.646
 3496SOL     OW10945   3.164   0.855   7.757
 3496SOL    HW110946   3.078   0.824   7.799
 3496SOL    HW210947   3.160   0.841   7.658
 3497SOL     OW10948   3.588   0.135   7.971
 3497SOL    HW110949   3.661   0.118   7.904
 3497SOL    HW210950   3.557   0.048   8.009
 3498SOL     OW10951   3.250   1.573   7.925
 3498SOL    HW110952   3.317   1.585   7.851
 3498SOL    HW210953   3.210   1.662   7.948
 3499SOL     OW10954   2.534   1.616   7.602
 3499SOL    HW110955   2.543   1.626   7.503
 3499SOL    HW210956   2.494   1.527   7.623
 3500SOL     OW10957   3.056   1.612   7.479
 3500SOL    HW110958   3.062   1.519   7.516
 3500SOL    HW210959   2.997   1.612   7.399
 3501SOL     OW10960   2.778   0.910   7.739
 3501SOL    HW110961   2.841   0.948   7.671
 3501SOL    HW210962   2.818   0.827   7.778
 3502SOL     OW10963   3.366   1.607   7.492
 3502SOL    HW110964   3.274   1.644   7.499
 3502SOL    HW210965   3.404   1.627   7.402
 3503SOL     OW10966   2.452   1.487   7.939
 3503SOL    HW110967   2.494   1.429   7.869
 3503SOL    HW210968   2.408   1.566   7.895
 3504SOL     OW10969   2.117   1.348   7.738
 3504SOL    HW110970   2.021   1.349   7.711
 3504SOL    HW210971   2.129   1.401   7.822
 3505SOL     OW10972   1.937   0.345   7.481
 3505SOL    HW110973   1.845   0.317   7.452
 3505SOL    HW210974   1.968   0.422   7.425
 3506SOL     OW10975   1.934   0.166   7.766
 3506SOL    HW110976   1.917   0.249   7.712
 3506SOL    HW210977   2.024   0.129   7.744
 3507SOL     OW10978   3.045   1.335   7.567
 3507SOL    HW110979   2.946   1.324   7.569
 3507SOL    HW210980   3.079   1.350   7.660
 3508SOL     OW10981   3.087   0.325   7.897
 3508SOL    HW110982   3.152   0.251   7.886
 3508SOL    HW210983   3.107   0.375   7.981
 3509SOL     OW10984   2.456   0.745   8.100
 3509SOL    HW110985   2.506   0.830   8.081
 3509SOL    HW210986   2.368   0.747   8.052
 3510SOL     OW10987   2.721   1.374   7.464
 3510SOL    HW110988   2.675   1.389   7.552
 3510SOL    HW210989   2.765   1.459   7.434
 3511SOL     OW10990   2.945   0.984   7.535
 3511SOL    HW110991   2.922   1.037   7.453
 3511SOL    HW210992   3.026   0.928   7.516
 3512SOL     OW10993   2.290   0.424   7.968
 3512SOL    HW110994   2.320   0.352   7.906
 3512SOL    HW210995   2.251   0.384   8.051
 3513SOL     OW10996   2.632   1.330   7.749
 3513SOL    HW110997   2.586   1.243   7.766
 3513SOL    HW210998   2.723   1.327   7.790
 3514SOL     OW10999   3.214   0.052   7.616
 3514SOL    HW111000   3.249   0.011   7.532
 3514SOL    HW211001   3.124   0.014   7.636
 3515SOL     OW11002   1.901   1.077   7.748
 3515SOL    HW111003   2.000   1.066   7.739
 3515SOL    HW211004   1.861   0.991   7.780
 3516SOL     OW11005   2.737   1.646   7.785
 3516SOL    HW111006   2.660   1.611   7.731
 3516SOL    HW211007   2.705   1.717   7.847
 3517SOL     OW11008   2.092   2.490   0.113
 3517SOL    HW111009   1.999   2.488   0.150
 3517SOL    HW211010   2.093   2.451   0.021
 3518SOL     OW11011   2.087   2.137   0.996
 3518SOL    HW111012   2.122   2.120   1.088
 3518SOL    HW211013   1.999   2.092   0.984
 3519SOL     OW11014   1.881   2.230   0.647
 3519SOL    HW111015   1.799   2.273   0.686
 3519SOL    HW211016   1.853   2.157   0.584
 3520SOL     OW11017   2.431   3.137   1.165
 3520SOL    HW111018   2.338   3.130   1.128
 3520SOL    HW211019   2.442   3.226   1.209
 3521SOL     OW11020   3.417   3.373   0.703
 3521SOL    HW111021   3.360   3.357   0.784
 3521SOL    HW211022   3.358   3.383   0.623
 3522SOL     OW11023   2.997   2.565   0.717
 3522SOL    HW111024   3.054   2.643   0.692
 3522SOL    HW211025   2.937   2.591   0.793
 3523SOL     OW11026   3.617   2.469   0.231
 3523SOL    HW111027   3.605   2.456   0.132
 3523SOL    HW211028   3.587   2.388   0.280
 3524SOL     OW11029   2.630   3.006   1.023
 3524SOL    HW111030   2.552   3.023   1.083
 3524SOL    HW211031   2.664   3.093   0.987
 3525SOL     OW11032   2.548   3.023   1.803
 3525SOL    HW111033   2.608   3.102   1.817
 3525SOL    HW211034   2.462   3.054   1.762
 3526SOL     OW11035   2.197   3.297   1.061
 3526SOL    HW111036   2.119   3.266   1.008
 3526SOL    HW211037   2.255   3.355   1.004
 3527SOL     OW11038   3.322   3.367   1.339
 3527SOL    HW111039   3.346   3.461   1.365
 3527SOL    HW211040   3.306   3.313   1.421
 3528SOL     OW11041   2.300   2.254   1.499
 3528SOL    HW111042   2.382   2.198   1.508
 3528SOL    HW211043   2.219   2.196   1.503
 3529SOL     OW11044   3.465   2.309   0.737
 3529SOL    HW111045   3.391   2.355   0.687
 3529SOL    HW211046   3.516   2.377   0.790
 3530SOL     OW11047   2.093   3.575   0.483
 3530SOL    HW111048   2.127   3.652   0.537
 3530SOL    HW211049   2.137   3.575   0.393
 3531SOL     OW11050   2.989   3.203   1.690
 3531SOL    HW111051   3.036   3.203   1.778
 3531SOL    HW211052   2.941   3.116   1.679
 3532SOL     OW11053   2.092   3.296   0.538
 3532SOL    HW111054   2.066   3.392   0.538
 3532SOL    HW211055   2.021   3.242   0.583
 3533SOL     OW11056   2.102   2.953   0.886
 3533SOL    HW111057   2.116   2.869   0.938
 3533SOL    HW211058   2.047   3.017   0.941
 3534SOL     OW11059   2.482   3.648   1.439
 3534SOL    HW111060   2.390   3.631   1.474
 3534SOL    HW211061   2.510   3.740   1.465
 3535SOL     OW11062   2.468   2.826   0.123
 3535SOL    HW111063   2.475   2.910   0.069
 3535SOL    HW211064   2.514   2.839   0.211
 3536SOL     OW11065   3.456   1.976   1.480
 3536SOL    HW111066   3.438   2.043   1.408
 3536SOL    HW211067   3.453   2.022   1.569
 3537SOL     OW11068   1.984   2.505   0.563
 3537SOL    HW111069   1.939   2.417   0.580
 3537SOL    HW211070   1.983   2.559   0.647
 3538SOL     OW11071   3.704   3.629   0.359
 3538SOL    HW111072   3.758   3.600   0.439
 3538SOL    HW211073   3.734   3.719   0.330
 3539SOL     OW11074   1.889   3.458   0.117
 3539SOL    HW111075   1.870   3.362   0.138
 3539SOL    HW211076   1.856   3.516   0.192
 3540SOL     OW11077   3.551   2.784   0.612
 3540SOL    HW111078   3.646   2.755   0.620
 3540SOL    HW211079   3.543   2.849   0.537
 3541SOL     OW11080   3.503   2.970   0.432
 3541SOL    HW111081   3.589   2.972   0.380
 3541SOL    HW211082   3.517   3.017   0.520
 3542SOL     OW11083   1.975   2.599   1.597
 3542SOL    HW111084   2.063   2.586   1.642
 3542SOL    HW211085   1.962   2.696   1.575
 3543SOL     OW11086   2.475   3.227   0.726
 3543SOL    HW111087   2.426   3.140   0.735
 3543SOL    HW211088   2.452   3.270   0.639
 3544SOL     OW11089   3.155   3.090   1.423
 3544SOL    HW111090   3.192   3.017   1.365
 3544SOL    HW211091   3.207   3.095   1.508
 3545SOL     OW11092   2.671   1.866   0.502
 3545SOL    HW111093   2.711   1.957   0.493
 3545SOL    HW211094   2.571   1.874   0.508
 3546SOL     OW11095   2.059   2.838   1.264
 3546SOL    HW111096   2.148   2.793   1.250
 3546SOL    HW211097   1.986   2.773   1.245
 3547SOL     OW11098   3.387   2.861   0.190
 3547SOL    HW111099   3.324   2.785   0.203
 3547SOL    HW211100   3.435   2.879   0.276
 3548SOL     OW11101   3.049   3.654   1.616
 3548SOL    HW111102   3.073   3.714   1.540
 3548SOL    HW211103   3.056   3.559   1.586
 3549SOL     OW11104   2.179   2.113   1.801
 3549SOL    HW111105   2.250   2.184   1.807
 3549SOL    HW211106   2.091   2.152   1.829
 3550SOL     OW11107   3.328   3.279   0.953
 3550SOL    HW111108   3.269   3.285   1.033
 3550SOL    HW211109   3.313   3.191   0.907
 3551SOL     OW11110   3.529   3.576   0.572
 3551SOL    HW111111   3.488   3.553   0.484
 3551SOL    HW211112   3.511   3.502   0.637
 3552SOL     OW11113   3.143   2.207   0.944
 3552SOL    HW111114   3.057   2.157   0.931
 3552SOL    HW211115   3.205   2.153   1.000
 3553SOL     OW11116   3.438   3.524   0.307
 3553SOL    HW111117   3.527   3.570   0.310
 3553SOL    HW211118   3.417   3.500   0.212
 3554SOL     OW11119   3.256   2.331   1.674
 3554SOL    HW111120   3.236   2.374   1.762
 3554SOL    HW211121   3.334   2.269   1.683
 3555SOL     OW11122   2.853   2.272   1.242
 3555SOL    HW111123   2.776   2.306   1.296
 3555SOL    HW211124   2.819   2.221   1.163
 3556SOL     OW11125   1.938   2.673   0.789
 3556SOL    HW111126   2.037   2.661   0.798
 3556SOL    HW211127   1.914   2.768   0.810
 3557SOL     OW11128   1.992   3.683   1.571
 3557SOL    HW111129   1.982   3.668   1.670
 3557SOL    HW211130   1.906   3.719   1.535
 3558SOL     OW11131   2.727   2.210   0.195
 3558SOL    HW111132   2.786   2.273   0.146
 3558SOL    HW211133   2.746   2.116   0.166
 3559SOL     OW11134   3.581   2.447   1.831
 3559SOL    HW111135   3.555   2.536   1.795
 3559SOL    HW211136   3.579   2.379   1.758
 3560SOL     OW11137   3.224   3.006   0.545
 3560SOL    HW111138   3.307   2.977   0.497
 3560SOL    HW211139   3.175   3.073   0.489
 3561SOL     OW11140   2.412   2.058   0.885
 3561SOL    HW111141   2.407   2.053   0.985
 3561SOL    HW211142   2.414   2.154   0.856
 3562SOL     OW11143   2.870   3.318   0.477
 3562SOL    HW111144   2.824   3.390   0.425
 3562SOL    HW211145   2.866   3.338   0.575
 3563SOL     OW11146   2.213   3.663   0.853
 3563SOL    HW111147   2.263   3.577   0.859
 3563SOL    HW211148   2.278   3.740   0.850
 3564SOL     OW11149   3.657   2.928   0.873
 3564SOL    HW111150   3.595   2.913   0.797
 3564SOL    HW211151   3.605   2.939   0.958
 3565SOL     OW11152   3.089   3.412   1.506
 3565SOL    HW111153   3.095   3.335   1.570
 3565SOL    HW211154   3.037   3.386   1.426
 3566SOL     OW11155   2.183   2.805   0.242
 3566SOL    HW111156   2.265   2.844   0.200
 3566SOL    HW211157   2.156   2.723   0.193
 3567SOL     OW11158   3.320   2.597   0.728
 3567SOL    HW111159   3.315   2.532   0.803
 3567SOL    HW211160   3.400   2.656   0.741
 3568SOL     OW11161   2.323   3.128   1.727
 3568SOL    HW111162   2.273   3.129   1.641
 3568SOL    HW211163   2.260   3.110   1.803
 3569SOL     OW11164   2.973   3.638   0.237
 3569SOL    HW111165   2.913   3.576   0.287
 3569SOL    HW211166   3.004   3.594   0.152
 3570SOL     OW11167   2.064   2.147   1.498
 3570SOL    HW111168   1.984   2.207   1.485
 3570SOL    HW211169   2.054   2.098   1.584
 3571SOL     OW11170   3.494   3.239   0.081
 3571SOL    HW111171   3.462   3.333   0.071
 3571SOL    HW211172   3.418   3.176   0.069
 3572SOL     OW11173   2.326   3.605   0.323
 3572SOL    HW111174   2.359   3.644   0.409
 3572SOL    HW211175   2.402   3.598   0.258
 3573SOL     OW11176   3.262   1.969   0.426
 3573SOL    HW111177   3.238   1.932   0.336
 3573SOL    HW211178   3.361   1.985   0.430
 3574SOL     OW11179   2.111   3.647   1.241
 3574SOL    HW111180   2.168   3.582   1.291
 3574SOL    HW211181   2.095   3.614   1.148
 3575SOL     OW11182   2.802   3.560   0.904
 3575SOL    HW111183   2.882   3.503   0.925
 3575SOL    HW211184   2.753   3.520   0.827
 3576SOL     OW11185   2.244   2.562   0.480
 3576SOL    HW111186   2.289   2.472   0.477
 3576SOL    HW211187   2.150   2.551   0.513
 3577SOL     OW11188   3.409   2.084   1.729
 3577SOL    HW111189   3.404   2.121   1.821
 3577SOL    HW211190   3.337   2.015   1.717
 3578SOL     OW11191   2.476   1.984   0.117
 3578SOL    HW111192   2.574   1.962   0.124
 3578SOL    HW211193   2.445   1.967   0.024
 3579SOL     OW11194   2.643   2.126   1.749
 3579SOL    HW111195   2.710   2.065   1.792
 3579SOL    HW211196   2.570   2.145   1.814
 3580SOL     OW11197   2.750   3.376   1.195
 3580SOL    HW111198   2.727   3.351   1.101
 3580SOL    HW211199   2.811   3.307   1.234
 3581SOL     OW11200   3.213   2.452   1.433
 3581SOL    HW111201   3.241   2.409   1.518
 3581SOL    HW211202   3.238   2.548   1.434
 3582SOL     OW11203   2.665   3.264   0.924
 3582SOL    HW111204   2.755   3.278   0.882
 3582SOL    HW211205   2.594   3.266   0.853
 3583SOL     OW11206   2.784   2.365   0.899
 3583SOL    HW111207   2.759   2.356   0.803
 3583SOL    HW211208   2.832   2.283   0.930
 3584SOL     OW11209   2.401   1.926   0.512
 3584SOL    HW111210   2.320   1.927   0.570
 3584SOL    HW211211   2.404   2.009   0.457
 3585SOL     OW11212   3.296   3.050   0.041
 3585SOL    HW111213   3.328   2.974   0.098
 3585SOL    HW211214   3.204   3.077   0.071
 3586SOL     OW11215   2.159   1.897   0.171
 3586SOL    HW111216   2.208   1.981   0.150
 3586SOL    HW211217   2.221   1.832   0.216
 3587SOL     OW11218   2.797   2.098   0.480
 3587SOL    HW111219   2.749   2.139   0.402
 3587SOL    HW211220   2.896   2.096   0.461
 3588SOL     OW11221   2.938   2.545   1.464
 3588SOL    HW111222   2.858   2.484   1.467
 3588SOL    HW211223   3.019   2.492   1.440
 3589SOL     OW11224   3.089   3.432   0.793
 3589SOL    HW111225   3.110   3.506   0.728
 3589SOL    HW211226   3.157   3.432   0.866
 3590SOL     OW11227   2.321   3.014   0.741
 3590SOL    HW111228   2.250   2.987   0.806
 3590SOL    HW211229   2.295   2.986   0.648
 3591SOL     OW11230   3.133   3.659   0.591
 3591SOL    HW111231   3.177   3.723   0.527
 3591SOL    HW211232   3.083   3.711   0.661
 3592SOL     OW11233   2.894   2.411   0.016
 3592SOL    HW111234   2.853   2.493  -0.023
 3592SOL    HW211235   2.958   2.437   0.089
 3593SOL     OW11236   1.940   2.418   1.386
 3593SOL    HW111237   2.032   2.417   1.345
 3593SOL    HW211238   1.934   2.492   1.453
 3594SOL     OW11239   2.423   2.084   1.147
 3594SOL    HW111240   2.461   2.000   1.184
 3594SOL    HW211241   2.335   2.103   1.191
 3595SOL     OW11242   2.728   2.316   0.642
 3595SOL    HW111243   2.696   2.388   0.580
 3595SOL    HW211244   2.752   2.235   0.589
 3596SOL     OW11245   2.879   1.901   0.753
 3596SOL    HW111246   2.807   1.906   0.684
 3596SOL    HW211247   2.855   1.832   0.822
 3597SOL     OW11248   3.291   3.035   0.867
 3597SOL    HW111249   3.236   2.951   0.860
 3597SOL    HW211250   3.317   3.064   0.775
 3598SOL     OW11251   3.328   2.452   0.992
 3598SOL    HW111252   3.298   2.357   0.999
 3598SOL    HW211253   3.401   2.468   1.058
 3599SOL     OW11254   3.719   2.695   0.377
 3599SOL    HW111255   3.761   2.631   0.441
 3599SOL    HW211256   3.681   2.644   0.299
 3600SOL     OW11257   2.350   3.247   0.174
 3600SOL    HW111258   2.263   3.232   0.221
 3600SOL    HW211259   2.333   3.273   0.079
 3601SOL     OW11260   3.526   3.142   0.657
 3601SOL    HW111261   3.625   3.150   0.671
 3601SOL    HW211262   3.481   3.226   0.688
 3602SOL     OW11263   3.252   2.437   0.078
 3602SOL    HW111264   3.198   2.416   0.159
 3602SOL    HW211265   3.343   2.396   0.087
 3603SOL     OW11266   2.389   2.118   0.328
 3603SOL    HW111267   2.416   2.059   0.253
 3603SOL    HW211268   2.389   2.213   0.297
 3604SOL     OW11269   3.616   3.085   1.588
 3604SOL    HW111270   3.707   3.046   1.575
 3604SOL    HW211271   3.624   3.181   1.612
 3605SOL     OW11272   2.926   3.209   1.340
 3605SOL    HW111273   2.846   3.186   1.395
 3605SOL    HW211274   3.009   3.183   1.389
 3606SOL     OW11275   3.454   3.491   1.625
 3606SOL    HW111276   3.481   3.525   1.535
 3606SOL    HW211277   3.533   3.453   1.671
 3607SOL     OW11278   2.973   3.057   1.100
 3607SOL    HW111279   2.933   3.101   1.181
 3607SOL    HW211280   2.932   3.094   1.017
 3608SOL     OW11281   3.500   2.961   1.079
 3608SOL    HW111282   3.505   3.042   1.138
 3608SOL    HW211283   3.414   2.963   1.028
 3609SOL     OW11284   2.777   1.951   1.402
 3609SOL    HW111285   2.802   1.931   1.307
 3609SOL    HW211286   2.849   2.007   1.444
 3610SOL     OW11287   2.842   2.978   1.719
 3610SOL    HW111288   2.743   2.984   1.729
 3610SOL    HW211289   2.865   2.898   1.663
 3611SOL     OW11290   2.567   2.912   0.368
 3611SOL    HW111291   2.553   2.919   0.467
 3611SOL    HW211292   2.651   2.861   0.350
 3612SOL     OW11293   2.272   2.675   1.251
 3612SOL    HW111294   2.358   2.687   1.301
 3612SOL    HW211295   2.230   2.588   1.278
 3613SOL     OW11296   3.136   2.248   1.262
 3613SOL    HW111297   3.157   2.322   1.326
 3613SOL    HW211298   3.047   2.265   1.219
 3614SOL     OW11299   1.926   3.426   1.331
 3614SOL    HW111300   1.880   3.508   1.297
 3614SOL    HW211301   2.024   3.445   1.340
 3615SOL     OW11302   2.229   2.962   0.501
 3615SOL    HW111303   2.222   3.045   0.445
 3615SOL    HW211304   2.233   2.882   0.441
 3616SOL     OW11305   2.428   2.399   0.865
 3616SOL    HW111306   2.440   2.465   0.791
 3616SOL    HW211307   2.474   2.433   0.948
 3617SOL     OW11308   3.114   3.210   0.388
 3617SOL    HW111309   3.164   3.287   0.428
 3617SOL    HW211310   3.019   3.212   0.420
 3618SOL     OW11311   3.134   3.307   1.142
 3618SOL    HW111312   3.181   3.320   1.229
 3618SOL    HW211313   3.068   3.233   1.151
 3619SOL     OW11314   3.444   2.501   0.472
 3619SOL    HW111315   3.413   2.562   0.545
 3619SOL    HW211316   3.494   2.553   0.403
 3620SOL     OW11317   2.216   3.372   1.329
 3620SOL    HW111318   2.195   3.328   1.242
 3620SOL    HW211319   2.313   3.398   1.332
 3621SOL     OW11320   2.264   2.613   1.598
 3621SOL    HW111321   2.332   2.668   1.551
 3621SOL    HW211322   2.304   2.525   1.625
 3622SOL     OW11323   3.449   2.641   1.670
 3622SOL    HW111324   3.357   2.679   1.665
 3622SOL    HW211325   3.509   2.688   1.605
 3623SOL     OW11326   2.875   1.967   1.770
 3623SOL    HW111327   2.881   2.052   1.718
 3623SOL    HW211328   2.907   1.891   1.713
 3624SOL     OW11329   2.366   1.912   1.740
 3624SOL    HW111330   2.324   1.855   1.670
 3624SOL    HW211331   2.300   1.981   1.772
 3625SOL     OW11332   3.222   2.724   1.045
 3625SOL    HW111333   3.147   2.724   0.979
 3625SOL    HW211334   3.259   2.632   1.054
 3626SOL     OW11335   3.071   2.387   0.275
 3626SOL    HW111336   3.084   2.303   0.329
 3626SOL    HW211337   3.042   2.461   0.335
 3627SOL     OW11338   2.169   2.075   1.231
 3627SOL    HW111339   2.146   2.112   1.321
 3627SOL    HW211340   2.139   1.980   1.225
 3628SOL     OW11341   1.899   3.172   1.282
 3628SOL    HW111342   1.952   3.123   1.350
 3628SOL    HW211343   1.921   3.270   1.287
 3629SOL     OW11344   3.590   2.797   1.854
 3629SOL    HW111345   3.544   2.790   1.765
 3629SOL    HW211346   3.528   2.841   1.920
 3630SOL     OW11347   2.169   1.925   0.618
 3630SOL    HW111348   2.158   2.019   0.651
 3630SOL    HW211349   2.164   1.862   0.695
 3631SOL     OW11350   3.484   2.229   0.374
 3631SOL    HW111351   3.486   2.153   0.438
 3631SOL    HW211352   3.436   2.306   0.414
 3632SOL     OW11353   2.842   3.435   1.700
 3632SOL    HW111354   2.822   3.479   1.612
 3632SOL    HW211355   2.881   3.344   1.684
 3633SOL     OW11356   3.721   3.380   1.605
 3633SOL    HW111357   3.735   3.407   1.510
 3633SOL    HW211358   3.804   3.402   1.658
 3634SOL     OW11359   2.212   2.760   1.804
 3634SOL    HW111360   2.288   2.804   1.852
 3634SOL    HW211361   2.247   2.713   1.722
 3635SOL     OW11362   3.402   2.136   0.125
 3635SOL    HW111363   3.341   2.061   0.148
 3635SOL    HW211364   3.424   2.188   0.208
 3636SOL     OW11365   3.165   2.700   0.042
 3636SOL    HW111366   3.199   2.607   0.057
 3636SOL    HW211367   3.183   2.727  -0.053
 3637SOL     OW11368   2.930   3.195   0.849
 3637SOL    HW111369   2.937   3.111   0.794
 3637SOL    HW211370   2.992   3.264   0.813
 3638SOL     OW11371   2.181   2.672   0.949
 3638SOL    HW111372   2.274   2.708   0.954
 3638SOL    HW211373   2.175   2.587   1.001
 3639SOL     OW11374   2.201   2.371   1.006
 3639SOL    HW111375   2.149   2.288   0.989
 3639SOL    HW211376   2.278   2.376   0.942
 3640SOL     OW11377   3.000   2.242   1.678
 3640SOL    HW111378   2.955   2.305   1.742
 3640SOL    HW211379   3.093   2.273   1.661
 3641SOL     OW11380   3.022   2.069   1.477
 3641SOL    HW111381   3.022   2.133   1.554
 3641SOL    HW211382   3.050   2.117   1.394
 3642SOL     OW11383   1.870   3.188   0.200
 3642SOL    HW111384   1.777   3.209   0.169
 3642SOL    HW211385   1.880   3.089   0.213
 3643SOL     OW11386   1.950   3.663   0.927
 3643SOL    HW111387   1.908   3.577   0.900
 3643SOL    HW211388   2.044   3.666   0.893
 3644SOL     OW11389   2.366   3.430   0.910
 3644SOL    HW111390   2.432   3.504   0.919
 3644SOL    HW211391   2.410   3.351   0.868
 3645SOL     OW11392   1.902   2.406   1.114
 3645SOL    HW111393   1.987   2.373   1.073
 3645SOL    HW211394   1.915   2.421   1.212
 3646SOL     OW11395   2.051   2.382   1.722
 3646SOL    HW111396   2.110   2.342   1.652
 3646SOL    HW211397   1.993   2.453   1.681
 3647SOL     OW11398   3.231   2.812   1.660
 3647SOL    HW111399   3.270   2.901   1.680
 3647SOL    HW211400   3.241   2.792   1.563
 3648SOL     OW11401   3.519   2.466   1.206
 3648SOL    HW111402   3.481   2.397   1.268
 3648SOL    HW211403   3.601   2.430   1.162
 3649SOL     OW11404   2.114   3.426   1.744
 3649SOL    HW111405   2.084   3.483   1.820
 3649SOL    HW211406   2.107   3.329   1.770
 3650SOL     OW11407   2.533   2.326   1.269
 3650SOL    HW111408   2.499   2.237   1.239
 3650SOL    HW211409   2.559   2.380   1.189
 3651SOL     OW11410   2.792   3.540   1.465
 3651SOL    HW111411   2.768   3.522   1.370
 3651SOL    HW211412   2.822   3.634   1.475
 3652SOL     OW11413   2.335   2.362   0.191
 3652SOL    HW111414   2.396   2.442   0.195
 3652SOL    HW211415   2.240   2.393   0.198
 3653SOL     OW11416   2.021   2.999   1.466
 3653SOL    HW111417   2.043   2.938   1.542
 3653SOL    HW211418   2.031   2.950   1.380
 3654SOL     OW11419   3.209   2.921   1.234
 3654SOL    HW111420   3.233   2.858   1.160
 3654SOL    HW211421   3.119   2.961   1.216
 3655SOL     OW11422   3.164   2.717   0.309
 3655SOL    HW111423   3.078   2.686   0.351
 3655SOL    HW211424   3.160   2.703   0.210
 3656SOL     OW11425   3.621   3.609   1.154
 3656SOL    HW111426   3.682   3.639   1.081
 3656SOL    HW211427   3.583   3.520   1.132
 3657SOL     OW11428   3.114   3.593   1.128
 3657SOL    HW111429   3.198   3.598   1.074
 3657SOL    HW211430   3.091   3.497   1.146
 3658SOL     OW11431   1.945   3.120   1.022
 3658SOL    HW111432   1.940   3.119   1.122
 3658SOL    HW211433   1.862   3.079   0.984
 3659SOL     OW11434   2.550   3.524   1.716
 3659SOL    HW111435   2.494   3.605   1.725
 3659SOL    HW211436   2.602   3.528   1.630
 3660SOL     OW11437   2.765   1.948   0.133
 3660SOL    HW111438   2.816   1.949   0.047
 3660SOL    HW211439   2.821   1.906   0.204
 3661SOL     OW11440   3.588   1.997   0.523
 3661SOL    HW111441   3.661   1.980   0.456
 3661SOL    HW211442   3.557   1.910   0.561
 3662SOL     OW11443   3.250   3.435   0.477
 3662SOL    HW111444   3.317   3.447   0.403
 3662SOL    HW211445   3.210   3.524   0.500
 3663SOL     OW11446   1.992   3.656   1.851
 3663SOL    HW111447   1.951   3.582   1.904
 3663SOL    HW211448   2.056   3.707   1.909
 3664SOL     OW11449   3.142   2.789   0.672
 3664SOL    HW111450   3.202   2.708   0.674
 3664SOL    HW211451   3.182   2.858   0.612
 3665SOL     OW11452   2.692   3.135   1.422
 3665SOL    HW111453   2.687   3.168   1.517
 3665SOL    HW211454   2.606   3.154   1.376
 3666SOL     OW11455   2.534   3.478   0.154
 3666SOL    HW111456   2.543   3.488   0.055
 3666SOL    HW211457   2.494   3.389   0.175
 3667SOL     OW11458   3.512   3.582   1.394
 3667SOL    HW111459   3.565   3.592   1.310
 3667SOL    HW211460   3.485   3.672   1.428
 3668SOL     OW11461   3.703   2.037   0.963
 3668SOL    HW111462   3.742   1.952   0.927
 3668SOL    HW211463   3.605   2.039   0.944
 3669SOL     OW11464   2.125   2.188   0.720
 3669SOL    HW111465   2.046   2.239   0.686
 3669SOL    HW211466   2.116   2.173   0.818
 3670SOL     OW11467   3.056   3.474   0.031
 3670SOL    HW111468   3.062   3.381   0.068
 3670SOL    HW211469   2.997   3.474  -0.049
 3671SOL     OW11470   3.366   3.469   0.044
 3671SOL    HW111471   3.274   3.506   0.051
 3671SOL    HW211472   3.404   3.489  -0.046
 3672SOL     OW11473   2.234   3.150   1.490
 3672SOL    HW111474   2.221   3.243   1.456
 3672SOL    HW211475   2.150   3.098   1.477
 3673SOL     OW11476   3.476   3.154   1.289
 3673SOL    HW111477   3.536   3.157   1.369
 3673SOL    HW211478   3.401   3.218   1.302
 3674SOL     OW11479   2.901   2.960   0.696
 3674SOL    HW111480   2.831   2.913   0.750
 3674SOL    HW211481   2.960   2.892   0.653
 3675SOL     OW11482   2.876   2.098   0.971
 3675SOL    HW111483   2.868   2.062   0.878
 3675SOL    HW211484   2.874   2.022   1.036
 3676SOL     OW11485   2.452   3.349   0.491
 3676SOL    HW111486   2.494   3.291   0.421
 3676SOL    HW211487   2.408   3.428   0.447
 3677SOL     OW11488   3.571   2.247   1.381
 3677SOL    HW111489   3.644   2.316   1.385
 3677SOL    HW211490   3.599   2.172   1.322
 3678SOL     OW11491   2.117   3.210   0.290
 3678SOL    HW111492   2.021   3.211   0.263
 3678SOL    HW211493   2.129   3.263   0.374
 3679SOL     OW11494   1.967   2.875   1.726
 3679SOL    HW111495   1.890   2.842   1.780
 3679SOL    HW211496   2.052   2.845   1.768
 3680SOL     OW11497   2.534   2.065   1.489
 3680SOL    HW111498   2.624   2.049   1.449
 3680SOL    HW211499   2.542   2.070   1.588
 3681SOL     OW11500   1.937   2.207   0.033
 3681SOL    HW111501   1.845   2.179   0.004
 3681SOL    HW211502   1.968   2.284  -0.023
 3682SOL     OW11503   3.302   2.718   1.398
 3682SOL    HW111504   3.245   2.770   1.335
 3682SOL    HW211505   3.398   2.730   1.374
 3683SOL     OW11506   1.934   2.028   0.318
 3683SOL    HW111507   1.917   2.111   0.264
 3683SOL    HW211508   2.024   1.991   0.296
 3684SOL     OW11509   3.045   3.197   0.119
 3684SOL    HW111510   2.946   3.186   0.121
 3684SOL    HW211511   3.079   3.212   0.212
 3685SOL     OW11512   3.355   3.629   0.959
 3685SOL    HW111513   3.388   3.693   0.890
 3685SOL    HW211514   3.421   3.623   1.034
 3686SOL     OW11515   3.312   3.082   1.633
 3686SOL    HW111516   3.303   3.072   1.732
 3686SOL    HW211517   3.408   3.075   1.607
 3687SOL     OW11518   2.252   3.603   1.560
 3687SOL    HW111519   2.161   3.644   1.558
 3687SOL    HW211520   2.245   3.509   1.592
 3688SOL     OW11521   3.536   2.745   1.254
 3688SOL    HW111522   3.509   2.656   1.217
 3688SOL    HW211523   3.537   2.813   1.181
 3689SOL     OW11524   3.087   2.187   0.449
 3689SOL    HW111525   3.152   2.113   0.438
 3689SOL    HW211526   3.107   2.237   0.533
 3690SOL     OW11527   3.639   2.204   1.642
 3690SOL    HW111528   3.622   2.235   1.548
 3690SOL    HW211529   3.555   2.167   1.680
 3691SOL     OW11530   3.592   2.796   1.517
 3691SOL    HW111531   3.630   2.887   1.532
 3691SOL    HW211532   3.584   2.779   1.418
 3692SOL     OW11533   2.721   3.236   0.016
 3692SOL    HW111534   2.675   3.251   0.104
 3692SOL    HW211535   2.765   3.321  -0.014
 3693SOL     OW11536   2.523   3.652   0.953
 3693SOL    HW111537   2.477   3.740   0.940
 3693SOL    HW211538   2.622   3.664   0.946
 3694SOL     OW11539   2.945   2.846   0.087
 3694SOL    HW111540   2.922   2.899   0.005
 3694SOL    HW211541   3.026   2.790   0.068
 3695SOL     OW11542   3.723   3.431   0.851
 3695SOL    HW111543   3.652   3.419   0.781
 3695SOL    HW211544   3.724   3.352   0.911
 3696SOL     OW11545   2.083   3.176   1.844
 3696SOL    HW111546   2.018   3.103   1.823
 3696SOL    HW211547   2.087   3.190   1.942
 3697SOL     OW11548   1.941   3.102   0.653
 3697SOL    HW111549   1.940   3.055   0.741
 3697SOL    HW211550   2.023   3.074   0.602
 3698SOL     OW11551   2.534   3.253   1.624
 3698SOL    HW111552   2.456   3.203   1.662
 3698SOL    HW211553   2.531   3.348   1.655
 3699SOL     OW11554   3.686   2.054   1.227
 3699SOL    HW111555   3.682   1.964   1.271
 3699SOL    HW211556   3.689   2.043   1.128
 3700SOL     OW11557   2.290   2.286   0.520
 3700SOL    HW111558   2.320   2.214   0.458
 3700SOL    HW211559   2.251   2.246   0.603
 3701SOL     OW11560   3.567   3.349   1.104
 3701SOL    HW111561   3.474   3.324   1.077
 3701SOL    HW211562   3.593   3.299   1.186
 3702SOL     OW11563   2.179   2.409   1.280
 3702SOL    HW111564   2.217   2.350   1.352
 3702SOL    HW211565   2.219   2.383   1.192
 3703SOL     OW11566   2.674   3.448   0.687
 3703SOL    HW111567   2.706   3.458   0.593
 3703SOL    HW211568   2.595   3.386   0.689
 3704SOL     OW11569   3.286   2.076   1.112
 3704SOL    HW111570   3.338   2.011   1.167
 3704SOL    HW211571   3.237   2.139   1.173
 3705SOL     OW11572   2.863   1.896   1.154
 3705SOL    HW111573   2.800   1.824   1.123
 3705SOL    HW211574   2.956   1.860   1.154
 3706SOL     OW11575   2.632   3.192   0.301
 3706SOL    HW111576   2.586   3.105   0.318
 3706SOL    HW211577   2.723   3.189   0.342
 3707SOL     OW11578   2.480   3.429   1.284
 3707SOL    HW111579   2.475   3.511   1.341
 3707SOL    HW211580   2.569   3.426   1.239
 3708SOL     OW11581   3.214   1.914   0.168
 3708SOL    HW111582   3.249   1.873   0.084
 3708SOL    HW211583   3.124   1.876   0.188
 3709SOL     OW11584   3.162   2.315   0.691
 3709SOL    HW111585   3.103   2.395   0.695
 3709SOL    HW211586   3.177   2.280   0.784
 3710SOL     OW11587   3.455   2.083   0.882
 3710SOL    HW111588   3.371   2.082   0.936
 3710SOL    HW211589   3.457   2.166   0.826
 3711SOL     OW11590   1.901   2.939   0.300
 3711SOL    HW111591   2.000   2.928   0.291
 3711SOL    HW211592   1.861   2.853   0.332
 3712SOL     OW11593   2.737   3.508   0.337
 3712SOL    HW111594   2.660   3.473   0.283
 3712SOL    HW211595   2.705   3.579   0.399
 3713SOL     OW11596   2.092   2.490   1.975
 3713SOL    HW111597   1.999   2.488   2.012
 3713SOL    HW211598   2.093   2.451   1.883
 3714SOL     OW11599   2.087   2.137   2.858
 3714SOL    HW111600   2.122   2.120   2.950
 3714SOL    HW211601   1.999   2.092   2.846
 3715SOL     OW11602   1.881   2.230   2.509
 3715SOL    HW111603   1.799   2.273   2.548
 3715SOL    HW211604   1.853   2.157   2.446
 3716SOL     OW11605   2.431   3.137   3.027
 3716SOL    HW111606   2.338   3.130   2.990
 3716SOL    HW211607   2.442   3.226   3.071
 3717SOL     OW11608   3.417   3.373   2.565
 3717SOL    HW111609   3.360   3.357   2.646
 3717SOL    HW211610   3.358   3.383   2.485
 3718SOL     OW11611   2.997   2.565   2.579
 3718SOL    HW111612   3.054   2.643   2.554
 3718SOL    HW211613   2.937   2.591   2.655
 3719SOL     OW11614   3.617   2.469   2.093
 3719SOL    HW111615   3.605   2.456   1.994
 3719SOL    HW211616   3.587   2.388   2.142
 3720SOL     OW11617   2.630   3.006   2.885
 3720SOL    HW111618   2.552   3.023   2.945
 3720SOL    HW211619   2.664   3.093   2.849
 3721SOL     OW11620   2.197   3.297   2.923
 3721SOL    HW111621   2.119   3.266   2.870
 3721SOL    HW211622   2.255   3.355   2.866
 3722SOL     OW11623   3.322   3.367   3.201
 3722SOL    HW111624   3.346   3.461   3.227
 3722SOL    HW211625   3.306   3.313   3.283
 3723SOL     OW11626   3.465   2.309   2.599
 3723SOL    HW111627   3.391   2.355   2.549
 3723SOL    HW211628   3.516   2.377   2.652
 3724SOL     OW11629   2.093   3.575   2.345
 3724SOL    HW111630   2.127   3.652   2.399
 3724SOL    HW211631   2.137   3.575   2.255
 3725SOL     OW11632   2.092   3.296   2.400
 3725SOL    HW111633   2.066   3.392   2.400
 3725SOL    HW211634   2.021   3.242   2.445
 3726SOL     OW11635   2.102   2.953   2.748
 3726SOL    HW111636   2.116   2.869   2.800
 3726SOL    HW211637   2.047   3.017   2.803
 3727SOL     OW11638   2.482   3.648   3.301
 3727SOL    HW111639   2.390   3.631   3.336
 3727SOL    HW211640   2.510   3.740   3.327
 3728SOL     OW11641   2.468   2.826   1.985
 3728SOL    HW111642   2.475   2.910   1.931
 3728SOL    HW211643   2.514   2.839   2.073
 3729SOL     OW11644   3.456   1.976   3.342
 3729SOL    HW111645   3.438   2.043   3.270
 3729SOL    HW211646   3.453   2.022   3.431
 3730SOL     OW11647   1.984   2.505   2.425
 3730SOL    HW111648   1.939   2.417   2.442
 3730SOL    HW211649   1.983   2.559   2.509
 3731SOL     OW11650   3.704   3.629   2.221
 3731SOL    HW111651   3.758   3.600   2.301
 3731SOL    HW211652   3.734   3.719   2.192
 3732SOL     OW11653   1.889   3.458   1.979
 3732SOL    HW111654   1.870   3.362   2.000
 3732SOL    HW211655   1.856   3.516   2.054
 3733SOL     OW11656   3.551   2.784   2.474
 3733SOL    HW111657   3.646   2.755   2.482
 3733SOL    HW211658   3.543   2.849   2.399
 3734SOL     OW11659   3.503   2.970   2.294
 3734SOL    HW111660   3.589   2.972   2.242
 3734SOL    HW211661   3.517   3.017   2.382
 3735SOL     OW11662   2.475   3.227   2.588
 3735SOL    HW111663   2.426   3.140   2.597
 3735SOL    HW211664   2.452   3.270   2.501
 3736SOL     OW11665   2.671   1.866   2.364
 3736SOL    HW111666   2.711   1.957   2.355
 3736SOL    HW211667   2.571   1.874   2.370
 3737SOL     OW11668   2.059   2.838   3.126
 3737SOL    HW111669   2.148   2.793   3.112
 3737SOL    HW211670   1.986   2.773   3.107
 3738SOL     OW11671   3.387   2.861   2.052
 3738SOL    HW111672   3.324   2.785   2.065
 3738SOL    HW211673   3.435   2.879   2.138
 3739SOL     OW11674   3.049   3.654   3.478
 3739SOL    HW111675   3.073   3.714   3.402
 3739SOL    HW211676   3.056   3.559   3.448
 3740SOL     OW11677   3.328   3.279   2.815
 3740SOL    HW111678   3.269   3.285   2.895
 3740SOL    HW211679   3.313   3.191   2.769
 3741SOL     OW11680   3.529   3.576   2.434
 3741SOL    HW111681   3.488   3.553   2.346
 3741SOL    HW211682   3.511   3.502   2.499
 3742SOL     OW11683   3.143   2.207   2.806
 3742SOL    HW111684   3.057   2.157   2.793
 3742SOL    HW211685   3.205   2.153   2.862
 3743SOL     OW11686   3.438   3.524   2.169
 3743SOL    HW111687   3.527   3.570   2.172
 3743SOL    HW211688   3.417   3.500   2.074
 3744SOL     OW11689   2.853   2.272   3.104
 3744SOL    HW111690   2.776   2.306   3.158
 3744SOL    HW211691   2.819   2.221   3.025
 3745SOL     OW11692   1.938   2.673   2.651
 3745SOL    HW111693   2.037   2.661   2.660
 3745SOL    HW211694   1.914   2.768   2.672
 3746SOL     OW11695   1.992   3.683   3.433
 3746SOL    HW111696   1.982   3.668   3.532
 3746SOL    HW211697   1.906   3.719   3.397
 3747SOL     OW11698   2.727   2.210   2.057
 3747SOL    HW111699   2.786   2.273   2.008
 3747SOL    HW211700   2.746   2.116   2.028
 3748SOL     OW11701   3.581   2.447   3.693
 3748SOL    HW111702   3.555   2.536   3.657
 3748SOL    HW211703   3.579   2.379   3.620
 3749SOL     OW11704   3.224   3.006   2.407
 3749SOL    HW111705   3.307   2.977   2.359
 3749SOL    HW211706   3.175   3.073   2.351
 3750SOL     OW11707   2.412   2.058   2.747
 3750SOL    HW111708   2.407   2.053   2.847
 3750SOL    HW211709   2.414   2.154   2.718
 3751SOL     OW11710   2.870   3.318   2.339
 3751SOL    HW111711   2.824   3.390   2.287
 3751SOL    HW211712   2.866   3.338   2.437
 3752SOL     OW11713   2.213   3.663   2.715
 3752SOL    HW111714   2.263   3.577   2.721
 3752SOL    HW211715   2.278   3.740   2.712
 3753SOL     OW11716   3.657   2.928   2.735
 3753SOL    HW111717   3.595   2.913   2.659
 3753SOL    HW211718   3.605   2.939   2.820
 3754SOL     OW11719   3.089   3.412   3.368
 3754SOL    HW111720   3.095   3.335   3.432
 3754SOL    HW211721   3.037   3.386   3.288
 3755SOL     OW11722   2.183   2.805   2.104
 3755SOL    HW111723   2.265   2.844   2.062
 3755SOL    HW211724   2.156   2.723   2.055
 3756SOL     OW11725   3.320   2.597   2.590
 3756SOL    HW111726   3.315   2.532   2.665
 3756SOL    HW211727   3.400   2.656   2.603
 3757SOL     OW11728   2.973   3.638   2.099
 3757SOL    HW111729   2.913   3.576   2.149
 3757SOL    HW211730   3.004   3.594   2.014
 3758SOL     OW11731   2.064   2.147   3.360
 3758SOL    HW111732   1.984   2.207   3.347
 3758SOL    HW211733   2.054   2.098   3.446
 3759SOL     OW11734   3.494   3.239   1.943
 3759SOL    HW111735   3.462   3.333   1.933
 3759SOL    HW211736   3.418   3.176   1.931
 3760SOL     OW11737   2.326   3.605   2.185
 3760SOL    HW111738   2.359   3.644   2.271
 3760SOL    HW211739   2.402   3.598   2.120
 3761SOL     OW11740   3.262   1.969   2.288
 3761SOL    HW111741   3.238   1.932   2.198
 3761SOL    HW211742   3.361   1.985   2.292
 3762SOL     OW11743   2.111   3.647   3.103
 3762SOL    HW111744   2.168   3.582   3.153
 3762SOL    HW211745   2.095   3.614   3.010
 3763SOL     OW11746   2.802   3.560   2.766
 3763SOL    HW111747   2.882   3.503   2.787
 3763SOL    HW211748   2.753   3.520   2.689
 3764SOL     OW11749   2.244   2.562   2.342
 3764SOL    HW111750   2.289   2.472   2.339
 3764SOL    HW211751   2.150   2.551   2.375
 3765SOL     OW11752   3.409   2.084   3.591
 3765SOL    HW111753   3.404   2.121   3.683
 3765SOL    HW211754   3.337   2.015   3.579
 3766SOL     OW11755   2.476   1.984   1.979
 3766SOL    HW111756   2.574   1.962   1.986
 3766SOL    HW211757   2.445   1.967   1.886
 3767SOL     OW11758   2.750   3.376   3.057
 3767SOL    HW111759   2.727   3.351   2.963
 3767SOL    HW211760   2.811   3.307   3.096
 3768SOL     OW11761   2.665   3.264   2.786
 3768SOL    HW111762   2.755   3.278   2.744
 3768SOL    HW211763   2.594   3.266   2.715
 3769SOL     OW11764   2.784   2.365   2.761
 3769SOL    HW111765   2.759   2.356   2.665
 3769SOL    HW211766   2.832   2.283   2.792
 3770SOL     OW11767   2.401   1.926   2.374
 3770SOL    HW111768   2.320   1.927   2.432
 3770SOL    HW211769   2.404   2.009   2.319
 3771SOL     OW11770   3.296   3.050   1.903
 3771SOL    HW111771   3.328   2.974   1.960
 3771SOL    HW211772   3.204   3.077   1.933
 3772SOL     OW11773   2.159   1.897   2.033
 3772SOL    HW111774   2.208   1.981   2.012
 3772SOL    HW211775   2.221   1.832   2.078
 3773SOL     OW11776   2.797   2.098   2.342
 3773SOL    HW111777   2.749   2.139   2.264
 3773SOL    HW211778   2.896   2.096   2.323
 3774SOL     OW11779   3.089   3.432   2.655
 3774SOL    HW111780   3.110   3.506   2.590
 3774SOL    HW211781   3.157   3.432   2.728
 3775SOL     OW11782   2.321   3.014   2.603
 3775SOL    HW111783   2.250   2.987   2.668
 3775SOL    HW211784   2.295   2.986   2.510
 3776SOL     OW11785   3.133   3.659   2.453
 3776SOL    HW111786   3.177   3.723   2.389
 3776SOL    HW211787   3.083   3.711   2.523
 3777SOL     OW11788   2.894   2.411   1.878
 3777SOL    HW111789   2.853   2.493   1.839
 3777SOL    HW211790   2.958   2.437   1.951
 3778SOL     OW11791   1.940   2.418   3.248
 3778SOL    HW111792   2.032   2.417   3.207
 3778SOL    HW211793   1.934   2.492   3.315
 3779SOL     OW11794   2.423   2.084   3.009
 3779SOL    HW111795   2.461   2.000   3.046
 3779SOL    HW211796   2.335   2.103   3.053
 3780SOL     OW11797   2.728   2.316   2.504
 3780SOL    HW111798   2.696   2.388   2.442
 3780SOL    HW211799   2.752   2.235   2.451
 3781SOL     OW11800   2.879   1.901   2.615
 3781SOL    HW111801   2.807   1.906   2.546
 3781SOL    HW211802   2.855   1.832   2.684
 3782SOL     OW11803   3.291   3.035   2.729
 3782SOL    HW111804   3.236   2.951   2.722
 3782SOL    HW211805   3.317   3.064   2.637
 3783SOL     OW11806   3.328   2.452   2.854
 3783SOL    HW111807   3.298   2.357   2.861
 3783SOL    HW211808   3.401   2.468   2.920
 3784SOL     OW11809   3.719   2.695   2.239
 3784SOL    HW111810   3.761   2.631   2.303
 3784SOL    HW211811   3.681   2.644   2.161
 3785SOL     OW11812   2.350   3.247   2.036
 3785SOL    HW111813   2.263   3.232   2.083
 3785SOL    HW211814   2.333   3.273   1.941
 3786SOL     OW11815   3.526   3.142   2.519
 3786SOL    HW111816   3.625   3.150   2.533
 3786SOL    HW211817   3.481   3.226   2.550
 3787SOL     OW11818   3.252   2.437   1.940
 3787SOL    HW111819   3.198   2.416   2.021
 3787SOL    HW211820   3.343   2.396   1.949
 3788SOL     OW11821   2.389   2.118   2.190
 3788SOL    HW111822   2.416   2.059   2.115
 3788SOL    HW211823   2.389   2.213   2.159
 3789SOL     OW11824   3.616   3.085   3.450
 3789SOL    HW111825   3.707   3.046   3.437
 3789SOL    HW211826   3.624   3.181   3.474
 3790SOL     OW11827   2.926   3.209   3.202
 3790SOL    HW111828   2.846   3.186   3.257
 3790SOL    HW211829   3.009   3.183   3.251
 3791SOL     OW11830   3.454   3.491   3.487
 3791SOL    HW111831   3.481   3.525   3.397
 3791SOL    HW211832   3.533   3.453   3.533
 3792SOL     OW11833   2.973   3.057   2.962
 3792SOL    HW111834   2.933   3.101   3.043
 3792SOL    HW211835   2.932   3.094   2.879
 3793SOL     OW11836   3.500   2.961   2.941
 3793SOL    HW111837   3.505   3.042   3.000
 3793SOL    HW211838   3.414   2.963   2.890
 3794SOL     OW11839   2.777   1.951   3.264
 3794SOL    HW111840   2.802   1.931   3.169
 3794SOL    HW211841   2.849   2.007   3.306
 3795SOL     OW11842   1.926   3.426   3.193
 3795SOL    HW111843   1.880   3.508   3.159
 3795SOL    HW211844   2.024   3.445   3.202
 3796SOL     OW11845   2.229   2.962   2.363
 3796SOL    HW111846   2.222   3.045   2.307
 3796SOL    HW211847   2.233   2.882   2.303
 3797SOL     OW11848   2.428   2.399   2.727
 3797SOL    HW111849   2.440   2.465   2.653
 3797SOL    HW211850   2.474   2.433   2.810
 3798SOL     OW11851   3.114   3.210   2.250
 3798SOL    HW111852   3.164   3.287   2.290
 3798SOL    HW211853   3.019   3.212   2.282
 3799SOL     OW11854   3.134   3.307   3.004
 3799SOL    HW111855   3.181   3.320   3.091
 3799SOL    HW211856   3.068   3.233   3.013
 3800SOL     OW11857   3.444   2.501   2.334
 3800SOL    HW111858   3.413   2.562   2.407
 3800SOL    HW211859   3.494   2.553   2.265
 3801SOL     OW11860   2.216   3.372   3.191
 3801SOL    HW111861   2.195   3.328   3.104
 3801SOL    HW211862   2.313   3.398   3.194
 3802SOL     OW11863   3.222   2.724   2.907
 3802SOL    HW111864   3.147   2.724   2.841
 3802SOL    HW211865   3.259   2.632   2.916
 3803SOL     OW11866   3.071   2.387   2.137
 3803SOL    HW111867   3.084   2.303   2.191
 3803SOL    HW211868   3.042   2.461   2.197
 3804SOL     OW11869   2.169   2.075   3.093
 3804SOL    HW111870   2.146   2.112   3.183
 3804SOL    HW211871   2.139   1.980   3.087
 3805SOL     OW11872   1.899   3.172   3.144
 3805SOL    HW111873   1.952   3.123   3.212
 3805SOL    HW211874   1.921   3.270   3.149
 3806SOL     OW11875   3.590   2.797   3.716
 3806SOL    HW111876   3.544   2.790   3.627
 3806SOL    HW211877   3.528   2.841   3.782
 3807SOL     OW11878   2.169   1.925   2.480
 3807SOL    HW111879   2.158   2.019   2.513
 3807SOL    HW211880   2.164   1.862   2.557
 3808SOL     OW11881   3.484   2.229   2.236
 3808SOL    HW111882   3.486   2.153   2.300
 3808SOL    HW211883   3.436   2.306   2.276
 3809SOL     OW11884   3.721   3.380   3.467
 3809SOL    HW111885   3.735   3.407   3.372
 3809SOL    HW211886   3.804   3.402   3.520
 3810SOL     OW11887   3.402   2.136   1.987
 3810SOL    HW111888   3.341   2.061   2.010
 3810SOL    HW211889   3.424   2.188   2.070
 3811SOL     OW11890   3.165   2.700   1.904
 3811SOL    HW111891   3.199   2.607   1.919
 3811SOL    HW211892   3.183   2.727   1.809
 3812SOL     OW11893   2.930   3.195   2.711
 3812SOL    HW111894   2.937   3.111   2.656
 3812SOL    HW211895   2.992   3.264   2.675
 3813SOL     OW11896   2.181   2.672   2.811
 3813SOL    HW111897   2.274   2.708   2.816
 3813SOL    HW211898   2.175   2.587   2.863
 3814SOL     OW11899   2.201   2.371   2.868
 3814SOL    HW111900   2.149   2.288   2.851
 3814SOL    HW211901   2.278   2.376   2.804
 3815SOL     OW11902   1.870   3.188   2.062
 3815SOL    HW111903   1.777   3.209   2.031
 3815SOL    HW211904   1.880   3.089   2.075
 3816SOL     OW11905   1.950   3.663   2.789
 3816SOL    HW111906   1.908   3.577   2.762
 3816SOL    HW211907   2.044   3.666   2.755
 3817SOL     OW11908   2.366   3.430   2.772
 3817SOL    HW111909   2.432   3.504   2.781
 3817SOL    HW211910   2.410   3.351   2.730
 3818SOL     OW11911   1.902   2.406   2.976
 3818SOL    HW111912   1.987   2.373   2.935
 3818SOL    HW211913   1.915   2.421   3.074
 3819SOL     OW11914   2.677   2.434   2.187
 3819SOL    HW111915   2.684   2.345   2.141
 3819SOL    HW211916   2.583   2.468   2.179
 3820SOL     OW11917   3.519   2.466   3.068
 3820SOL    HW111918   3.481   2.397   3.130
 3820SOL    HW211919   3.601   2.430   3.024
 3821SOL     OW11920   2.114   3.426   3.606
 3821SOL    HW111921   2.084   3.483   3.682
 3821SOL    HW211922   2.107   3.329   3.632
 3822SOL     OW11923   2.792   3.540   3.327
 3822SOL    HW111924   2.768   3.522   3.232
 3822SOL    HW211925   2.822   3.634   3.337
 3823SOL     OW11926   2.335   2.362   2.053
 3823SOL    HW111927   2.396   2.442   2.057
 3823SOL    HW211928   2.240   2.393   2.060
 3824SOL     OW11929   2.021   2.999   3.328
 3824SOL    HW111930   2.043   2.938   3.404
 3824SOL    HW211931   2.031   2.950   3.242
 3825SOL     OW11932   3.209   2.921   3.096
 3825SOL    HW111933   3.233   2.858   3.022
 3825SOL    HW211934   3.119   2.961   3.078
 3826SOL     OW11935   3.164   2.717   2.171
 3826SOL    HW111936   3.078   2.686   2.213
 3826SOL    HW211937   3.160   2.703   2.072
 3827SOL     OW11938   3.621   3.609   3.016
 3827SOL    HW111939   3.682   3.639   2.943
 3827SOL    HW211940   3.583   3.520   2.994
 3828SOL     OW11941   3.114   3.593   2.990
 3828SOL    HW111942   3.198   3.598   2.936
 3828SOL    HW211943   3.091   3.497   3.008
 3829SOL     OW11944   1.945   3.120   2.884
 3829SOL    HW111945   1.940   3.119   2.984
 3829SOL    HW211946   1.862   3.079   2.846
 3830SOL     OW11947   2.550   3.524   3.578
 3830SOL    HW111948   2.494   3.605   3.587
 3830SOL    HW211949   2.602   3.528   3.492
 3831SOL     OW11950   3.588   1.997   2.385
 3831SOL    HW111951   3.661   1.980   2.318
 3831SOL    HW211952   3.557   1.910   2.423
 3832SOL     OW11953   3.250   3.435   2.339
 3832SOL    HW111954   3.317   3.447   2.265
 3832SOL    HW211955   3.210   3.524   2.362
 3833SOL     OW11956   1.992   3.656   3.713
 3833SOL    HW111957   1.951   3.582   3.766
 3833SOL    HW211958   2.056   3.707   3.771
 3834SOL     OW11959   3.142   2.789   2.534
 3834SOL    HW111960   3.202   2.708   2.536
 3834SOL    HW211961   3.182   2.858   2.474
 3835SOL     OW11962   2.534   3.478   2.016
 3835SOL    HW111963   2.543   3.488   1.917
 3835SOL    HW211964   2.494   3.389   2.037
 3836SOL     OW11965   3.512   3.582   3.256
 3836SOL    HW111966   3.565   3.592   3.172
 3836SOL    HW211967   3.485   3.672   3.290
 3837SOL     OW11968   3.703   2.037   2.825
 3837SOL    HW111969   3.742   1.952   2.789
 3837SOL    HW211970   3.605   2.039   2.806
 3838SOL     OW11971   2.125   2.188   2.582
 3838SOL    HW111972   2.046   2.239   2.548
 3838SOL    HW211973   2.116   2.173   2.680
 3839SOL     OW11974   3.056   3.474   1.893
 3839SOL    HW111975   3.062   3.381   1.930
 3839SOL    HW211976   2.997   3.474   1.813
 3840SOL     OW11977   3.366   3.469   1.906
 3840SOL    HW111978   3.274   3.506   1.913
 3840SOL    HW211979   3.404   3.489   1.816
 3841SOL     OW11980   3.476   3.154   3.151
 3841SOL    HW111981   3.536   3.157   3.231
 3841SOL    HW211982   3.401   3.218   3.164
 3842SOL     OW11983   2.901   2.960   2.558
 3842SOL    HW111984   2.831   2.913   2.612
 3842SOL    HW211985   2.960   2.892   2.515
 3843SOL     OW11986   2.876   2.098   2.833
 3843SOL    HW111987   2.868   2.062   2.740
 3843SOL    HW211988   2.874   2.022   2.898
 3844SOL     OW11989   2.452   3.349   2.353
 3844SOL    HW111990   2.494   3.291   2.283
 3844SOL    HW211991   2.408   3.428   2.309
 3845SOL     OW11992   3.571   2.247   3.243
 3845SOL    HW111993   3.644   2.316   3.247
 3845SOL    HW211994   3.599   2.172   3.184
 3846SOL     OW11995   2.117   3.210   2.152
 3846SOL    HW111996   2.021   3.211   2.125
 3846SOL    HW211997   2.129   3.263   2.236
 3847SOL     OW11998   1.937   2.207   1.895
 3847SOL    HW111999   1.845   2.179   1.866
 3847SOL    HW212000   1.968   2.284   1.839
 3848SOL     OW12001   3.302   2.718   3.260
 3848SOL    HW112002   3.245   2.770   3.197
 3848SOL    HW212003   3.398   2.730   3.236
 3849SOL     OW12004   1.934   2.028   2.180
 3849SOL    HW112005   1.917   2.111   2.126
 3849SOL    HW212006   2.024   1.991   2.158
 3850SOL     OW12007   3.045   3.197   1.981
 3850SOL    HW112008   2.946   3.186   1.983
 3850SOL    HW212009   3.079   3.212   2.074
 3851SOL     OW12010   3.355   3.629   2.821
 3851SOL    HW112011   3.388   3.693   2.752
 3851SOL    HW212012   3.421   3.623   2.896
 3852SOL     OW12013   3.312   3.082   3.495
 3852SOL    HW112014   3.303   3.072   3.594
 3852SOL    HW212015   3.408   3.075   3.469
 3853SOL     OW12016   2.252   3.603   3.422
 3853SOL    HW112017   2.161   3.644   3.420
 3853SOL    HW212018   2.245   3.509   3.454
 3854SOL     OW12019   3.536   2.745   3.116
 3854SOL    HW112020   3.509   2.656   3.079
 3854SOL    HW212021   3.537   2.813   3.043
 3855SOL     OW12022   3.087   2.187   2.311
 3855SOL    HW112023   3.152   2.113   2.300
 3855SOL    HW212024   3.107   2.237   2.395
 3856SOL     OW12025   3.639   2.204   3.504
 3856SOL    HW112026   3.622   2.235   3.410
 3856SOL    HW212027   3.555   2.167   3.542
 3857SOL     OW12028   3.592   2.796   3.379
 3857SOL    HW112029   3.630   2.887   3.394
 3857SOL    HW212030   3.584   2.779   3.280
 3858SOL     OW12031   2.721   3.236   1.878
 3858SOL    HW112032   2.675   3.251   1.966
 3858SOL    HW212033   2.765   3.321   1.848
 3859SOL     OW12034   2.523   3.652   2.815
 3859SOL    HW112035   2.477   3.740   2.802
 3859SOL    HW212036   2.622   3.664   2.808
 3860SOL     OW12037   2.945   2.846   1.949
 3860SOL    HW112038   2.922   2.899   1.867
 3860SOL    HW212039   3.026   2.790   1.930
 3861SOL     OW12040   3.723   3.431   2.713
 3861SOL    HW112041   3.652   3.419   2.643
 3861SOL    HW212042   3.724   3.352   2.773
 3862SOL     OW12043   1.941   3.102   2.515
 3862SOL    HW112044   1.940   3.055   2.603
 3862SOL    HW212045   2.023   3.074   2.464
 3863SOL     OW12046   3.686   2.054   3.089
 3863SOL    HW112047   3.682   1.964   3.133
 3863SOL    HW212048   3.689   2.043   2.990
 3864SOL     OW12049   2.290   2.286   2.382
 3864SOL    HW112050   2.320   2.214   2.320
 3864SOL    HW212051   2.251   2.246   2.465
 3865SOL     OW12052   3.567   3.349   2.966
 3865SOL    HW112053   3.474   3.324   2.939
 3865SOL    HW212054   3.593   3.299   3.048
 3866SOL     OW12055   2.674   3.448   2.549
 3866SOL    HW112056   2.706   3.458   2.455
 3866SOL    HW212057   2.595   3.386   2.551
 3867SOL     OW12058   3.286   2.076   2.974
 3867SOL    HW112059   3.338   2.011   3.029
 3867SOL    HW212060   3.237   2.139   3.035
 3868SOL     OW12061   2.863   1.896   3.016
 3868SOL    HW112062   2.800   1.824   2.985
 3868SOL    HW212063   2.956   1.860   3.016
 3869SOL     OW12064   2.632   3.192   2.163
 3869SOL    HW112065   2.586   3.105   2.180
 3869SOL    HW212066   2.723   3.189   2.204
 3870SOL     OW12067   2.480   3.429   3.146
 3870SOL    HW112068   2.475   3.511   3.203
 3870SOL    HW212069   2.569   3.426   3.101
 3871SOL     OW12070   3.214   1.914   2.030
 3871SOL    HW112071   3.249   1.873   1.946
 3871SOL    HW212072   3.124   1.876   2.050
 3872SOL     OW12073   3.162   2.315   2.553
 3872SOL    HW112074   3.103   2.395   2.557
 3872SOL    HW212075   3.177   2.280   2.646
 3873SOL     OW12076   3.455   2.083   2.744
 3873SOL    HW112077   3.371   2.082   2.798
 3873SOL    HW212078   3.457   2.166   2.688
 3874SOL     OW12079   1.901   2.939   2.162
 3874SOL    HW112080   2.000   2.928   2.153
 3874SOL    HW212081   1.861   2.853   2.194
 3875SOL     OW12082   2.737   3.508   2.199
 3875SOL    HW112083   2.660   3.473   2.145
 3875SOL    HW212084   2.705   3.579   2.261
 3876SOL     OW12085   2.087   2.137   4.720
 3876SOL    HW112086   2.122   2.120   4.812
 3876SOL    HW212087   1.999   2.092   4.708
 3877SOL     OW12088   1.881   2.230   4.371
 3877SOL    HW112089   1.799   2.273   4.410
 3877SOL    HW212090   1.853   2.157   4.308
 3878SOL     OW12091   2.431   3.137   4.889
 3878SOL    HW112092   2.338   3.130   4.852
 3878SOL    HW212093   2.442   3.226   4.933
 3879SOL     OW12094   3.417   3.373   4.427
 3879SOL    HW112095   3.360   3.357   4.508
 3879SOL    HW212096   3.358   3.383   4.347
 3880SOL     OW12097   3.617   2.469   3.955
 3880SOL    HW112098   3.605   2.456   3.856
 3880SOL    HW212099   3.587   2.388   4.004
 3881SOL     OW12100   2.548   3.023   5.527
 3881SOL    HW112101   2.608   3.102   5.541
 3881SOL    HW212102   2.462   3.054   5.486
 3882SOL     OW12103   2.197   3.297   4.785
 3882SOL    HW112104   2.119   3.266   4.732
 3882SOL    HW212105   2.255   3.355   4.728
 3883SOL     OW12106   3.322   3.367   5.063
 3883SOL    HW112107   3.346   3.461   5.089
 3883SOL    HW212108   3.306   3.313   5.145
 3884SOL     OW12109   2.300   2.254   5.223
 3884SOL    HW112110   2.382   2.198   5.232
 3884SOL    HW212111   2.219   2.196   5.227
 3885SOL     OW12112   3.465   2.309   4.461
 3885SOL    HW112113   3.391   2.355   4.411
 3885SOL    HW212114   3.516   2.377   4.514
 3886SOL     OW12115   2.093   3.575   4.207
 3886SOL    HW112116   2.127   3.652   4.261
 3886SOL    HW212117   2.137   3.575   4.117
 3887SOL     OW12118   2.989   3.203   5.414
 3887SOL    HW112119   3.036   3.203   5.502
 3887SOL    HW212120   2.941   3.116   5.403
 3888SOL     OW12121   2.092   3.296   4.262
 3888SOL    HW112122   2.066   3.392   4.262
 3888SOL    HW212123   2.021   3.242   4.307
 3889SOL     OW12124   2.482   3.648   5.163
 3889SOL    HW112125   2.390   3.631   5.198
 3889SOL    HW212126   2.510   3.740   5.189
 3890SOL     OW12127   2.468   2.826   3.847
 3890SOL    HW112128   2.475   2.910   3.793
 3890SOL    HW212129   2.514   2.839   3.935
 3891SOL     OW12130   3.456   1.976   5.204
 3891SOL    HW112131   3.438   2.043   5.132
 3891SOL    HW212132   3.453   2.022   5.293
 3892SOL     OW12133   1.984   2.505   4.287
 3892SOL    HW112134   1.939   2.417   4.304
 3892SOL    HW212135   1.983   2.559   4.371
 3893SOL     OW12136   3.704   3.629   4.083
 3893SOL    HW112137   3.758   3.600   4.163
 3893SOL    HW212138   3.734   3.719   4.054
 3894SOL     OW12139   1.889   3.458   3.841
 3894SOL    HW112140   1.870   3.362   3.862
 3894SOL    HW212141   1.856   3.516   3.916
 3895SOL     OW12142   3.551   2.784   4.336
 3895SOL    HW112143   3.646   2.755   4.344
 3895SOL    HW212144   3.543   2.849   4.261
 3896SOL     OW12145   3.503   2.970   4.156
 3896SOL    HW112146   3.589   2.972   4.104
 3896SOL    HW212147   3.517   3.017   4.244
 3897SOL     OW12148   1.975   2.599   5.321
 3897SOL    HW112149   2.063   2.586   5.366
 3897SOL    HW212150   1.962   2.696   5.299
 3898SOL     OW12151   3.155   3.090   5.147
 3898SOL    HW112152   3.192   3.017   5.089
 3898SOL    HW212153   3.207   3.095   5.232
 3899SOL     OW12154   2.671   1.866   4.226
 3899SOL    HW112155   2.711   1.957   4.217
 3899SOL    HW212156   2.571   1.874   4.232
 3900SOL     OW12157   2.059   2.838   4.988
 3900SOL    HW112158   2.148   2.793   4.974
 3900SOL    HW212159   1.986   2.773   4.969
 3901SOL     OW12160   3.387   2.861   3.914
 3901SOL    HW112161   3.324   2.785   3.927
 3901SOL    HW212162   3.435   2.879   4.000
 3902SOL     OW12163   3.049   3.654   5.340
 3902SOL    HW112164   3.073   3.714   5.264
 3902SOL    HW212165   3.056   3.559   5.310
 3903SOL     OW12166   2.179   2.113   5.525
 3903SOL    HW112167   2.250   2.184   5.531
 3903SOL    HW212168   2.091   2.152   5.553
 3904SOL     OW12169   3.328   3.279   4.677
 3904SOL    HW112170   3.269   3.285   4.757
 3904SOL    HW212171   3.313   3.191   4.631
 3905SOL     OW12172   3.529   3.576   4.296
 3905SOL    HW112173   3.488   3.553   4.208
 3905SOL    HW212174   3.511   3.502   4.361
 3906SOL     OW12175   3.438   3.524   4.031
 3906SOL    HW112176   3.527   3.570   4.034
 3906SOL    HW212177   3.417   3.500   3.936
 3907SOL     OW12178   3.256   2.331   5.398
 3907SOL    HW112179   3.236   2.374   5.486
 3907SOL    HW212180   3.334   2.269   5.407
 3908SOL     OW12181   2.903   2.563   4.153
 3908SOL    HW112182   2.929   2.559   4.249
 3908SOL    HW212183   2.818   2.512   4.139
 3909SOL     OW12184   1.992   3.683   5.295
 3909SOL    HW112185   1.982   3.668   5.394
 3909SOL    HW212186   1.906   3.719   5.259
 3910SOL     OW12187   3.581   2.447   5.555
 3910SOL    HW112188   3.555   2.536   5.519
 3910SOL    HW212189   3.579   2.379   5.482
 3911SOL     OW12190   2.870   3.318   4.201
 3911SOL    HW112191   2.824   3.390   4.149
 3911SOL    HW212192   2.866   3.338   4.299
 3912SOL     OW12193   2.213   3.663   4.577
 3912SOL    HW112194   2.263   3.577   4.583
 3912SOL    HW212195   2.278   3.740   4.574
 3913SOL     OW12196   3.657   2.928   4.597
 3913SOL    HW112197   3.595   2.913   4.521
 3913SOL    HW212198   3.605   2.939   4.682
 3914SOL     OW12199   3.089   3.412   5.230
 3914SOL    HW112200   3.095   3.335   5.294
 3914SOL    HW212201   3.037   3.386   5.150
 3915SOL     OW12202   2.323   3.128   5.451
 3915SOL    HW112203   2.273   3.129   5.365
 3915SOL    HW212204   2.260   3.110   5.527
 3916SOL     OW12205   2.973   3.638   3.961
 3916SOL    HW112206   2.913   3.576   4.011
 3916SOL    HW212207   3.004   3.594   3.876
 3917SOL     OW12208   2.064   2.147   5.222
 3917SOL    HW112209   1.984   2.207   5.209
 3917SOL    HW212210   2.054   2.098   5.308
 3918SOL     OW12211   3.494   3.239   3.805
 3918SOL    HW112212   3.462   3.333   3.795
 3918SOL    HW212213   3.418   3.176   3.793
 3919SOL     OW12214   2.326   3.605   4.047
 3919SOL    HW112215   2.359   3.644   4.133
 3919SOL    HW212216   2.402   3.598   3.982
 3920SOL     OW12217   3.262   1.969   4.150
 3920SOL    HW112218   3.238   1.932   4.060
 3920SOL    HW212219   3.361   1.985   4.154
 3921SOL     OW12220   2.111   3.647   4.965
 3921SOL    HW112221   2.168   3.582   5.015
 3921SOL    HW212222   2.095   3.614   4.872
 3922SOL     OW12223   2.802   3.560   4.628
 3922SOL    HW112224   2.882   3.503   4.649
 3922SOL    HW212225   2.753   3.520   4.551
 3923SOL     OW12226   3.409   2.084   5.453
 3923SOL    HW112227   3.404   2.121   5.545
 3923SOL    HW212228   3.337   2.015   5.441
 3924SOL     OW12229   2.643   2.126   5.473
 3924SOL    HW112230   2.710   2.065   5.516
 3924SOL    HW212231   2.570   2.145   5.538
 3925SOL     OW12232   2.750   3.376   4.919
 3925SOL    HW112233   2.727   3.351   4.825
 3925SOL    HW212234   2.811   3.307   4.958
 3926SOL     OW12235   3.213   2.452   5.157
 3926SOL    HW112236   3.241   2.409   5.242
 3926SOL    HW212237   3.238   2.548   5.158
 3927SOL     OW12238   2.401   1.926   4.236
 3927SOL    HW112239   2.320   1.927   4.294
 3927SOL    HW212240   2.404   2.009   4.181
 3928SOL     OW12241   3.296   3.050   3.765
 3928SOL    HW112242   3.328   2.974   3.822
 3928SOL    HW212243   3.204   3.077   3.795
 3929SOL     OW12244   2.159   1.897   3.895
 3929SOL    HW112245   2.208   1.981   3.874
 3929SOL    HW212246   2.221   1.832   3.940
 3930SOL     OW12247   2.938   2.545   5.188
 3930SOL    HW112248   2.858   2.484   5.191
 3930SOL    HW212249   3.019   2.492   5.164
 3931SOL     OW12250   3.089   3.432   4.517
 3931SOL    HW112251   3.110   3.506   4.452
 3931SOL    HW212252   3.157   3.432   4.590
 3932SOL     OW12253   3.133   3.659   4.315
 3932SOL    HW112254   3.177   3.723   4.251
 3932SOL    HW212255   3.083   3.711   4.385
 3933SOL     OW12256   1.940   2.418   5.110
 3933SOL    HW112257   2.032   2.417   5.069
 3933SOL    HW212258   1.934   2.492   5.177
 3934SOL     OW12259   2.423   2.084   4.871
 3934SOL    HW112260   2.461   2.000   4.908
 3934SOL    HW212261   2.335   2.103   4.915
 3935SOL     OW12262   3.328   2.452   4.716
 3935SOL    HW112263   3.298   2.357   4.723
 3935SOL    HW212264   3.401   2.468   4.782
 3936SOL     OW12265   3.719   2.695   4.101
 3936SOL    HW112266   3.761   2.631   4.165
 3936SOL    HW212267   3.681   2.644   4.023
 3937SOL     OW12268   3.526   3.142   4.381
 3937SOL    HW112269   3.625   3.150   4.395
 3937SOL    HW212270   3.481   3.226   4.412
 3938SOL     OW12271   2.389   2.118   4.052
 3938SOL    HW112272   2.416   2.059   3.977
 3938SOL    HW212273   2.389   2.213   4.021
 3939SOL     OW12274   3.616   3.085   5.312
 3939SOL    HW112275   3.707   3.046   5.299
 3939SOL    HW212276   3.624   3.181   5.336
 3940SOL     OW12277   2.926   3.209   5.064
 3940SOL    HW112278   2.846   3.186   5.119
 3940SOL    HW212279   3.009   3.183   5.113
 3941SOL     OW12280   3.454   3.491   5.349
 3941SOL    HW112281   3.481   3.525   5.259
 3941SOL    HW212282   3.533   3.453   5.395
 3942SOL     OW12283   3.500   2.961   4.803
 3942SOL    HW112284   3.505   3.042   4.862
 3942SOL    HW212285   3.414   2.963   4.752
 3943SOL     OW12286   2.777   1.951   5.126
 3943SOL    HW112287   2.802   1.931   5.031
 3943SOL    HW212288   2.849   2.007   5.168
 3944SOL     OW12289   2.842   2.978   5.443
 3944SOL    HW112290   2.743   2.984   5.453
 3944SOL    HW212291   2.865   2.898   5.387
 3945SOL     OW12292   2.567   2.912   4.092
 3945SOL    HW112293   2.553   2.919   4.191
 3945SOL    HW212294   2.651   2.861   4.074
 3946SOL     OW12295   2.272   2.675   4.975
 3946SOL    HW112296   2.358   2.687   5.025
 3946SOL    HW212297   2.230   2.588   5.002
 3947SOL     OW12298   3.136   2.248   4.986
 3947SOL    HW112299   3.157   2.322   5.050
 3947SOL    HW212300   3.047   2.265   4.943
 3948SOL     OW12301   1.926   3.426   5.055
 3948SOL    HW112302   1.880   3.508   5.021
 3948SOL    HW212303   2.024   3.445   5.064
 3949SOL     OW12304   3.114   3.210   4.112
 3949SOL    HW112305   3.164   3.287   4.152
 3949SOL    HW212306   3.019   3.212   4.144
 3950SOL     OW12307   3.134   3.307   4.866
 3950SOL    HW112308   3.181   3.320   4.953
 3950SOL    HW212309   3.068   3.233   4.875
 3951SOL     OW12310   3.444   2.501   4.196
 3951SOL    HW112311   3.413   2.562   4.269
 3951SOL    HW212312   3.494   2.553   4.127
 3952SOL     OW12313   2.216   3.372   5.053
 3952SOL    HW112314   2.195   3.328   4.966
 3952SOL    HW212315   2.313   3.398   5.056
 3953SOL     OW12316   2.264   2.613   5.322
 3953SOL    HW112317   2.332   2.668   5.275
 3953SOL    HW212318   2.304   2.525   5.349
 3954SOL     OW12319   3.449   2.641   5.394
 3954SOL    HW112320   3.357   2.679   5.389
 3954SOL    HW212321   3.509   2.688   5.329
 3955SOL     OW12322   2.875   1.967   5.494
 3955SOL    HW112323   2.881   2.052   5.442
 3955SOL    HW212324   2.907   1.891   5.437
 3956SOL     OW12325   2.366   1.912   5.464
 3956SOL    HW112326   2.324   1.855   5.394
 3956SOL    HW212327   2.300   1.981   5.496
 3957SOL     OW12328   2.169   2.075   4.955
 3957SOL    HW112329   2.146   2.112   5.045
 3957SOL    HW212330   2.139   1.980   4.949
 3958SOL     OW12331   1.899   3.172   5.006
 3958SOL    HW112332   1.952   3.123   5.074
 3958SOL    HW212333   1.921   3.270   5.011
 3959SOL     OW12334   3.590   2.797   5.578
 3959SOL    HW112335   3.544   2.790   5.489
 3959SOL    HW212336   3.528   2.841   5.644
 3960SOL     OW12337   2.169   1.925   4.342
 3960SOL    HW112338   2.158   2.019   4.375
 3960SOL    HW212339   2.164   1.862   4.419
 3961SOL     OW12340   3.484   2.229   4.098
 3961SOL    HW112341   3.486   2.153   4.162
 3961SOL    HW212342   3.436   2.306   4.138
 3962SOL     OW12343   2.842   3.435   5.424
 3962SOL    HW112344   2.822   3.479   5.336
 3962SOL    HW212345   2.881   3.344   5.408
 3963SOL     OW12346   3.721   3.380   5.329
 3963SOL    HW112347   3.735   3.407   5.234
 3963SOL    HW212348   3.804   3.402   5.382
 3964SOL     OW12349   2.212   2.760   5.528
 3964SOL    HW112350   2.288   2.804   5.576
 3964SOL    HW212351   2.247   2.713   5.446
 3965SOL     OW12352   3.402   2.136   3.849
 3965SOL    HW112353   3.341   2.061   3.872
 3965SOL    HW212354   3.424   2.188   3.932
 3966SOL     OW12355   3.000   2.242   5.402
 3966SOL    HW112356   2.955   2.305   5.466
 3966SOL    HW212357   3.093   2.273   5.385
 3967SOL     OW12358   3.022   2.069   5.201
 3967SOL    HW112359   3.022   2.133   5.278
 3967SOL    HW212360   3.050   2.117   5.118
 3968SOL     OW12361   1.870   3.188   3.924
 3968SOL    HW112362   1.777   3.209   3.893
 3968SOL    HW212363   1.880   3.089   3.937
 3969SOL     OW12364   1.950   3.663   4.651
 3969SOL    HW112365   1.908   3.577   4.624
 3969SOL    HW212366   2.044   3.666   4.617
 3970SOL     OW12367   2.366   3.430   4.634
 3970SOL    HW112368   2.432   3.504   4.643
 3970SOL    HW212369   2.410   3.351   4.592
 3971SOL     OW12370   2.051   2.382   5.446
 3971SOL    HW112371   2.110   2.342   5.376
 3971SOL    HW212372   1.993   2.453   5.405
 3972SOL     OW12373   3.231   2.812   5.384
 3972SOL    HW112374   3.270   2.901   5.404
 3972SOL    HW212375   3.241   2.792   5.287
 3973SOL     OW12376   3.519   2.466   4.930
 3973SOL    HW112377   3.481   2.397   4.992
 3973SOL    HW212378   3.601   2.430   4.886
 3974SOL     OW12379   2.114   3.426   5.468
 3974SOL    HW112380   2.084   3.483   5.544
 3974SOL    HW212381   2.107   3.329   5.494
 3975SOL     OW12382   2.533   2.326   4.993
 3975SOL    HW112383   2.499   2.237   4.963
 3975SOL    HW212384   2.559   2.380   4.913
 3976SOL     OW12385   2.792   3.540   5.189
 3976SOL    HW112386   2.768   3.522   5.094
 3976SOL    HW212387   2.822   3.634   5.199
 3977SOL     OW12388   2.021   2.999   5.190
 3977SOL    HW112389   2.043   2.938   5.266
 3977SOL    HW212390   2.031   2.950   5.104
 3978SOL     OW12391   3.621   3.609   4.878
 3978SOL    HW112392   3.682   3.639   4.805
 3978SOL    HW212393   3.583   3.520   4.856
 3979SOL     OW12394   3.114   3.593   4.852
 3979SOL    HW112395   3.198   3.598   4.798
 3979SOL    HW212396   3.091   3.497   4.870
 3980SOL     OW12397   1.945   3.120   4.746
 3980SOL    HW112398   1.940   3.119   4.846
 3980SOL    HW212399   1.862   3.079   4.708
 3981SOL     OW12400   2.550   3.524   5.440
 3981SOL    HW112401   2.494   3.605   5.449
 3981SOL    HW212402   2.602   3.528   5.354
 3982SOL     OW12403   3.588   1.997   4.247
 3982SOL    HW112404   3.661   1.980   4.180
 3982SOL    HW212405   3.557   1.910   4.285
 3983SOL     OW12406   3.250   3.435   4.201
 3983SOL    HW112407   3.317   3.447   4.127
 3983SOL    HW212408   3.210   3.524   4.224
 3984SOL     OW12409   1.992   3.656   5.575
 3984SOL    HW112410   1.951   3.582   5.628
 3984SOL    HW212411   2.056   3.707   5.633
 3985SOL     OW12412   2.692   3.135   5.146
 3985SOL    HW112413   2.687   3.168   5.241
 3985SOL    HW212414   2.606   3.154   5.100
 3986SOL     OW12415   2.534   3.478   3.878
 3986SOL    HW112416   2.543   3.488   3.779
 3986SOL    HW212417   2.494   3.389   3.899
 3987SOL     OW12418   3.512   3.582   5.118
 3987SOL    HW112419   3.565   3.592   5.034
 3987SOL    HW212420   3.485   3.672   5.152
 3988SOL     OW12421   3.703   2.037   4.687
 3988SOL    HW112422   3.742   1.952   4.651
 3988SOL    HW212423   3.605   2.039   4.668
 3989SOL     OW12424   3.056   3.474   3.755
 3989SOL    HW112425   3.062   3.381   3.792
 3989SOL    HW212426   2.997   3.474   3.675
 3990SOL     OW12427   3.366   3.469   3.768
 3990SOL    HW112428   3.274   3.506   3.775
 3990SOL    HW212429   3.404   3.489   3.678
 3991SOL     OW12430   2.234   3.150   5.214
 3991SOL    HW112431   2.221   3.243   5.180
 3991SOL    HW212432   2.150   3.098   5.201
 3992SOL     OW12433   3.476   3.154   5.013
 3992SOL    HW112434   3.536   3.157   5.093
 3992SOL    HW212435   3.401   3.218   5.026
 3993SOL     OW12436   2.452   3.349   4.215
 3993SOL    HW112437   2.494   3.291   4.145
 3993SOL    HW212438   2.408   3.428   4.171
 3994SOL     OW12439   3.571   2.247   5.105
 3994SOL    HW112440   3.644   2.316   5.109
 3994SOL    HW212441   3.599   2.172   5.046
 3995SOL     OW12442   2.117   3.210   4.014
 3995SOL    HW112443   2.021   3.211   3.987
 3995SOL    HW212444   2.129   3.263   4.098
 3996SOL     OW12445   1.967   2.875   5.450
 3996SOL    HW112446   1.890   2.842   5.504
 3996SOL    HW212447   2.052   2.845   5.492
 3997SOL     OW12448   2.534   2.065   5.213
 3997SOL    HW112449   2.624   2.049   5.173
 3997SOL    HW212450   2.542   2.070   5.312
 3998SOL     OW12451   1.937   2.207   3.757
 3998SOL    HW112452   1.845   2.179   3.728
 3998SOL    HW212453   1.968   2.284   3.701
 3999SOL     OW12454   3.302   2.718   5.122
 3999SOL    HW112455   3.245   2.770   5.059
 3999SOL    HW212456   3.398   2.730   5.098
 4000SOL     OW12457   1.934   2.028   4.042
 4000SOL    HW112458   1.917   2.111   3.988
 4000SOL    HW212459   2.024   1.991   4.020
 4001SOL     OW12460   3.355   3.629   4.683
 4001SOL    HW112461   3.388   3.693   4.614
 4001SOL    HW212462   3.421   3.623   4.758
 4002SOL     OW12463   3.312   3.082   5.357
 4002SOL    HW112464   3.303   3.072   5.456
 4002SOL    HW212465   3.408   3.075   5.331
 4003SOL     OW12466   2.252   3.603   5.284
 4003SOL    HW112467   2.161   3.644   5.282
 4003SOL    HW212468   2.245   3.509   5.316
 4004SOL     OW12469   3.536   2.745   4.978
 4004SOL    HW112470   3.509   2.656   4.941
 4004SOL    HW212471   3.537   2.813   4.905
 4005SOL     OW12472   3.639   2.204   5.366
 4005SOL    HW112473   3.622   2.235   5.272
 4005SOL    HW212474   3.555   2.167   5.404
 4006SOL     OW12475   3.592   2.796   5.241
 4006SOL    HW112476   3.630   2.887   5.256
 4006SOL    HW212477   3.584   2.779   5.142
 4007SOL     OW12478   2.523   3.652   4.677
 4007SOL    HW112479   2.477   3.740   4.664
 4007SOL    HW212480   2.622   3.664   4.670
 4008SOL     OW12481   3.723   3.431   4.575
 4008SOL    HW112482   3.652   3.419   4.505
 4008SOL    HW212483   3.724   3.352   4.635
 4009SOL     OW12484   2.083   3.176   5.568
 4009SOL    HW112485   2.018   3.103   5.547
 4009SOL    HW212486   2.087   3.190   5.666
 4010SOL     OW12487   1.941   3.102   4.377
 4010SOL    HW112488   1.940   3.055   4.465
 4010SOL    HW212489   2.023   3.074   4.326
 4011SOL     OW12490   2.534   3.253   5.348
 4011SOL    HW112491   2.456   3.203   5.386
 4011SOL    HW212492   2.531   3.348   5.379
 4012SOL     OW12493   3.686   2.054   4.951
 4012SOL    HW112494   3.682   1.964   4.995
 4012SOL    HW212495   3.689   2.043   4.852
 4013SOL     OW12496   3.567   3.349   4.828
 4013SOL    HW112497   3.474   3.324   4.801
 4013SOL    HW212498   3.593   3.299   4.910
 4014SOL     OW12499   2.674   3.448   4.411
 4014SOL    HW112500   2.706   3.458   4.317
 4014SOL    HW212501   2.595   3.386   4.413
 4015SOL     OW12502   3.286   2.076   4.836
 4015SOL    HW112503   3.338   2.011   4.891
 4015SOL    HW212504   3.237   2.139   4.897
 4016SOL     OW12505   2.863   1.896   4.878
 4016SOL    HW112506   2.800   1.824   4.847
 4016SOL    HW212507   2.956   1.860   4.878
 4017SOL     OW12508   2.632   3.192   4.025
 4017SOL    HW112509   2.586   3.105   4.042
 4017SOL    HW212510   2.723   3.189   4.066
 4018SOL     OW12511   2.480   3.429   5.008
 4018SOL    HW112512   2.475   3.511   5.065
 4018SOL    HW212513   2.569   3.426   4.963
 4019SOL     OW12514   3.214   1.914   3.892
 4019SOL    HW112515   3.249   1.873   3.808
 4019SOL    HW212516   3.124   1.876   3.912
 4020SOL     OW12517   3.455   2.083   4.606
 4020SOL    HW112518   3.371   2.082   4.660
 4020SOL    HW212519   3.457   2.166   4.550
 4021SOL     OW12520   1.901   2.939   4.024
 4021SOL    HW112521   2.000   2.928   4.015
 4021SOL    HW212522   1.861   2.853   4.056
 4022SOL     OW12523   2.737   3.508   4.061
 4022SOL    HW112524   2.660   3.473   4.007
 4022SOL    HW212525   2.705   3.579   4.123
 4023SOL     OW12526   2.092   2.490   5.699
 4023SOL    HW112527   1.999   2.488   5.736
 4023SOL    HW212528   2.093   2.451   5.607
 4024SOL     OW12529   2.087   2.137   6.582
 4024SOL    HW112530   2.122   2.120   6.674
 4024SOL    HW212531   1.999   2.092   6.570
 4025SOL     OW12532   1.881   2.230   6.233
 4025SOL    HW112533   1.799   2.273   6.272
 4025SOL    HW212534   1.853   2.157   6.170
 4026SOL     OW12535   2.431   3.137   6.751
 4026SOL    HW112536   2.338   3.130   6.714
 4026SOL    HW212537   2.442   3.226   6.795
 4027SOL     OW12538   3.417   3.373   6.289
 4027SOL    HW112539   3.360   3.357   6.370
 4027SOL    HW212540   3.358   3.383   6.209
 4028SOL     OW12541   2.997   2.565   6.303
 4028SOL    HW112542   3.054   2.643   6.278
 4028SOL    HW212543   2.937   2.591   6.379
 4029SOL     OW12544   3.617   2.469   5.817
 4029SOL    HW112545   3.605   2.456   5.718
 4029SOL    HW212546   3.587   2.388   5.866
 4030SOL     OW12547   2.630   3.006   6.609
 4030SOL    HW112548   2.552   3.023   6.669
 4030SOL    HW212549   2.664   3.093   6.573
 4031SOL     OW12550   2.548   3.023   7.389
 4031SOL    HW112551   2.608   3.102   7.403
 4031SOL    HW212552   2.462   3.054   7.348
 4032SOL     OW12553   2.197   3.297   6.647
 4032SOL    HW112554   2.119   3.266   6.594
 4032SOL    HW212555   2.255   3.355   6.590
 4033SOL     OW12556   3.322   3.367   6.925
 4033SOL    HW112557   3.346   3.461   6.951
 4033SOL    HW212558   3.306   3.313   7.007
 4034SOL     OW12559   2.300   2.254   7.085
 4034SOL    HW112560   2.382   2.198   7.094
 4034SOL    HW212561   2.219   2.196   7.089
 4035SOL     OW12562   3.465   2.309   6.323
 4035SOL    HW112563   3.391   2.355   6.273
 4035SOL    HW212564   3.516   2.377   6.376
 4036SOL     OW12565   2.093   3.575   6.069
 4036SOL    HW112566   2.127   3.652   6.123
 4036SOL    HW212567   2.137   3.575   5.979
 4037SOL     OW12568   2.989   3.203   7.276
 4037SOL    HW112569   3.036   3.203   7.364
 4037SOL    HW212570   2.941   3.116   7.265
 4038SOL     OW12571   2.092   3.296   6.124
 4038SOL    HW112572   2.066   3.392   6.124
 4038SOL    HW212573   2.021   3.242   6.169
 4039SOL     OW12574   2.102   2.953   6.472
 4039SOL    HW112575   2.116   2.869   6.524
 4039SOL    HW212576   2.047   3.017   6.527
 4040SOL     OW12577   2.482   3.648   7.025
 4040SOL    HW112578   2.390   3.631   7.060
 4040SOL    HW212579   2.510   3.740   7.051
 4041SOL     OW12580   2.468   2.826   5.709
 4041SOL    HW112581   2.475   2.910   5.655
 4041SOL    HW212582   2.514   2.839   5.797
 4042SOL     OW12583   3.456   1.976   7.066
 4042SOL    HW112584   3.438   2.043   6.994
 4042SOL    HW212585   3.453   2.022   7.155
 4043SOL     OW12586   1.984   2.505   6.149
 4043SOL    HW112587   1.939   2.417   6.166
 4043SOL    HW212588   1.983   2.559   6.233
 4044SOL     OW12589   3.704   3.629   5.945
 4044SOL    HW112590   3.758   3.600   6.025
 4044SOL    HW212591   3.734   3.719   5.916
 4045SOL     OW12592   1.889   3.458   5.703
 4045SOL    HW112593   1.870   3.362   5.724
 4045SOL    HW212594   1.856   3.516   5.778
 4046SOL     OW12595   3.551   2.784   6.198
 4046SOL    HW112596   3.646   2.755   6.206
 4046SOL    HW212597   3.543   2.849   6.123
 4047SOL     OW12598   3.503   2.970   6.018
 4047SOL    HW112599   3.589   2.972   5.966
 4047SOL    HW212600   3.517   3.017   6.106
 4048SOL     OW12601   1.975   2.599   7.183
 4048SOL    HW112602   2.063   2.586   7.228
 4048SOL    HW212603   1.962   2.696   7.161
 4049SOL     OW12604   2.475   3.227   6.312
 4049SOL    HW112605   2.426   3.140   6.321
 4049SOL    HW212606   2.452   3.270   6.225
 4050SOL     OW12607   3.155   3.090   7.009
 4050SOL    HW112608   3.192   3.017   6.951
 4050SOL    HW212609   3.207   3.095   7.094
 4051SOL     OW12610   2.671   1.866   6.088
 4051SOL    HW112611   2.711   1.957   6.079
 4051SOL    HW212612   2.571   1.874   6.094
 4052SOL     OW12613   2.059   2.838   6.850
 4052SOL    HW112614   2.148   2.793   6.836
 4052SOL    HW212615   1.986   2.773   6.831
 4053SOL     OW12616   3.387   2.861   5.776
 4053SOL    HW112617   3.324   2.785   5.789
 4053SOL    HW212618   3.435   2.879   5.862
 4054SOL     OW12619   3.049   3.654   7.202
 4054SOL    HW112620   3.073   3.714   7.126
 4054SOL    HW212621   3.056   3.559   7.172
 4055SOL     OW12622   2.179   2.113   7.387
 4055SOL    HW112623   2.250   2.184   7.393
 4055SOL    HW212624   2.091   2.152   7.415
 4056SOL     OW12625   3.328   3.279   6.539
 4056SOL    HW112626   3.269   3.285   6.619
 4056SOL    HW212627   3.313   3.191   6.493
 4057SOL     OW12628   3.529   3.576   6.158
 4057SOL    HW112629   3.488   3.553   6.070
 4057SOL    HW212630   3.511   3.502   6.223
 4058SOL     OW12631   3.143   2.207   6.530
 4058SOL    HW112632   3.057   2.157   6.517
 4058SOL    HW212633   3.205   2.153   6.586
 4059SOL     OW12634   3.438   3.524   5.893
 4059SOL    HW112635   3.527   3.570   5.896
 4059SOL    HW212636   3.417   3.500   5.798
 4060SOL     OW12637   3.256   2.331   7.260
 4060SOL    HW112638   3.236   2.374   7.348
 4060SOL    HW212639   3.334   2.269   7.269
 4061SOL     OW12640   2.853   2.272   6.828
 4061SOL    HW112641   2.776   2.306   6.882
 4061SOL    HW212642   2.819   2.221   6.749
 4062SOL     OW12643   1.938   2.673   6.375
 4062SOL    HW112644   2.037   2.661   6.384
 4062SOL    HW212645   1.914   2.768   6.396
 4063SOL     OW12646   1.992   3.683   7.157
 4063SOL    HW112647   1.982   3.668   7.256
 4063SOL    HW212648   1.906   3.719   7.121
 4064SOL     OW12649   2.727   2.210   5.781
 4064SOL    HW112650   2.786   2.273   5.732
 4064SOL    HW212651   2.746   2.116   5.752
 4065SOL     OW12652   3.581   2.447   7.417
 4065SOL    HW112653   3.555   2.536   7.381
 4065SOL    HW212654   3.579   2.379   7.344
 4066SOL     OW12655   3.224   3.006   6.131
 4066SOL    HW112656   3.307   2.977   6.083
 4066SOL    HW212657   3.175   3.073   6.075
 4067SOL     OW12658   2.412   2.058   6.471
 4067SOL    HW112659   2.407   2.053   6.571
 4067SOL    HW212660   2.414   2.154   6.442
 4068SOL     OW12661   2.870   3.318   6.063
 4068SOL    HW112662   2.824   3.390   6.011
 4068SOL    HW212663   2.866   3.338   6.161
 4069SOL     OW12664   2.213   3.663   6.439
 4069SOL    HW112665   2.263   3.577   6.445
 4069SOL    HW212666   2.278   3.740   6.436
 4070SOL     OW12667   3.657   2.928   6.459
 4070SOL    HW112668   3.595   2.913   6.383
 4070SOL    HW212669   3.605   2.939   6.544
 4071SOL     OW12670   3.089   3.412   7.092
 4071SOL    HW112671   3.095   3.335   7.156
 4071SOL    HW212672   3.037   3.386   7.012
 4072SOL     OW12673   2.183   2.805   5.828
 4072SOL    HW112674   2.265   2.844   5.786
 4072SOL    HW212675   2.156   2.723   5.779
 4073SOL     OW12676   3.320   2.597   6.314
 4073SOL    HW112677   3.315   2.532   6.389
 4073SOL    HW212678   3.400   2.656   6.327
 4074SOL     OW12679   2.323   3.128   7.313
 4074SOL    HW112680   2.273   3.129   7.227
 4074SOL    HW212681   2.260   3.110   7.389
 4075SOL     OW12682   2.973   3.638   5.823
 4075SOL    HW112683   2.913   3.576   5.873
 4075SOL    HW212684   3.004   3.594   5.738
 4076SOL     OW12685   2.064   2.147   7.084
 4076SOL    HW112686   1.984   2.207   7.071
 4076SOL    HW212687   2.054   2.098   7.170
 4077SOL     OW12688   3.494   3.239   5.667
 4077SOL    HW112689   3.462   3.333   5.657
 4077SOL    HW212690   3.418   3.176   5.655
 4078SOL     OW12691   2.326   3.605   5.909
 4078SOL    HW112692   2.359   3.644   5.995
 4078SOL    HW212693   2.402   3.598   5.844
 4079SOL     OW12694   3.262   1.969   6.012
 4079SOL    HW112695   3.238   1.932   5.922
 4079SOL    HW212696   3.361   1.985   6.016
 4080SOL     OW12697   2.111   3.647   6.827
 4080SOL    HW112698   2.168   3.582   6.877
 4080SOL    HW212699   2.095   3.614   6.734
 4081SOL     OW12700   2.802   3.560   6.490
 4081SOL    HW112701   2.882   3.503   6.511
 4081SOL    HW212702   2.753   3.520   6.413
 4082SOL     OW12703   2.244   2.562   6.066
 4082SOL    HW112704   2.289   2.472   6.063
 4082SOL    HW212705   2.150   2.551   6.099
 4083SOL     OW12706   3.409   2.084   7.315
 4083SOL    HW112707   3.404   2.121   7.407
 4083SOL    HW212708   3.337   2.015   7.303
 4084SOL     OW12709   2.476   1.984   5.703
 4084SOL    HW112710   2.574   1.962   5.710
 4084SOL    HW212711   2.445   1.967   5.610
 4085SOL     OW12712   2.643   2.126   7.335
 4085SOL    HW112713   2.710   2.065   7.378
 4085SOL    HW212714   2.570   2.145   7.400
 4086SOL     OW12715   2.750   3.376   6.781
 4086SOL    HW112716   2.727   3.351   6.687
 4086SOL    HW212717   2.811   3.307   6.820
 4087SOL     OW12718   3.213   2.452   7.019
 4087SOL    HW112719   3.241   2.409   7.104
 4087SOL    HW212720   3.238   2.548   7.020
 4088SOL     OW12721   2.665   3.264   6.510
 4088SOL    HW112722   2.755   3.278   6.468
 4088SOL    HW212723   2.594   3.266   6.439
 4089SOL     OW12724   2.784   2.365   6.485
 4089SOL    HW112725   2.759   2.356   6.389
 4089SOL    HW212726   2.832   2.283   6.516
 4090SOL     OW12727   2.401   1.926   6.098
 4090SOL    HW112728   2.320   1.927   6.156
 4090SOL    HW212729   2.404   2.009   6.043
 4091SOL     OW12730   3.296   3.050   5.627
 4091SOL    HW112731   3.328   2.974   5.684
 4091SOL    HW212732   3.204   3.077   5.657
 4092SOL     OW12733   2.159   1.897   5.757
 4092SOL    HW112734   2.208   1.981   5.736
 4092SOL    HW212735   2.221   1.832   5.802
 4093SOL     OW12736   2.797   2.098   6.066
 4093SOL    HW112737   2.749   2.139   5.988
 4093SOL    HW212738   2.896   2.096   6.047
 4094SOL     OW12739   2.938   2.545   7.050
 4094SOL    HW112740   2.858   2.484   7.053
 4094SOL    HW212741   3.019   2.492   7.026
 4095SOL     OW12742   3.089   3.432   6.379
 4095SOL    HW112743   3.110   3.506   6.314
 4095SOL    HW212744   3.157   3.432   6.452
 4096SOL     OW12745   2.321   3.014   6.327
 4096SOL    HW112746   2.250   2.987   6.392
 4096SOL    HW212747   2.295   2.986   6.234
 4097SOL     OW12748   3.133   3.659   6.177
 4097SOL    HW112749   3.177   3.723   6.113
 4097SOL    HW212750   3.083   3.711   6.247
 4098SOL     OW12751   2.894   2.411   5.602
 4098SOL    HW112752   2.853   2.493   5.563
 4098SOL    HW212753   2.958   2.437   5.675
 4099SOL     OW12754   1.940   2.418   6.972
 4099SOL    HW112755   2.032   2.417   6.931
 4099SOL    HW212756   1.934   2.492   7.039
 4100SOL     OW12757   2.423   2.084   6.733
 4100SOL    HW112758   2.461   2.000   6.770
 4100SOL    HW212759   2.335   2.103   6.777
 4101SOL     OW12760   2.728   2.316   6.228
 4101SOL    HW112761   2.696   2.388   6.166
 4101SOL    HW212762   2.752   2.235   6.175
 4102SOL     OW12763   2.879   1.901   6.339
 4102SOL    HW112764   2.807   1.906   6.270
 4102SOL    HW212765   2.855   1.832   6.408
 4103SOL     OW12766   3.291   3.035   6.453
 4103SOL    HW112767   3.236   2.951   6.446
 4103SOL    HW212768   3.317   3.064   6.361
 4104SOL     OW12769   3.328   2.452   6.578
 4104SOL    HW112770   3.298   2.357   6.585
 4104SOL    HW212771   3.401   2.468   6.644
 4105SOL     OW12772   3.719   2.695   5.963
 4105SOL    HW112773   3.761   2.631   6.027
 4105SOL    HW212774   3.681   2.644   5.885
 4106SOL     OW12775   2.350   3.247   5.760
 4106SOL    HW112776   2.263   3.232   5.807
 4106SOL    HW212777   2.333   3.273   5.665
 4107SOL     OW12778   3.526   3.142   6.243
 4107SOL    HW112779   3.625   3.150   6.257
 4107SOL    HW212780   3.481   3.226   6.274
 4108SOL     OW12781   3.252   2.437   5.664
 4108SOL    HW112782   3.198   2.416   5.745
 4108SOL    HW212783   3.343   2.396   5.673
 4109SOL     OW12784   2.389   2.118   5.914
 4109SOL    HW112785   2.416   2.059   5.839
 4109SOL    HW212786   2.389   2.213   5.883
 4110SOL     OW12787   3.616   3.085   7.174
 4110SOL    HW112788   3.707   3.046   7.161
 4110SOL    HW212789   3.624   3.181   7.198
 4111SOL     OW12790   2.926   3.209   6.926
 4111SOL    HW112791   2.846   3.186   6.981
 4111SOL    HW212792   3.009   3.183   6.975
 4112SOL     OW12793   3.454   3.491   7.211
 4112SOL    HW112794   3.481   3.525   7.121
 4112SOL    HW212795   3.533   3.453   7.257
 4113SOL     OW12796   2.973   3.057   6.686
 4113SOL    HW112797   2.933   3.101   6.767
 4113SOL    HW212798   2.932   3.094   6.603
 4114SOL     OW12799   3.500   2.961   6.665
 4114SOL    HW112800   3.505   3.042   6.724
 4114SOL    HW212801   3.414   2.963   6.614
 4115SOL     OW12802   2.777   1.951   6.988
 4115SOL    HW112803   2.802   1.931   6.893
 4115SOL    HW212804   2.849   2.007   7.030
 4116SOL     OW12805   2.842   2.978   7.305
 4116SOL    HW112806   2.743   2.984   7.315
 4116SOL    HW212807   2.865   2.898   7.249
 4117SOL     OW12808   2.272   2.675   6.837
 4117SOL    HW112809   2.358   2.687   6.887
 4117SOL    HW212810   2.230   2.588   6.864
 4118SOL     OW12811   3.136   2.248   6.848
 4118SOL    HW112812   3.157   2.322   6.912
 4118SOL    HW212813   3.047   2.265   6.805
 4119SOL     OW12814   1.926   3.426   6.917
 4119SOL    HW112815   1.880   3.508   6.883
 4119SOL    HW212816   2.024   3.445   6.926
 4120SOL     OW12817   2.229   2.962   6.087
 4120SOL    HW112818   2.222   3.045   6.031
 4120SOL    HW212819   2.233   2.882   6.027
 4121SOL     OW12820   2.428   2.399   6.451
 4121SOL    HW112821   2.440   2.465   6.377
 4121SOL    HW212822   2.474   2.433   6.534
 4122SOL     OW12823   3.114   3.210   5.974
 4122SOL    HW112824   3.164   3.287   6.014
 4122SOL    HW212825   3.019   3.212   6.006
 4123SOL     OW12826   3.134   3.307   6.728
 4123SOL    HW112827   3.181   3.320   6.815
 4123SOL    HW212828   3.068   3.233   6.737
 4124SOL     OW12829   3.444   2.501   6.058
 4124SOL    HW112830   3.413   2.562   6.131
 4124SOL    HW212831   3.494   2.553   5.989
 4125SOL     OW12832   2.216   3.372   6.915
 4125SOL    HW112833   2.195   3.328   6.828
 4125SOL    HW212834   2.313   3.398   6.918
 4126SOL     OW12835   2.264   2.613   7.184
 4126SOL    HW112836   2.332   2.668   7.137
 4126SOL    HW212837   2.304   2.525   7.211
 4127SOL     OW12838   3.449   2.641   7.256
 4127SOL    HW112839   3.357   2.679   7.251
 4127SOL    HW212840   3.509   2.688   7.191
 4128SOL     OW12841   2.875   1.967   7.356
 4128SOL    HW112842   2.881   2.052   7.304
 4128SOL    HW212843   2.907   1.891   7.299
 4129SOL     OW12844   2.366   1.912   7.326
 4129SOL    HW112845   2.324   1.855   7.256
 4129SOL    HW212846   2.300   1.981   7.358
 4130SOL     OW12847   3.222   2.724   6.631
 4130SOL    HW112848   3.147   2.724   6.565
 4130SOL    HW212849   3.259   2.632   6.640
 4131SOL     OW12850   3.071   2.387   5.861
 4131SOL    HW112851   3.084   2.303   5.915
 4131SOL    HW212852   3.042   2.461   5.921
 4132SOL     OW12853   2.169   2.075   6.817
 4132SOL    HW112854   2.146   2.112   6.907
 4132SOL    HW212855   2.139   1.980   6.811
 4133SOL     OW12856   1.899   3.172   6.868
 4133SOL    HW112857   1.952   3.123   6.936
 4133SOL    HW212858   1.921   3.270   6.873
 4134SOL     OW12859   3.590   2.797   7.440
 4134SOL    HW112860   3.544   2.790   7.351
 4134SOL    HW212861   3.528   2.841   7.506
 4135SOL     OW12862   2.169   1.925   6.204
 4135SOL    HW112863   2.158   2.019   6.237
 4135SOL    HW212864   2.164   1.862   6.281
 4136SOL     OW12865   3.484   2.229   5.960
 4136SOL    HW112866   3.486   2.153   6.024
 4136SOL    HW212867   3.436   2.306   6.000
 4137SOL     OW12868   2.842   3.435   7.286
 4137SOL    HW112869   2.822   3.479   7.198
 4137SOL    HW212870   2.881   3.344   7.270
 4138SOL     OW12871   3.721   3.380   7.191
 4138SOL    HW112872   3.735   3.407   7.096
 4138SOL    HW212873   3.804   3.402   7.244
 4139SOL     OW12874   2.212   2.760   7.390
 4139SOL    HW112875   2.288   2.804   7.438
 4139SOL    HW212876   2.247   2.713   7.308
 4140SOL     OW12877   3.402   2.136   5.711
 4140SOL    HW112878   3.341   2.061   5.734
 4140SOL    HW212879   3.424   2.188   5.794
 4141SOL     OW12880   3.165   2.700   5.628
 4141SOL    HW112881   3.199   2.607   5.643
 4141SOL    HW212882   3.183   2.727   5.533
 4142SOL     OW12883   2.930   3.195   6.435
 4142SOL    HW112884   2.937   3.111   6.380
 4142SOL    HW212885   2.992   3.264   6.399
 4143SOL     OW12886   2.181   2.672   6.535
 4143SOL    HW112887   2.274   2.708   6.540
 4143SOL    HW212888   2.175   2.587   6.587
 4144SOL     OW12889   2.201   2.371   6.592
 4144SOL    HW112890   2.149   2.288   6.575
 4144SOL    HW212891   2.278   2.376   6.528
 4145SOL     OW12892   3.000   2.242   7.264
 4145SOL    HW112893   2.955   2.305   7.328
 4145SOL    HW212894   3.093   2.273   7.247
 4146SOL     OW12895   3.022   2.069   7.063
 4146SOL    HW112896   3.022   2.133   7.140
 4146SOL    HW212897   3.050   2.117   6.980
 4147SOL     OW12898   1.870   3.188   5.786
 4147SOL    HW112899   1.777   3.209   5.755
 4147SOL    HW212900   1.880   3.089   5.799
 4148SOL     OW12901   1.950   3.663   6.513
 4148SOL    HW112902   1.908   3.577   6.486
 4148SOL    HW212903   2.044   3.666   6.479
 4149SOL     OW12904   2.366   3.430   6.496
 4149SOL    HW112905   2.432   3.504   6.505
 4149SOL    HW212906   2.410   3.351   6.454
 4150SOL     OW12907   1.902   2.406   6.700
 4150SOL    HW112908   1.987   2.373   6.659
 4150SOL    HW212909   1.915   2.421   6.798
 4151SOL     OW12910   2.051   2.382   7.308
 4151SOL    HW112911   2.110   2.342   7.238
 4151SOL    HW212912   1.993   2.453   7.267
 4152SOL     OW12913   3.231   2.812   7.246
 4152SOL    HW112914   3.270   2.901   7.266
 4152SOL    HW212915   3.241   2.792   7.149
 4153SOL     OW12916   2.677   2.434   5.911
 4153SOL    HW112917   2.684   2.345   5.865
 4153SOL    HW212918   2.583   2.468   5.903
 4154SOL     OW12919   3.519   2.466   6.792
 4154SOL    HW112920   3.481   2.397   6.854
 4154SOL    HW212921   3.601   2.430   6.748
 4155SOL     OW12922   2.114   3.426   7.330
 4155SOL    HW112923   2.084   3.483   7.406
 4155SOL    HW212924   2.107   3.329   7.356
 4156SOL     OW12925   2.533   2.326   6.855
 4156SOL    HW112926   2.499   2.237   6.825
 4156SOL    HW212927   2.559   2.380   6.775
 4157SOL     OW12928   2.792   3.540   7.051
 4157SOL    HW112929   2.768   3.522   6.956
 4157SOL    HW212930   2.822   3.634   7.061
 4158SOL     OW12931   2.335   2.362   5.777
 4158SOL    HW112932   2.396   2.442   5.781
 4158SOL    HW212933   2.240   2.393   5.784
 4159SOL     OW12934   2.021   2.999   7.052
 4159SOL    HW112935   2.043   2.938   7.128
 4159SOL    HW212936   2.031   2.950   6.966
 4160SOL     OW12937   3.209   2.921   6.820
 4160SOL    HW112938   3.233   2.858   6.746
 4160SOL    HW212939   3.119   2.961   6.802
 4161SOL     OW12940   3.164   2.717   5.895
 4161SOL    HW112941   3.078   2.686   5.937
 4161SOL    HW212942   3.160   2.703   5.796
 4162SOL     OW12943   3.621   3.609   6.740
 4162SOL    HW112944   3.682   3.639   6.667
 4162SOL    HW212945   3.583   3.520   6.718
 4163SOL     OW12946   3.114   3.593   6.714
 4163SOL    HW112947   3.198   3.598   6.660
 4163SOL    HW212948   3.091   3.497   6.732
 4164SOL     OW12949   1.945   3.120   6.608
 4164SOL    HW112950   1.940   3.119   6.708
 4164SOL    HW212951   1.862   3.079   6.570
 4165SOL     OW12952   2.550   3.524   7.302
 4165SOL    HW112953   2.494   3.605   7.311
 4165SOL    HW212954   2.602   3.528   7.216
 4166SOL     OW12955   3.588   1.997   6.109
 4166SOL    HW112956   3.661   1.980   6.042
 4166SOL    HW212957   3.557   1.910   6.147
 4167SOL     OW12958   3.250   3.435   6.063
 4167SOL    HW112959   3.317   3.447   5.989
 4167SOL    HW212960   3.210   3.524   6.086
 4168SOL     OW12961   1.992   3.656   7.437
 4168SOL    HW112962   1.951   3.582   7.490
 4168SOL    HW212963   2.056   3.707   7.495
 4169SOL     OW12964   3.142   2.789   6.258
 4169SOL    HW112965   3.202   2.708   6.260
 4169SOL    HW212966   3.182   2.858   6.198
 4170SOL     OW12967   2.692   3.135   7.008
 4170SOL    HW112968   2.687   3.168   7.103
 4170SOL    HW212969   2.606   3.154   6.962
 4171SOL     OW12970   2.534   3.478   5.740
 4171SOL    HW112971   2.543   3.488   5.641
 4171SOL    HW212972   2.494   3.389   5.761
 4172SOL     OW12973   3.512   3.582   6.980
 4172SOL    HW112974   3.565   3.592   6.896
 4172SOL    HW212975   3.485   3.672   7.014
 4173SOL     OW12976   3.703   2.037   6.549
 4173SOL    HW112977   3.742   1.952   6.513
 4173SOL    HW212978   3.605   2.039   6.530
 4174SOL     OW12979   2.125   2.188   6.306
 4174SOL    HW112980   2.046   2.239   6.272
 4174SOL    HW212981   2.116   2.173   6.404
 4175SOL     OW12982   3.056   3.474   5.617
 4175SOL    HW112983   3.062   3.381   5.654
 4175SOL    HW212984   2.997   3.474   5.537
 4176SOL     OW12985   3.366   3.469   5.630
 4176SOL    HW112986   3.274   3.506   5.637
 4176SOL    HW212987   3.404   3.489   5.540
 4177SOL     OW12988   2.234   3.150   7.076
 4177SOL    HW112989   2.221   3.243   7.042
 4177SOL    HW212990   2.150   3.098   7.063
 4178SOL     OW12991   3.476   3.154   6.875
 4178SOL    HW112992   3.536   3.157   6.955
 4178SOL    HW212993   3.401   3.218   6.888
 4179SOL     OW12994   2.901   2.960   6.282
 4179SOL    HW112995   2.831   2.913   6.336
 4179SOL    HW212996   2.960   2.892   6.239
 4180SOL     OW12997   2.876   2.098   6.557
 4180SOL    HW112998   2.868   2.062   6.464
 4180SOL    HW212999   2.874   2.022   6.622
 4181SOL     OW13000   2.452   3.349   6.077
 4181SOL    HW113001   2.494   3.291   6.007
 4181SOL    HW213002   2.408   3.428   6.033
 4182SOL     OW13003   3.571   2.247   6.967
 4182SOL    HW113004   3.644   2.316   6.971
 4182SOL    HW213005   3.599   2.172   6.908
 4183SOL     OW13006   2.117   3.210   5.876
 4183SOL    HW113007   2.021   3.211   5.849
 4183SOL    HW213008   2.129   3.263   5.960
 4184SOL     OW13009   1.967   2.875   7.312
 4184SOL    HW113010   1.890   2.842   7.366
 4184SOL    HW213011   2.052   2.845   7.354
 4185SOL     OW13012   2.534   2.065   7.075
 4185SOL    HW113013   2.624   2.049   7.035
 4185SOL    HW213014   2.542   2.070   7.174
 4186SOL     OW13015   1.937   2.207   5.619
 4186SOL    HW113016   1.845   2.179   5.590
 4186SOL    HW213017   1.968   2.284   5.563
 4187SOL     OW13018   3.302   2.718   6.984
 4187SOL    HW113019   3.245   2.770   6.921
 4187SOL    HW213020   3.398   2.730   6.960
 4188SOL     OW13021   1.934   2.028   5.904
 4188SOL    HW113022   1.917   2.111   5.850
 4188SOL    HW213023   2.024   1.991   5.882
 4189SOL     OW13024   3.045   3.197   5.705
 4189SOL    HW113025   2.946   3.186   5.707
 4189SOL    HW213026   3.079   3.212   5.798
 4190SOL     OW13027   3.355   3.629   6.545
 4190SOL    HW113028   3.388   3.693   6.476
 4190SOL    HW213029   3.421   3.623   6.620
 4191SOL     OW13030   3.312   3.082   7.219
 4191SOL    HW113031   3.303   3.072   7.318
 4191SOL    HW213032   3.408   3.075   7.193
 4192SOL     OW13033   2.252   3.603   7.146
 4192SOL    HW113034   2.161   3.644   7.144
 4192SOL    HW213035   2.245   3.509   7.178
 4193SOL     OW13036   3.536   2.745   6.840
 4193SOL    HW113037   3.509   2.656   6.803
 4193SOL    HW213038   3.537   2.813   6.767
 4194SOL     OW13039   3.087   2.187   6.035
 4194SOL    HW113040   3.152   2.113   6.024
 4194SOL    HW213041   3.107   2.237   6.119
 4195SOL     OW13042   3.639   2.204   7.228
 4195SOL    HW113043   3.622   2.235   7.134
 4195SOL    HW213044   3.555   2.167   7.266
 4196SOL     OW13045   3.592   2.796   7.103
 4196SOL    HW113046   3.630   2.887   7.118
 4196SOL    HW213047   3.584   2.779   7.004
 4197SOL     OW13048   2.721   3.236   5.602
 4197SOL    HW113049   2.675   3.251   5.690
 4197SOL    HW213050   2.765   3.321   5.572
 4198SOL     OW13051   2.523   3.652   6.539
 4198SOL    HW113052   2.477   3.740   6.526
 4198SOL    HW213053   2.622   3.664   6.532
 4199SOL     OW13054   2.945   2.846   5.673
 4199SOL    HW113055   2.922   2.899   5.591
 4199SOL    HW213056   3.026   2.790   5.654
 4200SOL     OW13057   3.723   3.431   6.437
 4200SOL    HW113058   3.652   3.419   6.367
 4200SOL    HW213059   3.724   3.352   6.497
 4201SOL     OW13060   2.083   3.176   7.430
 4201SOL    HW113061   2.018   3.103   7.409
 4201SOL    HW213062   2.087   3.190   7.528
 4202SOL     OW13063   1.941   3.102   6.239
 4202SOL    HW113064   1.940   3.055   6.327
 4202SOL    HW213065   2.023   3.074   6.188
 4203SOL     OW13066   2.534   3.253   7.210
 4203SOL    HW113067   2.456   3.203   7.248
 4203SOL    HW213068   2.531   3.348   7.241
 4204SOL     OW13069   3.686   2.054   6.813
 4204SOL    HW113070   3.682   1.964   6.857
 4204SOL    HW213071   3.689   2.043   6.714
 4205SOL     OW13072   2.290   2.286   6.106
 4205SOL    HW113073   2.320   2.214   6.044
 4205SOL    HW213074   2.251   2.246   6.189
 4206SOL     OW13075   3.567   3.349   6.690
 4206SOL    HW113076   3.474   3.324   6.663
 4206SOL    HW213077   3.593   3.299   6.772
 4207SOL     OW13078   2.179   2.409   6.866
 4207SOL    HW113079   2.217   2.350   6.938
 4207SOL    HW213080   2.219   2.383   6.778
 4208SOL     OW13081   2.674   3.448   6.273
 4208SOL    HW113082   2.706   3.458   6.179
 4208SOL    HW213083   2.595   3.386   6.275
 4209SOL     OW13084   3.286   2.076   6.698
 4209SOL    HW113085   3.338   2.011   6.753
 4209SOL    HW213086   3.237   2.139   6.759
 4210SOL     OW13087   2.863   1.896   6.740
 4210SOL    HW113088   2.800   1.824   6.709
 4210SOL    HW213089   2.956   1.860   6.740
 4211SOL     OW13090   2.632   3.192   5.887
 4211SOL    HW113091   2.586   3.105   5.904
 4211SOL    HW213092   2.723   3.189   5.928
 4212SOL     OW13093   2.480   3.429   6.870
 4212SOL    HW113094   2.475   3.511   6.927
 4212SOL    HW213095   2.569   3.426   6.825
 4213SOL     OW13096   3.214   1.914   5.754
 4213SOL    HW113097   3.249   1.873   5.670
 4213SOL    HW213098   3.124   1.876   5.774
 4214SOL     OW13099   3.162   2.315   6.277
 4214SOL    HW113100   3.103   2.395   6.281
 4214SOL    HW213101   3.177   2.280   6.370
 4215SOL     OW13102   3.455   2.083   6.468
 4215SOL    HW113103   3.371   2.082   6.522
 4215SOL    HW213104   3.457   2.166   6.412
 4216SOL     OW13105   1.901   2.939   5.886
 4216SOL    HW113106   2.000   2.928   5.877
 4216SOL    HW213107   1.861   2.853   5.918
 4217SOL     OW13108   2.737   3.508   5.923
 4217SOL    HW113109   2.660   3.473   5.869
 4217SOL    HW213110   2.705   3.579   5.985
 4218SOL     OW13111   2.092   2.490   7.561
 4218SOL    HW113112   1.999   2.488   7.598
 4218SOL    HW213113   2.093   2.451   7.469
 4219SOL     OW13114   3.617   2.469   7.679
 4219SOL    HW113115   3.605   2.456   7.580
 4219SOL    HW213116   3.587   2.388   7.728
 4220SOL     OW13117   2.093   3.575   7.931
 4220SOL    HW113118   2.127   3.652   7.985
 4220SOL    HW213119   2.137   3.575   7.841
 4221SOL     OW13120   2.092   3.296   7.986
 4221SOL    HW113121   2.066   3.392   7.986
 4221SOL    HW213122   2.021   3.242   8.031
 4222SOL     OW13123   2.468   2.826   7.571
 4222SOL    HW113124   2.475   2.910   7.517
 4222SOL    HW213125   2.514   2.839   7.659
 4223SOL     OW13126   3.704   3.629   7.807
 4223SOL    HW113127   3.758   3.600   7.887
 4223SOL    HW213128   3.734   3.719   7.778
 4224SOL     OW13129   1.889   3.458   7.565
 4224SOL    HW113130   1.870   3.362   7.586
 4224SOL    HW213131   1.856   3.516   7.640
 4225SOL     OW13132   3.551   2.784   8.060
 4225SOL    HW113133   3.646   2.755   8.068
 4225SOL    HW213134   3.543   2.849   7.985
 4226SOL     OW13135   3.503   2.970   7.880
 4226SOL    HW113136   3.589   2.972   7.828
 4226SOL    HW213137   3.517   3.017   7.968
 4227SOL     OW13138   2.671   1.866   7.950
 4227SOL    HW113139   2.711   1.957   7.941
 4227SOL    HW213140   2.571   1.874   7.956
 4228SOL     OW13141   3.387   2.861   7.638
 4228SOL    HW113142   3.324   2.785   7.651
 4228SOL    HW213143   3.435   2.879   7.724
 4229SOL     OW13144   3.438   3.524   7.755
 4229SOL    HW113145   3.527   3.570   7.758
 4229SOL    HW213146   3.417   3.500   7.660
 4230SOL     OW13147   1.938   2.673   8.237
 4230SOL    HW113148   2.037   2.661   8.246
 4230SOL    HW213149   1.914   2.768   8.258
 4231SOL     OW13150   2.727   2.210   7.643
 4231SOL    HW113151   2.786   2.273   7.594
 4231SOL    HW213152   2.746   2.116   7.614
 4232SOL     OW13153   2.183   2.805   7.690
 4232SOL    HW113154   2.265   2.844   7.648
 4232SOL    HW213155   2.156   2.723   7.641
 4233SOL     OW13156   2.973   3.638   7.685
 4233SOL    HW113157   2.913   3.576   7.735
 4233SOL    HW213158   3.004   3.594   7.600
 4234SOL     OW13159   3.494   3.239   7.529
 4234SOL    HW113160   3.462   3.333   7.519
 4234SOL    HW213161   3.418   3.176   7.517
 4235SOL     OW13162   2.326   3.605   7.771
 4235SOL    HW113163   2.359   3.644   7.857
 4235SOL    HW213164   2.402   3.598   7.706
 4236SOL     OW13165   3.262   1.969   7.874
 4236SOL    HW113166   3.238   1.932   7.784
 4236SOL    HW213167   3.361   1.985   7.878
 4237SOL     OW13168   2.244   2.562   7.928
 4237SOL    HW113169   2.289   2.472   7.925
 4237SOL    HW213170   2.150   2.551   7.961
 4238SOL     OW13171   2.476   1.984   7.565
 4238SOL    HW113172   2.574   1.962   7.572
 4238SOL    HW213173   2.445   1.967   7.472
 4239SOL     OW13174   2.401   1.926   7.960
 4239SOL    HW113175   2.320   1.927   8.018
 4239SOL    HW213176   2.404   2.009   7.905
 4240SOL     OW13177   3.296   3.050   7.489
 4240SOL    HW113178   3.328   2.974   7.546
 4240SOL    HW213179   3.204   3.077   7.519
 4241SOL     OW13180   2.159   1.897   7.619
 4241SOL    HW113181   2.208   1.981   7.598
 4241SOL    HW213182   2.221   1.832   7.664
 4242SOL     OW13183   2.797   2.098   7.928
 4242SOL    HW113184   2.749   2.139   7.850
 4242SOL    HW213185   2.896   2.096   7.909
 4243SOL     OW13186   2.321   3.014   8.189
 4243SOL    HW113187   2.250   2.987   8.254
 4243SOL    HW213188   2.295   2.986   8.096
 4244SOL     OW13189   3.133   3.659   8.039
 4244SOL    HW113190   3.177   3.723   7.975
 4244SOL    HW213191   3.083   3.711   8.109
 4245SOL     OW13192   2.894   2.411   7.464
 4245SOL    HW113193   2.853   2.493   7.425
 4245SOL    HW213194   2.958   2.437   7.537
 4246SOL     OW13195   3.719   2.695   7.825
 4246SOL    HW113196   3.761   2.631   7.889
 4246SOL    HW213197   3.681   2.644   7.747
 4247SOL     OW13198   2.350   3.247   7.622
 4247SOL    HW113199   2.263   3.232   7.669
 4247SOL    HW213200   2.333   3.273   7.527
 4248SOL     OW13201   3.252   2.437   7.526
 4248SOL    HW113202   3.198   2.416   7.607
 4248SOL    HW213203   3.343   2.396   7.535
 4249SOL     OW13204   2.389   2.118   7.776
 4249SOL    HW113205   2.416   2.059   7.701
 4249SOL    HW213206   2.389   2.213   7.745
 4250SOL     OW13207   2.567   2.912   7.816
 4250SOL    HW113208   2.553   2.919   7.915
 4250SOL    HW213209   2.651   2.861   7.798
 4251SOL     OW13210   2.229   2.962   7.949
 4251SOL    HW113211   2.222   3.045   7.893
 4251SOL    HW213212   2.233   2.882   7.889
 4252SOL     OW13213   3.114   3.210   7.836
 4252SOL    HW113214   3.164   3.287   7.876
 4252SOL    HW213215   3.019   3.212   7.868
 4253SOL     OW13216   3.444   2.501   7.920
 4253SOL    HW113217   3.413   2.562   7.993
 4253SOL    HW213218   3.494   2.553   7.851
 4254SOL     OW13219   3.071   2.387   7.723
 4254SOL    HW113220   3.084   2.303   7.777
 4254SOL    HW213221   3.042   2.461   7.783
 4255SOL     OW13222   3.484   2.229   7.822
 4255SOL    HW113223   3.486   2.153   7.886
 4255SOL    HW213224   3.436   2.306   7.862
 4256SOL     OW13225   3.402   2.136   7.573
 4256SOL    HW113226   3.341   2.061   7.596
 4256SOL    HW213227   3.424   2.188   7.656
 4257SOL     OW13228   3.165   2.700   7.490
 4257SOL    HW113229   3.199   2.607   7.505
 4257SOL    HW213230   3.183   2.727   7.395
 4258SOL     OW13231   1.870   3.188   7.648
 4258SOL    HW113232   1.777   3.209   7.617
 4258SOL    HW213233   1.880   3.089   7.661
 4259SOL     OW13234   2.335   2.362   7.639
 4259SOL    HW113235   2.396   2.442   7.643
 4259SOL    HW213236   2.240   2.393   7.646
 4260SOL     OW13237   3.164   2.717   7.757
 4260SOL    HW113238   3.078   2.686   7.799
 4260SOL    HW213239   3.160   2.703   7.658
 4261SOL     OW13240   3.588   1.997   7.971
 4261SOL    HW113241   3.661   1.980   7.904
 4261SOL    HW213242   3.557   1.910   8.009
 4262SOL     OW13243   3.250   3.435   7.925
 4262SOL    HW113244   3.317   3.447   7.851
 4262SOL    HW213245   3.210   3.524   7.948
 4263SOL     OW13246   2.534   3.478   7.602
 4263SOL    HW113247   2.543   3.488   7.503
 4263SOL    HW213248   2.494   3.389   7.623
 4264SOL     OW13249   3.056   3.474   7.479
 4264SOL    HW113250   3.062   3.381   7.516
 4264SOL    HW213251   2.997   3.474   7.399
 4265SOL     OW13252   3.366   3.469   7.492
 4265SOL    HW113253   3.274   3.506   7.499
 4265SOL    HW213254   3.404   3.489   7.402
 4266SOL     OW13255   2.452   3.349   7.939
 4266SOL    HW113256   2.494   3.291   7.869
 4266SOL    HW213257   2.408   3.428   7.895
 4267SOL     OW13258   2.117   3.210   7.738
 4267SOL    HW113259   2.021   3.211   7.711
 4267SOL    HW213260   2.129   3.263   7.822
 4268SOL     OW13261   1.937   2.207   7.481
 4268SOL    HW113262   1.845   2.179   7.452
 4268SOL    HW213263   1.968   2.284   7.425
 4269SOL     OW13264   1.934   2.028   7.766
 4269SOL    HW113265   1.917   2.111   7.712
 4269SOL    HW213266   2.024   1.991   7.744
 4270SOL     OW13267   3.045   3.197   7.567
 4270SOL    HW113268   2.946   3.186   7.569
 4270SOL    HW213269   3.079   3.212   7.660
 4271SOL     OW13270   3.087   2.187   7.897
 4271SOL    HW113271   3.152   2.113   7.886
 4271SOL    HW213272   3.107   2.237   7.981
 4272SOL     OW13273   2.721   3.236   7.464
 4272SOL    HW113274   2.675   3.251   7.552
 4272SOL    HW213275   2.765   3.321   7.434
 4273SOL     OW13276   2.945   2.846   7.535
 4273SOL    HW113277   2.922   2.899   7.453
 4273SOL    HW213278   3.026   2.790   7.516
 4274SOL     OW13279   2.290   2.286   7.968
 4274SOL    HW113280   2.320   2.214   7.906
 4274SOL    HW213281   2.251   2.246   8.051
 4275SOL     OW13282   2.632   3.192   7.749
 4275SOL    HW113283   2.586   3.105   7.766
 4275SOL    HW213284   2.723   3.189   7.790
 4276SOL     OW13285   3.214   1.914   7.616
 4276SOL    HW113286   3.249   1.873   7.532
 4276SOL    HW213287   3.124   1.876   7.636
 4277SOL     OW13288   1.901   2.939   7.748
 4277SOL    HW113289   2.000   2.928   7.739
 4277SOL    HW213290   1.861   2.853   7.780
 4278SOL     OW13291   2.737   3.508   7.785
 4278SOL    HW113292   2.660   3.473   7.731
 4278SOL    HW213293   2.705   3.579   7.847
 4279SOL     OW13294   2.092   4.352   0.113
 4279SOL    HW113295   1.999   4.350   0.150
 4279SOL    HW213296   2.093   4.313   0.021
 4280SOL     OW13297   2.087   3.999   0.996
 4280SOL    HW113298   2.122   3.982   1.088
 4280SOL    HW213299   1.999   3.954   0.984
 4281SOL     OW13300   1.881   4.092   0.647
 4281SOL    HW113301   1.799   4.135   0.686
 4281SOL    HW213302   1.853   4.019   0.584
 4282SOL     OW13303   2.431   4.999   1.165
 4282SOL    HW113304   2.338   4.992   1.128
 4282SOL    HW213305   2.442   5.088   1.209
 4283SOL     OW13306   3.417   5.235   0.703
 4283SOL    HW113307   3.360   5.219   0.784
 4283SOL    HW213308   3.358   5.245   0.623
 4284SOL     OW13309   2.997   4.427   0.717
 4284SOL    HW113310   3.054   4.505   0.692
 4284SOL    HW213311   2.937   4.453   0.793
 4285SOL     OW13312   3.617   4.331   0.231
 4285SOL    HW113313   3.605   4.318   0.132
 4285SOL    HW213314   3.587   4.250   0.280
 4286SOL     OW13315   2.630   4.868   1.023
 4286SOL    HW113316   2.552   4.885   1.083
 4286SOL    HW213317   2.664   4.955   0.987
 4287SOL     OW13318   2.712   4.522   1.823
 4287SOL    HW113319   2.708   4.598   1.888
 4287SOL    HW213320   2.734   4.558   1.732
 4288SOL     OW13321   2.547   4.736   0.665
 4288SOL    HW113322   2.616   4.720   0.735
 4288SOL    HW213323   2.474   4.793   0.703
 4289SOL     OW13324   2.548   4.885   1.803
 4289SOL    HW113325   2.608   4.964   1.817
 4289SOL    HW213326   2.462   4.916   1.762
 4290SOL     OW13327   2.197   5.159   1.061
 4290SOL    HW113328   2.119   5.128   1.008
 4290SOL    HW213329   2.255   5.217   1.004
 4291SOL     OW13330   3.322   5.229   1.339
 4291SOL    HW113331   3.346   5.323   1.365
 4291SOL    HW213332   3.306   5.175   1.421
 4292SOL     OW13333   2.300   4.116   1.499
 4292SOL    HW113334   2.382   4.060   1.508
 4292SOL    HW213335   2.219   4.058   1.503
 4293SOL     OW13336   3.465   4.171   0.737
 4293SOL    HW113337   3.391   4.217   0.687
 4293SOL    HW213338   3.516   4.239   0.790
 4294SOL     OW13339   2.989   5.065   1.690
 4294SOL    HW113340   3.036   5.065   1.778
 4294SOL    HW213341   2.941   4.978   1.679
 4295SOL     OW13342   2.092   5.158   0.538
 4295SOL    HW113343   2.066   5.254   0.538
 4295SOL    HW213344   2.021   5.104   0.583
 4296SOL     OW13345   2.102   4.815   0.886
 4296SOL    HW113346   2.116   4.731   0.938
 4296SOL    HW213347   2.047   4.879   0.941
 4297SOL     OW13348   2.468   4.688   0.123
 4297SOL    HW113349   2.475   4.772   0.069
 4297SOL    HW213350   2.514   4.701   0.211
 4298SOL     OW13351   3.456   3.838   1.480
 4298SOL    HW113352   3.438   3.905   1.408
 4298SOL    HW213353   3.453   3.884   1.569
 4299SOL     OW13354   1.984   4.367   0.563
 4299SOL    HW113355   1.939   4.279   0.580
 4299SOL    HW213356   1.983   4.421   0.647
 4300SOL     OW13357   1.889   5.320   0.117
 4300SOL    HW113358   1.870   5.224   0.138
 4300SOL    HW213359   1.856   5.378   0.192
 4301SOL     OW13360   3.551   4.646   0.612
 4301SOL    HW113361   3.646   4.617   0.620
 4301SOL    HW213362   3.543   4.711   0.537
 4302SOL     OW13363   3.503   4.832   0.432
 4302SOL    HW113364   3.589   4.834   0.380
 4302SOL    HW213365   3.517   4.879   0.520
 4303SOL     OW13366   1.975   4.461   1.597
 4303SOL    HW113367   2.063   4.448   1.642
 4303SOL    HW213368   1.962   4.558   1.575
 4304SOL     OW13369   2.475   5.089   0.726
 4304SOL    HW113370   2.426   5.002   0.735
 4304SOL    HW213371   2.452   5.132   0.639
 4305SOL     OW13372   3.155   4.952   1.423
 4305SOL    HW113373   3.192   4.879   1.365
 4305SOL    HW213374   3.207   4.957   1.508
 4306SOL     OW13375   2.671   3.728   0.502
 4306SOL    HW113376   2.711   3.819   0.493
 4306SOL    HW213377   2.571   3.736   0.508
 4307SOL     OW13378   2.059   4.700   1.264
 4307SOL    HW113379   2.148   4.655   1.250
 4307SOL    HW213380   1.986   4.635   1.245
 4308SOL     OW13381   3.387   4.723   0.190
 4308SOL    HW113382   3.324   4.647   0.203
 4308SOL    HW213383   3.435   4.741   0.276
 4309SOL     OW13384   2.179   3.975   1.801
 4309SOL    HW113385   2.250   4.046   1.807
 4309SOL    HW213386   2.091   4.014   1.829
 4310SOL     OW13387   3.328   5.141   0.953
 4310SOL    HW113388   3.269   5.147   1.033
 4310SOL    HW213389   3.313   5.053   0.907
 4311SOL     OW13390   2.460   4.453   0.270
 4311SOL    HW113391   2.484   4.522   0.202
 4311SOL    HW213392   2.382   4.486   0.324
 4312SOL     OW13393   3.143   4.069   0.944
 4312SOL    HW113394   3.057   4.019   0.931
 4312SOL    HW213395   3.205   4.015   1.000
 4313SOL     OW13396   2.669   4.329   1.465
 4313SOL    HW113397   2.622   4.326   1.554
 4313SOL    HW213398   2.618   4.274   1.399
 4314SOL     OW13399   3.256   4.193   1.674
 4314SOL    HW113400   3.236   4.236   1.762
 4314SOL    HW213401   3.334   4.131   1.683
 4315SOL     OW13402   2.835   4.614   1.572
 4315SOL    HW113403   2.881   4.530   1.543
 4315SOL    HW213404   2.779   4.648   1.497
 4316SOL     OW13405   2.853   4.134   1.242
 4316SOL    HW113406   2.776   4.168   1.296
 4316SOL    HW213407   2.819   4.083   1.163
 4317SOL     OW13408   2.903   4.425   0.429
 4317SOL    HW113409   2.929   4.421   0.525
 4317SOL    HW213410   2.818   4.374   0.415
 4318SOL     OW13411   1.938   4.535   0.789
 4318SOL    HW113412   2.037   4.523   0.798
 4318SOL    HW213413   1.914   4.630   0.810
 4319SOL     OW13414   2.727   4.072   0.195
 4319SOL    HW113415   2.786   4.135   0.146
 4319SOL    HW213416   2.746   3.978   0.166
 4320SOL     OW13417   3.581   4.309   1.831
 4320SOL    HW113418   3.555   4.398   1.795
 4320SOL    HW213419   3.579   4.241   1.758
 4321SOL     OW13420   3.224   4.868   0.545
 4321SOL    HW113421   3.307   4.839   0.497
 4321SOL    HW213422   3.175   4.935   0.489
 4322SOL     OW13423   2.412   3.920   0.885
 4322SOL    HW113424   2.407   3.915   0.985
 4322SOL    HW213425   2.414   4.016   0.856
 4323SOL     OW13426   2.870   5.180   0.477
 4323SOL    HW113427   2.824   5.252   0.425
 4323SOL    HW213428   2.866   5.200   0.575
 4324SOL     OW13429   3.657   4.790   0.873
 4324SOL    HW113430   3.595   4.775   0.797
 4324SOL    HW213431   3.605   4.801   0.958
 4325SOL     OW13432   3.089   5.274   1.506
 4325SOL    HW113433   3.095   5.197   1.570
 4325SOL    HW213434   3.037   5.248   1.426
 4326SOL     OW13435   2.183   4.667   0.242
 4326SOL    HW113436   2.265   4.706   0.200
 4326SOL    HW213437   2.156   4.585   0.193
 4327SOL     OW13438   3.320   4.459   0.728
 4327SOL    HW113439   3.315   4.394   0.803
 4327SOL    HW213440   3.400   4.518   0.741
 4328SOL     OW13441   2.323   4.990   1.727
 4328SOL    HW113442   2.273   4.991   1.641
 4328SOL    HW213443   2.260   4.972   1.803
 4329SOL     OW13444   2.973   5.500   0.237
 4329SOL    HW113445   2.913   5.438   0.287
 4329SOL    HW213446   3.004   5.456   0.152
 4330SOL     OW13447   2.064   4.009   1.498
 4330SOL    HW113448   1.984   4.069   1.485
 4330SOL    HW213449   2.054   3.960   1.584
 4331SOL     OW13450   3.494   5.101   0.081
 4331SOL    HW113451   3.462   5.195   0.071
 4331SOL    HW213452   3.418   5.038   0.069
 4332SOL     OW13453   3.262   3.831   0.426
 4332SOL    HW113454   3.238   3.794   0.336
 4332SOL    HW213455   3.361   3.847   0.430
 4333SOL     OW13456   2.244   4.424   0.480
 4333SOL    HW113457   2.289   4.334   0.477
 4333SOL    HW213458   2.150   4.413   0.513
 4334SOL     OW13459   3.409   3.946   1.729
 4334SOL    HW113460   3.404   3.983   1.821
 4334SOL    HW213461   3.337   3.877   1.717
 4335SOL     OW13462   2.476   3.846   0.117
 4335SOL    HW113463   2.574   3.824   0.124
 4335SOL    HW213464   2.445   3.829   0.024
 4336SOL     OW13465   2.643   3.988   1.749
 4336SOL    HW113466   2.710   3.927   1.792
 4336SOL    HW213467   2.570   4.007   1.814
 4337SOL     OW13468   3.213   4.314   1.433
 4337SOL    HW113469   3.241   4.271   1.518
 4337SOL    HW213470   3.238   4.410   1.434
 4338SOL     OW13471   2.665   5.126   0.924
 4338SOL    HW113472   2.755   5.140   0.882
 4338SOL    HW213473   2.594   5.128   0.853
 4339SOL     OW13474   2.784   4.227   0.899
 4339SOL    HW113475   2.759   4.218   0.803
 4339SOL    HW213476   2.832   4.145   0.930
 4340SOL     OW13477   2.401   3.788   0.512
 4340SOL    HW113478   2.320   3.789   0.570
 4340SOL    HW213479   2.404   3.871   0.457
 4341SOL     OW13480   3.296   4.912   0.041
 4341SOL    HW113481   3.328   4.836   0.098
 4341SOL    HW213482   3.204   4.939   0.071
 4342SOL     OW13483   2.159   3.759   0.171
 4342SOL    HW113484   2.208   3.843   0.150
 4342SOL    HW213485   2.221   3.694   0.216
 4343SOL     OW13486   2.797   3.960   0.480
 4343SOL    HW113487   2.749   4.001   0.402
 4343SOL    HW213488   2.896   3.958   0.461
 4344SOL     OW13489   2.938   4.407   1.464
 4344SOL    HW113490   2.858   4.346   1.467
 4344SOL    HW213491   3.019   4.354   1.440
 4345SOL     OW13492   3.089   5.294   0.793
 4345SOL    HW113493   3.110   5.368   0.728
 4345SOL    HW213494   3.157   5.294   0.866
 4346SOL     OW13495   2.321   4.876   0.741
 4346SOL    HW113496   2.250   4.849   0.806
 4346SOL    HW213497   2.295   4.848   0.648
 4347SOL     OW13498   2.894   4.273   0.016
 4347SOL    HW113499   2.853   4.355  -0.023
 4347SOL    HW213500   2.958   4.299   0.089
 4348SOL     OW13501   1.940   4.280   1.386
 4348SOL    HW113502   2.032   4.279   1.345
 4348SOL    HW213503   1.934   4.354   1.453
 4349SOL     OW13504   2.423   3.946   1.147
 4349SOL    HW113505   2.461   3.862   1.184
 4349SOL    HW213506   2.335   3.965   1.191
 4350SOL     OW13507   2.728   4.178   0.642
 4350SOL    HW113508   2.696   4.250   0.580
 4350SOL    HW213509   2.752   4.097   0.589
 4351SOL     OW13510   2.879   3.763   0.753
 4351SOL    HW113511   2.807   3.768   0.684
 4351SOL    HW213512   2.855   3.694   0.822
 4352SOL     OW13513   3.291   4.897   0.867
 4352SOL    HW113514   3.236   4.813   0.860
 4352SOL    HW213515   3.317   4.926   0.775
 4353SOL     OW13516   3.328   4.314   0.992
 4353SOL    HW113517   3.298   4.219   0.999
 4353SOL    HW213518   3.401   4.330   1.058
 4354SOL     OW13519   3.719   4.557   0.377
 4354SOL    HW113520   3.761   4.493   0.441
 4354SOL    HW213521   3.681   4.506   0.299
 4355SOL     OW13522   2.350   5.109   0.174
 4355SOL    HW113523   2.263   5.094   0.221
 4355SOL    HW213524   2.333   5.135   0.079
 4356SOL     OW13525   3.526   5.004   0.657
 4356SOL    HW113526   3.625   5.012   0.671
 4356SOL    HW213527   3.481   5.088   0.688
 4357SOL     OW13528   3.252   4.299   0.078
 4357SOL    HW113529   3.198   4.278   0.159
 4357SOL    HW213530   3.343   4.258   0.087
 4358SOL     OW13531   2.389   3.980   0.328
 4358SOL    HW113532   2.416   3.921   0.253
 4358SOL    HW213533   2.389   4.075   0.297
 4359SOL     OW13534   3.616   4.947   1.588
 4359SOL    HW113535   3.707   4.908   1.575
 4359SOL    HW213536   3.624   5.043   1.612
 4360SOL     OW13537   2.926   5.071   1.340
 4360SOL    HW113538   2.846   5.048   1.395
 4360SOL    HW213539   3.009   5.045   1.389
 4361SOL     OW13540   2.973   4.919   1.100
 4361SOL    HW113541   2.933   4.963   1.181
 4361SOL    HW213542   2.932   4.956   1.017
 4362SOL     OW13543   3.500   4.823   1.079
 4362SOL    HW113544   3.505   4.904   1.138
 4362SOL    HW213545   3.414   4.825   1.028
 4363SOL     OW13546   2.777   3.813   1.402
 4363SOL    HW113547   2.802   3.793   1.307
 4363SOL    HW213548   2.849   3.869   1.444
 4364SOL     OW13549   2.842   4.840   1.719
 4364SOL    HW113550   2.743   4.846   1.729
 4364SOL    HW213551   2.865   4.760   1.663
 4365SOL     OW13552   2.567   4.774   0.368
 4365SOL    HW113553   2.553   4.781   0.467
 4365SOL    HW213554   2.651   4.723   0.350
 4366SOL     OW13555   2.272   4.537   1.251
 4366SOL    HW113556   2.358   4.549   1.301
 4366SOL    HW213557   2.230   4.450   1.278
 4367SOL     OW13558   3.136   4.110   1.262
 4367SOL    HW113559   3.157   4.184   1.326
 4367SOL    HW213560   3.047   4.127   1.219
 4368SOL     OW13561   2.229   4.824   0.501
 4368SOL    HW113562   2.222   4.907   0.445
 4368SOL    HW213563   2.233   4.744   0.441
 4369SOL     OW13564   2.428   4.261   0.865
 4369SOL    HW113565   2.440   4.327   0.791
 4369SOL    HW213566   2.474   4.295   0.948
 4370SOL     OW13567   3.114   5.072   0.388
 4370SOL    HW113568   3.164   5.149   0.428
 4370SOL    HW213569   3.019   5.074   0.420
 4371SOL     OW13570   3.134   5.169   1.142
 4371SOL    HW113571   3.181   5.182   1.229
 4371SOL    HW213572   3.068   5.095   1.151
 4372SOL     OW13573   3.444   4.363   0.472
 4372SOL    HW113574   3.413   4.424   0.545
 4372SOL    HW213575   3.494   4.415   0.403
 4373SOL     OW13576   2.216   5.234   1.329
 4373SOL    HW113577   2.195   5.190   1.242
 4373SOL    HW213578   2.313   5.260   1.332
 4374SOL     OW13579   2.264   4.475   1.598
 4374SOL    HW113580   2.332   4.530   1.551
 4374SOL    HW213581   2.304   4.387   1.625
 4375SOL     OW13582   3.449   4.503   1.670
 4375SOL    HW113583   3.357   4.541   1.665
 4375SOL    HW213584   3.509   4.550   1.605
 4376SOL     OW13585   2.875   3.829   1.770
 4376SOL    HW113586   2.881   3.914   1.718
 4376SOL    HW213587   2.907   3.753   1.713
 4377SOL     OW13588   2.366   3.774   1.740
 4377SOL    HW113589   2.324   3.717   1.670
 4377SOL    HW213590   2.300   3.843   1.772
 4378SOL     OW13591   2.435   4.594   1.029
 4378SOL    HW113592   2.479   4.683   1.020
 4378SOL    HW213593   2.372   4.594   1.106
 4379SOL     OW13594   3.222   4.586   1.045
 4379SOL    HW113595   3.147   4.586   0.979
 4379SOL    HW213596   3.259   4.494   1.054
 4380SOL     OW13597   3.071   4.249   0.275
 4380SOL    HW113598   3.084   4.165   0.329
 4380SOL    HW213599   3.042   4.323   0.335
 4381SOL     OW13600   2.169   3.937   1.231
 4381SOL    HW113601   2.146   3.974   1.321
 4381SOL    HW213602   2.139   3.842   1.225
 4382SOL     OW13603   1.899   5.034   1.282
 4382SOL    HW113604   1.952   4.985   1.350
 4382SOL    HW213605   1.921   5.132   1.287
 4383SOL     OW13606   2.594   4.358   1.064
 4383SOL    HW113607   2.653   4.332   0.988
 4383SOL    HW213608   2.566   4.454   1.053
 4384SOL     OW13609   3.590   4.659   1.854
 4384SOL    HW113610   3.544   4.652   1.765
 4384SOL    HW213611   3.528   4.703   1.920
 4385SOL     OW13612   2.169   3.787   0.618
 4385SOL    HW113613   2.158   3.881   0.651
 4385SOL    HW213614   2.164   3.724   0.695
 4386SOL     OW13615   3.484   4.091   0.374
 4386SOL    HW113616   3.486   4.015   0.438
 4386SOL    HW213617   3.436   4.168   0.414
 4387SOL     OW13618   2.885   4.490   0.966
 4387SOL    HW113619   2.900   4.511   1.062
 4387SOL    HW213620   2.855   4.395   0.957
 4388SOL     OW13621   3.721   5.242   1.605
 4388SOL    HW113622   3.735   5.269   1.510
 4388SOL    HW213623   3.804   5.264   1.658
 4389SOL     OW13624   2.212   4.622   1.804
 4389SOL    HW113625   2.288   4.666   1.852
 4389SOL    HW213626   2.247   4.575   1.722
 4390SOL     OW13627   3.402   3.998   0.125
 4390SOL    HW113628   3.341   3.923   0.148
 4390SOL    HW213629   3.424   4.050   0.208
 4391SOL     OW13630   3.165   4.562   0.042
 4391SOL    HW113631   3.199   4.469   0.057
 4391SOL    HW213632   3.183   4.589  -0.053
 4392SOL     OW13633   2.930   5.057   0.849
 4392SOL    HW113634   2.937   4.973   0.794
 4392SOL    HW213635   2.992   5.126   0.813
 4393SOL     OW13636   2.181   4.534   0.949
 4393SOL    HW113637   2.274   4.570   0.954
 4393SOL    HW213638   2.175   4.449   1.001
 4394SOL     OW13639   2.201   4.233   1.006
 4394SOL    HW113640   2.149   4.150   0.989
 4394SOL    HW213641   2.278   4.238   0.942
 4395SOL     OW13642   3.000   4.104   1.678
 4395SOL    HW113643   2.955   4.167   1.742
 4395SOL    HW213644   3.093   4.135   1.661
 4396SOL     OW13645   3.022   3.931   1.477
 4396SOL    HW113646   3.022   3.995   1.554
 4396SOL    HW213647   3.050   3.979   1.394
 4397SOL     OW13648   1.870   5.050   0.200
 4397SOL    HW113649   1.777   5.071   0.169
 4397SOL    HW213650   1.880   4.951   0.213
 4398SOL     OW13651   2.864   4.520   1.238
 4398SOL    HW113652   2.905   4.488   1.324
 4398SOL    HW213653   2.768   4.493   1.235
 4399SOL     OW13654   1.902   4.268   1.114
 4399SOL    HW113655   1.987   4.235   1.073
 4399SOL    HW213656   1.915   4.283   1.212
 4400SOL     OW13657   2.051   4.244   1.722
 4400SOL    HW113658   2.110   4.204   1.652
 4400SOL    HW213659   1.993   4.315   1.681
 4401SOL     OW13660   3.231   4.674   1.660
 4401SOL    HW113661   3.270   4.763   1.680
 4401SOL    HW213662   3.241   4.654   1.563
 4402SOL     OW13663   2.677   4.296   0.325
 4402SOL    HW113664   2.684   4.207   0.279
 4402SOL    HW213665   2.583   4.330   0.317
 4403SOL     OW13666   3.519   4.328   1.206
 4403SOL    HW113667   3.481   4.259   1.268
 4403SOL    HW213668   3.601   4.292   1.162
 4404SOL     OW13669   2.114   5.288   1.744
 4404SOL    HW113670   2.084   5.345   1.820
 4404SOL    HW213671   2.107   5.191   1.770
 4405SOL     OW13672   2.533   4.188   1.269
 4405SOL    HW113673   2.499   4.099   1.239
 4405SOL    HW213674   2.559   4.242   1.189
 4406SOL     OW13675   2.335   4.224   0.191
 4406SOL    HW113676   2.396   4.304   0.195
 4406SOL    HW213677   2.240   4.255   0.198
 4407SOL     OW13678   2.021   4.861   1.466
 4407SOL    HW113679   2.043   4.800   1.542
 4407SOL    HW213680   2.031   4.812   1.380
 4408SOL     OW13681   3.209   4.783   1.234
 4408SOL    HW113682   3.233   4.720   1.160
 4408SOL    HW213683   3.119   4.823   1.216
 4409SOL     OW13684   3.164   4.579   0.309
 4409SOL    HW113685   3.078   4.548   0.351
 4409SOL    HW213686   3.160   4.565   0.210
 4410SOL     OW13687   1.945   4.982   1.022
 4410SOL    HW113688   1.940   4.981   1.122
 4410SOL    HW213689   1.862   4.941   0.984
 4411SOL     OW13690   2.550   5.386   1.716
 4411SOL    HW113691   2.494   5.467   1.725
 4411SOL    HW213692   2.602   5.390   1.630
 4412SOL     OW13693   2.765   3.810   0.133
 4412SOL    HW113694   2.816   3.811   0.047
 4412SOL    HW213695   2.821   3.768   0.204
 4413SOL     OW13696   3.588   3.859   0.523
 4413SOL    HW113697   3.661   3.842   0.456
 4413SOL    HW213698   3.557   3.772   0.561
 4414SOL     OW13699   3.142   4.651   0.672
 4414SOL    HW113700   3.202   4.570   0.674
 4414SOL    HW213701   3.182   4.720   0.612
 4415SOL     OW13702   2.692   4.997   1.422
 4415SOL    HW113703   2.687   5.030   1.517
 4415SOL    HW213704   2.606   5.016   1.376
 4416SOL     OW13705   3.703   3.899   0.963
 4416SOL    HW113706   3.742   3.814   0.927
 4416SOL    HW213707   3.605   3.901   0.944
 4417SOL     OW13708   2.125   4.050   0.720
 4417SOL    HW113709   2.046   4.101   0.686
 4417SOL    HW213710   2.116   4.035   0.818
 4418SOL     OW13711   3.056   5.336   0.031
 4418SOL    HW113712   3.062   5.243   0.068
 4418SOL    HW213713   2.997   5.336  -0.049
 4419SOL     OW13714   2.684   4.726   1.372
 4419SOL    HW113715   2.724   4.725   1.280
 4419SOL    HW213716   2.694   4.818   1.412
 4420SOL     OW13717   2.778   4.634   0.291
 4420SOL    HW113718   2.841   4.672   0.223
 4420SOL    HW213719   2.818   4.551   0.330
 4421SOL     OW13720   2.234   5.012   1.490
 4421SOL    HW113721   2.221   5.105   1.456
 4421SOL    HW213722   2.150   4.960   1.477
 4422SOL     OW13723   3.476   5.016   1.289
 4422SOL    HW113724   3.536   5.019   1.369
 4422SOL    HW213725   3.401   5.080   1.302
 4423SOL     OW13726   2.901   4.822   0.696
 4423SOL    HW113727   2.831   4.775   0.750
 4423SOL    HW213728   2.960   4.754   0.653
 4424SOL     OW13729   2.876   3.960   0.971
 4424SOL    HW113730   2.868   3.924   0.878
 4424SOL    HW213731   2.874   3.884   1.036
 4425SOL     OW13732   3.571   4.109   1.381
 4425SOL    HW113733   3.644   4.178   1.385
 4425SOL    HW213734   3.599   4.034   1.322
 4426SOL     OW13735   2.117   5.072   0.290
 4426SOL    HW113736   2.021   5.073   0.263
 4426SOL    HW213737   2.129   5.125   0.374
 4427SOL     OW13738   1.967   4.737   1.726
 4427SOL    HW113739   1.890   4.704   1.780
 4427SOL    HW213740   2.052   4.707   1.768
 4428SOL     OW13741   2.534   3.927   1.489
 4428SOL    HW113742   2.624   3.911   1.449
 4428SOL    HW213743   2.542   3.932   1.588
 4429SOL     OW13744   1.937   4.069   0.033
 4429SOL    HW113745   1.845   4.041   0.004
 4429SOL    HW213746   1.968   4.146  -0.023
 4430SOL     OW13747   3.302   4.580   1.398
 4430SOL    HW113748   3.245   4.632   1.335
 4430SOL    HW213749   3.398   4.592   1.374
 4431SOL     OW13750   1.934   3.890   0.318
 4431SOL    HW113751   1.917   3.973   0.264
 4431SOL    HW213752   2.024   3.853   0.296
 4432SOL     OW13753   3.045   5.059   0.119
 4432SOL    HW113754   2.946   5.048   0.121
 4432SOL    HW213755   3.079   5.074   0.212
 4433SOL     OW13756   2.475   4.566   1.431
 4433SOL    HW113757   2.531   4.647   1.414
 4433SOL    HW213758   2.534   4.486   1.434
 4434SOL     OW13759   2.578   4.289   1.708
 4434SOL    HW113760   2.597   4.354   1.782
 4434SOL    HW213761   2.638   4.209   1.717
 4435SOL     OW13762   3.312   4.944   1.633
 4435SOL    HW113763   3.303   4.934   1.732
 4435SOL    HW213764   3.408   4.937   1.607
 4436SOL     OW13765   3.536   4.607   1.254
 4436SOL    HW113766   3.509   4.518   1.217
 4436SOL    HW213767   3.537   4.675   1.181
 4437SOL     OW13768   3.087   4.049   0.449
 4437SOL    HW113769   3.152   3.975   0.438
 4437SOL    HW213770   3.107   4.099   0.533
 4438SOL     OW13771   2.456   4.469   0.652
 4438SOL    HW113772   2.506   4.554   0.633
 4438SOL    HW213773   2.368   4.471   0.604
 4439SOL     OW13774   3.639   4.066   1.642
 4439SOL    HW113775   3.622   4.097   1.548
 4439SOL    HW213776   3.555   4.029   1.680
 4440SOL     OW13777   3.592   4.658   1.517
 4440SOL    HW113778   3.630   4.749   1.532
 4440SOL    HW213779   3.584   4.641   1.418
 4441SOL     OW13780   2.721   5.098   0.016
 4441SOL    HW113781   2.675   5.113   0.104
 4441SOL    HW213782   2.765   5.183  -0.014
 4442SOL     OW13783   2.721   4.680   0.861
 4442SOL    HW113784   2.775   4.611   0.909
 4442SOL    HW213785   2.689   4.749   0.927
 4443SOL     OW13786   2.945   4.708   0.087
 4443SOL    HW113787   2.922   4.761   0.005
 4443SOL    HW213788   3.026   4.652   0.068
 4444SOL     OW13789   2.083   5.038   1.844
 4444SOL    HW113790   2.018   4.965   1.823
 4444SOL    HW213791   2.087   5.052   1.942
 4445SOL     OW13792   1.941   4.964   0.653
 4445SOL    HW113793   1.940   4.917   0.741
 4445SOL    HW213794   2.023   4.936   0.602
 4446SOL     OW13795   2.534   5.115   1.624
 4446SOL    HW113796   2.456   5.065   1.662
 4446SOL    HW213797   2.531   5.210   1.655
 4447SOL     OW13798   3.686   3.916   1.227
 4447SOL    HW113799   3.682   3.826   1.271
 4447SOL    HW213800   3.689   3.905   1.128
 4448SOL     OW13801   2.290   4.148   0.520
 4448SOL    HW113802   2.320   4.076   0.458
 4448SOL    HW213803   2.251   4.108   0.603
 4449SOL     OW13804   3.567   5.211   1.104
 4449SOL    HW113805   3.474   5.186   1.077
 4449SOL    HW213806   3.593   5.161   1.186
 4450SOL     OW13807   2.179   4.271   1.280
 4450SOL    HW113808   2.217   4.212   1.352
 4450SOL    HW213809   2.219   4.245   1.192
 4451SOL     OW13810   3.286   3.938   1.112
 4451SOL    HW113811   3.338   3.873   1.167
 4451SOL    HW213812   3.237   4.001   1.173
 4452SOL     OW13813   2.863   3.758   1.154
 4452SOL    HW113814   2.800   3.686   1.123
 4452SOL    HW213815   2.956   3.722   1.154
 4453SOL     OW13816   2.632   5.054   0.301
 4453SOL    HW113817   2.586   4.967   0.318
 4453SOL    HW213818   2.723   5.051   0.342
 4454SOL     OW13819   2.480   5.291   1.284
 4454SOL    HW113820   2.475   5.373   1.341
 4454SOL    HW213821   2.569   5.288   1.239
 4455SOL     OW13822   3.214   3.776   0.168
 4455SOL    HW113823   3.249   3.735   0.084
 4455SOL    HW213824   3.124   3.738   0.188
 4456SOL     OW13825   3.162   4.177   0.691
 4456SOL    HW113826   3.103   4.257   0.695
 4456SOL    HW213827   3.177   4.142   0.784
 4457SOL     OW13828   3.455   3.945   0.882
 4457SOL    HW113829   3.371   3.944   0.936
 4457SOL    HW213830   3.457   4.028   0.826
 4458SOL     OW13831   1.901   4.801   0.300
 4458SOL    HW113832   2.000   4.790   0.291
 4458SOL    HW213833   1.861   4.715   0.332
 4459SOL     OW13834   2.092   4.352   1.975
 4459SOL    HW113835   1.999   4.350   2.012
 4459SOL    HW213836   2.093   4.313   1.883
 4460SOL     OW13837   2.087   3.999   2.858
 4460SOL    HW113838   2.122   3.982   2.950
 4460SOL    HW213839   1.999   3.954   2.846
 4461SOL     OW13840   1.881   4.092   2.509
 4461SOL    HW113841   1.799   4.135   2.548
 4461SOL    HW213842   1.853   4.019   2.446
 4462SOL     OW13843   2.431   4.999   3.027
 4462SOL    HW113844   2.338   4.992   2.990
 4462SOL    HW213845   2.442   5.088   3.071
 4463SOL     OW13846   3.417   5.235   2.565
 4463SOL    HW113847   3.360   5.219   2.646
 4463SOL    HW213848   3.358   5.245   2.485
 4464SOL     OW13849   2.997   4.427   2.579
 4464SOL    HW113850   3.054   4.505   2.554
 4464SOL    HW213851   2.937   4.453   2.655
 4465SOL     OW13852   3.617   4.331   2.093
 4465SOL    HW113853   3.605   4.318   1.994
 4465SOL    HW213854   3.587   4.250   2.142
 4466SOL     OW13855   2.630   4.868   2.885
 4466SOL    HW113856   2.552   4.885   2.945
 4466SOL    HW213857   2.664   4.955   2.849
 4467SOL     OW13858   2.712   4.522   3.685
 4467SOL    HW113859   2.708   4.598   3.750
 4467SOL    HW213860   2.734   4.558   3.594
 4468SOL     OW13861   2.547   4.736   2.527
 4468SOL    HW113862   2.616   4.720   2.597
 4468SOL    HW213863   2.474   4.793   2.565
 4469SOL     OW13864   2.548   4.885   3.665
 4469SOL    HW113865   2.608   4.964   3.679
 4469SOL    HW213866   2.462   4.916   3.624
 4470SOL     OW13867   2.197   5.159   2.923
 4470SOL    HW113868   2.119   5.128   2.870
 4470SOL    HW213869   2.255   5.217   2.866
 4471SOL     OW13870   3.322   5.229   3.201
 4471SOL    HW113871   3.346   5.323   3.227
 4471SOL    HW213872   3.306   5.175   3.283
 4472SOL     OW13873   2.300   4.116   3.361
 4472SOL    HW113874   2.382   4.060   3.370
 4472SOL    HW213875   2.219   4.058   3.365
 4473SOL     OW13876   3.465   4.171   2.599
 4473SOL    HW113877   3.391   4.217   2.549
 4473SOL    HW213878   3.516   4.239   2.652
 4474SOL     OW13879   2.989   5.065   3.552
 4474SOL    HW113880   3.036   5.065   3.640
 4474SOL    HW213881   2.941   4.978   3.541
 4475SOL     OW13882   2.092   5.158   2.400
 4475SOL    HW113883   2.066   5.254   2.400
 4475SOL    HW213884   2.021   5.104   2.445
 4476SOL     OW13885   2.102   4.815   2.748
 4476SOL    HW113886   2.116   4.731   2.800
 4476SOL    HW213887   2.047   4.879   2.803
 4477SOL     OW13888   2.468   4.688   1.985
 4477SOL    HW113889   2.475   4.772   1.931
 4477SOL    HW213890   2.514   4.701   2.073
 4478SOL     OW13891   3.456   3.838   3.342
 4478SOL    HW113892   3.438   3.905   3.270
 4478SOL    HW213893   3.453   3.884   3.431
 4479SOL     OW13894   1.984   4.367   2.425
 4479SOL    HW113895   1.939   4.279   2.442
 4479SOL    HW213896   1.983   4.421   2.509
 4480SOL     OW13897   1.889   5.320   1.979
 4480SOL    HW113898   1.870   5.224   2.000
 4480SOL    HW213899   1.856   5.378   2.054
 4481SOL     OW13900   3.551   4.646   2.474
 4481SOL    HW113901   3.646   4.617   2.482
 4481SOL    HW213902   3.543   4.711   2.399
 4482SOL     OW13903   3.503   4.832   2.294
 4482SOL    HW113904   3.589   4.834   2.242
 4482SOL    HW213905   3.517   4.879   2.382
 4483SOL     OW13906   1.975   4.461   3.459
 4483SOL    HW113907   2.063   4.448   3.504
 4483SOL    HW213908   1.962   4.558   3.437
 4484SOL     OW13909   2.475   5.089   2.588
 4484SOL    HW113910   2.426   5.002   2.597
 4484SOL    HW213911   2.452   5.132   2.501
 4485SOL     OW13912   3.155   4.952   3.285
 4485SOL    HW113913   3.192   4.879   3.227
 4485SOL    HW213914   3.207   4.957   3.370
 4486SOL     OW13915   2.671   3.728   2.364
 4486SOL    HW113916   2.711   3.819   2.355
 4486SOL    HW213917   2.571   3.736   2.370
 4487SOL     OW13918   2.059   4.700   3.126
 4487SOL    HW113919   2.148   4.655   3.112
 4487SOL    HW213920   1.986   4.635   3.107
 4488SOL     OW13921   3.387   4.723   2.052
 4488SOL    HW113922   3.324   4.647   2.065
 4488SOL    HW213923   3.435   4.741   2.138
 4489SOL     OW13924   2.179   3.975   3.663
 4489SOL    HW113925   2.250   4.046   3.669
 4489SOL    HW213926   2.091   4.014   3.691
 4490SOL     OW13927   3.328   5.141   2.815
 4490SOL    HW113928   3.269   5.147   2.895
 4490SOL    HW213929   3.313   5.053   2.769
 4491SOL     OW13930   2.460   4.453   2.132
 4491SOL    HW113931   2.484   4.522   2.064
 4491SOL    HW213932   2.382   4.486   2.186
 4492SOL     OW13933   3.143   4.069   2.806
 4492SOL    HW113934   3.057   4.019   2.793
 4492SOL    HW213935   3.205   4.015   2.862
 4493SOL     OW13936   2.669   4.329   3.327
 4493SOL    HW113937   2.622   4.326   3.416
 4493SOL    HW213938   2.618   4.274   3.261
 4494SOL     OW13939   3.256   4.193   3.536
 4494SOL    HW113940   3.236   4.236   3.624
 4494SOL    HW213941   3.334   4.131   3.545
 4495SOL     OW13942   2.835   4.614   3.434
 4495SOL    HW113943   2.881   4.530   3.405
 4495SOL    HW213944   2.779   4.648   3.359
 4496SOL     OW13945   2.853   4.134   3.104
 4496SOL    HW113946   2.776   4.168   3.158
 4496SOL    HW213947   2.819   4.083   3.025
 4497SOL     OW13948   2.903   4.425   2.291
 4497SOL    HW113949   2.929   4.421   2.387
 4497SOL    HW213950   2.818   4.374   2.277
 4498SOL     OW13951   1.938   4.535   2.651
 4498SOL    HW113952   2.037   4.523   2.660
 4498SOL    HW213953   1.914   4.630   2.672
 4499SOL     OW13954   2.727   4.072   2.057
 4499SOL    HW113955   2.786   4.135   2.008
 4499SOL    HW213956   2.746   3.978   2.028
 4500SOL     OW13957   3.581   4.309   3.693
 4500SOL    HW113958   3.555   4.398   3.657
 4500SOL    HW213959   3.579   4.241   3.620
 4501SOL     OW13960   3.224   4.868   2.407
 4501SOL    HW113961   3.307   4.839   2.359
 4501SOL    HW213962   3.175   4.935   2.351
 4502SOL     OW13963   2.412   3.920   2.747
 4502SOL    HW113964   2.407   3.915   2.847
 4502SOL    HW213965   2.414   4.016   2.718
 4503SOL     OW13966   2.870   5.180   2.339
 4503SOL    HW113967   2.824   5.252   2.287
 4503SOL    HW213968   2.866   5.200   2.437
 4504SOL     OW13969   3.657   4.790   2.735
 4504SOL    HW113970   3.595   4.775   2.659
 4504SOL    HW213971   3.605   4.801   2.820
 4505SOL     OW13972   3.089   5.274   3.368
 4505SOL    HW113973   3.095   5.197   3.432
 4505SOL    HW213974   3.037   5.248   3.288
 4506SOL     OW13975   2.183   4.667   2.104
 4506SOL    HW113976   2.265   4.706   2.062
 4506SOL    HW213977   2.156   4.585   2.055
 4507SOL     OW13978   3.320   4.459   2.590
 4507SOL    HW113979   3.315   4.394   2.665
 4507SOL    HW213980   3.400   4.518   2.603
 4508SOL     OW13981   2.323   4.990   3.589
 4508SOL    HW113982   2.273   4.991   3.503
 4508SOL    HW213983   2.260   4.972   3.665
 4509SOL     OW13984   2.973   5.500   2.099
 4509SOL    HW113985   2.913   5.438   2.149
 4509SOL    HW213986   3.004   5.456   2.014
 4510SOL     OW13987   2.064   4.009   3.360
 4510SOL    HW113988   1.984   4.069   3.347
 4510SOL    HW213989   2.054   3.960   3.446
 4511SOL     OW13990   3.494   5.101   1.943
 4511SOL    HW113991   3.462   5.195   1.933
 4511SOL    HW213992   3.418   5.038   1.931
 4512SOL     OW13993   3.262   3.831   2.288
 4512SOL    HW113994   3.238   3.794   2.198
 4512SOL    HW213995   3.361   3.847   2.292
 4513SOL     OW13996   2.244   4.424   2.342
 4513SOL    HW113997   2.289   4.334   2.339
 4513SOL    HW213998   2.150   4.413   2.375
 4514SOL     OW13999   3.409   3.946   3.591
 4514SOL    HW114000   3.404   3.983   3.683
 4514SOL    HW214001   3.337   3.877   3.579
 4515SOL     OW14002   2.476   3.846   1.979
 4515SOL    HW114003   2.574   3.824   1.986
 4515SOL    HW214004   2.445   3.829   1.886
 4516SOL     OW14005   2.643   3.988   3.611
 4516SOL    HW114006   2.710   3.927   3.654
 4516SOL    HW214007   2.570   4.007   3.676
 4517SOL     OW14008   3.213   4.314   3.295
 4517SOL    HW114009   3.241   4.271   3.380
 4517SOL    HW214010   3.238   4.410   3.296
 4518SOL     OW14011   2.665   5.126   2.786
 4518SOL    HW114012   2.755   5.140   2.744
 4518SOL    HW214013   2.594   5.128   2.715
 4519SOL     OW14014   2.784   4.227   2.761
 4519SOL    HW114015   2.759   4.218   2.665
 4519SOL    HW214016   2.832   4.145   2.792
 4520SOL     OW14017   2.401   3.788   2.374
 4520SOL    HW114018   2.320   3.789   2.432
 4520SOL    HW214019   2.404   3.871   2.319
 4521SOL     OW14020   3.296   4.912   1.903
 4521SOL    HW114021   3.328   4.836   1.960
 4521SOL    HW214022   3.204   4.939   1.933
 4522SOL     OW14023   2.159   3.759   2.033
 4522SOL    HW114024   2.208   3.843   2.012
 4522SOL    HW214025   2.221   3.694   2.078
 4523SOL     OW14026   2.797   3.960   2.342
 4523SOL    HW114027   2.749   4.001   2.264
 4523SOL    HW214028   2.896   3.958   2.323
 4524SOL     OW14029   2.938   4.407   3.326
 4524SOL    HW114030   2.858   4.346   3.329
 4524SOL    HW214031   3.019   4.354   3.302
 4525SOL     OW14032   3.089   5.294   2.655
 4525SOL    HW114033   3.110   5.368   2.590
 4525SOL    HW214034   3.157   5.294   2.728
 4526SOL     OW14035   2.321   4.876   2.603
 4526SOL    HW114036   2.250   4.849   2.668
 4526SOL    HW214037   2.295   4.848   2.510
 4527SOL     OW14038   2.894   4.273   1.878
 4527SOL    HW114039   2.853   4.355   1.839
 4527SOL    HW214040   2.958   4.299   1.951
 4528SOL     OW14041   1.940   4.280   3.248
 4528SOL    HW114042   2.032   4.279   3.207
 4528SOL    HW214043   1.934   4.354   3.315
 4529SOL     OW14044   2.423   3.946   3.009
 4529SOL    HW114045   2.461   3.862   3.046
 4529SOL    HW214046   2.335   3.965   3.053
 4530SOL     OW14047   2.728   4.178   2.504
 4530SOL    HW114048   2.696   4.250   2.442
 4530SOL    HW214049   2.752   4.097   2.451
 4531SOL     OW14050   2.879   3.763   2.615
 4531SOL    HW114051   2.807   3.768   2.546
 4531SOL    HW214052   2.855   3.694   2.684
 4532SOL     OW14053   3.291   4.897   2.729
 4532SOL    HW114054   3.236   4.813   2.722
 4532SOL    HW214055   3.317   4.926   2.637
 4533SOL     OW14056   3.328   4.314   2.854
 4533SOL    HW114057   3.298   4.219   2.861
 4533SOL    HW214058   3.401   4.330   2.920
 4534SOL     OW14059   3.719   4.557   2.239
 4534SOL    HW114060   3.761   4.493   2.303
 4534SOL    HW214061   3.681   4.506   2.161
 4535SOL     OW14062   2.350   5.109   2.036
 4535SOL    HW114063   2.263   5.094   2.083
 4535SOL    HW214064   2.333   5.135   1.941
 4536SOL     OW14065   3.526   5.004   2.519
 4536SOL    HW114066   3.625   5.012   2.533
 4536SOL    HW214067   3.481   5.088   2.550
 4537SOL     OW14068   3.252   4.299   1.940
 4537SOL    HW114069   3.198   4.278   2.021
 4537SOL    HW214070   3.343   4.258   1.949
 4538SOL     OW14071   2.389   3.980   2.190
 4538SOL    HW114072   2.416   3.921   2.115
 4538SOL    HW214073   2.389   4.075   2.159
 4539SOL     OW14074   3.616   4.947   3.450
 4539SOL    HW114075   3.707   4.908   3.437
 4539SOL    HW214076   3.624   5.043   3.474
 4540SOL     OW14077   2.926   5.071   3.202
 4540SOL    HW114078   2.846   5.048   3.257
 4540SOL    HW214079   3.009   5.045   3.251
 4541SOL     OW14080   2.973   4.919   2.962
 4541SOL    HW114081   2.933   4.963   3.043
 4541SOL    HW214082   2.932   4.956   2.879
 4542SOL     OW14083   3.500   4.823   2.941
 4542SOL    HW114084   3.505   4.904   3.000
 4542SOL    HW214085   3.414   4.825   2.890
 4543SOL     OW14086   2.777   3.813   3.264
 4543SOL    HW114087   2.802   3.793   3.169
 4543SOL    HW214088   2.849   3.869   3.306
 4544SOL     OW14089   2.842   4.840   3.581
 4544SOL    HW114090   2.743   4.846   3.591
 4544SOL    HW214091   2.865   4.760   3.525
 4545SOL     OW14092   2.567   4.774   2.230
 4545SOL    HW114093   2.553   4.781   2.329
 4545SOL    HW214094   2.651   4.723   2.212
 4546SOL     OW14095   2.272   4.537   3.113
 4546SOL    HW114096   2.358   4.549   3.163
 4546SOL    HW214097   2.230   4.450   3.140
 4547SOL     OW14098   3.136   4.110   3.124
 4547SOL    HW114099   3.157   4.184   3.188
 4547SOL    HW214100   3.047   4.127   3.081
 4548SOL     OW14101   2.229   4.824   2.363
 4548SOL    HW114102   2.222   4.907   2.307
 4548SOL    HW214103   2.233   4.744   2.303
 4549SOL     OW14104   2.428   4.261   2.727
 4549SOL    HW114105   2.440   4.327   2.653
 4549SOL    HW214106   2.474   4.295   2.810
 4550SOL     OW14107   3.114   5.072   2.250
 4550SOL    HW114108   3.164   5.149   2.290
 4550SOL    HW214109   3.019   5.074   2.282
 4551SOL     OW14110   3.134   5.169   3.004
 4551SOL    HW114111   3.181   5.182   3.091
 4551SOL    HW214112   3.068   5.095   3.013
 4552SOL     OW14113   3.444   4.363   2.334
 4552SOL    HW114114   3.413   4.424   2.407
 4552SOL    HW214115   3.494   4.415   2.265
 4553SOL     OW14116   2.216   5.234   3.191
 4553SOL    HW114117   2.195   5.190   3.104
 4553SOL    HW214118   2.313   5.260   3.194
 4554SOL     OW14119   2.264   4.475   3.460
 4554SOL    HW114120   2.332   4.530   3.413
 4554SOL    HW214121   2.304   4.387   3.487
 4555SOL     OW14122   3.449   4.503   3.532
 4555SOL    HW114123   3.357   4.541   3.527
 4555SOL    HW214124   3.509   4.550   3.467
 4556SOL     OW14125   2.875   3.829   3.632
 4556SOL    HW114126   2.881   3.914   3.580
 4556SOL    HW214127   2.907   3.753   3.575
 4557SOL     OW14128   2.366   3.774   3.602
 4557SOL    HW114129   2.324   3.717   3.532
 4557SOL    HW214130   2.300   3.843   3.634
 4558SOL     OW14131   2.435   4.594   2.891
 4558SOL    HW114132   2.479   4.683   2.882
 4558SOL    HW214133   2.372   4.594   2.968
 4559SOL     OW14134   3.222   4.586   2.907
 4559SOL    HW114135   3.147   4.586   2.841
 4559SOL    HW214136   3.259   4.494   2.916
 4560SOL     OW14137   3.071   4.249   2.137
 4560SOL    HW114138   3.084   4.165   2.191
 4560SOL    HW214139   3.042   4.323   2.197
 4561SOL     OW14140   2.169   3.937   3.093
 4561SOL    HW114141   2.146   3.974   3.183
 4561SOL    HW214142   2.139   3.842   3.087
 4562SOL     OW14143   1.899   5.034   3.144
 4562SOL    HW114144   1.952   4.985   3.212
 4562SOL    HW214145   1.921   5.132   3.149
 4563SOL     OW14146   2.594   4.358   2.926
 4563SOL    HW114147   2.653   4.332   2.850
 4563SOL    HW214148   2.566   4.454   2.915
 4564SOL     OW14149   3.590   4.659   3.716
 4564SOL    HW114150   3.544   4.652   3.627
 4564SOL    HW214151   3.528   4.703   3.782
 4565SOL     OW14152   2.169   3.787   2.480
 4565SOL    HW114153   2.158   3.881   2.513
 4565SOL    HW214154   2.164   3.724   2.557
 4566SOL     OW14155   3.484   4.091   2.236
 4566SOL    HW114156   3.486   4.015   2.300
 4566SOL    HW214157   3.436   4.168   2.276
 4567SOL     OW14158   2.885   4.490   2.828
 4567SOL    HW114159   2.900   4.511   2.924
 4567SOL    HW214160   2.855   4.395   2.819
 4568SOL     OW14161   3.721   5.242   3.467
 4568SOL    HW114162   3.735   5.269   3.372
 4568SOL    HW214163   3.804   5.264   3.520
 4569SOL     OW14164   2.212   4.622   3.666
 4569SOL    HW114165   2.288   4.666   3.714
 4569SOL    HW214166   2.247   4.575   3.584
 4570SOL     OW14167   3.402   3.998   1.987
 4570SOL    HW114168   3.341   3.923   2.010
 4570SOL    HW214169   3.424   4.050   2.070
 4571SOL     OW14170   3.165   4.562   1.904
 4571SOL    HW114171   3.199   4.469   1.919
 4571SOL    HW214172   3.183   4.589   1.809
 4572SOL     OW14173   2.930   5.057   2.711
 4572SOL    HW114174   2.937   4.973   2.656
 4572SOL    HW214175   2.992   5.126   2.675
 4573SOL     OW14176   2.181   4.534   2.811
 4573SOL    HW114177   2.274   4.570   2.816
 4573SOL    HW214178   2.175   4.449   2.863
 4574SOL     OW14179   2.201   4.233   2.868
 4574SOL    HW114180   2.149   4.150   2.851
 4574SOL    HW214181   2.278   4.238   2.804
 4575SOL     OW14182   3.000   4.104   3.540
 4575SOL    HW114183   2.955   4.167   3.604
 4575SOL    HW214184   3.093   4.135   3.523
 4576SOL     OW14185   3.022   3.931   3.339
 4576SOL    HW114186   3.022   3.995   3.416
 4576SOL    HW214187   3.050   3.979   3.256
 4577SOL     OW14188   1.870   5.050   2.062
 4577SOL    HW114189   1.777   5.071   2.031
 4577SOL    HW214190   1.880   4.951   2.075
 4578SOL     OW14191   2.864   4.520   3.100
 4578SOL    HW114192   2.905   4.488   3.186
 4578SOL    HW214193   2.768   4.493   3.097
 4579SOL     OW14194   1.902   4.268   2.976
 4579SOL    HW114195   1.987   4.235   2.935
 4579SOL    HW214196   1.915   4.283   3.074
 4580SOL     OW14197   2.051   4.244   3.584
 4580SOL    HW114198   2.110   4.204   3.514
 4580SOL    HW214199   1.993   4.315   3.543
 4581SOL     OW14200   3.231   4.674   3.522
 4581SOL    HW114201   3.270   4.763   3.542
 4581SOL    HW214202   3.241   4.654   3.425
 4582SOL     OW14203   2.677   4.296   2.187
 4582SOL    HW114204   2.684   4.207   2.141
 4582SOL    HW214205   2.583   4.330   2.179
 4583SOL     OW14206   3.519   4.328   3.068
 4583SOL    HW114207   3.481   4.259   3.130
 4583SOL    HW214208   3.601   4.292   3.024
 4584SOL     OW14209   2.114   5.288   3.606
 4584SOL    HW114210   2.084   5.345   3.682
 4584SOL    HW214211   2.107   5.191   3.632
 4585SOL     OW14212   2.533   4.188   3.131
 4585SOL    HW114213   2.499   4.099   3.101
 4585SOL    HW214214   2.559   4.242   3.051
 4586SOL     OW14215   2.335   4.224   2.053
 4586SOL    HW114216   2.396   4.304   2.057
 4586SOL    HW214217   2.240   4.255   2.060
 4587SOL     OW14218   2.021   4.861   3.328
 4587SOL    HW114219   2.043   4.800   3.404
 4587SOL    HW214220   2.031   4.812   3.242
 4588SOL     OW14221   3.209   4.783   3.096
 4588SOL    HW114222   3.233   4.720   3.022
 4588SOL    HW214223   3.119   4.823   3.078
 4589SOL     OW14224   3.164   4.579   2.171
 4589SOL    HW114225   3.078   4.548   2.213
 4589SOL    HW214226   3.160   4.565   2.072
 4590SOL     OW14227   1.945   4.982   2.884
 4590SOL    HW114228   1.940   4.981   2.984
 4590SOL    HW214229   1.862   4.941   2.846
 4591SOL     OW14230   2.550   5.386   3.578
 4591SOL    HW114231   2.494   5.467   3.587
 4591SOL    HW214232   2.602   5.390   3.492
 4592SOL     OW14233   3.588   3.859   2.385
 4592SOL    HW114234   3.661   3.842   2.318
 4592SOL    HW214235   3.557   3.772   2.423
 4593SOL     OW14236   3.142   4.651   2.534
 4593SOL    HW114237   3.202   4.570   2.536
 4593SOL    HW214238   3.182   4.720   2.474
 4594SOL     OW14239   2.692   4.997   3.284
 4594SOL    HW114240   2.687   5.030   3.379
 4594SOL    HW214241   2.606   5.016   3.238
 4595SOL     OW14242   3.703   3.899   2.825
 4595SOL    HW114243   3.742   3.814   2.789
 4595SOL    HW214244   3.605   3.901   2.806
 4596SOL     OW14245   2.125   4.050   2.582
 4596SOL    HW114246   2.046   4.101   2.548
 4596SOL    HW214247   2.116   4.035   2.680
 4597SOL     OW14248   2.684   4.726   3.234
 4597SOL    HW114249   2.724   4.725   3.142
 4597SOL    HW214250   2.694   4.818   3.274
 4598SOL     OW14251   2.778   4.634   2.153
 4598SOL    HW114252   2.841   4.672   2.085
 4598SOL    HW214253   2.818   4.551   2.192
 4599SOL     OW14254   2.234   5.012   3.352
 4599SOL    HW114255   2.221   5.105   3.318
 4599SOL    HW214256   2.150   4.960   3.339
 4600SOL     OW14257   3.476   5.016   3.151
 4600SOL    HW114258   3.536   5.019   3.231
 4600SOL    HW214259   3.401   5.080   3.164
 4601SOL     OW14260   2.901   4.822   2.558
 4601SOL    HW114261   2.831   4.775   2.612
 4601SOL    HW214262   2.960   4.754   2.515
 4602SOL     OW14263   2.876   3.960   2.833
 4602SOL    HW114264   2.868   3.924   2.740
 4602SOL    HW214265   2.874   3.884   2.898
 4603SOL     OW14266   3.571   4.109   3.243
 4603SOL    HW114267   3.644   4.178   3.247
 4603SOL    HW214268   3.599   4.034   3.184
 4604SOL     OW14269   2.117   5.072   2.152
 4604SOL    HW114270   2.021   5.073   2.125
 4604SOL    HW214271   2.129   5.125   2.236
 4605SOL     OW14272   1.967   4.737   3.588
 4605SOL    HW114273   1.890   4.704   3.642
 4605SOL    HW214274   2.052   4.707   3.630
 4606SOL     OW14275   2.534   3.927   3.351
 4606SOL    HW114276   2.624   3.911   3.311
 4606SOL    HW214277   2.542   3.932   3.450
 4607SOL     OW14278   1.937   4.069   1.895
 4607SOL    HW114279   1.845   4.041   1.866
 4607SOL    HW214280   1.968   4.146   1.839
 4608SOL     OW14281   3.302   4.580   3.260
 4608SOL    HW114282   3.245   4.632   3.197
 4608SOL    HW214283   3.398   4.592   3.236
 4609SOL     OW14284   1.934   3.890   2.180
 4609SOL    HW114285   1.917   3.973   2.126
 4609SOL    HW214286   2.024   3.853   2.158
 4610SOL     OW14287   3.045   5.059   1.981
 4610SOL    HW114288   2.946   5.048   1.983
 4610SOL    HW214289   3.079   5.074   2.074
 4611SOL     OW14290   2.475   4.566   3.293
 4611SOL    HW114291   2.531   4.647   3.276
 4611SOL    HW214292   2.534   4.486   3.296
 4612SOL     OW14293   2.578   4.289   3.570
 4612SOL    HW114294   2.597   4.354   3.644
 4612SOL    HW214295   2.638   4.209   3.579
 4613SOL     OW14296   3.312   4.944   3.495
 4613SOL    HW114297   3.303   4.934   3.594
 4613SOL    HW214298   3.408   4.937   3.469
 4614SOL     OW14299   3.536   4.607   3.116
 4614SOL    HW114300   3.509   4.518   3.079
 4614SOL    HW214301   3.537   4.675   3.043
 4615SOL     OW14302   3.087   4.049   2.311
 4615SOL    HW114303   3.152   3.975   2.300
 4615SOL    HW214304   3.107   4.099   2.395
 4616SOL     OW14305   2.456   4.469   2.514
 4616SOL    HW114306   2.506   4.554   2.495
 4616SOL    HW214307   2.368   4.471   2.466
 4617SOL     OW14308   3.639   4.066   3.504
 4617SOL    HW114309   3.622   4.097   3.410
 4617SOL    HW214310   3.555   4.029   3.542
 4618SOL     OW14311   3.592   4.658   3.379
 4618SOL    HW114312   3.630   4.749   3.394
 4618SOL    HW214313   3.584   4.641   3.280
 4619SOL     OW14314   2.721   5.098   1.878
 4619SOL    HW114315   2.675   5.113   1.966
 4619SOL    HW214316   2.765   5.183   1.848
 4620SOL     OW14317   2.721   4.680   2.723
 4620SOL    HW114318   2.775   4.611   2.771
 4620SOL    HW214319   2.689   4.749   2.789
 4621SOL     OW14320   2.945   4.708   1.949
 4621SOL    HW114321   2.922   4.761   1.867
 4621SOL    HW214322   3.026   4.652   1.930
 4622SOL     OW14323   2.083   5.038   3.706
 4622SOL    HW114324   2.018   4.965   3.685
 4622SOL    HW214325   2.087   5.052   3.804
 4623SOL     OW14326   1.941   4.964   2.515
 4623SOL    HW114327   1.940   4.917   2.603
 4623SOL    HW214328   2.023   4.936   2.464
 4624SOL     OW14329   2.534   5.115   3.486
 4624SOL    HW114330   2.456   5.065   3.524
 4624SOL    HW214331   2.531   5.210   3.517
 4625SOL     OW14332   3.686   3.916   3.089
 4625SOL    HW114333   3.682   3.826   3.133
 4625SOL    HW214334   3.689   3.905   2.990
 4626SOL     OW14335   2.290   4.148   2.382
 4626SOL    HW114336   2.320   4.076   2.320
 4626SOL    HW214337   2.251   4.108   2.465
 4627SOL     OW14338   3.567   5.211   2.966
 4627SOL    HW114339   3.474   5.186   2.939
 4627SOL    HW214340   3.593   5.161   3.048
 4628SOL     OW14341   2.179   4.271   3.142
 4628SOL    HW114342   2.217   4.212   3.214
 4628SOL    HW214343   2.219   4.245   3.054
 4629SOL     OW14344   3.286   3.938   2.974
 4629SOL    HW114345   3.338   3.873   3.029
 4629SOL    HW214346   3.237   4.001   3.035
 4630SOL     OW14347   2.863   3.758   3.016
 4630SOL    HW114348   2.800   3.686   2.985
 4630SOL    HW214349   2.956   3.722   3.016
 4631SOL     OW14350   2.632   5.054   2.163
 4631SOL    HW114351   2.586   4.967   2.180
 4631SOL    HW214352   2.723   5.051   2.204
 4632SOL     OW14353   2.480   5.291   3.146
 4632SOL    HW114354   2.475   5.373   3.203
 4632SOL    HW214355   2.569   5.288   3.101
 4633SOL     OW14356   3.214   3.776   2.030
 4633SOL    HW114357   3.249   3.735   1.946
 4633SOL    HW214358   3.124   3.738   2.050
 4634SOL     OW14359   3.162   4.177   2.553
 4634SOL    HW114360   3.103   4.257   2.557
 4634SOL    HW214361   3.177   4.142   2.646
 4635SOL     OW14362   3.455   3.945   2.744
 4635SOL    HW114363   3.371   3.944   2.798
 4635SOL    HW214364   3.457   4.028   2.688
 4636SOL     OW14365   1.901   4.801   2.162
 4636SOL    HW114366   2.000   4.790   2.153
 4636SOL    HW214367   1.861   4.715   2.194
 4637SOL     OW14368   2.092   4.352   3.837
 4637SOL    HW114369   1.999   4.350   3.874
 4637SOL    HW214370   2.093   4.313   3.745
 4638SOL     OW14371   2.087   3.999   4.720
 4638SOL    HW114372   2.122   3.982   4.812
 4638SOL    HW214373   1.999   3.954   4.708
 4639SOL     OW14374   1.881   4.092   4.371
 4639SOL    HW114375   1.799   4.135   4.410
 4639SOL    HW214376   1.853   4.019   4.308
 4640SOL     OW14377   2.431   4.999   4.889
 4640SOL    HW114378   2.338   4.992   4.852
 4640SOL    HW214379   2.442   5.088   4.933
 4641SOL     OW14380   3.417   5.235   4.427
 4641SOL    HW114381   3.360   5.219   4.508
 4641SOL    HW214382   3.358   5.245   4.347
 4642SOL     OW14383   2.997   4.427   4.441
 4642SOL    HW114384   3.054   4.505   4.416
 4642SOL    HW214385   2.937   4.453   4.517
 4643SOL     OW14386   3.617   4.331   3.955
 4643SOL    HW114387   3.605   4.318   3.856
 4643SOL    HW214388   3.587   4.250   4.004
 4644SOL     OW14389   2.630   4.868   4.747
 4644SOL    HW114390   2.552   4.885   4.807
 4644SOL    HW214391   2.664   4.955   4.711
 4645SOL     OW14392   2.712   4.522   5.547
 4645SOL    HW114393   2.708   4.598   5.612
 4645SOL    HW214394   2.734   4.558   5.456
 4646SOL     OW14395   2.547   4.736   4.389
 4646SOL    HW114396   2.616   4.720   4.459
 4646SOL    HW214397   2.474   4.793   4.427
 4647SOL     OW14398   2.548   4.885   5.527
 4647SOL    HW114399   2.608   4.964   5.541
 4647SOL    HW214400   2.462   4.916   5.486
 4648SOL     OW14401   2.197   5.159   4.785
 4648SOL    HW114402   2.119   5.128   4.732
 4648SOL    HW214403   2.255   5.217   4.728
 4649SOL     OW14404   3.322   5.229   5.063
 4649SOL    HW114405   3.346   5.323   5.089
 4649SOL    HW214406   3.306   5.175   5.145
 4650SOL     OW14407   2.300   4.116   5.223
 4650SOL    HW114408   2.382   4.060   5.232
 4650SOL    HW214409   2.219   4.058   5.227
 4651SOL     OW14410   3.465   4.171   4.461
 4651SOL    HW114411   3.391   4.217   4.411
 4651SOL    HW214412   3.516   4.239   4.514
 4652SOL     OW14413   2.989   5.065   5.414
 4652SOL    HW114414   3.036   5.065   5.502
 4652SOL    HW214415   2.941   4.978   5.403
 4653SOL     OW14416   2.092   5.158   4.262
 4653SOL    HW114417   2.066   5.254   4.262
 4653SOL    HW214418   2.021   5.104   4.307
 4654SOL     OW14419   2.102   4.815   4.610
 4654SOL    HW114420   2.116   4.731   4.662
 4654SOL    HW214421   2.047   4.879   4.665
 4655SOL     OW14422   2.468   4.688   3.847
 4655SOL    HW114423   2.475   4.772   3.793
 4655SOL    HW214424   2.514   4.701   3.935
 4656SOL     OW14425   3.456   3.838   5.204
 4656SOL    HW114426   3.438   3.905   5.132
 4656SOL    HW214427   3.453   3.884   5.293
 4657SOL     OW14428   1.984   4.367   4.287
 4657SOL    HW114429   1.939   4.279   4.304
 4657SOL    HW214430   1.983   4.421   4.371
 4658SOL     OW14431   1.889   5.320   3.841
 4658SOL    HW114432   1.870   5.224   3.862
 4658SOL    HW214433   1.856   5.378   3.916
 4659SOL     OW14434   3.551   4.646   4.336
 4659SOL    HW114435   3.646   4.617   4.344
 4659SOL    HW214436   3.543   4.711   4.261
 4660SOL     OW14437   3.503   4.832   4.156
 4660SOL    HW114438   3.589   4.834   4.104
 4660SOL    HW214439   3.517   4.879   4.244
 4661SOL     OW14440   1.975   4.461   5.321
 4661SOL    HW114441   2.063   4.448   5.366
 4661SOL    HW214442   1.962   4.558   5.299
 4662SOL     OW14443   2.475   5.089   4.450
 4662SOL    HW114444   2.426   5.002   4.459
 4662SOL    HW214445   2.452   5.132   4.363
 4663SOL     OW14446   3.155   4.952   5.147
 4663SOL    HW114447   3.192   4.879   5.089
 4663SOL    HW214448   3.207   4.957   5.232
 4664SOL     OW14449   2.671   3.728   4.226
 4664SOL    HW114450   2.711   3.819   4.217
 4664SOL    HW214451   2.571   3.736   4.232
 4665SOL     OW14452   2.059   4.700   4.988
 4665SOL    HW114453   2.148   4.655   4.974
 4665SOL    HW214454   1.986   4.635   4.969
 4666SOL     OW14455   3.387   4.723   3.914
 4666SOL    HW114456   3.324   4.647   3.927
 4666SOL    HW214457   3.435   4.741   4.000
 4667SOL     OW14458   2.179   3.975   5.525
 4667SOL    HW114459   2.250   4.046   5.531
 4667SOL    HW214460   2.091   4.014   5.553
 4668SOL     OW14461   3.328   5.141   4.677
 4668SOL    HW114462   3.269   5.147   4.757
 4668SOL    HW214463   3.313   5.053   4.631
 4669SOL     OW14464   2.460   4.453   3.994
 4669SOL    HW114465   2.484   4.522   3.926
 4669SOL    HW214466   2.382   4.486   4.048
 4670SOL     OW14467   3.143   4.069   4.668
 4670SOL    HW114468   3.057   4.019   4.655
 4670SOL    HW214469   3.205   4.015   4.724
 4671SOL     OW14470   2.669   4.329   5.189
 4671SOL    HW114471   2.622   4.326   5.278
 4671SOL    HW214472   2.618   4.274   5.123
 4672SOL     OW14473   3.256   4.193   5.398
 4672SOL    HW114474   3.236   4.236   5.486
 4672SOL    HW214475   3.334   4.131   5.407
 4673SOL     OW14476   2.835   4.614   5.296
 4673SOL    HW114477   2.881   4.530   5.267
 4673SOL    HW214478   2.779   4.648   5.221
 4674SOL     OW14479   2.853   4.134   4.966
 4674SOL    HW114480   2.776   4.168   5.020
 4674SOL    HW214481   2.819   4.083   4.887
 4675SOL     OW14482   2.903   4.425   4.153
 4675SOL    HW114483   2.929   4.421   4.249
 4675SOL    HW214484   2.818   4.374   4.139
 4676SOL     OW14485   1.938   4.535   4.513
 4676SOL    HW114486   2.037   4.523   4.522
 4676SOL    HW214487   1.914   4.630   4.534
 4677SOL     OW14488   2.727   4.072   3.919
 4677SOL    HW114489   2.786   4.135   3.870
 4677SOL    HW214490   2.746   3.978   3.890
 4678SOL     OW14491   3.581   4.309   5.555
 4678SOL    HW114492   3.555   4.398   5.519
 4678SOL    HW214493   3.579   4.241   5.482
 4679SOL     OW14494   3.224   4.868   4.269
 4679SOL    HW114495   3.307   4.839   4.221
 4679SOL    HW214496   3.175   4.935   4.213
 4680SOL     OW14497   2.412   3.920   4.609
 4680SOL    HW114498   2.407   3.915   4.709
 4680SOL    HW214499   2.414   4.016   4.580
 4681SOL     OW14500   2.870   5.180   4.201
 4681SOL    HW114501   2.824   5.252   4.149
 4681SOL    HW214502   2.866   5.200   4.299
 4682SOL     OW14503   3.657   4.790   4.597
 4682SOL    HW114504   3.595   4.775   4.521
 4682SOL    HW214505   3.605   4.801   4.682
 4683SOL     OW14506   3.089   5.274   5.230
 4683SOL    HW114507   3.095   5.197   5.294
 4683SOL    HW214508   3.037   5.248   5.150
 4684SOL     OW14509   2.183   4.667   3.966
 4684SOL    HW114510   2.265   4.706   3.924
 4684SOL    HW214511   2.156   4.585   3.917
 4685SOL     OW14512   3.320   4.459   4.452
 4685SOL    HW114513   3.315   4.394   4.527
 4685SOL    HW214514   3.400   4.518   4.465
 4686SOL     OW14515   2.323   4.990   5.451
 4686SOL    HW114516   2.273   4.991   5.365
 4686SOL    HW214517   2.260   4.972   5.527
 4687SOL     OW14518   2.973   5.500   3.961
 4687SOL    HW114519   2.913   5.438   4.011
 4687SOL    HW214520   3.004   5.456   3.876
 4688SOL     OW14521   2.064   4.009   5.222
 4688SOL    HW114522   1.984   4.069   5.209
 4688SOL    HW214523   2.054   3.960   5.308
 4689SOL     OW14524   3.494   5.101   3.805
 4689SOL    HW114525   3.462   5.195   3.795
 4689SOL    HW214526   3.418   5.038   3.793
 4690SOL     OW14527   3.262   3.831   4.150
 4690SOL    HW114528   3.238   3.794   4.060
 4690SOL    HW214529   3.361   3.847   4.154
 4691SOL     OW14530   2.244   4.424   4.204
 4691SOL    HW114531   2.289   4.334   4.201
 4691SOL    HW214532   2.150   4.413   4.237
 4692SOL     OW14533   3.409   3.946   5.453
 4692SOL    HW114534   3.404   3.983   5.545
 4692SOL    HW214535   3.337   3.877   5.441
 4693SOL     OW14536   2.476   3.846   3.841
 4693SOL    HW114537   2.574   3.824   3.848
 4693SOL    HW214538   2.445   3.829   3.748
 4694SOL     OW14539   2.643   3.988   5.473
 4694SOL    HW114540   2.710   3.927   5.516
 4694SOL    HW214541   2.570   4.007   5.538
 4695SOL     OW14542   3.213   4.314   5.157
 4695SOL    HW114543   3.241   4.271   5.242
 4695SOL    HW214544   3.238   4.410   5.158
 4696SOL     OW14545   2.665   5.126   4.648
 4696SOL    HW114546   2.755   5.140   4.606
 4696SOL    HW214547   2.594   5.128   4.577
 4697SOL     OW14548   2.784   4.227   4.623
 4697SOL    HW114549   2.759   4.218   4.527
 4697SOL    HW214550   2.832   4.145   4.654
 4698SOL     OW14551   2.401   3.788   4.236
 4698SOL    HW114552   2.320   3.789   4.294
 4698SOL    HW214553   2.404   3.871   4.181
 4699SOL     OW14554   3.296   4.912   3.765
 4699SOL    HW114555   3.328   4.836   3.822
 4699SOL    HW214556   3.204   4.939   3.795
 4700SOL     OW14557   2.159   3.759   3.895
 4700SOL    HW114558   2.208   3.843   3.874
 4700SOL    HW214559   2.221   3.694   3.940
 4701SOL     OW14560   2.797   3.960   4.204
 4701SOL    HW114561   2.749   4.001   4.126
 4701SOL    HW214562   2.896   3.958   4.185
 4702SOL     OW14563   2.938   4.407   5.188
 4702SOL    HW114564   2.858   4.346   5.191
 4702SOL    HW214565   3.019   4.354   5.164
 4703SOL     OW14566   3.089   5.294   4.517
 4703SOL    HW114567   3.110   5.368   4.452
 4703SOL    HW214568   3.157   5.294   4.590
 4704SOL     OW14569   2.321   4.876   4.465
 4704SOL    HW114570   2.250   4.849   4.530
 4704SOL    HW214571   2.295   4.848   4.372
 4705SOL     OW14572   2.894   4.273   3.740
 4705SOL    HW114573   2.853   4.355   3.701
 4705SOL    HW214574   2.958   4.299   3.813
 4706SOL     OW14575   1.940   4.280   5.110
 4706SOL    HW114576   2.032   4.279   5.069
 4706SOL    HW214577   1.934   4.354   5.177
 4707SOL     OW14578   2.423   3.946   4.871
 4707SOL    HW114579   2.461   3.862   4.908
 4707SOL    HW214580   2.335   3.965   4.915
 4708SOL     OW14581   2.728   4.178   4.366
 4708SOL    HW114582   2.696   4.250   4.304
 4708SOL    HW214583   2.752   4.097   4.313
 4709SOL     OW14584   2.879   3.763   4.477
 4709SOL    HW114585   2.807   3.768   4.408
 4709SOL    HW214586   2.855   3.694   4.546
 4710SOL     OW14587   3.291   4.897   4.591
 4710SOL    HW114588   3.236   4.813   4.584
 4710SOL    HW214589   3.317   4.926   4.499
 4711SOL     OW14590   3.328   4.314   4.716
 4711SOL    HW114591   3.298   4.219   4.723
 4711SOL    HW214592   3.401   4.330   4.782
 4712SOL     OW14593   3.719   4.557   4.101
 4712SOL    HW114594   3.761   4.493   4.165
 4712SOL    HW214595   3.681   4.506   4.023
 4713SOL     OW14596   2.350   5.109   3.898
 4713SOL    HW114597   2.263   5.094   3.945
 4713SOL    HW214598   2.333   5.135   3.803
 4714SOL     OW14599   3.526   5.004   4.381
 4714SOL    HW114600   3.625   5.012   4.395
 4714SOL    HW214601   3.481   5.088   4.412
 4715SOL     OW14602   3.252   4.299   3.802
 4715SOL    HW114603   3.198   4.278   3.883
 4715SOL    HW214604   3.343   4.258   3.811
 4716SOL     OW14605   2.389   3.980   4.052
 4716SOL    HW114606   2.416   3.921   3.977
 4716SOL    HW214607   2.389   4.075   4.021
 4717SOL     OW14608   3.616   4.947   5.312
 4717SOL    HW114609   3.707   4.908   5.299
 4717SOL    HW214610   3.624   5.043   5.336
 4718SOL     OW14611   2.926   5.071   5.064
 4718SOL    HW114612   2.846   5.048   5.119
 4718SOL    HW214613   3.009   5.045   5.113
 4719SOL     OW14614   2.973   4.919   4.824
 4719SOL    HW114615   2.933   4.963   4.905
 4719SOL    HW214616   2.932   4.956   4.741
 4720SOL     OW14617   3.500   4.823   4.803
 4720SOL    HW114618   3.505   4.904   4.862
 4720SOL    HW214619   3.414   4.825   4.752
 4721SOL     OW14620   2.777   3.813   5.126
 4721SOL    HW114621   2.802   3.793   5.031
 4721SOL    HW214622   2.849   3.869   5.168
 4722SOL     OW14623   2.842   4.840   5.443
 4722SOL    HW114624   2.743   4.846   5.453
 4722SOL    HW214625   2.865   4.760   5.387
 4723SOL     OW14626   2.567   4.774   4.092
 4723SOL    HW114627   2.553   4.781   4.191
 4723SOL    HW214628   2.651   4.723   4.074
 4724SOL     OW14629   2.272   4.537   4.975
 4724SOL    HW114630   2.358   4.549   5.025
 4724SOL    HW214631   2.230   4.450   5.002
 4725SOL     OW14632   3.136   4.110   4.986
 4725SOL    HW114633   3.157   4.184   5.050
 4725SOL    HW214634   3.047   4.127   4.943
 4726SOL     OW14635   2.229   4.824   4.225
 4726SOL    HW114636   2.222   4.907   4.169
 4726SOL    HW214637   2.233   4.744   4.165
 4727SOL     OW14638   2.428   4.261   4.589
 4727SOL    HW114639   2.440   4.327   4.515
 4727SOL    HW214640   2.474   4.295   4.672
 4728SOL     OW14641   3.114   5.072   4.112
 4728SOL    HW114642   3.164   5.149   4.152
 4728SOL    HW214643   3.019   5.074   4.144
 4729SOL     OW14644   3.134   5.169   4.866
 4729SOL    HW114645   3.181   5.182   4.953
 4729SOL    HW214646   3.068   5.095   4.875
 4730SOL     OW14647   3.444   4.363   4.196
 4730SOL    HW114648   3.413   4.424   4.269
 4730SOL    HW214649   3.494   4.415   4.127
 4731SOL     OW14650   2.216   5.234   5.053
 4731SOL    HW114651   2.195   5.190   4.966
 4731SOL    HW214652   2.313   5.260   5.056
 4732SOL     OW14653   2.264   4.475   5.322
 4732SOL    HW114654   2.332   4.530   5.275
 4732SOL    HW214655   2.304   4.387   5.349
 4733SOL     OW14656   3.449   4.503   5.394
 4733SOL    HW114657   3.357   4.541   5.389
 4733SOL    HW214658   3.509   4.550   5.329
 4734SOL     OW14659   2.875   3.829   5.494
 4734SOL    HW114660   2.881   3.914   5.442
 4734SOL    HW214661   2.907   3.753   5.437
 4735SOL     OW14662   2.366   3.774   5.464
 4735SOL    HW114663   2.324   3.717   5.394
 4735SOL    HW214664   2.300   3.843   5.496
 4736SOL     OW14665   2.435   4.594   4.753
 4736SOL    HW114666   2.479   4.683   4.744
 4736SOL    HW214667   2.372   4.594   4.830
 4737SOL     OW14668   3.222   4.586   4.769
 4737SOL    HW114669   3.147   4.586   4.703
 4737SOL    HW214670   3.259   4.494   4.778
 4738SOL     OW14671   3.071   4.249   3.999
 4738SOL    HW114672   3.084   4.165   4.053
 4738SOL    HW214673   3.042   4.323   4.059
 4739SOL     OW14674   2.169   3.937   4.955
 4739SOL    HW114675   2.146   3.974   5.045
 4739SOL    HW214676   2.139   3.842   4.949
 4740SOL     OW14677   1.899   5.034   5.006
 4740SOL    HW114678   1.952   4.985   5.074
 4740SOL    HW214679   1.921   5.132   5.011
 4741SOL     OW14680   2.594   4.358   4.788
 4741SOL    HW114681   2.653   4.332   4.712
 4741SOL    HW214682   2.566   4.454   4.777
 4742SOL     OW14683   3.590   4.659   5.578
 4742SOL    HW114684   3.544   4.652   5.489
 4742SOL    HW214685   3.528   4.703   5.644
 4743SOL     OW14686   2.169   3.787   4.342
 4743SOL    HW114687   2.158   3.881   4.375
 4743SOL    HW214688   2.164   3.724   4.419
 4744SOL     OW14689   3.484   4.091   4.098
 4744SOL    HW114690   3.486   4.015   4.162
 4744SOL    HW214691   3.436   4.168   4.138
 4745SOL     OW14692   2.885   4.490   4.690
 4745SOL    HW114693   2.900   4.511   4.786
 4745SOL    HW214694   2.855   4.395   4.681
 4746SOL     OW14695   3.721   5.242   5.329
 4746SOL    HW114696   3.735   5.269   5.234
 4746SOL    HW214697   3.804   5.264   5.382
 4747SOL     OW14698   2.212   4.622   5.528
 4747SOL    HW114699   2.288   4.666   5.576
 4747SOL    HW214700   2.247   4.575   5.446
 4748SOL     OW14701   3.402   3.998   3.849
 4748SOL    HW114702   3.341   3.923   3.872
 4748SOL    HW214703   3.424   4.050   3.932
 4749SOL     OW14704   3.165   4.562   3.766
 4749SOL    HW114705   3.199   4.469   3.781
 4749SOL    HW214706   3.183   4.589   3.671
 4750SOL     OW14707   2.930   5.057   4.573
 4750SOL    HW114708   2.937   4.973   4.518
 4750SOL    HW214709   2.992   5.126   4.537
 4751SOL     OW14710   2.181   4.534   4.673
 4751SOL    HW114711   2.274   4.570   4.678
 4751SOL    HW214712   2.175   4.449   4.725
 4752SOL     OW14713   2.201   4.233   4.730
 4752SOL    HW114714   2.149   4.150   4.713
 4752SOL    HW214715   2.278   4.238   4.666
 4753SOL     OW14716   3.000   4.104   5.402
 4753SOL    HW114717   2.955   4.167   5.466
 4753SOL    HW214718   3.093   4.135   5.385
 4754SOL     OW14719   3.022   3.931   5.201
 4754SOL    HW114720   3.022   3.995   5.278
 4754SOL    HW214721   3.050   3.979   5.118
 4755SOL     OW14722   1.870   5.050   3.924
 4755SOL    HW114723   1.777   5.071   3.893
 4755SOL    HW214724   1.880   4.951   3.937
 4756SOL     OW14725   2.864   4.520   4.962
 4756SOL    HW114726   2.905   4.488   5.048
 4756SOL    HW214727   2.768   4.493   4.959
 4757SOL     OW14728   1.902   4.268   4.838
 4757SOL    HW114729   1.987   4.235   4.797
 4757SOL    HW214730   1.915   4.283   4.936
 4758SOL     OW14731   2.051   4.244   5.446
 4758SOL    HW114732   2.110   4.204   5.376
 4758SOL    HW214733   1.993   4.315   5.405
 4759SOL     OW14734   3.231   4.674   5.384
 4759SOL    HW114735   3.270   4.763   5.404
 4759SOL    HW214736   3.241   4.654   5.287
 4760SOL     OW14737   2.677   4.296   4.049
 4760SOL    HW114738   2.684   4.207   4.003
 4760SOL    HW214739   2.583   4.330   4.041
 4761SOL     OW14740   3.519   4.328   4.930
 4761SOL    HW114741   3.481   4.259   4.992
 4761SOL    HW214742   3.601   4.292   4.886
 4762SOL     OW14743   2.114   5.288   5.468
 4762SOL    HW114744   2.084   5.345   5.544
 4762SOL    HW214745   2.107   5.191   5.494
 4763SOL     OW14746   2.533   4.188   4.993
 4763SOL    HW114747   2.499   4.099   4.963
 4763SOL    HW214748   2.559   4.242   4.913
 4764SOL     OW14749   2.335   4.224   3.915
 4764SOL    HW114750   2.396   4.304   3.919
 4764SOL    HW214751   2.240   4.255   3.922
 4765SOL     OW14752   2.021   4.861   5.190
 4765SOL    HW114753   2.043   4.800   5.266
 4765SOL    HW214754   2.031   4.812   5.104
 4766SOL     OW14755   3.209   4.783   4.958
 4766SOL    HW114756   3.233   4.720   4.884
 4766SOL    HW214757   3.119   4.823   4.940
 4767SOL     OW14758   3.164   4.579   4.033
 4767SOL    HW114759   3.078   4.548   4.075
 4767SOL    HW214760   3.160   4.565   3.934
 4768SOL     OW14761   1.945   4.982   4.746
 4768SOL    HW114762   1.940   4.981   4.846
 4768SOL    HW214763   1.862   4.941   4.708
 4769SOL     OW14764   2.550   5.386   5.440
 4769SOL    HW114765   2.494   5.467   5.449
 4769SOL    HW214766   2.602   5.390   5.354
 4770SOL     OW14767   3.588   3.859   4.247
 4770SOL    HW114768   3.661   3.842   4.180
 4770SOL    HW214769   3.557   3.772   4.285
 4771SOL     OW14770   3.142   4.651   4.396
 4771SOL    HW114771   3.202   4.570   4.398
 4771SOL    HW214772   3.182   4.720   4.336
 4772SOL     OW14773   2.692   4.997   5.146
 4772SOL    HW114774   2.687   5.030   5.241
 4772SOL    HW214775   2.606   5.016   5.100
 4773SOL     OW14776   3.703   3.899   4.687
 4773SOL    HW114777   3.742   3.814   4.651
 4773SOL    HW214778   3.605   3.901   4.668
 4774SOL     OW14779   2.125   4.050   4.444
 4774SOL    HW114780   2.046   4.101   4.410
 4774SOL    HW214781   2.116   4.035   4.542
 4775SOL     OW14782   2.684   4.726   5.096
 4775SOL    HW114783   2.724   4.725   5.004
 4775SOL    HW214784   2.694   4.818   5.136
 4776SOL     OW14785   2.778   4.634   4.015
 4776SOL    HW114786   2.841   4.672   3.947
 4776SOL    HW214787   2.818   4.551   4.054
 4777SOL     OW14788   2.234   5.012   5.214
 4777SOL    HW114789   2.221   5.105   5.180
 4777SOL    HW214790   2.150   4.960   5.201
 4778SOL     OW14791   3.476   5.016   5.013
 4778SOL    HW114792   3.536   5.019   5.093
 4778SOL    HW214793   3.401   5.080   5.026
 4779SOL     OW14794   2.901   4.822   4.420
 4779SOL    HW114795   2.831   4.775   4.474
 4779SOL    HW214796   2.960   4.754   4.377
 4780SOL     OW14797   2.876   3.960   4.695
 4780SOL    HW114798   2.868   3.924   4.602
 4780SOL    HW214799   2.874   3.884   4.760
 4781SOL     OW14800   3.571   4.109   5.105
 4781SOL    HW114801   3.644   4.178   5.109
 4781SOL    HW214802   3.599   4.034   5.046
 4782SOL     OW14803   2.117   5.072   4.014
 4782SOL    HW114804   2.021   5.073   3.987
 4782SOL    HW214805   2.129   5.125   4.098
 4783SOL     OW14806   1.967   4.737   5.450
 4783SOL    HW114807   1.890   4.704   5.504
 4783SOL    HW214808   2.052   4.707   5.492
 4784SOL     OW14809   2.534   3.927   5.213
 4784SOL    HW114810   2.624   3.911   5.173
 4784SOL    HW214811   2.542   3.932   5.312
 4785SOL     OW14812   1.937   4.069   3.757
 4785SOL    HW114813   1.845   4.041   3.728
 4785SOL    HW214814   1.968   4.146   3.701
 4786SOL     OW14815   3.302   4.580   5.122
 4786SOL    HW114816   3.245   4.632   5.059
 4786SOL    HW214817   3.398   4.592   5.098
 4787SOL     OW14818   1.934   3.890   4.042
 4787SOL    HW114819   1.917   3.973   3.988
 4787SOL    HW214820   2.024   3.853   4.020
 4788SOL     OW14821   3.045   5.059   3.843
 4788SOL    HW114822   2.946   5.048   3.845
 4788SOL    HW214823   3.079   5.074   3.936
 4789SOL     OW14824   2.475   4.566   5.155
 4789SOL    HW114825   2.531   4.647   5.138
 4789SOL    HW214826   2.534   4.486   5.158
 4790SOL     OW14827   2.578   4.289   5.432
 4790SOL    HW114828   2.597   4.354   5.506
 4790SOL    HW214829   2.638   4.209   5.441
 4791SOL     OW14830   3.312   4.944   5.357
 4791SOL    HW114831   3.303   4.934   5.456
 4791SOL    HW214832   3.408   4.937   5.331
 4792SOL     OW14833   3.536   4.607   4.978
 4792SOL    HW114834   3.509   4.518   4.941
 4792SOL    HW214835   3.537   4.675   4.905
 4793SOL     OW14836   3.087   4.049   4.173
 4793SOL    HW114837   3.152   3.975   4.162
 4793SOL    HW214838   3.107   4.099   4.257
 4794SOL     OW14839   2.456   4.469   4.376
 4794SOL    HW114840   2.506   4.554   4.357
 4794SOL    HW214841   2.368   4.471   4.328
 4795SOL     OW14842   3.639   4.066   5.366
 4795SOL    HW114843   3.622   4.097   5.272
 4795SOL    HW214844   3.555   4.029   5.404
 4796SOL     OW14845   3.592   4.658   5.241
 4796SOL    HW114846   3.630   4.749   5.256
 4796SOL    HW214847   3.584   4.641   5.142
 4797SOL     OW14848   2.721   5.098   3.740
 4797SOL    HW114849   2.675   5.113   3.828
 4797SOL    HW214850   2.765   5.183   3.710
 4798SOL     OW14851   2.721   4.680   4.585
 4798SOL    HW114852   2.775   4.611   4.633
 4798SOL    HW214853   2.689   4.749   4.651
 4799SOL     OW14854   2.945   4.708   3.811
 4799SOL    HW114855   2.922   4.761   3.729
 4799SOL    HW214856   3.026   4.652   3.792
 4800SOL     OW14857   2.083   5.038   5.568
 4800SOL    HW114858   2.018   4.965   5.547
 4800SOL    HW214859   2.087   5.052   5.666
 4801SOL     OW14860   1.941   4.964   4.377
 4801SOL    HW114861   1.940   4.917   4.465
 4801SOL    HW214862   2.023   4.936   4.326
 4802SOL     OW14863   2.534   5.115   5.348
 4802SOL    HW114864   2.456   5.065   5.386
 4802SOL    HW214865   2.531   5.210   5.379
 4803SOL     OW14866   3.686   3.916   4.951
 4803SOL    HW114867   3.682   3.826   4.995
 4803SOL    HW214868   3.689   3.905   4.852
 4804SOL     OW14869   2.290   4.148   4.244
 4804SOL    HW114870   2.320   4.076   4.182
 4804SOL    HW214871   2.251   4.108   4.327
 4805SOL     OW14872   3.567   5.211   4.828
 4805SOL    HW114873   3.474   5.186   4.801
 4805SOL    HW214874   3.593   5.161   4.910
 4806SOL     OW14875   2.179   4.271   5.004
 4806SOL    HW114876   2.217   4.212   5.076
 4806SOL    HW214877   2.219   4.245   4.916
 4807SOL     OW14878   3.286   3.938   4.836
 4807SOL    HW114879   3.338   3.873   4.891
 4807SOL    HW214880   3.237   4.001   4.897
 4808SOL     OW14881   2.863   3.758   4.878
 4808SOL    HW114882   2.800   3.686   4.847
 4808SOL    HW214883   2.956   3.722   4.878
 4809SOL     OW14884   2.632   5.054   4.025
 4809SOL    HW114885   2.586   4.967   4.042
 4809SOL    HW214886   2.723   5.051   4.066
 4810SOL     OW14887   2.480   5.291   5.008
 4810SOL    HW114888   2.475   5.373   5.065
 4810SOL    HW214889   2.569   5.288   4.963
 4811SOL     OW14890   3.214   3.776   3.892
 4811SOL    HW114891   3.249   3.735   3.808
 4811SOL    HW214892   3.124   3.738   3.912
 4812SOL     OW14893   3.162   4.177   4.415
 4812SOL    HW114894   3.103   4.257   4.419
 4812SOL    HW214895   3.177   4.142   4.508
 4813SOL     OW14896   3.455   3.945   4.606
 4813SOL    HW114897   3.371   3.944   4.660
 4813SOL    HW214898   3.457   4.028   4.550
 4814SOL     OW14899   1.901   4.801   4.024
 4814SOL    HW114900   2.000   4.790   4.015
 4814SOL    HW214901   1.861   4.715   4.056
 4815SOL     OW14902   2.092   4.352   5.699
 4815SOL    HW114903   1.999   4.350   5.736
 4815SOL    HW214904   2.093   4.313   5.607
 4816SOL     OW14905   2.087   3.999   6.582
 4816SOL    HW114906   2.122   3.982   6.674
 4816SOL    HW214907   1.999   3.954   6.570
 4817SOL     OW14908   1.881   4.092   6.233
 4817SOL    HW114909   1.799   4.135   6.272
 4817SOL    HW214910   1.853   4.019   6.170
 4818SOL     OW14911   2.431   4.999   6.751
 4818SOL    HW114912   2.338   4.992   6.714
 4818SOL    HW214913   2.442   5.088   6.795
 4819SOL     OW14914   3.417   5.235   6.289
 4819SOL    HW114915   3.360   5.219   6.370
 4819SOL    HW214916   3.358   5.245   6.209
 4820SOL     OW14917   2.997   4.427   6.303
 4820SOL    HW114918   3.054   4.505   6.278
 4820SOL    HW214919   2.937   4.453   6.379
 4821SOL     OW14920   3.617   4.331   5.817
 4821SOL    HW114921   3.605   4.318   5.718
 4821SOL    HW214922   3.587   4.250   5.866
 4822SOL     OW14923   2.630   4.868   6.609
 4822SOL    HW114924   2.552   4.885   6.669
 4822SOL    HW214925   2.664   4.955   6.573
 4823SOL     OW14926   2.712   4.522   7.409
 4823SOL    HW114927   2.708   4.598   7.474
 4823SOL    HW214928   2.734   4.558   7.318
 4824SOL     OW14929   2.547   4.736   6.251
 4824SOL    HW114930   2.616   4.720   6.321
 4824SOL    HW214931   2.474   4.793   6.289
 4825SOL     OW14932   2.548   4.885   7.389
 4825SOL    HW114933   2.608   4.964   7.403
 4825SOL    HW214934   2.462   4.916   7.348
 4826SOL     OW14935   2.197   5.159   6.647
 4826SOL    HW114936   2.119   5.128   6.594
 4826SOL    HW214937   2.255   5.217   6.590
 4827SOL     OW14938   3.322   5.229   6.925
 4827SOL    HW114939   3.346   5.323   6.951
 4827SOL    HW214940   3.306   5.175   7.007
 4828SOL     OW14941   2.300   4.116   7.085
 4828SOL    HW114942   2.382   4.060   7.094
 4828SOL    HW214943   2.219   4.058   7.089
 4829SOL     OW14944   3.465   4.171   6.323
 4829SOL    HW114945   3.391   4.217   6.273
 4829SOL    HW214946   3.516   4.239   6.376
 4830SOL     OW14947   2.989   5.065   7.276
 4830SOL    HW114948   3.036   5.065   7.364
 4830SOL    HW214949   2.941   4.978   7.265
 4831SOL     OW14950   2.092   5.158   6.124
 4831SOL    HW114951   2.066   5.254   6.124
 4831SOL    HW214952   2.021   5.104   6.169
 4832SOL     OW14953   2.102   4.815   6.472
 4832SOL    HW114954   2.116   4.731   6.524
 4832SOL    HW214955   2.047   4.879   6.527
 4833SOL     OW14956   2.468   4.688   5.709
 4833SOL    HW114957   2.475   4.772   5.655
 4833SOL    HW214958   2.514   4.701   5.797
 4834SOL     OW14959   3.456   3.838   7.066
 4834SOL    HW114960   3.438   3.905   6.994
 4834SOL    HW214961   3.453   3.884   7.155
 4835SOL     OW14962   1.984   4.367   6.149
 4835SOL    HW114963   1.939   4.279   6.166
 4835SOL    HW214964   1.983   4.421   6.233
 4836SOL     OW14965   1.889   5.320   5.703
 4836SOL    HW114966   1.870   5.224   5.724
 4836SOL    HW214967   1.856   5.378   5.778
 4837SOL     OW14968   3.551   4.646   6.198
 4837SOL    HW114969   3.646   4.617   6.206
 4837SOL    HW214970   3.543   4.711   6.123
 4838SOL     OW14971   3.503   4.832   6.018
 4838SOL    HW114972   3.589   4.834   5.966
 4838SOL    HW214973   3.517   4.879   6.106
 4839SOL     OW14974   1.975   4.461   7.183
 4839SOL    HW114975   2.063   4.448   7.228
 4839SOL    HW214976   1.962   4.558   7.161
 4840SOL     OW14977   2.475   5.089   6.312
 4840SOL    HW114978   2.426   5.002   6.321
 4840SOL    HW214979   2.452   5.132   6.225
 4841SOL     OW14980   3.155   4.952   7.009
 4841SOL    HW114981   3.192   4.879   6.951
 4841SOL    HW214982   3.207   4.957   7.094
 4842SOL     OW14983   2.671   3.728   6.088
 4842SOL    HW114984   2.711   3.819   6.079
 4842SOL    HW214985   2.571   3.736   6.094
 4843SOL     OW14986   2.059   4.700   6.850
 4843SOL    HW114987   2.148   4.655   6.836
 4843SOL    HW214988   1.986   4.635   6.831
 4844SOL     OW14989   3.387   4.723   5.776
 4844SOL    HW114990   3.324   4.647   5.789
 4844SOL    HW214991   3.435   4.741   5.862
 4845SOL     OW14992   2.179   3.975   7.387
 4845SOL    HW114993   2.250   4.046   7.393
 4845SOL    HW214994   2.091   4.014   7.415
 4846SOL     OW14995   3.328   5.141   6.539
 4846SOL    HW114996   3.269   5.147   6.619
 4846SOL    HW214997   3.313   5.053   6.493
 4847SOL     OW14998   2.460   4.453   5.856
 4847SOL    HW114999   2.484   4.522   5.788
 4847SOL    HW215000   2.382   4.486   5.910
 4848SOL     OW15001   3.143   4.069   6.530
 4848SOL    HW115002   3.057   4.019   6.517
 4848SOL    HW215003   3.205   4.015   6.586
 4849SOL     OW15004   2.669   4.329   7.051
 4849SOL    HW115005   2.622   4.326   7.140
 4849SOL    HW215006   2.618   4.274   6.985
 4850SOL     OW15007   3.256   4.193   7.260
 4850SOL    HW115008   3.236   4.236   7.348
 4850SOL    HW215009   3.334   4.131   7.269
 4851SOL     OW15010   2.835   4.614   7.158
 4851SOL    HW115011   2.881   4.530   7.129
 4851SOL    HW215012   2.779   4.648   7.083
 4852SOL     OW15013   2.853   4.134   6.828
 4852SOL    HW115014   2.776   4.168   6.882
 4852SOL    HW215015   2.819   4.083   6.749
 4853SOL     OW15016   2.903   4.425   6.015
 4853SOL    HW115017   2.929   4.421   6.111
 4853SOL    HW215018   2.818   4.374   6.001
 4854SOL     OW15019   1.938   4.535   6.375
 4854SOL    HW115020   2.037   4.523   6.384
 4854SOL    HW215021   1.914   4.630   6.396
 4855SOL     OW15022   2.727   4.072   5.781
 4855SOL    HW115023   2.786   4.135   5.732
 4855SOL    HW215024   2.746   3.978   5.752
 4856SOL     OW15025   3.581   4.309   7.417
 4856SOL    HW115026   3.555   4.398   7.381
 4856SOL    HW215027   3.579   4.241   7.344
 4857SOL     OW15028   3.224   4.868   6.131
 4857SOL    HW115029   3.307   4.839   6.083
 4857SOL    HW215030   3.175   4.935   6.075
 4858SOL     OW15031   2.412   3.920   6.471
 4858SOL    HW115032   2.407   3.915   6.571
 4858SOL    HW215033   2.414   4.016   6.442
 4859SOL     OW15034   2.870   5.180   6.063
 4859SOL    HW115035   2.824   5.252   6.011
 4859SOL    HW215036   2.866   5.200   6.161
 4860SOL     OW15037   3.657   4.790   6.459
 4860SOL    HW115038   3.595   4.775   6.383
 4860SOL    HW215039   3.605   4.801   6.544
 4861SOL     OW15040   3.089   5.274   7.092
 4861SOL    HW115041   3.095   5.197   7.156
 4861SOL    HW215042   3.037   5.248   7.012
 4862SOL     OW15043   2.183   4.667   5.828
 4862SOL    HW115044   2.265   4.706   5.786
 4862SOL    HW215045   2.156   4.585   5.779
 4863SOL     OW15046   3.320   4.459   6.314
 4863SOL    HW115047   3.315   4.394   6.389
 4863SOL    HW215048   3.400   4.518   6.327
 4864SOL     OW15049   2.323   4.990   7.313
 4864SOL    HW115050   2.273   4.991   7.227
 4864SOL    HW215051   2.260   4.972   7.389
 4865SOL     OW15052   2.973   5.500   5.823
 4865SOL    HW115053   2.913   5.438   5.873
 4865SOL    HW215054   3.004   5.456   5.738
 4866SOL     OW15055   2.064   4.009   7.084
 4866SOL    HW115056   1.984   4.069   7.071
 4866SOL    HW215057   2.054   3.960   7.170
 4867SOL     OW15058   3.494   5.101   5.667
 4867SOL    HW115059   3.462   5.195   5.657
 4867SOL    HW215060   3.418   5.038   5.655
 4868SOL     OW15061   3.262   3.831   6.012
 4868SOL    HW115062   3.238   3.794   5.922
 4868SOL    HW215063   3.361   3.847   6.016
 4869SOL     OW15064   2.244   4.424   6.066
 4869SOL    HW115065   2.289   4.334   6.063
 4869SOL    HW215066   2.150   4.413   6.099
 4870SOL     OW15067   3.409   3.946   7.315
 4870SOL    HW115068   3.404   3.983   7.407
 4870SOL    HW215069   3.337   3.877   7.303
 4871SOL     OW15070   2.476   3.846   5.703
 4871SOL    HW115071   2.574   3.824   5.710
 4871SOL    HW215072   2.445   3.829   5.610
 4872SOL     OW15073   2.643   3.988   7.335
 4872SOL    HW115074   2.710   3.927   7.378
 4872SOL    HW215075   2.570   4.007   7.400
 4873SOL     OW15076   3.213   4.314   7.019
 4873SOL    HW115077   3.241   4.271   7.104
 4873SOL    HW215078   3.238   4.410   7.020
 4874SOL     OW15079   2.665   5.126   6.510
 4874SOL    HW115080   2.755   5.140   6.468
 4874SOL    HW215081   2.594   5.128   6.439
 4875SOL     OW15082   2.784   4.227   6.485
 4875SOL    HW115083   2.759   4.218   6.389
 4875SOL    HW215084   2.832   4.145   6.516
 4876SOL     OW15085   2.401   3.788   6.098
 4876SOL    HW115086   2.320   3.789   6.156
 4876SOL    HW215087   2.404   3.871   6.043
 4877SOL     OW15088   3.296   4.912   5.627
 4877SOL    HW115089   3.328   4.836   5.684
 4877SOL    HW215090   3.204   4.939   5.657
 4878SOL     OW15091   2.159   3.759   5.757
 4878SOL    HW115092   2.208   3.843   5.736
 4878SOL    HW215093   2.221   3.694   5.802
 4879SOL     OW15094   2.797   3.960   6.066
 4879SOL    HW115095   2.749   4.001   5.988
 4879SOL    HW215096   2.896   3.958   6.047
 4880SOL     OW15097   2.938   4.407   7.050
 4880SOL    HW115098   2.858   4.346   7.053
 4880SOL    HW215099   3.019   4.354   7.026
 4881SOL     OW15100   3.089   5.294   6.379
 4881SOL    HW115101   3.110   5.368   6.314
 4881SOL    HW215102   3.157   5.294   6.452
 4882SOL     OW15103   2.321   4.876   6.327
 4882SOL    HW115104   2.250   4.849   6.392
 4882SOL    HW215105   2.295   4.848   6.234
 4883SOL     OW15106   2.894   4.273   5.602
 4883SOL    HW115107   2.853   4.355   5.563
 4883SOL    HW215108   2.958   4.299   5.675
 4884SOL     OW15109   1.940   4.280   6.972
 4884SOL    HW115110   2.032   4.279   6.931
 4884SOL    HW215111   1.934   4.354   7.039
 4885SOL     OW15112   2.423   3.946   6.733
 4885SOL    HW115113   2.461   3.862   6.770
 4885SOL    HW215114   2.335   3.965   6.777
 4886SOL     OW15115   2.728   4.178   6.228
 4886SOL    HW115116   2.696   4.250   6.166
 4886SOL    HW215117   2.752   4.097   6.175
 4887SOL     OW15118   2.879   3.763   6.339
 4887SOL    HW115119   2.807   3.768   6.270
 4887SOL    HW215120   2.855   3.694   6.408
 4888SOL     OW15121   3.291   4.897   6.453
 4888SOL    HW115122   3.236   4.813   6.446
 4888SOL    HW215123   3.317   4.926   6.361
 4889SOL     OW15124   3.328   4.314   6.578
 4889SOL    HW115125   3.298   4.219   6.585
 4889SOL    HW215126   3.401   4.330   6.644
 4890SOL     OW15127   3.719   4.557   5.963
 4890SOL    HW115128   3.761   4.493   6.027
 4890SOL    HW215129   3.681   4.506   5.885
 4891SOL     OW15130   2.350   5.109   5.760
 4891SOL    HW115131   2.263   5.094   5.807
 4891SOL    HW215132   2.333   5.135   5.665
 4892SOL     OW15133   3.526   5.004   6.243
 4892SOL    HW115134   3.625   5.012   6.257
 4892SOL    HW215135   3.481   5.088   6.274
 4893SOL     OW15136   3.252   4.299   5.664
 4893SOL    HW115137   3.198   4.278   5.745
 4893SOL    HW215138   3.343   4.258   5.673
 4894SOL     OW15139   2.389   3.980   5.914
 4894SOL    HW115140   2.416   3.921   5.839
 4894SOL    HW215141   2.389   4.075   5.883
 4895SOL     OW15142   3.616   4.947   7.174
 4895SOL    HW115143   3.707   4.908   7.161
 4895SOL    HW215144   3.624   5.043   7.198
 4896SOL     OW15145   2.926   5.071   6.926
 4896SOL    HW115146   2.846   5.048   6.981
 4896SOL    HW215147   3.009   5.045   6.975
 4897SOL     OW15148   2.973   4.919   6.686
 4897SOL    HW115149   2.933   4.963   6.767
 4897SOL    HW215150   2.932   4.956   6.603
 4898SOL     OW15151   3.500   4.823   6.665
 4898SOL    HW115152   3.505   4.904   6.724
 4898SOL    HW215153   3.414   4.825   6.614
 4899SOL     OW15154   2.777   3.813   6.988
 4899SOL    HW115155   2.802   3.793   6.893
 4899SOL    HW215156   2.849   3.869   7.030
 4900SOL     OW15157   2.842   4.840   7.305
 4900SOL    HW115158   2.743   4.846   7.315
 4900SOL    HW215159   2.865   4.760   7.249
 4901SOL     OW15160   2.567   4.774   5.954
 4901SOL    HW115161   2.553   4.781   6.053
 4901SOL    HW215162   2.651   4.723   5.936
 4902SOL     OW15163   2.272   4.537   6.837
 4902SOL    HW115164   2.358   4.549   6.887
 4902SOL    HW215165   2.230   4.450   6.864
 4903SOL     OW15166   3.136   4.110   6.848
 4903SOL    HW115167   3.157   4.184   6.912
 4903SOL    HW215168   3.047   4.127   6.805
 4904SOL     OW15169   2.229   4.824   6.087
 4904SOL    HW115170   2.222   4.907   6.031
 4904SOL    HW215171   2.233   4.744   6.027
 4905SOL     OW15172   2.428   4.261   6.451
 4905SOL    HW115173   2.440   4.327   6.377
 4905SOL    HW215174   2.474   4.295   6.534
 4906SOL     OW15175   3.114   5.072   5.974
 4906SOL    HW115176   3.164   5.149   6.014
 4906SOL    HW215177   3.019   5.074   6.006
 4907SOL     OW15178   3.134   5.169   6.728
 4907SOL    HW115179   3.181   5.182   6.815
 4907SOL    HW215180   3.068   5.095   6.737
 4908SOL     OW15181   3.444   4.363   6.058
 4908SOL    HW115182   3.413   4.424   6.131
 4908SOL    HW215183   3.494   4.415   5.989
 4909SOL     OW15184   2.216   5.234   6.915
 4909SOL    HW115185   2.195   5.190   6.828
 4909SOL    HW215186   2.313   5.260   6.918
 4910SOL     OW15187   2.264   4.475   7.184
 4910SOL    HW115188   2.332   4.530   7.137
 4910SOL    HW215189   2.304   4.387   7.211
 4911SOL     OW15190   3.449   4.503   7.256
 4911SOL    HW115191   3.357   4.541   7.251
 4911SOL    HW215192   3.509   4.550   7.191
 4912SOL     OW15193   2.875   3.829   7.356
 4912SOL    HW115194   2.881   3.914   7.304
 4912SOL    HW215195   2.907   3.753   7.299
 4913SOL     OW15196   2.366   3.774   7.326
 4913SOL    HW115197   2.324   3.717   7.256
 4913SOL    HW215198   2.300   3.843   7.358
 4914SOL     OW15199   2.435   4.594   6.615
 4914SOL    HW115200   2.479   4.683   6.606
 4914SOL    HW215201   2.372   4.594   6.692
 4915SOL     OW15202   3.222   4.586   6.631
 4915SOL    HW115203   3.147   4.586   6.565
 4915SOL    HW215204   3.259   4.494   6.640
 4916SOL     OW15205   3.071   4.249   5.861
 4916SOL    HW115206   3.084   4.165   5.915
 4916SOL    HW215207   3.042   4.323   5.921
 4917SOL     OW15208   2.169   3.937   6.817
 4917SOL    HW115209   2.146   3.974   6.907
 4917SOL    HW215210   2.139   3.842   6.811
 4918SOL     OW15211   1.899   5.034   6.868
 4918SOL    HW115212   1.952   4.985   6.936
 4918SOL    HW215213   1.921   5.132   6.873
 4919SOL     OW15214   2.594   4.358   6.650
 4919SOL    HW115215   2.653   4.332   6.574
 4919SOL    HW215216   2.566   4.454   6.639
 4920SOL     OW15217   3.590   4.659   7.440
 4920SOL    HW115218   3.544   4.652   7.351
 4920SOL    HW215219   3.528   4.703   7.506
 4921SOL     OW15220   2.169   3.787   6.204
 4921SOL    HW115221   2.158   3.881   6.237
 4921SOL    HW215222   2.164   3.724   6.281
 4922SOL     OW15223   3.484   4.091   5.960
 4922SOL    HW115224   3.486   4.015   6.024
 4922SOL    HW215225   3.436   4.168   6.000
 4923SOL     OW15226   2.885   4.490   6.552
 4923SOL    HW115227   2.900   4.511   6.648
 4923SOL    HW215228   2.855   4.395   6.543
 4924SOL     OW15229   3.721   5.242   7.191
 4924SOL    HW115230   3.735   5.269   7.096
 4924SOL    HW215231   3.804   5.264   7.244
 4925SOL     OW15232   2.212   4.622   7.390
 4925SOL    HW115233   2.288   4.666   7.438
 4925SOL    HW215234   2.247   4.575   7.308
 4926SOL     OW15235   3.402   3.998   5.711
 4926SOL    HW115236   3.341   3.923   5.734
 4926SOL    HW215237   3.424   4.050   5.794
 4927SOL     OW15238   3.165   4.562   5.628
 4927SOL    HW115239   3.199   4.469   5.643
 4927SOL    HW215240   3.183   4.589   5.533
 4928SOL     OW15241   2.930   5.057   6.435
 4928SOL    HW115242   2.937   4.973   6.380
 4928SOL    HW215243   2.992   5.126   6.399
 4929SOL     OW15244   2.181   4.534   6.535
 4929SOL    HW115245   2.274   4.570   6.540
 4929SOL    HW215246   2.175   4.449   6.587
 4930SOL     OW15247   2.201   4.233   6.592
 4930SOL    HW115248   2.149   4.150   6.575
 4930SOL    HW215249   2.278   4.238   6.528
 4931SOL     OW15250   3.000   4.104   7.264
 4931SOL    HW115251   2.955   4.167   7.328
 4931SOL    HW215252   3.093   4.135   7.247
 4932SOL     OW15253   3.022   3.931   7.063
 4932SOL    HW115254   3.022   3.995   7.140
 4932SOL    HW215255   3.050   3.979   6.980
 4933SOL     OW15256   1.870   5.050   5.786
 4933SOL    HW115257   1.777   5.071   5.755
 4933SOL    HW215258   1.880   4.951   5.799
 4934SOL     OW15259   2.864   4.520   6.824
 4934SOL    HW115260   2.905   4.488   6.910
 4934SOL    HW215261   2.768   4.493   6.821
 4935SOL     OW15262   1.902   4.268   6.700
 4935SOL    HW115263   1.987   4.235   6.659
 4935SOL    HW215264   1.915   4.283   6.798
 4936SOL     OW15265   2.051   4.244   7.308
 4936SOL    HW115266   2.110   4.204   7.238
 4936SOL    HW215267   1.993   4.315   7.267
 4937SOL     OW15268   3.231   4.674   7.246
 4937SOL    HW115269   3.270   4.763   7.266
 4937SOL    HW215270   3.241   4.654   7.149
 4938SOL     OW15271   2.677   4.296   5.911
 4938SOL    HW115272   2.684   4.207   5.865
 4938SOL    HW215273   2.583   4.330   5.903
 4939SOL     OW15274   3.519   4.328   6.792
 4939SOL    HW115275   3.481   4.259   6.854
 4939SOL    HW215276   3.601   4.292   6.748
 4940SOL     OW15277   2.114   5.288   7.330
 4940SOL    HW115278   2.084   5.345   7.406
 4940SOL    HW215279   2.107   5.191   7.356
 4941SOL     OW15280   2.533   4.188   6.855
 4941SOL    HW115281   2.499   4.099   6.825
 4941SOL    HW215282   2.559   4.242   6.775
 4942SOL     OW15283   2.335   4.224   5.777
 4942SOL    HW115284   2.396   4.304   5.781
 4942SOL    HW215285   2.240   4.255   5.784
 4943SOL     OW15286   2.021   4.861   7.052
 4943SOL    HW115287   2.043   4.800   7.128
 4943SOL    HW215288   2.031   4.812   6.966
 4944SOL     OW15289   3.209   4.783   6.820
 4944SOL    HW115290   3.233   4.720   6.746
 4944SOL    HW215291   3.119   4.823   6.802
 4945SOL     OW15292   3.164   4.579   5.895
 4945SOL    HW115293   3.078   4.548   5.937
 4945SOL    HW215294   3.160   4.565   5.796
 4946SOL     OW15295   1.945   4.982   6.608
 4946SOL    HW115296   1.940   4.981   6.708
 4946SOL    HW215297   1.862   4.941   6.570
 4947SOL     OW15298   2.550   5.386   7.302
 4947SOL    HW115299   2.494   5.467   7.311
 4947SOL    HW215300   2.602   5.390   7.216
 4948SOL     OW15301   3.588   3.859   6.109
 4948SOL    HW115302   3.661   3.842   6.042
 4948SOL    HW215303   3.557   3.772   6.147
 4949SOL     OW15304   3.142   4.651   6.258
 4949SOL    HW115305   3.202   4.570   6.260
 4949SOL    HW215306   3.182   4.720   6.198
 4950SOL     OW15307   2.692   4.997   7.008
 4950SOL    HW115308   2.687   5.030   7.103
 4950SOL    HW215309   2.606   5.016   6.962
 4951SOL     OW15310   3.703   3.899   6.549
 4951SOL    HW115311   3.742   3.814   6.513
 4951SOL    HW215312   3.605   3.901   6.530
 4952SOL     OW15313   2.125   4.050   6.306
 4952SOL    HW115314   2.046   4.101   6.272
 4952SOL    HW215315   2.116   4.035   6.404
 4953SOL     OW15316   2.684   4.726   6.958
 4953SOL    HW115317   2.724   4.725   6.866
 4953SOL    HW215318   2.694   4.818   6.998
 4954SOL     OW15319   2.778   4.634   5.877
 4954SOL    HW115320   2.841   4.672   5.809
 4954SOL    HW215321   2.818   4.551   5.916
 4955SOL     OW15322   2.234   5.012   7.076
 4955SOL    HW115323   2.221   5.105   7.042
 4955SOL    HW215324   2.150   4.960   7.063
 4956SOL     OW15325   3.476   5.016   6.875
 4956SOL    HW115326   3.536   5.019   6.955
 4956SOL    HW215327   3.401   5.080   6.888
 4957SOL     OW15328   2.901   4.822   6.282
 4957SOL    HW115329   2.831   4.775   6.336
 4957SOL    HW215330   2.960   4.754   6.239
 4958SOL     OW15331   2.876   3.960   6.557
 4958SOL    HW115332   2.868   3.924   6.464
 4958SOL    HW215333   2.874   3.884   6.622
 4959SOL     OW15334   3.571   4.109   6.967
 4959SOL    HW115335   3.644   4.178   6.971
 4959SOL    HW215336   3.599   4.034   6.908
 4960SOL     OW15337   2.117   5.072   5.876
 4960SOL    HW115338   2.021   5.073   5.849
 4960SOL    HW215339   2.129   5.125   5.960
 4961SOL     OW15340   1.967   4.737   7.312
 4961SOL    HW115341   1.890   4.704   7.366
 4961SOL    HW215342   2.052   4.707   7.354
 4962SOL     OW15343   2.534   3.927   7.075
 4962SOL    HW115344   2.624   3.911   7.035
 4962SOL    HW215345   2.542   3.932   7.174
 4963SOL     OW15346   1.937   4.069   5.619
 4963SOL    HW115347   1.845   4.041   5.590
 4963SOL    HW215348   1.968   4.146   5.563
 4964SOL     OW15349   3.302   4.580   6.984
 4964SOL    HW115350   3.245   4.632   6.921
 4964SOL    HW215351   3.398   4.592   6.960
 4965SOL     OW15352   1.934   3.890   5.904
 4965SOL    HW115353   1.917   3.973   5.850
 4965SOL    HW215354   2.024   3.853   5.882
 4966SOL     OW15355   3.045   5.059   5.705
 4966SOL    HW115356   2.946   5.048   5.707
 4966SOL    HW215357   3.079   5.074   5.798
 4967SOL     OW15358   2.475   4.566   7.017
 4967SOL    HW115359   2.531   4.647   7.000
 4967SOL    HW215360   2.534   4.486   7.020
 4968SOL     OW15361   2.578   4.289   7.294
 4968SOL    HW115362   2.597   4.354   7.368
 4968SOL    HW215363   2.638   4.209   7.303
 4969SOL     OW15364   3.312   4.944   7.219
 4969SOL    HW115365   3.303   4.934   7.318
 4969SOL    HW215366   3.408   4.937   7.193
 4970SOL     OW15367   3.536   4.607   6.840
 4970SOL    HW115368   3.509   4.518   6.803
 4970SOL    HW215369   3.537   4.675   6.767
 4971SOL     OW15370   3.087   4.049   6.035
 4971SOL    HW115371   3.152   3.975   6.024
 4971SOL    HW215372   3.107   4.099   6.119
 4972SOL     OW15373   2.456   4.469   6.238
 4972SOL    HW115374   2.506   4.554   6.219
 4972SOL    HW215375   2.368   4.471   6.190
 4973SOL     OW15376   3.639   4.066   7.228
 4973SOL    HW115377   3.622   4.097   7.134
 4973SOL    HW215378   3.555   4.029   7.266
 4974SOL     OW15379   3.592   4.658   7.103
 4974SOL    HW115380   3.630   4.749   7.118
 4974SOL    HW215381   3.584   4.641   7.004
 4975SOL     OW15382   2.721   5.098   5.602
 4975SOL    HW115383   2.675   5.113   5.690
 4975SOL    HW215384   2.765   5.183   5.572
 4976SOL     OW15385   2.721   4.680   6.447
 4976SOL    HW115386   2.775   4.611   6.495
 4976SOL    HW215387   2.689   4.749   6.513
 4977SOL     OW15388   2.945   4.708   5.673
 4977SOL    HW115389   2.922   4.761   5.591
 4977SOL    HW215390   3.026   4.652   5.654
 4978SOL     OW15391   2.083   5.038   7.430
 4978SOL    HW115392   2.018   4.965   7.409
 4978SOL    HW215393   2.087   5.052   7.528
 4979SOL     OW15394   1.941   4.964   6.239
 4979SOL    HW115395   1.940   4.917   6.327
 4979SOL    HW215396   2.023   4.936   6.188
 4980SOL     OW15397   2.534   5.115   7.210
 4980SOL    HW115398   2.456   5.065   7.248
 4980SOL    HW215399   2.531   5.210   7.241
 4981SOL     OW15400   3.686   3.916   6.813
 4981SOL    HW115401   3.682   3.826   6.857
 4981SOL    HW215402   3.689   3.905   6.714
 4982SOL     OW15403   2.290   4.148   6.106
 4982SOL    HW115404   2.320   4.076   6.044
 4982SOL    HW215405   2.251   4.108   6.189
 4983SOL     OW15406   3.567   5.211   6.690
 4983SOL    HW115407   3.474   5.186   6.663
 4983SOL    HW215408   3.593   5.161   6.772
 4984SOL     OW15409   2.179   4.271   6.866
 4984SOL    HW115410   2.217   4.212   6.938
 4984SOL    HW215411   2.219   4.245   6.778
 4985SOL     OW15412   3.286   3.938   6.698
 4985SOL    HW115413   3.338   3.873   6.753
 4985SOL    HW215414   3.237   4.001   6.759
 4986SOL     OW15415   2.863   3.758   6.740
 4986SOL    HW115416   2.800   3.686   6.709
 4986SOL    HW215417   2.956   3.722   6.740
 4987SOL     OW15418   2.632   5.054   5.887
 4987SOL    HW115419   2.586   4.967   5.904
 4987SOL    HW215420   2.723   5.051   5.928
 4988SOL     OW15421   2.480   5.291   6.870
 4988SOL    HW115422   2.475   5.373   6.927
 4988SOL    HW215423   2.569   5.288   6.825
 4989SOL     OW15424   3.214   3.776   5.754
 4989SOL    HW115425   3.249   3.735   5.670
 4989SOL    HW215426   3.124   3.738   5.774
 4990SOL     OW15427   3.162   4.177   6.277
 4990SOL    HW115428   3.103   4.257   6.281
 4990SOL    HW215429   3.177   4.142   6.370
 4991SOL     OW15430   3.455   3.945   6.468
 4991SOL    HW115431   3.371   3.944   6.522
 4991SOL    HW215432   3.457   4.028   6.412
 4992SOL     OW15433   1.901   4.801   5.886
 4992SOL    HW115434   2.000   4.790   5.877
 4992SOL    HW215435   1.861   4.715   5.918
 4993SOL     OW15436   2.092   4.352   7.561
 4993SOL    HW115437   1.999   4.350   7.598
 4993SOL    HW215438   2.093   4.313   7.469
 4994SOL     OW15439   3.617   4.331   7.679
 4994SOL    HW115440   3.605   4.318   7.580
 4994SOL    HW215441   3.587   4.250   7.728
 4995SOL     OW15442   2.093   5.437   7.931
 4995SOL    HW115443   2.127   5.514   7.985
 4995SOL    HW215444   2.137   5.437   7.841
 4996SOL     OW15445   2.092   5.158   7.986
 4996SOL    HW115446   2.066   5.254   7.986
 4996SOL    HW215447   2.021   5.104   8.031
 4997SOL     OW15448   2.468   4.688   7.571
 4997SOL    HW115449   2.475   4.772   7.517
 4997SOL    HW215450   2.514   4.701   7.659
 4998SOL     OW15451   1.889   5.320   7.565
 4998SOL    HW115452   1.870   5.224   7.586
 4998SOL    HW215453   1.856   5.378   7.640
 4999SOL     OW15454   3.551   4.646   8.060
 4999SOL    HW115455   3.646   4.617   8.068
 4999SOL    HW215456   3.543   4.711   7.985
 5000SOL     OW15457   3.503   4.832   7.880
 5000SOL    HW115458   3.589   4.834   7.828
 5000SOL    HW215459   3.517   4.879   7.968
 5001SOL     OW15460   2.671   3.728   7.950
 5001SOL    HW115461   2.711   3.819   7.941
 5001SOL    HW215462   2.571   3.736   7.956
 5002SOL     OW15463   3.387   4.723   7.638
 5002SOL    HW115464   3.324   4.647   7.651
 5002SOL    HW215465   3.435   4.741   7.724
 5003SOL     OW15466   2.460   4.453   7.718
 5003SOL    HW115467   2.484   4.522   7.650
 5003SOL    HW215468   2.382   4.486   7.772
 5004SOL     OW15469   1.938   4.535   8.237
 5004SOL    HW115470   2.037   4.523   8.246
 5004SOL    HW215471   1.914   4.630   8.258
 5005SOL     OW15472   2.727   4.072   7.643
 5005SOL    HW115473   2.786   4.135   7.594
 5005SOL    HW215474   2.746   3.978   7.614
 5006SOL     OW15475   2.183   4.667   7.690
 5006SOL    HW115476   2.265   4.706   7.648
 5006SOL    HW215477   2.156   4.585   7.641
 5007SOL     OW15478   2.973   5.500   7.685
 5007SOL    HW115479   2.913   5.438   7.735
 5007SOL    HW215480   3.004   5.456   7.600
 5008SOL     OW15481   3.494   5.101   7.529
 5008SOL    HW115482   3.462   5.195   7.519
 5008SOL    HW215483   3.418   5.038   7.517
 5009SOL     OW15484   3.262   3.831   7.874
 5009SOL    HW115485   3.238   3.794   7.784
 5009SOL    HW215486   3.361   3.847   7.878
 5010SOL     OW15487   2.244   4.424   7.928
 5010SOL    HW115488   2.289   4.334   7.925
 5010SOL    HW215489   2.150   4.413   7.961
 5011SOL     OW15490   2.476   3.846   7.565
 5011SOL    HW115491   2.574   3.824   7.572
 5011SOL    HW215492   2.445   3.829   7.472
 5012SOL     OW15493   2.401   3.788   7.960
 5012SOL    HW115494   2.320   3.789   8.018
 5012SOL    HW215495   2.404   3.871   7.905
 5013SOL     OW15496   3.296   4.912   7.489
 5013SOL    HW115497   3.328   4.836   7.546
 5013SOL    HW215498   3.204   4.939   7.519
 5014SOL     OW15499   2.159   3.759   7.619
 5014SOL    HW115500   2.208   3.843   7.598
 5014SOL    HW215501   2.221   3.694   7.664
 5015SOL     OW15502   2.797   3.960   7.928
 5015SOL    HW115503   2.749   4.001   7.850
 5015SOL    HW215504   2.896   3.958   7.909
 5016SOL     OW15505   2.321   4.876   8.189
 5016SOL    HW115506   2.250   4.849   8.254
 5016SOL    HW215507   2.295   4.848   8.096
 5017SOL     OW15508   2.894   4.273   7.464
 5017SOL    HW115509   2.853   4.355   7.425
 5017SOL    HW215510   2.958   4.299   7.537
 5018SOL     OW15511   3.719   4.557   7.825
 5018SOL    HW115512   3.761   4.493   7.889
 5018SOL    HW215513   3.681   4.506   7.747
 5019SOL     OW15514   2.350   5.109   7.622
 5019SOL    HW115515   2.263   5.094   7.669
 5019SOL    HW215516   2.333   5.135   7.527
 5020SOL     OW15517   3.252   4.299   7.526
 5020SOL    HW115518   3.198   4.278   7.607
 5020SOL    HW215519   3.343   4.258   7.535
 5021SOL     OW15520   2.389   3.980   7.776
 5021SOL    HW115521   2.416   3.921   7.701
 5021SOL    HW215522   2.389   4.075   7.745
 5022SOL     OW15523   2.567   4.774   7.816
 5022SOL    HW115524   2.553   4.781   7.915
 5022SOL    HW215525   2.651   4.723   7.798
 5023SOL     OW15526   2.229   4.824   7.949
 5023SOL    HW115527   2.222   4.907   7.893
 5023SOL    HW215528   2.233   4.744   7.889
 5024SOL     OW15529   3.114   5.072   7.836
 5024SOL    HW115530   3.164   5.149   7.876
 5024SOL    HW215531   3.019   5.074   7.868
 5025SOL     OW15532   3.444   4.363   7.920
 5025SOL    HW115533   3.413   4.424   7.993
 5025SOL    HW215534   3.494   4.415   7.851
 5026SOL     OW15535   3.071   4.249   7.723
 5026SOL    HW115536   3.084   4.165   7.777
 5026SOL    HW215537   3.042   4.323   7.783
 5027SOL     OW15538   3.484   4.091   7.822
 5027SOL    HW115539   3.486   4.015   7.886
 5027SOL    HW215540   3.436   4.168   7.862
 5028SOL     OW15541   3.402   3.998   7.573
 5028SOL    HW115542   3.341   3.923   7.596
 5028SOL    HW215543   3.424   4.050   7.656
 5029SOL     OW15544   3.165   4.562   7.490
 5029SOL    HW115545   3.199   4.469   7.505
 5029SOL    HW215546   3.183   4.589   7.395
 5030SOL     OW15547   1.870   5.050   7.648
 5030SOL    HW115548   1.777   5.071   7.617
 5030SOL    HW215549   1.880   4.951   7.661
 5031SOL     OW15550   2.677   4.296   7.773
 5031SOL    HW115551   2.684   4.207   7.727
 5031SOL    HW215552   2.583   4.330   7.765
 5032SOL     OW15553   2.335   4.224   7.639
 5032SOL    HW115554   2.396   4.304   7.643
 5032SOL    HW215555   2.240   4.255   7.646
 5033SOL     OW15556   3.164   4.579   7.757
 5033SOL    HW115557   3.078   4.548   7.799
 5033SOL    HW215558   3.160   4.565   7.658
 5034SOL     OW15559   3.588   3.859   7.971
 5034SOL    HW115560   3.661   3.842   7.904
 5034SOL    HW215561   3.557   3.772   8.009
 5035SOL     OW15562   2.778   4.634   7.739
 5035SOL    HW115563   2.841   4.672   7.671
 5035SOL    HW215564   2.818   4.551   7.778
 5036SOL     OW15565   2.117   5.072   7.738
 5036SOL    HW115566   2.021   5.073   7.711
 5036SOL    HW215567   2.129   5.125   7.822
 5037SOL     OW15568   1.937   4.069   7.481
 5037SOL    HW115569   1.845   4.041   7.452
 5037SOL    HW215570   1.968   4.146   7.425
 5038SOL     OW15571   1.934   3.890   7.766
 5038SOL    HW115572   1.917   3.973   7.712
 5038SOL    HW215573   2.024   3.853   7.744
 5039SOL     OW15574   3.045   5.059   7.567
 5039SOL    HW115575   2.946   5.048   7.569
 5039SOL    HW215576   3.079   5.074   7.660
 5040SOL     OW15577   3.087   4.049   7.897
 5040SOL    HW115578   3.152   3.975   7.886
 5040SOL    HW215579   3.107   4.099   7.981
 5041SOL     OW15580   2.456   4.469   8.100
 5041SOL    HW115581   2.506   4.554   8.081
 5041SOL    HW215582   2.368   4.471   8.052
 5042SOL     OW15583   2.721   5.098   7.464
 5042SOL    HW115584   2.675   5.113   7.552
 5042SOL    HW215585   2.765   5.183   7.434
 5043SOL     OW15586   2.945   4.708   7.535
 5043SOL    HW115587   2.922   4.761   7.453
 5043SOL    HW215588   3.026   4.652   7.516
 5044SOL     OW15589   2.290   4.148   7.968
 5044SOL    HW115590   2.320   4.076   7.906
 5044SOL    HW215591   2.251   4.108   8.051
 5045SOL     OW15592   2.632   5.054   7.749
 5045SOL    HW115593   2.586   4.967   7.766
 5045SOL    HW215594   2.723   5.051   7.790
 5046SOL     OW15595   3.214   3.776   7.616
 5046SOL    HW115596   3.249   3.735   7.532
 5046SOL    HW215597   3.124   3.738   7.636
 5047SOL     OW15598   1.901   4.801   7.748
 5047SOL    HW115599   2.000   4.790   7.739
 5047SOL    HW215600   1.861   4.715   7.780
 5048SOL     OW15601   3.954   0.628   0.113
 5048SOL    HW115602   3.861   0.626   0.150
 5048SOL    HW215603   3.955   0.589   0.021
 5049SOL     OW15604   3.949   0.275   0.996
 5049SOL    HW115605   3.984   0.258   1.088
 5049SOL    HW215606   3.861   0.230   0.984
 5050SOL     OW15607   3.743   0.368   0.647
 5050SOL    HW115608   3.661   0.411   0.686
 5050SOL    HW215609   3.715   0.295   0.584
 5051SOL     OW15610   4.293   1.275   1.165
 5051SOL    HW115611   4.200   1.268   1.128
 5051SOL    HW215612   4.304   1.364   1.209
 5052SOL     OW15613   5.279   1.511   0.703
 5052SOL    HW115614   5.222   1.495   0.784
 5052SOL    HW215615   5.220   1.521   0.623
 5053SOL     OW15616   4.859   0.703   0.717
 5053SOL    HW115617   4.916   0.781   0.692
 5053SOL    HW215618   4.799   0.729   0.793
 5054SOL     OW15619   4.492   1.144   1.023
 5054SOL    HW115620   4.414   1.161   1.083
 5054SOL    HW215621   4.526   1.231   0.987
 5055SOL     OW15622   4.574   0.798   1.823
 5055SOL    HW115623   4.570   0.874   1.888
 5055SOL    HW215624   4.596   0.834   1.732
 5056SOL     OW15625   4.409   1.012   0.665
 5056SOL    HW115626   4.478   0.996   0.735
 5056SOL    HW215627   4.336   1.069   0.703
 5057SOL     OW15628   4.410   1.161   1.803
 5057SOL    HW115629   4.470   1.240   1.817
 5057SOL    HW215630   4.324   1.192   1.762
 5058SOL     OW15631   4.059   1.435   1.061
 5058SOL    HW115632   3.981   1.404   1.008
 5058SOL    HW215633   4.117   1.493   1.004
 5059SOL     OW15634   5.184   1.505   1.339
 5059SOL    HW115635   5.208   1.599   1.365
 5059SOL    HW215636   5.168   1.451   1.421
 5060SOL     OW15637   4.162   0.392   1.499
 5060SOL    HW115638   4.244   0.336   1.508
 5060SOL    HW215639   4.081   0.334   1.503
 5061SOL     OW15640   3.955   1.713   0.483
 5061SOL    HW115641   3.989   1.790   0.537
 5061SOL    HW215642   3.999   1.713   0.393
 5062SOL     OW15643   4.851   1.341   1.690
 5062SOL    HW115644   4.898   1.341   1.778
 5062SOL    HW215645   4.803   1.254   1.679
 5063SOL     OW15646   3.954   1.434   0.538
 5063SOL    HW115647   3.928   1.530   0.538
 5063SOL    HW215648   3.883   1.380   0.583
 5064SOL     OW15649   3.964   1.091   0.886
 5064SOL    HW115650   3.978   1.007   0.938
 5064SOL    HW215651   3.909   1.155   0.941
 5065SOL     OW15652   4.344   1.786   1.439
 5065SOL    HW115653   4.252   1.769   1.474
 5065SOL    HW215654   4.372   1.878   1.465
 5066SOL     OW15655   4.330   0.964   0.123
 5066SOL    HW115656   4.337   1.048   0.069
 5066SOL    HW215657   4.376   0.977   0.211
 5067SOL     OW15658   5.318   0.114   1.480
 5067SOL    HW115659   5.300   0.181   1.408
 5067SOL    HW215660   5.315   0.160   1.569
 5068SOL     OW15661   3.846   0.643   0.563
 5068SOL    HW115662   3.801   0.555   0.580
 5068SOL    HW215663   3.845   0.697   0.647
 5069SOL     OW15664   3.751   1.596   0.117
 5069SOL    HW115665   3.732   1.500   0.138
 5069SOL    HW215666   3.718   1.654   0.192
 5070SOL     OW15667   5.413   0.922   0.612
 5070SOL    HW115668   5.508   0.893   0.620
 5070SOL    HW215669   5.405   0.987   0.537
 5071SOL     OW15670   3.837   0.737   1.597
 5071SOL    HW115671   3.925   0.724   1.642
 5071SOL    HW215672   3.824   0.834   1.575
 5072SOL     OW15673   4.337   1.365   0.726
 5072SOL    HW115674   4.288   1.278   0.735
 5072SOL    HW215675   4.314   1.408   0.639
 5073SOL     OW15676   5.017   1.228   1.423
 5073SOL    HW115677   5.054   1.155   1.365
 5073SOL    HW215678   5.069   1.233   1.508
 5074SOL     OW15679   4.533   0.004   0.502
 5074SOL    HW115680   4.573   0.095   0.493
 5074SOL    HW215681   4.433   0.012   0.508
 5075SOL     OW15682   3.921   0.976   1.264
 5075SOL    HW115683   4.010   0.931   1.250
 5075SOL    HW215684   3.848   0.911   1.245
 5076SOL     OW15685   4.911   1.792   1.616
 5076SOL    HW115686   4.935   1.852   1.540
 5076SOL    HW215687   4.918   1.697   1.586
 5077SOL     OW15688   4.041   0.251   1.801
 5077SOL    HW115689   4.112   0.322   1.807
 5077SOL    HW215690   3.953   0.290   1.829
 5078SOL     OW15691   5.190   1.417   0.953
 5078SOL    HW115692   5.131   1.423   1.033
 5078SOL    HW215693   5.175   1.329   0.907
 5079SOL     OW15694   4.322   0.729   0.270
 5079SOL    HW115695   4.346   0.798   0.202
 5079SOL    HW215696   4.244   0.762   0.324
 5080SOL     OW15697   5.005   0.345   0.944
 5080SOL    HW115698   4.919   0.295   0.931
 5080SOL    HW215699   5.067   0.291   1.000
 5081SOL     OW15700   4.531   0.605   1.465
 5081SOL    HW115701   4.484   0.602   1.554
 5081SOL    HW215702   4.480   0.550   1.399
 5082SOL     OW15703   5.118   0.469   1.674
 5082SOL    HW115704   5.098   0.512   1.762
 5082SOL    HW215705   5.196   0.407   1.683
 5083SOL     OW15706   4.697   0.890   1.572
 5083SOL    HW115707   4.743   0.806   1.543
 5083SOL    HW215708   4.641   0.924   1.497
 5084SOL     OW15709   4.715   0.410   1.242
 5084SOL    HW115710   4.638   0.444   1.296
 5084SOL    HW215711   4.681   0.359   1.163
 5085SOL     OW15712   4.765   0.701   0.429
 5085SOL    HW115713   4.791   0.697   0.525
 5085SOL    HW215714   4.680   0.650   0.415
 5086SOL     OW15715   3.800   0.811   0.789
 5086SOL    HW115716   3.899   0.799   0.798
 5086SOL    HW215717   3.776   0.906   0.810
 5087SOL     OW15718   3.854   1.821   1.571
 5087SOL    HW115719   3.844   1.806   1.670
 5087SOL    HW215720   3.768   1.857   1.535
 5088SOL     OW15721   4.589   0.348   0.195
 5088SOL    HW115722   4.648   0.411   0.146
 5088SOL    HW215723   4.608   0.254   0.166
 5089SOL     OW15724   5.086   1.144   0.545
 5089SOL    HW115725   5.169   1.115   0.497
 5089SOL    HW215726   5.037   1.211   0.489
 5090SOL     OW15727   4.274   0.196   0.885
 5090SOL    HW115728   4.269   0.191   0.985
 5090SOL    HW215729   4.276   0.292   0.856
 5091SOL     OW15730   4.732   1.456   0.477
 5091SOL    HW115731   4.686   1.528   0.425
 5091SOL    HW215732   4.728   1.476   0.575
 5092SOL     OW15733   4.075   1.801   0.853
 5092SOL    HW115734   4.125   1.715   0.859
 5092SOL    HW215735   4.140   1.878   0.850
 5093SOL     OW15736   4.951   1.550   1.506
 5093SOL    HW115737   4.957   1.473   1.570
 5093SOL    HW215738   4.899   1.524   1.426
 5094SOL     OW15739   4.045   0.943   0.242
 5094SOL    HW115740   4.127   0.982   0.200
 5094SOL    HW215741   4.018   0.861   0.193
 5095SOL     OW15742   4.185   1.266   1.727
 5095SOL    HW115743   4.135   1.267   1.641
 5095SOL    HW215744   4.122   1.248   1.803
 5096SOL     OW15745   4.835   1.776   0.237
 5096SOL    HW115746   4.775   1.714   0.287
 5096SOL    HW215747   4.866   1.732   0.152
 5097SOL     OW15748   3.926   0.285   1.498
 5097SOL    HW115749   3.846   0.345   1.485
 5097SOL    HW215750   3.916   0.236   1.584
 5098SOL     OW15751   4.188   1.743   0.323
 5098SOL    HW115752   4.221   1.782   0.409
 5098SOL    HW215753   4.264   1.736   0.258
 5099SOL     OW15754   5.124   0.107   0.426
 5099SOL    HW115755   5.100   0.070   0.336
 5099SOL    HW215756   5.223   0.123   0.430
 5100SOL     OW15757   3.973   1.785   1.241
 5100SOL    HW115758   4.030   1.720   1.291
 5100SOL    HW215759   3.957   1.752   1.148
 5101SOL     OW15760   4.664   1.698   0.904
 5101SOL    HW115761   4.744   1.641   0.925
 5101SOL    HW215762   4.615   1.658   0.827
 5102SOL     OW15763   4.106   0.700   0.480
 5102SOL    HW115764   4.151   0.610   0.477
 5102SOL    HW215765   4.012   0.689   0.513
 5103SOL     OW15766   4.338   0.122   0.117
 5103SOL    HW115767   4.436   0.100   0.124
 5103SOL    HW215768   4.307   0.105   0.024
 5104SOL     OW15769   4.505   0.264   1.749
 5104SOL    HW115770   4.572   0.203   1.792
 5104SOL    HW215771   4.432   0.283   1.814
 5105SOL     OW15772   4.612   1.514   1.195
 5105SOL    HW115773   4.589   1.489   1.101
 5105SOL    HW215774   4.673   1.445   1.234
 5106SOL     OW15775   5.075   0.590   1.433
 5106SOL    HW115776   5.103   0.547   1.518
 5106SOL    HW215777   5.100   0.686   1.434
 5107SOL     OW15778   4.527   1.402   0.924
 5107SOL    HW115779   4.617   1.416   0.882
 5107SOL    HW215780   4.456   1.404   0.853
 5108SOL     OW15781   4.646   0.503   0.899
 5108SOL    HW115782   4.621   0.494   0.803
 5108SOL    HW215783   4.694   0.421   0.930
 5109SOL     OW15784   4.263   0.064   0.512
 5109SOL    HW115785   4.182   0.065   0.570
 5109SOL    HW215786   4.266   0.147   0.457
 5110SOL     OW15787   5.158   1.188   0.041
 5110SOL    HW115788   5.190   1.112   0.098
 5110SOL    HW215789   5.066   1.215   0.071
 5111SOL     OW15790   4.021   0.035   0.171
 5111SOL    HW115791   4.070   0.119   0.150
 5111SOL    HW215792   4.083  -0.030   0.216
 5112SOL     OW15793   4.659   0.236   0.480
 5112SOL    HW115794   4.611   0.277   0.402
 5112SOL    HW215795   4.758   0.234   0.461
 5113SOL     OW15796   4.800   0.683   1.464
 5113SOL    HW115797   4.720   0.622   1.467
 5113SOL    HW215798   4.881   0.630   1.440
 5114SOL     OW15799   4.951   1.570   0.793
 5114SOL    HW115800   4.972   1.644   0.728
 5114SOL    HW215801   5.019   1.570   0.866
 5115SOL     OW15802   4.183   1.152   0.741
 5115SOL    HW115803   4.112   1.125   0.806
 5115SOL    HW215804   4.157   1.124   0.648
 5116SOL     OW15805   4.995   1.797   0.591
 5116SOL    HW115806   5.039   1.861   0.527
 5116SOL    HW215807   4.945   1.849   0.661
 5117SOL     OW15808   4.756   0.549   0.016
 5117SOL    HW115809   4.715   0.631  -0.023
 5117SOL    HW215810   4.820   0.575   0.089
 5118SOL     OW15811   3.802   0.556   1.386
 5118SOL    HW115812   3.894   0.555   1.345
 5118SOL    HW215813   3.796   0.630   1.453
 5119SOL     OW15814   4.285   0.222   1.147
 5119SOL    HW115815   4.323   0.138   1.184
 5119SOL    HW215816   4.197   0.241   1.191
 5120SOL     OW15817   4.590   0.454   0.642
 5120SOL    HW115818   4.558   0.526   0.580
 5120SOL    HW215819   4.614   0.373   0.589
 5121SOL     OW15820   4.741   0.039   0.753
 5121SOL    HW115821   4.669   0.044   0.684
 5121SOL    HW215822   4.717  -0.030   0.822
 5122SOL     OW15823   5.153   1.173   0.867
 5122SOL    HW115824   5.098   1.089   0.860
 5122SOL    HW215825   5.179   1.202   0.775
 5123SOL     OW15826   4.212   1.385   0.174
 5123SOL    HW115827   4.125   1.370   0.221
 5123SOL    HW215828   4.195   1.411   0.079
 5124SOL     OW15829   5.114   0.575   0.078
 5124SOL    HW115830   5.060   0.554   0.159
 5124SOL    HW215831   5.205   0.534   0.087
 5125SOL     OW15832   4.251   0.256   0.328
 5125SOL    HW115833   4.278   0.197   0.253
 5125SOL    HW215834   4.251   0.351   0.297
 5126SOL     OW15835   4.788   1.347   1.340
 5126SOL    HW115836   4.708   1.324   1.395
 5126SOL    HW215837   4.871   1.321   1.389
 5127SOL     OW15838   5.316   1.629   1.625
 5127SOL    HW115839   5.343   1.663   1.535
 5127SOL    HW215840   5.395   1.591   1.671
 5128SOL     OW15841   4.835   1.195   1.100
 5128SOL    HW115842   4.795   1.239   1.181
 5128SOL    HW215843   4.794   1.232   1.017
 5129SOL     OW15844   4.639   0.089   1.402
 5129SOL    HW115845   4.664   0.069   1.307
 5129SOL    HW215846   4.711   0.145   1.444
 5130SOL     OW15847   4.704   1.116   1.719
 5130SOL    HW115848   4.605   1.122   1.729
 5130SOL    HW215849   4.727   1.036   1.663
 5131SOL     OW15850   4.429   1.050   0.368
 5131SOL    HW115851   4.415   1.057   0.467
 5131SOL    HW215852   4.513   0.999   0.350
 5132SOL     OW15853   4.134   0.813   1.251
 5132SOL    HW115854   4.220   0.825   1.301
 5132SOL    HW215855   4.092   0.726   1.278
 5133SOL     OW15856   4.998   0.386   1.262
 5133SOL    HW115857   5.019   0.460   1.326
 5133SOL    HW215858   4.909   0.403   1.219
 5134SOL     OW15859   3.788   1.564   1.331
 5134SOL    HW115860   3.742   1.646   1.297
 5134SOL    HW215861   3.886   1.583   1.340
 5135SOL     OW15862   4.091   1.100   0.501
 5135SOL    HW115863   4.084   1.183   0.445
 5135SOL    HW215864   4.095   1.020   0.441
 5136SOL     OW15865   4.290   0.537   0.865
 5136SOL    HW115866   4.302   0.603   0.791
 5136SOL    HW215867   4.336   0.571   0.948
 5137SOL     OW15868   4.976   1.348   0.388
 5137SOL    HW115869   5.026   1.425   0.428
 5137SOL    HW215870   4.881   1.350   0.420
 5138SOL     OW15871   4.996   1.445   1.142
 5138SOL    HW115872   5.043   1.458   1.229
 5138SOL    HW215873   4.930   1.371   1.151
 5139SOL     OW15874   4.078   1.510   1.329
 5139SOL    HW115875   4.057   1.466   1.242
 5139SOL    HW215876   4.175   1.536   1.332
 5140SOL     OW15877   4.126   0.751   1.598
 5140SOL    HW115878   4.194   0.806   1.551
 5140SOL    HW215879   4.166   0.663   1.625
 5141SOL     OW15880   4.737   0.105   1.770
 5141SOL    HW115881   4.743   0.190   1.718
 5141SOL    HW215882   4.769   0.029   1.713
 5142SOL     OW15883   4.228   0.050   1.740
 5142SOL    HW115884   4.186  -0.007   1.670
 5142SOL    HW215885   4.162   0.119   1.772
 5143SOL     OW15886   4.297   0.870   1.029
 5143SOL    HW115887   4.341   0.959   1.020
 5143SOL    HW215888   4.234   0.870   1.106
 5144SOL     OW15889   5.084   0.862   1.045
 5144SOL    HW115890   5.009   0.862   0.979
 5144SOL    HW215891   5.121   0.770   1.054
 5145SOL     OW15892   4.933   0.525   0.275
 5145SOL    HW115893   4.946   0.441   0.329
 5145SOL    HW215894   4.904   0.599   0.335
 5146SOL     OW15895   4.031   0.213   1.231
 5146SOL    HW115896   4.008   0.250   1.321
 5146SOL    HW215897   4.001   0.118   1.225
 5147SOL     OW15898   3.761   1.310   1.282
 5147SOL    HW115899   3.814   1.261   1.350
 5147SOL    HW215900   3.783   1.408   1.287
 5148SOL     OW15901   4.456   0.634   1.064
 5148SOL    HW115902   4.515   0.608   0.988
 5148SOL    HW215903   4.428   0.730   1.053
 5149SOL     OW15904   4.031   0.063   0.618
 5149SOL    HW115905   4.020   0.157   0.651
 5149SOL    HW215906   4.026   0.000   0.695
 5150SOL     OW15907   5.346   0.367   0.374
 5150SOL    HW115908   5.348   0.291   0.438
 5150SOL    HW215909   5.298   0.444   0.414
 5151SOL     OW15910   4.747   0.766   0.966
 5151SOL    HW115911   4.762   0.787   1.062
 5151SOL    HW215912   4.717   0.671   0.957
 5152SOL     OW15913   4.704   1.573   1.700
 5152SOL    HW115914   4.684   1.617   1.612
 5152SOL    HW215915   4.743   1.482   1.684
 5153SOL     OW15916   4.074   0.898   1.804
 5153SOL    HW115917   4.150   0.942   1.852
 5153SOL    HW215918   4.109   0.851   1.722
 5154SOL     OW15919   5.027   0.838   0.042
 5154SOL    HW115920   5.061   0.745   0.057
 5154SOL    HW215921   5.045   0.865  -0.053
 5155SOL     OW15922   4.792   1.333   0.849
 5155SOL    HW115923   4.799   1.249   0.794
 5155SOL    HW215924   4.854   1.402   0.813
 5156SOL     OW15925   4.043   0.810   0.949
 5156SOL    HW115926   4.136   0.846   0.954
 5156SOL    HW215927   4.037   0.725   1.001
 5157SOL     OW15928   4.063   0.509   1.006
 5157SOL    HW115929   4.011   0.426   0.989
 5157SOL    HW215930   4.140   0.514   0.942
 5158SOL     OW15931   4.862   0.380   1.678
 5158SOL    HW115932   4.817   0.443   1.742
 5158SOL    HW215933   4.955   0.411   1.661
 5159SOL     OW15934   4.884   0.207   1.477
 5159SOL    HW115935   4.884   0.271   1.554
 5159SOL    HW215936   4.912   0.255   1.394
 5160SOL     OW15937   3.732   1.326   0.200
 5160SOL    HW115938   3.639   1.347   0.169
 5160SOL    HW215939   3.742   1.227   0.213
 5161SOL     OW15940   3.812   1.801   0.927
 5161SOL    HW115941   3.770   1.715   0.900
 5161SOL    HW215942   3.906   1.804   0.893
 5162SOL     OW15943   4.228   1.568   0.910
 5162SOL    HW115944   4.294   1.642   0.919
 5162SOL    HW215945   4.272   1.489   0.868
 5163SOL     OW15946   4.726   0.796   1.238
 5163SOL    HW115947   4.767   0.764   1.324
 5163SOL    HW215948   4.630   0.769   1.235
 5164SOL     OW15949   3.764   0.544   1.114
 5164SOL    HW115950   3.849   0.511   1.073
 5164SOL    HW215951   3.777   0.559   1.212
 5165SOL     OW15952   3.913   0.520   1.722
 5165SOL    HW115953   3.972   0.480   1.652
 5165SOL    HW215954   3.855   0.591   1.681
 5166SOL     OW15955   5.093   0.950   1.660
 5166SOL    HW115956   5.132   1.039   1.680
 5166SOL    HW215957   5.103   0.930   1.563
 5167SOL     OW15958   4.539   0.572   0.325
 5167SOL    HW115959   4.546   0.483   0.279
 5167SOL    HW215960   4.445   0.606   0.317
 5168SOL     OW15961   3.976   1.564   1.744
 5168SOL    HW115962   3.946   1.621   1.820
 5168SOL    HW215963   3.969   1.467   1.770
 5169SOL     OW15964   4.395   0.464   1.269
 5169SOL    HW115965   4.361   0.375   1.239
 5169SOL    HW215966   4.421   0.518   1.189
 5170SOL     OW15967   4.654   1.678   1.465
 5170SOL    HW115968   4.630   1.660   1.370
 5170SOL    HW215969   4.684   1.772   1.475
 5171SOL     OW15970   4.197   0.500   0.191
 5171SOL    HW115971   4.258   0.580   0.195
 5171SOL    HW215972   4.102   0.531   0.198
 5172SOL     OW15973   3.883   1.137   1.466
 5172SOL    HW115974   3.905   1.076   1.542
 5172SOL    HW215975   3.893   1.088   1.380
 5173SOL     OW15976   5.071   1.059   1.234
 5173SOL    HW115977   5.095   0.996   1.160
 5173SOL    HW215978   4.981   1.099   1.216
 5174SOL     OW15979   5.026   0.855   0.309
 5174SOL    HW115980   4.940   0.824   0.351
 5174SOL    HW215981   5.022   0.841   0.210
 5175SOL     OW15982   4.976   1.731   1.128
 5175SOL    HW115983   5.060   1.736   1.074
 5175SOL    HW215984   4.953   1.635   1.146
 5176SOL     OW15985   3.807   1.258   1.022
 5176SOL    HW115986   3.802   1.257   1.122
 5176SOL    HW215987   3.724   1.217   0.984
 5177SOL     OW15988   4.412   1.662   1.716
 5177SOL    HW115989   4.356   1.743   1.725
 5177SOL    HW215990   4.464   1.666   1.630
 5178SOL     OW15991   4.627   0.086   0.133
 5178SOL    HW115992   4.678   0.087   0.047
 5178SOL    HW215993   4.683   0.044   0.204
 5179SOL     OW15994   5.112   1.573   0.477
 5179SOL    HW115995   5.179   1.585   0.403
 5179SOL    HW215996   5.072   1.662   0.500
 5180SOL     OW15997   3.854   1.794   1.851
 5180SOL    HW115998   3.813   1.720   1.904
 5180SOL    HW215999   3.918   1.845   1.909
 5181SOL     OW16000   5.004   0.927   0.672
 5181SOL    HW116001   5.064   0.846   0.674
 5181SOL    HW216002   5.044   0.996   0.612
 5182SOL     OW16003   4.554   1.273   1.422
 5182SOL    HW116004   4.549   1.306   1.517
 5182SOL    HW216005   4.468   1.292   1.376
 5183SOL     OW16006   4.396   1.616   0.154
 5183SOL    HW116007   4.405   1.626   0.055
 5183SOL    HW216008   4.356   1.527   0.175
 5184SOL     OW16009   3.987   0.326   0.720
 5184SOL    HW116010   3.908   0.377   0.686
 5184SOL    HW216011   3.978   0.311   0.818
 5185SOL     OW16012   4.918   1.612   0.031
 5185SOL    HW116013   4.924   1.519   0.068
 5185SOL    HW216014   4.859   1.612  -0.049
 5186SOL     OW16015   4.546   1.002   1.372
 5186SOL    HW116016   4.586   1.001   1.280
 5186SOL    HW216017   4.556   1.094   1.412
 5187SOL     OW16018   4.640   0.910   0.291
 5187SOL    HW116019   4.703   0.948   0.223
 5187SOL    HW216020   4.680   0.827   0.330
 5188SOL     OW16021   4.096   1.288   1.490
 5188SOL    HW116022   4.083   1.381   1.456
 5188SOL    HW216023   4.012   1.236   1.477
 5189SOL     OW16024   4.763   1.098   0.696
 5189SOL    HW116025   4.693   1.051   0.750
 5189SOL    HW216026   4.822   1.030   0.653
 5190SOL     OW16027   4.738   0.236   0.971
 5190SOL    HW116028   4.730   0.200   0.878
 5190SOL    HW216029   4.736   0.160   1.036
 5191SOL     OW16030   4.314   1.487   0.491
 5191SOL    HW116031   4.356   1.429   0.421
 5191SOL    HW216032   4.270   1.566   0.447
 5192SOL     OW16033   3.979   1.348   0.290
 5192SOL    HW116034   3.883   1.349   0.263
 5192SOL    HW216035   3.991   1.401   0.374
 5193SOL     OW16036   3.829   1.013   1.726
 5193SOL    HW116037   3.752   0.980   1.780
 5193SOL    HW216038   3.914   0.983   1.768
 5194SOL     OW16039   4.396   0.203   1.489
 5194SOL    HW116040   4.486   0.187   1.449
 5194SOL    HW216041   4.404   0.208   1.588
 5195SOL     OW16042   3.799   0.345   0.033
 5195SOL    HW116043   3.707   0.317   0.004
 5195SOL    HW216044   3.830   0.422  -0.023
 5196SOL     OW16045   5.164   0.856   1.398
 5196SOL    HW116046   5.107   0.908   1.335
 5196SOL    HW216047   5.260   0.868   1.374
 5197SOL     OW16048   3.796   0.166   0.318
 5197SOL    HW116049   3.779   0.249   0.264
 5197SOL    HW216050   3.886   0.129   0.296
 5198SOL     OW16051   4.907   1.335   0.119
 5198SOL    HW116052   4.808   1.324   0.121
 5198SOL    HW216053   4.941   1.350   0.212
 5199SOL     OW16054   4.337   0.842   1.431
 5199SOL    HW116055   4.393   0.923   1.414
 5199SOL    HW216056   4.396   0.762   1.434
 5200SOL     OW16057   4.440   0.565   1.708
 5200SOL    HW116058   4.459   0.630   1.782
 5200SOL    HW216059   4.500   0.485   1.717
 5201SOL     OW16060   5.174   1.220   1.633
 5201SOL    HW116061   5.165   1.210   1.732
 5201SOL    HW216062   5.270   1.213   1.607
 5202SOL     OW16063   4.114   1.741   1.560
 5202SOL    HW116064   4.023   1.782   1.558
 5202SOL    HW216065   4.107   1.647   1.592
 5203SOL     OW16066   4.949   0.325   0.449
 5203SOL    HW116067   5.014   0.251   0.438
 5203SOL    HW216068   4.969   0.375   0.533
 5204SOL     OW16069   4.318   0.745   0.652
 5204SOL    HW116070   4.368   0.830   0.633
 5204SOL    HW216071   4.230   0.747   0.604
 5205SOL     OW16072   4.583   1.374   0.016
 5205SOL    HW116073   4.537   1.389   0.104
 5205SOL    HW216074   4.627   1.459  -0.014
 5206SOL     OW16075   4.385   1.790   0.953
 5206SOL    HW116076   4.339   1.878   0.940
 5206SOL    HW216077   4.484   1.802   0.946
 5207SOL     OW16078   4.583   0.956   0.861
 5207SOL    HW116079   4.637   0.887   0.909
 5207SOL    HW216080   4.551   1.025   0.927
 5208SOL     OW16081   4.807   0.984   0.087
 5208SOL    HW116082   4.784   1.037   0.005
 5208SOL    HW216083   4.888   0.928   0.068
 5209SOL     OW16084   3.945   1.314   1.844
 5209SOL    HW116085   3.880   1.241   1.823
 5209SOL    HW216086   3.949   1.328   1.942
 5210SOL     OW16087   3.803   1.240   0.653
 5210SOL    HW116088   3.802   1.193   0.741
 5210SOL    HW216089   3.885   1.212   0.602
 5211SOL     OW16090   4.396   1.391   1.624
 5211SOL    HW116091   4.318   1.341   1.662
 5211SOL    HW216092   4.393   1.486   1.655
 5212SOL     OW16093   4.152   0.424   0.520
 5212SOL    HW116094   4.182   0.352   0.458
 5212SOL    HW216095   4.113   0.384   0.603
 5213SOL     OW16096   5.429   1.487   1.104
 5213SOL    HW116097   5.336   1.462   1.077
 5213SOL    HW216098   5.455   1.437   1.186
 5214SOL     OW16099   4.041   0.547   1.280
 5214SOL    HW116100   4.079   0.488   1.352
 5214SOL    HW216101   4.081   0.521   1.192
 5215SOL     OW16102   4.536   1.586   0.687
 5215SOL    HW116103   4.568   1.596   0.593
 5215SOL    HW216104   4.457   1.524   0.689
 5216SOL     OW16105   5.148   0.214   1.112
 5216SOL    HW116106   5.200   0.149   1.167
 5216SOL    HW216107   5.099   0.277   1.173
 5217SOL     OW16108   4.725   0.034   1.154
 5217SOL    HW116109   4.662  -0.038   1.123
 5217SOL    HW216110   4.818  -0.002   1.154
 5218SOL     OW16111   4.494   1.330   0.301
 5218SOL    HW116112   4.448   1.243   0.318
 5218SOL    HW216113   4.585   1.327   0.342
 5219SOL     OW16114   4.342   1.567   1.284
 5219SOL    HW116115   4.337   1.649   1.341
 5219SOL    HW216116   4.431   1.564   1.239
 5220SOL     OW16117   5.076   0.052   0.168
 5220SOL    HW116118   5.111   0.011   0.084
 5220SOL    HW216119   4.986   0.014   0.188
 5221SOL     OW16120   5.024   0.453   0.691
 5221SOL    HW116121   4.965   0.533   0.695
 5221SOL    HW216122   5.039   0.418   0.784
 5222SOL     OW16123   5.317   0.221   0.882
 5222SOL    HW116124   5.233   0.220   0.936
 5222SOL    HW216125   5.319   0.304   0.826
 5223SOL     OW16126   3.763   1.077   0.300
 5223SOL    HW116127   3.862   1.066   0.291
 5223SOL    HW216128   3.723   0.991   0.332
 5224SOL     OW16129   4.599   1.646   0.337
 5224SOL    HW116130   4.522   1.611   0.283
 5224SOL    HW216131   4.567   1.717   0.399
 5225SOL     OW16132   3.954   0.628   1.975
 5225SOL    HW116133   3.861   0.626   2.012
 5225SOL    HW216134   3.955   0.589   1.883
 5226SOL     OW16135   3.949   0.275   2.858
 5226SOL    HW116136   3.984   0.258   2.950
 5226SOL    HW216137   3.861   0.230   2.846
 5227SOL     OW16138   3.743   0.368   2.509
 5227SOL    HW116139   3.661   0.411   2.548
 5227SOL    HW216140   3.715   0.295   2.446
 5228SOL     OW16141   4.293   1.275   3.027
 5228SOL    HW116142   4.200   1.268   2.990
 5228SOL    HW216143   4.304   1.364   3.071
 5229SOL     OW16144   5.279   1.511   2.565
 5229SOL    HW116145   5.222   1.495   2.646
 5229SOL    HW216146   5.220   1.521   2.485
 5230SOL     OW16147   4.859   0.703   2.579
 5230SOL    HW116148   4.916   0.781   2.554
 5230SOL    HW216149   4.799   0.729   2.655
 5231SOL     OW16150   4.492   1.144   2.885
 5231SOL    HW116151   4.414   1.161   2.945
 5231SOL    HW216152   4.526   1.231   2.849
 5232SOL     OW16153   4.574   0.798   3.685
 5232SOL    HW116154   4.570   0.874   3.750
 5232SOL    HW216155   4.596   0.834   3.594
 5233SOL     OW16156   4.409   1.012   2.527
 5233SOL    HW116157   4.478   0.996   2.597
 5233SOL    HW216158   4.336   1.069   2.565
 5234SOL     OW16159   4.410   1.161   3.665
 5234SOL    HW116160   4.470   1.240   3.679
 5234SOL    HW216161   4.324   1.192   3.624
 5235SOL     OW16162   4.059   1.435   2.923
 5235SOL    HW116163   3.981   1.404   2.870
 5235SOL    HW216164   4.117   1.493   2.866
 5236SOL     OW16165   5.184   1.505   3.201
 5236SOL    HW116166   5.208   1.599   3.227
 5236SOL    HW216167   5.168   1.451   3.283
 5237SOL     OW16168   4.162   0.392   3.361
 5237SOL    HW116169   4.244   0.336   3.370
 5237SOL    HW216170   4.081   0.334   3.365
 5238SOL     OW16171   3.955   1.713   2.345
 5238SOL    HW116172   3.989   1.790   2.399
 5238SOL    HW216173   3.999   1.713   2.255
 5239SOL     OW16174   4.851   1.341   3.552
 5239SOL    HW116175   4.898   1.341   3.640
 5239SOL    HW216176   4.803   1.254   3.541
 5240SOL     OW16177   3.954   1.434   2.400
 5240SOL    HW116178   3.928   1.530   2.400
 5240SOL    HW216179   3.883   1.380   2.445
 5241SOL     OW16180   3.964   1.091   2.748
 5241SOL    HW116181   3.978   1.007   2.800
 5241SOL    HW216182   3.909   1.155   2.803
 5242SOL     OW16183   4.344   1.786   3.301
 5242SOL    HW116184   4.252   1.769   3.336
 5242SOL    HW216185   4.372   1.878   3.327
 5243SOL     OW16186   4.330   0.964   1.985
 5243SOL    HW116187   4.337   1.048   1.931
 5243SOL    HW216188   4.376   0.977   2.073
 5244SOL     OW16189   5.318   0.114   3.342
 5244SOL    HW116190   5.300   0.181   3.270
 5244SOL    HW216191   5.315   0.160   3.431
 5245SOL     OW16192   3.846   0.643   2.425
 5245SOL    HW116193   3.801   0.555   2.442
 5245SOL    HW216194   3.845   0.697   2.509
 5246SOL     OW16195   3.751   1.596   1.979
 5246SOL    HW116196   3.732   1.500   2.000
 5246SOL    HW216197   3.718   1.654   2.054
 5247SOL     OW16198   5.413   0.922   2.474
 5247SOL    HW116199   5.508   0.893   2.482
 5247SOL    HW216200   5.405   0.987   2.399
 5248SOL     OW16201   3.837   0.737   3.459
 5248SOL    HW116202   3.925   0.724   3.504
 5248SOL    HW216203   3.824   0.834   3.437
 5249SOL     OW16204   4.337   1.365   2.588
 5249SOL    HW116205   4.288   1.278   2.597
 5249SOL    HW216206   4.314   1.408   2.501
 5250SOL     OW16207   5.017   1.228   3.285
 5250SOL    HW116208   5.054   1.155   3.227
 5250SOL    HW216209   5.069   1.233   3.370
 5251SOL     OW16210   4.533   0.004   2.364
 5251SOL    HW116211   4.573   0.095   2.355
 5251SOL    HW216212   4.433   0.012   2.370
 5252SOL     OW16213   3.921   0.976   3.126
 5252SOL    HW116214   4.010   0.931   3.112
 5252SOL    HW216215   3.848   0.911   3.107
 5253SOL     OW16216   4.911   1.792   3.478
 5253SOL    HW116217   4.935   1.852   3.402
 5253SOL    HW216218   4.918   1.697   3.448
 5254SOL     OW16219   4.041   0.251   3.663
 5254SOL    HW116220   4.112   0.322   3.669
 5254SOL    HW216221   3.953   0.290   3.691
 5255SOL     OW16222   5.190   1.417   2.815
 5255SOL    HW116223   5.131   1.423   2.895
 5255SOL    HW216224   5.175   1.329   2.769
 5256SOL     OW16225   4.322   0.729   2.132
 5256SOL    HW116226   4.346   0.798   2.064
 5256SOL    HW216227   4.244   0.762   2.186
 5257SOL     OW16228   5.005   0.345   2.806
 5257SOL    HW116229   4.919   0.295   2.793
 5257SOL    HW216230   5.067   0.291   2.862
 5258SOL     OW16231   4.531   0.605   3.327
 5258SOL    HW116232   4.484   0.602   3.416
 5258SOL    HW216233   4.480   0.550   3.261
 5259SOL     OW16234   5.118   0.469   3.536
 5259SOL    HW116235   5.098   0.512   3.624
 5259SOL    HW216236   5.196   0.407   3.545
 5260SOL     OW16237   4.697   0.890   3.434
 5260SOL    HW116238   4.743   0.806   3.405
 5260SOL    HW216239   4.641   0.924   3.359
 5261SOL     OW16240   4.715   0.410   3.104
 5261SOL    HW116241   4.638   0.444   3.158
 5261SOL    HW216242   4.681   0.359   3.025
 5262SOL     OW16243   4.765   0.701   2.291
 5262SOL    HW116244   4.791   0.697   2.387
 5262SOL    HW216245   4.680   0.650   2.277
 5263SOL     OW16246   3.800   0.811   2.651
 5263SOL    HW116247   3.899   0.799   2.660
 5263SOL    HW216248   3.776   0.906   2.672
 5264SOL     OW16249   3.854   1.821   3.433
 5264SOL    HW116250   3.844   1.806   3.532
 5264SOL    HW216251   3.768   1.857   3.397
 5265SOL     OW16252   4.589   0.348   2.057
 5265SOL    HW116253   4.648   0.411   2.008
 5265SOL    HW216254   4.608   0.254   2.028
 5266SOL     OW16255   5.086   1.144   2.407
 5266SOL    HW116256   5.169   1.115   2.359
 5266SOL    HW216257   5.037   1.211   2.351
 5267SOL     OW16258   4.274   0.196   2.747
 5267SOL    HW116259   4.269   0.191   2.847
 5267SOL    HW216260   4.276   0.292   2.718
 5268SOL     OW16261   4.732   1.456   2.339
 5268SOL    HW116262   4.686   1.528   2.287
 5268SOL    HW216263   4.728   1.476   2.437
 5269SOL     OW16264   4.075   1.801   2.715
 5269SOL    HW116265   4.125   1.715   2.721
 5269SOL    HW216266   4.140   1.878   2.712
 5270SOL     OW16267   4.951   1.550   3.368
 5270SOL    HW116268   4.957   1.473   3.432
 5270SOL    HW216269   4.899   1.524   3.288
 5271SOL     OW16270   4.045   0.943   2.104
 5271SOL    HW116271   4.127   0.982   2.062
 5271SOL    HW216272   4.018   0.861   2.055
 5272SOL     OW16273   4.185   1.266   3.589
 5272SOL    HW116274   4.135   1.267   3.503
 5272SOL    HW216275   4.122   1.248   3.665
 5273SOL     OW16276   4.835   1.776   2.099
 5273SOL    HW116277   4.775   1.714   2.149
 5273SOL    HW216278   4.866   1.732   2.014
 5274SOL     OW16279   3.926   0.285   3.360
 5274SOL    HW116280   3.846   0.345   3.347
 5274SOL    HW216281   3.916   0.236   3.446
 5275SOL     OW16282   4.188   1.743   2.185
 5275SOL    HW116283   4.221   1.782   2.271
 5275SOL    HW216284   4.264   1.736   2.120
 5276SOL     OW16285   5.124   0.107   2.288
 5276SOL    HW116286   5.100   0.070   2.198
 5276SOL    HW216287   5.223   0.123   2.292
 5277SOL     OW16288   3.973   1.785   3.103
 5277SOL    HW116289   4.030   1.720   3.153
 5277SOL    HW216290   3.957   1.752   3.010
 5278SOL     OW16291   4.664   1.698   2.766
 5278SOL    HW116292   4.744   1.641   2.787
 5278SOL    HW216293   4.615   1.658   2.689
 5279SOL     OW16294   4.106   0.700   2.342
 5279SOL    HW116295   4.151   0.610   2.339
 5279SOL    HW216296   4.012   0.689   2.375
 5280SOL     OW16297   4.338   0.122   1.979
 5280SOL    HW116298   4.436   0.100   1.986
 5280SOL    HW216299   4.307   0.105   1.886
 5281SOL     OW16300   4.505   0.264   3.611
 5281SOL    HW116301   4.572   0.203   3.654
 5281SOL    HW216302   4.432   0.283   3.676
 5282SOL     OW16303   4.612   1.514   3.057
 5282SOL    HW116304   4.589   1.489   2.963
 5282SOL    HW216305   4.673   1.445   3.096
 5283SOL     OW16306   5.075   0.590   3.295
 5283SOL    HW116307   5.103   0.547   3.380
 5283SOL    HW216308   5.100   0.686   3.296
 5284SOL     OW16309   4.527   1.402   2.786
 5284SOL    HW116310   4.617   1.416   2.744
 5284SOL    HW216311   4.456   1.404   2.715
 5285SOL     OW16312   4.646   0.503   2.761
 5285SOL    HW116313   4.621   0.494   2.665
 5285SOL    HW216314   4.694   0.421   2.792
 5286SOL     OW16315   4.263   0.064   2.374
 5286SOL    HW116316   4.182   0.065   2.432
 5286SOL    HW216317   4.266   0.147   2.319
 5287SOL     OW16318   5.158   1.188   1.903
 5287SOL    HW116319   5.190   1.112   1.960
 5287SOL    HW216320   5.066   1.215   1.933
 5288SOL     OW16321   4.021   0.035   2.033
 5288SOL    HW116322   4.070   0.119   2.012
 5288SOL    HW216323   4.083  -0.030   2.078
 5289SOL     OW16324   4.659   0.236   2.342
 5289SOL    HW116325   4.611   0.277   2.264
 5289SOL    HW216326   4.758   0.234   2.323
 5290SOL     OW16327   4.800   0.683   3.326
 5290SOL    HW116328   4.720   0.622   3.329
 5290SOL    HW216329   4.881   0.630   3.302
 5291SOL     OW16330   4.951   1.570   2.655
 5291SOL    HW116331   4.972   1.644   2.590
 5291SOL    HW216332   5.019   1.570   2.728
 5292SOL     OW16333   4.183   1.152   2.603
 5292SOL    HW116334   4.112   1.125   2.668
 5292SOL    HW216335   4.157   1.124   2.510
 5293SOL     OW16336   4.995   1.797   2.453
 5293SOL    HW116337   5.039   1.861   2.389
 5293SOL    HW216338   4.945   1.849   2.523
 5294SOL     OW16339   4.756   0.549   1.878
 5294SOL    HW116340   4.715   0.631   1.839
 5294SOL    HW216341   4.820   0.575   1.951
 5295SOL     OW16342   3.802   0.556   3.248
 5295SOL    HW116343   3.894   0.555   3.207
 5295SOL    HW216344   3.796   0.630   3.315
 5296SOL     OW16345   4.285   0.222   3.009
 5296SOL    HW116346   4.323   0.138   3.046
 5296SOL    HW216347   4.197   0.241   3.053
 5297SOL     OW16348   4.590   0.454   2.504
 5297SOL    HW116349   4.558   0.526   2.442
 5297SOL    HW216350   4.614   0.373   2.451
 5298SOL     OW16351   4.741   0.039   2.615
 5298SOL    HW116352   4.669   0.044   2.546
 5298SOL    HW216353   4.717  -0.030   2.684
 5299SOL     OW16354   5.153   1.173   2.729
 5299SOL    HW116355   5.098   1.089   2.722
 5299SOL    HW216356   5.179   1.202   2.637
 5300SOL     OW16357   4.212   1.385   2.036
 5300SOL    HW116358   4.125   1.370   2.083
 5300SOL    HW216359   4.195   1.411   1.941
 5301SOL     OW16360   5.114   0.575   1.940
 5301SOL    HW116361   5.060   0.554   2.021
 5301SOL    HW216362   5.205   0.534   1.949
 5302SOL     OW16363   4.251   0.256   2.190
 5302SOL    HW116364   4.278   0.197   2.115
 5302SOL    HW216365   4.251   0.351   2.159
 5303SOL     OW16366   4.788   1.347   3.202
 5303SOL    HW116367   4.708   1.324   3.257
 5303SOL    HW216368   4.871   1.321   3.251
 5304SOL     OW16369   5.316   1.629   3.487
 5304SOL    HW116370   5.343   1.663   3.397
 5304SOL    HW216371   5.395   1.591   3.533
 5305SOL     OW16372   4.835   1.195   2.962
 5305SOL    HW116373   4.795   1.239   3.043
 5305SOL    HW216374   4.794   1.232   2.879
 5306SOL     OW16375   4.639   0.089   3.264
 5306SOL    HW116376   4.664   0.069   3.169
 5306SOL    HW216377   4.711   0.145   3.306
 5307SOL     OW16378   4.704   1.116   3.581
 5307SOL    HW116379   4.605   1.122   3.591
 5307SOL    HW216380   4.727   1.036   3.525
 5308SOL     OW16381   4.429   1.050   2.230
 5308SOL    HW116382   4.415   1.057   2.329
 5308SOL    HW216383   4.513   0.999   2.212
 5309SOL     OW16384   4.134   0.813   3.113
 5309SOL    HW116385   4.220   0.825   3.163
 5309SOL    HW216386   4.092   0.726   3.140
 5310SOL     OW16387   4.998   0.386   3.124
 5310SOL    HW116388   5.019   0.460   3.188
 5310SOL    HW216389   4.909   0.403   3.081
 5311SOL     OW16390   3.788   1.564   3.193
 5311SOL    HW116391   3.742   1.646   3.159
 5311SOL    HW216392   3.886   1.583   3.202
 5312SOL     OW16393   4.091   1.100   2.363
 5312SOL    HW116394   4.084   1.183   2.307
 5312SOL    HW216395   4.095   1.020   2.303
 5313SOL     OW16396   4.290   0.537   2.727
 5313SOL    HW116397   4.302   0.603   2.653
 5313SOL    HW216398   4.336   0.571   2.810
 5314SOL     OW16399   4.976   1.348   2.250
 5314SOL    HW116400   5.026   1.425   2.290
 5314SOL    HW216401   4.881   1.350   2.282
 5315SOL     OW16402   4.996   1.445   3.004
 5315SOL    HW116403   5.043   1.458   3.091
 5315SOL    HW216404   4.930   1.371   3.013
 5316SOL     OW16405   4.078   1.510   3.191
 5316SOL    HW116406   4.057   1.466   3.104
 5316SOL    HW216407   4.175   1.536   3.194
 5317SOL     OW16408   4.126   0.751   3.460
 5317SOL    HW116409   4.194   0.806   3.413
 5317SOL    HW216410   4.166   0.663   3.487
 5318SOL     OW16411   4.737   0.105   3.632
 5318SOL    HW116412   4.743   0.190   3.580
 5318SOL    HW216413   4.769   0.029   3.575
 5319SOL     OW16414   4.228   0.050   3.602
 5319SOL    HW116415   4.186  -0.007   3.532
 5319SOL    HW216416   4.162   0.119   3.634
 5320SOL     OW16417   4.297   0.870   2.891
 5320SOL    HW116418   4.341   0.959   2.882
 5320SOL    HW216419   4.234   0.870   2.968
 5321SOL     OW16420   5.084   0.862   2.907
 5321SOL    HW116421   5.009   0.862   2.841
 5321SOL    HW216422   5.121   0.770   2.916
 5322SOL     OW16423   4.933   0.525   2.137
 5322SOL    HW116424   4.946   0.441   2.191
 5322SOL    HW216425   4.904   0.599   2.197
 5323SOL     OW16426   4.031   0.213   3.093
 5323SOL    HW116427   4.008   0.250   3.183
 5323SOL    HW216428   4.001   0.118   3.087
 5324SOL     OW16429   3.761   1.310   3.144
 5324SOL    HW116430   3.814   1.261   3.212
 5324SOL    HW216431   3.783   1.408   3.149
 5325SOL     OW16432   4.456   0.634   2.926
 5325SOL    HW116433   4.515   0.608   2.850
 5325SOL    HW216434   4.428   0.730   2.915
 5326SOL     OW16435   4.031   0.063   2.480
 5326SOL    HW116436   4.020   0.157   2.513
 5326SOL    HW216437   4.026   0.000   2.557
 5327SOL     OW16438   5.346   0.367   2.236
 5327SOL    HW116439   5.348   0.291   2.300
 5327SOL    HW216440   5.298   0.444   2.276
 5328SOL     OW16441   4.747   0.766   2.828
 5328SOL    HW116442   4.762   0.787   2.924
 5328SOL    HW216443   4.717   0.671   2.819
 5329SOL     OW16444   4.704   1.573   3.562
 5329SOL    HW116445   4.684   1.617   3.474
 5329SOL    HW216446   4.743   1.482   3.546
 5330SOL     OW16447   4.074   0.898   3.666
 5330SOL    HW116448   4.150   0.942   3.714
 5330SOL    HW216449   4.109   0.851   3.584
 5331SOL     OW16450   5.027   0.838   1.904
 5331SOL    HW116451   5.061   0.745   1.919
 5331SOL    HW216452   5.045   0.865   1.809
 5332SOL     OW16453   4.792   1.333   2.711
 5332SOL    HW116454   4.799   1.249   2.656
 5332SOL    HW216455   4.854   1.402   2.675
 5333SOL     OW16456   4.043   0.810   2.811
 5333SOL    HW116457   4.136   0.846   2.816
 5333SOL    HW216458   4.037   0.725   2.863
 5334SOL     OW16459   4.063   0.509   2.868
 5334SOL    HW116460   4.011   0.426   2.851
 5334SOL    HW216461   4.140   0.514   2.804
 5335SOL     OW16462   4.862   0.380   3.540
 5335SOL    HW116463   4.817   0.443   3.604
 5335SOL    HW216464   4.955   0.411   3.523
 5336SOL     OW16465   4.884   0.207   3.339
 5336SOL    HW116466   4.884   0.271   3.416
 5336SOL    HW216467   4.912   0.255   3.256
 5337SOL     OW16468   3.732   1.326   2.062
 5337SOL    HW116469   3.639   1.347   2.031
 5337SOL    HW216470   3.742   1.227   2.075
 5338SOL     OW16471   3.812   1.801   2.789
 5338SOL    HW116472   3.770   1.715   2.762
 5338SOL    HW216473   3.906   1.804   2.755
 5339SOL     OW16474   4.228   1.568   2.772
 5339SOL    HW116475   4.294   1.642   2.781
 5339SOL    HW216476   4.272   1.489   2.730
 5340SOL     OW16477   4.726   0.796   3.100
 5340SOL    HW116478   4.767   0.764   3.186
 5340SOL    HW216479   4.630   0.769   3.097
 5341SOL     OW16480   3.764   0.544   2.976
 5341SOL    HW116481   3.849   0.511   2.935
 5341SOL    HW216482   3.777   0.559   3.074
 5342SOL     OW16483   3.913   0.520   3.584
 5342SOL    HW116484   3.972   0.480   3.514
 5342SOL    HW216485   3.855   0.591   3.543
 5343SOL     OW16486   5.093   0.950   3.522
 5343SOL    HW116487   5.132   1.039   3.542
 5343SOL    HW216488   5.103   0.930   3.425
 5344SOL     OW16489   4.539   0.572   2.187
 5344SOL    HW116490   4.546   0.483   2.141
 5344SOL    HW216491   4.445   0.606   2.179
 5345SOL     OW16492   3.976   1.564   3.606
 5345SOL    HW116493   3.946   1.621   3.682
 5345SOL    HW216494   3.969   1.467   3.632
 5346SOL     OW16495   4.395   0.464   3.131
 5346SOL    HW116496   4.361   0.375   3.101
 5346SOL    HW216497   4.421   0.518   3.051
 5347SOL     OW16498   4.654   1.678   3.327
 5347SOL    HW116499   4.630   1.660   3.232
 5347SOL    HW216500   4.684   1.772   3.337
 5348SOL     OW16501   4.197   0.500   2.053
 5348SOL    HW116502   4.258   0.580   2.057
 5348SOL    HW216503   4.102   0.531   2.060
 5349SOL     OW16504   3.883   1.137   3.328
 5349SOL    HW116505   3.905   1.076   3.404
 5349SOL    HW216506   3.893   1.088   3.242
 5350SOL     OW16507   5.071   1.059   3.096
 5350SOL    HW116508   5.095   0.996   3.022
 5350SOL    HW216509   4.981   1.099   3.078
 5351SOL     OW16510   5.026   0.855   2.171
 5351SOL    HW116511   4.940   0.824   2.213
 5351SOL    HW216512   5.022   0.841   2.072
 5352SOL     OW16513   4.976   1.731   2.990
 5352SOL    HW116514   5.060   1.736   2.936
 5352SOL    HW216515   4.953   1.635   3.008
 5353SOL     OW16516   3.807   1.258   2.884
 5353SOL    HW116517   3.802   1.257   2.984
 5353SOL    HW216518   3.724   1.217   2.846
 5354SOL     OW16519   4.412   1.662   3.578
 5354SOL    HW116520   4.356   1.743   3.587
 5354SOL    HW216521   4.464   1.666   3.492
 5355SOL     OW16522   5.112   1.573   2.339
 5355SOL    HW116523   5.179   1.585   2.265
 5355SOL    HW216524   5.072   1.662   2.362
 5356SOL     OW16525   3.854   1.794   3.713
 5356SOL    HW116526   3.813   1.720   3.766
 5356SOL    HW216527   3.918   1.845   3.771
 5357SOL     OW16528   5.004   0.927   2.534
 5357SOL    HW116529   5.064   0.846   2.536
 5357SOL    HW216530   5.044   0.996   2.474
 5358SOL     OW16531   4.554   1.273   3.284
 5358SOL    HW116532   4.549   1.306   3.379
 5358SOL    HW216533   4.468   1.292   3.238
 5359SOL     OW16534   4.396   1.616   2.016
 5359SOL    HW116535   4.405   1.626   1.917
 5359SOL    HW216536   4.356   1.527   2.037
 5360SOL     OW16537   3.987   0.326   2.582
 5360SOL    HW116538   3.908   0.377   2.548
 5360SOL    HW216539   3.978   0.311   2.680
 5361SOL     OW16540   4.918   1.612   1.893
 5361SOL    HW116541   4.924   1.519   1.930
 5361SOL    HW216542   4.859   1.612   1.813
 5362SOL     OW16543   4.546   1.002   3.234
 5362SOL    HW116544   4.586   1.001   3.142
 5362SOL    HW216545   4.556   1.094   3.274
 5363SOL     OW16546   4.640   0.910   2.153
 5363SOL    HW116547   4.703   0.948   2.085
 5363SOL    HW216548   4.680   0.827   2.192
 5364SOL     OW16549   4.096   1.288   3.352
 5364SOL    HW116550   4.083   1.381   3.318
 5364SOL    HW216551   4.012   1.236   3.339
 5365SOL     OW16552   4.763   1.098   2.558
 5365SOL    HW116553   4.693   1.051   2.612
 5365SOL    HW216554   4.822   1.030   2.515
 5366SOL     OW16555   4.738   0.236   2.833
 5366SOL    HW116556   4.730   0.200   2.740
 5366SOL    HW216557   4.736   0.160   2.898
 5367SOL     OW16558   4.314   1.487   2.353
 5367SOL    HW116559   4.356   1.429   2.283
 5367SOL    HW216560   4.270   1.566   2.309
 5368SOL     OW16561   3.979   1.348   2.152
 5368SOL    HW116562   3.883   1.349   2.125
 5368SOL    HW216563   3.991   1.401   2.236
 5369SOL     OW16564   3.829   1.013   3.588
 5369SOL    HW116565   3.752   0.980   3.642
 5369SOL    HW216566   3.914   0.983   3.630
 5370SOL     OW16567   4.396   0.203   3.351
 5370SOL    HW116568   4.486   0.187   3.311
 5370SOL    HW216569   4.404   0.208   3.450
 5371SOL     OW16570   3.799   0.345   1.895
 5371SOL    HW116571   3.707   0.317   1.866
 5371SOL    HW216572   3.830   0.422   1.839
 5372SOL     OW16573   5.164   0.856   3.260
 5372SOL    HW116574   5.107   0.908   3.197
 5372SOL    HW216575   5.260   0.868   3.236
 5373SOL     OW16576   3.796   0.166   2.180
 5373SOL    HW116577   3.779   0.249   2.126
 5373SOL    HW216578   3.886   0.129   2.158
 5374SOL     OW16579   4.907   1.335   1.981
 5374SOL    HW116580   4.808   1.324   1.983
 5374SOL    HW216581   4.941   1.350   2.074
 5375SOL     OW16582   4.337   0.842   3.293
 5375SOL    HW116583   4.393   0.923   3.276
 5375SOL    HW216584   4.396   0.762   3.296
 5376SOL     OW16585   4.440   0.565   3.570
 5376SOL    HW116586   4.459   0.630   3.644
 5376SOL    HW216587   4.500   0.485   3.579
 5377SOL     OW16588   5.174   1.220   3.495
 5377SOL    HW116589   5.165   1.210   3.594
 5377SOL    HW216590   5.270   1.213   3.469
 5378SOL     OW16591   4.114   1.741   3.422
 5378SOL    HW116592   4.023   1.782   3.420
 5378SOL    HW216593   4.107   1.647   3.454
 5379SOL     OW16594   4.949   0.325   2.311
 5379SOL    HW116595   5.014   0.251   2.300
 5379SOL    HW216596   4.969   0.375   2.395
 5380SOL     OW16597   4.318   0.745   2.514
 5380SOL    HW116598   4.368   0.830   2.495
 5380SOL    HW216599   4.230   0.747   2.466
 5381SOL     OW16600   4.583   1.374   1.878
 5381SOL    HW116601   4.537   1.389   1.966
 5381SOL    HW216602   4.627   1.459   1.848
 5382SOL     OW16603   4.385   1.790   2.815
 5382SOL    HW116604   4.339   1.878   2.802
 5382SOL    HW216605   4.484   1.802   2.808
 5383SOL     OW16606   4.583   0.956   2.723
 5383SOL    HW116607   4.637   0.887   2.771
 5383SOL    HW216608   4.551   1.025   2.789
 5384SOL     OW16609   4.807   0.984   1.949
 5384SOL    HW116610   4.784   1.037   1.867
 5384SOL    HW216611   4.888   0.928   1.930
 5385SOL     OW16612   3.945   1.314   3.706
 5385SOL    HW116613   3.880   1.241   3.685
 5385SOL    HW216614   3.949   1.328   3.804
 5386SOL     OW16615   3.803   1.240   2.515
 5386SOL    HW116616   3.802   1.193   2.603
 5386SOL    HW216617   3.885   1.212   2.464
 5387SOL     OW16618   4.396   1.391   3.486
 5387SOL    HW116619   4.318   1.341   3.524
 5387SOL    HW216620   4.393   1.486   3.517
 5388SOL     OW16621   4.152   0.424   2.382
 5388SOL    HW116622   4.182   0.352   2.320
 5388SOL    HW216623   4.113   0.384   2.465
 5389SOL     OW16624   5.429   1.487   2.966
 5389SOL    HW116625   5.336   1.462   2.939
 5389SOL    HW216626   5.455   1.437   3.048
 5390SOL     OW16627   4.041   0.547   3.142
 5390SOL    HW116628   4.079   0.488   3.214
 5390SOL    HW216629   4.081   0.521   3.054
 5391SOL     OW16630   4.536   1.586   2.549
 5391SOL    HW116631   4.568   1.596   2.455
 5391SOL    HW216632   4.457   1.524   2.551
 5392SOL     OW16633   5.148   0.214   2.974
 5392SOL    HW116634   5.200   0.149   3.029
 5392SOL    HW216635   5.099   0.277   3.035
 5393SOL     OW16636   4.725   0.034   3.016
 5393SOL    HW116637   4.662  -0.038   2.985
 5393SOL    HW216638   4.818  -0.002   3.016
 5394SOL     OW16639   4.494   1.330   2.163
 5394SOL    HW116640   4.448   1.243   2.180
 5394SOL    HW216641   4.585   1.327   2.204
 5395SOL     OW16642   4.342   1.567   3.146
 5395SOL    HW116643   4.337   1.649   3.203
 5395SOL    HW216644   4.431   1.564   3.101
 5396SOL     OW16645   5.076   0.052   2.030
 5396SOL    HW116646   5.111   0.011   1.946
 5396SOL    HW216647   4.986   0.014   2.050
 5397SOL     OW16648   5.024   0.453   2.553
 5397SOL    HW116649   4.965   0.533   2.557
 5397SOL    HW216650   5.039   0.418   2.646
 5398SOL     OW16651   5.317   0.221   2.744
 5398SOL    HW116652   5.233   0.220   2.798
 5398SOL    HW216653   5.319   0.304   2.688
 5399SOL     OW16654   3.763   1.077   2.162
 5399SOL    HW116655   3.862   1.066   2.153
 5399SOL    HW216656   3.723   0.991   2.194
 5400SOL     OW16657   4.599   1.646   2.199
 5400SOL    HW116658   4.522   1.611   2.145
 5400SOL    HW216659   4.567   1.717   2.261
 5401SOL     OW16660   3.954   0.628   3.837
 5401SOL    HW116661   3.861   0.626   3.874
 5401SOL    HW216662   3.955   0.589   3.745
 5402SOL     OW16663   3.949   0.275   4.720
 5402SOL    HW116664   3.984   0.258   4.812
 5402SOL    HW216665   3.861   0.230   4.708
 5403SOL     OW16666   3.743   0.368   4.371
 5403SOL    HW116667   3.661   0.411   4.410
 5403SOL    HW216668   3.715   0.295   4.308
 5404SOL     OW16669   4.293   1.275   4.889
 5404SOL    HW116670   4.200   1.268   4.852
 5404SOL    HW216671   4.304   1.364   4.933
 5405SOL     OW16672   5.279   1.511   4.427
 5405SOL    HW116673   5.222   1.495   4.508
 5405SOL    HW216674   5.220   1.521   4.347
 5406SOL     OW16675   4.859   0.703   4.441
 5406SOL    HW116676   4.916   0.781   4.416
 5406SOL    HW216677   4.799   0.729   4.517
 5407SOL     OW16678   4.492   1.144   4.747
 5407SOL    HW116679   4.414   1.161   4.807
 5407SOL    HW216680   4.526   1.231   4.711
 5408SOL     OW16681   4.574   0.798   5.547
 5408SOL    HW116682   4.570   0.874   5.612
 5408SOL    HW216683   4.596   0.834   5.456
 5409SOL     OW16684   4.409   1.012   4.389
 5409SOL    HW116685   4.478   0.996   4.459
 5409SOL    HW216686   4.336   1.069   4.427
 5410SOL     OW16687   4.410   1.161   5.527
 5410SOL    HW116688   4.470   1.240   5.541
 5410SOL    HW216689   4.324   1.192   5.486
 5411SOL     OW16690   4.059   1.435   4.785
 5411SOL    HW116691   3.981   1.404   4.732
 5411SOL    HW216692   4.117   1.493   4.728
 5412SOL     OW16693   5.184   1.505   5.063
 5412SOL    HW116694   5.208   1.599   5.089
 5412SOL    HW216695   5.168   1.451   5.145
 5413SOL     OW16696   4.162   0.392   5.223
 5413SOL    HW116697   4.244   0.336   5.232
 5413SOL    HW216698   4.081   0.334   5.227
 5414SOL     OW16699   3.955   1.713   4.207
 5414SOL    HW116700   3.989   1.790   4.261
 5414SOL    HW216701   3.999   1.713   4.117
 5415SOL     OW16702   4.851   1.341   5.414
 5415SOL    HW116703   4.898   1.341   5.502
 5415SOL    HW216704   4.803   1.254   5.403
 5416SOL     OW16705   3.954   1.434   4.262
 5416SOL    HW116706   3.928   1.530   4.262
 5416SOL    HW216707   3.883   1.380   4.307
 5417SOL     OW16708   3.964   1.091   4.610
 5417SOL    HW116709   3.978   1.007   4.662
 5417SOL    HW216710   3.909   1.155   4.665
 5418SOL     OW16711   4.344   1.786   5.163
 5418SOL    HW116712   4.252   1.769   5.198
 5418SOL    HW216713   4.372   1.878   5.189
 5419SOL     OW16714   4.330   0.964   3.847
 5419SOL    HW116715   4.337   1.048   3.793
 5419SOL    HW216716   4.376   0.977   3.935
 5420SOL     OW16717   5.318   0.114   5.204
 5420SOL    HW116718   5.300   0.181   5.132
 5420SOL    HW216719   5.315   0.160   5.293
 5421SOL     OW16720   3.846   0.643   4.287
 5421SOL    HW116721   3.801   0.555   4.304
 5421SOL    HW216722   3.845   0.697   4.371
 5422SOL     OW16723   3.751   1.596   3.841
 5422SOL    HW116724   3.732   1.500   3.862
 5422SOL    HW216725   3.718   1.654   3.916
 5423SOL     OW16726   5.413   0.922   4.336
 5423SOL    HW116727   5.508   0.893   4.344
 5423SOL    HW216728   5.405   0.987   4.261
 5424SOL     OW16729   3.837   0.737   5.321
 5424SOL    HW116730   3.925   0.724   5.366
 5424SOL    HW216731   3.824   0.834   5.299
 5425SOL     OW16732   4.337   1.365   4.450
 5425SOL    HW116733   4.288   1.278   4.459
 5425SOL    HW216734   4.314   1.408   4.363
 5426SOL     OW16735   5.017   1.228   5.147
 5426SOL    HW116736   5.054   1.155   5.089
 5426SOL    HW216737   5.069   1.233   5.232
 5427SOL     OW16738   4.533   0.004   4.226
 5427SOL    HW116739   4.573   0.095   4.217
 5427SOL    HW216740   4.433   0.012   4.232
 5428SOL     OW16741   3.921   0.976   4.988
 5428SOL    HW116742   4.010   0.931   4.974
 5428SOL    HW216743   3.848   0.911   4.969
 5429SOL     OW16744   4.911   1.792   5.340
 5429SOL    HW116745   4.935   1.852   5.264
 5429SOL    HW216746   4.918   1.697   5.310
 5430SOL     OW16747   4.041   0.251   5.525
 5430SOL    HW116748   4.112   0.322   5.531
 5430SOL    HW216749   3.953   0.290   5.553
 5431SOL     OW16750   5.190   1.417   4.677
 5431SOL    HW116751   5.131   1.423   4.757
 5431SOL    HW216752   5.175   1.329   4.631
 5432SOL     OW16753   4.322   0.729   3.994
 5432SOL    HW116754   4.346   0.798   3.926
 5432SOL    HW216755   4.244   0.762   4.048
 5433SOL     OW16756   5.005   0.345   4.668
 5433SOL    HW116757   4.919   0.295   4.655
 5433SOL    HW216758   5.067   0.291   4.724
 5434SOL     OW16759   4.531   0.605   5.189
 5434SOL    HW116760   4.484   0.602   5.278
 5434SOL    HW216761   4.480   0.550   5.123
 5435SOL     OW16762   5.118   0.469   5.398
 5435SOL    HW116763   5.098   0.512   5.486
 5435SOL    HW216764   5.196   0.407   5.407
 5436SOL     OW16765   4.697   0.890   5.296
 5436SOL    HW116766   4.743   0.806   5.267
 5436SOL    HW216767   4.641   0.924   5.221
 5437SOL     OW16768   4.715   0.410   4.966
 5437SOL    HW116769   4.638   0.444   5.020
 5437SOL    HW216770   4.681   0.359   4.887
 5438SOL     OW16771   4.765   0.701   4.153
 5438SOL    HW116772   4.791   0.697   4.249
 5438SOL    HW216773   4.680   0.650   4.139
 5439SOL     OW16774   3.800   0.811   4.513
 5439SOL    HW116775   3.899   0.799   4.522
 5439SOL    HW216776   3.776   0.906   4.534
 5440SOL     OW16777   3.854   1.821   5.295
 5440SOL    HW116778   3.844   1.806   5.394
 5440SOL    HW216779   3.768   1.857   5.259
 5441SOL     OW16780   4.589   0.348   3.919
 5441SOL    HW116781   4.648   0.411   3.870
 5441SOL    HW216782   4.608   0.254   3.890
 5442SOL     OW16783   5.086   1.144   4.269
 5442SOL    HW116784   5.169   1.115   4.221
 5442SOL    HW216785   5.037   1.211   4.213
 5443SOL     OW16786   4.274   0.196   4.609
 5443SOL    HW116787   4.269   0.191   4.709
 5443SOL    HW216788   4.276   0.292   4.580
 5444SOL     OW16789   4.732   1.456   4.201
 5444SOL    HW116790   4.686   1.528   4.149
 5444SOL    HW216791   4.728   1.476   4.299
 5445SOL     OW16792   4.075   1.801   4.577
 5445SOL    HW116793   4.125   1.715   4.583
 5445SOL    HW216794   4.140   1.878   4.574
 5446SOL     OW16795   4.951   1.550   5.230
 5446SOL    HW116796   4.957   1.473   5.294
 5446SOL    HW216797   4.899   1.524   5.150
 5447SOL     OW16798   4.045   0.943   3.966
 5447SOL    HW116799   4.127   0.982   3.924
 5447SOL    HW216800   4.018   0.861   3.917
 5448SOL     OW16801   4.185   1.266   5.451
 5448SOL    HW116802   4.135   1.267   5.365
 5448SOL    HW216803   4.122   1.248   5.527
 5449SOL     OW16804   4.835   1.776   3.961
 5449SOL    HW116805   4.775   1.714   4.011
 5449SOL    HW216806   4.866   1.732   3.876
 5450SOL     OW16807   3.926   0.285   5.222
 5450SOL    HW116808   3.846   0.345   5.209
 5450SOL    HW216809   3.916   0.236   5.308
 5451SOL     OW16810   4.188   1.743   4.047
 5451SOL    HW116811   4.221   1.782   4.133
 5451SOL    HW216812   4.264   1.736   3.982
 5452SOL     OW16813   5.124   0.107   4.150
 5452SOL    HW116814   5.100   0.070   4.060
 5452SOL    HW216815   5.223   0.123   4.154
 5453SOL     OW16816   3.973   1.785   4.965
 5453SOL    HW116817   4.030   1.720   5.015
 5453SOL    HW216818   3.957   1.752   4.872
 5454SOL     OW16819   4.664   1.698   4.628
 5454SOL    HW116820   4.744   1.641   4.649
 5454SOL    HW216821   4.615   1.658   4.551
 5455SOL     OW16822   4.106   0.700   4.204
 5455SOL    HW116823   4.151   0.610   4.201
 5455SOL    HW216824   4.012   0.689   4.237
 5456SOL     OW16825   4.338   0.122   3.841
 5456SOL    HW116826   4.436   0.100   3.848
 5456SOL    HW216827   4.307   0.105   3.748
 5457SOL     OW16828   4.505   0.264   5.473
 5457SOL    HW116829   4.572   0.203   5.516
 5457SOL    HW216830   4.432   0.283   5.538
 5458SOL     OW16831   4.612   1.514   4.919
 5458SOL    HW116832   4.589   1.489   4.825
 5458SOL    HW216833   4.673   1.445   4.958
 5459SOL     OW16834   5.075   0.590   5.157
 5459SOL    HW116835   5.103   0.547   5.242
 5459SOL    HW216836   5.100   0.686   5.158
 5460SOL     OW16837   4.527   1.402   4.648
 5460SOL    HW116838   4.617   1.416   4.606
 5460SOL    HW216839   4.456   1.404   4.577
 5461SOL     OW16840   4.646   0.503   4.623
 5461SOL    HW116841   4.621   0.494   4.527
 5461SOL    HW216842   4.694   0.421   4.654
 5462SOL     OW16843   4.263   0.064   4.236
 5462SOL    HW116844   4.182   0.065   4.294
 5462SOL    HW216845   4.266   0.147   4.181
 5463SOL     OW16846   5.158   1.188   3.765
 5463SOL    HW116847   5.190   1.112   3.822
 5463SOL    HW216848   5.066   1.215   3.795
 5464SOL     OW16849   4.021   0.035   3.895
 5464SOL    HW116850   4.070   0.119   3.874
 5464SOL    HW216851   4.083  -0.030   3.940
 5465SOL     OW16852   4.659   0.236   4.204
 5465SOL    HW116853   4.611   0.277   4.126
 5465SOL    HW216854   4.758   0.234   4.185
 5466SOL     OW16855   4.800   0.683   5.188
 5466SOL    HW116856   4.720   0.622   5.191
 5466SOL    HW216857   4.881   0.630   5.164
 5467SOL     OW16858   4.951   1.570   4.517
 5467SOL    HW116859   4.972   1.644   4.452
 5467SOL    HW216860   5.019   1.570   4.590
 5468SOL     OW16861   4.183   1.152   4.465
 5468SOL    HW116862   4.112   1.125   4.530
 5468SOL    HW216863   4.157   1.124   4.372
 5469SOL     OW16864   4.995   1.797   4.315
 5469SOL    HW116865   5.039   1.861   4.251
 5469SOL    HW216866   4.945   1.849   4.385
 5470SOL     OW16867   4.756   0.549   3.740
 5470SOL    HW116868   4.715   0.631   3.701
 5470SOL    HW216869   4.820   0.575   3.813
 5471SOL     OW16870   3.802   0.556   5.110
 5471SOL    HW116871   3.894   0.555   5.069
 5471SOL    HW216872   3.796   0.630   5.177
 5472SOL     OW16873   4.285   0.222   4.871
 5472SOL    HW116874   4.323   0.138   4.908
 5472SOL    HW216875   4.197   0.241   4.915
 5473SOL     OW16876   4.590   0.454   4.366
 5473SOL    HW116877   4.558   0.526   4.304
 5473SOL    HW216878   4.614   0.373   4.313
 5474SOL     OW16879   4.741   0.039   4.477
 5474SOL    HW116880   4.669   0.044   4.408
 5474SOL    HW216881   4.717  -0.030   4.546
 5475SOL     OW16882   5.153   1.173   4.591
 5475SOL    HW116883   5.098   1.089   4.584
 5475SOL    HW216884   5.179   1.202   4.499
 5476SOL     OW16885   4.212   1.385   3.898
 5476SOL    HW116886   4.125   1.370   3.945
 5476SOL    HW216887   4.195   1.411   3.803
 5477SOL     OW16888   5.114   0.575   3.802
 5477SOL    HW116889   5.060   0.554   3.883
 5477SOL    HW216890   5.205   0.534   3.811
 5478SOL     OW16891   4.251   0.256   4.052
 5478SOL    HW116892   4.278   0.197   3.977
 5478SOL    HW216893   4.251   0.351   4.021
 5479SOL     OW16894   4.788   1.347   5.064
 5479SOL    HW116895   4.708   1.324   5.119
 5479SOL    HW216896   4.871   1.321   5.113
 5480SOL     OW16897   5.316   1.629   5.349
 5480SOL    HW116898   5.343   1.663   5.259
 5480SOL    HW216899   5.395   1.591   5.395
 5481SOL     OW16900   4.835   1.195   4.824
 5481SOL    HW116901   4.795   1.239   4.905
 5481SOL    HW216902   4.794   1.232   4.741
 5482SOL     OW16903   4.639   0.089   5.126
 5482SOL    HW116904   4.664   0.069   5.031
 5482SOL    HW216905   4.711   0.145   5.168
 5483SOL     OW16906   4.704   1.116   5.443
 5483SOL    HW116907   4.605   1.122   5.453
 5483SOL    HW216908   4.727   1.036   5.387
 5484SOL     OW16909   4.429   1.050   4.092
 5484SOL    HW116910   4.415   1.057   4.191
 5484SOL    HW216911   4.513   0.999   4.074
 5485SOL     OW16912   4.134   0.813   4.975
 5485SOL    HW116913   4.220   0.825   5.025
 5485SOL    HW216914   4.092   0.726   5.002
 5486SOL     OW16915   4.998   0.386   4.986
 5486SOL    HW116916   5.019   0.460   5.050
 5486SOL    HW216917   4.909   0.403   4.943
 5487SOL     OW16918   3.788   1.564   5.055
 5487SOL    HW116919   3.742   1.646   5.021
 5487SOL    HW216920   3.886   1.583   5.064
 5488SOL     OW16921   4.091   1.100   4.225
 5488SOL    HW116922   4.084   1.183   4.169
 5488SOL    HW216923   4.095   1.020   4.165
 5489SOL     OW16924   4.290   0.537   4.589
 5489SOL    HW116925   4.302   0.603   4.515
 5489SOL    HW216926   4.336   0.571   4.672
 5490SOL     OW16927   4.976   1.348   4.112
 5490SOL    HW116928   5.026   1.425   4.152
 5490SOL    HW216929   4.881   1.350   4.144
 5491SOL     OW16930   4.996   1.445   4.866
 5491SOL    HW116931   5.043   1.458   4.953
 5491SOL    HW216932   4.930   1.371   4.875
 5492SOL     OW16933   4.078   1.510   5.053
 5492SOL    HW116934   4.057   1.466   4.966
 5492SOL    HW216935   4.175   1.536   5.056
 5493SOL     OW16936   4.126   0.751   5.322
 5493SOL    HW116937   4.194   0.806   5.275
 5493SOL    HW216938   4.166   0.663   5.349
 5494SOL     OW16939   4.737   0.105   5.494
 5494SOL    HW116940   4.743   0.190   5.442
 5494SOL    HW216941   4.769   0.029   5.437
 5495SOL     OW16942   4.228   0.050   5.464
 5495SOL    HW116943   4.186  -0.007   5.394
 5495SOL    HW216944   4.162   0.119   5.496
 5496SOL     OW16945   4.297   0.870   4.753
 5496SOL    HW116946   4.341   0.959   4.744
 5496SOL    HW216947   4.234   0.870   4.830
 5497SOL     OW16948   5.084   0.862   4.769
 5497SOL    HW116949   5.009   0.862   4.703
 5497SOL    HW216950   5.121   0.770   4.778
 5498SOL     OW16951   4.933   0.525   3.999
 5498SOL    HW116952   4.946   0.441   4.053
 5498SOL    HW216953   4.904   0.599   4.059
 5499SOL     OW16954   4.031   0.213   4.955
 5499SOL    HW116955   4.008   0.250   5.045
 5499SOL    HW216956   4.001   0.118   4.949
 5500SOL     OW16957   3.761   1.310   5.006
 5500SOL    HW116958   3.814   1.261   5.074
 5500SOL    HW216959   3.783   1.408   5.011
 5501SOL     OW16960   4.456   0.634   4.788
 5501SOL    HW116961   4.515   0.608   4.712
 5501SOL    HW216962   4.428   0.730   4.777
 5502SOL     OW16963   4.031   0.063   4.342
 5502SOL    HW116964   4.020   0.157   4.375
 5502SOL    HW216965   4.026   0.000   4.419
 5503SOL     OW16966   5.346   0.367   4.098
 5503SOL    HW116967   5.348   0.291   4.162
 5503SOL    HW216968   5.298   0.444   4.138
 5504SOL     OW16969   4.747   0.766   4.690
 5504SOL    HW116970   4.762   0.787   4.786
 5504SOL    HW216971   4.717   0.671   4.681
 5505SOL     OW16972   4.704   1.573   5.424
 5505SOL    HW116973   4.684   1.617   5.336
 5505SOL    HW216974   4.743   1.482   5.408
 5506SOL     OW16975   4.074   0.898   5.528
 5506SOL    HW116976   4.150   0.942   5.576
 5506SOL    HW216977   4.109   0.851   5.446
 5507SOL     OW16978   5.027   0.838   3.766
 5507SOL    HW116979   5.061   0.745   3.781
 5507SOL    HW216980   5.045   0.865   3.671
 5508SOL     OW16981   4.792   1.333   4.573
 5508SOL    HW116982   4.799   1.249   4.518
 5508SOL    HW216983   4.854   1.402   4.537
 5509SOL     OW16984   4.043   0.810   4.673
 5509SOL    HW116985   4.136   0.846   4.678
 5509SOL    HW216986   4.037   0.725   4.725
 5510SOL     OW16987   4.063   0.509   4.730
 5510SOL    HW116988   4.011   0.426   4.713
 5510SOL    HW216989   4.140   0.514   4.666
 5511SOL     OW16990   4.862   0.380   5.402
 5511SOL    HW116991   4.817   0.443   5.466
 5511SOL    HW216992   4.955   0.411   5.385
 5512SOL     OW16993   4.884   0.207   5.201
 5512SOL    HW116994   4.884   0.271   5.278
 5512SOL    HW216995   4.912   0.255   5.118
 5513SOL     OW16996   3.732   1.326   3.924
 5513SOL    HW116997   3.639   1.347   3.893
 5513SOL    HW216998   3.742   1.227   3.937
 5514SOL     OW16999   3.812   1.801   4.651
 5514SOL    HW117000   3.770   1.715   4.624
 5514SOL    HW217001   3.906   1.804   4.617
 5515SOL     OW17002   4.228   1.568   4.634
 5515SOL    HW117003   4.294   1.642   4.643
 5515SOL    HW217004   4.272   1.489   4.592
 5516SOL     OW17005   4.726   0.796   4.962
 5516SOL    HW117006   4.767   0.764   5.048
 5516SOL    HW217007   4.630   0.769   4.959
 5517SOL     OW17008   3.764   0.544   4.838
 5517SOL    HW117009   3.849   0.511   4.797
 5517SOL    HW217010   3.777   0.559   4.936
 5518SOL     OW17011   3.913   0.520   5.446
 5518SOL    HW117012   3.972   0.480   5.376
 5518SOL    HW217013   3.855   0.591   5.405
 5519SOL     OW17014   5.093   0.950   5.384
 5519SOL    HW117015   5.132   1.039   5.404
 5519SOL    HW217016   5.103   0.930   5.287
 5520SOL     OW17017   4.539   0.572   4.049
 5520SOL    HW117018   4.546   0.483   4.003
 5520SOL    HW217019   4.445   0.606   4.041
 5521SOL     OW17020   3.976   1.564   5.468
 5521SOL    HW117021   3.946   1.621   5.544
 5521SOL    HW217022   3.969   1.467   5.494
 5522SOL     OW17023   4.395   0.464   4.993
 5522SOL    HW117024   4.361   0.375   4.963
 5522SOL    HW217025   4.421   0.518   4.913
 5523SOL     OW17026   4.654   1.678   5.189
 5523SOL    HW117027   4.630   1.660   5.094
 5523SOL    HW217028   4.684   1.772   5.199
 5524SOL     OW17029   4.197   0.500   3.915
 5524SOL    HW117030   4.258   0.580   3.919
 5524SOL    HW217031   4.102   0.531   3.922
 5525SOL     OW17032   3.883   1.137   5.190
 5525SOL    HW117033   3.905   1.076   5.266
 5525SOL    HW217034   3.893   1.088   5.104
 5526SOL     OW17035   5.071   1.059   4.958
 5526SOL    HW117036   5.095   0.996   4.884
 5526SOL    HW217037   4.981   1.099   4.940
 5527SOL     OW17038   5.026   0.855   4.033
 5527SOL    HW117039   4.940   0.824   4.075
 5527SOL    HW217040   5.022   0.841   3.934
 5528SOL     OW17041   4.976   1.731   4.852
 5528SOL    HW117042   5.060   1.736   4.798
 5528SOL    HW217043   4.953   1.635   4.870
 5529SOL     OW17044   3.807   1.258   4.746
 5529SOL    HW117045   3.802   1.257   4.846
 5529SOL    HW217046   3.724   1.217   4.708
 5530SOL     OW17047   4.412   1.662   5.440
 5530SOL    HW117048   4.356   1.743   5.449
 5530SOL    HW217049   4.464   1.666   5.354
 5531SOL     OW17050   5.112   1.573   4.201
 5531SOL    HW117051   5.179   1.585   4.127
 5531SOL    HW217052   5.072   1.662   4.224
 5532SOL     OW17053   3.854   1.794   5.575
 5532SOL    HW117054   3.813   1.720   5.628
 5532SOL    HW217055   3.918   1.845   5.633
 5533SOL     OW17056   5.004   0.927   4.396
 5533SOL    HW117057   5.064   0.846   4.398
 5533SOL    HW217058   5.044   0.996   4.336
 5534SOL     OW17059   4.554   1.273   5.146
 5534SOL    HW117060   4.549   1.306   5.241
 5534SOL    HW217061   4.468   1.292   5.100
 5535SOL     OW17062   4.396   1.616   3.878
 5535SOL    HW117063   4.405   1.626   3.779
 5535SOL    HW217064   4.356   1.527   3.899
 5536SOL     OW17065   3.987   0.326   4.444
 5536SOL    HW117066   3.908   0.377   4.410
 5536SOL    HW217067   3.978   0.311   4.542
 5537SOL     OW17068   4.918   1.612   3.755
 5537SOL    HW117069   4.924   1.519   3.792
 5537SOL    HW217070   4.859   1.612   3.675
 5538SOL     OW17071   4.546   1.002   5.096
 5538SOL    HW117072   4.586   1.001   5.004
 5538SOL    HW217073   4.556   1.094   5.136
 5539SOL     OW17074   4.640   0.910   4.015
 5539SOL    HW117075   4.703   0.948   3.947
 5539SOL    HW217076   4.680   0.827   4.054
 5540SOL     OW17077   4.096   1.288   5.214
 5540SOL    HW117078   4.083   1.381   5.180
 5540SOL    HW217079   4.012   1.236   5.201
 5541SOL     OW17080   4.763   1.098   4.420
 5541SOL    HW117081   4.693   1.051   4.474
 5541SOL    HW217082   4.822   1.030   4.377
 5542SOL     OW17083   4.738   0.236   4.695
 5542SOL    HW117084   4.730   0.200   4.602
 5542SOL    HW217085   4.736   0.160   4.760
 5543SOL     OW17086   4.314   1.487   4.215
 5543SOL    HW117087   4.356   1.429   4.145
 5543SOL    HW217088   4.270   1.566   4.171
 5544SOL     OW17089   3.979   1.348   4.014
 5544SOL    HW117090   3.883   1.349   3.987
 5544SOL    HW217091   3.991   1.401   4.098
 5545SOL     OW17092   3.829   1.013   5.450
 5545SOL    HW117093   3.752   0.980   5.504
 5545SOL    HW217094   3.914   0.983   5.492
 5546SOL     OW17095   4.396   0.203   5.213
 5546SOL    HW117096   4.486   0.187   5.173
 5546SOL    HW217097   4.404   0.208   5.312
 5547SOL     OW17098   3.799   0.345   3.757
 5547SOL    HW117099   3.707   0.317   3.728
 5547SOL    HW217100   3.830   0.422   3.701
 5548SOL     OW17101   5.164   0.856   5.122
 5548SOL    HW117102   5.107   0.908   5.059
 5548SOL    HW217103   5.260   0.868   5.098
 5549SOL     OW17104   3.796   0.166   4.042
 5549SOL    HW117105   3.779   0.249   3.988
 5549SOL    HW217106   3.886   0.129   4.020
 5550SOL     OW17107   4.907   1.335   3.843
 5550SOL    HW117108   4.808   1.324   3.845
 5550SOL    HW217109   4.941   1.350   3.936
 5551SOL     OW17110   4.337   0.842   5.155
 5551SOL    HW117111   4.393   0.923   5.138
 5551SOL    HW217112   4.396   0.762   5.158
 5552SOL     OW17113   4.440   0.565   5.432
 5552SOL    HW117114   4.459   0.630   5.506
 5552SOL    HW217115   4.500   0.485   5.441
 5553SOL     OW17116   5.174   1.220   5.357
 5553SOL    HW117117   5.165   1.210   5.456
 5553SOL    HW217118   5.270   1.213   5.331
 5554SOL     OW17119   4.114   1.741   5.284
 5554SOL    HW117120   4.023   1.782   5.282
 5554SOL    HW217121   4.107   1.647   5.316
 5555SOL     OW17122   4.949   0.325   4.173
 5555SOL    HW117123   5.014   0.251   4.162
 5555SOL    HW217124   4.969   0.375   4.257
 5556SOL     OW17125   4.318   0.745   4.376
 5556SOL    HW117126   4.368   0.830   4.357
 5556SOL    HW217127   4.230   0.747   4.328
 5557SOL     OW17128   4.583   1.374   3.740
 5557SOL    HW117129   4.537   1.389   3.828
 5557SOL    HW217130   4.627   1.459   3.710
 5558SOL     OW17131   4.385   1.790   4.677
 5558SOL    HW117132   4.339   1.878   4.664
 5558SOL    HW217133   4.484   1.802   4.670
 5559SOL     OW17134   4.583   0.956   4.585
 5559SOL    HW117135   4.637   0.887   4.633
 5559SOL    HW217136   4.551   1.025   4.651
 5560SOL     OW17137   4.807   0.984   3.811
 5560SOL    HW117138   4.784   1.037   3.729
 5560SOL    HW217139   4.888   0.928   3.792
 5561SOL     OW17140   3.945   1.314   5.568
 5561SOL    HW117141   3.880   1.241   5.547
 5561SOL    HW217142   3.949   1.328   5.666
 5562SOL     OW17143   3.803   1.240   4.377
 5562SOL    HW117144   3.802   1.193   4.465
 5562SOL    HW217145   3.885   1.212   4.326
 5563SOL     OW17146   4.396   1.391   5.348
 5563SOL    HW117147   4.318   1.341   5.386
 5563SOL    HW217148   4.393   1.486   5.379
 5564SOL     OW17149   4.152   0.424   4.244
 5564SOL    HW117150   4.182   0.352   4.182
 5564SOL    HW217151   4.113   0.384   4.327
 5565SOL     OW17152   5.429   1.487   4.828
 5565SOL    HW117153   5.336   1.462   4.801
 5565SOL    HW217154   5.455   1.437   4.910
 5566SOL     OW17155   4.041   0.547   5.004
 5566SOL    HW117156   4.079   0.488   5.076
 5566SOL    HW217157   4.081   0.521   4.916
 5567SOL     OW17158   4.536   1.586   4.411
 5567SOL    HW117159   4.568   1.596   4.317
 5567SOL    HW217160   4.457   1.524   4.413
 5568SOL     OW17161   5.148   0.214   4.836
 5568SOL    HW117162   5.200   0.149   4.891
 5568SOL    HW217163   5.099   0.277   4.897
 5569SOL     OW17164   4.725   0.034   4.878
 5569SOL    HW117165   4.662  -0.038   4.847
 5569SOL    HW217166   4.818  -0.002   4.878
 5570SOL     OW17167   4.494   1.330   4.025
 5570SOL    HW117168   4.448   1.243   4.042
 5570SOL    HW217169   4.585   1.327   4.066
 5571SOL     OW17170   4.342   1.567   5.008
 5571SOL    HW117171   4.337   1.649   5.065
 5571SOL    HW217172   4.431   1.564   4.963
 5572SOL     OW17173   5.076   0.052   3.892
 5572SOL    HW117174   5.111   0.011   3.808
 5572SOL    HW217175   4.986   0.014   3.912
 5573SOL     OW17176   5.024   0.453   4.415
 5573SOL    HW117177   4.965   0.533   4.419
 5573SOL    HW217178   5.039   0.418   4.508
 5574SOL     OW17179   5.317   0.221   4.606
 5574SOL    HW117180   5.233   0.220   4.660
 5574SOL    HW217181   5.319   0.304   4.550
 5575SOL     OW17182   3.763   1.077   4.024
 5575SOL    HW117183   3.862   1.066   4.015
 5575SOL    HW217184   3.723   0.991   4.056
 5576SOL     OW17185   4.599   1.646   4.061
 5576SOL    HW117186   4.522   1.611   4.007
 5576SOL    HW217187   4.567   1.717   4.123
 5577SOL     OW17188   3.954   0.628   5.699
 5577SOL    HW117189   3.861   0.626   5.736
 5577SOL    HW217190   3.955   0.589   5.607
 5578SOL     OW17191   3.949   0.275   6.582
 5578SOL    HW117192   3.984   0.258   6.674
 5578SOL    HW217193   3.861   0.230   6.570
 5579SOL     OW17194   3.743   0.368   6.233
 5579SOL    HW117195   3.661   0.411   6.272
 5579SOL    HW217196   3.715   0.295   6.170
 5580SOL     OW17197   4.293   1.275   6.751
 5580SOL    HW117198   4.200   1.268   6.714
 5580SOL    HW217199   4.304   1.364   6.795
 5581SOL     OW17200   5.279   1.511   6.289
 5581SOL    HW117201   5.222   1.495   6.370
 5581SOL    HW217202   5.220   1.521   6.209
 5582SOL     OW17203   4.859   0.703   6.303
 5582SOL    HW117204   4.916   0.781   6.278
 5582SOL    HW217205   4.799   0.729   6.379
 5583SOL     OW17206   4.492   1.144   6.609
 5583SOL    HW117207   4.414   1.161   6.669
 5583SOL    HW217208   4.526   1.231   6.573
 5584SOL     OW17209   4.574   0.798   7.409
 5584SOL    HW117210   4.570   0.874   7.474
 5584SOL    HW217211   4.596   0.834   7.318
 5585SOL     OW17212   4.409   1.012   6.251
 5585SOL    HW117213   4.478   0.996   6.321
 5585SOL    HW217214   4.336   1.069   6.289
 5586SOL     OW17215   4.410   1.161   7.389
 5586SOL    HW117216   4.470   1.240   7.403
 5586SOL    HW217217   4.324   1.192   7.348
 5587SOL     OW17218   4.059   1.435   6.647
 5587SOL    HW117219   3.981   1.404   6.594
 5587SOL    HW217220   4.117   1.493   6.590
 5588SOL     OW17221   5.184   1.505   6.925
 5588SOL    HW117222   5.208   1.599   6.951
 5588SOL    HW217223   5.168   1.451   7.007
 5589SOL     OW17224   4.162   0.392   7.085
 5589SOL    HW117225   4.244   0.336   7.094
 5589SOL    HW217226   4.081   0.334   7.089
 5590SOL     OW17227   3.955   1.713   6.069
 5590SOL    HW117228   3.989   1.790   6.123
 5590SOL    HW217229   3.999   1.713   5.979
 5591SOL     OW17230   4.851   1.341   7.276
 5591SOL    HW117231   4.898   1.341   7.364
 5591SOL    HW217232   4.803   1.254   7.265
 5592SOL     OW17233   3.954   1.434   6.124
 5592SOL    HW117234   3.928   1.530   6.124
 5592SOL    HW217235   3.883   1.380   6.169
 5593SOL     OW17236   3.964   1.091   6.472
 5593SOL    HW117237   3.978   1.007   6.524
 5593SOL    HW217238   3.909   1.155   6.527
 5594SOL     OW17239   4.344   1.786   7.025
 5594SOL    HW117240   4.252   1.769   7.060
 5594SOL    HW217241   4.372   1.878   7.051
 5595SOL     OW17242   4.330   0.964   5.709
 5595SOL    HW117243   4.337   1.048   5.655
 5595SOL    HW217244   4.376   0.977   5.797
 5596SOL     OW17245   5.318   0.114   7.066
 5596SOL    HW117246   5.300   0.181   6.994
 5596SOL    HW217247   5.315   0.160   7.155
 5597SOL     OW17248   3.846   0.643   6.149
 5597SOL    HW117249   3.801   0.555   6.166
 5597SOL    HW217250   3.845   0.697   6.233
 5598SOL     OW17251   3.751   1.596   5.703
 5598SOL    HW117252   3.732   1.500   5.724
 5598SOL    HW217253   3.718   1.654   5.778
 5599SOL     OW17254   5.413   0.922   6.198
 5599SOL    HW117255   5.508   0.893   6.206
 5599SOL    HW217256   5.405   0.987   6.123
 5600SOL     OW17257   3.837   0.737   7.183
 5600SOL    HW117258   3.925   0.724   7.228
 5600SOL    HW217259   3.824   0.834   7.161
 5601SOL     OW17260   4.337   1.365   6.312
 5601SOL    HW117261   4.288   1.278   6.321
 5601SOL    HW217262   4.314   1.408   6.225
 5602SOL     OW17263   5.017   1.228   7.009
 5602SOL    HW117264   5.054   1.155   6.951
 5602SOL    HW217265   5.069   1.233   7.094
 5603SOL     OW17266   4.533   0.004   6.088
 5603SOL    HW117267   4.573   0.095   6.079
 5603SOL    HW217268   4.433   0.012   6.094
 5604SOL     OW17269   3.921   0.976   6.850
 5604SOL    HW117270   4.010   0.931   6.836
 5604SOL    HW217271   3.848   0.911   6.831
 5605SOL     OW17272   4.911   1.792   7.202
 5605SOL    HW117273   4.935   1.852   7.126
 5605SOL    HW217274   4.918   1.697   7.172
 5606SOL     OW17275   4.041   0.251   7.387
 5606SOL    HW117276   4.112   0.322   7.393
 5606SOL    HW217277   3.953   0.290   7.415
 5607SOL     OW17278   5.190   1.417   6.539
 5607SOL    HW117279   5.131   1.423   6.619
 5607SOL    HW217280   5.175   1.329   6.493
 5608SOL     OW17281   4.322   0.729   5.856
 5608SOL    HW117282   4.346   0.798   5.788
 5608SOL    HW217283   4.244   0.762   5.910
 5609SOL     OW17284   5.005   0.345   6.530
 5609SOL    HW117285   4.919   0.295   6.517
 5609SOL    HW217286   5.067   0.291   6.586
 5610SOL     OW17287   4.531   0.605   7.051
 5610SOL    HW117288   4.484   0.602   7.140
 5610SOL    HW217289   4.480   0.550   6.985
 5611SOL     OW17290   5.118   0.469   7.260
 5611SOL    HW117291   5.098   0.512   7.348
 5611SOL    HW217292   5.196   0.407   7.269
 5612SOL     OW17293   4.697   0.890   7.158
 5612SOL    HW117294   4.743   0.806   7.129
 5612SOL    HW217295   4.641   0.924   7.083
 5613SOL     OW17296   4.715   0.410   6.828
 5613SOL    HW117297   4.638   0.444   6.882
 5613SOL    HW217298   4.681   0.359   6.749
 5614SOL     OW17299   4.765   0.701   6.015
 5614SOL    HW117300   4.791   0.697   6.111
 5614SOL    HW217301   4.680   0.650   6.001
 5615SOL     OW17302   3.800   0.811   6.375
 5615SOL    HW117303   3.899   0.799   6.384
 5615SOL    HW217304   3.776   0.906   6.396
 5616SOL     OW17305   3.854   1.821   7.157
 5616SOL    HW117306   3.844   1.806   7.256
 5616SOL    HW217307   3.768   1.857   7.121
 5617SOL     OW17308   4.589   0.348   5.781
 5617SOL    HW117309   4.648   0.411   5.732
 5617SOL    HW217310   4.608   0.254   5.752
 5618SOL     OW17311   5.086   1.144   6.131
 5618SOL    HW117312   5.169   1.115   6.083
 5618SOL    HW217313   5.037   1.211   6.075
 5619SOL     OW17314   4.274   0.196   6.471
 5619SOL    HW117315   4.269   0.191   6.571
 5619SOL    HW217316   4.276   0.292   6.442
 5620SOL     OW17317   4.732   1.456   6.063
 5620SOL    HW117318   4.686   1.528   6.011
 5620SOL    HW217319   4.728   1.476   6.161
 5621SOL     OW17320   4.075   1.801   6.439
 5621SOL    HW117321   4.125   1.715   6.445
 5621SOL    HW217322   4.140   1.878   6.436
 5622SOL     OW17323   4.951   1.550   7.092
 5622SOL    HW117324   4.957   1.473   7.156
 5622SOL    HW217325   4.899   1.524   7.012
 5623SOL     OW17326   4.045   0.943   5.828
 5623SOL    HW117327   4.127   0.982   5.786
 5623SOL    HW217328   4.018   0.861   5.779
 5624SOL     OW17329   4.185   1.266   7.313
 5624SOL    HW117330   4.135   1.267   7.227
 5624SOL    HW217331   4.122   1.248   7.389
 5625SOL     OW17332   4.835   1.776   5.823
 5625SOL    HW117333   4.775   1.714   5.873
 5625SOL    HW217334   4.866   1.732   5.738
 5626SOL     OW17335   3.926   0.285   7.084
 5626SOL    HW117336   3.846   0.345   7.071
 5626SOL    HW217337   3.916   0.236   7.170
 5627SOL     OW17338   4.188   1.743   5.909
 5627SOL    HW117339   4.221   1.782   5.995
 5627SOL    HW217340   4.264   1.736   5.844
 5628SOL     OW17341   5.124   0.107   6.012
 5628SOL    HW117342   5.100   0.070   5.922
 5628SOL    HW217343   5.223   0.123   6.016
 5629SOL     OW17344   3.973   1.785   6.827
 5629SOL    HW117345   4.030   1.720   6.877
 5629SOL    HW217346   3.957   1.752   6.734
 5630SOL     OW17347   4.664   1.698   6.490
 5630SOL    HW117348   4.744   1.641   6.511
 5630SOL    HW217349   4.615   1.658   6.413
 5631SOL     OW17350   4.106   0.700   6.066
 5631SOL    HW117351   4.151   0.610   6.063
 5631SOL    HW217352   4.012   0.689   6.099
 5632SOL     OW17353   4.338   0.122   5.703
 5632SOL    HW117354   4.436   0.100   5.710
 5632SOL    HW217355   4.307   0.105   5.610
 5633SOL     OW17356   4.505   0.264   7.335
 5633SOL    HW117357   4.572   0.203   7.378
 5633SOL    HW217358   4.432   0.283   7.400
 5634SOL     OW17359   4.612   1.514   6.781
 5634SOL    HW117360   4.589   1.489   6.687
 5634SOL    HW217361   4.673   1.445   6.820
 5635SOL     OW17362   5.075   0.590   7.019
 5635SOL    HW117363   5.103   0.547   7.104
 5635SOL    HW217364   5.100   0.686   7.020
 5636SOL     OW17365   4.527   1.402   6.510
 5636SOL    HW117366   4.617   1.416   6.468
 5636SOL    HW217367   4.456   1.404   6.439
 5637SOL     OW17368   4.646   0.503   6.485
 5637SOL    HW117369   4.621   0.494   6.389
 5637SOL    HW217370   4.694   0.421   6.516
 5638SOL     OW17371   4.263   0.064   6.098
 5638SOL    HW117372   4.182   0.065   6.156
 5638SOL    HW217373   4.266   0.147   6.043
 5639SOL     OW17374   5.158   1.188   5.627
 5639SOL    HW117375   5.190   1.112   5.684
 5639SOL    HW217376   5.066   1.215   5.657
 5640SOL     OW17377   4.021   0.035   5.757
 5640SOL    HW117378   4.070   0.119   5.736
 5640SOL    HW217379   4.083  -0.030   5.802
 5641SOL     OW17380   4.659   0.236   6.066
 5641SOL    HW117381   4.611   0.277   5.988
 5641SOL    HW217382   4.758   0.234   6.047
 5642SOL     OW17383   4.800   0.683   7.050
 5642SOL    HW117384   4.720   0.622   7.053
 5642SOL    HW217385   4.881   0.630   7.026
 5643SOL     OW17386   4.951   1.570   6.379
 5643SOL    HW117387   4.972   1.644   6.314
 5643SOL    HW217388   5.019   1.570   6.452
 5644SOL     OW17389   4.183   1.152   6.327
 5644SOL    HW117390   4.112   1.125   6.392
 5644SOL    HW217391   4.157   1.124   6.234
 5645SOL     OW17392   4.995   1.797   6.177
 5645SOL    HW117393   5.039   1.861   6.113
 5645SOL    HW217394   4.945   1.849   6.247
 5646SOL     OW17395   4.756   0.549   5.602
 5646SOL    HW117396   4.715   0.631   5.563
 5646SOL    HW217397   4.820   0.575   5.675
 5647SOL     OW17398   3.802   0.556   6.972
 5647SOL    HW117399   3.894   0.555   6.931
 5647SOL    HW217400   3.796   0.630   7.039
 5648SOL     OW17401   4.285   0.222   6.733
 5648SOL    HW117402   4.323   0.138   6.770
 5648SOL    HW217403   4.197   0.241   6.777
 5649SOL     OW17404   4.590   0.454   6.228
 5649SOL    HW117405   4.558   0.526   6.166
 5649SOL    HW217406   4.614   0.373   6.175
 5650SOL     OW17407   4.741   0.039   6.339
 5650SOL    HW117408   4.669   0.044   6.270
 5650SOL    HW217409   4.717  -0.030   6.408
 5651SOL     OW17410   5.153   1.173   6.453
 5651SOL    HW117411   5.098   1.089   6.446
 5651SOL    HW217412   5.179   1.202   6.361
 5652SOL     OW17413   4.212   1.385   5.760
 5652SOL    HW117414   4.125   1.370   5.807
 5652SOL    HW217415   4.195   1.411   5.665
 5653SOL     OW17416   5.114   0.575   5.664
 5653SOL    HW117417   5.060   0.554   5.745
 5653SOL    HW217418   5.205   0.534   5.673
 5654SOL     OW17419   4.251   0.256   5.914
 5654SOL    HW117420   4.278   0.197   5.839
 5654SOL    HW217421   4.251   0.351   5.883
 5655SOL     OW17422   4.788   1.347   6.926
 5655SOL    HW117423   4.708   1.324   6.981
 5655SOL    HW217424   4.871   1.321   6.975
 5656SOL     OW17425   5.316   1.629   7.211
 5656SOL    HW117426   5.343   1.663   7.121
 5656SOL    HW217427   5.395   1.591   7.257
 5657SOL     OW17428   4.835   1.195   6.686
 5657SOL    HW117429   4.795   1.239   6.767
 5657SOL    HW217430   4.794   1.232   6.603
 5658SOL     OW17431   4.639   0.089   6.988
 5658SOL    HW117432   4.664   0.069   6.893
 5658SOL    HW217433   4.711   0.145   7.030
 5659SOL     OW17434   4.704   1.116   7.305
 5659SOL    HW117435   4.605   1.122   7.315
 5659SOL    HW217436   4.727   1.036   7.249
 5660SOL     OW17437   4.429   1.050   5.954
 5660SOL    HW117438   4.415   1.057   6.053
 5660SOL    HW217439   4.513   0.999   5.936
 5661SOL     OW17440   4.134   0.813   6.837
 5661SOL    HW117441   4.220   0.825   6.887
 5661SOL    HW217442   4.092   0.726   6.864
 5662SOL     OW17443   4.998   0.386   6.848
 5662SOL    HW117444   5.019   0.460   6.912
 5662SOL    HW217445   4.909   0.403   6.805
 5663SOL     OW17446   3.788   1.564   6.917
 5663SOL    HW117447   3.742   1.646   6.883
 5663SOL    HW217448   3.886   1.583   6.926
 5664SOL     OW17449   4.091   1.100   6.087
 5664SOL    HW117450   4.084   1.183   6.031
 5664SOL    HW217451   4.095   1.020   6.027
 5665SOL     OW17452   4.290   0.537   6.451
 5665SOL    HW117453   4.302   0.603   6.377
 5665SOL    HW217454   4.336   0.571   6.534
 5666SOL     OW17455   4.976   1.348   5.974
 5666SOL    HW117456   5.026   1.425   6.014
 5666SOL    HW217457   4.881   1.350   6.006
 5667SOL     OW17458   4.996   1.445   6.728
 5667SOL    HW117459   5.043   1.458   6.815
 5667SOL    HW217460   4.930   1.371   6.737
 5668SOL     OW17461   4.078   1.510   6.915
 5668SOL    HW117462   4.057   1.466   6.828
 5668SOL    HW217463   4.175   1.536   6.918
 5669SOL     OW17464   4.126   0.751   7.184
 5669SOL    HW117465   4.194   0.806   7.137
 5669SOL    HW217466   4.166   0.663   7.211
 5670SOL     OW17467   4.737   0.105   7.356
 5670SOL    HW117468   4.743   0.190   7.304
 5670SOL    HW217469   4.769   0.029   7.299
 5671SOL     OW17470   4.228   0.050   7.326
 5671SOL    HW117471   4.186  -0.007   7.256
 5671SOL    HW217472   4.162   0.119   7.358
 5672SOL     OW17473   4.297   0.870   6.615
 5672SOL    HW117474   4.341   0.959   6.606
 5672SOL    HW217475   4.234   0.870   6.692
 5673SOL     OW17476   5.084   0.862   6.631
 5673SOL    HW117477   5.009   0.862   6.565
 5673SOL    HW217478   5.121   0.770   6.640
 5674SOL     OW17479   4.933   0.525   5.861
 5674SOL    HW117480   4.946   0.441   5.915
 5674SOL    HW217481   4.904   0.599   5.921
 5675SOL     OW17482   4.031   0.213   6.817
 5675SOL    HW117483   4.008   0.250   6.907
 5675SOL    HW217484   4.001   0.118   6.811
 5676SOL     OW17485   3.761   1.310   6.868
 5676SOL    HW117486   3.814   1.261   6.936
 5676SOL    HW217487   3.783   1.408   6.873
 5677SOL     OW17488   4.456   0.634   6.650
 5677SOL    HW117489   4.515   0.608   6.574
 5677SOL    HW217490   4.428   0.730   6.639
 5678SOL     OW17491   4.031   0.063   6.204
 5678SOL    HW117492   4.020   0.157   6.237
 5678SOL    HW217493   4.026   0.000   6.281
 5679SOL     OW17494   5.346   0.367   5.960
 5679SOL    HW117495   5.348   0.291   6.024
 5679SOL    HW217496   5.298   0.444   6.000
 5680SOL     OW17497   4.747   0.766   6.552
 5680SOL    HW117498   4.762   0.787   6.648
 5680SOL    HW217499   4.717   0.671   6.543
 5681SOL     OW17500   4.704   1.573   7.286
 5681SOL    HW117501   4.684   1.617   7.198
 5681SOL    HW217502   4.743   1.482   7.270
 5682SOL     OW17503   4.074   0.898   7.390
 5682SOL    HW117504   4.150   0.942   7.438
 5682SOL    HW217505   4.109   0.851   7.308
 5683SOL     OW17506   5.027   0.838   5.628
 5683SOL    HW117507   5.061   0.745   5.643
 5683SOL    HW217508   5.045   0.865   5.533
 5684SOL     OW17509   4.792   1.333   6.435
 5684SOL    HW117510   4.799   1.249   6.380
 5684SOL    HW217511   4.854   1.402   6.399
 5685SOL     OW17512   4.043   0.810   6.535
 5685SOL    HW117513   4.136   0.846   6.540
 5685SOL    HW217514   4.037   0.725   6.587
 5686SOL     OW17515   4.063   0.509   6.592
 5686SOL    HW117516   4.011   0.426   6.575
 5686SOL    HW217517   4.140   0.514   6.528
 5687SOL     OW17518   4.862   0.380   7.264
 5687SOL    HW117519   4.817   0.443   7.328
 5687SOL    HW217520   4.955   0.411   7.247
 5688SOL     OW17521   4.884   0.207   7.063
 5688SOL    HW117522   4.884   0.271   7.140
 5688SOL    HW217523   4.912   0.255   6.980
 5689SOL     OW17524   3.732   1.326   5.786
 5689SOL    HW117525   3.639   1.347   5.755
 5689SOL    HW217526   3.742   1.227   5.799
 5690SOL     OW17527   3.812   1.801   6.513
 5690SOL    HW117528   3.770   1.715   6.486
 5690SOL    HW217529   3.906   1.804   6.479
 5691SOL     OW17530   4.228   1.568   6.496
 5691SOL    HW117531   4.294   1.642   6.505
 5691SOL    HW217532   4.272   1.489   6.454
 5692SOL     OW17533   4.726   0.796   6.824
 5692SOL    HW117534   4.767   0.764   6.910
 5692SOL    HW217535   4.630   0.769   6.821
 5693SOL     OW17536   3.764   0.544   6.700
 5693SOL    HW117537   3.849   0.511   6.659
 5693SOL    HW217538   3.777   0.559   6.798
 5694SOL     OW17539   3.913   0.520   7.308
 5694SOL    HW117540   3.972   0.480   7.238
 5694SOL    HW217541   3.855   0.591   7.267
 5695SOL     OW17542   5.093   0.950   7.246
 5695SOL    HW117543   5.132   1.039   7.266
 5695SOL    HW217544   5.103   0.930   7.149
 5696SOL     OW17545   4.539   0.572   5.911
 5696SOL    HW117546   4.546   0.483   5.865
 5696SOL    HW217547   4.445   0.606   5.903
 5697SOL     OW17548   3.976   1.564   7.330
 5697SOL    HW117549   3.946   1.621   7.406
 5697SOL    HW217550   3.969   1.467   7.356
 5698SOL     OW17551   4.395   0.464   6.855
 5698SOL    HW117552   4.361   0.375   6.825
 5698SOL    HW217553   4.421   0.518   6.775
 5699SOL     OW17554   4.654   1.678   7.051
 5699SOL    HW117555   4.630   1.660   6.956
 5699SOL    HW217556   4.684   1.772   7.061
 5700SOL     OW17557   4.197   0.500   5.777
 5700SOL    HW117558   4.258   0.580   5.781
 5700SOL    HW217559   4.102   0.531   5.784
 5701SOL     OW17560   3.883   1.137   7.052
 5701SOL    HW117561   3.905   1.076   7.128
 5701SOL    HW217562   3.893   1.088   6.966
 5702SOL     OW17563   5.071   1.059   6.820
 5702SOL    HW117564   5.095   0.996   6.746
 5702SOL    HW217565   4.981   1.099   6.802
 5703SOL     OW17566   5.026   0.855   5.895
 5703SOL    HW117567   4.940   0.824   5.937
 5703SOL    HW217568   5.022   0.841   5.796
 5704SOL     OW17569   4.976   1.731   6.714
 5704SOL    HW117570   5.060   1.736   6.660
 5704SOL    HW217571   4.953   1.635   6.732
 5705SOL     OW17572   3.807   1.258   6.608
 5705SOL    HW117573   3.802   1.257   6.708
 5705SOL    HW217574   3.724   1.217   6.570
 5706SOL     OW17575   4.412   1.662   7.302
 5706SOL    HW117576   4.356   1.743   7.311
 5706SOL    HW217577   4.464   1.666   7.216
 5707SOL     OW17578   5.112   1.573   6.063
 5707SOL    HW117579   5.179   1.585   5.989
 5707SOL    HW217580   5.072   1.662   6.086
 5708SOL     OW17581   3.854   1.794   7.437
 5708SOL    HW117582   3.813   1.720   7.490
 5708SOL    HW217583   3.918   1.845   7.495
 5709SOL     OW17584   5.004   0.927   6.258
 5709SOL    HW117585   5.064   0.846   6.260
 5709SOL    HW217586   5.044   0.996   6.198
 5710SOL     OW17587   4.554   1.273   7.008
 5710SOL    HW117588   4.549   1.306   7.103
 5710SOL    HW217589   4.468   1.292   6.962
 5711SOL     OW17590   4.396   1.616   5.740
 5711SOL    HW117591   4.405   1.626   5.641
 5711SOL    HW217592   4.356   1.527   5.761
 5712SOL     OW17593   3.987   0.326   6.306
 5712SOL    HW117594   3.908   0.377   6.272
 5712SOL    HW217595   3.978   0.311   6.404
 5713SOL     OW17596   4.918   1.612   5.617
 5713SOL    HW117597   4.924   1.519   5.654
 5713SOL    HW217598   4.859   1.612   5.537
 5714SOL     OW17599   4.546   1.002   6.958
 5714SOL    HW117600   4.586   1.001   6.866
 5714SOL    HW217601   4.556   1.094   6.998
 5715SOL     OW17602   4.640   0.910   5.877
 5715SOL    HW117603   4.703   0.948   5.809
 5715SOL    HW217604   4.680   0.827   5.916
 5716SOL     OW17605   4.096   1.288   7.076
 5716SOL    HW117606   4.083   1.381   7.042
 5716SOL    HW217607   4.012   1.236   7.063
 5717SOL     OW17608   4.763   1.098   6.282
 5717SOL    HW117609   4.693   1.051   6.336
 5717SOL    HW217610   4.822   1.030   6.239
 5718SOL     OW17611   4.738   0.236   6.557
 5718SOL    HW117612   4.730   0.200   6.464
 5718SOL    HW217613   4.736   0.160   6.622
 5719SOL     OW17614   4.314   1.487   6.077
 5719SOL    HW117615   4.356   1.429   6.007
 5719SOL    HW217616   4.270   1.566   6.033
 5720SOL     OW17617   3.979   1.348   5.876
 5720SOL    HW117618   3.883   1.349   5.849
 5720SOL    HW217619   3.991   1.401   5.960
 5721SOL     OW17620   3.829   1.013   7.312
 5721SOL    HW117621   3.752   0.980   7.366
 5721SOL    HW217622   3.914   0.983   7.354
 5722SOL     OW17623   4.396   0.203   7.075
 5722SOL    HW117624   4.486   0.187   7.035
 5722SOL    HW217625   4.404   0.208   7.174
 5723SOL     OW17626   3.799   0.345   5.619
 5723SOL    HW117627   3.707   0.317   5.590
 5723SOL    HW217628   3.830   0.422   5.563
 5724SOL     OW17629   5.164   0.856   6.984
 5724SOL    HW117630   5.107   0.908   6.921
 5724SOL    HW217631   5.260   0.868   6.960
 5725SOL     OW17632   3.796   0.166   5.904
 5725SOL    HW117633   3.779   0.249   5.850
 5725SOL    HW217634   3.886   0.129   5.882
 5726SOL     OW17635   4.907   1.335   5.705
 5726SOL    HW117636   4.808   1.324   5.707
 5726SOL    HW217637   4.941   1.350   5.798
 5727SOL     OW17638   4.337   0.842   7.017
 5727SOL    HW117639   4.393   0.923   7.000
 5727SOL    HW217640   4.396   0.762   7.020
 5728SOL     OW17641   4.440   0.565   7.294
 5728SOL    HW117642   4.459   0.630   7.368
 5728SOL    HW217643   4.500   0.485   7.303
 5729SOL     OW17644   5.174   1.220   7.219
 5729SOL    HW117645   5.165   1.210   7.318
 5729SOL    HW217646   5.270   1.213   7.193
 5730SOL     OW17647   4.114   1.741   7.146
 5730SOL    HW117648   4.023   1.782   7.144
 5730SOL    HW217649   4.107   1.647   7.178
 5731SOL     OW17650   4.949   0.325   6.035
 5731SOL    HW117651   5.014   0.251   6.024
 5731SOL    HW217652   4.969   0.375   6.119
 5732SOL     OW17653   4.318   0.745   6.238
 5732SOL    HW117654   4.368   0.830   6.219
 5732SOL    HW217655   4.230   0.747   6.190
 5733SOL     OW17656   4.583   1.374   5.602
 5733SOL    HW117657   4.537   1.389   5.690
 5733SOL    HW217658   4.627   1.459   5.572
 5734SOL     OW17659   4.385   1.790   6.539
 5734SOL    HW117660   4.339   1.878   6.526
 5734SOL    HW217661   4.484   1.802   6.532
 5735SOL     OW17662   4.583   0.956   6.447
 5735SOL    HW117663   4.637   0.887   6.495
 5735SOL    HW217664   4.551   1.025   6.513
 5736SOL     OW17665   4.807   0.984   5.673
 5736SOL    HW117666   4.784   1.037   5.591
 5736SOL    HW217667   4.888   0.928   5.654
 5737SOL     OW17668   3.945   1.314   7.430
 5737SOL    HW117669   3.880   1.241   7.409
 5737SOL    HW217670   3.949   1.328   7.528
 5738SOL     OW17671   3.803   1.240   6.239
 5738SOL    HW117672   3.802   1.193   6.327
 5738SOL    HW217673   3.885   1.212   6.188
 5739SOL     OW17674   4.396   1.391   7.210
 5739SOL    HW117675   4.318   1.341   7.248
 5739SOL    HW217676   4.393   1.486   7.241
 5740SOL     OW17677   4.152   0.424   6.106
 5740SOL    HW117678   4.182   0.352   6.044
 5740SOL    HW217679   4.113   0.384   6.189
 5741SOL     OW17680   5.429   1.487   6.690
 5741SOL    HW117681   5.336   1.462   6.663
 5741SOL    HW217682   5.455   1.437   6.772
 5742SOL     OW17683   4.041   0.547   6.866
 5742SOL    HW117684   4.079   0.488   6.938
 5742SOL    HW217685   4.081   0.521   6.778
 5743SOL     OW17686   4.536   1.586   6.273
 5743SOL    HW117687   4.568   1.596   6.179
 5743SOL    HW217688   4.457   1.524   6.275
 5744SOL     OW17689   5.148   0.214   6.698
 5744SOL    HW117690   5.200   0.149   6.753
 5744SOL    HW217691   5.099   0.277   6.759
 5745SOL     OW17692   4.725   0.034   6.740
 5745SOL    HW117693   4.662  -0.038   6.709
 5745SOL    HW217694   4.818  -0.002   6.740
 5746SOL     OW17695   4.494   1.330   5.887
 5746SOL    HW117696   4.448   1.243   5.904
 5746SOL    HW217697   4.585   1.327   5.928
 5747SOL     OW17698   4.342   1.567   6.870
 5747SOL    HW117699   4.337   1.649   6.927
 5747SOL    HW217700   4.431   1.564   6.825
 5748SOL     OW17701   5.076   0.052   5.754
 5748SOL    HW117702   5.111   0.011   5.670
 5748SOL    HW217703   4.986   0.014   5.774
 5749SOL     OW17704   5.024   0.453   6.277
 5749SOL    HW117705   4.965   0.533   6.281
 5749SOL    HW217706   5.039   0.418   6.370
 5750SOL     OW17707   5.317   0.221   6.468
 5750SOL    HW117708   5.233   0.220   6.522
 5750SOL    HW217709   5.319   0.304   6.412
 5751SOL     OW17710   3.763   1.077   5.886
 5751SOL    HW117711   3.862   1.066   5.877
 5751SOL    HW217712   3.723   0.991   5.918
 5752SOL     OW17713   4.599   1.646   5.923
 5752SOL    HW117714   4.522   1.611   5.869
 5752SOL    HW217715   4.567   1.717   5.985
 5753SOL     OW17716   3.954   0.628   7.561
 5753SOL    HW117717   3.861   0.626   7.598
 5753SOL    HW217718   3.955   0.589   7.469
 5754SOL     OW17719   3.955   1.713   7.931
 5754SOL    HW117720   3.989   1.790   7.985
 5754SOL    HW217721   3.999   1.713   7.841
 5755SOL     OW17722   3.954   1.434   7.986
 5755SOL    HW117723   3.928   1.530   7.986
 5755SOL    HW217724   3.883   1.380   8.031
 5756SOL     OW17725   4.330   0.964   7.571
 5756SOL    HW117726   4.337   1.048   7.517
 5756SOL    HW217727   4.376   0.977   7.659
 5757SOL     OW17728   3.751   1.596   7.565
 5757SOL    HW117729   3.732   1.500   7.586
 5757SOL    HW217730   3.718   1.654   7.640
 5758SOL     OW17731   5.413   0.922   8.060
 5758SOL    HW117732   5.508   0.893   8.068
 5758SOL    HW217733   5.405   0.987   7.985
 5759SOL     OW17734   4.533   0.004   7.950
 5759SOL    HW117735   4.573   0.095   7.941
 5759SOL    HW217736   4.433   0.012   7.956
 5760SOL     OW17737   4.322   0.729   7.718
 5760SOL    HW117738   4.346   0.798   7.650
 5760SOL    HW217739   4.244   0.762   7.772
 5761SOL     OW17740   3.800   0.811   8.237
 5761SOL    HW117741   3.899   0.799   8.246
 5761SOL    HW217742   3.776   0.906   8.258
 5762SOL     OW17743   4.589   0.348   7.643
 5762SOL    HW117744   4.648   0.411   7.594
 5762SOL    HW217745   4.608   0.254   7.614
 5763SOL     OW17746   4.045   0.943   7.690
 5763SOL    HW117747   4.127   0.982   7.648
 5763SOL    HW217748   4.018   0.861   7.641
 5764SOL     OW17749   4.835   1.776   7.685
 5764SOL    HW117750   4.775   1.714   7.735
 5764SOL    HW217751   4.866   1.732   7.600
 5765SOL     OW17752   4.188   1.743   7.771
 5765SOL    HW117753   4.221   1.782   7.857
 5765SOL    HW217754   4.264   1.736   7.706
 5766SOL     OW17755   5.124   0.107   7.874
 5766SOL    HW117756   5.100   0.070   7.784
 5766SOL    HW217757   5.223   0.123   7.878
 5767SOL     OW17758   4.106   0.700   7.928
 5767SOL    HW117759   4.151   0.610   7.925
 5767SOL    HW217760   4.012   0.689   7.961
 5768SOL     OW17761   4.338   0.122   7.565
 5768SOL    HW117762   4.436   0.100   7.572
 5768SOL    HW217763   4.307   0.105   7.472
 5769SOL     OW17764   4.263   0.064   7.960
 5769SOL    HW117765   4.182   0.065   8.018
 5769SOL    HW217766   4.266   0.147   7.905
 5770SOL     OW17767   5.158   1.188   7.489
 5770SOL    HW117768   5.190   1.112   7.546
 5770SOL    HW217769   5.066   1.215   7.519
 5771SOL     OW17770   4.021   0.035   7.619
 5771SOL    HW117771   4.070   0.119   7.598
 5771SOL    HW217772   4.083  -0.030   7.664
 5772SOL     OW17773   4.659   0.236   7.928
 5772SOL    HW117774   4.611   0.277   7.850
 5772SOL    HW217775   4.758   0.234   7.909
 5773SOL     OW17776   4.183   1.152   8.189
 5773SOL    HW117777   4.112   1.125   8.254
 5773SOL    HW217778   4.157   1.124   8.096
 5774SOL     OW17779   4.995   1.797   8.039
 5774SOL    HW117780   5.039   1.861   7.975
 5774SOL    HW217781   4.945   1.849   8.109
 5775SOL     OW17782   4.756   0.549   7.464
 5775SOL    HW117783   4.715   0.631   7.425
 5775SOL    HW217784   4.820   0.575   7.537
 5776SOL     OW17785   4.212   1.385   7.622
 5776SOL    HW117786   4.125   1.370   7.669
 5776SOL    HW217787   4.195   1.411   7.527
 5777SOL     OW17788   5.114   0.575   7.526
 5777SOL    HW117789   5.060   0.554   7.607
 5777SOL    HW217790   5.205   0.534   7.535
 5778SOL     OW17791   4.251   0.256   7.776
 5778SOL    HW117792   4.278   0.197   7.701
 5778SOL    HW217793   4.251   0.351   7.745
 5779SOL     OW17794   4.429   1.050   7.816
 5779SOL    HW117795   4.415   1.057   7.915
 5779SOL    HW217796   4.513   0.999   7.798
 5780SOL     OW17797   4.091   1.100   7.949
 5780SOL    HW117798   4.084   1.183   7.893
 5780SOL    HW217799   4.095   1.020   7.889
 5781SOL     OW17800   4.976   1.348   7.836
 5781SOL    HW117801   5.026   1.425   7.876
 5781SOL    HW217802   4.881   1.350   7.868
 5782SOL     OW17803   5.306   0.639   7.920
 5782SOL    HW117804   5.275   0.700   7.993
 5782SOL    HW217805   5.356   0.691   7.851
 5783SOL     OW17806   4.933   0.525   7.723
 5783SOL    HW117807   4.946   0.441   7.777
 5783SOL    HW217808   4.904   0.599   7.783
 5784SOL     OW17809   5.346   0.367   7.822
 5784SOL    HW117810   5.348   0.291   7.886
 5784SOL    HW217811   5.298   0.444   7.862
 5785SOL     OW17812   5.027   0.838   7.490
 5785SOL    HW117813   5.061   0.745   7.505
 5785SOL    HW217814   5.045   0.865   7.395
 5786SOL     OW17815   3.732   1.326   7.648
 5786SOL    HW117816   3.639   1.347   7.617
 5786SOL    HW217817   3.742   1.227   7.661
 5787SOL     OW17818   4.539   0.572   7.773
 5787SOL    HW117819   4.546   0.483   7.727
 5787SOL    HW217820   4.445   0.606   7.765
 5788SOL     OW17821   4.197   0.500   7.639
 5788SOL    HW117822   4.258   0.580   7.643
 5788SOL    HW217823   4.102   0.531   7.646
 5789SOL     OW17824   5.026   0.855   7.757
 5789SOL    HW117825   4.940   0.824   7.799
 5789SOL    HW217826   5.022   0.841   7.658
 5790SOL     OW17827   5.112   1.573   7.925
 5790SOL    HW117828   5.179   1.585   7.851
 5790SOL    HW217829   5.072   1.662   7.948
 5791SOL     OW17830   4.396   1.616   7.602
 5791SOL    HW117831   4.405   1.626   7.503
 5791SOL    HW217832   4.356   1.527   7.623
 5792SOL     OW17833   4.918   1.612   7.479
 5792SOL    HW117834   4.924   1.519   7.516
 5792SOL    HW217835   4.859   1.612   7.399
 5793SOL     OW17836   4.640   0.910   7.739
 5793SOL    HW117837   4.703   0.948   7.671
 5793SOL    HW217838   4.680   0.827   7.778
 5794SOL     OW17839   4.314   1.487   7.939
 5794SOL    HW117840   4.356   1.429   7.869
 5794SOL    HW217841   4.270   1.566   7.895
 5795SOL     OW17842   3.979   1.348   7.738
 5795SOL    HW117843   3.883   1.349   7.711
 5795SOL    HW217844   3.991   1.401   7.822
 5796SOL     OW17845   3.799   0.345   7.481
 5796SOL    HW117846   3.707   0.317   7.452
 5796SOL    HW217847   3.830   0.422   7.425
 5797SOL     OW17848   3.796   0.166   7.766
 5797SOL    HW117849   3.779   0.249   7.712
 5797SOL    HW217850   3.886   0.129   7.744
 5798SOL     OW17851   4.907   1.335   7.567
 5798SOL    HW117852   4.808   1.324   7.569
 5798SOL    HW217853   4.941   1.350   7.660
 5799SOL     OW17854   5.217   1.767   8.407
 5799SOL    HW117855   5.250   1.831   8.338
 5799SOL    HW217856   5.283   1.761   8.482
 5800SOL     OW17857   4.949   0.325   7.897
 5800SOL    HW117858   5.014   0.251   7.886
 5800SOL    HW217859   4.969   0.375   7.981
 5801SOL     OW17860   4.318   0.745   8.100
 5801SOL    HW117861   4.368   0.830   8.081
 5801SOL    HW217862   4.230   0.747   8.052
 5802SOL     OW17863   4.583   1.374   7.464
 5802SOL    HW117864   4.537   1.389   7.552
 5802SOL    HW217865   4.627   1.459   7.434
 5803SOL     OW17866   4.807   0.984   7.535
 5803SOL    HW117867   4.784   1.037   7.453
 5803SOL    HW217868   4.888   0.928   7.516
 5804SOL     OW17869   4.152   0.424   7.968
 5804SOL    HW117870   4.182   0.352   7.906
 5804SOL    HW217871   4.113   0.384   8.051
 5805SOL     OW17872   4.494   1.330   7.749
 5805SOL    HW117873   4.448   1.243   7.766
 5805SOL    HW217874   4.585   1.327   7.790
 5806SOL     OW17875   5.076   0.052   7.616
 5806SOL    HW117876   5.111   0.011   7.532
 5806SOL    HW217877   4.986   0.014   7.636
 5807SOL     OW17878   3.763   1.077   7.748
 5807SOL    HW117879   3.862   1.066   7.739
 5807SOL    HW217880   3.723   0.991   7.780
 5808SOL     OW17881   4.599   1.646   7.785
 5808SOL    HW117882   4.522   1.611   7.731
 5808SOL    HW217883   4.567   1.717   7.847
 5809SOL     OW17884   3.954   2.490   0.113
 5809SOL    HW117885   3.861   2.488   0.150
 5809SOL    HW217886   3.955   2.451   0.021
 5810SOL     OW17887   3.949   2.137   0.996
 5810SOL    HW117888   3.984   2.120   1.088
 5810SOL    HW217889   3.861   2.092   0.984
 5811SOL     OW17890   3.743   2.230   0.647
 5811SOL    HW117891   3.661   2.273   0.686
 5811SOL    HW217892   3.715   2.157   0.584
 5812SOL     OW17893   4.293   3.137   1.165
 5812SOL    HW117894   4.200   3.130   1.128
 5812SOL    HW217895   4.304   3.226   1.209
 5813SOL     OW17896   5.279   3.373   0.703
 5813SOL    HW117897   5.222   3.357   0.784
 5813SOL    HW217898   5.220   3.383   0.623
 5814SOL     OW17899   4.859   2.565   0.717
 5814SOL    HW117900   4.916   2.643   0.692
 5814SOL    HW217901   4.799   2.591   0.793
 5815SOL     OW17902   4.492   3.006   1.023
 5815SOL    HW117903   4.414   3.023   1.083
 5815SOL    HW217904   4.526   3.093   0.987
 5816SOL     OW17905   4.574   2.660   1.823
 5816SOL    HW117906   4.570   2.736   1.888
 5816SOL    HW217907   4.596   2.696   1.732
 5817SOL     OW17908   4.409   2.874   0.665
 5817SOL    HW117909   4.478   2.858   0.735
 5817SOL    HW217910   4.336   2.931   0.703
 5818SOL     OW17911   4.410   3.023   1.803
 5818SOL    HW117912   4.470   3.102   1.817
 5818SOL    HW217913   4.324   3.054   1.762
 5819SOL     OW17914   4.059   3.297   1.061
 5819SOL    HW117915   3.981   3.266   1.008
 5819SOL    HW217916   4.117   3.355   1.004
 5820SOL     OW17917   5.184   3.367   1.339
 5820SOL    HW117918   5.208   3.461   1.365
 5820SOL    HW217919   5.168   3.313   1.421
 5821SOL     OW17920   4.162   2.254   1.499
 5821SOL    HW117921   4.244   2.198   1.508
 5821SOL    HW217922   4.081   2.196   1.503
 5822SOL     OW17923   3.955   3.575   0.483
 5822SOL    HW117924   3.989   3.652   0.537
 5822SOL    HW217925   3.999   3.575   0.393
 5823SOL     OW17926   4.851   3.203   1.690
 5823SOL    HW117927   4.898   3.203   1.778
 5823SOL    HW217928   4.803   3.116   1.679
 5824SOL     OW17929   3.954   3.296   0.538
 5824SOL    HW117930   3.928   3.392   0.538
 5824SOL    HW217931   3.883   3.242   0.583
 5825SOL     OW17932   3.964   2.953   0.886
 5825SOL    HW117933   3.978   2.869   0.938
 5825SOL    HW217934   3.909   3.017   0.941
 5826SOL     OW17935   4.344   3.648   1.439
 5826SOL    HW117936   4.252   3.631   1.474
 5826SOL    HW217937   4.372   3.740   1.465
 5827SOL     OW17938   4.330   2.826   0.123
 5827SOL    HW117939   4.337   2.910   0.069
 5827SOL    HW217940   4.376   2.839   0.211
 5828SOL     OW17941   3.846   2.505   0.563
 5828SOL    HW117942   3.801   2.417   0.580
 5828SOL    HW217943   3.845   2.559   0.647
 5829SOL     OW17944   3.751   3.458   0.117
 5829SOL    HW117945   3.732   3.362   0.138
 5829SOL    HW217946   3.718   3.516   0.192
 5830SOL     OW17947   5.413   2.784   0.612
 5830SOL    HW117948   5.508   2.755   0.620
 5830SOL    HW217949   5.405   2.849   0.537
 5831SOL     OW17950   3.837   2.599   1.597
 5831SOL    HW117951   3.925   2.586   1.642
 5831SOL    HW217952   3.824   2.696   1.575
 5832SOL     OW17953   4.337   3.227   0.726
 5832SOL    HW117954   4.288   3.140   0.735
 5832SOL    HW217955   4.314   3.270   0.639
 5833SOL     OW17956   5.017   3.090   1.423
 5833SOL    HW117957   5.054   3.017   1.365
 5833SOL    HW217958   5.069   3.095   1.508
 5834SOL     OW17959   4.533   1.866   0.502
 5834SOL    HW117960   4.573   1.957   0.493
 5834SOL    HW217961   4.433   1.874   0.508
 5835SOL     OW17962   3.921   2.838   1.264
 5835SOL    HW117963   4.010   2.793   1.250
 5835SOL    HW217964   3.848   2.773   1.245
 5836SOL     OW17965   4.911   3.654   1.616
 5836SOL    HW117966   4.935   3.714   1.540
 5836SOL    HW217967   4.918   3.559   1.586
 5837SOL     OW17968   4.041   2.113   1.801
 5837SOL    HW117969   4.112   2.184   1.807
 5837SOL    HW217970   3.953   2.152   1.829
 5838SOL     OW17971   5.190   3.279   0.953
 5838SOL    HW117972   5.131   3.285   1.033
 5838SOL    HW217973   5.175   3.191   0.907
 5839SOL     OW17974   4.322   2.591   0.270
 5839SOL    HW117975   4.346   2.660   0.202
 5839SOL    HW217976   4.244   2.624   0.324
 5840SOL     OW17977   5.005   2.207   0.944
 5840SOL    HW117978   4.919   2.157   0.931
 5840SOL    HW217979   5.067   2.153   1.000
 5841SOL     OW17980   4.531   2.467   1.465
 5841SOL    HW117981   4.484   2.464   1.554
 5841SOL    HW217982   4.480   2.412   1.399
 5842SOL     OW17983   5.118   2.331   1.674
 5842SOL    HW117984   5.098   2.374   1.762
 5842SOL    HW217985   5.196   2.269   1.683
 5843SOL     OW17986   4.697   2.752   1.572
 5843SOL    HW117987   4.743   2.668   1.543
 5843SOL    HW217988   4.641   2.786   1.497
 5844SOL     OW17989   4.715   2.272   1.242
 5844SOL    HW117990   4.638   2.306   1.296
 5844SOL    HW217991   4.681   2.221   1.163
 5845SOL     OW17992   4.765   2.563   0.429
 5845SOL    HW117993   4.791   2.559   0.525
 5845SOL    HW217994   4.680   2.512   0.415
 5846SOL     OW17995   3.800   2.673   0.789
 5846SOL    HW117996   3.899   2.661   0.798
 5846SOL    HW217997   3.776   2.768   0.810
 5847SOL     OW17998   3.854   3.683   1.571
 5847SOL    HW117999   3.844   3.668   1.670
 5847SOL    HW218000   3.768   3.719   1.535
 5848SOL     OW18001   4.589   2.210   0.195
 5848SOL    HW118002   4.648   2.273   0.146
 5848SOL    HW218003   4.608   2.116   0.166
 5849SOL     OW18004   5.086   3.006   0.545
 5849SOL    HW118005   5.169   2.977   0.497
 5849SOL    HW218006   5.037   3.073   0.489
 5850SOL     OW18007   4.274   2.058   0.885
 5850SOL    HW118008   4.269   2.053   0.985
 5850SOL    HW218009   4.276   2.154   0.856
 5851SOL     OW18010   4.732   3.318   0.477
 5851SOL    HW118011   4.686   3.390   0.425
 5851SOL    HW218012   4.728   3.338   0.575
 5852SOL     OW18013   4.075   3.663   0.853
 5852SOL    HW118014   4.125   3.577   0.859
 5852SOL    HW218015   4.140   3.740   0.850
 5853SOL     OW18016   4.951   3.412   1.506
 5853SOL    HW118017   4.957   3.335   1.570
 5853SOL    HW218018   4.899   3.386   1.426
 5854SOL     OW18019   4.045   2.805   0.242
 5854SOL    HW118020   4.127   2.844   0.200
 5854SOL    HW218021   4.018   2.723   0.193
 5855SOL     OW18022   4.185   3.128   1.727
 5855SOL    HW118023   4.135   3.129   1.641
 5855SOL    HW218024   4.122   3.110   1.803
 5856SOL     OW18025   4.835   3.638   0.237
 5856SOL    HW118026   4.775   3.576   0.287
 5856SOL    HW218027   4.866   3.594   0.152
 5857SOL     OW18028   3.926   2.147   1.498
 5857SOL    HW118029   3.846   2.207   1.485
 5857SOL    HW218030   3.916   2.098   1.584
 5858SOL     OW18031   4.188   3.605   0.323
 5858SOL    HW118032   4.221   3.644   0.409
 5858SOL    HW218033   4.264   3.598   0.258
 5859SOL     OW18034   5.124   1.969   0.426
 5859SOL    HW118035   5.100   1.932   0.336
 5859SOL    HW218036   5.223   1.985   0.430
 5860SOL     OW18037   3.973   3.647   1.241
 5860SOL    HW118038   4.030   3.582   1.291
 5860SOL    HW218039   3.957   3.614   1.148
 5861SOL     OW18040   4.664   3.560   0.904
 5861SOL    HW118041   4.744   3.503   0.925
 5861SOL    HW218042   4.615   3.520   0.827
 5862SOL     OW18043   4.106   2.562   0.480
 5862SOL    HW118044   4.151   2.472   0.477
 5862SOL    HW218045   4.012   2.551   0.513
 5863SOL     OW18046   4.338   1.984   0.117
 5863SOL    HW118047   4.436   1.962   0.124
 5863SOL    HW218048   4.307   1.967   0.024
 5864SOL     OW18049   4.505   2.126   1.749
 5864SOL    HW118050   4.572   2.065   1.792
 5864SOL    HW218051   4.432   2.145   1.814
 5865SOL     OW18052   4.612   3.376   1.195
 5865SOL    HW118053   4.589   3.351   1.101
 5865SOL    HW218054   4.673   3.307   1.234
 5866SOL     OW18055   5.075   2.452   1.433
 5866SOL    HW118056   5.103   2.409   1.518
 5866SOL    HW218057   5.100   2.548   1.434
 5867SOL     OW18058   4.527   3.264   0.924
 5867SOL    HW118059   4.617   3.278   0.882
 5867SOL    HW218060   4.456   3.266   0.853
 5868SOL     OW18061   4.646   2.365   0.899
 5868SOL    HW118062   4.621   2.356   0.803
 5868SOL    HW218063   4.694   2.283   0.930
 5869SOL     OW18064   4.263   1.926   0.512
 5869SOL    HW118065   4.182   1.927   0.570
 5869SOL    HW218066   4.266   2.009   0.457
 5870SOL     OW18067   5.158   3.050   0.041
 5870SOL    HW118068   5.190   2.974   0.098
 5870SOL    HW218069   5.066   3.077   0.071
 5871SOL     OW18070   4.021   1.897   0.171
 5871SOL    HW118071   4.070   1.981   0.150
 5871SOL    HW218072   4.083   1.832   0.216
 5872SOL     OW18073   4.659   2.098   0.480
 5872SOL    HW118074   4.611   2.139   0.402
 5872SOL    HW218075   4.758   2.096   0.461
 5873SOL     OW18076   4.800   2.545   1.464
 5873SOL    HW118077   4.720   2.484   1.467
 5873SOL    HW218078   4.881   2.492   1.440
 5874SOL     OW18079   4.951   3.432   0.793
 5874SOL    HW118080   4.972   3.506   0.728
 5874SOL    HW218081   5.019   3.432   0.866
 5875SOL     OW18082   4.183   3.014   0.741
 5875SOL    HW118083   4.112   2.987   0.806
 5875SOL    HW218084   4.157   2.986   0.648
 5876SOL     OW18085   4.995   3.659   0.591
 5876SOL    HW118086   5.039   3.723   0.527
 5876SOL    HW218087   4.945   3.711   0.661
 5877SOL     OW18088   4.756   2.411   0.016
 5877SOL    HW118089   4.715   2.493  -0.023
 5877SOL    HW218090   4.820   2.437   0.089
 5878SOL     OW18091   3.802   2.418   1.386
 5878SOL    HW118092   3.894   2.417   1.345
 5878SOL    HW218093   3.796   2.492   1.453
 5879SOL     OW18094   4.285   2.084   1.147
 5879SOL    HW118095   4.323   2.000   1.184
 5879SOL    HW218096   4.197   2.103   1.191
 5880SOL     OW18097   4.590   2.316   0.642
 5880SOL    HW118098   4.558   2.388   0.580
 5880SOL    HW218099   4.614   2.235   0.589
 5881SOL     OW18100   4.741   1.901   0.753
 5881SOL    HW118101   4.669   1.906   0.684
 5881SOL    HW218102   4.717   1.832   0.822
 5882SOL     OW18103   5.153   3.035   0.867
 5882SOL    HW118104   5.098   2.951   0.860
 5882SOL    HW218105   5.179   3.064   0.775
 5883SOL     OW18106   4.212   3.247   0.174
 5883SOL    HW118107   4.125   3.232   0.221
 5883SOL    HW218108   4.195   3.273   0.079
 5884SOL     OW18109   5.114   2.437   0.078
 5884SOL    HW118110   5.060   2.416   0.159
 5884SOL    HW218111   5.205   2.396   0.087
 5885SOL     OW18112   4.251   2.118   0.328
 5885SOL    HW118113   4.278   2.059   0.253
 5885SOL    HW218114   4.251   2.213   0.297
 5886SOL     OW18115   4.788   3.209   1.340
 5886SOL    HW118116   4.708   3.186   1.395
 5886SOL    HW218117   4.871   3.183   1.389
 5887SOL     OW18118   5.316   3.491   1.625
 5887SOL    HW118119   5.343   3.525   1.535
 5887SOL    HW218120   5.395   3.453   1.671
 5888SOL     OW18121   4.835   3.057   1.100
 5888SOL    HW118122   4.795   3.101   1.181
 5888SOL    HW218123   4.794   3.094   1.017
 5889SOL     OW18124   4.639   1.951   1.402
 5889SOL    HW118125   4.664   1.931   1.307
 5889SOL    HW218126   4.711   2.007   1.444
 5890SOL     OW18127   4.704   2.978   1.719
 5890SOL    HW118128   4.605   2.984   1.729
 5890SOL    HW218129   4.727   2.898   1.663
 5891SOL     OW18130   4.429   2.912   0.368
 5891SOL    HW118131   4.415   2.919   0.467
 5891SOL    HW218132   4.513   2.861   0.350
 5892SOL     OW18133   4.134   2.675   1.251
 5892SOL    HW118134   4.220   2.687   1.301
 5892SOL    HW218135   4.092   2.588   1.278
 5893SOL     OW18136   4.998   2.248   1.262
 5893SOL    HW118137   5.019   2.322   1.326
 5893SOL    HW218138   4.909   2.265   1.219
 5894SOL     OW18139   3.788   3.426   1.331
 5894SOL    HW118140   3.742   3.508   1.297
 5894SOL    HW218141   3.886   3.445   1.340
 5895SOL     OW18142   4.091   2.962   0.501
 5895SOL    HW118143   4.084   3.045   0.445
 5895SOL    HW218144   4.095   2.882   0.441
 5896SOL     OW18145   4.290   2.399   0.865
 5896SOL    HW118146   4.302   2.465   0.791
 5896SOL    HW218147   4.336   2.433   0.948
 5897SOL     OW18148   4.976   3.210   0.388
 5897SOL    HW118149   5.026   3.287   0.428
 5897SOL    HW218150   4.881   3.212   0.420
 5898SOL     OW18151   4.996   3.307   1.142
 5898SOL    HW118152   5.043   3.320   1.229
 5898SOL    HW218153   4.930   3.233   1.151
 5899SOL     OW18154   4.078   3.372   1.329
 5899SOL    HW118155   4.057   3.328   1.242
 5899SOL    HW218156   4.175   3.398   1.332
 5900SOL     OW18157   4.126   2.613   1.598
 5900SOL    HW118158   4.194   2.668   1.551
 5900SOL    HW218159   4.166   2.525   1.625
 5901SOL     OW18160   4.737   1.967   1.770
 5901SOL    HW118161   4.743   2.052   1.718
 5901SOL    HW218162   4.769   1.891   1.713
 5902SOL     OW18163   4.228   1.912   1.740
 5902SOL    HW118164   4.186   1.855   1.670
 5902SOL    HW218165   4.162   1.981   1.772
 5903SOL     OW18166   4.297   2.732   1.029
 5903SOL    HW118167   4.341   2.821   1.020
 5903SOL    HW218168   4.234   2.732   1.106
 5904SOL     OW18169   5.084   2.724   1.045
 5904SOL    HW118170   5.009   2.724   0.979
 5904SOL    HW218171   5.121   2.632   1.054
 5905SOL     OW18172   4.933   2.387   0.275
 5905SOL    HW118173   4.946   2.303   0.329
 5905SOL    HW218174   4.904   2.461   0.335
 5906SOL     OW18175   4.031   2.075   1.231
 5906SOL    HW118176   4.008   2.112   1.321
 5906SOL    HW218177   4.001   1.980   1.225
 5907SOL     OW18178   3.761   3.172   1.282
 5907SOL    HW118179   3.814   3.123   1.350
 5907SOL    HW218180   3.783   3.270   1.287
 5908SOL     OW18181   4.456   2.496   1.064
 5908SOL    HW118182   4.515   2.470   0.988
 5908SOL    HW218183   4.428   2.592   1.053
 5909SOL     OW18184   4.031   1.925   0.618
 5909SOL    HW118185   4.020   2.019   0.651
 5909SOL    HW218186   4.026   1.862   0.695
 5910SOL     OW18187   5.346   2.229   0.374
 5910SOL    HW118188   5.348   2.153   0.438
 5910SOL    HW218189   5.298   2.306   0.414
 5911SOL     OW18190   4.747   2.628   0.966
 5911SOL    HW118191   4.762   2.649   1.062
 5911SOL    HW218192   4.717   2.533   0.957
 5912SOL     OW18193   4.704   3.435   1.700
 5912SOL    HW118194   4.684   3.479   1.612
 5912SOL    HW218195   4.743   3.344   1.684
 5913SOL     OW18196   4.074   2.760   1.804
 5913SOL    HW118197   4.150   2.804   1.852
 5913SOL    HW218198   4.109   2.713   1.722
 5914SOL     OW18199   5.027   2.700   0.042
 5914SOL    HW118200   5.061   2.607   0.057
 5914SOL    HW218201   5.045   2.727  -0.053
 5915SOL     OW18202   4.792   3.195   0.849
 5915SOL    HW118203   4.799   3.111   0.794
 5915SOL    HW218204   4.854   3.264   0.813
 5916SOL     OW18205   4.043   2.672   0.949
 5916SOL    HW118206   4.136   2.708   0.954
 5916SOL    HW218207   4.037   2.587   1.001
 5917SOL     OW18208   4.063   2.371   1.006
 5917SOL    HW118209   4.011   2.288   0.989
 5917SOL    HW218210   4.140   2.376   0.942
 5918SOL     OW18211   4.862   2.242   1.678
 5918SOL    HW118212   4.817   2.305   1.742
 5918SOL    HW218213   4.955   2.273   1.661
 5919SOL     OW18214   4.884   2.069   1.477
 5919SOL    HW118215   4.884   2.133   1.554
 5919SOL    HW218216   4.912   2.117   1.394
 5920SOL     OW18217   3.732   3.188   0.200
 5920SOL    HW118218   3.639   3.209   0.169
 5920SOL    HW218219   3.742   3.089   0.213
 5921SOL     OW18220   3.812   3.663   0.927
 5921SOL    HW118221   3.770   3.577   0.900
 5921SOL    HW218222   3.906   3.666   0.893
 5922SOL     OW18223   4.228   3.430   0.910
 5922SOL    HW118224   4.294   3.504   0.919
 5922SOL    HW218225   4.272   3.351   0.868
 5923SOL     OW18226   4.726   2.658   1.238
 5923SOL    HW118227   4.767   2.626   1.324
 5923SOL    HW218228   4.630   2.631   1.235
 5924SOL     OW18229   3.764   2.406   1.114
 5924SOL    HW118230   3.849   2.373   1.073
 5924SOL    HW218231   3.777   2.421   1.212
 5925SOL     OW18232   3.913   2.382   1.722
 5925SOL    HW118233   3.972   2.342   1.652
 5925SOL    HW218234   3.855   2.453   1.681
 5926SOL     OW18235   5.093   2.812   1.660
 5926SOL    HW118236   5.132   2.901   1.680
 5926SOL    HW218237   5.103   2.792   1.563
 5927SOL     OW18238   4.539   2.434   0.325
 5927SOL    HW118239   4.546   2.345   0.279
 5927SOL    HW218240   4.445   2.468   0.317
 5928SOL     OW18241   3.976   3.426   1.744
 5928SOL    HW118242   3.946   3.483   1.820
 5928SOL    HW218243   3.969   3.329   1.770
 5929SOL     OW18244   4.395   2.326   1.269
 5929SOL    HW118245   4.361   2.237   1.239
 5929SOL    HW218246   4.421   2.380   1.189
 5930SOL     OW18247   4.654   3.540   1.465
 5930SOL    HW118248   4.630   3.522   1.370
 5930SOL    HW218249   4.684   3.634   1.475
 5931SOL     OW18250   4.197   2.362   0.191
 5931SOL    HW118251   4.258   2.442   0.195
 5931SOL    HW218252   4.102   2.393   0.198
 5932SOL     OW18253   3.883   2.999   1.466
 5932SOL    HW118254   3.905   2.938   1.542
 5932SOL    HW218255   3.893   2.950   1.380
 5933SOL     OW18256   5.071   2.921   1.234
 5933SOL    HW118257   5.095   2.858   1.160
 5933SOL    HW218258   4.981   2.961   1.216
 5934SOL     OW18259   5.026   2.717   0.309
 5934SOL    HW118260   4.940   2.686   0.351
 5934SOL    HW218261   5.022   2.703   0.210
 5935SOL     OW18262   4.976   3.593   1.128
 5935SOL    HW118263   5.060   3.598   1.074
 5935SOL    HW218264   4.953   3.497   1.146
 5936SOL     OW18265   3.807   3.120   1.022
 5936SOL    HW118266   3.802   3.119   1.122
 5936SOL    HW218267   3.724   3.079   0.984
 5937SOL     OW18268   4.412   3.524   1.716
 5937SOL    HW118269   4.356   3.605   1.725
 5937SOL    HW218270   4.464   3.528   1.630
 5938SOL     OW18271   4.627   1.948   0.133
 5938SOL    HW118272   4.678   1.949   0.047
 5938SOL    HW218273   4.683   1.906   0.204
 5939SOL     OW18274   5.450   1.997   0.523
 5939SOL    HW118275   5.523   1.980   0.456
 5939SOL    HW218276   5.419   1.910   0.561
 5940SOL     OW18277   5.112   3.435   0.477
 5940SOL    HW118278   5.179   3.447   0.403
 5940SOL    HW218279   5.072   3.524   0.500
 5941SOL     OW18280   3.854   3.656   1.851
 5941SOL    HW118281   3.813   3.582   1.904
 5941SOL    HW218282   3.918   3.707   1.909
 5942SOL     OW18283   5.004   2.789   0.672
 5942SOL    HW118284   5.064   2.708   0.674
 5942SOL    HW218285   5.044   2.858   0.612
 5943SOL     OW18286   4.554   3.135   1.422
 5943SOL    HW118287   4.549   3.168   1.517
 5943SOL    HW218288   4.468   3.154   1.376
 5944SOL     OW18289   4.396   3.478   0.154
 5944SOL    HW118290   4.405   3.488   0.055
 5944SOL    HW218291   4.356   3.389   0.175
 5945SOL     OW18292   3.987   2.188   0.720
 5945SOL    HW118293   3.908   2.239   0.686
 5945SOL    HW218294   3.978   2.173   0.818
 5946SOL     OW18295   4.918   3.474   0.031
 5946SOL    HW118296   4.924   3.381   0.068
 5946SOL    HW218297   4.859   3.474  -0.049
 5947SOL     OW18298   4.546   2.864   1.372
 5947SOL    HW118299   4.586   2.863   1.280
 5947SOL    HW218300   4.556   2.956   1.412
 5948SOL     OW18301   4.640   2.772   0.291
 5948SOL    HW118302   4.703   2.810   0.223
 5948SOL    HW218303   4.680   2.689   0.330
 5949SOL     OW18304   4.096   3.150   1.490
 5949SOL    HW118305   4.083   3.243   1.456
 5949SOL    HW218306   4.012   3.098   1.477
 5950SOL     OW18307   4.763   2.960   0.696
 5950SOL    HW118308   4.693   2.913   0.750
 5950SOL    HW218309   4.822   2.892   0.653
 5951SOL     OW18310   4.738   2.098   0.971
 5951SOL    HW118311   4.730   2.062   0.878
 5951SOL    HW218312   4.736   2.022   1.036
 5952SOL     OW18313   4.314   3.349   0.491
 5952SOL    HW118314   4.356   3.291   0.421
 5952SOL    HW218315   4.270   3.428   0.447
 5953SOL     OW18316   3.979   3.210   0.290
 5953SOL    HW118317   3.883   3.211   0.263
 5953SOL    HW218318   3.991   3.263   0.374
 5954SOL     OW18319   3.829   2.875   1.726
 5954SOL    HW118320   3.752   2.842   1.780
 5954SOL    HW218321   3.914   2.845   1.768
 5955SOL     OW18322   4.396   2.065   1.489
 5955SOL    HW118323   4.486   2.049   1.449
 5955SOL    HW218324   4.404   2.070   1.588
 5956SOL     OW18325   3.799   2.207   0.033
 5956SOL    HW118326   3.707   2.179   0.004
 5956SOL    HW218327   3.830   2.284  -0.023
 5957SOL     OW18328   5.164   2.718   1.398
 5957SOL    HW118329   5.107   2.770   1.335
 5957SOL    HW218330   5.260   2.730   1.374
 5958SOL     OW18331   3.796   2.028   0.318
 5958SOL    HW118332   3.779   2.111   0.264
 5958SOL    HW218333   3.886   1.991   0.296
 5959SOL     OW18334   4.907   3.197   0.119
 5959SOL    HW118335   4.808   3.186   0.121
 5959SOL    HW218336   4.941   3.212   0.212
 5960SOL     OW18337   4.337   2.704   1.431
 5960SOL    HW118338   4.393   2.785   1.414
 5960SOL    HW218339   4.396   2.624   1.434
 5961SOL     OW18340   4.440   2.427   1.708
 5961SOL    HW118341   4.459   2.492   1.782
 5961SOL    HW218342   4.500   2.347   1.717
 5962SOL     OW18343   5.174   3.082   1.633
 5962SOL    HW118344   5.165   3.072   1.732
 5962SOL    HW218345   5.270   3.075   1.607
 5963SOL     OW18346   4.114   3.603   1.560
 5963SOL    HW118347   4.023   3.644   1.558
 5963SOL    HW218348   4.107   3.509   1.592
 5964SOL     OW18349   4.949   2.187   0.449
 5964SOL    HW118350   5.014   2.113   0.438
 5964SOL    HW218351   4.969   2.237   0.533
 5965SOL     OW18352   4.318   2.607   0.652
 5965SOL    HW118353   4.368   2.692   0.633
 5965SOL    HW218354   4.230   2.609   0.604
 5966SOL     OW18355   4.583   3.236   0.016
 5966SOL    HW118356   4.537   3.251   0.104
 5966SOL    HW218357   4.627   3.321  -0.014
 5967SOL     OW18358   4.385   3.652   0.953
 5967SOL    HW118359   4.339   3.740   0.940
 5967SOL    HW218360   4.484   3.664   0.946
 5968SOL     OW18361   4.583   2.818   0.861
 5968SOL    HW118362   4.637   2.749   0.909
 5968SOL    HW218363   4.551   2.887   0.927
 5969SOL     OW18364   4.807   2.846   0.087
 5969SOL    HW118365   4.784   2.899   0.005
 5969SOL    HW218366   4.888   2.790   0.068
 5970SOL     OW18367   3.945   3.176   1.844
 5970SOL    HW118368   3.880   3.103   1.823
 5970SOL    HW218369   3.949   3.190   1.942
 5971SOL     OW18370   3.803   3.102   0.653
 5971SOL    HW118371   3.802   3.055   0.741
 5971SOL    HW218372   3.885   3.074   0.602
 5972SOL     OW18373   4.396   3.253   1.624
 5972SOL    HW118374   4.318   3.203   1.662
 5972SOL    HW218375   4.393   3.348   1.655
 5973SOL     OW18376   4.152   2.286   0.520
 5973SOL    HW118377   4.182   2.214   0.458
 5973SOL    HW218378   4.113   2.246   0.603
 5974SOL     OW18379   5.429   3.349   1.104
 5974SOL    HW118380   5.336   3.324   1.077
 5974SOL    HW218381   5.455   3.299   1.186
 5975SOL     OW18382   4.041   2.409   1.280
 5975SOL    HW118383   4.079   2.350   1.352
 5975SOL    HW218384   4.081   2.383   1.192
 5976SOL     OW18385   4.536   3.448   0.687
 5976SOL    HW118386   4.568   3.458   0.593
 5976SOL    HW218387   4.457   3.386   0.689
 5977SOL     OW18388   5.148   2.076   1.112
 5977SOL    HW118389   5.200   2.011   1.167
 5977SOL    HW218390   5.099   2.139   1.173
 5978SOL     OW18391   4.725   1.896   1.154
 5978SOL    HW118392   4.662   1.824   1.123
 5978SOL    HW218393   4.818   1.860   1.154
 5979SOL     OW18394   4.494   3.192   0.301
 5979SOL    HW118395   4.448   3.105   0.318
 5979SOL    HW218396   4.585   3.189   0.342
 5980SOL     OW18397   4.342   3.429   1.284
 5980SOL    HW118398   4.337   3.511   1.341
 5980SOL    HW218399   4.431   3.426   1.239
 5981SOL     OW18400   5.076   1.914   0.168
 5981SOL    HW118401   5.111   1.873   0.084
 5981SOL    HW218402   4.986   1.876   0.188
 5982SOL     OW18403   5.024   2.315   0.691
 5982SOL    HW118404   4.965   2.395   0.695
 5982SOL    HW218405   5.039   2.280   0.784
 5983SOL     OW18406   5.317   2.083   0.882
 5983SOL    HW118407   5.233   2.082   0.936
 5983SOL    HW218408   5.319   2.166   0.826
 5984SOL     OW18409   3.763   2.939   0.300
 5984SOL    HW118410   3.862   2.928   0.291
 5984SOL    HW218411   3.723   2.853   0.332
 5985SOL     OW18412   4.599   3.508   0.337
 5985SOL    HW118413   4.522   3.473   0.283
 5985SOL    HW218414   4.567   3.579   0.399
 5986SOL     OW18415   3.954   2.490   1.975
 5986SOL    HW118416   3.861   2.488   2.012
 5986SOL    HW218417   3.955   2.451   1.883
 5987SOL     OW18418   3.949   2.137   2.858
 5987SOL    HW118419   3.984   2.120   2.950
 5987SOL    HW218420   3.861   2.092   2.846
 5988SOL     OW18421   3.743   2.230   2.509
 5988SOL    HW118422   3.661   2.273   2.548
 5988SOL    HW218423   3.715   2.157   2.446
 5989SOL     OW18424   4.293   3.137   3.027
 5989SOL    HW118425   4.200   3.130   2.990
 5989SOL    HW218426   4.304   3.226   3.071
 5990SOL     OW18427   5.279   3.373   2.565
 5990SOL    HW118428   5.222   3.357   2.646
 5990SOL    HW218429   5.220   3.383   2.485
 5991SOL     OW18430   4.859   2.565   2.579
 5991SOL    HW118431   4.916   2.643   2.554
 5991SOL    HW218432   4.799   2.591   2.655
 5992SOL     OW18433   4.492   3.006   2.885
 5992SOL    HW118434   4.414   3.023   2.945
 5992SOL    HW218435   4.526   3.093   2.849
 5993SOL     OW18436   4.574   2.660   3.685
 5993SOL    HW118437   4.570   2.736   3.750
 5993SOL    HW218438   4.596   2.696   3.594
 5994SOL     OW18439   4.409   2.874   2.527
 5994SOL    HW118440   4.478   2.858   2.597
 5994SOL    HW218441   4.336   2.931   2.565
 5995SOL     OW18442   4.410   3.023   3.665
 5995SOL    HW118443   4.470   3.102   3.679
 5995SOL    HW218444   4.324   3.054   3.624
 5996SOL     OW18445   4.059   3.297   2.923
 5996SOL    HW118446   3.981   3.266   2.870
 5996SOL    HW218447   4.117   3.355   2.866
 5997SOL     OW18448   5.184   3.367   3.201
 5997SOL    HW118449   5.208   3.461   3.227
 5997SOL    HW218450   5.168   3.313   3.283
 5998SOL     OW18451   4.162   2.254   3.361
 5998SOL    HW118452   4.244   2.198   3.370
 5998SOL    HW218453   4.081   2.196   3.365
 5999SOL     OW18454   3.955   3.575   2.345
 5999SOL    HW118455   3.989   3.652   2.399
 5999SOL    HW218456   3.999   3.575   2.255
 6000SOL     OW18457   4.851   3.203   3.552
 6000SOL    HW118458   4.898   3.203   3.640
 6000SOL    HW218459   4.803   3.116   3.541
 6001SOL     OW18460   3.954   3.296   2.400
 6001SOL    HW118461   3.928   3.392   2.400
 6001SOL    HW218462   3.883   3.242   2.445
 6002SOL     OW18463   3.964   2.953   2.748
 6002SOL    HW118464   3.978   2.869   2.800
 6002SOL    HW218465   3.909   3.017   2.803
 6003SOL     OW18466   4.344   3.648   3.301
 6003SOL    HW118467   4.252   3.631   3.336
 6003SOL    HW218468   4.372   3.740   3.327
 6004SOL     OW18469   4.330   2.826   1.985
 6004SOL    HW118470   4.337   2.910   1.931
 6004SOL    HW218471   4.376   2.839   2.073
 6005SOL     OW18472   3.846   2.505   2.425
 6005SOL    HW118473   3.801   2.417   2.442
 6005SOL    HW218474   3.845   2.559   2.509
 6006SOL     OW18475   3.751   3.458   1.979
 6006SOL    HW118476   3.732   3.362   2.000
 6006SOL    HW218477   3.718   3.516   2.054
 6007SOL     OW18478   5.413   2.784   2.474
 6007SOL    HW118479   5.508   2.755   2.482
 6007SOL    HW218480   5.405   2.849   2.399
 6008SOL     OW18481   3.837   2.599   3.459
 6008SOL    HW118482   3.925   2.586   3.504
 6008SOL    HW218483   3.824   2.696   3.437
 6009SOL     OW18484   4.337   3.227   2.588
 6009SOL    HW118485   4.288   3.140   2.597
 6009SOL    HW218486   4.314   3.270   2.501
 6010SOL     OW18487   5.017   3.090   3.285
 6010SOL    HW118488   5.054   3.017   3.227
 6010SOL    HW218489   5.069   3.095   3.370
 6011SOL     OW18490   4.533   1.866   2.364
 6011SOL    HW118491   4.573   1.957   2.355
 6011SOL    HW218492   4.433   1.874   2.370
 6012SOL     OW18493   3.921   2.838   3.126
 6012SOL    HW118494   4.010   2.793   3.112
 6012SOL    HW218495   3.848   2.773   3.107
 6013SOL     OW18496   4.911   3.654   3.478
 6013SOL    HW118497   4.935   3.714   3.402
 6013SOL    HW218498   4.918   3.559   3.448
 6014SOL     OW18499   4.041   2.113   3.663
 6014SOL    HW118500   4.112   2.184   3.669
 6014SOL    HW218501   3.953   2.152   3.691
 6015SOL     OW18502   5.190   3.279   2.815
 6015SOL    HW118503   5.131   3.285   2.895
 6015SOL    HW218504   5.175   3.191   2.769
 6016SOL     OW18505   4.322   2.591   2.132
 6016SOL    HW118506   4.346   2.660   2.064
 6016SOL    HW218507   4.244   2.624   2.186
 6017SOL     OW18508   5.005   2.207   2.806
 6017SOL    HW118509   4.919   2.157   2.793
 6017SOL    HW218510   5.067   2.153   2.862
 6018SOL     OW18511   4.531   2.467   3.327
 6018SOL    HW118512   4.484   2.464   3.416
 6018SOL    HW218513   4.480   2.412   3.261
 6019SOL     OW18514   5.118   2.331   3.536
 6019SOL    HW118515   5.098   2.374   3.624
 6019SOL    HW218516   5.196   2.269   3.545
 6020SOL     OW18517   4.697   2.752   3.434
 6020SOL    HW118518   4.743   2.668   3.405
 6020SOL    HW218519   4.641   2.786   3.359
 6021SOL     OW18520   4.715   2.272   3.104
 6021SOL    HW118521   4.638   2.306   3.158
 6021SOL    HW218522   4.681   2.221   3.025
 6022SOL     OW18523   4.765   2.563   2.291
 6022SOL    HW118524   4.791   2.559   2.387
 6022SOL    HW218525   4.680   2.512   2.277
 6023SOL     OW18526   3.800   2.673   2.651
 6023SOL    HW118527   3.899   2.661   2.660
 6023SOL    HW218528   3.776   2.768   2.672
 6024SOL     OW18529   3.854   3.683   3.433
 6024SOL    HW118530   3.844   3.668   3.532
 6024SOL    HW218531   3.768   3.719   3.397
 6025SOL     OW18532   4.589   2.210   2.057
 6025SOL    HW118533   4.648   2.273   2.008
 6025SOL    HW218534   4.608   2.116   2.028
 6026SOL     OW18535   5.086   3.006   2.407
 6026SOL    HW118536   5.169   2.977   2.359
 6026SOL    HW218537   5.037   3.073   2.351
 6027SOL     OW18538   4.274   2.058   2.747
 6027SOL    HW118539   4.269   2.053   2.847
 6027SOL    HW218540   4.276   2.154   2.718
 6028SOL     OW18541   4.732   3.318   2.339
 6028SOL    HW118542   4.686   3.390   2.287
 6028SOL    HW218543   4.728   3.338   2.437
 6029SOL     OW18544   4.075   3.663   2.715
 6029SOL    HW118545   4.125   3.577   2.721
 6029SOL    HW218546   4.140   3.740   2.712
 6030SOL     OW18547   4.951   3.412   3.368
 6030SOL    HW118548   4.957   3.335   3.432
 6030SOL    HW218549   4.899   3.386   3.288
 6031SOL     OW18550   4.045   2.805   2.104
 6031SOL    HW118551   4.127   2.844   2.062
 6031SOL    HW218552   4.018   2.723   2.055
 6032SOL     OW18553   4.185   3.128   3.589
 6032SOL    HW118554   4.135   3.129   3.503
 6032SOL    HW218555   4.122   3.110   3.665
 6033SOL     OW18556   4.835   3.638   2.099
 6033SOL    HW118557   4.775   3.576   2.149
 6033SOL    HW218558   4.866   3.594   2.014
 6034SOL     OW18559   3.926   2.147   3.360
 6034SOL    HW118560   3.846   2.207   3.347
 6034SOL    HW218561   3.916   2.098   3.446
 6035SOL     OW18562   4.188   3.605   2.185
 6035SOL    HW118563   4.221   3.644   2.271
 6035SOL    HW218564   4.264   3.598   2.120
 6036SOL     OW18565   5.124   1.969   2.288
 6036SOL    HW118566   5.100   1.932   2.198
 6036SOL    HW218567   5.223   1.985   2.292
 6037SOL     OW18568   3.973   3.647   3.103
 6037SOL    HW118569   4.030   3.582   3.153
 6037SOL    HW218570   3.957   3.614   3.010
 6038SOL     OW18571   4.664   3.560   2.766
 6038SOL    HW118572   4.744   3.503   2.787
 6038SOL    HW218573   4.615   3.520   2.689
 6039SOL     OW18574   4.106   2.562   2.342
 6039SOL    HW118575   4.151   2.472   2.339
 6039SOL    HW218576   4.012   2.551   2.375
 6040SOL     OW18577   4.338   1.984   1.979
 6040SOL    HW118578   4.436   1.962   1.986
 6040SOL    HW218579   4.307   1.967   1.886
 6041SOL     OW18580   4.505   2.126   3.611
 6041SOL    HW118581   4.572   2.065   3.654
 6041SOL    HW218582   4.432   2.145   3.676
 6042SOL     OW18583   4.612   3.376   3.057
 6042SOL    HW118584   4.589   3.351   2.963
 6042SOL    HW218585   4.673   3.307   3.096
 6043SOL     OW18586   5.075   2.452   3.295
 6043SOL    HW118587   5.103   2.409   3.380
 6043SOL    HW218588   5.100   2.548   3.296
 6044SOL     OW18589   4.527   3.264   2.786
 6044SOL    HW118590   4.617   3.278   2.744
 6044SOL    HW218591   4.456   3.266   2.715
 6045SOL     OW18592   4.646   2.365   2.761
 6045SOL    HW118593   4.621   2.356   2.665
 6045SOL    HW218594   4.694   2.283   2.792
 6046SOL     OW18595   4.263   1.926   2.374
 6046SOL    HW118596   4.182   1.927   2.432
 6046SOL    HW218597   4.266   2.009   2.319
 6047SOL     OW18598   5.158   3.050   1.903
 6047SOL    HW118599   5.190   2.974   1.960
 6047SOL    HW218600   5.066   3.077   1.933
 6048SOL     OW18601   4.021   1.897   2.033
 6048SOL    HW118602   4.070   1.981   2.012
 6048SOL    HW218603   4.083   1.832   2.078
 6049SOL     OW18604   4.659   2.098   2.342
 6049SOL    HW118605   4.611   2.139   2.264
 6049SOL    HW218606   4.758   2.096   2.323
 6050SOL     OW18607   4.800   2.545   3.326
 6050SOL    HW118608   4.720   2.484   3.329
 6050SOL    HW218609   4.881   2.492   3.302
 6051SOL     OW18610   4.951   3.432   2.655
 6051SOL    HW118611   4.972   3.506   2.590
 6051SOL    HW218612   5.019   3.432   2.728
 6052SOL     OW18613   4.183   3.014   2.603
 6052SOL    HW118614   4.112   2.987   2.668
 6052SOL    HW218615   4.157   2.986   2.510
 6053SOL     OW18616   4.995   3.659   2.453
 6053SOL    HW118617   5.039   3.723   2.389
 6053SOL    HW218618   4.945   3.711   2.523
 6054SOL     OW18619   4.756   2.411   1.878
 6054SOL    HW118620   4.715   2.493   1.839
 6054SOL    HW218621   4.820   2.437   1.951
 6055SOL     OW18622   3.802   2.418   3.248
 6055SOL    HW118623   3.894   2.417   3.207
 6055SOL    HW218624   3.796   2.492   3.315
 6056SOL     OW18625   4.285   2.084   3.009
 6056SOL    HW118626   4.323   2.000   3.046
 6056SOL    HW218627   4.197   2.103   3.053
 6057SOL     OW18628   4.590   2.316   2.504
 6057SOL    HW118629   4.558   2.388   2.442
 6057SOL    HW218630   4.614   2.235   2.451
 6058SOL     OW18631   4.741   1.901   2.615
 6058SOL    HW118632   4.669   1.906   2.546
 6058SOL    HW218633   4.717   1.832   2.684
 6059SOL     OW18634   5.153   3.035   2.729
 6059SOL    HW118635   5.098   2.951   2.722
 6059SOL    HW218636   5.179   3.064   2.637
 6060SOL     OW18637   4.212   3.247   2.036
 6060SOL    HW118638   4.125   3.232   2.083
 6060SOL    HW218639   4.195   3.273   1.941
 6061SOL     OW18640   5.114   2.437   1.940
 6061SOL    HW118641   5.060   2.416   2.021
 6061SOL    HW218642   5.205   2.396   1.949
 6062SOL     OW18643   4.251   2.118   2.190
 6062SOL    HW118644   4.278   2.059   2.115
 6062SOL    HW218645   4.251   2.213   2.159
 6063SOL     OW18646   4.788   3.209   3.202
 6063SOL    HW118647   4.708   3.186   3.257
 6063SOL    HW218648   4.871   3.183   3.251
 6064SOL     OW18649   5.316   3.491   3.487
 6064SOL    HW118650   5.343   3.525   3.397
 6064SOL    HW218651   5.395   3.453   3.533
 6065SOL     OW18652   4.835   3.057   2.962
 6065SOL    HW118653   4.795   3.101   3.043
 6065SOL    HW218654   4.794   3.094   2.879
 6066SOL     OW18655   4.639   1.951   3.264
 6066SOL    HW118656   4.664   1.931   3.169
 6066SOL    HW218657   4.711   2.007   3.306
 6067SOL     OW18658   4.704   2.978   3.581
 6067SOL    HW118659   4.605   2.984   3.591
 6067SOL    HW218660   4.727   2.898   3.525
 6068SOL     OW18661   4.429   2.912   2.230
 6068SOL    HW118662   4.415   2.919   2.329
 6068SOL    HW218663   4.513   2.861   2.212
 6069SOL     OW18664   4.134   2.675   3.113
 6069SOL    HW118665   4.220   2.687   3.163
 6069SOL    HW218666   4.092   2.588   3.140
 6070SOL     OW18667   4.998   2.248   3.124
 6070SOL    HW118668   5.019   2.322   3.188
 6070SOL    HW218669   4.909   2.265   3.081
 6071SOL     OW18670   3.788   3.426   3.193
 6071SOL    HW118671   3.742   3.508   3.159
 6071SOL    HW218672   3.886   3.445   3.202
 6072SOL     OW18673   4.091   2.962   2.363
 6072SOL    HW118674   4.084   3.045   2.307
 6072SOL    HW218675   4.095   2.882   2.303
 6073SOL     OW18676   4.290   2.399   2.727
 6073SOL    HW118677   4.302   2.465   2.653
 6073SOL    HW218678   4.336   2.433   2.810
 6074SOL     OW18679   4.976   3.210   2.250
 6074SOL    HW118680   5.026   3.287   2.290
 6074SOL    HW218681   4.881   3.212   2.282
 6075SOL     OW18682   4.996   3.307   3.004
 6075SOL    HW118683   5.043   3.320   3.091
 6075SOL    HW218684   4.930   3.233   3.013
 6076SOL     OW18685   4.078   3.372   3.191
 6076SOL    HW118686   4.057   3.328   3.104
 6076SOL    HW218687   4.175   3.398   3.194
 6077SOL     OW18688   4.126   2.613   3.460
 6077SOL    HW118689   4.194   2.668   3.413
 6077SOL    HW218690   4.166   2.525   3.487
 6078SOL     OW18691   4.737   1.967   3.632
 6078SOL    HW118692   4.743   2.052   3.580
 6078SOL    HW218693   4.769   1.891   3.575
 6079SOL     OW18694   4.228   1.912   3.602
 6079SOL    HW118695   4.186   1.855   3.532
 6079SOL    HW218696   4.162   1.981   3.634
 6080SOL     OW18697   4.297   2.732   2.891
 6080SOL    HW118698   4.341   2.821   2.882
 6080SOL    HW218699   4.234   2.732   2.968
 6081SOL     OW18700   5.084   2.724   2.907
 6081SOL    HW118701   5.009   2.724   2.841
 6081SOL    HW218702   5.121   2.632   2.916
 6082SOL     OW18703   4.933   2.387   2.137
 6082SOL    HW118704   4.946   2.303   2.191
 6082SOL    HW218705   4.904   2.461   2.197
 6083SOL     OW18706   4.031   2.075   3.093
 6083SOL    HW118707   4.008   2.112   3.183
 6083SOL    HW218708   4.001   1.980   3.087
 6084SOL     OW18709   3.761   3.172   3.144
 6084SOL    HW118710   3.814   3.123   3.212
 6084SOL    HW218711   3.783   3.270   3.149
 6085SOL     OW18712   4.456   2.496   2.926
 6085SOL    HW118713   4.515   2.470   2.850
 6085SOL    HW218714   4.428   2.592   2.915
 6086SOL     OW18715   4.031   1.925   2.480
 6086SOL    HW118716   4.020   2.019   2.513
 6086SOL    HW218717   4.026   1.862   2.557
 6087SOL     OW18718   5.346   2.229   2.236
 6087SOL    HW118719   5.348   2.153   2.300
 6087SOL    HW218720   5.298   2.306   2.276
 6088SOL     OW18721   4.747   2.628   2.828
 6088SOL    HW118722   4.762   2.649   2.924
 6088SOL    HW218723   4.717   2.533   2.819
 6089SOL     OW18724   4.704   3.435   3.562
 6089SOL    HW118725   4.684   3.479   3.474
 6089SOL    HW218726   4.743   3.344   3.546
 6090SOL     OW18727   4.074   2.760   3.666
 6090SOL    HW118728   4.150   2.804   3.714
 6090SOL    HW218729   4.109   2.713   3.584
 6091SOL     OW18730   5.027   2.700   1.904
 6091SOL    HW118731   5.061   2.607   1.919
 6091SOL    HW218732   5.045   2.727   1.809
 6092SOL     OW18733   4.792   3.195   2.711
 6092SOL    HW118734   4.799   3.111   2.656
 6092SOL    HW218735   4.854   3.264   2.675
 6093SOL     OW18736   4.043   2.672   2.811
 6093SOL    HW118737   4.136   2.708   2.816
 6093SOL    HW218738   4.037   2.587   2.863
 6094SOL     OW18739   4.063   2.371   2.868
 6094SOL    HW118740   4.011   2.288   2.851
 6094SOL    HW218741   4.140   2.376   2.804
 6095SOL     OW18742   4.862   2.242   3.540
 6095SOL    HW118743   4.817   2.305   3.604
 6095SOL    HW218744   4.955   2.273   3.523
 6096SOL     OW18745   4.884   2.069   3.339
 6096SOL    HW118746   4.884   2.133   3.416
 6096SOL    HW218747   4.912   2.117   3.256
 6097SOL     OW18748   3.732   3.188   2.062
 6097SOL    HW118749   3.639   3.209   2.031
 6097SOL    HW218750   3.742   3.089   2.075
 6098SOL     OW18751   3.812   3.663   2.789
 6098SOL    HW118752   3.770   3.577   2.762
 6098SOL    HW218753   3.906   3.666   2.755
 6099SOL     OW18754   4.228   3.430   2.772
 6099SOL    HW118755   4.294   3.504   2.781
 6099SOL    HW218756   4.272   3.351   2.730
 6100SOL     OW18757   4.726   2.658   3.100
 6100SOL    HW118758   4.767   2.626   3.186
 6100SOL    HW218759   4.630   2.631   3.097
 6101SOL     OW18760   3.764   2.406   2.976
 6101SOL    HW118761   3.849   2.373   2.935
 6101SOL    HW218762   3.777   2.421   3.074
 6102SOL     OW18763   3.913   2.382   3.584
 6102SOL    HW118764   3.972   2.342   3.514
 6102SOL    HW218765   3.855   2.453   3.543
 6103SOL     OW18766   5.093   2.812   3.522
 6103SOL    HW118767   5.132   2.901   3.542
 6103SOL    HW218768   5.103   2.792   3.425
 6104SOL     OW18769   4.539   2.434   2.187
 6104SOL    HW118770   4.546   2.345   2.141
 6104SOL    HW218771   4.445   2.468   2.179
 6105SOL     OW18772   3.976   3.426   3.606
 6105SOL    HW118773   3.946   3.483   3.682
 6105SOL    HW218774   3.969   3.329   3.632
 6106SOL     OW18775   4.395   2.326   3.131
 6106SOL    HW118776   4.361   2.237   3.101
 6106SOL    HW218777   4.421   2.380   3.051
 6107SOL     OW18778   4.654   3.540   3.327
 6107SOL    HW118779   4.630   3.522   3.232
 6107SOL    HW218780   4.684   3.634   3.337
 6108SOL     OW18781   4.197   2.362   2.053
 6108SOL    HW118782   4.258   2.442   2.057
 6108SOL    HW218783   4.102   2.393   2.060
 6109SOL     OW18784   3.883   2.999   3.328
 6109SOL    HW118785   3.905   2.938   3.404
 6109SOL    HW218786   3.893   2.950   3.242
 6110SOL     OW18787   5.071   2.921   3.096
 6110SOL    HW118788   5.095   2.858   3.022
 6110SOL    HW218789   4.981   2.961   3.078
 6111SOL     OW18790   5.026   2.717   2.171
 6111SOL    HW118791   4.940   2.686   2.213
 6111SOL    HW218792   5.022   2.703   2.072
 6112SOL     OW18793   4.976   3.593   2.990
 6112SOL    HW118794   5.060   3.598   2.936
 6112SOL    HW218795   4.953   3.497   3.008
 6113SOL     OW18796   3.807   3.120   2.884
 6113SOL    HW118797   3.802   3.119   2.984
 6113SOL    HW218798   3.724   3.079   2.846
 6114SOL     OW18799   4.412   3.524   3.578
 6114SOL    HW118800   4.356   3.605   3.587
 6114SOL    HW218801   4.464   3.528   3.492
 6115SOL     OW18802   5.450   1.997   2.385
 6115SOL    HW118803   5.523   1.980   2.318
 6115SOL    HW218804   5.419   1.910   2.423
 6116SOL     OW18805   5.112   3.435   2.339
 6116SOL    HW118806   5.179   3.447   2.265
 6116SOL    HW218807   5.072   3.524   2.362
 6117SOL     OW18808   3.854   3.656   3.713
 6117SOL    HW118809   3.813   3.582   3.766
 6117SOL    HW218810   3.918   3.707   3.771
 6118SOL     OW18811   5.004   2.789   2.534
 6118SOL    HW118812   5.064   2.708   2.536
 6118SOL    HW218813   5.044   2.858   2.474
 6119SOL     OW18814   4.554   3.135   3.284
 6119SOL    HW118815   4.549   3.168   3.379
 6119SOL    HW218816   4.468   3.154   3.238
 6120SOL     OW18817   4.396   3.478   2.016
 6120SOL    HW118818   4.405   3.488   1.917
 6120SOL    HW218819   4.356   3.389   2.037
 6121SOL     OW18820   3.987   2.188   2.582
 6121SOL    HW118821   3.908   2.239   2.548
 6121SOL    HW218822   3.978   2.173   2.680
 6122SOL     OW18823   4.918   3.474   1.893
 6122SOL    HW118824   4.924   3.381   1.930
 6122SOL    HW218825   4.859   3.474   1.813
 6123SOL     OW18826   4.546   2.864   3.234
 6123SOL    HW118827   4.586   2.863   3.142
 6123SOL    HW218828   4.556   2.956   3.274
 6124SOL     OW18829   4.640   2.772   2.153
 6124SOL    HW118830   4.703   2.810   2.085
 6124SOL    HW218831   4.680   2.689   2.192
 6125SOL     OW18832   4.096   3.150   3.352
 6125SOL    HW118833   4.083   3.243   3.318
 6125SOL    HW218834   4.012   3.098   3.339
 6126SOL     OW18835   4.763   2.960   2.558
 6126SOL    HW118836   4.693   2.913   2.612
 6126SOL    HW218837   4.822   2.892   2.515
 6127SOL     OW18838   4.738   2.098   2.833
 6127SOL    HW118839   4.730   2.062   2.740
 6127SOL    HW218840   4.736   2.022   2.898
 6128SOL     OW18841   4.314   3.349   2.353
 6128SOL    HW118842   4.356   3.291   2.283
 6128SOL    HW218843   4.270   3.428   2.309
 6129SOL     OW18844   3.979   3.210   2.152
 6129SOL    HW118845   3.883   3.211   2.125
 6129SOL    HW218846   3.991   3.263   2.236
 6130SOL     OW18847   3.829   2.875   3.588
 6130SOL    HW118848   3.752   2.842   3.642
 6130SOL    HW218849   3.914   2.845   3.630
 6131SOL     OW18850   4.396   2.065   3.351
 6131SOL    HW118851   4.486   2.049   3.311
 6131SOL    HW218852   4.404   2.070   3.450
 6132SOL     OW18853   3.799   2.207   1.895
 6132SOL    HW118854   3.707   2.179   1.866
 6132SOL    HW218855   3.830   2.284   1.839
 6133SOL     OW18856   5.164   2.718   3.260
 6133SOL    HW118857   5.107   2.770   3.197
 6133SOL    HW218858   5.260   2.730   3.236
 6134SOL     OW18859   3.796   2.028   2.180
 6134SOL    HW118860   3.779   2.111   2.126
 6134SOL    HW218861   3.886   1.991   2.158
 6135SOL     OW18862   4.907   3.197   1.981
 6135SOL    HW118863   4.808   3.186   1.983
 6135SOL    HW218864   4.941   3.212   2.074
 6136SOL     OW18865   4.337   2.704   3.293
 6136SOL    HW118866   4.393   2.785   3.276
 6136SOL    HW218867   4.396   2.624   3.296
 6137SOL     OW18868   4.440   2.427   3.570
 6137SOL    HW118869   4.459   2.492   3.644
 6137SOL    HW218870   4.500   2.347   3.579
 6138SOL     OW18871   5.174   3.082   3.495
 6138SOL    HW118872   5.165   3.072   3.594
 6138SOL    HW218873   5.270   3.075   3.469
 6139SOL     OW18874   4.114   3.603   3.422
 6139SOL    HW118875   4.023   3.644   3.420
 6139SOL    HW218876   4.107   3.509   3.454
 6140SOL     OW18877   4.949   2.187   2.311
 6140SOL    HW118878   5.014   2.113   2.300
 6140SOL    HW218879   4.969   2.237   2.395
 6141SOL     OW18880   4.318   2.607   2.514
 6141SOL    HW118881   4.368   2.692   2.495
 6141SOL    HW218882   4.230   2.609   2.466
 6142SOL     OW18883   4.583   3.236   1.878
 6142SOL    HW118884   4.537   3.251   1.966
 6142SOL    HW218885   4.627   3.321   1.848
 6143SOL     OW18886   4.385   3.652   2.815
 6143SOL    HW118887   4.339   3.740   2.802
 6143SOL    HW218888   4.484   3.664   2.808
 6144SOL     OW18889   4.583   2.818   2.723
 6144SOL    HW118890   4.637   2.749   2.771
 6144SOL    HW218891   4.551   2.887   2.789
 6145SOL     OW18892   4.807   2.846   1.949
 6145SOL    HW118893   4.784   2.899   1.867
 6145SOL    HW218894   4.888   2.790   1.930
 6146SOL     OW18895   3.945   3.176   3.706
 6146SOL    HW118896   3.880   3.103   3.685
 6146SOL    HW218897   3.949   3.190   3.804
 6147SOL     OW18898   3.803   3.102   2.515
 6147SOL    HW118899   3.802   3.055   2.603
 6147SOL    HW218900   3.885   3.074   2.464
 6148SOL     OW18901   4.396   3.253   3.486
 6148SOL    HW118902   4.318   3.203   3.524
 6148SOL    HW218903   4.393   3.348   3.517
 6149SOL     OW18904   4.152   2.286   2.382
 6149SOL    HW118905   4.182   2.214   2.320
 6149SOL    HW218906   4.113   2.246   2.465
 6150SOL     OW18907   5.429   3.349   2.966
 6150SOL    HW118908   5.336   3.324   2.939
 6150SOL    HW218909   5.455   3.299   3.048
 6151SOL     OW18910   4.041   2.409   3.142
 6151SOL    HW118911   4.079   2.350   3.214
 6151SOL    HW218912   4.081   2.383   3.054
 6152SOL     OW18913   4.536   3.448   2.549
 6152SOL    HW118914   4.568   3.458   2.455
 6152SOL    HW218915   4.457   3.386   2.551
 6153SOL     OW18916   5.148   2.076   2.974
 6153SOL    HW118917   5.200   2.011   3.029
 6153SOL    HW218918   5.099   2.139   3.035
 6154SOL     OW18919   4.725   1.896   3.016
 6154SOL    HW118920   4.662   1.824   2.985
 6154SOL    HW218921   4.818   1.860   3.016
 6155SOL     OW18922   4.494   3.192   2.163
 6155SOL    HW118923   4.448   3.105   2.180
 6155SOL    HW218924   4.585   3.189   2.204
 6156SOL     OW18925   4.342   3.429   3.146
 6156SOL    HW118926   4.337   3.511   3.203
 6156SOL    HW218927   4.431   3.426   3.101
 6157SOL     OW18928   5.076   1.914   2.030
 6157SOL    HW118929   5.111   1.873   1.946
 6157SOL    HW218930   4.986   1.876   2.050
 6158SOL     OW18931   5.024   2.315   2.553
 6158SOL    HW118932   4.965   2.395   2.557
 6158SOL    HW218933   5.039   2.280   2.646
 6159SOL     OW18934   5.317   2.083   2.744
 6159SOL    HW118935   5.233   2.082   2.798
 6159SOL    HW218936   5.319   2.166   2.688
 6160SOL     OW18937   3.763   2.939   2.162
 6160SOL    HW118938   3.862   2.928   2.153
 6160SOL    HW218939   3.723   2.853   2.194
 6161SOL     OW18940   4.599   3.508   2.199
 6161SOL    HW118941   4.522   3.473   2.145
 6161SOL    HW218942   4.567   3.579   2.261
 6162SOL     OW18943   3.954   2.490   3.837
 6162SOL    HW118944   3.861   2.488   3.874
 6162SOL    HW218945   3.955   2.451   3.745
 6163SOL     OW18946   3.949   2.137   4.720
 6163SOL    HW118947   3.984   2.120   4.812
 6163SOL    HW218948   3.861   2.092   4.708
 6164SOL     OW18949   3.743   2.230   4.371
 6164SOL    HW118950   3.661   2.273   4.410
 6164SOL    HW218951   3.715   2.157   4.308
 6165SOL     OW18952   4.293   3.137   4.889
 6165SOL    HW118953   4.200   3.130   4.852
 6165SOL    HW218954   4.304   3.226   4.933
 6166SOL     OW18955   5.279   3.373   4.427
 6166SOL    HW118956   5.222   3.357   4.508
 6166SOL    HW218957   5.220   3.383   4.347
 6167SOL     OW18958   4.859   2.565   4.441
 6167SOL    HW118959   4.916   2.643   4.416
 6167SOL    HW218960   4.799   2.591   4.517
 6168SOL     OW18961   4.492   3.006   4.747
 6168SOL    HW118962   4.414   3.023   4.807
 6168SOL    HW218963   4.526   3.093   4.711
 6169SOL     OW18964   4.574   2.660   5.547
 6169SOL    HW118965   4.570   2.736   5.612
 6169SOL    HW218966   4.596   2.696   5.456
 6170SOL     OW18967   4.409   2.874   4.389
 6170SOL    HW118968   4.478   2.858   4.459
 6170SOL    HW218969   4.336   2.931   4.427
 6171SOL     OW18970   4.410   3.023   5.527
 6171SOL    HW118971   4.470   3.102   5.541
 6171SOL    HW218972   4.324   3.054   5.486
 6172SOL     OW18973   4.059   3.297   4.785
 6172SOL    HW118974   3.981   3.266   4.732
 6172SOL    HW218975   4.117   3.355   4.728
 6173SOL     OW18976   5.184   3.367   5.063
 6173SOL    HW118977   5.208   3.461   5.089
 6173SOL    HW218978   5.168   3.313   5.145
 6174SOL     OW18979   4.162   2.254   5.223
 6174SOL    HW118980   4.244   2.198   5.232
 6174SOL    HW218981   4.081   2.196   5.227
 6175SOL     OW18982   3.955   3.575   4.207
 6175SOL    HW118983   3.989   3.652   4.261
 6175SOL    HW218984   3.999   3.575   4.117
 6176SOL     OW18985   4.851   3.203   5.414
 6176SOL    HW118986   4.898   3.203   5.502
 6176SOL    HW218987   4.803   3.116   5.403
 6177SOL     OW18988   3.954   3.296   4.262
 6177SOL    HW118989   3.928   3.392   4.262
 6177SOL    HW218990   3.883   3.242   4.307
 6178SOL     OW18991   3.964   2.953   4.610
 6178SOL    HW118992   3.978   2.869   4.662
 6178SOL    HW218993   3.909   3.017   4.665
 6179SOL     OW18994   4.344   3.648   5.163
 6179SOL    HW118995   4.252   3.631   5.198
 6179SOL    HW218996   4.372   3.740   5.189
 6180SOL     OW18997   4.330   2.826   3.847
 6180SOL    HW118998   4.337   2.910   3.793
 6180SOL    HW218999   4.376   2.839   3.935
 6181SOL     OW19000   3.846   2.505   4.287
 6181SOL    HW119001   3.801   2.417   4.304
 6181SOL    HW219002   3.845   2.559   4.371
 6182SOL     OW19003   3.751   3.458   3.841
 6182SOL    HW119004   3.732   3.362   3.862
 6182SOL    HW219005   3.718   3.516   3.916
 6183SOL     OW19006   5.413   2.784   4.336
 6183SOL    HW119007   5.508   2.755   4.344
 6183SOL    HW219008   5.405   2.849   4.261
 6184SOL     OW19009   3.837   2.599   5.321
 6184SOL    HW119010   3.925   2.586   5.366
 6184SOL    HW219011   3.824   2.696   5.299
 6185SOL     OW19012   4.337   3.227   4.450
 6185SOL    HW119013   4.288   3.140   4.459
 6185SOL    HW219014   4.314   3.270   4.363
 6186SOL     OW19015   5.017   3.090   5.147
 6186SOL    HW119016   5.054   3.017   5.089
 6186SOL    HW219017   5.069   3.095   5.232
 6187SOL     OW19018   4.533   1.866   4.226
 6187SOL    HW119019   4.573   1.957   4.217
 6187SOL    HW219020   4.433   1.874   4.232
 6188SOL     OW19021   3.921   2.838   4.988
 6188SOL    HW119022   4.010   2.793   4.974
 6188SOL    HW219023   3.848   2.773   4.969
 6189SOL     OW19024   4.911   3.654   5.340
 6189SOL    HW119025   4.935   3.714   5.264
 6189SOL    HW219026   4.918   3.559   5.310
 6190SOL     OW19027   4.041   2.113   5.525
 6190SOL    HW119028   4.112   2.184   5.531
 6190SOL    HW219029   3.953   2.152   5.553
 6191SOL     OW19030   5.190   3.279   4.677
 6191SOL    HW119031   5.131   3.285   4.757
 6191SOL    HW219032   5.175   3.191   4.631
 6192SOL     OW19033   4.322   2.591   3.994
 6192SOL    HW119034   4.346   2.660   3.926
 6192SOL    HW219035   4.244   2.624   4.048
 6193SOL     OW19036   5.005   2.207   4.668
 6193SOL    HW119037   4.919   2.157   4.655
 6193SOL    HW219038   5.067   2.153   4.724
 6194SOL     OW19039   4.531   2.467   5.189
 6194SOL    HW119040   4.484   2.464   5.278
 6194SOL    HW219041   4.480   2.412   5.123
 6195SOL     OW19042   5.118   2.331   5.398
 6195SOL    HW119043   5.098   2.374   5.486
 6195SOL    HW219044   5.196   2.269   5.407
 6196SOL     OW19045   4.697   2.752   5.296
 6196SOL    HW119046   4.743   2.668   5.267
 6196SOL    HW219047   4.641   2.786   5.221
 6197SOL     OW19048   4.715   2.272   4.966
 6197SOL    HW119049   4.638   2.306   5.020
 6197SOL    HW219050   4.681   2.221   4.887
 6198SOL     OW19051   4.765   2.563   4.153
 6198SOL    HW119052   4.791   2.559   4.249
 6198SOL    HW219053   4.680   2.512   4.139
 6199SOL     OW19054   3.800   2.673   4.513
 6199SOL    HW119055   3.899   2.661   4.522
 6199SOL    HW219056   3.776   2.768   4.534
 6200SOL     OW19057   3.854   3.683   5.295
 6200SOL    HW119058   3.844   3.668   5.394
 6200SOL    HW219059   3.768   3.719   5.259
 6201SOL     OW19060   4.589   2.210   3.919
 6201SOL    HW119061   4.648   2.273   3.870
 6201SOL    HW219062   4.608   2.116   3.890
 6202SOL     OW19063   5.086   3.006   4.269
 6202SOL    HW119064   5.169   2.977   4.221
 6202SOL    HW219065   5.037   3.073   4.213
 6203SOL     OW19066   4.274   2.058   4.609
 6203SOL    HW119067   4.269   2.053   4.709
 6203SOL    HW219068   4.276   2.154   4.580
 6204SOL     OW19069   4.732   3.318   4.201
 6204SOL    HW119070   4.686   3.390   4.149
 6204SOL    HW219071   4.728   3.338   4.299
 6205SOL     OW19072   4.075   3.663   4.577
 6205SOL    HW119073   4.125   3.577   4.583
 6205SOL    HW219074   4.140   3.740   4.574
 6206SOL     OW19075   4.951   3.412   5.230
 6206SOL    HW119076   4.957   3.335   5.294
 6206SOL    HW219077   4.899   3.386   5.150
 6207SOL     OW19078   4.045   2.805   3.966
 6207SOL    HW119079   4.127   2.844   3.924
 6207SOL    HW219080   4.018   2.723   3.917
 6208SOL     OW19081   4.185   3.128   5.451
 6208SOL    HW119082   4.135   3.129   5.365
 6208SOL    HW219083   4.122   3.110   5.527
 6209SOL     OW19084   4.835   3.638   3.961
 6209SOL    HW119085   4.775   3.576   4.011
 6209SOL    HW219086   4.866   3.594   3.876
 6210SOL     OW19087   3.926   2.147   5.222
 6210SOL    HW119088   3.846   2.207   5.209
 6210SOL    HW219089   3.916   2.098   5.308
 6211SOL     OW19090   4.188   3.605   4.047
 6211SOL    HW119091   4.221   3.644   4.133
 6211SOL    HW219092   4.264   3.598   3.982
 6212SOL     OW19093   5.124   1.969   4.150
 6212SOL    HW119094   5.100   1.932   4.060
 6212SOL    HW219095   5.223   1.985   4.154
 6213SOL     OW19096   3.973   3.647   4.965
 6213SOL    HW119097   4.030   3.582   5.015
 6213SOL    HW219098   3.957   3.614   4.872
 6214SOL     OW19099   4.664   3.560   4.628
 6214SOL    HW119100   4.744   3.503   4.649
 6214SOL    HW219101   4.615   3.520   4.551
 6215SOL     OW19102   4.106   2.562   4.204
 6215SOL    HW119103   4.151   2.472   4.201
 6215SOL    HW219104   4.012   2.551   4.237
 6216SOL     OW19105   4.338   1.984   3.841
 6216SOL    HW119106   4.436   1.962   3.848
 6216SOL    HW219107   4.307   1.967   3.748
 6217SOL     OW19108   4.505   2.126   5.473
 6217SOL    HW119109   4.572   2.065   5.516
 6217SOL    HW219110   4.432   2.145   5.538
 6218SOL     OW19111   4.612   3.376   4.919
 6218SOL    HW119112   4.589   3.351   4.825
 6218SOL    HW219113   4.673   3.307   4.958
 6219SOL     OW19114   5.075   2.452   5.157
 6219SOL    HW119115   5.103   2.409   5.242
 6219SOL    HW219116   5.100   2.548   5.158
 6220SOL     OW19117   4.527   3.264   4.648
 6220SOL    HW119118   4.617   3.278   4.606
 6220SOL    HW219119   4.456   3.266   4.577
 6221SOL     OW19120   4.646   2.365   4.623
 6221SOL    HW119121   4.621   2.356   4.527
 6221SOL    HW219122   4.694   2.283   4.654
 6222SOL     OW19123   4.263   1.926   4.236
 6222SOL    HW119124   4.182   1.927   4.294
 6222SOL    HW219125   4.266   2.009   4.181
 6223SOL     OW19126   5.158   3.050   3.765
 6223SOL    HW119127   5.190   2.974   3.822
 6223SOL    HW219128   5.066   3.077   3.795
 6224SOL     OW19129   4.021   1.897   3.895
 6224SOL    HW119130   4.070   1.981   3.874
 6224SOL    HW219131   4.083   1.832   3.940
 6225SOL     OW19132   4.659   2.098   4.204
 6225SOL    HW119133   4.611   2.139   4.126
 6225SOL    HW219134   4.758   2.096   4.185
 6226SOL     OW19135   4.800   2.545   5.188
 6226SOL    HW119136   4.720   2.484   5.191
 6226SOL    HW219137   4.881   2.492   5.164
 6227SOL     OW19138   4.951   3.432   4.517
 6227SOL    HW119139   4.972   3.506   4.452
 6227SOL    HW219140   5.019   3.432   4.590
 6228SOL     OW19141   4.183   3.014   4.465
 6228SOL    HW119142   4.112   2.987   4.530
 6228SOL    HW219143   4.157   2.986   4.372
 6229SOL     OW19144   4.995   3.659   4.315
 6229SOL    HW119145   5.039   3.723   4.251
 6229SOL    HW219146   4.945   3.711   4.385
 6230SOL     OW19147   4.756   2.411   3.740
 6230SOL    HW119148   4.715   2.493   3.701
 6230SOL    HW219149   4.820   2.437   3.813
 6231SOL     OW19150   3.802   2.418   5.110
 6231SOL    HW119151   3.894   2.417   5.069
 6231SOL    HW219152   3.796   2.492   5.177
 6232SOL     OW19153   4.285   2.084   4.871
 6232SOL    HW119154   4.323   2.000   4.908
 6232SOL    HW219155   4.197   2.103   4.915
 6233SOL     OW19156   4.590   2.316   4.366
 6233SOL    HW119157   4.558   2.388   4.304
 6233SOL    HW219158   4.614   2.235   4.313
 6234SOL     OW19159   4.741   1.901   4.477
 6234SOL    HW119160   4.669   1.906   4.408
 6234SOL    HW219161   4.717   1.832   4.546
 6235SOL     OW19162   5.153   3.035   4.591
 6235SOL    HW119163   5.098   2.951   4.584
 6235SOL    HW219164   5.179   3.064   4.499
 6236SOL     OW19165   4.212   3.247   3.898
 6236SOL    HW119166   4.125   3.232   3.945
 6236SOL    HW219167   4.195   3.273   3.803
 6237SOL     OW19168   5.114   2.437   3.802
 6237SOL    HW119169   5.060   2.416   3.883
 6237SOL    HW219170   5.205   2.396   3.811
 6238SOL     OW19171   4.251   2.118   4.052
 6238SOL    HW119172   4.278   2.059   3.977
 6238SOL    HW219173   4.251   2.213   4.021
 6239SOL     OW19174   4.788   3.209   5.064
 6239SOL    HW119175   4.708   3.186   5.119
 6239SOL    HW219176   4.871   3.183   5.113
 6240SOL     OW19177   5.316   3.491   5.349
 6240SOL    HW119178   5.343   3.525   5.259
 6240SOL    HW219179   5.395   3.453   5.395
 6241SOL     OW19180   4.835   3.057   4.824
 6241SOL    HW119181   4.795   3.101   4.905
 6241SOL    HW219182   4.794   3.094   4.741
 6242SOL     OW19183   4.639   1.951   5.126
 6242SOL    HW119184   4.664   1.931   5.031
 6242SOL    HW219185   4.711   2.007   5.168
 6243SOL     OW19186   4.704   2.978   5.443
 6243SOL    HW119187   4.605   2.984   5.453
 6243SOL    HW219188   4.727   2.898   5.387
 6244SOL     OW19189   4.429   2.912   4.092
 6244SOL    HW119190   4.415   2.919   4.191
 6244SOL    HW219191   4.513   2.861   4.074
 6245SOL     OW19192   4.134   2.675   4.975
 6245SOL    HW119193   4.220   2.687   5.025
 6245SOL    HW219194   4.092   2.588   5.002
 6246SOL     OW19195   4.998   2.248   4.986
 6246SOL    HW119196   5.019   2.322   5.050
 6246SOL    HW219197   4.909   2.265   4.943
 6247SOL     OW19198   3.788   3.426   5.055
 6247SOL    HW119199   3.742   3.508   5.021
 6247SOL    HW219200   3.886   3.445   5.064
 6248SOL     OW19201   4.091   2.962   4.225
 6248SOL    HW119202   4.084   3.045   4.169
 6248SOL    HW219203   4.095   2.882   4.165
 6249SOL     OW19204   4.290   2.399   4.589
 6249SOL    HW119205   4.302   2.465   4.515
 6249SOL    HW219206   4.336   2.433   4.672
 6250SOL     OW19207   4.976   3.210   4.112
 6250SOL    HW119208   5.026   3.287   4.152
 6250SOL    HW219209   4.881   3.212   4.144
 6251SOL     OW19210   4.996   3.307   4.866
 6251SOL    HW119211   5.043   3.320   4.953
 6251SOL    HW219212   4.930   3.233   4.875
 6252SOL     OW19213   4.078   3.372   5.053
 6252SOL    HW119214   4.057   3.328   4.966
 6252SOL    HW219215   4.175   3.398   5.056
 6253SOL     OW19216   4.126   2.613   5.322
 6253SOL    HW119217   4.194   2.668   5.275
 6253SOL    HW219218   4.166   2.525   5.349
 6254SOL     OW19219   4.737   1.967   5.494
 6254SOL    HW119220   4.743   2.052   5.442
 6254SOL    HW219221   4.769   1.891   5.437
 6255SOL     OW19222   4.228   1.912   5.464
 6255SOL    HW119223   4.186   1.855   5.394
 6255SOL    HW219224   4.162   1.981   5.496
 6256SOL     OW19225   4.297   2.732   4.753
 6256SOL    HW119226   4.341   2.821   4.744
 6256SOL    HW219227   4.234   2.732   4.830
 6257SOL     OW19228   5.084   2.724   4.769
 6257SOL    HW119229   5.009   2.724   4.703
 6257SOL    HW219230   5.121   2.632   4.778
 6258SOL     OW19231   4.933   2.387   3.999
 6258SOL    HW119232   4.946   2.303   4.053
 6258SOL    HW219233   4.904   2.461   4.059
 6259SOL     OW19234   4.031   2.075   4.955
 6259SOL    HW119235   4.008   2.112   5.045
 6259SOL    HW219236   4.001   1.980   4.949
 6260SOL     OW19237   3.761   3.172   5.006
 6260SOL    HW119238   3.814   3.123   5.074
 6260SOL    HW219239   3.783   3.270   5.011
 6261SOL     OW19240   4.456   2.496   4.788
 6261SOL    HW119241   4.515   2.470   4.712
 6261SOL    HW219242   4.428   2.592   4.777
 6262SOL     OW19243   4.031   1.925   4.342
 6262SOL    HW119244   4.020   2.019   4.375
 6262SOL    HW219245   4.026   1.862   4.419
 6263SOL     OW19246   5.346   2.229   4.098
 6263SOL    HW119247   5.348   2.153   4.162
 6263SOL    HW219248   5.298   2.306   4.138
 6264SOL     OW19249   4.747   2.628   4.690
 6264SOL    HW119250   4.762   2.649   4.786
 6264SOL    HW219251   4.717   2.533   4.681
 6265SOL     OW19252   4.704   3.435   5.424
 6265SOL    HW119253   4.684   3.479   5.336
 6265SOL    HW219254   4.743   3.344   5.408
 6266SOL     OW19255   4.074   2.760   5.528
 6266SOL    HW119256   4.150   2.804   5.576
 6266SOL    HW219257   4.109   2.713   5.446
 6267SOL     OW19258   5.027   2.700   3.766
 6267SOL    HW119259   5.061   2.607   3.781
 6267SOL    HW219260   5.045   2.727   3.671
 6268SOL     OW19261   4.792   3.195   4.573
 6268SOL    HW119262   4.799   3.111   4.518
 6268SOL    HW219263   4.854   3.264   4.537
 6269SOL     OW19264   4.043   2.672   4.673
 6269SOL    HW119265   4.136   2.708   4.678
 6269SOL    HW219266   4.037   2.587   4.725
 6270SOL     OW19267   4.063   2.371   4.730
 6270SOL    HW119268   4.011   2.288   4.713
 6270SOL    HW219269   4.140   2.376   4.666
 6271SOL     OW19270   4.862   2.242   5.402
 6271SOL    HW119271   4.817   2.305   5.466
 6271SOL    HW219272   4.955   2.273   5.385
 6272SOL     OW19273   4.884   2.069   5.201
 6272SOL    HW119274   4.884   2.133   5.278
 6272SOL    HW219275   4.912   2.117   5.118
 6273SOL     OW19276   3.732   3.188   3.924
 6273SOL    HW119277   3.639   3.209   3.893
 6273SOL    HW219278   3.742   3.089   3.937
 6274SOL     OW19279   3.812   3.663   4.651
 6274SOL    HW119280   3.770   3.577   4.624
 6274SOL    HW219281   3.906   3.666   4.617
 6275SOL     OW19282   4.228   3.430   4.634
 6275SOL    HW119283   4.294   3.504   4.643
 6275SOL    HW219284   4.272   3.351   4.592
 6276SOL     OW19285   4.726   2.658   4.962
 6276SOL    HW119286   4.767   2.626   5.048
 6276SOL    HW219287   4.630   2.631   4.959
 6277SOL     OW19288   3.764   2.406   4.838
 6277SOL    HW119289   3.849   2.373   4.797
 6277SOL    HW219290   3.777   2.421   4.936
 6278SOL     OW19291   3.913   2.382   5.446
 6278SOL    HW119292   3.972   2.342   5.376
 6278SOL    HW219293   3.855   2.453   5.405
 6279SOL     OW19294   5.093   2.812   5.384
 6279SOL    HW119295   5.132   2.901   5.404
 6279SOL    HW219296   5.103   2.792   5.287
 6280SOL     OW19297   4.539   2.434   4.049
 6280SOL    HW119298   4.546   2.345   4.003
 6280SOL    HW219299   4.445   2.468   4.041
 6281SOL     OW19300   3.976   3.426   5.468
 6281SOL    HW119301   3.946   3.483   5.544
 6281SOL    HW219302   3.969   3.329   5.494
 6282SOL     OW19303   4.395   2.326   4.993
 6282SOL    HW119304   4.361   2.237   4.963
 6282SOL    HW219305   4.421   2.380   4.913
 6283SOL     OW19306   4.654   3.540   5.189
 6283SOL    HW119307   4.630   3.522   5.094
 6283SOL    HW219308   4.684   3.634   5.199
 6284SOL     OW19309   4.197   2.362   3.915
 6284SOL    HW119310   4.258   2.442   3.919
 6284SOL    HW219311   4.102   2.393   3.922
 6285SOL     OW19312   3.883   2.999   5.190
 6285SOL    HW119313   3.905   2.938   5.266
 6285SOL    HW219314   3.893   2.950   5.104
 6286SOL     OW19315   5.071   2.921   4.958
 6286SOL    HW119316   5.095   2.858   4.884
 6286SOL    HW219317   4.981   2.961   4.940
 6287SOL     OW19318   5.026   2.717   4.033
 6287SOL    HW119319   4.940   2.686   4.075
 6287SOL    HW219320   5.022   2.703   3.934
 6288SOL     OW19321   4.976   3.593   4.852
 6288SOL    HW119322   5.060   3.598   4.798
 6288SOL    HW219323   4.953   3.497   4.870
 6289SOL     OW19324   3.807   3.120   4.746
 6289SOL    HW119325   3.802   3.119   4.846
 6289SOL    HW219326   3.724   3.079   4.708
 6290SOL     OW19327   4.412   3.524   5.440
 6290SOL    HW119328   4.356   3.605   5.449
 6290SOL    HW219329   4.464   3.528   5.354
 6291SOL     OW19330   5.450   1.997   4.247
 6291SOL    HW119331   5.523   1.980   4.180
 6291SOL    HW219332   5.419   1.910   4.285
 6292SOL     OW19333   5.112   3.435   4.201
 6292SOL    HW119334   5.179   3.447   4.127
 6292SOL    HW219335   5.072   3.524   4.224
 6293SOL     OW19336   3.854   3.656   5.575
 6293SOL    HW119337   3.813   3.582   5.628
 6293SOL    HW219338   3.918   3.707   5.633
 6294SOL     OW19339   5.004   2.789   4.396
 6294SOL    HW119340   5.064   2.708   4.398
 6294SOL    HW219341   5.044   2.858   4.336
 6295SOL     OW19342   4.554   3.135   5.146
 6295SOL    HW119343   4.549   3.168   5.241
 6295SOL    HW219344   4.468   3.154   5.100
 6296SOL     OW19345   4.396   3.478   3.878
 6296SOL    HW119346   4.405   3.488   3.779
 6296SOL    HW219347   4.356   3.389   3.899
 6297SOL     OW19348   3.987   2.188   4.444
 6297SOL    HW119349   3.908   2.239   4.410
 6297SOL    HW219350   3.978   2.173   4.542
 6298SOL     OW19351   4.918   3.474   3.755
 6298SOL    HW119352   4.924   3.381   3.792
 6298SOL    HW219353   4.859   3.474   3.675
 6299SOL     OW19354   4.546   2.864   5.096
 6299SOL    HW119355   4.586   2.863   5.004
 6299SOL    HW219356   4.556   2.956   5.136
 6300SOL     OW19357   4.640   2.772   4.015
 6300SOL    HW119358   4.703   2.810   3.947
 6300SOL    HW219359   4.680   2.689   4.054
 6301SOL     OW19360   4.096   3.150   5.214
 6301SOL    HW119361   4.083   3.243   5.180
 6301SOL    HW219362   4.012   3.098   5.201
 6302SOL     OW19363   4.763   2.960   4.420
 6302SOL    HW119364   4.693   2.913   4.474
 6302SOL    HW219365   4.822   2.892   4.377
 6303SOL     OW19366   4.738   2.098   4.695
 6303SOL    HW119367   4.730   2.062   4.602
 6303SOL    HW219368   4.736   2.022   4.760
 6304SOL     OW19369   4.314   3.349   4.215
 6304SOL    HW119370   4.356   3.291   4.145
 6304SOL    HW219371   4.270   3.428   4.171
 6305SOL     OW19372   3.979   3.210   4.014
 6305SOL    HW119373   3.883   3.211   3.987
 6305SOL    HW219374   3.991   3.263   4.098
 6306SOL     OW19375   3.829   2.875   5.450
 6306SOL    HW119376   3.752   2.842   5.504
 6306SOL    HW219377   3.914   2.845   5.492
 6307SOL     OW19378   4.396   2.065   5.213
 6307SOL    HW119379   4.486   2.049   5.173
 6307SOL    HW219380   4.404   2.070   5.312
 6308SOL     OW19381   3.799   2.207   3.757
 6308SOL    HW119382   3.707   2.179   3.728
 6308SOL    HW219383   3.830   2.284   3.701
 6309SOL     OW19384   5.164   2.718   5.122
 6309SOL    HW119385   5.107   2.770   5.059
 6309SOL    HW219386   5.260   2.730   5.098
 6310SOL     OW19387   3.796   2.028   4.042
 6310SOL    HW119388   3.779   2.111   3.988
 6310SOL    HW219389   3.886   1.991   4.020
 6311SOL     OW19390   4.907   3.197   3.843
 6311SOL    HW119391   4.808   3.186   3.845
 6311SOL    HW219392   4.941   3.212   3.936
 6312SOL     OW19393   4.337   2.704   5.155
 6312SOL    HW119394   4.393   2.785   5.138
 6312SOL    HW219395   4.396   2.624   5.158
 6313SOL     OW19396   4.440   2.427   5.432
 6313SOL    HW119397   4.459   2.492   5.506
 6313SOL    HW219398   4.500   2.347   5.441
 6314SOL     OW19399   5.174   3.082   5.357
 6314SOL    HW119400   5.165   3.072   5.456
 6314SOL    HW219401   5.270   3.075   5.331
 6315SOL     OW19402   4.114   3.603   5.284
 6315SOL    HW119403   4.023   3.644   5.282
 6315SOL    HW219404   4.107   3.509   5.316
 6316SOL     OW19405   4.949   2.187   4.173
 6316SOL    HW119406   5.014   2.113   4.162
 6316SOL    HW219407   4.969   2.237   4.257
 6317SOL     OW19408   4.318   2.607   4.376
 6317SOL    HW119409   4.368   2.692   4.357
 6317SOL    HW219410   4.230   2.609   4.328
 6318SOL     OW19411   4.583   3.236   3.740
 6318SOL    HW119412   4.537   3.251   3.828
 6318SOL    HW219413   4.627   3.321   3.710
 6319SOL     OW19414   4.385   3.652   4.677
 6319SOL    HW119415   4.339   3.740   4.664
 6319SOL    HW219416   4.484   3.664   4.670
 6320SOL     OW19417   4.583   2.818   4.585
 6320SOL    HW119418   4.637   2.749   4.633
 6320SOL    HW219419   4.551   2.887   4.651
 6321SOL     OW19420   4.807   2.846   3.811
 6321SOL    HW119421   4.784   2.899   3.729
 6321SOL    HW219422   4.888   2.790   3.792
 6322SOL     OW19423   3.945   3.176   5.568
 6322SOL    HW119424   3.880   3.103   5.547
 6322SOL    HW219425   3.949   3.190   5.666
 6323SOL     OW19426   3.803   3.102   4.377
 6323SOL    HW119427   3.802   3.055   4.465
 6323SOL    HW219428   3.885   3.074   4.326
 6324SOL     OW19429   4.396   3.253   5.348
 6324SOL    HW119430   4.318   3.203   5.386
 6324SOL    HW219431   4.393   3.348   5.379
 6325SOL     OW19432   4.152   2.286   4.244
 6325SOL    HW119433   4.182   2.214   4.182
 6325SOL    HW219434   4.113   2.246   4.327
 6326SOL     OW19435   5.429   3.349   4.828
 6326SOL    HW119436   5.336   3.324   4.801
 6326SOL    HW219437   5.455   3.299   4.910
 6327SOL     OW19438   4.041   2.409   5.004
 6327SOL    HW119439   4.079   2.350   5.076
 6327SOL    HW219440   4.081   2.383   4.916
 6328SOL     OW19441   4.536   3.448   4.411
 6328SOL    HW119442   4.568   3.458   4.317
 6328SOL    HW219443   4.457   3.386   4.413
 6329SOL     OW19444   5.148   2.076   4.836
 6329SOL    HW119445   5.200   2.011   4.891
 6329SOL    HW219446   5.099   2.139   4.897
 6330SOL     OW19447   4.725   1.896   4.878
 6330SOL    HW119448   4.662   1.824   4.847
 6330SOL    HW219449   4.818   1.860   4.878
 6331SOL     OW19450   4.494   3.192   4.025
 6331SOL    HW119451   4.448   3.105   4.042
 6331SOL    HW219452   4.585   3.189   4.066
 6332SOL     OW19453   4.342   3.429   5.008
 6332SOL    HW119454   4.337   3.511   5.065
 6332SOL    HW219455   4.431   3.426   4.963
 6333SOL     OW19456   5.076   1.914   3.892
 6333SOL    HW119457   5.111   1.873   3.808
 6333SOL    HW219458   4.986   1.876   3.912
 6334SOL     OW19459   5.024   2.315   4.415
 6334SOL    HW119460   4.965   2.395   4.419
 6334SOL    HW219461   5.039   2.280   4.508
 6335SOL     OW19462   5.317   2.083   4.606
 6335SOL    HW119463   5.233   2.082   4.660
 6335SOL    HW219464   5.319   2.166   4.550
 6336SOL     OW19465   3.763   2.939   4.024
 6336SOL    HW119466   3.862   2.928   4.015
 6336SOL    HW219467   3.723   2.853   4.056
 6337SOL     OW19468   4.599   3.508   4.061
 6337SOL    HW119469   4.522   3.473   4.007
 6337SOL    HW219470   4.567   3.579   4.123
 6338SOL     OW19471   3.954   2.490   5.699
 6338SOL    HW119472   3.861   2.488   5.736
 6338SOL    HW219473   3.955   2.451   5.607
 6339SOL     OW19474   3.949   2.137   6.582
 6339SOL    HW119475   3.984   2.120   6.674
 6339SOL    HW219476   3.861   2.092   6.570
 6340SOL     OW19477   3.743   2.230   6.233
 6340SOL    HW119478   3.661   2.273   6.272
 6340SOL    HW219479   3.715   2.157   6.170
 6341SOL     OW19480   4.293   3.137   6.751
 6341SOL    HW119481   4.200   3.130   6.714
 6341SOL    HW219482   4.304   3.226   6.795
 6342SOL     OW19483   5.279   3.373   6.289
 6342SOL    HW119484   5.222   3.357   6.370
 6342SOL    HW219485   5.220   3.383   6.209
 6343SOL     OW19486   4.859   2.565   6.303
 6343SOL    HW119487   4.916   2.643   6.278
 6343SOL    HW219488   4.799   2.591   6.379
 6344SOL     OW19489   4.492   3.006   6.609
 6344SOL    HW119490   4.414   3.023   6.669
 6344SOL    HW219491   4.526   3.093   6.573
 6345SOL     OW19492   4.574   2.660   7.409
 6345SOL    HW119493   4.570   2.736   7.474
 6345SOL    HW219494   4.596   2.696   7.318
 6346SOL     OW19495   4.409   2.874   6.251
 6346SOL    HW119496   4.478   2.858   6.321
 6346SOL    HW219497   4.336   2.931   6.289
 6347SOL     OW19498   4.410   3.023   7.389
 6347SOL    HW119499   4.470   3.102   7.403
 6347SOL    HW219500   4.324   3.054   7.348
 6348SOL     OW19501   4.059   3.297   6.647
 6348SOL    HW119502   3.981   3.266   6.594
 6348SOL    HW219503   4.117   3.355   6.590
 6349SOL     OW19504   5.184   3.367   6.925
 6349SOL    HW119505   5.208   3.461   6.951
 6349SOL    HW219506   5.168   3.313   7.007
 6350SOL     OW19507   4.162   2.254   7.085
 6350SOL    HW119508   4.244   2.198   7.094
 6350SOL    HW219509   4.081   2.196   7.089
 6351SOL     OW19510   3.955   3.575   6.069
 6351SOL    HW119511   3.989   3.652   6.123
 6351SOL    HW219512   3.999   3.575   5.979
 6352SOL     OW19513   4.851   3.203   7.276
 6352SOL    HW119514   4.898   3.203   7.364
 6352SOL    HW219515   4.803   3.116   7.265
 6353SOL     OW19516   3.954   3.296   6.124
 6353SOL    HW119517   3.928   3.392   6.124
 6353SOL    HW219518   3.883   3.242   6.169
 6354SOL     OW19519   3.964   2.953   6.472
 6354SOL    HW119520   3.978   2.869   6.524
 6354SOL    HW219521   3.909   3.017   6.527
 6355SOL     OW19522   4.344   3.648   7.025
 6355SOL    HW119523   4.252   3.631   7.060
 6355SOL    HW219524   4.372   3.740   7.051
 6356SOL     OW19525   4.330   2.826   5.709
 6356SOL    HW119526   4.337   2.910   5.655
 6356SOL    HW219527   4.376   2.839   5.797
 6357SOL     OW19528   3.846   2.505   6.149
 6357SOL    HW119529   3.801   2.417   6.166
 6357SOL    HW219530   3.845   2.559   6.233
 6358SOL     OW19531   3.751   3.458   5.703
 6358SOL    HW119532   3.732   3.362   5.724
 6358SOL    HW219533   3.718   3.516   5.778
 6359SOL     OW19534   5.413   2.784   6.198
 6359SOL    HW119535   5.508   2.755   6.206
 6359SOL    HW219536   5.405   2.849   6.123
 6360SOL     OW19537   3.837   2.599   7.183
 6360SOL    HW119538   3.925   2.586   7.228
 6360SOL    HW219539   3.824   2.696   7.161
 6361SOL     OW19540   4.337   3.227   6.312
 6361SOL    HW119541   4.288   3.140   6.321
 6361SOL    HW219542   4.314   3.270   6.225
 6362SOL     OW19543   5.017   3.090   7.009
 6362SOL    HW119544   5.054   3.017   6.951
 6362SOL    HW219545   5.069   3.095   7.094
 6363SOL     OW19546   4.533   1.866   6.088
 6363SOL    HW119547   4.573   1.957   6.079
 6363SOL    HW219548   4.433   1.874   6.094
 6364SOL     OW19549   3.921   2.838   6.850
 6364SOL    HW119550   4.010   2.793   6.836
 6364SOL    HW219551   3.848   2.773   6.831
 6365SOL     OW19552   4.911   3.654   7.202
 6365SOL    HW119553   4.935   3.714   7.126
 6365SOL    HW219554   4.918   3.559   7.172
 6366SOL     OW19555   4.041   2.113   7.387
 6366SOL    HW119556   4.112   2.184   7.393
 6366SOL    HW219557   3.953   2.152   7.415
 6367SOL     OW19558   5.190   3.279   6.539
 6367SOL    HW119559   5.131   3.285   6.619
 6367SOL    HW219560   5.175   3.191   6.493
 6368SOL     OW19561   4.322   2.591   5.856
 6368SOL    HW119562   4.346   2.660   5.788
 6368SOL    HW219563   4.244   2.624   5.910
 6369SOL     OW19564   5.005   2.207   6.530
 6369SOL    HW119565   4.919   2.157   6.517
 6369SOL    HW219566   5.067   2.153   6.586
 6370SOL     OW19567   4.531   2.467   7.051
 6370SOL    HW119568   4.484   2.464   7.140
 6370SOL    HW219569   4.480   2.412   6.985
 6371SOL     OW19570   5.118   2.331   7.260
 6371SOL    HW119571   5.098   2.374   7.348
 6371SOL    HW219572   5.196   2.269   7.269
 6372SOL     OW19573   4.697   2.752   7.158
 6372SOL    HW119574   4.743   2.668   7.129
 6372SOL    HW219575   4.641   2.786   7.083
 6373SOL     OW19576   4.715   2.272   6.828
 6373SOL    HW119577   4.638   2.306   6.882
 6373SOL    HW219578   4.681   2.221   6.749
 6374SOL     OW19579   4.765   2.563   6.015
 6374SOL    HW119580   4.791   2.559   6.111
 6374SOL    HW219581   4.680   2.512   6.001
 6375SOL     OW19582   3.800   2.673   6.375
 6375SOL    HW119583   3.899   2.661   6.384
 6375SOL    HW219584   3.776   2.768   6.396
 6376SOL     OW19585   3.854   3.683   7.157
 6376SOL    HW119586   3.844   3.668   7.256
 6376SOL    HW219587   3.768   3.719   7.121
 6377SOL     OW19588   4.589   2.210   5.781
 6377SOL    HW119589   4.648   2.273   5.732
 6377SOL    HW219590   4.608   2.116   5.752
 6378SOL     OW19591   5.086   3.006   6.131
 6378SOL    HW119592   5.169   2.977   6.083
 6378SOL    HW219593   5.037   3.073   6.075
 6379SOL     OW19594   4.274   2.058   6.471
 6379SOL    HW119595   4.269   2.053   6.571
 6379SOL    HW219596   4.276   2.154   6.442
 6380SOL     OW19597   4.732   3.318   6.063
 6380SOL    HW119598   4.686   3.390   6.011
 6380SOL    HW219599   4.728   3.338   6.161
 6381SOL     OW19600   4.075   3.663   6.439
 6381SOL    HW119601   4.125   3.577   6.445
 6381SOL    HW219602   4.140   3.740   6.436
 6382SOL     OW19603   4.951   3.412   7.092
 6382SOL    HW119604   4.957   3.335   7.156
 6382SOL    HW219605   4.899   3.386   7.012
 6383SOL     OW19606   4.045   2.805   5.828
 6383SOL    HW119607   4.127   2.844   5.786
 6383SOL    HW219608   4.018   2.723   5.779
 6384SOL     OW19609   4.185   3.128   7.313
 6384SOL    HW119610   4.135   3.129   7.227
 6384SOL    HW219611   4.122   3.110   7.389
 6385SOL     OW19612   4.835   3.638   5.823
 6385SOL    HW119613   4.775   3.576   5.873
 6385SOL    HW219614   4.866   3.594   5.738
 6386SOL     OW19615   3.926   2.147   7.084
 6386SOL    HW119616   3.846   2.207   7.071
 6386SOL    HW219617   3.916   2.098   7.170
 6387SOL     OW19618   4.188   3.605   5.909
 6387SOL    HW119619   4.221   3.644   5.995
 6387SOL    HW219620   4.264   3.598   5.844
 6388SOL     OW19621   5.124   1.969   6.012
 6388SOL    HW119622   5.100   1.932   5.922
 6388SOL    HW219623   5.223   1.985   6.016
 6389SOL     OW19624   3.973   3.647   6.827
 6389SOL    HW119625   4.030   3.582   6.877
 6389SOL    HW219626   3.957   3.614   6.734
 6390SOL     OW19627   4.664   3.560   6.490
 6390SOL    HW119628   4.744   3.503   6.511
 6390SOL    HW219629   4.615   3.520   6.413
 6391SOL     OW19630   4.106   2.562   6.066
 6391SOL    HW119631   4.151   2.472   6.063
 6391SOL    HW219632   4.012   2.551   6.099
 6392SOL     OW19633   4.338   1.984   5.703
 6392SOL    HW119634   4.436   1.962   5.710
 6392SOL    HW219635   4.307   1.967   5.610
 6393SOL     OW19636   4.505   2.126   7.335
 6393SOL    HW119637   4.572   2.065   7.378
 6393SOL    HW219638   4.432   2.145   7.400
 6394SOL     OW19639   4.612   3.376   6.781
 6394SOL    HW119640   4.589   3.351   6.687
 6394SOL    HW219641   4.673   3.307   6.820
 6395SOL     OW19642   5.075   2.452   7.019
 6395SOL    HW119643   5.103   2.409   7.104
 6395SOL    HW219644   5.100   2.548   7.020
 6396SOL     OW19645   4.527   3.264   6.510
 6396SOL    HW119646   4.617   3.278   6.468
 6396SOL    HW219647   4.456   3.266   6.439
 6397SOL     OW19648   4.646   2.365   6.485
 6397SOL    HW119649   4.621   2.356   6.389
 6397SOL    HW219650   4.694   2.283   6.516
 6398SOL     OW19651   4.263   1.926   6.098
 6398SOL    HW119652   4.182   1.927   6.156
 6398SOL    HW219653   4.266   2.009   6.043
 6399SOL     OW19654   5.158   3.050   5.627
 6399SOL    HW119655   5.190   2.974   5.684
 6399SOL    HW219656   5.066   3.077   5.657
 6400SOL     OW19657   4.021   1.897   5.757
 6400SOL    HW119658   4.070   1.981   5.736
 6400SOL    HW219659   4.083   1.832   5.802
 6401SOL     OW19660   4.659   2.098   6.066
 6401SOL    HW119661   4.611   2.139   5.988
 6401SOL    HW219662   4.758   2.096   6.047
 6402SOL     OW19663   4.800   2.545   7.050
 6402SOL    HW119664   4.720   2.484   7.053
 6402SOL    HW219665   4.881   2.492   7.026
 6403SOL     OW19666   4.951   3.432   6.379
 6403SOL    HW119667   4.972   3.506   6.314
 6403SOL    HW219668   5.019   3.432   6.452
 6404SOL     OW19669   4.183   3.014   6.327
 6404SOL    HW119670   4.112   2.987   6.392
 6404SOL    HW219671   4.157   2.986   6.234
 6405SOL     OW19672   4.995   3.659   6.177
 6405SOL    HW119673   5.039   3.723   6.113
 6405SOL    HW219674   4.945   3.711   6.247
 6406SOL     OW19675   4.756   2.411   5.602
 6406SOL    HW119676   4.715   2.493   5.563
 6406SOL    HW219677   4.820   2.437   5.675
 6407SOL     OW19678   3.802   2.418   6.972
 6407SOL    HW119679   3.894   2.417   6.931
 6407SOL    HW219680   3.796   2.492   7.039
 6408SOL     OW19681   4.285   2.084   6.733
 6408SOL    HW119682   4.323   2.000   6.770
 6408SOL    HW219683   4.197   2.103   6.777
 6409SOL     OW19684   4.590   2.316   6.228
 6409SOL    HW119685   4.558   2.388   6.166
 6409SOL    HW219686   4.614   2.235   6.175
 6410SOL     OW19687   4.741   1.901   6.339
 6410SOL    HW119688   4.669   1.906   6.270
 6410SOL    HW219689   4.717   1.832   6.408
 6411SOL     OW19690   5.153   3.035   6.453
 6411SOL    HW119691   5.098   2.951   6.446
 6411SOL    HW219692   5.179   3.064   6.361
 6412SOL     OW19693   4.212   3.247   5.760
 6412SOL    HW119694   4.125   3.232   5.807
 6412SOL    HW219695   4.195   3.273   5.665
 6413SOL     OW19696   5.114   2.437   5.664
 6413SOL    HW119697   5.060   2.416   5.745
 6413SOL    HW219698   5.205   2.396   5.673
 6414SOL     OW19699   4.251   2.118   5.914
 6414SOL    HW119700   4.278   2.059   5.839
 6414SOL    HW219701   4.251   2.213   5.883
 6415SOL     OW19702   4.788   3.209   6.926
 6415SOL    HW119703   4.708   3.186   6.981
 6415SOL    HW219704   4.871   3.183   6.975
 6416SOL     OW19705   5.316   3.491   7.211
 6416SOL    HW119706   5.343   3.525   7.121
 6416SOL    HW219707   5.395   3.453   7.257
 6417SOL     OW19708   4.835   3.057   6.686
 6417SOL    HW119709   4.795   3.101   6.767
 6417SOL    HW219710   4.794   3.094   6.603
 6418SOL     OW19711   4.639   1.951   6.988
 6418SOL    HW119712   4.664   1.931   6.893
 6418SOL    HW219713   4.711   2.007   7.030
 6419SOL     OW19714   4.704   2.978   7.305
 6419SOL    HW119715   4.605   2.984   7.315
 6419SOL    HW219716   4.727   2.898   7.249
 6420SOL     OW19717   4.429   2.912   5.954
 6420SOL    HW119718   4.415   2.919   6.053
 6420SOL    HW219719   4.513   2.861   5.936
 6421SOL     OW19720   4.134   2.675   6.837
 6421SOL    HW119721   4.220   2.687   6.887
 6421SOL    HW219722   4.092   2.588   6.864
 6422SOL     OW19723   4.998   2.248   6.848
 6422SOL    HW119724   5.019   2.322   6.912
 6422SOL    HW219725   4.909   2.265   6.805
 6423SOL     OW19726   3.788   3.426   6.917
 6423SOL    HW119727   3.742   3.508   6.883
 6423SOL    HW219728   3.886   3.445   6.926
 6424SOL     OW19729   4.091   2.962   6.087
 6424SOL    HW119730   4.084   3.045   6.031
 6424SOL    HW219731   4.095   2.882   6.027
 6425SOL     OW19732   4.290   2.399   6.451
 6425SOL    HW119733   4.302   2.465   6.377
 6425SOL    HW219734   4.336   2.433   6.534
 6426SOL     OW19735   4.976   3.210   5.974
 6426SOL    HW119736   5.026   3.287   6.014
 6426SOL    HW219737   4.881   3.212   6.006
 6427SOL     OW19738   4.996   3.307   6.728
 6427SOL    HW119739   5.043   3.320   6.815
 6427SOL    HW219740   4.930   3.233   6.737
 6428SOL     OW19741   4.078   3.372   6.915
 6428SOL    HW119742   4.057   3.328   6.828
 6428SOL    HW219743   4.175   3.398   6.918
 6429SOL     OW19744   4.126   2.613   7.184
 6429SOL    HW119745   4.194   2.668   7.137
 6429SOL    HW219746   4.166   2.525   7.211
 6430SOL     OW19747   4.737   1.967   7.356
 6430SOL    HW119748   4.743   2.052   7.304
 6430SOL    HW219749   4.769   1.891   7.299
 6431SOL     OW19750   4.228   1.912   7.326
 6431SOL    HW119751   4.186   1.855   7.256
 6431SOL    HW219752   4.162   1.981   7.358
 6432SOL     OW19753   4.297   2.732   6.615
 6432SOL    HW119754   4.341   2.821   6.606
 6432SOL    HW219755   4.234   2.732   6.692
 6433SOL     OW19756   5.084   2.724   6.631
 6433SOL    HW119757   5.009   2.724   6.565
 6433SOL    HW219758   5.121   2.632   6.640
 6434SOL     OW19759   4.933   2.387   5.861
 6434SOL    HW119760   4.946   2.303   5.915
 6434SOL    HW219761   4.904   2.461   5.921
 6435SOL     OW19762   4.031   2.075   6.817
 6435SOL    HW119763   4.008   2.112   6.907
 6435SOL    HW219764   4.001   1.980   6.811
 6436SOL     OW19765   3.761   3.172   6.868
 6436SOL    HW119766   3.814   3.123   6.936
 6436SOL    HW219767   3.783   3.270   6.873
 6437SOL     OW19768   4.456   2.496   6.650
 6437SOL    HW119769   4.515   2.470   6.574
 6437SOL    HW219770   4.428   2.592   6.639
 6438SOL     OW19771   4.031   1.925   6.204
 6438SOL    HW119772   4.020   2.019   6.237
 6438SOL    HW219773   4.026   1.862   6.281
 6439SOL     OW19774   5.346   2.229   5.960
 6439SOL    HW119775   5.348   2.153   6.024
 6439SOL    HW219776   5.298   2.306   6.000
 6440SOL     OW19777   4.747   2.628   6.552
 6440SOL    HW119778   4.762   2.649   6.648
 6440SOL    HW219779   4.717   2.533   6.543
 6441SOL     OW19780   4.704   3.435   7.286
 6441SOL    HW119781   4.684   3.479   7.198
 6441SOL    HW219782   4.743   3.344   7.270
 6442SOL     OW19783   4.074   2.760   7.390
 6442SOL    HW119784   4.150   2.804   7.438
 6442SOL    HW219785   4.109   2.713   7.308
 6443SOL     OW19786   5.027   2.700   5.628
 6443SOL    HW119787   5.061   2.607   5.643
 6443SOL    HW219788   5.045   2.727   5.533
 6444SOL     OW19789   4.792   3.195   6.435
 6444SOL    HW119790   4.799   3.111   6.380
 6444SOL    HW219791   4.854   3.264   6.399
 6445SOL     OW19792   4.043   2.672   6.535
 6445SOL    HW119793   4.136   2.708   6.540
 6445SOL    HW219794   4.037   2.587   6.587
 6446SOL     OW19795   4.063   2.371   6.592
 6446SOL    HW119796   4.011   2.288   6.575
 6446SOL    HW219797   4.140   2.376   6.528
 6447SOL     OW19798   4.862   2.242   7.264
 6447SOL    HW119799   4.817   2.305   7.328
 6447SOL    HW219800   4.955   2.273   7.247
 6448SOL     OW19801   4.884   2.069   7.063
 6448SOL    HW119802   4.884   2.133   7.140
 6448SOL    HW219803   4.912   2.117   6.980
 6449SOL     OW19804   3.732   3.188   5.786
 6449SOL    HW119805   3.639   3.209   5.755
 6449SOL    HW219806   3.742   3.089   5.799
 6450SOL     OW19807   3.812   3.663   6.513
 6450SOL    HW119808   3.770   3.577   6.486
 6450SOL    HW219809   3.906   3.666   6.479
 6451SOL     OW19810   4.228   3.430   6.496
 6451SOL    HW119811   4.294   3.504   6.505
 6451SOL    HW219812   4.272   3.351   6.454
 6452SOL     OW19813   4.726   2.658   6.824
 6452SOL    HW119814   4.767   2.626   6.910
 6452SOL    HW219815   4.630   2.631   6.821
 6453SOL     OW19816   3.764   2.406   6.700
 6453SOL    HW119817   3.849   2.373   6.659
 6453SOL    HW219818   3.777   2.421   6.798
 6454SOL     OW19819   3.913   2.382   7.308
 6454SOL    HW119820   3.972   2.342   7.238
 6454SOL    HW219821   3.855   2.453   7.267
 6455SOL     OW19822   5.093   2.812   7.246
 6455SOL    HW119823   5.132   2.901   7.266
 6455SOL    HW219824   5.103   2.792   7.149
 6456SOL     OW19825   4.539   2.434   5.911
 6456SOL    HW119826   4.546   2.345   5.865
 6456SOL    HW219827   4.445   2.468   5.903
 6457SOL     OW19828   3.976   3.426   7.330
 6457SOL    HW119829   3.946   3.483   7.406
 6457SOL    HW219830   3.969   3.329   7.356
 6458SOL     OW19831   4.395   2.326   6.855
 6458SOL    HW119832   4.361   2.237   6.825
 6458SOL    HW219833   4.421   2.380   6.775
 6459SOL     OW19834   4.654   3.540   7.051
 6459SOL    HW119835   4.630   3.522   6.956
 6459SOL    HW219836   4.684   3.634   7.061
 6460SOL     OW19837   4.197   2.362   5.777
 6460SOL    HW119838   4.258   2.442   5.781
 6460SOL    HW219839   4.102   2.393   5.784
 6461SOL     OW19840   3.883   2.999   7.052
 6461SOL    HW119841   3.905   2.938   7.128
 6461SOL    HW219842   3.893   2.950   6.966
 6462SOL     OW19843   5.071   2.921   6.820
 6462SOL    HW119844   5.095   2.858   6.746
 6462SOL    HW219845   4.981   2.961   6.802
 6463SOL     OW19846   5.026   2.717   5.895
 6463SOL    HW119847   4.940   2.686   5.937
 6463SOL    HW219848   5.022   2.703   5.796
 6464SOL     OW19849   4.976   3.593   6.714
 6464SOL    HW119850   5.060   3.598   6.660
 6464SOL    HW219851   4.953   3.497   6.732
 6465SOL     OW19852   3.807   3.120   6.608
 6465SOL    HW119853   3.802   3.119   6.708
 6465SOL    HW219854   3.724   3.079   6.570
 6466SOL     OW19855   4.412   3.524   7.302
 6466SOL    HW119856   4.356   3.605   7.311
 6466SOL    HW219857   4.464   3.528   7.216
 6467SOL     OW19858   5.450   1.997   6.109
 6467SOL    HW119859   5.523   1.980   6.042
 6467SOL    HW219860   5.419   1.910   6.147
 6468SOL     OW19861   5.112   3.435   6.063
 6468SOL    HW119862   5.179   3.447   5.989
 6468SOL    HW219863   5.072   3.524   6.086
 6469SOL     OW19864   3.854   3.656   7.437
 6469SOL    HW119865   3.813   3.582   7.490
 6469SOL    HW219866   3.918   3.707   7.495
 6470SOL     OW19867   5.004   2.789   6.258
 6470SOL    HW119868   5.064   2.708   6.260
 6470SOL    HW219869   5.044   2.858   6.198
 6471SOL     OW19870   4.554   3.135   7.008
 6471SOL    HW119871   4.549   3.168   7.103
 6471SOL    HW219872   4.468   3.154   6.962
 6472SOL     OW19873   4.396   3.478   5.740
 6472SOL    HW119874   4.405   3.488   5.641
 6472SOL    HW219875   4.356   3.389   5.761
 6473SOL     OW19876   3.987   2.188   6.306
 6473SOL    HW119877   3.908   2.239   6.272
 6473SOL    HW219878   3.978   2.173   6.404
 6474SOL     OW19879   4.918   3.474   5.617
 6474SOL    HW119880   4.924   3.381   5.654
 6474SOL    HW219881   4.859   3.474   5.537
 6475SOL     OW19882   4.546   2.864   6.958
 6475SOL    HW119883   4.586   2.863   6.866
 6475SOL    HW219884   4.556   2.956   6.998
 6476SOL     OW19885   4.640   2.772   5.877
 6476SOL    HW119886   4.703   2.810   5.809
 6476SOL    HW219887   4.680   2.689   5.916
 6477SOL     OW19888   4.096   3.150   7.076
 6477SOL    HW119889   4.083   3.243   7.042
 6477SOL    HW219890   4.012   3.098   7.063
 6478SOL     OW19891   4.763   2.960   6.282
 6478SOL    HW119892   4.693   2.913   6.336
 6478SOL    HW219893   4.822   2.892   6.239
 6479SOL     OW19894   4.738   2.098   6.557
 6479SOL    HW119895   4.730   2.062   6.464
 6479SOL    HW219896   4.736   2.022   6.622
 6480SOL     OW19897   4.314   3.349   6.077
 6480SOL    HW119898   4.356   3.291   6.007
 6480SOL    HW219899   4.270   3.428   6.033
 6481SOL     OW19900   3.979   3.210   5.876
 6481SOL    HW119901   3.883   3.211   5.849
 6481SOL    HW219902   3.991   3.263   5.960
 6482SOL     OW19903   3.829   2.875   7.312
 6482SOL    HW119904   3.752   2.842   7.366
 6482SOL    HW219905   3.914   2.845   7.354
 6483SOL     OW19906   4.396   2.065   7.075
 6483SOL    HW119907   4.486   2.049   7.035
 6483SOL    HW219908   4.404   2.070   7.174
 6484SOL     OW19909   3.799   2.207   5.619
 6484SOL    HW119910   3.707   2.179   5.590
 6484SOL    HW219911   3.830   2.284   5.563
 6485SOL     OW19912   5.164   2.718   6.984
 6485SOL    HW119913   5.107   2.770   6.921
 6485SOL    HW219914   5.260   2.730   6.960
 6486SOL     OW19915   3.796   2.028   5.904
 6486SOL    HW119916   3.779   2.111   5.850
 6486SOL    HW219917   3.886   1.991   5.882
 6487SOL     OW19918   4.907   3.197   5.705
 6487SOL    HW119919   4.808   3.186   5.707
 6487SOL    HW219920   4.941   3.212   5.798
 6488SOL     OW19921   4.337   2.704   7.017
 6488SOL    HW119922   4.393   2.785   7.000
 6488SOL    HW219923   4.396   2.624   7.020
 6489SOL     OW19924   4.440   2.427   7.294
 6489SOL    HW119925   4.459   2.492   7.368
 6489SOL    HW219926   4.500   2.347   7.303
 6490SOL     OW19927   5.174   3.082   7.219
 6490SOL    HW119928   5.165   3.072   7.318
 6490SOL    HW219929   5.270   3.075   7.193
 6491SOL     OW19930   4.114   3.603   7.146
 6491SOL    HW119931   4.023   3.644   7.144
 6491SOL    HW219932   4.107   3.509   7.178
 6492SOL     OW19933   4.949   2.187   6.035
 6492SOL    HW119934   5.014   2.113   6.024
 6492SOL    HW219935   4.969   2.237   6.119
 6493SOL     OW19936   4.318   2.607   6.238
 6493SOL    HW119937   4.368   2.692   6.219
 6493SOL    HW219938   4.230   2.609   6.190
 6494SOL     OW19939   4.583   3.236   5.602
 6494SOL    HW119940   4.537   3.251   5.690
 6494SOL    HW219941   4.627   3.321   5.572
 6495SOL     OW19942   4.385   3.652   6.539
 6495SOL    HW119943   4.339   3.740   6.526
 6495SOL    HW219944   4.484   3.664   6.532
 6496SOL     OW19945   4.583   2.818   6.447
 6496SOL    HW119946   4.637   2.749   6.495
 6496SOL    HW219947   4.551   2.887   6.513
 6497SOL     OW19948   4.807   2.846   5.673
 6497SOL    HW119949   4.784   2.899   5.591
 6497SOL    HW219950   4.888   2.790   5.654
 6498SOL     OW19951   3.945   3.176   7.430
 6498SOL    HW119952   3.880   3.103   7.409
 6498SOL    HW219953   3.949   3.190   7.528
 6499SOL     OW19954   3.803   3.102   6.239
 6499SOL    HW119955   3.802   3.055   6.327
 6499SOL    HW219956   3.885   3.074   6.188
 6500SOL     OW19957   4.396   3.253   7.210
 6500SOL    HW119958   4.318   3.203   7.248
 6500SOL    HW219959   4.393   3.348   7.241
 6501SOL     OW19960   4.152   2.286   6.106
 6501SOL    HW119961   4.182   2.214   6.044
 6501SOL    HW219962   4.113   2.246   6.189
 6502SOL     OW19963   5.429   3.349   6.690
 6502SOL    HW119964   5.336   3.324   6.663
 6502SOL    HW219965   5.455   3.299   6.772
 6503SOL     OW19966   4.041   2.409   6.866
 6503SOL    HW119967   4.079   2.350   6.938
 6503SOL    HW219968   4.081   2.383   6.778
 6504SOL     OW19969   4.536   3.448   6.273
 6504SOL    HW119970   4.568   3.458   6.179
 6504SOL    HW219971   4.457   3.386   6.275
 6505SOL     OW19972   5.148   2.076   6.698
 6505SOL    HW119973   5.200   2.011   6.753
 6505SOL    HW219974   5.099   2.139   6.759
 6506SOL     OW19975   4.725   1.896   6.740
 6506SOL    HW119976   4.662   1.824   6.709
 6506SOL    HW219977   4.818   1.860   6.740
 6507SOL     OW19978   4.494   3.192   5.887
 6507SOL    HW119979   4.448   3.105   5.904
 6507SOL    HW219980   4.585   3.189   5.928
 6508SOL     OW19981   4.342   3.429   6.870
 6508SOL    HW119982   4.337   3.511   6.927
 6508SOL    HW219983   4.431   3.426   6.825
 6509SOL     OW19984   5.076   1.914   5.754
 6509SOL    HW119985   5.111   1.873   5.670
 6509SOL    HW219986   4.986   1.876   5.774
 6510SOL     OW19987   5.024   2.315   6.277
 6510SOL    HW119988   4.965   2.395   6.281
 6510SOL    HW219989   5.039   2.280   6.370
 6511SOL     OW19990   5.317   2.083   6.468
 6511SOL    HW119991   5.233   2.082   6.522
 6511SOL    HW219992   5.319   2.166   6.412
 6512SOL     OW19993   3.763   2.939   5.886
 6512SOL    HW119994   3.862   2.928   5.877
 6512SOL    HW219995   3.723   2.853   5.918
 6513SOL     OW19996   4.599   3.508   5.923
 6513SOL    HW119997   4.522   3.473   5.869
 6513SOL    HW219998   4.567   3.579   5.985
 6514SOL     OW19999   3.954   2.490   7.561
 6514SOL    HW120000   3.861   2.488   7.598
 6514SOL    HW220001   3.955   2.451   7.469
 6515SOL     OW20002   3.955   3.575   7.931
 6515SOL    HW120003   3.989   3.652   7.985
 6515SOL    HW220004   3.999   3.575   7.841
 6516SOL     OW20005   3.954   3.296   7.986
 6516SOL    HW120006   3.928   3.392   7.986
 6516SOL    HW220007   3.883   3.242   8.031
 6517SOL     OW20008   4.330   2.826   7.571
 6517SOL    HW120009   4.337   2.910   7.517
 6517SOL    HW220010   4.376   2.839   7.659
 6518SOL     OW20011   3.751   3.458   7.565
 6518SOL    HW120012   3.732   3.362   7.586
 6518SOL    HW220013   3.718   3.516   7.640
 6519SOL     OW20014   5.413   2.784   8.060
 6519SOL    HW120015   5.508   2.755   8.068
 6519SOL    HW220016   5.405   2.849   7.985
 6520SOL     OW20017   4.533   1.866   7.950
 6520SOL    HW120018   4.573   1.957   7.941
 6520SOL    HW220019   4.433   1.874   7.956
 6521SOL     OW20020   4.322   2.591   7.718
 6521SOL    HW120021   4.346   2.660   7.650
 6521SOL    HW220022   4.244   2.624   7.772
 6522SOL     OW20023   3.800   2.673   8.237
 6522SOL    HW120024   3.899   2.661   8.246
 6522SOL    HW220025   3.776   2.768   8.258
 6523SOL     OW20026   4.589   2.210   7.643
 6523SOL    HW120027   4.648   2.273   7.594
 6523SOL    HW220028   4.608   2.116   7.614
 6524SOL     OW20029   4.045   2.805   7.690
 6524SOL    HW120030   4.127   2.844   7.648
 6524SOL    HW220031   4.018   2.723   7.641
 6525SOL     OW20032   4.835   3.638   7.685
 6525SOL    HW120033   4.775   3.576   7.735
 6525SOL    HW220034   4.866   3.594   7.600
 6526SOL     OW20035   4.188   3.605   7.771
 6526SOL    HW120036   4.221   3.644   7.857
 6526SOL    HW220037   4.264   3.598   7.706
 6527SOL     OW20038   5.124   1.969   7.874
 6527SOL    HW120039   5.100   1.932   7.784
 6527SOL    HW220040   5.223   1.985   7.878
 6528SOL     OW20041   4.106   2.562   7.928
 6528SOL    HW120042   4.151   2.472   7.925
 6528SOL    HW220043   4.012   2.551   7.961
 6529SOL     OW20044   4.338   1.984   7.565
 6529SOL    HW120045   4.436   1.962   7.572
 6529SOL    HW220046   4.307   1.967   7.472
 6530SOL     OW20047   4.263   1.926   7.960
 6530SOL    HW120048   4.182   1.927   8.018
 6530SOL    HW220049   4.266   2.009   7.905
 6531SOL     OW20050   5.158   3.050   7.489
 6531SOL    HW120051   5.190   2.974   7.546
 6531SOL    HW220052   5.066   3.077   7.519
 6532SOL     OW20053   4.021   1.897   7.619
 6532SOL    HW120054   4.070   1.981   7.598
 6532SOL    HW220055   4.083   1.832   7.664
 6533SOL     OW20056   4.659   2.098   7.928
 6533SOL    HW120057   4.611   2.139   7.850
 6533SOL    HW220058   4.758   2.096   7.909
 6534SOL     OW20059   4.183   3.014   8.189
 6534SOL    HW120060   4.112   2.987   8.254
 6534SOL    HW220061   4.157   2.986   8.096
 6535SOL     OW20062   4.995   3.659   8.039
 6535SOL    HW120063   5.039   3.723   7.975
 6535SOL    HW220064   4.945   3.711   8.109
 6536SOL     OW20065   4.756   2.411   7.464
 6536SOL    HW120066   4.715   2.493   7.425
 6536SOL    HW220067   4.820   2.437   7.537
 6537SOL     OW20068   4.212   3.247   7.622
 6537SOL    HW120069   4.125   3.232   7.669
 6537SOL    HW220070   4.195   3.273   7.527
 6538SOL     OW20071   5.114   2.437   7.526
 6538SOL    HW120072   5.060   2.416   7.607
 6538SOL    HW220073   5.205   2.396   7.535
 6539SOL     OW20074   4.251   2.118   7.776
 6539SOL    HW120075   4.278   2.059   7.701
 6539SOL    HW220076   4.251   2.213   7.745
 6540SOL     OW20077   4.429   2.912   7.816
 6540SOL    HW120078   4.415   2.919   7.915
 6540SOL    HW220079   4.513   2.861   7.798
 6541SOL     OW20080   4.091   2.962   7.949
 6541SOL    HW120081   4.084   3.045   7.893
 6541SOL    HW220082   4.095   2.882   7.889
 6542SOL     OW20083   4.976   3.210   7.836
 6542SOL    HW120084   5.026   3.287   7.876
 6542SOL    HW220085   4.881   3.212   7.868
 6543SOL     OW20086   5.306   2.501   7.920
 6543SOL    HW120087   5.275   2.562   7.993
 6543SOL    HW220088   5.356   2.553   7.851
 6544SOL     OW20089   4.933   2.387   7.723
 6544SOL    HW120090   4.946   2.303   7.777
 6544SOL    HW220091   4.904   2.461   7.783
 6545SOL     OW20092   5.346   2.229   7.822
 6545SOL    HW120093   5.348   2.153   7.886
 6545SOL    HW220094   5.298   2.306   7.862
 6546SOL     OW20095   5.027   2.700   7.490
 6546SOL    HW120096   5.061   2.607   7.505
 6546SOL    HW220097   5.045   2.727   7.395
 6547SOL     OW20098   3.732   3.188   7.648
 6547SOL    HW120099   3.639   3.209   7.617
 6547SOL    HW220100   3.742   3.089   7.661
 6548SOL     OW20101   4.539   2.434   7.773
 6548SOL    HW120102   4.546   2.345   7.727
 6548SOL    HW220103   4.445   2.468   7.765
 6549SOL     OW20104   4.197   2.362   7.639
 6549SOL    HW120105   4.258   2.442   7.643
 6549SOL    HW220106   4.102   2.393   7.646
 6550SOL     OW20107   5.026   2.717   7.757
 6550SOL    HW120108   4.940   2.686   7.799
 6550SOL    HW220109   5.022   2.703   7.658
 6551SOL     OW20110   5.450   1.997   7.971
 6551SOL    HW120111   5.523   1.980   7.904
 6551SOL    HW220112   5.419   1.910   8.009
 6552SOL     OW20113   5.112   3.435   7.925
 6552SOL    HW120114   5.179   3.447   7.851
 6552SOL    HW220115   5.072   3.524   7.948
 6553SOL     OW20116   4.396   3.478   7.602
 6553SOL    HW120117   4.405   3.488   7.503
 6553SOL    HW220118   4.356   3.389   7.623
 6554SOL     OW20119   4.918   3.474   7.479
 6554SOL    HW120120   4.924   3.381   7.516
 6554SOL    HW220121   4.859   3.474   7.399
 6555SOL     OW20122   4.640   2.772   7.739
 6555SOL    HW120123   4.703   2.810   7.671
 6555SOL    HW220124   4.680   2.689   7.778
 6556SOL     OW20125   4.314   3.349   7.939
 6556SOL    HW120126   4.356   3.291   7.869
 6556SOL    HW220127   4.270   3.428   7.895
 6557SOL     OW20128   3.979   3.210   7.738
 6557SOL    HW120129   3.883   3.211   7.711
 6557SOL    HW220130   3.991   3.263   7.822
 6558SOL     OW20131   3.799   2.207   7.481
 6558SOL    HW120132   3.707   2.179   7.452
 6558SOL    HW220133   3.830   2.284   7.425
 6559SOL     OW20134   3.796   2.028   7.766
 6559SOL    HW120135   3.779   2.111   7.712
 6559SOL    HW220136   3.886   1.991   7.744
 6560SOL     OW20137   4.907   3.197   7.567
 6560SOL    HW120138   4.808   3.186   7.569
 6560SOL    HW220139   4.941   3.212   7.660
 6561SOL     OW20140   5.217   3.629   8.407
 6561SOL    HW120141   5.250   3.693   8.338
 6561SOL    HW220142   5.283   3.623   8.482
 6562SOL     OW20143   4.949   2.187   7.897
 6562SOL    HW120144   5.014   2.113   7.886
 6562SOL    HW220145   4.969   2.237   7.981
 6563SOL     OW20146   4.318   2.607   8.100
 6563SOL    HW120147   4.368   2.692   8.081
 6563SOL    HW220148   4.230   2.609   8.052
 6564SOL     OW20149   4.583   3.236   7.464
 6564SOL    HW120150   4.537   3.251   7.552
 6564SOL    HW220151   4.627   3.321   7.434
 6565SOL     OW20152   4.807   2.846   7.535
 6565SOL    HW120153   4.784   2.899   7.453
 6565SOL    HW220154   4.888   2.790   7.516
 6566SOL     OW20155   4.152   2.286   7.968
 6566SOL    HW120156   4.182   2.214   7.906
 6566SOL    HW220157   4.113   2.246   8.051
 6567SOL     OW20158   4.494   3.192   7.749
 6567SOL    HW120159   4.448   3.105   7.766
 6567SOL    HW220160   4.585   3.189   7.790
 6568SOL     OW20161   5.076   1.914   7.616
 6568SOL    HW120162   5.111   1.873   7.532
 6568SOL    HW220163   4.986   1.876   7.636
 6569SOL     OW20164   3.763   2.939   7.748
 6569SOL    HW120165   3.862   2.928   7.739
 6569SOL    HW220166   3.723   2.853   7.780
 6570SOL     OW20167   4.599   3.508   7.785
 6570SOL    HW120168   4.522   3.473   7.731
 6570SOL    HW220169   4.567   3.579   7.847
 6571SOL     OW20170   3.954   4.352   0.113
 6571SOL    HW120171   3.861   4.350   0.150
 6571SOL    HW220172   3.955   4.313   0.021
 6572SOL     OW20173   3.949   3.999   0.996
 6572SOL    HW120174   3.984   3.982   1.088
 6572SOL    HW220175   3.861   3.954   0.984
 6573SOL     OW20176   3.743   4.092   0.647
 6573SOL    HW120177   3.661   4.135   0.686
 6573SOL    HW220178   3.715   4.019   0.584
 6574SOL     OW20179   4.293   4.999   1.165
 6574SOL    HW120180   4.200   4.992   1.128
 6574SOL    HW220181   4.304   5.088   1.209
 6575SOL     OW20182   5.279   5.235   0.703
 6575SOL    HW120183   5.222   5.219   0.784
 6575SOL    HW220184   5.220   5.245   0.623
 6576SOL     OW20185   4.859   4.427   0.717
 6576SOL    HW120186   4.916   4.505   0.692
 6576SOL    HW220187   4.799   4.453   0.793
 6577SOL     OW20188   4.492   4.868   1.023
 6577SOL    HW120189   4.414   4.885   1.083
 6577SOL    HW220190   4.526   4.955   0.987
 6578SOL     OW20191   4.574   4.522   1.823
 6578SOL    HW120192   4.570   4.598   1.888
 6578SOL    HW220193   4.596   4.558   1.732
 6579SOL     OW20194   4.409   4.736   0.665
 6579SOL    HW120195   4.478   4.720   0.735
 6579SOL    HW220196   4.336   4.793   0.703
 6580SOL     OW20197   4.410   4.885   1.803
 6580SOL    HW120198   4.470   4.964   1.817
 6580SOL    HW220199   4.324   4.916   1.762
 6581SOL     OW20200   4.059   5.159   1.061
 6581SOL    HW120201   3.981   5.128   1.008
 6581SOL    HW220202   4.117   5.217   1.004
 6582SOL     OW20203   5.184   5.229   1.339
 6582SOL    HW120204   5.208   5.323   1.365
 6582SOL    HW220205   5.168   5.175   1.421
 6583SOL     OW20206   4.162   4.116   1.499
 6583SOL    HW120207   4.244   4.060   1.508
 6583SOL    HW220208   4.081   4.058   1.503
 6584SOL     OW20209   4.851   5.065   1.690
 6584SOL    HW120210   4.898   5.065   1.778
 6584SOL    HW220211   4.803   4.978   1.679
 6585SOL     OW20212   3.954   5.158   0.538
 6585SOL    HW120213   3.928   5.254   0.538
 6585SOL    HW220214   3.883   5.104   0.583
 6586SOL     OW20215   3.964   4.815   0.886
 6586SOL    HW120216   3.978   4.731   0.938
 6586SOL    HW220217   3.909   4.879   0.941
 6587SOL     OW20218   4.330   4.688   0.123
 6587SOL    HW120219   4.337   4.772   0.069
 6587SOL    HW220220   4.376   4.701   0.211
 6588SOL     OW20221   3.846   4.367   0.563
 6588SOL    HW120222   3.801   4.279   0.580
 6588SOL    HW220223   3.845   4.421   0.647
 6589SOL     OW20224   3.751   5.320   0.117
 6589SOL    HW120225   3.732   5.224   0.138
 6589SOL    HW220226   3.718   5.378   0.192
 6590SOL     OW20227   5.413   4.646   0.612
 6590SOL    HW120228   5.508   4.617   0.620
 6590SOL    HW220229   5.405   4.711   0.537
 6591SOL     OW20230   3.837   4.461   1.597
 6591SOL    HW120231   3.925   4.448   1.642
 6591SOL    HW220232   3.824   4.558   1.575
 6592SOL     OW20233   4.337   5.089   0.726
 6592SOL    HW120234   4.288   5.002   0.735
 6592SOL    HW220235   4.314   5.132   0.639
 6593SOL     OW20236   5.017   4.952   1.423
 6593SOL    HW120237   5.054   4.879   1.365
 6593SOL    HW220238   5.069   4.957   1.508
 6594SOL     OW20239   4.533   3.728   0.502
 6594SOL    HW120240   4.573   3.819   0.493
 6594SOL    HW220241   4.433   3.736   0.508
 6595SOL     OW20242   3.921   4.700   1.264
 6595SOL    HW120243   4.010   4.655   1.250
 6595SOL    HW220244   3.848   4.635   1.245
 6596SOL     OW20245   4.041   3.975   1.801
 6596SOL    HW120246   4.112   4.046   1.807
 6596SOL    HW220247   3.953   4.014   1.829
 6597SOL     OW20248   5.190   5.141   0.953
 6597SOL    HW120249   5.131   5.147   1.033
 6597SOL    HW220250   5.175   5.053   0.907
 6598SOL     OW20251   5.391   5.438   0.572
 6598SOL    HW120252   5.350   5.415   0.484
 6598SOL    HW220253   5.373   5.364   0.637
 6599SOL     OW20254   4.322   4.453   0.270
 6599SOL    HW120255   4.346   4.522   0.202
 6599SOL    HW220256   4.244   4.486   0.324
 6600SOL     OW20257   5.005   4.069   0.944
 6600SOL    HW120258   4.919   4.019   0.931
 6600SOL    HW220259   5.067   4.015   1.000
 6601SOL     OW20260   4.531   4.329   1.465
 6601SOL    HW120261   4.484   4.326   1.554
 6601SOL    HW220262   4.480   4.274   1.399
 6602SOL     OW20263   5.118   4.193   1.674
 6602SOL    HW120264   5.098   4.236   1.762
 6602SOL    HW220265   5.196   4.131   1.683
 6603SOL     OW20266   4.697   4.614   1.572
 6603SOL    HW120267   4.743   4.530   1.543
 6603SOL    HW220268   4.641   4.648   1.497
 6604SOL     OW20269   4.715   4.134   1.242
 6604SOL    HW120270   4.638   4.168   1.296
 6604SOL    HW220271   4.681   4.083   1.163
 6605SOL     OW20272   4.765   4.425   0.429
 6605SOL    HW120273   4.791   4.421   0.525
 6605SOL    HW220274   4.680   4.374   0.415
 6606SOL     OW20275   3.800   4.535   0.789
 6606SOL    HW120276   3.899   4.523   0.798
 6606SOL    HW220277   3.776   4.630   0.810
 6607SOL     OW20278   4.589   4.072   0.195
 6607SOL    HW120279   4.648   4.135   0.146
 6607SOL    HW220280   4.608   3.978   0.166
 6608SOL     OW20281   5.086   4.868   0.545
 6608SOL    HW120282   5.169   4.839   0.497
 6608SOL    HW220283   5.037   4.935   0.489
 6609SOL     OW20284   4.274   3.920   0.885
 6609SOL    HW120285   4.269   3.915   0.985
 6609SOL    HW220286   4.276   4.016   0.856
 6610SOL     OW20287   4.732   5.180   0.477
 6610SOL    HW120288   4.686   5.252   0.425
 6610SOL    HW220289   4.728   5.200   0.575
 6611SOL     OW20290   4.951   5.274   1.506
 6611SOL    HW120291   4.957   5.197   1.570
 6611SOL    HW220292   4.899   5.248   1.426
 6612SOL     OW20293   4.045   4.667   0.242
 6612SOL    HW120294   4.127   4.706   0.200
 6612SOL    HW220295   4.018   4.585   0.193
 6613SOL     OW20296   4.185   4.990   1.727
 6613SOL    HW120297   4.135   4.991   1.641
 6613SOL    HW220298   4.122   4.972   1.803
 6614SOL     OW20299   4.835   5.500   0.237
 6614SOL    HW120300   4.775   5.438   0.287
 6614SOL    HW220301   4.866   5.456   0.152
 6615SOL     OW20302   3.926   4.009   1.498
 6615SOL    HW120303   3.846   4.069   1.485
 6615SOL    HW220304   3.916   3.960   1.584
 6616SOL     OW20305   5.124   3.831   0.426
 6616SOL    HW120306   5.100   3.794   0.336
 6616SOL    HW220307   5.223   3.847   0.430
 6617SOL     OW20308   4.106   4.424   0.480
 6617SOL    HW120309   4.151   4.334   0.477
 6617SOL    HW220310   4.012   4.413   0.513
 6618SOL     OW20311   4.338   3.846   0.117
 6618SOL    HW120312   4.436   3.824   0.124
 6618SOL    HW220313   4.307   3.829   0.024
 6619SOL     OW20314   4.505   3.988   1.749
 6619SOL    HW120315   4.572   3.927   1.792
 6619SOL    HW220316   4.432   4.007   1.814
 6620SOL     OW20317   5.075   4.314   1.433
 6620SOL    HW120318   5.103   4.271   1.518
 6620SOL    HW220319   5.100   4.410   1.434
 6621SOL     OW20320   4.527   5.126   0.924
 6621SOL    HW120321   4.617   5.140   0.882
 6621SOL    HW220322   4.456   5.128   0.853
 6622SOL     OW20323   4.646   4.227   0.899
 6622SOL    HW120324   4.621   4.218   0.803
 6622SOL    HW220325   4.694   4.145   0.930
 6623SOL     OW20326   4.263   3.788   0.512
 6623SOL    HW120327   4.182   3.789   0.570
 6623SOL    HW220328   4.266   3.871   0.457
 6624SOL     OW20329   5.158   4.912   0.041
 6624SOL    HW120330   5.190   4.836   0.098
 6624SOL    HW220331   5.066   4.939   0.071
 6625SOL     OW20332   4.021   3.759   0.171
 6625SOL    HW120333   4.070   3.843   0.150
 6625SOL    HW220334   4.083   3.694   0.216
 6626SOL     OW20335   4.659   3.960   0.480
 6626SOL    HW120336   4.611   4.001   0.402
 6626SOL    HW220337   4.758   3.958   0.461
 6627SOL     OW20338   4.800   4.407   1.464
 6627SOL    HW120339   4.720   4.346   1.467
 6627SOL    HW220340   4.881   4.354   1.440
 6628SOL     OW20341   4.951   5.294   0.793
 6628SOL    HW120342   4.972   5.368   0.728
 6628SOL    HW220343   5.019   5.294   0.866
 6629SOL     OW20344   4.183   4.876   0.741
 6629SOL    HW120345   4.112   4.849   0.806
 6629SOL    HW220346   4.157   4.848   0.648
 6630SOL     OW20347   4.756   4.273   0.016
 6630SOL    HW120348   4.715   4.355  -0.023
 6630SOL    HW220349   4.820   4.299   0.089
 6631SOL     OW20350   3.802   4.280   1.386
 6631SOL    HW120351   3.894   4.279   1.345
 6631SOL    HW220352   3.796   4.354   1.453
 6632SOL     OW20353   4.285   3.946   1.147
 6632SOL    HW120354   4.323   3.862   1.184
 6632SOL    HW220355   4.197   3.965   1.191
 6633SOL     OW20356   4.590   4.178   0.642
 6633SOL    HW120357   4.558   4.250   0.580
 6633SOL    HW220358   4.614   4.097   0.589
 6634SOL     OW20359   4.741   3.763   0.753
 6634SOL    HW120360   4.669   3.768   0.684
 6634SOL    HW220361   4.717   3.694   0.822
 6635SOL     OW20362   5.153   4.897   0.867
 6635SOL    HW120363   5.098   4.813   0.860
 6635SOL    HW220364   5.179   4.926   0.775
 6636SOL     OW20365   4.212   5.109   0.174
 6636SOL    HW120366   4.125   5.094   0.221
 6636SOL    HW220367   4.195   5.135   0.079
 6637SOL     OW20368   5.114   4.299   0.078
 6637SOL    HW120369   5.060   4.278   0.159
 6637SOL    HW220370   5.205   4.258   0.087
 6638SOL     OW20371   4.251   3.980   0.328
 6638SOL    HW120372   4.278   3.921   0.253
 6638SOL    HW220373   4.251   4.075   0.297
 6639SOL     OW20374   4.788   5.071   1.340
 6639SOL    HW120375   4.708   5.048   1.395
 6639SOL    HW220376   4.871   5.045   1.389
 6640SOL     OW20377   4.835   4.919   1.100
 6640SOL    HW120378   4.795   4.963   1.181
 6640SOL    HW220379   4.794   4.956   1.017
 6641SOL     OW20380   4.639   3.813   1.402
 6641SOL    HW120381   4.664   3.793   1.307
 6641SOL    HW220382   4.711   3.869   1.444
 6642SOL     OW20383   4.704   4.840   1.719
 6642SOL    HW120384   4.605   4.846   1.729
 6642SOL    HW220385   4.727   4.760   1.663
 6643SOL     OW20386   4.429   4.774   0.368
 6643SOL    HW120387   4.415   4.781   0.467
 6643SOL    HW220388   4.513   4.723   0.350
 6644SOL     OW20389   4.134   4.537   1.251
 6644SOL    HW120390   4.220   4.549   1.301
 6644SOL    HW220391   4.092   4.450   1.278
 6645SOL     OW20392   4.998   4.110   1.262
 6645SOL    HW120393   5.019   4.184   1.326
 6645SOL    HW220394   4.909   4.127   1.219
 6646SOL     OW20395   4.091   4.824   0.501
 6646SOL    HW120396   4.084   4.907   0.445
 6646SOL    HW220397   4.095   4.744   0.441
 6647SOL     OW20398   4.290   4.261   0.865
 6647SOL    HW120399   4.302   4.327   0.791
 6647SOL    HW220400   4.336   4.295   0.948
 6648SOL     OW20401   4.976   5.072   0.388
 6648SOL    HW120402   5.026   5.149   0.428
 6648SOL    HW220403   4.881   5.074   0.420
 6649SOL     OW20404   4.996   5.169   1.142
 6649SOL    HW120405   5.043   5.182   1.229
 6649SOL    HW220406   4.930   5.095   1.151
 6650SOL     OW20407   4.078   5.234   1.329
 6650SOL    HW120408   4.057   5.190   1.242
 6650SOL    HW220409   4.175   5.260   1.332
 6651SOL     OW20410   4.126   4.475   1.598
 6651SOL    HW120411   4.194   4.530   1.551
 6651SOL    HW220412   4.166   4.387   1.625
 6652SOL     OW20413   4.737   3.829   1.770
 6652SOL    HW120414   4.743   3.914   1.718
 6652SOL    HW220415   4.769   3.753   1.713
 6653SOL     OW20416   4.228   3.774   1.740
 6653SOL    HW120417   4.186   3.717   1.670
 6653SOL    HW220418   4.162   3.843   1.772
 6654SOL     OW20419   4.297   4.594   1.029
 6654SOL    HW120420   4.341   4.683   1.020
 6654SOL    HW220421   4.234   4.594   1.106
 6655SOL     OW20422   5.084   4.586   1.045
 6655SOL    HW120423   5.009   4.586   0.979
 6655SOL    HW220424   5.121   4.494   1.054
 6656SOL     OW20425   4.933   4.249   0.275
 6656SOL    HW120426   4.946   4.165   0.329
 6656SOL    HW220427   4.904   4.323   0.335
 6657SOL     OW20428   4.031   3.937   1.231
 6657SOL    HW120429   4.008   3.974   1.321
 6657SOL    HW220430   4.001   3.842   1.225
 6658SOL     OW20431   3.761   5.034   1.282
 6658SOL    HW120432   3.814   4.985   1.350
 6658SOL    HW220433   3.783   5.132   1.287
 6659SOL     OW20434   4.456   4.358   1.064
 6659SOL    HW120435   4.515   4.332   0.988
 6659SOL    HW220436   4.428   4.454   1.053
 6660SOL     OW20437   4.031   3.787   0.618
 6660SOL    HW120438   4.020   3.881   0.651
 6660SOL    HW220439   4.026   3.724   0.695
 6661SOL     OW20440   5.346   4.091   0.374
 6661SOL    HW120441   5.348   4.015   0.438
 6661SOL    HW220442   5.298   4.168   0.414
 6662SOL     OW20443   4.747   4.490   0.966
 6662SOL    HW120444   4.762   4.511   1.062
 6662SOL    HW220445   4.717   4.395   0.957
 6663SOL     OW20446   4.074   4.622   1.804
 6663SOL    HW120447   4.150   4.666   1.852
 6663SOL    HW220448   4.109   4.575   1.722
 6664SOL     OW20449   5.027   4.562   0.042
 6664SOL    HW120450   5.061   4.469   0.057
 6664SOL    HW220451   5.045   4.589  -0.053
 6665SOL     OW20452   4.792   5.057   0.849
 6665SOL    HW120453   4.799   4.973   0.794
 6665SOL    HW220454   4.854   5.126   0.813
 6666SOL     OW20455   4.043   4.534   0.949
 6666SOL    HW120456   4.136   4.570   0.954
 6666SOL    HW220457   4.037   4.449   1.001
 6667SOL     OW20458   4.063   4.233   1.006
 6667SOL    HW120459   4.011   4.150   0.989
 6667SOL    HW220460   4.140   4.238   0.942
 6668SOL     OW20461   4.862   4.104   1.678
 6668SOL    HW120462   4.817   4.167   1.742
 6668SOL    HW220463   4.955   4.135   1.661
 6669SOL     OW20464   4.884   3.931   1.477
 6669SOL    HW120465   4.884   3.995   1.554
 6669SOL    HW220466   4.912   3.979   1.394
 6670SOL     OW20467   3.732   5.050   0.200
 6670SOL    HW120468   3.639   5.071   0.169
 6670SOL    HW220469   3.742   4.951   0.213
 6671SOL     OW20470   4.726   4.520   1.238
 6671SOL    HW120471   4.767   4.488   1.324
 6671SOL    HW220472   4.630   4.493   1.235
 6672SOL     OW20473   3.764   4.268   1.114
 6672SOL    HW120474   3.849   4.235   1.073
 6672SOL    HW220475   3.777   4.283   1.212
 6673SOL     OW20476   3.913   4.244   1.722
 6673SOL    HW120477   3.972   4.204   1.652
 6673SOL    HW220478   3.855   4.315   1.681
 6674SOL     OW20479   5.093   4.674   1.660
 6674SOL    HW120480   5.132   4.763   1.680
 6674SOL    HW220481   5.103   4.654   1.563
 6675SOL     OW20482   4.539   4.296   0.325
 6675SOL    HW120483   4.546   4.207   0.279
 6675SOL    HW220484   4.445   4.330   0.317
 6676SOL     OW20485   3.976   5.288   1.744
 6676SOL    HW120486   3.946   5.345   1.820
 6676SOL    HW220487   3.969   5.191   1.770
 6677SOL     OW20488   4.395   4.188   1.269
 6677SOL    HW120489   4.361   4.099   1.239
 6677SOL    HW220490   4.421   4.242   1.189
 6678SOL     OW20491   4.197   4.224   0.191
 6678SOL    HW120492   4.258   4.304   0.195
 6678SOL    HW220493   4.102   4.255   0.198
 6679SOL     OW20494   3.883   4.861   1.466
 6679SOL    HW120495   3.905   4.800   1.542
 6679SOL    HW220496   3.893   4.812   1.380
 6680SOL     OW20497   5.071   4.783   1.234
 6680SOL    HW120498   5.095   4.720   1.160
 6680SOL    HW220499   4.981   4.823   1.216
 6681SOL     OW20500   5.026   4.579   0.309
 6681SOL    HW120501   4.940   4.548   0.351
 6681SOL    HW220502   5.022   4.565   0.210
 6682SOL     OW20503   3.807   4.982   1.022
 6682SOL    HW120504   3.802   4.981   1.122
 6682SOL    HW220505   3.724   4.941   0.984
 6683SOL     OW20506   4.412   5.386   1.716
 6683SOL    HW120507   4.356   5.467   1.725
 6683SOL    HW220508   4.464   5.390   1.630
 6684SOL     OW20509   4.627   3.810   0.133
 6684SOL    HW120510   4.678   3.811   0.047
 6684SOL    HW220511   4.683   3.768   0.204
 6685SOL     OW20512   5.450   3.859   0.523
 6685SOL    HW120513   5.523   3.842   0.456
 6685SOL    HW220514   5.419   3.772   0.561
 6686SOL     OW20515   5.004   4.651   0.672
 6686SOL    HW120516   5.064   4.570   0.674
 6686SOL    HW220517   5.044   4.720   0.612
 6687SOL     OW20518   4.554   4.997   1.422
 6687SOL    HW120519   4.549   5.030   1.517
 6687SOL    HW220520   4.468   5.016   1.376
 6688SOL     OW20521   3.987   4.050   0.720
 6688SOL    HW120522   3.908   4.101   0.686
 6688SOL    HW220523   3.978   4.035   0.818
 6689SOL     OW20524   4.918   5.336   0.031
 6689SOL    HW120525   4.924   5.243   0.068
 6689SOL    HW220526   4.859   5.336  -0.049
 6690SOL     OW20527   4.546   4.726   1.372
 6690SOL    HW120528   4.586   4.725   1.280
 6690SOL    HW220529   4.556   4.818   1.412
 6691SOL     OW20530   4.640   4.634   0.291
 6691SOL    HW120531   4.703   4.672   0.223
 6691SOL    HW220532   4.680   4.551   0.330
 6692SOL     OW20533   4.096   5.012   1.490
 6692SOL    HW120534   4.083   5.105   1.456
 6692SOL    HW220535   4.012   4.960   1.477
 6693SOL     OW20536   4.763   4.822   0.696
 6693SOL    HW120537   4.693   4.775   0.750
 6693SOL    HW220538   4.822   4.754   0.653
 6694SOL     OW20539   4.738   3.960   0.971
 6694SOL    HW120540   4.730   3.924   0.878
 6694SOL    HW220541   4.736   3.884   1.036
 6695SOL     OW20542   3.979   5.072   0.290
 6695SOL    HW120543   3.883   5.073   0.263
 6695SOL    HW220544   3.991   5.125   0.374
 6696SOL     OW20545   3.829   4.737   1.726
 6696SOL    HW120546   3.752   4.704   1.780
 6696SOL    HW220547   3.914   4.707   1.768
 6697SOL     OW20548   4.396   3.927   1.489
 6697SOL    HW120549   4.486   3.911   1.449
 6697SOL    HW220550   4.404   3.932   1.588
 6698SOL     OW20551   3.799   4.069   0.033
 6698SOL    HW120552   3.707   4.041   0.004
 6698SOL    HW220553   3.830   4.146  -0.023
 6699SOL     OW20554   5.164   4.580   1.398
 6699SOL    HW120555   5.107   4.632   1.335
 6699SOL    HW220556   5.260   4.592   1.374
 6700SOL     OW20557   3.796   3.890   0.318
 6700SOL    HW120558   3.779   3.973   0.264
 6700SOL    HW220559   3.886   3.853   0.296
 6701SOL     OW20560   4.907   5.059   0.119
 6701SOL    HW120561   4.808   5.048   0.121
 6701SOL    HW220562   4.941   5.074   0.212
 6702SOL     OW20563   4.337   4.566   1.431
 6702SOL    HW120564   4.393   4.647   1.414
 6702SOL    HW220565   4.396   4.486   1.434
 6703SOL     OW20566   4.440   4.289   1.708
 6703SOL    HW120567   4.459   4.354   1.782
 6703SOL    HW220568   4.500   4.209   1.717
 6704SOL     OW20569   5.174   4.944   1.633
 6704SOL    HW120570   5.165   4.934   1.732
 6704SOL    HW220571   5.270   4.937   1.607
 6705SOL     OW20572   4.949   4.049   0.449
 6705SOL    HW120573   5.014   3.975   0.438
 6705SOL    HW220574   4.969   4.099   0.533
 6706SOL     OW20575   4.318   4.469   0.652
 6706SOL    HW120576   4.368   4.554   0.633
 6706SOL    HW220577   4.230   4.471   0.604
 6707SOL     OW20578   4.583   5.098   0.016
 6707SOL    HW120579   4.537   5.113   0.104
 6707SOL    HW220580   4.627   5.183  -0.014
 6708SOL     OW20581   4.583   4.680   0.861
 6708SOL    HW120582   4.637   4.611   0.909
 6708SOL    HW220583   4.551   4.749   0.927
 6709SOL     OW20584   4.807   4.708   0.087
 6709SOL    HW120585   4.784   4.761   0.005
 6709SOL    HW220586   4.888   4.652   0.068
 6710SOL     OW20587   3.945   5.038   1.844
 6710SOL    HW120588   3.880   4.965   1.823
 6710SOL    HW220589   3.949   5.052   1.942
 6711SOL     OW20590   3.803   4.964   0.653
 6711SOL    HW120591   3.802   4.917   0.741
 6711SOL    HW220592   3.885   4.936   0.602
 6712SOL     OW20593   4.396   5.115   1.624
 6712SOL    HW120594   4.318   5.065   1.662
 6712SOL    HW220595   4.393   5.210   1.655
 6713SOL     OW20596   4.152   4.148   0.520
 6713SOL    HW120597   4.182   4.076   0.458
 6713SOL    HW220598   4.113   4.108   0.603
 6714SOL     OW20599   5.429   5.211   1.104
 6714SOL    HW120600   5.336   5.186   1.077
 6714SOL    HW220601   5.455   5.161   1.186
 6715SOL     OW20602   4.041   4.271   1.280
 6715SOL    HW120603   4.079   4.212   1.352
 6715SOL    HW220604   4.081   4.245   1.192
 6716SOL     OW20605   5.148   3.938   1.112
 6716SOL    HW120606   5.200   3.873   1.167
 6716SOL    HW220607   5.099   4.001   1.173
 6717SOL     OW20608   4.725   3.758   1.154
 6717SOL    HW120609   4.662   3.686   1.123
 6717SOL    HW220610   4.818   3.722   1.154
 6718SOL     OW20611   4.494   5.054   0.301
 6718SOL    HW120612   4.448   4.967   0.318
 6718SOL    HW220613   4.585   5.051   0.342
 6719SOL     OW20614   4.342   5.291   1.284
 6719SOL    HW120615   4.337   5.373   1.341
 6719SOL    HW220616   4.431   5.288   1.239
 6720SOL     OW20617   5.076   3.776   0.168
 6720SOL    HW120618   5.111   3.735   0.084
 6720SOL    HW220619   4.986   3.738   0.188
 6721SOL     OW20620   5.024   4.177   0.691
 6721SOL    HW120621   4.965   4.257   0.695
 6721SOL    HW220622   5.039   4.142   0.784
 6722SOL     OW20623   5.317   3.945   0.882
 6722SOL    HW120624   5.233   3.944   0.936
 6722SOL    HW220625   5.319   4.028   0.826
 6723SOL     OW20626   3.763   4.801   0.300
 6723SOL    HW120627   3.862   4.790   0.291
 6723SOL    HW220628   3.723   4.715   0.332
 6724SOL     OW20629   3.954   4.352   1.975
 6724SOL    HW120630   3.861   4.350   2.012
 6724SOL    HW220631   3.955   4.313   1.883
 6725SOL     OW20632   3.949   3.999   2.858
 6725SOL    HW120633   3.984   3.982   2.950
 6725SOL    HW220634   3.861   3.954   2.846
 6726SOL     OW20635   3.743   4.092   2.509
 6726SOL    HW120636   3.661   4.135   2.548
 6726SOL    HW220637   3.715   4.019   2.446
 6727SOL     OW20638   4.293   4.999   3.027
 6727SOL    HW120639   4.200   4.992   2.990
 6727SOL    HW220640   4.304   5.088   3.071
 6728SOL     OW20641   5.279   5.235   2.565
 6728SOL    HW120642   5.222   5.219   2.646
 6728SOL    HW220643   5.220   5.245   2.485
 6729SOL     OW20644   4.859   4.427   2.579
 6729SOL    HW120645   4.916   4.505   2.554
 6729SOL    HW220646   4.799   4.453   2.655
 6730SOL     OW20647   4.492   4.868   2.885
 6730SOL    HW120648   4.414   4.885   2.945
 6730SOL    HW220649   4.526   4.955   2.849
 6731SOL     OW20650   4.574   4.522   3.685
 6731SOL    HW120651   4.570   4.598   3.750
 6731SOL    HW220652   4.596   4.558   3.594
 6732SOL     OW20653   4.409   4.736   2.527
 6732SOL    HW120654   4.478   4.720   2.597
 6732SOL    HW220655   4.336   4.793   2.565
 6733SOL     OW20656   4.410   4.885   3.665
 6733SOL    HW120657   4.470   4.964   3.679
 6733SOL    HW220658   4.324   4.916   3.624
 6734SOL     OW20659   4.059   5.159   2.923
 6734SOL    HW120660   3.981   5.128   2.870
 6734SOL    HW220661   4.117   5.217   2.866
 6735SOL     OW20662   5.184   5.229   3.201
 6735SOL    HW120663   5.208   5.323   3.227
 6735SOL    HW220664   5.168   5.175   3.283
 6736SOL     OW20665   4.162   4.116   3.361
 6736SOL    HW120666   4.244   4.060   3.370
 6736SOL    HW220667   4.081   4.058   3.365
 6737SOL     OW20668   4.851   5.065   3.552
 6737SOL    HW120669   4.898   5.065   3.640
 6737SOL    HW220670   4.803   4.978   3.541
 6738SOL     OW20671   3.954   5.158   2.400
 6738SOL    HW120672   3.928   5.254   2.400
 6738SOL    HW220673   3.883   5.104   2.445
 6739SOL     OW20674   3.964   4.815   2.748
 6739SOL    HW120675   3.978   4.731   2.800
 6739SOL    HW220676   3.909   4.879   2.803
 6740SOL     OW20677   4.330   4.688   1.985
 6740SOL    HW120678   4.337   4.772   1.931
 6740SOL    HW220679   4.376   4.701   2.073
 6741SOL     OW20680   3.846   4.367   2.425
 6741SOL    HW120681   3.801   4.279   2.442
 6741SOL    HW220682   3.845   4.421   2.509
 6742SOL     OW20683   3.751   5.320   1.979
 6742SOL    HW120684   3.732   5.224   2.000
 6742SOL    HW220685   3.718   5.378   2.054
 6743SOL     OW20686   5.413   4.646   2.474
 6743SOL    HW120687   5.508   4.617   2.482
 6743SOL    HW220688   5.405   4.711   2.399
 6744SOL     OW20689   3.837   4.461   3.459
 6744SOL    HW120690   3.925   4.448   3.504
 6744SOL    HW220691   3.824   4.558   3.437
 6745SOL     OW20692   4.337   5.089   2.588
 6745SOL    HW120693   4.288   5.002   2.597
 6745SOL    HW220694   4.314   5.132   2.501
 6746SOL     OW20695   5.017   4.952   3.285
 6746SOL    HW120696   5.054   4.879   3.227
 6746SOL    HW220697   5.069   4.957   3.370
 6747SOL     OW20698   4.533   3.728   2.364
 6747SOL    HW120699   4.573   3.819   2.355
 6747SOL    HW220700   4.433   3.736   2.370
 6748SOL     OW20701   3.921   4.700   3.126
 6748SOL    HW120702   4.010   4.655   3.112
 6748SOL    HW220703   3.848   4.635   3.107
 6749SOL     OW20704   4.041   3.975   3.663
 6749SOL    HW120705   4.112   4.046   3.669
 6749SOL    HW220706   3.953   4.014   3.691
 6750SOL     OW20707   5.190   5.141   2.815
 6750SOL    HW120708   5.131   5.147   2.895
 6750SOL    HW220709   5.175   5.053   2.769
 6751SOL     OW20710   5.391   5.438   2.434
 6751SOL    HW120711   5.350   5.415   2.346
 6751SOL    HW220712   5.373   5.364   2.499
 6752SOL     OW20713   4.322   4.453   2.132
 6752SOL    HW120714   4.346   4.522   2.064
 6752SOL    HW220715   4.244   4.486   2.186
 6753SOL     OW20716   5.005   4.069   2.806
 6753SOL    HW120717   4.919   4.019   2.793
 6753SOL    HW220718   5.067   4.015   2.862
 6754SOL     OW20719   4.531   4.329   3.327
 6754SOL    HW120720   4.484   4.326   3.416
 6754SOL    HW220721   4.480   4.274   3.261
 6755SOL     OW20722   5.118   4.193   3.536
 6755SOL    HW120723   5.098   4.236   3.624
 6755SOL    HW220724   5.196   4.131   3.545
 6756SOL     OW20725   4.697   4.614   3.434
 6756SOL    HW120726   4.743   4.530   3.405
 6756SOL    HW220727   4.641   4.648   3.359
 6757SOL     OW20728   4.715   4.134   3.104
 6757SOL    HW120729   4.638   4.168   3.158
 6757SOL    HW220730   4.681   4.083   3.025
 6758SOL     OW20731   4.765   4.425   2.291
 6758SOL    HW120732   4.791   4.421   2.387
 6758SOL    HW220733   4.680   4.374   2.277
 6759SOL     OW20734   3.800   4.535   2.651
 6759SOL    HW120735   3.899   4.523   2.660
 6759SOL    HW220736   3.776   4.630   2.672
 6760SOL     OW20737   4.589   4.072   2.057
 6760SOL    HW120738   4.648   4.135   2.008
 6760SOL    HW220739   4.608   3.978   2.028
 6761SOL     OW20740   5.086   4.868   2.407
 6761SOL    HW120741   5.169   4.839   2.359
 6761SOL    HW220742   5.037   4.935   2.351
 6762SOL     OW20743   4.274   3.920   2.747
 6762SOL    HW120744   4.269   3.915   2.847
 6762SOL    HW220745   4.276   4.016   2.718
 6763SOL     OW20746   4.732   5.180   2.339
 6763SOL    HW120747   4.686   5.252   2.287
 6763SOL    HW220748   4.728   5.200   2.437
 6764SOL     OW20749   4.951   5.274   3.368
 6764SOL    HW120750   4.957   5.197   3.432
 6764SOL    HW220751   4.899   5.248   3.288
 6765SOL     OW20752   4.045   4.667   2.104
 6765SOL    HW120753   4.127   4.706   2.062
 6765SOL    HW220754   4.018   4.585   2.055
 6766SOL     OW20755   4.185   4.990   3.589
 6766SOL    HW120756   4.135   4.991   3.503
 6766SOL    HW220757   4.122   4.972   3.665
 6767SOL     OW20758   4.835   5.500   2.099
 6767SOL    HW120759   4.775   5.438   2.149
 6767SOL    HW220760   4.866   5.456   2.014
 6768SOL     OW20761   3.926   4.009   3.360
 6768SOL    HW120762   3.846   4.069   3.347
 6768SOL    HW220763   3.916   3.960   3.446
 6769SOL     OW20764   5.124   3.831   2.288
 6769SOL    HW120765   5.100   3.794   2.198
 6769SOL    HW220766   5.223   3.847   2.292
 6770SOL     OW20767   4.106   4.424   2.342
 6770SOL    HW120768   4.151   4.334   2.339
 6770SOL    HW220769   4.012   4.413   2.375
 6771SOL     OW20770   4.338   3.846   1.979
 6771SOL    HW120771   4.436   3.824   1.986
 6771SOL    HW220772   4.307   3.829   1.886
 6772SOL     OW20773   4.505   3.988   3.611
 6772SOL    HW120774   4.572   3.927   3.654
 6772SOL    HW220775   4.432   4.007   3.676
 6773SOL     OW20776   5.075   4.314   3.295
 6773SOL    HW120777   5.103   4.271   3.380
 6773SOL    HW220778   5.100   4.410   3.296
 6774SOL     OW20779   4.527   5.126   2.786
 6774SOL    HW120780   4.617   5.140   2.744
 6774SOL    HW220781   4.456   5.128   2.715
 6775SOL     OW20782   4.646   4.227   2.761
 6775SOL    HW120783   4.621   4.218   2.665
 6775SOL    HW220784   4.694   4.145   2.792
 6776SOL     OW20785   4.263   3.788   2.374
 6776SOL    HW120786   4.182   3.789   2.432
 6776SOL    HW220787   4.266   3.871   2.319
 6777SOL     OW20788   5.158   4.912   1.903
 6777SOL    HW120789   5.190   4.836   1.960
 6777SOL    HW220790   5.066   4.939   1.933
 6778SOL     OW20791   4.021   3.759   2.033
 6778SOL    HW120792   4.070   3.843   2.012
 6778SOL    HW220793   4.083   3.694   2.078
 6779SOL     OW20794   4.659   3.960   2.342
 6779SOL    HW120795   4.611   4.001   2.264
 6779SOL    HW220796   4.758   3.958   2.323
 6780SOL     OW20797   4.800   4.407   3.326
 6780SOL    HW120798   4.720   4.346   3.329
 6780SOL    HW220799   4.881   4.354   3.302
 6781SOL     OW20800   4.951   5.294   2.655
 6781SOL    HW120801   4.972   5.368   2.590
 6781SOL    HW220802   5.019   5.294   2.728
 6782SOL     OW20803   4.183   4.876   2.603
 6782SOL    HW120804   4.112   4.849   2.668
 6782SOL    HW220805   4.157   4.848   2.510
 6783SOL     OW20806   4.756   4.273   1.878
 6783SOL    HW120807   4.715   4.355   1.839
 6783SOL    HW220808   4.820   4.299   1.951
 6784SOL     OW20809   3.802   4.280   3.248
 6784SOL    HW120810   3.894   4.279   3.207
 6784SOL    HW220811   3.796   4.354   3.315
 6785SOL     OW20812   4.285   3.946   3.009
 6785SOL    HW120813   4.323   3.862   3.046
 6785SOL    HW220814   4.197   3.965   3.053
 6786SOL     OW20815   4.590   4.178   2.504
 6786SOL    HW120816   4.558   4.250   2.442
 6786SOL    HW220817   4.614   4.097   2.451
 6787SOL     OW20818   4.741   3.763   2.615
 6787SOL    HW120819   4.669   3.768   2.546
 6787SOL    HW220820   4.717   3.694   2.684
 6788SOL     OW20821   5.153   4.897   2.729
 6788SOL    HW120822   5.098   4.813   2.722
 6788SOL    HW220823   5.179   4.926   2.637
 6789SOL     OW20824   4.212   5.109   2.036
 6789SOL    HW120825   4.125   5.094   2.083
 6789SOL    HW220826   4.195   5.135   1.941
 6790SOL     OW20827   5.114   4.299   1.940
 6790SOL    HW120828   5.060   4.278   2.021
 6790SOL    HW220829   5.205   4.258   1.949
 6791SOL     OW20830   4.251   3.980   2.190
 6791SOL    HW120831   4.278   3.921   2.115
 6791SOL    HW220832   4.251   4.075   2.159
 6792SOL     OW20833   4.788   5.071   3.202
 6792SOL    HW120834   4.708   5.048   3.257
 6792SOL    HW220835   4.871   5.045   3.251
 6793SOL     OW20836   4.835   4.919   2.962
 6793SOL    HW120837   4.795   4.963   3.043
 6793SOL    HW220838   4.794   4.956   2.879
 6794SOL     OW20839   4.639   3.813   3.264
 6794SOL    HW120840   4.664   3.793   3.169
 6794SOL    HW220841   4.711   3.869   3.306
 6795SOL     OW20842   4.704   4.840   3.581
 6795SOL    HW120843   4.605   4.846   3.591
 6795SOL    HW220844   4.727   4.760   3.525
 6796SOL     OW20845   4.429   4.774   2.230
 6796SOL    HW120846   4.415   4.781   2.329
 6796SOL    HW220847   4.513   4.723   2.212
 6797SOL     OW20848   4.134   4.537   3.113
 6797SOL    HW120849   4.220   4.549   3.163
 6797SOL    HW220850   4.092   4.450   3.140
 6798SOL     OW20851   4.998   4.110   3.124
 6798SOL    HW120852   5.019   4.184   3.188
 6798SOL    HW220853   4.909   4.127   3.081
 6799SOL     OW20854   4.091   4.824   2.363
 6799SOL    HW120855   4.084   4.907   2.307
 6799SOL    HW220856   4.095   4.744   2.303
 6800SOL     OW20857   4.290   4.261   2.727
 6800SOL    HW120858   4.302   4.327   2.653
 6800SOL    HW220859   4.336   4.295   2.810
 6801SOL     OW20860   4.976   5.072   2.250
 6801SOL    HW120861   5.026   5.149   2.290
 6801SOL    HW220862   4.881   5.074   2.282
 6802SOL     OW20863   4.996   5.169   3.004
 6802SOL    HW120864   5.043   5.182   3.091
 6802SOL    HW220865   4.930   5.095   3.013
 6803SOL     OW20866   4.078   5.234   3.191
 6803SOL    HW120867   4.057   5.190   3.104
 6803SOL    HW220868   4.175   5.260   3.194
 6804SOL     OW20869   4.126   4.475   3.460
 6804SOL    HW120870   4.194   4.530   3.413
 6804SOL    HW220871   4.166   4.387   3.487
 6805SOL     OW20872   4.737   3.829   3.632
 6805SOL    HW120873   4.743   3.914   3.580
 6805SOL    HW220874   4.769   3.753   3.575
 6806SOL     OW20875   4.228   3.774   3.602
 6806SOL    HW120876   4.186   3.717   3.532
 6806SOL    HW220877   4.162   3.843   3.634
 6807SOL     OW20878   4.297   4.594   2.891
 6807SOL    HW120879   4.341   4.683   2.882
 6807SOL    HW220880   4.234   4.594   2.968
 6808SOL     OW20881   5.084   4.586   2.907
 6808SOL    HW120882   5.009   4.586   2.841
 6808SOL    HW220883   5.121   4.494   2.916
 6809SOL     OW20884   4.933   4.249   2.137
 6809SOL    HW120885   4.946   4.165   2.191
 6809SOL    HW220886   4.904   4.323   2.197
 6810SOL     OW20887   4.031   3.937   3.093
 6810SOL    HW120888   4.008   3.974   3.183
 6810SOL    HW220889   4.001   3.842   3.087
 6811SOL     OW20890   3.761   5.034   3.144
 6811SOL    HW120891   3.814   4.985   3.212
 6811SOL    HW220892   3.783   5.132   3.149
 6812SOL     OW20893   4.456   4.358   2.926
 6812SOL    HW120894   4.515   4.332   2.850
 6812SOL    HW220895   4.428   4.454   2.915
 6813SOL     OW20896   4.031   3.787   2.480
 6813SOL    HW120897   4.020   3.881   2.513
 6813SOL    HW220898   4.026   3.724   2.557
 6814SOL     OW20899   5.346   4.091   2.236
 6814SOL    HW120900   5.348   4.015   2.300
 6814SOL    HW220901   5.298   4.168   2.276
 6815SOL     OW20902   4.747   4.490   2.828
 6815SOL    HW120903   4.762   4.511   2.924
 6815SOL    HW220904   4.717   4.395   2.819
 6816SOL     OW20905   4.074   4.622   3.666
 6816SOL    HW120906   4.150   4.666   3.714
 6816SOL    HW220907   4.109   4.575   3.584
 6817SOL     OW20908   5.027   4.562   1.904
 6817SOL    HW120909   5.061   4.469   1.919
 6817SOL    HW220910   5.045   4.589   1.809
 6818SOL     OW20911   4.792   5.057   2.711
 6818SOL    HW120912   4.799   4.973   2.656
 6818SOL    HW220913   4.854   5.126   2.675
 6819SOL     OW20914   4.043   4.534   2.811
 6819SOL    HW120915   4.136   4.570   2.816
 6819SOL    HW220916   4.037   4.449   2.863
 6820SOL     OW20917   4.063   4.233   2.868
 6820SOL    HW120918   4.011   4.150   2.851
 6820SOL    HW220919   4.140   4.238   2.804
 6821SOL     OW20920   4.862   4.104   3.540
 6821SOL    HW120921   4.817   4.167   3.604
 6821SOL    HW220922   4.955   4.135   3.523
 6822SOL     OW20923   4.884   3.931   3.339
 6822SOL    HW120924   4.884   3.995   3.416
 6822SOL    HW220925   4.912   3.979   3.256
 6823SOL     OW20926   3.732   5.050   2.062
 6823SOL    HW120927   3.639   5.071   2.031
 6823SOL    HW220928   3.742   4.951   2.075
 6824SOL     OW20929   4.726   4.520   3.100
 6824SOL    HW120930   4.767   4.488   3.186
 6824SOL    HW220931   4.630   4.493   3.097
 6825SOL     OW20932   3.764   4.268   2.976
 6825SOL    HW120933   3.849   4.235   2.935
 6825SOL    HW220934   3.777   4.283   3.074
 6826SOL     OW20935   3.913   4.244   3.584
 6826SOL    HW120936   3.972   4.204   3.514
 6826SOL    HW220937   3.855   4.315   3.543
 6827SOL     OW20938   5.093   4.674   3.522
 6827SOL    HW120939   5.132   4.763   3.542
 6827SOL    HW220940   5.103   4.654   3.425
 6828SOL     OW20941   4.539   4.296   2.187
 6828SOL    HW120942   4.546   4.207   2.141
 6828SOL    HW220943   4.445   4.330   2.179
 6829SOL     OW20944   3.976   5.288   3.606
 6829SOL    HW120945   3.946   5.345   3.682
 6829SOL    HW220946   3.969   5.191   3.632
 6830SOL     OW20947   4.395   4.188   3.131
 6830SOL    HW120948   4.361   4.099   3.101
 6830SOL    HW220949   4.421   4.242   3.051
 6831SOL     OW20950   4.197   4.224   2.053
 6831SOL    HW120951   4.258   4.304   2.057
 6831SOL    HW220952   4.102   4.255   2.060
 6832SOL     OW20953   3.883   4.861   3.328
 6832SOL    HW120954   3.905   4.800   3.404
 6832SOL    HW220955   3.893   4.812   3.242
 6833SOL     OW20956   5.071   4.783   3.096
 6833SOL    HW120957   5.095   4.720   3.022
 6833SOL    HW220958   4.981   4.823   3.078
 6834SOL     OW20959   5.026   4.579   2.171
 6834SOL    HW120960   4.940   4.548   2.213
 6834SOL    HW220961   5.022   4.565   2.072
 6835SOL     OW20962   3.807   4.982   2.884
 6835SOL    HW120963   3.802   4.981   2.984
 6835SOL    HW220964   3.724   4.941   2.846
 6836SOL     OW20965   4.412   5.386   3.578
 6836SOL    HW120966   4.356   5.467   3.587
 6836SOL    HW220967   4.464   5.390   3.492
 6837SOL     OW20968   5.450   3.859   2.385
 6837SOL    HW120969   5.523   3.842   2.318
 6837SOL    HW220970   5.419   3.772   2.423
 6838SOL     OW20971   5.004   4.651   2.534
 6838SOL    HW120972   5.064   4.570   2.536
 6838SOL    HW220973   5.044   4.720   2.474
 6839SOL     OW20974   4.554   4.997   3.284
 6839SOL    HW120975   4.549   5.030   3.379
 6839SOL    HW220976   4.468   5.016   3.238
 6840SOL     OW20977   3.987   4.050   2.582
 6840SOL    HW120978   3.908   4.101   2.548
 6840SOL    HW220979   3.978   4.035   2.680
 6841SOL     OW20980   4.546   4.726   3.234
 6841SOL    HW120981   4.586   4.725   3.142
 6841SOL    HW220982   4.556   4.818   3.274
 6842SOL     OW20983   4.640   4.634   2.153
 6842SOL    HW120984   4.703   4.672   2.085
 6842SOL    HW220985   4.680   4.551   2.192
 6843SOL     OW20986   4.096   5.012   3.352
 6843SOL    HW120987   4.083   5.105   3.318
 6843SOL    HW220988   4.012   4.960   3.339
 6844SOL     OW20989   4.763   4.822   2.558
 6844SOL    HW120990   4.693   4.775   2.612
 6844SOL    HW220991   4.822   4.754   2.515
 6845SOL     OW20992   4.738   3.960   2.833
 6845SOL    HW120993   4.730   3.924   2.740
 6845SOL    HW220994   4.736   3.884   2.898
 6846SOL     OW20995   3.979   5.072   2.152
 6846SOL    HW120996   3.883   5.073   2.125
 6846SOL    HW220997   3.991   5.125   2.236
 6847SOL     OW20998   3.829   4.737   3.588
 6847SOL    HW120999   3.752   4.704   3.642
 6847SOL    HW221000   3.914   4.707   3.630
 6848SOL     OW21001   4.396   3.927   3.351
 6848SOL    HW121002   4.486   3.911   3.311
 6848SOL    HW221003   4.404   3.932   3.450
 6849SOL     OW21004   3.799   4.069   1.895
 6849SOL    HW121005   3.707   4.041   1.866
 6849SOL    HW221006   3.830   4.146   1.839
 6850SOL     OW21007   5.164   4.580   3.260
 6850SOL    HW121008   5.107   4.632   3.197
 6850SOL    HW221009   5.260   4.592   3.236
 6851SOL     OW21010   3.796   3.890   2.180
 6851SOL    HW121011   3.779   3.973   2.126
 6851SOL    HW221012   3.886   3.853   2.158
 6852SOL     OW21013   4.907   5.059   1.981
 6852SOL    HW121014   4.808   5.048   1.983
 6852SOL    HW221015   4.941   5.074   2.074
 6853SOL     OW21016   4.337   4.566   3.293
 6853SOL    HW121017   4.393   4.647   3.276
 6853SOL    HW221018   4.396   4.486   3.296
 6854SOL     OW21019   4.440   4.289   3.570
 6854SOL    HW121020   4.459   4.354   3.644
 6854SOL    HW221021   4.500   4.209   3.579
 6855SOL     OW21022   5.174   4.944   3.495
 6855SOL    HW121023   5.165   4.934   3.594
 6855SOL    HW221024   5.270   4.937   3.469
 6856SOL     OW21025   4.949   4.049   2.311
 6856SOL    HW121026   5.014   3.975   2.300
 6856SOL    HW221027   4.969   4.099   2.395
 6857SOL     OW21028   4.318   4.469   2.514
 6857SOL    HW121029   4.368   4.554   2.495
 6857SOL    HW221030   4.230   4.471   2.466
 6858SOL     OW21031   4.583   5.098   1.878
 6858SOL    HW121032   4.537   5.113   1.966
 6858SOL    HW221033   4.627   5.183   1.848
 6859SOL     OW21034   4.583   4.680   2.723
 6859SOL    HW121035   4.637   4.611   2.771
 6859SOL    HW221036   4.551   4.749   2.789
 6860SOL     OW21037   4.807   4.708   1.949
 6860SOL    HW121038   4.784   4.761   1.867
 6860SOL    HW221039   4.888   4.652   1.930
 6861SOL     OW21040   3.945   5.038   3.706
 6861SOL    HW121041   3.880   4.965   3.685
 6861SOL    HW221042   3.949   5.052   3.804
 6862SOL     OW21043   3.803   4.964   2.515
 6862SOL    HW121044   3.802   4.917   2.603
 6862SOL    HW221045   3.885   4.936   2.464
 6863SOL     OW21046   4.396   5.115   3.486
 6863SOL    HW121047   4.318   5.065   3.524
 6863SOL    HW221048   4.393   5.210   3.517
 6864SOL     OW21049   4.152   4.148   2.382
 6864SOL    HW121050   4.182   4.076   2.320
 6864SOL    HW221051   4.113   4.108   2.465
 6865SOL     OW21052   5.429   5.211   2.966
 6865SOL    HW121053   5.336   5.186   2.939
 6865SOL    HW221054   5.455   5.161   3.048
 6866SOL     OW21055   4.041   4.271   3.142
 6866SOL    HW121056   4.079   4.212   3.214
 6866SOL    HW221057   4.081   4.245   3.054
 6867SOL     OW21058   5.148   3.938   2.974
 6867SOL    HW121059   5.200   3.873   3.029
 6867SOL    HW221060   5.099   4.001   3.035
 6868SOL     OW21061   4.725   3.758   3.016
 6868SOL    HW121062   4.662   3.686   2.985
 6868SOL    HW221063   4.818   3.722   3.016
 6869SOL     OW21064   4.494   5.054   2.163
 6869SOL    HW121065   4.448   4.967   2.180
 6869SOL    HW221066   4.585   5.051   2.204
 6870SOL     OW21067   4.342   5.291   3.146
 6870SOL    HW121068   4.337   5.373   3.203
 6870SOL    HW221069   4.431   5.288   3.101
 6871SOL     OW21070   5.076   3.776   2.030
 6871SOL    HW121071   5.111   3.735   1.946
 6871SOL    HW221072   4.986   3.738   2.050
 6872SOL     OW21073   5.024   4.177   2.553
 6872SOL    HW121074   4.965   4.257   2.557
 6872SOL    HW221075   5.039   4.142   2.646
 6873SOL     OW21076   5.317   3.945   2.744
 6873SOL    HW121077   5.233   3.944   2.798
 6873SOL    HW221078   5.319   4.028   2.688
 6874SOL     OW21079   3.763   4.801   2.162
 6874SOL    HW121080   3.862   4.790   2.153
 6874SOL    HW221081   3.723   4.715   2.194
 6875SOL     OW21082   3.954   4.352   3.837
 6875SOL    HW121083   3.861   4.350   3.874
 6875SOL    HW221084   3.955   4.313   3.745
 6876SOL     OW21085   3.949   3.999   4.720
 6876SOL    HW121086   3.984   3.982   4.812
 6876SOL    HW221087   3.861   3.954   4.708
 6877SOL     OW21088   3.743   4.092   4.371
 6877SOL    HW121089   3.661   4.135   4.410
 6877SOL    HW221090   3.715   4.019   4.308
 6878SOL     OW21091   4.293   4.999   4.889
 6878SOL    HW121092   4.200   4.992   4.852
 6878SOL    HW221093   4.304   5.088   4.933
 6879SOL     OW21094   5.279   5.235   4.427
 6879SOL    HW121095   5.222   5.219   4.508
 6879SOL    HW221096   5.220   5.245   4.347
 6880SOL     OW21097   4.859   4.427   4.441
 6880SOL    HW121098   4.916   4.505   4.416
 6880SOL    HW221099   4.799   4.453   4.517
 6881SOL     OW21100   4.492   4.868   4.747
 6881SOL    HW121101   4.414   4.885   4.807
 6881SOL    HW221102   4.526   4.955   4.711
 6882SOL     OW21103   4.574   4.522   5.547
 6882SOL    HW121104   4.570   4.598   5.612
 6882SOL    HW221105   4.596   4.558   5.456
 6883SOL     OW21106   4.409   4.736   4.389
 6883SOL    HW121107   4.478   4.720   4.459
 6883SOL    HW221108   4.336   4.793   4.427
 6884SOL     OW21109   4.410   4.885   5.527
 6884SOL    HW121110   4.470   4.964   5.541
 6884SOL    HW221111   4.324   4.916   5.486
 6885SOL     OW21112   4.059   5.159   4.785
 6885SOL    HW121113   3.981   5.128   4.732
 6885SOL    HW221114   4.117   5.217   4.728
 6886SOL     OW21115   5.184   5.229   5.063
 6886SOL    HW121116   5.208   5.323   5.089
 6886SOL    HW221117   5.168   5.175   5.145
 6887SOL     OW21118   4.162   4.116   5.223
 6887SOL    HW121119   4.244   4.060   5.232
 6887SOL    HW221120   4.081   4.058   5.227
 6888SOL     OW21121   4.851   5.065   5.414
 6888SOL    HW121122   4.898   5.065   5.502
 6888SOL    HW221123   4.803   4.978   5.403
 6889SOL     OW21124   3.954   5.158   4.262
 6889SOL    HW121125   3.928   5.254   4.262
 6889SOL    HW221126   3.883   5.104   4.307
 6890SOL     OW21127   3.964   4.815   4.610
 6890SOL    HW121128   3.978   4.731   4.662
 6890SOL    HW221129   3.909   4.879   4.665
 6891SOL     OW21130   4.330   4.688   3.847
 6891SOL    HW121131   4.337   4.772   3.793
 6891SOL    HW221132   4.376   4.701   3.935
 6892SOL     OW21133   3.846   4.367   4.287
 6892SOL    HW121134   3.801   4.279   4.304
 6892SOL    HW221135   3.845   4.421   4.371
 6893SOL     OW21136   3.751   5.320   3.841
 6893SOL    HW121137   3.732   5.224   3.862
 6893SOL    HW221138   3.718   5.378   3.916
 6894SOL     OW21139   5.413   4.646   4.336
 6894SOL    HW121140   5.508   4.617   4.344
 6894SOL    HW221141   5.405   4.711   4.261
 6895SOL     OW21142   3.837   4.461   5.321
 6895SOL    HW121143   3.925   4.448   5.366
 6895SOL    HW221144   3.824   4.558   5.299
 6896SOL     OW21145   4.337   5.089   4.450
 6896SOL    HW121146   4.288   5.002   4.459
 6896SOL    HW221147   4.314   5.132   4.363
 6897SOL     OW21148   5.017   4.952   5.147
 6897SOL    HW121149   5.054   4.879   5.089
 6897SOL    HW221150   5.069   4.957   5.232
 6898SOL     OW21151   4.533   3.728   4.226
 6898SOL    HW121152   4.573   3.819   4.217
 6898SOL    HW221153   4.433   3.736   4.232
 6899SOL     OW21154   3.921   4.700   4.988
 6899SOL    HW121155   4.010   4.655   4.974
 6899SOL    HW221156   3.848   4.635   4.969
 6900SOL     OW21157   4.041   3.975   5.525
 6900SOL    HW121158   4.112   4.046   5.531
 6900SOL    HW221159   3.953   4.014   5.553
 6901SOL     OW21160   5.190   5.141   4.677
 6901SOL    HW121161   5.131   5.147   4.757
 6901SOL    HW221162   5.175   5.053   4.631
 6902SOL     OW21163   5.391   5.438   4.296
 6902SOL    HW121164   5.350   5.415   4.208
 6902SOL    HW221165   5.373   5.364   4.361
 6903SOL     OW21166   4.322   4.453   3.994
 6903SOL    HW121167   4.346   4.522   3.926
 6903SOL    HW221168   4.244   4.486   4.048
 6904SOL     OW21169   5.005   4.069   4.668
 6904SOL    HW121170   4.919   4.019   4.655
 6904SOL    HW221171   5.067   4.015   4.724
 6905SOL     OW21172   4.531   4.329   5.189
 6905SOL    HW121173   4.484   4.326   5.278
 6905SOL    HW221174   4.480   4.274   5.123
 6906SOL     OW21175   5.118   4.193   5.398
 6906SOL    HW121176   5.098   4.236   5.486
 6906SOL    HW221177   5.196   4.131   5.407
 6907SOL     OW21178   4.697   4.614   5.296
 6907SOL    HW121179   4.743   4.530   5.267
 6907SOL    HW221180   4.641   4.648   5.221
 6908SOL     OW21181   4.715   4.134   4.966
 6908SOL    HW121182   4.638   4.168   5.020
 6908SOL    HW221183   4.681   4.083   4.887
 6909SOL     OW21184   4.765   4.425   4.153
 6909SOL    HW121185   4.791   4.421   4.249
 6909SOL    HW221186   4.680   4.374   4.139
 6910SOL     OW21187   3.800   4.535   4.513
 6910SOL    HW121188   3.899   4.523   4.522
 6910SOL    HW221189   3.776   4.630   4.534
 6911SOL     OW21190   4.589   4.072   3.919
 6911SOL    HW121191   4.648   4.135   3.870
 6911SOL    HW221192   4.608   3.978   3.890
 6912SOL     OW21193   5.086   4.868   4.269
 6912SOL    HW121194   5.169   4.839   4.221
 6912SOL    HW221195   5.037   4.935   4.213
 6913SOL     OW21196   4.274   3.920   4.609
 6913SOL    HW121197   4.269   3.915   4.709
 6913SOL    HW221198   4.276   4.016   4.580
 6914SOL     OW21199   4.732   5.180   4.201
 6914SOL    HW121200   4.686   5.252   4.149
 6914SOL    HW221201   4.728   5.200   4.299
 6915SOL     OW21202   4.951   5.274   5.230
 6915SOL    HW121203   4.957   5.197   5.294
 6915SOL    HW221204   4.899   5.248   5.150
 6916SOL     OW21205   4.045   4.667   3.966
 6916SOL    HW121206   4.127   4.706   3.924
 6916SOL    HW221207   4.018   4.585   3.917
 6917SOL     OW21208   4.185   4.990   5.451
 6917SOL    HW121209   4.135   4.991   5.365
 6917SOL    HW221210   4.122   4.972   5.527
 6918SOL     OW21211   4.835   5.500   3.961
 6918SOL    HW121212   4.775   5.438   4.011
 6918SOL    HW221213   4.866   5.456   3.876
 6919SOL     OW21214   3.926   4.009   5.222
 6919SOL    HW121215   3.846   4.069   5.209
 6919SOL    HW221216   3.916   3.960   5.308
 6920SOL     OW21217   5.124   3.831   4.150
 6920SOL    HW121218   5.100   3.794   4.060
 6920SOL    HW221219   5.223   3.847   4.154
 6921SOL     OW21220   4.106   4.424   4.204
 6921SOL    HW121221   4.151   4.334   4.201
 6921SOL    HW221222   4.012   4.413   4.237
 6922SOL     OW21223   4.338   3.846   3.841
 6922SOL    HW121224   4.436   3.824   3.848
 6922SOL    HW221225   4.307   3.829   3.748
 6923SOL     OW21226   4.505   3.988   5.473
 6923SOL    HW121227   4.572   3.927   5.516
 6923SOL    HW221228   4.432   4.007   5.538
 6924SOL     OW21229   5.075   4.314   5.157
 6924SOL    HW121230   5.103   4.271   5.242
 6924SOL    HW221231   5.100   4.410   5.158
 6925SOL     OW21232   4.527   5.126   4.648
 6925SOL    HW121233   4.617   5.140   4.606
 6925SOL    HW221234   4.456   5.128   4.577
 6926SOL     OW21235   4.646   4.227   4.623
 6926SOL    HW121236   4.621   4.218   4.527
 6926SOL    HW221237   4.694   4.145   4.654
 6927SOL     OW21238   4.263   3.788   4.236
 6927SOL    HW121239   4.182   3.789   4.294
 6927SOL    HW221240   4.266   3.871   4.181
 6928SOL     OW21241   5.158   4.912   3.765
 6928SOL    HW121242   5.190   4.836   3.822
 6928SOL    HW221243   5.066   4.939   3.795
 6929SOL     OW21244   4.021   3.759   3.895
 6929SOL    HW121245   4.070   3.843   3.874
 6929SOL    HW221246   4.083   3.694   3.940
 6930SOL     OW21247   4.659   3.960   4.204
 6930SOL    HW121248   4.611   4.001   4.126
 6930SOL    HW221249   4.758   3.958   4.185
 6931SOL     OW21250   4.800   4.407   5.188
 6931SOL    HW121251   4.720   4.346   5.191
 6931SOL    HW221252   4.881   4.354   5.164
 6932SOL     OW21253   4.951   5.294   4.517
 6932SOL    HW121254   4.972   5.368   4.452
 6932SOL    HW221255   5.019   5.294   4.590
 6933SOL     OW21256   4.183   4.876   4.465
 6933SOL    HW121257   4.112   4.849   4.530
 6933SOL    HW221258   4.157   4.848   4.372
 6934SOL     OW21259   4.756   4.273   3.740
 6934SOL    HW121260   4.715   4.355   3.701
 6934SOL    HW221261   4.820   4.299   3.813
 6935SOL     OW21262   3.802   4.280   5.110
 6935SOL    HW121263   3.894   4.279   5.069
 6935SOL    HW221264   3.796   4.354   5.177
 6936SOL     OW21265   4.285   3.946   4.871
 6936SOL    HW121266   4.323   3.862   4.908
 6936SOL    HW221267   4.197   3.965   4.915
 6937SOL     OW21268   4.590   4.178   4.366
 6937SOL    HW121269   4.558   4.250   4.304
 6937SOL    HW221270   4.614   4.097   4.313
 6938SOL     OW21271   4.741   3.763   4.477
 6938SOL    HW121272   4.669   3.768   4.408
 6938SOL    HW221273   4.717   3.694   4.546
 6939SOL     OW21274   5.153   4.897   4.591
 6939SOL    HW121275   5.098   4.813   4.584
 6939SOL    HW221276   5.179   4.926   4.499
 6940SOL     OW21277   4.212   5.109   3.898
 6940SOL    HW121278   4.125   5.094   3.945
 6940SOL    HW221279   4.195   5.135   3.803
 6941SOL     OW21280   5.114   4.299   3.802
 6941SOL    HW121281   5.060   4.278   3.883
 6941SOL    HW221282   5.205   4.258   3.811
 6942SOL     OW21283   4.251   3.980   4.052
 6942SOL    HW121284   4.278   3.921   3.977
 6942SOL    HW221285   4.251   4.075   4.021
 6943SOL     OW21286   4.788   5.071   5.064
 6943SOL    HW121287   4.708   5.048   5.119
 6943SOL    HW221288   4.871   5.045   5.113
 6944SOL     OW21289   4.835   4.919   4.824
 6944SOL    HW121290   4.795   4.963   4.905
 6944SOL    HW221291   4.794   4.956   4.741
 6945SOL     OW21292   4.639   3.813   5.126
 6945SOL    HW121293   4.664   3.793   5.031
 6945SOL    HW221294   4.711   3.869   5.168
 6946SOL     OW21295   4.704   4.840   5.443
 6946SOL    HW121296   4.605   4.846   5.453
 6946SOL    HW221297   4.727   4.760   5.387
 6947SOL     OW21298   4.429   4.774   4.092
 6947SOL    HW121299   4.415   4.781   4.191
 6947SOL    HW221300   4.513   4.723   4.074
 6948SOL     OW21301   4.134   4.537   4.975
 6948SOL    HW121302   4.220   4.549   5.025
 6948SOL    HW221303   4.092   4.450   5.002
 6949SOL     OW21304   4.998   4.110   4.986
 6949SOL    HW121305   5.019   4.184   5.050
 6949SOL    HW221306   4.909   4.127   4.943
 6950SOL     OW21307   4.091   4.824   4.225
 6950SOL    HW121308   4.084   4.907   4.169
 6950SOL    HW221309   4.095   4.744   4.165
 6951SOL     OW21310   4.290   4.261   4.589
 6951SOL    HW121311   4.302   4.327   4.515
 6951SOL    HW221312   4.336   4.295   4.672
 6952SOL     OW21313   4.976   5.072   4.112
 6952SOL    HW121314   5.026   5.149   4.152
 6952SOL    HW221315   4.881   5.074   4.144
 6953SOL     OW21316   4.996   5.169   4.866
 6953SOL    HW121317   5.043   5.182   4.953
 6953SOL    HW221318   4.930   5.095   4.875
 6954SOL     OW21319   4.078   5.234   5.053
 6954SOL    HW121320   4.057   5.190   4.966
 6954SOL    HW221321   4.175   5.260   5.056
 6955SOL     OW21322   4.126   4.475   5.322
 6955SOL    HW121323   4.194   4.530   5.275
 6955SOL    HW221324   4.166   4.387   5.349
 6956SOL     OW21325   4.737   3.829   5.494
 6956SOL    HW121326   4.743   3.914   5.442
 6956SOL    HW221327   4.769   3.753   5.437
 6957SOL     OW21328   4.228   3.774   5.464
 6957SOL    HW121329   4.186   3.717   5.394
 6957SOL    HW221330   4.162   3.843   5.496
 6958SOL     OW21331   4.297   4.594   4.753
 6958SOL    HW121332   4.341   4.683   4.744
 6958SOL    HW221333   4.234   4.594   4.830
 6959SOL     OW21334   5.084   4.586   4.769
 6959SOL    HW121335   5.009   4.586   4.703
 6959SOL    HW221336   5.121   4.494   4.778
 6960SOL     OW21337   4.933   4.249   3.999
 6960SOL    HW121338   4.946   4.165   4.053
 6960SOL    HW221339   4.904   4.323   4.059
 6961SOL     OW21340   4.031   3.937   4.955
 6961SOL    HW121341   4.008   3.974   5.045
 6961SOL    HW221342   4.001   3.842   4.949
 6962SOL     OW21343   3.761   5.034   5.006
 6962SOL    HW121344   3.814   4.985   5.074
 6962SOL    HW221345   3.783   5.132   5.011
 6963SOL     OW21346   4.456   4.358   4.788
 6963SOL    HW121347   4.515   4.332   4.712
 6963SOL    HW221348   4.428   4.454   4.777
 6964SOL     OW21349   4.031   3.787   4.342
 6964SOL    HW121350   4.020   3.881   4.375
 6964SOL    HW221351   4.026   3.724   4.419
 6965SOL     OW21352   5.346   4.091   4.098
 6965SOL    HW121353   5.348   4.015   4.162
 6965SOL    HW221354   5.298   4.168   4.138
 6966SOL     OW21355   4.747   4.490   4.690
 6966SOL    HW121356   4.762   4.511   4.786
 6966SOL    HW221357   4.717   4.395   4.681
 6967SOL     OW21358   4.074   4.622   5.528
 6967SOL    HW121359   4.150   4.666   5.576
 6967SOL    HW221360   4.109   4.575   5.446
 6968SOL     OW21361   5.027   4.562   3.766
 6968SOL    HW121362   5.061   4.469   3.781
 6968SOL    HW221363   5.045   4.589   3.671
 6969SOL     OW21364   4.792   5.057   4.573
 6969SOL    HW121365   4.799   4.973   4.518
 6969SOL    HW221366   4.854   5.126   4.537
 6970SOL     OW21367   4.043   4.534   4.673
 6970SOL    HW121368   4.136   4.570   4.678
 6970SOL    HW221369   4.037   4.449   4.725
 6971SOL     OW21370   4.063   4.233   4.730
 6971SOL    HW121371   4.011   4.150   4.713
 6971SOL    HW221372   4.140   4.238   4.666
 6972SOL     OW21373   4.862   4.104   5.402
 6972SOL    HW121374   4.817   4.167   5.466
 6972SOL    HW221375   4.955   4.135   5.385
 6973SOL     OW21376   4.884   3.931   5.201
 6973SOL    HW121377   4.884   3.995   5.278
 6973SOL    HW221378   4.912   3.979   5.118
 6974SOL     OW21379   3.732   5.050   3.924
 6974SOL    HW121380   3.639   5.071   3.893
 6974SOL    HW221381   3.742   4.951   3.937
 6975SOL     OW21382   4.726   4.520   4.962
 6975SOL    HW121383   4.767   4.488   5.048
 6975SOL    HW221384   4.630   4.493   4.959
 6976SOL     OW21385   3.764   4.268   4.838
 6976SOL    HW121386   3.849   4.235   4.797
 6976SOL    HW221387   3.777   4.283   4.936
 6977SOL     OW21388   3.913   4.244   5.446
 6977SOL    HW121389   3.972   4.204   5.376
 6977SOL    HW221390   3.855   4.315   5.405
 6978SOL     OW21391   5.093   4.674   5.384
 6978SOL    HW121392   5.132   4.763   5.404
 6978SOL    HW221393   5.103   4.654   5.287
 6979SOL     OW21394   4.539   4.296   4.049
 6979SOL    HW121395   4.546   4.207   4.003
 6979SOL    HW221396   4.445   4.330   4.041
 6980SOL     OW21397   3.976   5.288   5.468
 6980SOL    HW121398   3.946   5.345   5.544
 6980SOL    HW221399   3.969   5.191   5.494
 6981SOL     OW21400   4.395   4.188   4.993
 6981SOL    HW121401   4.361   4.099   4.963
 6981SOL    HW221402   4.421   4.242   4.913
 6982SOL     OW21403   4.197   4.224   3.915
 6982SOL    HW121404   4.258   4.304   3.919
 6982SOL    HW221405   4.102   4.255   3.922
 6983SOL     OW21406   3.883   4.861   5.190
 6983SOL    HW121407   3.905   4.800   5.266
 6983SOL    HW221408   3.893   4.812   5.104
 6984SOL     OW21409   5.071   4.783   4.958
 6984SOL    HW121410   5.095   4.720   4.884
 6984SOL    HW221411   4.981   4.823   4.940
 6985SOL     OW21412   5.026   4.579   4.033
 6985SOL    HW121413   4.940   4.548   4.075
 6985SOL    HW221414   5.022   4.565   3.934
 6986SOL     OW21415   3.807   4.982   4.746
 6986SOL    HW121416   3.802   4.981   4.846
 6986SOL    HW221417   3.724   4.941   4.708
 6987SOL     OW21418   4.412   5.386   5.440
 6987SOL    HW121419   4.356   5.467   5.449
 6987SOL    HW221420   4.464   5.390   5.354
 6988SOL     OW21421   5.450   3.859   4.247
 6988SOL    HW121422   5.523   3.842   4.180
 6988SOL    HW221423   5.419   3.772   4.285
 6989SOL     OW21424   5.004   4.651   4.396
 6989SOL    HW121425   5.064   4.570   4.398
 6989SOL    HW221426   5.044   4.720   4.336
 6990SOL     OW21427   4.554   4.997   5.146
 6990SOL    HW121428   4.549   5.030   5.241
 6990SOL    HW221429   4.468   5.016   5.100
 6991SOL     OW21430   3.987   4.050   4.444
 6991SOL    HW121431   3.908   4.101   4.410
 6991SOL    HW221432   3.978   4.035   4.542
 6992SOL     OW21433   4.546   4.726   5.096
 6992SOL    HW121434   4.586   4.725   5.004
 6992SOL    HW221435   4.556   4.818   5.136
 6993SOL     OW21436   4.640   4.634   4.015
 6993SOL    HW121437   4.703   4.672   3.947
 6993SOL    HW221438   4.680   4.551   4.054
 6994SOL     OW21439   4.096   5.012   5.214
 6994SOL    HW121440   4.083   5.105   5.180
 6994SOL    HW221441   4.012   4.960   5.201
 6995SOL     OW21442   4.763   4.822   4.420
 6995SOL    HW121443   4.693   4.775   4.474
 6995SOL    HW221444   4.822   4.754   4.377
 6996SOL     OW21445   4.738   3.960   4.695
 6996SOL    HW121446   4.730   3.924   4.602
 6996SOL    HW221447   4.736   3.884   4.760
 6997SOL     OW21448   3.979   5.072   4.014
 6997SOL    HW121449   3.883   5.073   3.987
 6997SOL    HW221450   3.991   5.125   4.098
 6998SOL     OW21451   3.829   4.737   5.450
 6998SOL    HW121452   3.752   4.704   5.504
 6998SOL    HW221453   3.914   4.707   5.492
 6999SOL     OW21454   4.396   3.927   5.213
 6999SOL    HW121455   4.486   3.911   5.173
 6999SOL    HW221456   4.404   3.932   5.312
 7000SOL     OW21457   3.799   4.069   3.757
 7000SOL    HW121458   3.707   4.041   3.728
 7000SOL    HW221459   3.830   4.146   3.701
 7001SOL     OW21460   5.164   4.580   5.122
 7001SOL    HW121461   5.107   4.632   5.059
 7001SOL    HW221462   5.260   4.592   5.098
 7002SOL     OW21463   3.796   3.890   4.042
 7002SOL    HW121464   3.779   3.973   3.988
 7002SOL    HW221465   3.886   3.853   4.020
 7003SOL     OW21466   4.907   5.059   3.843
 7003SOL    HW121467   4.808   5.048   3.845
 7003SOL    HW221468   4.941   5.074   3.936
 7004SOL     OW21469   4.337   4.566   5.155
 7004SOL    HW121470   4.393   4.647   5.138
 7004SOL    HW221471   4.396   4.486   5.158
 7005SOL     OW21472   4.440   4.289   5.432
 7005SOL    HW121473   4.459   4.354   5.506
 7005SOL    HW221474   4.500   4.209   5.441
 7006SOL     OW21475   5.174   4.944   5.357
 7006SOL    HW121476   5.165   4.934   5.456
 7006SOL    HW221477   5.270   4.937   5.331
 7007SOL     OW21478   4.949   4.049   4.173
 7007SOL    HW121479   5.014   3.975   4.162
 7007SOL    HW221480   4.969   4.099   4.257
 7008SOL     OW21481   4.318   4.469   4.376
 7008SOL    HW121482   4.368   4.554   4.357
 7008SOL    HW221483   4.230   4.471   4.328
 7009SOL     OW21484   4.583   5.098   3.740
 7009SOL    HW121485   4.537   5.113   3.828
 7009SOL    HW221486   4.627   5.183   3.710
 7010SOL     OW21487   4.583   4.680   4.585
 7010SOL    HW121488   4.637   4.611   4.633
 7010SOL    HW221489   4.551   4.749   4.651
 7011SOL     OW21490   4.807   4.708   3.811
 7011SOL    HW121491   4.784   4.761   3.729
 7011SOL    HW221492   4.888   4.652   3.792
 7012SOL     OW21493   3.945   5.038   5.568
 7012SOL    HW121494   3.880   4.965   5.547
 7012SOL    HW221495   3.949   5.052   5.666
 7013SOL     OW21496   3.803   4.964   4.377
 7013SOL    HW121497   3.802   4.917   4.465
 7013SOL    HW221498   3.885   4.936   4.326
 7014SOL     OW21499   4.396   5.115   5.348
 7014SOL    HW121500   4.318   5.065   5.386
 7014SOL    HW221501   4.393   5.210   5.379
 7015SOL     OW21502   4.152   4.148   4.244
 7015SOL    HW121503   4.182   4.076   4.182
 7015SOL    HW221504   4.113   4.108   4.327
 7016SOL     OW21505   5.429   5.211   4.828
 7016SOL    HW121506   5.336   5.186   4.801
 7016SOL    HW221507   5.455   5.161   4.910
 7017SOL     OW21508   4.041   4.271   5.004
 7017SOL    HW121509   4.079   4.212   5.076
 7017SOL    HW221510   4.081   4.245   4.916
 7018SOL     OW21511   5.148   3.938   4.836
 7018SOL    HW121512   5.200   3.873   4.891
 7018SOL    HW221513   5.099   4.001   4.897
 7019SOL     OW21514   4.725   3.758   4.878
 7019SOL    HW121515   4.662   3.686   4.847
 7019SOL    HW221516   4.818   3.722   4.878
 7020SOL     OW21517   4.494   5.054   4.025
 7020SOL    HW121518   4.448   4.967   4.042
 7020SOL    HW221519   4.585   5.051   4.066
 7021SOL     OW21520   4.342   5.291   5.008
 7021SOL    HW121521   4.337   5.373   5.065
 7021SOL    HW221522   4.431   5.288   4.963
 7022SOL     OW21523   5.076   3.776   3.892
 7022SOL    HW121524   5.111   3.735   3.808
 7022SOL    HW221525   4.986   3.738   3.912
 7023SOL     OW21526   5.024   4.177   4.415
 7023SOL    HW121527   4.965   4.257   4.419
 7023SOL    HW221528   5.039   4.142   4.508
 7024SOL     OW21529   5.317   3.945   4.606
 7024SOL    HW121530   5.233   3.944   4.660
 7024SOL    HW221531   5.319   4.028   4.550
 7025SOL     OW21532   3.763   4.801   4.024
 7025SOL    HW121533   3.862   4.790   4.015
 7025SOL    HW221534   3.723   4.715   4.056
 7026SOL     OW21535   3.954   4.352   5.699
 7026SOL    HW121536   3.861   4.350   5.736
 7026SOL    HW221537   3.955   4.313   5.607
 7027SOL     OW21538   3.949   3.999   6.582
 7027SOL    HW121539   3.984   3.982   6.674
 7027SOL    HW221540   3.861   3.954   6.570
 7028SOL     OW21541   3.743   4.092   6.233
 7028SOL    HW121542   3.661   4.135   6.272
 7028SOL    HW221543   3.715   4.019   6.170
 7029SOL     OW21544   4.293   4.999   6.751
 7029SOL    HW121545   4.200   4.992   6.714
 7029SOL    HW221546   4.304   5.088   6.795
 7030SOL     OW21547   5.279   5.235   6.289
 7030SOL    HW121548   5.222   5.219   6.370
 7030SOL    HW221549   5.220   5.245   6.209
 7031SOL     OW21550   4.859   4.427   6.303
 7031SOL    HW121551   4.916   4.505   6.278
 7031SOL    HW221552   4.799   4.453   6.379
 7032SOL     OW21553   4.492   4.868   6.609
 7032SOL    HW121554   4.414   4.885   6.669
 7032SOL    HW221555   4.526   4.955   6.573
 7033SOL     OW21556   4.574   4.522   7.409
 7033SOL    HW121557   4.570   4.598   7.474
 7033SOL    HW221558   4.596   4.558   7.318
 7034SOL     OW21559   4.409   4.736   6.251
 7034SOL    HW121560   4.478   4.720   6.321
 7034SOL    HW221561   4.336   4.793   6.289
 7035SOL     OW21562   4.410   4.885   7.389
 7035SOL    HW121563   4.470   4.964   7.403
 7035SOL    HW221564   4.324   4.916   7.348
 7036SOL     OW21565   4.059   5.159   6.647
 7036SOL    HW121566   3.981   5.128   6.594
 7036SOL    HW221567   4.117   5.217   6.590
 7037SOL     OW21568   5.184   5.229   6.925
 7037SOL    HW121569   5.208   5.323   6.951
 7037SOL    HW221570   5.168   5.175   7.007
 7038SOL     OW21571   4.162   4.116   7.085
 7038SOL    HW121572   4.244   4.060   7.094
 7038SOL    HW221573   4.081   4.058   7.089
 7039SOL     OW21574   4.851   5.065   7.276
 7039SOL    HW121575   4.898   5.065   7.364
 7039SOL    HW221576   4.803   4.978   7.265
 7040SOL     OW21577   3.954   5.158   6.124
 7040SOL    HW121578   3.928   5.254   6.124
 7040SOL    HW221579   3.883   5.104   6.169
 7041SOL     OW21580   3.964   4.815   6.472
 7041SOL    HW121581   3.978   4.731   6.524
 7041SOL    HW221582   3.909   4.879   6.527
 7042SOL     OW21583   4.330   4.688   5.709
 7042SOL    HW121584   4.337   4.772   5.655
 7042SOL    HW221585   4.376   4.701   5.797
 7043SOL     OW21586   3.846   4.367   6.149
 7043SOL    HW121587   3.801   4.279   6.166
 7043SOL    HW221588   3.845   4.421   6.233
 7044SOL     OW21589   3.751   5.320   5.703
 7044SOL    HW121590   3.732   5.224   5.724
 7044SOL    HW221591   3.718   5.378   5.778
 7045SOL     OW21592   5.413   4.646   6.198
 7045SOL    HW121593   5.508   4.617   6.206
 7045SOL    HW221594   5.405   4.711   6.123
 7046SOL     OW21595   3.837   4.461   7.183
 7046SOL    HW121596   3.925   4.448   7.228
 7046SOL    HW221597   3.824   4.558   7.161
 7047SOL     OW21598   4.337   5.089   6.312
 7047SOL    HW121599   4.288   5.002   6.321
 7047SOL    HW221600   4.314   5.132   6.225
 7048SOL     OW21601   5.017   4.952   7.009
 7048SOL    HW121602   5.054   4.879   6.951
 7048SOL    HW221603   5.069   4.957   7.094
 7049SOL     OW21604   4.533   3.728   6.088
 7049SOL    HW121605   4.573   3.819   6.079
 7049SOL    HW221606   4.433   3.736   6.094
 7050SOL     OW21607   3.921   4.700   6.850
 7050SOL    HW121608   4.010   4.655   6.836
 7050SOL    HW221609   3.848   4.635   6.831
 7051SOL     OW21610   4.041   3.975   7.387
 7051SOL    HW121611   4.112   4.046   7.393
 7051SOL    HW221612   3.953   4.014   7.415
 7052SOL     OW21613   5.190   5.141   6.539
 7052SOL    HW121614   5.131   5.147   6.619
 7052SOL    HW221615   5.175   5.053   6.493
 7053SOL     OW21616   5.391   5.438   6.158
 7053SOL    HW121617   5.350   5.415   6.070
 7053SOL    HW221618   5.373   5.364   6.223
 7054SOL     OW21619   4.322   4.453   5.856
 7054SOL    HW121620   4.346   4.522   5.788
 7054SOL    HW221621   4.244   4.486   5.910
 7055SOL     OW21622   5.005   4.069   6.530
 7055SOL    HW121623   4.919   4.019   6.517
 7055SOL    HW221624   5.067   4.015   6.586
 7056SOL     OW21625   4.531   4.329   7.051
 7056SOL    HW121626   4.484   4.326   7.140
 7056SOL    HW221627   4.480   4.274   6.985
 7057SOL     OW21628   5.118   4.193   7.260
 7057SOL    HW121629   5.098   4.236   7.348
 7057SOL    HW221630   5.196   4.131   7.269
 7058SOL     OW21631   4.697   4.614   7.158
 7058SOL    HW121632   4.743   4.530   7.129
 7058SOL    HW221633   4.641   4.648   7.083
 7059SOL     OW21634   4.715   4.134   6.828
 7059SOL    HW121635   4.638   4.168   6.882
 7059SOL    HW221636   4.681   4.083   6.749
 7060SOL     OW21637   4.765   4.425   6.015
 7060SOL    HW121638   4.791   4.421   6.111
 7060SOL    HW221639   4.680   4.374   6.001
 7061SOL     OW21640   3.800   4.535   6.375
 7061SOL    HW121641   3.899   4.523   6.384
 7061SOL    HW221642   3.776   4.630   6.396
 7062SOL     OW21643   4.589   4.072   5.781
 7062SOL    HW121644   4.648   4.135   5.732
 7062SOL    HW221645   4.608   3.978   5.752
 7063SOL     OW21646   5.086   4.868   6.131
 7063SOL    HW121647   5.169   4.839   6.083
 7063SOL    HW221648   5.037   4.935   6.075
 7064SOL     OW21649   4.274   3.920   6.471
 7064SOL    HW121650   4.269   3.915   6.571
 7064SOL    HW221651   4.276   4.016   6.442
 7065SOL     OW21652   4.732   5.180   6.063
 7065SOL    HW121653   4.686   5.252   6.011
 7065SOL    HW221654   4.728   5.200   6.161
 7066SOL     OW21655   4.951   5.274   7.092
 7066SOL    HW121656   4.957   5.197   7.156
 7066SOL    HW221657   4.899   5.248   7.012
 7067SOL     OW21658   4.045   4.667   5.828
 7067SOL    HW121659   4.127   4.706   5.786
 7067SOL    HW221660   4.018   4.585   5.779
 7068SOL     OW21661   4.185   4.990   7.313
 7068SOL    HW121662   4.135   4.991   7.227
 7068SOL    HW221663   4.122   4.972   7.389
 7069SOL     OW21664   4.835   5.500   5.823
 7069SOL    HW121665   4.775   5.438   5.873
 7069SOL    HW221666   4.866   5.456   5.738
 7070SOL     OW21667   3.926   4.009   7.084
 7070SOL    HW121668   3.846   4.069   7.071
 7070SOL    HW221669   3.916   3.960   7.170
 7071SOL     OW21670   5.124   3.831   6.012
 7071SOL    HW121671   5.100   3.794   5.922
 7071SOL    HW221672   5.223   3.847   6.016
 7072SOL     OW21673   4.106   4.424   6.066
 7072SOL    HW121674   4.151   4.334   6.063
 7072SOL    HW221675   4.012   4.413   6.099
 7073SOL     OW21676   4.338   3.846   5.703
 7073SOL    HW121677   4.436   3.824   5.710
 7073SOL    HW221678   4.307   3.829   5.610
 7074SOL     OW21679   4.505   3.988   7.335
 7074SOL    HW121680   4.572   3.927   7.378
 7074SOL    HW221681   4.432   4.007   7.400
 7075SOL     OW21682   5.075   4.314   7.019
 7075SOL    HW121683   5.103   4.271   7.104
 7075SOL    HW221684   5.100   4.410   7.020
 7076SOL     OW21685   4.527   5.126   6.510
 7076SOL    HW121686   4.617   5.140   6.468
 7076SOL    HW221687   4.456   5.128   6.439
 7077SOL     OW21688   4.646   4.227   6.485
 7077SOL    HW121689   4.621   4.218   6.389
 7077SOL    HW221690   4.694   4.145   6.516
 7078SOL     OW21691   4.263   3.788   6.098
 7078SOL    HW121692   4.182   3.789   6.156
 7078SOL    HW221693   4.266   3.871   6.043
 7079SOL     OW21694   5.158   4.912   5.627
 7079SOL    HW121695   5.190   4.836   5.684
 7079SOL    HW221696   5.066   4.939   5.657
 7080SOL     OW21697   4.021   3.759   5.757
 7080SOL    HW121698   4.070   3.843   5.736
 7080SOL    HW221699   4.083   3.694   5.802
 7081SOL     OW21700   4.659   3.960   6.066
 7081SOL    HW121701   4.611   4.001   5.988
 7081SOL    HW221702   4.758   3.958   6.047
 7082SOL     OW21703   4.800   4.407   7.050
 7082SOL    HW121704   4.720   4.346   7.053
 7082SOL    HW221705   4.881   4.354   7.026
 7083SOL     OW21706   4.951   5.294   6.379
 7083SOL    HW121707   4.972   5.368   6.314
 7083SOL    HW221708   5.019   5.294   6.452
 7084SOL     OW21709   4.183   4.876   6.327
 7084SOL    HW121710   4.112   4.849   6.392
 7084SOL    HW221711   4.157   4.848   6.234
 7085SOL     OW21712   4.756   4.273   5.602
 7085SOL    HW121713   4.715   4.355   5.563
 7085SOL    HW221714   4.820   4.299   5.675
 7086SOL     OW21715   3.802   4.280   6.972
 7086SOL    HW121716   3.894   4.279   6.931
 7086SOL    HW221717   3.796   4.354   7.039
 7087SOL     OW21718   4.285   3.946   6.733
 7087SOL    HW121719   4.323   3.862   6.770
 7087SOL    HW221720   4.197   3.965   6.777
 7088SOL     OW21721   4.590   4.178   6.228
 7088SOL    HW121722   4.558   4.250   6.166
 7088SOL    HW221723   4.614   4.097   6.175
 7089SOL     OW21724   4.741   3.763   6.339
 7089SOL    HW121725   4.669   3.768   6.270
 7089SOL    HW221726   4.717   3.694   6.408
 7090SOL     OW21727   5.153   4.897   6.453
 7090SOL    HW121728   5.098   4.813   6.446
 7090SOL    HW221729   5.179   4.926   6.361
 7091SOL     OW21730   4.212   5.109   5.760
 7091SOL    HW121731   4.125   5.094   5.807
 7091SOL    HW221732   4.195   5.135   5.665
 7092SOL     OW21733   5.114   4.299   5.664
 7092SOL    HW121734   5.060   4.278   5.745
 7092SOL    HW221735   5.205   4.258   5.673
 7093SOL     OW21736   4.251   3.980   5.914
 7093SOL    HW121737   4.278   3.921   5.839
 7093SOL    HW221738   4.251   4.075   5.883
 7094SOL     OW21739   4.788   5.071   6.926
 7094SOL    HW121740   4.708   5.048   6.981
 7094SOL    HW221741   4.871   5.045   6.975
 7095SOL     OW21742   4.835   4.919   6.686
 7095SOL    HW121743   4.795   4.963   6.767
 7095SOL    HW221744   4.794   4.956   6.603
 7096SOL     OW21745   4.639   3.813   6.988
 7096SOL    HW121746   4.664   3.793   6.893
 7096SOL    HW221747   4.711   3.869   7.030
 7097SOL     OW21748   4.704   4.840   7.305
 7097SOL    HW121749   4.605   4.846   7.315
 7097SOL    HW221750   4.727   4.760   7.249
 7098SOL     OW21751   4.429   4.774   5.954
 7098SOL    HW121752   4.415   4.781   6.053
 7098SOL    HW221753   4.513   4.723   5.936
 7099SOL     OW21754   4.134   4.537   6.837
 7099SOL    HW121755   4.220   4.549   6.887
 7099SOL    HW221756   4.092   4.450   6.864
 7100SOL     OW21757   4.998   4.110   6.848
 7100SOL    HW121758   5.019   4.184   6.912
 7100SOL    HW221759   4.909   4.127   6.805
 7101SOL     OW21760   4.091   4.824   6.087
 7101SOL    HW121761   4.084   4.907   6.031
 7101SOL    HW221762   4.095   4.744   6.027
 7102SOL     OW21763   4.290   4.261   6.451
 7102SOL    HW121764   4.302   4.327   6.377
 7102SOL    HW221765   4.336   4.295   6.534
 7103SOL     OW21766   4.976   5.072   5.974
 7103SOL    HW121767   5.026   5.149   6.014
 7103SOL    HW221768   4.881   5.074   6.006
 7104SOL     OW21769   4.996   5.169   6.728
 7104SOL    HW121770   5.043   5.182   6.815
 7104SOL    HW221771   4.930   5.095   6.737
 7105SOL     OW21772   4.078   5.234   6.915
 7105SOL    HW121773   4.057   5.190   6.828
 7105SOL    HW221774   4.175   5.260   6.918
 7106SOL     OW21775   4.126   4.475   7.184
 7106SOL    HW121776   4.194   4.530   7.137
 7106SOL    HW221777   4.166   4.387   7.211
 7107SOL     OW21778   4.737   3.829   7.356
 7107SOL    HW121779   4.743   3.914   7.304
 7107SOL    HW221780   4.769   3.753   7.299
 7108SOL     OW21781   4.228   3.774   7.326
 7108SOL    HW121782   4.186   3.717   7.256
 7108SOL    HW221783   4.162   3.843   7.358
 7109SOL     OW21784   4.297   4.594   6.615
 7109SOL    HW121785   4.341   4.683   6.606
 7109SOL    HW221786   4.234   4.594   6.692
 7110SOL     OW21787   5.084   4.586   6.631
 7110SOL    HW121788   5.009   4.586   6.565
 7110SOL    HW221789   5.121   4.494   6.640
 7111SOL     OW21790   4.933   4.249   5.861
 7111SOL    HW121791   4.946   4.165   5.915
 7111SOL    HW221792   4.904   4.323   5.921
 7112SOL     OW21793   4.031   3.937   6.817
 7112SOL    HW121794   4.008   3.974   6.907
 7112SOL    HW221795   4.001   3.842   6.811
 7113SOL     OW21796   3.761   5.034   6.868
 7113SOL    HW121797   3.814   4.985   6.936
 7113SOL    HW221798   3.783   5.132   6.873
 7114SOL     OW21799   4.456   4.358   6.650
 7114SOL    HW121800   4.515   4.332   6.574
 7114SOL    HW221801   4.428   4.454   6.639
 7115SOL     OW21802   4.031   3.787   6.204
 7115SOL    HW121803   4.020   3.881   6.237
 7115SOL    HW221804   4.026   3.724   6.281
 7116SOL     OW21805   5.346   4.091   5.960
 7116SOL    HW121806   5.348   4.015   6.024
 7116SOL    HW221807   5.298   4.168   6.000
 7117SOL     OW21808   4.747   4.490   6.552
 7117SOL    HW121809   4.762   4.511   6.648
 7117SOL    HW221810   4.717   4.395   6.543
 7118SOL     OW21811   4.074   4.622   7.390
 7118SOL    HW121812   4.150   4.666   7.438
 7118SOL    HW221813   4.109   4.575   7.308
 7119SOL     OW21814   5.027   4.562   5.628
 7119SOL    HW121815   5.061   4.469   5.643
 7119SOL    HW221816   5.045   4.589   5.533
 7120SOL     OW21817   4.792   5.057   6.435
 7120SOL    HW121818   4.799   4.973   6.380
 7120SOL    HW221819   4.854   5.126   6.399
 7121SOL     OW21820   4.043   4.534   6.535
 7121SOL    HW121821   4.136   4.570   6.540
 7121SOL    HW221822   4.037   4.449   6.587
 7122SOL     OW21823   4.063   4.233   6.592
 7122SOL    HW121824   4.011   4.150   6.575
 7122SOL    HW221825   4.140   4.238   6.528
 7123SOL     OW21826   4.862   4.104   7.264
 7123SOL    HW121827   4.817   4.167   7.328
 7123SOL    HW221828   4.955   4.135   7.247
 7124SOL     OW21829   4.884   3.931   7.063
 7124SOL    HW121830   4.884   3.995   7.140
 7124SOL    HW221831   4.912   3.979   6.980
 7125SOL     OW21832   3.732   5.050   5.786
 7125SOL    HW121833   3.639   5.071   5.755
 7125SOL    HW221834   3.742   4.951   5.799
 7126SOL     OW21835   4.726   4.520   6.824
 7126SOL    HW121836   4.767   4.488   6.910
 7126SOL    HW221837   4.630   4.493   6.821
 7127SOL     OW21838   3.764   4.268   6.700
 7127SOL    HW121839   3.849   4.235   6.659
 7127SOL    HW221840   3.777   4.283   6.798
 7128SOL     OW21841   3.913   4.244   7.308
 7128SOL    HW121842   3.972   4.204   7.238
 7128SOL    HW221843   3.855   4.315   7.267
 7129SOL     OW21844   5.093   4.674   7.246
 7129SOL    HW121845   5.132   4.763   7.266
 7129SOL    HW221846   5.103   4.654   7.149
 7130SOL     OW21847   4.539   4.296   5.911
 7130SOL    HW121848   4.546   4.207   5.865
 7130SOL    HW221849   4.445   4.330   5.903
 7131SOL     OW21850   3.976   5.288   7.330
 7131SOL    HW121851   3.946   5.345   7.406
 7131SOL    HW221852   3.969   5.191   7.356
 7132SOL     OW21853   4.395   4.188   6.855
 7132SOL    HW121854   4.361   4.099   6.825
 7132SOL    HW221855   4.421   4.242   6.775
 7133SOL     OW21856   4.197   4.224   5.777
 7133SOL    HW121857   4.258   4.304   5.781
 7133SOL    HW221858   4.102   4.255   5.784
 7134SOL     OW21859   3.883   4.861   7.052
 7134SOL    HW121860   3.905   4.800   7.128
 7134SOL    HW221861   3.893   4.812   6.966
 7135SOL     OW21862   5.071   4.783   6.820
 7135SOL    HW121863   5.095   4.720   6.746
 7135SOL    HW221864   4.981   4.823   6.802
 7136SOL     OW21865   5.026   4.579   5.895
 7136SOL    HW121866   4.940   4.548   5.937
 7136SOL    HW221867   5.022   4.565   5.796
 7137SOL     OW21868   3.807   4.982   6.608
 7137SOL    HW121869   3.802   4.981   6.708
 7137SOL    HW221870   3.724   4.941   6.570
 7138SOL     OW21871   4.412   5.386   7.302
 7138SOL    HW121872   4.356   5.467   7.311
 7138SOL    HW221873   4.464   5.390   7.216
 7139SOL     OW21874   5.450   3.859   6.109
 7139SOL    HW121875   5.523   3.842   6.042
 7139SOL    HW221876   5.419   3.772   6.147
 7140SOL     OW21877   5.004   4.651   6.258
 7140SOL    HW121878   5.064   4.570   6.260
 7140SOL    HW221879   5.044   4.720   6.198
 7141SOL     OW21880   4.554   4.997   7.008
 7141SOL    HW121881   4.549   5.030   7.103
 7141SOL    HW221882   4.468   5.016   6.962
 7142SOL     OW21883   3.987   4.050   6.306
 7142SOL    HW121884   3.908   4.101   6.272
 7142SOL    HW221885   3.978   4.035   6.404
 7143SOL     OW21886   4.546   4.726   6.958
 7143SOL    HW121887   4.586   4.725   6.866
 7143SOL    HW221888   4.556   4.818   6.998
 7144SOL     OW21889   4.640   4.634   5.877
 7144SOL    HW121890   4.703   4.672   5.809
 7144SOL    HW221891   4.680   4.551   5.916
 7145SOL     OW21892   4.096   5.012   7.076
 7145SOL    HW121893   4.083   5.105   7.042
 7145SOL    HW221894   4.012   4.960   7.063
 7146SOL     OW21895   4.763   4.822   6.282
 7146SOL    HW121896   4.693   4.775   6.336
 7146SOL    HW221897   4.822   4.754   6.239
 7147SOL     OW21898   4.738   3.960   6.557
 7147SOL    HW121899   4.730   3.924   6.464
 7147SOL    HW221900   4.736   3.884   6.622
 7148SOL     OW21901   3.979   5.072   5.876
 7148SOL    HW121902   3.883   5.073   5.849
 7148SOL    HW221903   3.991   5.125   5.960
 7149SOL     OW21904   3.829   4.737   7.312
 7149SOL    HW121905   3.752   4.704   7.366
 7149SOL    HW221906   3.914   4.707   7.354
 7150SOL     OW21907   4.396   3.927   7.075
 7150SOL    HW121908   4.486   3.911   7.035
 7150SOL    HW221909   4.404   3.932   7.174
 7151SOL     OW21910   3.799   4.069   5.619
 7151SOL    HW121911   3.707   4.041   5.590
 7151SOL    HW221912   3.830   4.146   5.563
 7152SOL     OW21913   5.164   4.580   6.984
 7152SOL    HW121914   5.107   4.632   6.921
 7152SOL    HW221915   5.260   4.592   6.960
 7153SOL     OW21916   3.796   3.890   5.904
 7153SOL    HW121917   3.779   3.973   5.850
 7153SOL    HW221918   3.886   3.853   5.882
 7154SOL     OW21919   4.907   5.059   5.705
 7154SOL    HW121920   4.808   5.048   5.707
 7154SOL    HW221921   4.941   5.074   5.798
 7155SOL     OW21922   4.337   4.566   7.017
 7155SOL    HW121923   4.393   4.647   7.000
 7155SOL    HW221924   4.396   4.486   7.020
 7156SOL     OW21925   4.440   4.289   7.294
 7156SOL    HW121926   4.459   4.354   7.368
 7156SOL    HW221927   4.500   4.209   7.303
 7157SOL     OW21928   5.174   4.944   7.219
 7157SOL    HW121929   5.165   4.934   7.318
 7157SOL    HW221930   5.270   4.937   7.193
 7158SOL     OW21931   4.949   4.049   6.035
 7158SOL    HW121932   5.014   3.975   6.024
 7158SOL    HW221933   4.969   4.099   6.119
 7159SOL     OW21934   4.318   4.469   6.238
 7159SOL    HW121935   4.368   4.554   6.219
 7159SOL    HW221936   4.230   4.471   6.190
 7160SOL     OW21937   4.583   5.098   5.602
 7160SOL    HW121938   4.537   5.113   5.690
 7160SOL    HW221939   4.627   5.183   5.572
 7161SOL     OW21940   4.583   4.680   6.447
 7161SOL    HW121941   4.637   4.611   6.495
 7161SOL    HW221942   4.551   4.749   6.513
 7162SOL     OW21943   4.807   4.708   5.673
 7162SOL    HW121944   4.784   4.761   5.591
 7162SOL    HW221945   4.888   4.652   5.654
 7163SOL     OW21946   3.945   5.038   7.430
 7163SOL    HW121947   3.880   4.965   7.409
 7163SOL    HW221948   3.949   5.052   7.528
 7164SOL     OW21949   3.803   4.964   6.239
 7164SOL    HW121950   3.802   4.917   6.327
 7164SOL    HW221951   3.885   4.936   6.188
 7165SOL     OW21952   4.396   5.115   7.210
 7165SOL    HW121953   4.318   5.065   7.248
 7165SOL    HW221954   4.393   5.210   7.241
 7166SOL     OW21955   4.152   4.148   6.106
 7166SOL    HW121956   4.182   4.076   6.044
 7166SOL    HW221957   4.113   4.108   6.189
 7167SOL     OW21958   5.429   5.211   6.690
 7167SOL    HW121959   5.336   5.186   6.663
 7167SOL    HW221960   5.455   5.161   6.772
 7168SOL     OW21961   4.041   4.271   6.866
 7168SOL    HW121962   4.079   4.212   6.938
 7168SOL    HW221963   4.081   4.245   6.778
 7169SOL     OW21964   5.148   3.938   6.698
 7169SOL    HW121965   5.200   3.873   6.753
 7169SOL    HW221966   5.099   4.001   6.759
 7170SOL     OW21967   4.725   3.758   6.740
 7170SOL    HW121968   4.662   3.686   6.709
 7170SOL    HW221969   4.818   3.722   6.740
 7171SOL     OW21970   4.494   5.054   5.887
 7171SOL    HW121971   4.448   4.967   5.904
 7171SOL    HW221972   4.585   5.051   5.928
 7172SOL     OW21973   4.342   5.291   6.870
 7172SOL    HW121974   4.337   5.373   6.927
 7172SOL    HW221975   4.431   5.288   6.825
 7173SOL     OW21976   5.076   3.776   5.754
 7173SOL    HW121977   5.111   3.735   5.670
 7173SOL    HW221978   4.986   3.738   5.774
 7174SOL     OW21979   5.024   4.177   6.277
 7174SOL    HW121980   4.965   4.257   6.281
 7174SOL    HW221981   5.039   4.142   6.370
 7175SOL     OW21982   5.317   3.945   6.468
 7175SOL    HW121983   5.233   3.944   6.522
 7175SOL    HW221984   5.319   4.028   6.412
 7176SOL     OW21985   3.763   4.801   5.886
 7176SOL    HW121986   3.862   4.790   5.877
 7176SOL    HW221987   3.723   4.715   5.918
 7177SOL     OW21988   3.954   4.352   7.561
 7177SOL    HW121989   3.861   4.350   7.598
 7177SOL    HW221990   3.955   4.313   7.469
 7178SOL     OW21991   3.955   5.437   7.931
 7178SOL    HW121992   3.989   5.514   7.985
 7178SOL    HW221993   3.999   5.437   7.841
 7179SOL     OW21994   3.954   5.158   7.986
 7179SOL    HW121995   3.928   5.254   7.986
 7179SOL    HW221996   3.883   5.104   8.031
 7180SOL     OW21997   4.330   4.688   7.571
 7180SOL    HW121998   4.337   4.772   7.517
 7180SOL    HW221999   4.376   4.701   7.659
 7181SOL     OW22000   3.751   5.320   7.565
 7181SOL    HW122001   3.732   5.224   7.586
 7181SOL    HW222002   3.718   5.378   7.640
 7182SOL     OW22003   5.413   4.646   8.060
 7182SOL    HW122004   5.508   4.617   8.068
 7182SOL    HW222005   5.405   4.711   7.985
 7183SOL     OW22006   4.533   3.728   7.950
 7183SOL    HW122007   4.573   3.819   7.941
 7183SOL    HW222008   4.433   3.736   7.956
 7184SOL     OW22009   4.322   4.453   7.718
 7184SOL    HW122010   4.346   4.522   7.650
 7184SOL    HW222011   4.244   4.486   7.772
 7185SOL     OW22012   3.800   4.535   8.237
 7185SOL    HW122013   3.899   4.523   8.246
 7185SOL    HW222014   3.776   4.630   8.258
 7186SOL     OW22015   4.589   4.072   7.643
 7186SOL    HW122016   4.648   4.135   7.594
 7186SOL    HW222017   4.608   3.978   7.614
 7187SOL     OW22018   4.045   4.667   7.690
 7187SOL    HW122019   4.127   4.706   7.648
 7187SOL    HW222020   4.018   4.585   7.641
 7188SOL     OW22021   4.835   5.500   7.685
 7188SOL    HW122022   4.775   5.438   7.735
 7188SOL    HW222023   4.866   5.456   7.600
 7189SOL     OW22024   5.124   3.831   7.874
 7189SOL    HW122025   5.100   3.794   7.784
 7189SOL    HW222026   5.223   3.847   7.878
 7190SOL     OW22027   4.106   4.424   7.928
 7190SOL    HW122028   4.151   4.334   7.925
 7190SOL    HW222029   4.012   4.413   7.961
 7191SOL     OW22030   4.338   3.846   7.565
 7191SOL    HW122031   4.436   3.824   7.572
 7191SOL    HW222032   4.307   3.829   7.472
 7192SOL     OW22033   4.263   3.788   7.960
 7192SOL    HW122034   4.182   3.789   8.018
 7192SOL    HW222035   4.266   3.871   7.905
 7193SOL     OW22036   5.158   4.912   7.489
 7193SOL    HW122037   5.190   4.836   7.546
 7193SOL    HW222038   5.066   4.939   7.519
 7194SOL     OW22039   4.021   3.759   7.619
 7194SOL    HW122040   4.070   3.843   7.598
 7194SOL    HW222041   4.083   3.694   7.664
 7195SOL     OW22042   4.659   3.960   7.928
 7195SOL    HW122043   4.611   4.001   7.850
 7195SOL    HW222044   4.758   3.958   7.909
 7196SOL     OW22045   4.183   4.876   8.189
 7196SOL    HW122046   4.112   4.849   8.254
 7196SOL    HW222047   4.157   4.848   8.096
 7197SOL     OW22048   4.756   4.273   7.464
 7197SOL    HW122049   4.715   4.355   7.425
 7197SOL    HW222050   4.820   4.299   7.537
 7198SOL     OW22051   4.212   5.109   7.622
 7198SOL    HW122052   4.125   5.094   7.669
 7198SOL    HW222053   4.195   5.135   7.527
 7199SOL     OW22054   5.114   4.299   7.526
 7199SOL    HW122055   5.060   4.278   7.607
 7199SOL    HW222056   5.205   4.258   7.535
 7200SOL     OW22057   4.251   3.980   7.776
 7200SOL    HW122058   4.278   3.921   7.701
 7200SOL    HW222059   4.251   4.075   7.745
 7201SOL     OW22060   4.429   4.774   7.816
 7201SOL    HW122061   4.415   4.781   7.915
 7201SOL    HW222062   4.513   4.723   7.798
 7202SOL     OW22063   4.091   4.824   7.949
 7202SOL    HW122064   4.084   4.907   7.893
 7202SOL    HW222065   4.095   4.744   7.889
 7203SOL     OW22066   4.976   5.072   7.836
 7203SOL    HW122067   5.026   5.149   7.876
 7203SOL    HW222068   4.881   5.074   7.868
 7204SOL     OW22069   5.306   4.363   7.920
 7204SOL    HW122070   5.275   4.424   7.993
 7204SOL    HW222071   5.356   4.415   7.851
 7205SOL     OW22072   4.933   4.249   7.723
 7205SOL    HW122073   4.946   4.165   7.777
 7205SOL    HW222074   4.904   4.323   7.783
 7206SOL     OW22075   5.346   4.091   7.822
 7206SOL    HW122076   5.348   4.015   7.886
 7206SOL    HW222077   5.298   4.168   7.862
 7207SOL     OW22078   5.027   4.562   7.490
 7207SOL    HW122079   5.061   4.469   7.505
 7207SOL    HW222080   5.045   4.589   7.395
 7208SOL     OW22081   3.732   5.050   7.648
 7208SOL    HW122082   3.639   5.071   7.617
 7208SOL    HW222083   3.742   4.951   7.661
 7209SOL     OW22084   4.539   4.296   7.773
 7209SOL    HW122085   4.546   4.207   7.727
 7209SOL    HW222086   4.445   4.330   7.765
 7210SOL     OW22087   4.197   4.224   7.639
 7210SOL    HW122088   4.258   4.304   7.643
 7210SOL    HW222089   4.102   4.255   7.646
 7211SOL     OW22090   5.026   4.579   7.757
 7211SOL    HW122091   4.940   4.548   7.799
 7211SOL    HW222092   5.022   4.565   7.658
 7212SOL     OW22093   5.450   3.859   7.971
 7212SOL    HW122094   5.523   3.842   7.904
 7212SOL    HW222095   5.419   3.772   8.009
 7213SOL     OW22096   4.640   4.634   7.739
 7213SOL    HW122097   4.703   4.672   7.671
 7213SOL    HW222098   4.680   4.551   7.778
 7214SOL     OW22099   3.979   5.072   7.738
 7214SOL    HW122100   3.883   5.073   7.711
 7214SOL    HW222101   3.991   5.125   7.822
 7215SOL     OW22102   3.799   4.069   7.481
 7215SOL    HW122103   3.707   4.041   7.452
 7215SOL    HW222104   3.830   4.146   7.425
 7216SOL     OW22105   3.796   3.890   7.766
 7216SOL    HW122106   3.779   3.973   7.712
 7216SOL    HW222107   3.886   3.853   7.744
 7217SOL     OW22108   4.907   5.059   7.567
 7217SOL    HW122109   4.808   5.048   7.569
 7217SOL    HW222110   4.941   5.074   7.660
 7218SOL     OW22111   4.949   4.049   7.897
 7218SOL    HW122112   5.014   3.975   7.886
 7218SOL    HW222113   4.969   4.099   7.981
 7219SOL     OW22114   4.318   4.469   8.100
 7219SOL    HW122115   4.368   4.554   8.081
 7219SOL    HW222116   4.230   4.471   8.052
 7220SOL     OW22117   4.583   5.098   7.464
 7220SOL    HW122118   4.537   5.113   7.552
 7220SOL    HW222119   4.627   5.183   7.434
 7221SOL     OW22120   4.807   4.708   7.535
 7221SOL    HW122121   4.784   4.761   7.453
 7221SOL    HW222122   4.888   4.652   7.516
 7222SOL     OW22123   4.152   4.148   7.968
 7222SOL    HW122124   4.182   4.076   7.906
 7222SOL    HW222125   4.113   4.108   8.051
 7223SOL     OW22126   4.494   5.054   7.749
 7223SOL    HW122127   4.448   4.967   7.766
 7223SOL    HW222128   4.585   5.051   7.790
 7224SOL     OW22129   5.076   3.776   7.616
 7224SOL    HW122130   5.111   3.735   7.532
 7224SOL    HW222131   4.986   3.738   7.636
 7225SOL     OW22132   3.763   4.801   7.748
 7225SOL    HW122133   3.862   4.790   7.739
 7225SOL    HW222134   3.723   4.715   7.780
   5.30000   5.30000   8.08000
