2gCDOC_2PEG_l14
22206
    1LIG      O    1   2.169   2.094   0.037
    1LIG      C    2   2.129   2.157   0.188
    1LIG     C1    3   2.184   2.094   0.354
    1LIG     O1    4   2.134   2.148   0.506
    1LIG     C2    5   2.185   2.101   0.659
    1LIG     C3    6   2.124   2.161   0.823
    1LIG     O2    7   2.183   2.118   0.976
    1LIG     C4    8   2.124   2.149   1.131
    1LIG     C5    9   2.194   2.094   1.291
    1LIG     O3   10   2.146   2.144   1.442
    1LIG     C6   11   2.194   2.084   1.591
    1LIG     C7   12   2.143   2.145   1.755
    1LIG     O4   13   2.184   2.081   1.904
    1LIG     C8   14   2.133   2.135   2.054
    1LIG     C9   15   2.190   2.077   2.218
    1LIG     O5   16   2.140   2.134   2.368
    1LIG    C10   17   2.183   2.082   2.522
    1LIG    C11   18   2.128   2.150   2.682
    1LIG     O6   19   2.184   2.107   2.834
    1LIG    C12   20   2.126   2.143   2.987
    1LIG    C13   21   2.196   2.089   3.146
    1LIG     O7   22   2.147   2.140   3.295
    1LIG    C14   23   2.196   2.082   3.443
    1LIG    C15   24   2.145   2.143   3.606
    1LIG     O8   25   2.188   2.083   3.754
    1LIG    C16   26   2.137   2.137   3.904
    1LIG    C17   27   2.197   2.085   4.068
    1LIG     O9   28   2.144   2.138   4.217
    1LIG    C18   29   2.192   2.092   4.370
    1LIG    C19   30   2.130   2.154   4.530
    1LIG    O10   31   2.187   2.112   4.682
    1LIG    C20   32   2.126   2.143   4.834
    1LIG    C21   33   2.196   2.089   4.993
    1LIG    O11   34   2.146   2.139   5.143
    1LIG    C22   35   2.192   2.078   5.290
    1LIG    C23   36   2.142   2.139   5.454
    1LIG    O12   37   2.177   2.072   5.602
    1LIG    C24   38   2.139   2.130   5.754
    1LIG    C25   39   2.173   2.053   5.915
    1LIG    O13   40   2.129   2.111   6.066
    1LIG    C26   41   2.161   2.055   6.219
    1LIG    C27   42   2.108   2.130   6.378
    1LIG    O14   43   2.142   2.076   6.532
    1LIG    C28   44   2.105   2.135   6.682
    1LIG    C29   45   2.175   2.075   6.837
    1LIG    O15   46   2.133   2.123   6.989
    1LIG    C30   47   2.193   2.070   7.133
    1LIG    C31   48   2.144   2.130   7.297
    1LIG    O16   49   2.190   2.074   7.446
    1LIG    C32   50   2.147   2.135   7.594
    1LIG    C33   51   2.198   2.073   7.757
    1LIG    O17   52   2.154   2.132   7.906
    1LIG    C34   53   2.201   2.083   8.058
    1LIG    C35   54   2.143   2.147   8.219
    1LIG    O18   55   2.196   2.103   8.371
    1LIG    C36   56   2.140   2.153   8.519
    1LIG    C37   57   2.200   2.096   8.680
    1LIG    O19   58   2.153   2.153   8.829
    1LIG    C38   59   2.199   2.096   8.979
    1LIG    C39   60   2.143   2.155   9.142
    1LIG    O20   61   2.193   2.098   9.290
    1LIG    C40   62   2.142   2.146   9.443
    1LIG    C41   63   2.204   2.092   9.606
    1LIG    O21   64   2.149   2.143   9.755
    1LIG    C42   65   2.197   2.098   9.908
    1LIG    C43   66   2.136   2.161  10.067
    1LIG    O22   67   2.186   2.111  10.218
    1LIG    C44   68   2.134   2.161  10.367
    1LIG    C45   69   2.195   2.101  10.527
    1LIG    O23   70   2.149   2.155  10.677
    1LIG    C46   71   2.197   2.098  10.825
    1LIG    C47   72   2.141   2.156  10.989
    1LIG    O24   73   2.193   2.099  11.137
    1LIG    C48   74   2.142   2.146  11.290
    1LIG    C49   75   2.204   2.093  11.453
    1LIG    O25   76   2.149   2.144  11.602
    1LIG    C50   77   2.197   2.099  11.756
    1LIG    C51   78   2.135   2.162  11.915
    1LIG    O26   79   2.186   2.113  12.067
    1LIG    C52   80   2.132   2.163  12.216
    1LIG    C53   81   2.191   2.103  12.378
    1LIG    O27   82   2.143   2.158  12.528
    1LIG    C54   83   2.189   2.101  12.679
    1LIG    C55   84   2.130   2.162  12.842
    1LIG    O28   85   2.176   2.103  12.993
    1LIG    C56   86   2.128   2.157  13.146
    1LIG    C57   87   2.186   2.094  13.312
    1LIG    O29   88   2.142   2.151  13.466
    1LIG    C58   89   2.178   2.088  13.619
    1LIG    C59   90   2.156   2.167  13.785
    1LIG      H   91   2.021   2.158   0.193
    1LIG     H1   92   2.153   2.262   0.183
    1LIG     H2   93   2.292   2.105   0.353
    1LIG     H3   94   2.164   1.987   0.352
    1LIG     H4   95   2.292   2.119   0.662
    1LIG     H5   96   2.172   1.993   0.662
    1LIG     H6   97   2.017   2.141   0.825
    1LIG     H7   98   2.131   2.270   0.818
    1LIG     H8   99   2.020   2.119   1.132
    1LIG     H9  100   2.116   2.257   1.142
    1LIG    H10  101   2.301   2.117   1.285
    1LIG    H11  102   2.188   1.985   1.290
    1LIG    H12  103   2.303   2.089   1.591
    1LIG    H13  104   2.168   1.978   1.590
    1LIG    H14  105   2.034   2.148   1.751
    1LIG    H15  106   2.177   2.248   1.758
    1LIG    H16  107   2.026   2.120   2.058
    1LIG    H17  108   2.142   2.243   2.055
    1LIG    H18  109   2.298   2.089   2.216
    1LIG    H19  110   2.172   1.969   2.219
    1LIG    H20  111   2.292   2.086   2.526
    1LIG    H21  112   2.157   1.976   2.525
    1LIG    H22  113   2.019   2.138   2.685
    1LIG    H23  114   2.142   2.258   2.674
    1LIG    H24  115   2.021   2.116   2.989
    1LIG    H25  116   2.121   2.251   2.995
    1LIG    H26  117   2.303   2.112   3.139
    1LIG    H27  118   2.189   1.980   3.146
    1LIG    H28  119   2.305   2.087   3.443
    1LIG    H29  120   2.170   1.975   3.443
    1LIG    H30  121   2.036   2.145   3.602
    1LIG    H31  122   2.176   2.248   3.606
    1LIG    H32  123   2.031   2.118   3.909
    1LIG    H33  124   2.141   2.246   3.902
    1LIG    H34  125   2.306   2.102   4.066
    1LIG    H35  126   2.186   1.976   4.069
    1LIG    H36  127   2.300   2.109   4.374
    1LIG    H37  128   2.179   1.984   4.373
    1LIG    H38  129   2.023   2.134   4.531
    1LIG    H39  130   2.137   2.263   4.524
    1LIG    H40  131   2.022   2.112   4.834
    1LIG    H41  132   2.117   2.251   4.844
    1LIG    H42  133   2.302   2.114   4.987
    1LIG    H43  134   2.191   1.980   4.992
    1LIG    H44  135   2.301   2.080   5.291
    1LIG    H45  136   2.164   1.972   5.289
    1LIG    H46  137   2.033   2.150   5.449
    1LIG    H47  138   2.182   2.241   5.458
    1LIG    H48  139   2.032   2.145   5.757
    1LIG    H49  140   2.180   2.232   5.760
    1LIG    H50  141   2.282   2.042   5.916
    1LIG    H51  142   2.136   1.950   5.909
    1LIG    H52  143   2.269   2.050   6.227
    1LIG    H53  144   2.129   1.950   6.222
    1LIG    H54  145   2.000   2.146   6.372
    1LIG    H55  146   2.144   2.231   6.379
    1LIG    H56  147   1.997   2.129   6.693
    1LIG    H57  148   2.121   2.243   6.681
    1LIG    H58  149   2.283   2.094   6.828
    1LIG    H59  150   2.165   1.965   6.835
    1LIG    H60  151   2.301   2.083   7.128
    1LIG    H61  152   2.176   1.962   7.135
    1LIG    H62  153   2.035   2.124   7.293
    1LIG    H63  154   2.167   2.236   7.297
    1LIG    H64  155   2.038   2.136   7.598
    1LIG    H65  156   2.177   2.241   7.593
    1LIG    H66  157   2.307   2.077   7.754
    1LIG    H67  158   2.172   1.966   7.757
    1LIG    H68  159   2.310   2.094   8.061
    1LIG    H69  160   2.184   1.975   8.062
    1LIG    H70  161   2.036   2.128   8.221
    1LIG    H71  162   2.152   2.256   8.213
    1LIG    H72  163   2.032   2.137   8.519
    1LIG    H73  164   2.151   2.262   8.520
    1LIG    H74  165   2.309   2.109   8.677
    1LIG    H75  166   2.183   1.988   8.682
    1LIG    H76  167   2.307   2.104   8.982
    1LIG    H77  168   2.177   1.988   8.978
    1LIG    H78  169   2.034   2.145   9.140
    1LIG    H79  170   2.160   2.263   9.142
    1LIG    H80  171   2.037   2.119   9.448
    1LIG    H81  172   2.140   2.255   9.443
    1LIG    H82  173   2.312   2.110   9.604
    1LIG    H83  174   2.193   1.983   9.605
    1LIG    H84  175   2.305   2.114   9.912
    1LIG    H85  176   2.183   1.989   9.913
    1LIG    H86  177   2.028   2.147  10.066
    1LIG    H87  178   2.150   2.270  10.064
    1LIG    H88  179   2.026   2.146  10.369
    1LIG    H89  180   2.147   2.270  10.369
    1LIG    H90  181   2.304   2.113  10.522
    1LIG    H91  182   2.179   1.993  10.526
    1LIG    H92  183   2.306   2.108  10.828
    1LIG    H93  184   2.178   1.990  10.824
    1LIG    H94  185   2.033   2.145  10.988
    1LIG    H95  186   2.158   2.264  10.989
    1LIG    H96  187   2.037   2.117  11.295
    1LIG    H97  188   2.140   2.255  11.290
    1LIG    H98  189   2.312   2.111  11.451
    1LIG    H99  190   2.195   1.984  11.452
    1LIG   H100  191   2.305   2.117  11.759
    1LIG   H101  192   2.185   1.990  11.760
    1LIG   H102  193   2.028   2.145  11.913
    1LIG   H103  194   2.147   2.270  11.911
    1LIG   H104  195   2.024   2.148  12.216
    1LIG   H105  196   2.144   2.272  12.218
    1LIG   H106  197   2.299   2.116  12.374
    1LIG   H107  198   2.175   1.995  12.376
    1LIG   H108  199   2.297   2.111  12.682
    1LIG   H109  200   2.169   1.994  12.678
    1LIG   H110  201   2.022   2.155  12.838
    1LIG   H111  202   2.152   2.269  12.843
    1LIG   H112  203   2.020   2.147  13.149
    1LIG   H113  204   2.143   2.264  13.146
    1LIG   H114  205   2.295   2.100  13.308
    1LIG   H115  206   2.163   1.988  13.311
    1LIG   H116  207   2.285   2.070  13.617
    1LIG   H117  208   2.131   1.990  13.624
    1LIG   H118  209   2.063   2.220  13.784
    1LIG   H119  210   2.233   2.245  13.786
    2LIG      O  211   1.843   1.863   0.041
    2LIG      C  212   1.903   1.901   0.194
    2LIG     C1  213   1.839   1.849   0.360
    2LIG     O1  214   1.897   1.896   0.511
    2LIG     C2  215   1.842   1.848   0.664
    2LIG     C3  216   1.895   1.906   0.830
    2LIG     O2  217   1.848   1.847   0.980
    2LIG     C4  218   1.889   1.905   1.131
    2LIG     C5  219   1.837   1.841   1.294
    2LIG     O3  220   1.884   1.895   1.447
    2LIG     C6  221   1.834   1.842   1.598
    2LIG     C7  222   1.890   1.902   1.763
    2LIG     O4  223   1.841   1.847   1.913
    2LIG     C8  224   1.887   1.904   2.063
    2LIG     C9  225   1.832   1.845   2.227
    2LIG     O5  226   1.885   1.897   2.376
    2LIG    C10  227   1.832   1.848   2.527
    2LIG    C11  228   1.887   1.906   2.689
    2LIG     O6  229   1.839   1.848   2.838
    2LIG    C12  230   1.883   1.906   2.986
    2LIG    C13  231   1.830   1.843   3.148
    2LIG     O7  232   1.878   1.897   3.299
    2LIG    C14  233   1.830   1.843   3.449
    2LIG    C15  234   1.886   1.904   3.612
    2LIG     O8  235   1.838   1.849   3.762
    2LIG    C16  236   1.885   1.906   3.911
    2LIG    C17  237   1.831   1.848   4.073
    2LIG     O9  238   1.884   1.899   4.222
    2LIG    C18  239   1.830   1.851   4.372
    2LIG    C19  240   1.886   1.907   4.533
    2LIG    O10  241   1.837   1.850   4.681
    2LIG    C20  242   1.881   1.906   4.829
    2LIG    C21  243   1.827   1.845   4.989
    2LIG    O11  244   1.874   1.901   5.139
    2LIG    C22  245   1.829   1.847   5.290
    2LIG    C23  246   1.886   1.910   5.450
    2LIG    O12  247   1.834   1.863   5.600
    2LIG    C24  248   1.887   1.916   5.747
    2LIG    C25  249   1.819   1.875   5.910
    2LIG    O13  250   1.881   1.913   6.061
    2LIG    C26  251   1.815   1.879   6.210
    2LIG    C27  252   1.880   1.909   6.378
    2LIG    O14  253   1.826   1.852   6.524
    2LIG    C28  254   1.874   1.901   6.675
    2LIG    C29  255   1.825   1.837   6.839
    2LIG    O15  256   1.874   1.895   6.988
    2LIG    C30  257   1.834   1.843   7.141
    2LIG    C31  258   1.881   1.912   7.302
    2LIG    O16  259   1.832   1.858   7.451
    2LIG    C32  260   1.877   1.914   7.601
    2LIG    C33  261   1.812   1.860   7.762
    2LIG    O17  262   1.862   1.912   7.912
    2LIG    C34  263   1.804   1.870   8.063
    2LIG    C35  264   1.871   1.919   8.225
    2LIG    O18  265   1.822   1.865   8.374
    2LIG    C36  266   1.875   1.917   8.521
    2LIG    C37  267   1.820   1.855   8.683
    2LIG    O19  268   1.873   1.905   8.833
    2LIG    C38  269   1.832   1.847   8.984
    2LIG    C39  270   1.889   1.908   9.145
    2LIG    O20  271   1.842   1.855   9.295
    2LIG    C40  272   1.890   1.910   9.444
    2LIG    C41  273   1.835   1.852   9.606
    2LIG    O21  274   1.890   1.901   9.755
    2LIG    C42  275   1.834   1.856   9.905
    2LIG    C43  276   1.893   1.910  10.068
    2LIG    O22  277   1.843   1.854  10.216
    2LIG    C44  278   1.888   1.910  10.365
    2LIG    C45  279   1.831   1.848  10.526
    2LIG    O23  280   1.881   1.898  10.677
    2LIG    C46  281   1.839   1.842  10.828
    2LIG    C47  282   1.896   1.903  10.989
    2LIG    O24  283   1.852   1.846  11.139
    2LIG    C48  284   1.897   1.903  11.288
    2LIG    C49  285   1.841   1.843  11.451
    2LIG    O25  286   1.896   1.892  11.601
    2LIG    C50  287   1.837   1.850  11.751
    2LIG    C51  288   1.896   1.905  11.915
    2LIG    O26  289   1.847   1.849  12.064
    2LIG    C52  290   1.891   1.906  12.215
    2LIG    C53  291   1.834   1.845  12.378
    2LIG    O27  292   1.883   1.896  12.531
    2LIG    C54  293   1.841   1.841  12.685
    2LIG    C55  294   1.898   1.903  12.848
    2LIG    O28  295   1.856   1.847  13.000
    2LIG    C56  296   1.901   1.904  13.152
    2LIG    C57  297   1.846   1.845  13.318
    2LIG    O29  298   1.903   1.890  13.470
    2LIG    C58  299   1.839   1.857  13.623
    2LIG    C59  300   1.917   1.871  13.790
    2LIG      H  301   1.894   2.009   0.199
    2LIG     H1  302   2.009   1.878   0.193
    2LIG     H2  303   1.842   1.740   0.358
    2LIG     H3  304   1.733   1.876   0.359
    2LIG     H4  305   1.850   1.739   0.667
    2LIG     H5  306   1.736   1.874   0.666
    2LIG     H6  307   1.865   2.011   0.831
    2LIG     H7  308   2.004   1.906   0.829
    2LIG     H8  309   1.854   2.008   1.132
    2LIG     H9  310   1.998   1.909   1.133
    2LIG    H10  311   1.853   1.733   1.292
    2LIG    H11  312   1.729   1.855   1.290
    2LIG    H12  313   1.853   1.735   1.600
    2LIG    H13  314   1.725   1.853   1.601
    2LIG    H14  315   1.869   2.009   1.762
    2LIG    H15  316   1.999   1.894   1.761
    2LIG    H16  317   1.860   2.010   2.063
    2LIG    H17  318   1.996   1.899   2.066
    2LIG    H18  319   1.845   1.737   2.225
    2LIG    H19  320   1.724   1.862   2.226
    2LIG    H20  321   1.840   1.739   2.529
    2LIG    H21  322   1.725   1.872   2.529
    2LIG    H22  323   1.861   2.012   2.690
    2LIG    H23  324   1.996   1.901   2.688
    2LIG    H24  325   1.851   2.010   2.987
    2LIG    H25  326   1.992   1.907   2.987
    2LIG    H26  327   1.846   1.734   3.146
    2LIG    H27  328   1.722   1.857   3.144
    2LIG    H28  329   1.851   1.736   3.450
    2LIG    H29  330   1.721   1.852   3.453
    2LIG    H30  331   1.866   2.011   3.611
    2LIG    H31  332   1.996   1.895   3.610
    2LIG    H32  333   1.859   2.013   3.910
    2LIG    H33  334   1.995   1.901   3.913
    2LIG    H34  335   1.844   1.739   4.071
    2LIG    H35  336   1.722   1.864   4.073
    2LIG    H36  337   1.837   1.741   4.374
    2LIG    H37  338   1.724   1.877   4.374
    2LIG    H38  339   1.861   2.014   4.534
    2LIG    H39  340   1.995   1.902   4.532
    2LIG    H40  341   1.851   2.012   4.829
    2LIG    H41  342   1.990   1.905   4.830
    2LIG    H42  343   1.843   1.736   4.989
    2LIG    H43  344   1.719   1.859   4.985
    2LIG    H44  345   1.852   1.740   5.291
    2LIG    H45  346   1.720   1.853   5.294
    2LIG    H46  347   1.869   2.018   5.445
    2LIG    H47  348   1.995   1.896   5.449
    2LIG    H48  349   1.876   2.025   5.742
    2LIG    H49  350   1.994   1.895   5.751
    2LIG    H50  351   1.800   1.768   5.907
    2LIG    H51  352   1.721   1.922   5.905
    2LIG    H52  353   1.786   1.776   6.208
    2LIG    H53  354   1.723   1.937   6.211
    2LIG    H54  355   1.864   2.017   6.387
    2LIG    H55  356   1.988   1.892   6.374
    2LIG    H56  357   1.845   2.007   6.680
    2LIG    H57  358   1.984   1.898   6.675
    2LIG    H58  359   1.849   1.730   6.838
    2LIG    H59  360   1.715   1.842   6.840
    2LIG    H60  361   1.873   1.741   7.147
    2LIG    H61  362   1.724   1.836   7.143
    2LIG    H62  363   1.854   2.018   7.297
    2LIG    H63  364   1.990   1.908   7.303
    2LIG    H64  365   1.859   2.022   7.599
    2LIG    H65  366   1.985   1.901   7.607
    2LIG    H66  367   1.822   1.750   7.762
    2LIG    H67  368   1.704   1.878   7.757
    2LIG    H68  369   1.802   1.761   8.067
    2LIG    H69  370   1.700   1.902   8.066
    2LIG    H70  371   1.857   2.027   8.228
    2LIG    H71  372   1.979   1.902   8.219
    2LIG    H72  373   1.856   2.024   8.524
    2LIG    H73  374   1.984   1.907   8.520
    2LIG    H74  375   1.833   1.747   8.679
    2LIG    H75  376   1.712   1.871   8.682
    2LIG    H76  377   1.857   1.740   8.983
    2LIG    H77  378   1.723   1.851   8.992
    2LIG    H78  379   1.868   2.015   9.143
    2LIG    H79  380   1.999   1.900   9.142
    2LIG    H80  381   1.866   2.016   9.444
    2LIG    H81  382   2.000   1.902   9.445
    2LIG    H82  383   1.846   1.743   9.604
    2LIG    H83  384   1.727   1.869   9.607
    2LIG    H84  385   1.835   1.746   9.907
    2LIG    H85  386   1.730   1.889   9.906
    2LIG    H86  387   1.871   2.017  10.068
    2LIG    H87  388   2.002   1.902  10.065
    2LIG    H88  389   1.862   2.016  10.365
    2LIG    H89  390   1.997   1.906  10.368
    2LIG    H90  391   1.844   1.739  10.522
    2LIG    H91  392   1.722   1.862  10.523
    2LIG    H92  393   1.861   1.735  10.828
    2LIG    H93  394   1.730   1.848  10.835
    2LIG    H94  395   1.871   2.009  10.989
    2LIG    H95  396   2.006   1.898  10.985
    2LIG    H96  397   1.869   2.008  11.288
    2LIG    H97  398   2.006   1.898  11.291
    2LIG    H98  399   1.852   1.734  11.448
    2LIG    H99  400   1.733   1.861  11.451
    2LIG   H100  401   1.834   1.741  11.754
    2LIG   H101  402   1.735   1.887  11.750
    2LIG   H102  403   1.874   2.012  11.915
    2LIG   H103  404   2.005   1.897  11.912
    2LIG   H104  405   1.864   2.012  12.215
    2LIG   H105  406   2.000   1.903  12.218
    2LIG   H106  407   1.849   1.736  12.375
    2LIG   H107  408   1.725   1.858  12.375
    2LIG   H108  409   1.864   1.734  12.686
    2LIG   H109  410   1.733   1.848  12.692
    2LIG   H110  411   1.871   2.009  12.847
    2LIG   H111  412   2.008   1.901  12.842
    2LIG   H112  413   1.872   2.010  13.151
    2LIG   H113  414   2.010   1.902  13.154
    2LIG   H114  415   1.853   1.736  13.313
    2LIG   H115  416   1.738   1.866  13.319
    2LIG   H116  417   1.810   1.752  13.618
    2LIG   H117  418   1.746   1.915  13.629
    2LIG   H118  419   1.978   1.961  13.788
    2LIG   H119  420   1.988   1.787  13.790
    3MOL     C1  421   2.526   1.551   6.486
    3MOL     H1  422   2.544   1.444   6.502
    3MOL     O1  423   2.569   1.587   6.354
    3MOL     C2  424   2.552   1.726   6.318
    3MOL     H2  425   2.449   1.757   6.334
    3MOL     C3  426   2.578   1.737   6.166
    3MOL     H3  427   2.551   1.837   6.132
    3MOL     H4  428   2.515   1.664   6.114
    3MOL     O2  429   2.717   1.709   6.140
    3MOL     C4  430   2.758   1.743   6.007
    3MOL     C5  431   2.609   1.632   6.589
    3MOL     H5  432   2.713   1.596   6.586
    3MOL     O3  433   2.556   1.616   6.722
    3MOL     C6  434   2.583   1.490   6.787
    3MOL     C7  435   2.612   1.784   6.557
    3MOL     H6  436   2.513   1.825   6.579
    3MOL     O4  437   2.713   1.845   6.640
    3MOL     C8  438   2.663   1.939   6.738
    3MOL     C9  439   2.645   1.813   6.408
    3MOL     H7  440   2.750   1.786   6.390
    3MOL     O5  441   2.622   1.954   6.386
    3MOL    C10  442   2.709   2.026   6.295
    3MOL     H8  443   2.791   1.961   6.262
    3MOL     O6  444   2.632   2.067   6.181
    3MOL    C11  445   2.523   2.159   6.204
    3MOL     H9  446   2.455   2.114   6.277
    3MOL    C12  447   2.448   2.173   6.071
    3MOL    H10  448   2.350   2.218   6.089
    3MOL    H11  449   2.435   2.071   6.031
    3MOL     O7  450   2.522   2.253   5.978
    3MOL    C13  451   2.448   2.281   5.857
    3MOL    C14  452   2.768   2.153   6.363
    3MOL    H12  453   2.845   2.195   6.297
    3MOL     O8  454   2.826   2.120   6.492
    3MOL    C15  455   2.947   2.041   6.488
    3MOL    C16  456   2.661   2.263   6.387
    3MOL    H13  457   2.594   2.228   6.467
    3MOL     O9  458   2.728   2.386   6.425
    3MOL    C17  459   2.703   2.428   6.560
    3MOL    C18  460   2.576   2.293   6.261
    3MOL    H14  461   2.640   2.342   6.186
    3MOL    O10  462   2.463   2.378   6.299
    3MOL    C19  463   2.432   2.491   6.210
    3MOL    H15  464   2.510   2.501   6.133
    3MOL    O11  465   2.305   2.469   6.145
    3MOL    C20  466   2.195   2.453   6.236
    3MOL    H16  467   2.225   2.377   6.306
    3MOL    C21  468   2.069   2.403   6.162
    3MOL    H17  469   2.000   2.356   6.234
    3MOL    H18  470   2.100   2.329   6.089
    3MOL    O12  471   2.002   2.510   6.094
    3MOL    C22  472   1.897   2.461   6.009
    3MOL    C23  473   2.421   2.623   6.292
    3MOL    H19  474   2.404   2.706   6.223
    3MOL    O13  475   2.543   2.645   6.365
    3MOL    C24  476   2.656   2.680   6.284
    3MOL    C25  477   2.303   2.619   6.393
    3MOL    H20  478   2.324   2.544   6.468
    3MOL    O14  479   2.286   2.748   6.456
    3MOL    C26  480   2.342   2.758   6.589
    3MOL    C27  481   2.171   2.579   6.320
    3MOL    H21  482   2.136   2.661   6.255
    3MOL    O15  483   2.071   2.542   6.417
    3MOL    C28  484   1.990   2.651   6.463
    3MOL    H22  485   2.051   2.742   6.471
    3MOL    O16  486   1.882   2.673   6.372
    3MOL    C29  487   1.786   2.566   6.356
    3MOL    H23  488   1.836   2.476   6.319
    3MOL    C30  489   1.692   2.619   6.248
    3MOL    H24  490   1.629   2.540   6.207
    3MOL    H25  491   1.752   2.661   6.167
    3MOL    O17  492   1.612   2.722   6.309
    3MOL    C31  493   1.544   2.800   6.213
    3MOL    C32  494   1.935   2.617   6.601
    3MOL    H26  495   1.890   2.709   6.642
    3MOL    O18  496   2.047   2.574   6.680
    3MOL    C33  497   2.052   2.640   6.806
    3MOL    C34  498   1.828   2.505   6.599
    3MOL    H27  499   1.876   2.410   6.574
    3MOL    O19  500   1.765   2.500   6.730
    3MOL    C35  501   1.742   2.368   6.782
    3MOL    C36  502   1.719   2.538   6.494
    3MOL    H28  503   1.666   2.627   6.529
    3MOL    O20  504   1.628   2.425   6.485
    3MOL    C37  505   1.491   2.457   6.448
    3MOL    H29  506   1.475   2.566   6.452
    3MOL    O21  507   1.467   2.410   6.315
    3MOL    C38  508   1.481   2.268   6.293
    3MOL    H30  509   1.582   2.236   6.324
    3MOL    C39  510   1.468   2.244   6.141
    3MOL    H31  511   1.501   2.142   6.118
    3MOL    H32  512   1.533   2.314   6.088
    3MOL    O22  513   1.331   2.263   6.101
    3MOL    C40  514   1.306   2.231   5.963
    3MOL    C41  515   1.390   2.389   6.545
    3MOL    H33  516   1.290   2.427   6.522
    3MOL    O23  517   1.425   2.420   6.681
    3MOL    C42  518   1.393   2.554   6.722
    3MOL    C43  519   1.389   2.236   6.529
    3MOL    H34  520   1.483   2.195   6.568
    3MOL    O24  521   1.275   2.184   6.601
    3MOL    C44  522   1.306   2.107   6.718
    3MOL    C45  523   1.375   2.195   6.380
    3MOL    H35  524   1.275   2.226   6.347
    3MOL    O25  525   1.392   2.051   6.372
    3MOL    C46  526   1.298   1.983   6.285
    3MOL    H36  527   1.220   2.052   6.251
    3MOL    O26  528   1.367   1.932   6.171
    3MOL    C47  529   1.473   1.837   6.199
    3MOL    H37  530   1.545   1.883   6.267
    3MOL    C48  531   1.541   1.807   6.065
    3MOL    H38  532   1.637   1.759   6.084
    3MOL    H39  533   1.558   1.902   6.014
    3MOL    O27  534   1.462   1.719   5.985
    3MOL    C49  535   1.540   1.660   5.880
    3MOL    C50  536   1.232   1.863   6.358
    3MOL    H40  537   1.158   1.819   6.289
    3MOL    O28  538   1.167   1.908   6.478
    3MOL    C51  539   1.050   1.990   6.455
    3MOL    C52  540   1.335   1.751   6.393
    3MOL    H41  541   1.403   1.787   6.471
    3MOL    O29  542   1.259   1.636   6.436
    3MOL    C53  543   1.267   1.611   6.577
    3MOL    C54  544   1.420   1.710   6.269
    3MOL    H42  545   1.356   1.654   6.200
    3MOL    O30  546   1.535   1.630   6.313
    3MOL    C55  547   1.559   1.505   6.242
    3MOL    H43  548   1.475   1.484   6.176
    3MOL    O31  549   1.681   1.513   6.163
    3MOL    C56  550   1.809   1.520   6.232
    3MOL    H44  551   1.817   1.611   6.291
    3MOL    C57  552   1.926   1.510   6.131
    3MOL    H45  553   1.914   1.423   6.066
    3MOL    H46  554   2.020   1.499   6.186
    3MOL    O32  555   1.933   1.630   6.053
    3MOL    C58  556   2.056   1.648   5.982
    3MOL    C59  557   1.573   1.386   6.342
    3MOL    H47  558   1.577   1.293   6.284
    3MOL    O33  559   1.461   1.385   6.430
    3MOL    C60  560   1.345   1.318   6.379
    3MOL    C61  561   1.701   1.394   6.427
    3MOL    H48  562   1.696   1.482   6.492
    3MOL    O34  563   1.716   1.272   6.503
    3MOL    C62  564   1.662   1.275   6.636
    3MOL    C63  565   1.825   1.409   6.336
    3MOL    H49  566   1.847   1.314   6.285
    3MOL    O35  567   1.935   1.452   6.418
    3MOL    C64  568   2.024   1.347   6.458
    3MOL    H50  569   1.969   1.253   6.463
    3MOL    O36  570   2.130   1.337   6.361
    3MOL    C65  571   2.229   1.444   6.354
    3MOL    H51  572   2.182   1.538   6.323
    3MOL    C66  573   2.328   1.396   6.246
    3MOL    H52  574   2.352   1.291   6.262
    3MOL    H53  575   2.421   1.453   6.251
    3MOL    O37  576   2.270   1.415   6.116
    3MOL    C67  577   2.359   1.373   6.011
    3MOL    C68  578   2.081   1.378   6.598
    3MOL    H54  579   2.129   1.286   6.635
    3MOL    O38  580   1.971   1.417   6.681
    3MOL    C69  581   1.955   1.331   6.793
    3MOL    C70  582   2.185   1.491   6.600
    3MOL    H55  583   2.133   1.585   6.575
    3MOL    O39  584   2.245   1.495   6.731
    3MOL    C71  585   2.238   1.623   6.796
    3MOL    C72  586   2.294   1.463   6.495
    3MOL    H56  587   2.347   1.371   6.523
    3MOL    O40  588   2.383   1.578   6.496
    3MOL    H57  589   2.867   1.734   6.001
    3MOL    H58  590   2.711   1.675   5.935
    3MOL    H59  591   2.730   1.846   5.983
    3MOL    H60  592   2.326   1.413   5.914
    3MOL    H61  593   2.460   1.409   6.029
    3MOL    H62  594   2.361   1.263   6.005
    3MOL    H63  595   2.061   1.750   5.941
    3MOL    H64  596   2.142   1.634   6.048
    3MOL    H65  597   2.063   1.578   5.898
    3MOL    H66  598   1.481   1.582   5.831
    3MOL    H67  599   1.569   1.736   5.807
    3MOL    H68  600   1.631   1.613   5.921
    3MOL    H69  601   1.200   2.251   5.939
    3MOL    H70  602   1.369   2.292   5.898
    3MOL    H71  603   1.327   2.125   5.945
    3MOL    H72  604   1.486   2.877   6.264
    3MOL    H73  605   1.616   2.848   6.147
    3MOL    H74  606   1.477   2.737   6.153
    3MOL    H75  607   1.854   2.544   5.951
    3MOL    H76  608   1.936   2.385   5.940
    3MOL    H77  609   1.818   2.415   6.070
    3MOL    H78  610   2.509   2.342   5.789
    3MOL    H79  611   2.422   2.188   5.805
    3MOL    H80  612   2.357   2.337   5.881
    3MOL    H81  613   2.759   2.519   6.583
    3MOL    H82  614   2.596   2.448   6.574
    3MOL    H83  615   2.734   2.349   6.629
    3MOL    H84  616   2.987   2.030   6.590
    3MOL    H85  617   2.926   1.941   6.449
    3MOL    H86  618   3.023   2.090   6.425
    3MOL    H87  619   2.746   1.977   6.799
    3MOL    H88  620   2.614   2.023   6.687
    3MOL    H89  621   2.590   1.890   6.804
    3MOL    H90  622   2.553   1.498   6.892
    3MOL    H91  623   2.525   1.410   6.740
    3MOL    H92  624   2.690   1.467   6.782
    3MOL    H93  625   2.289   1.618   6.894
    3MOL    H94  626   2.289   1.700   6.736
    3MOL    H95  627   2.134   1.653   6.812
    3MOL    H96  628   1.871   1.365   6.854
    3MOL    H97  629   1.937   1.227   6.761
    3MOL    H98  630   2.048   1.333   6.850
    3MOL    H99  631   1.690   1.185   6.691
    3MOL   H100  632   1.700   1.362   6.691
    3MOL   H101  633   1.552   1.281   6.634
    3MOL   H102  634   1.278   1.295   6.463
    3MOL   H103  635   1.294   1.381   6.306
    3MOL   H104  636   1.372   1.223   6.332
    3MOL   H105  637   1.204   1.526   6.604
    3MOL   H106  638   1.371   1.588   6.606
    3MOL   H107  639   1.234   1.699   6.634
    3MOL   H108  640   0.999   2.011   6.550
    3MOL   H109  641   1.079   2.086   6.410
    3MOL   H110  642   0.980   1.939   6.388
    3MOL   H111  643   1.214   2.075   6.768
    3MOL   H112  644   1.364   2.017   6.690
    3MOL   H113  645   1.365   2.167   6.788
    3MOL   H114  646   1.420   2.565   6.827
    3MOL   H115  647   1.449   2.628   6.664
    3MOL   H116  648   1.285   2.573   6.711
    3MOL   H117  649   1.690   2.373   6.878
    3MOL   H118  650   1.681   2.309   6.713
    3MOL   H119  651   1.838   2.316   6.797
    3MOL   H120  652   2.135   2.601   6.866
    3MOL   H121  653   2.063   2.748   6.793
    3MOL   H122  654   1.956   2.621   6.855
    3MOL   H123  655   2.331   2.860   6.627
    3MOL   H124  656   2.291   2.689   6.657
    3MOL   H125  657   2.449   2.733   6.588
    3MOL   H126  658   2.740   2.707   6.349
    3MOL   H127  659   2.687   2.595   6.222
    3MOL   H128  660   2.632   2.765   6.220
    4MOL     C1  661   1.468   1.548   7.404
    4MOL     H1  662   1.443   1.443   7.385
    4MOL     O1  663   1.429   1.584   7.538
    4MOL     C2  664   1.453   1.721   7.576
    4MOL     H2  665   1.558   1.747   7.558
    4MOL     C3  666   1.427   1.731   7.727
    4MOL     H3  667   1.458   1.829   7.765
    4MOL     H4  668   1.488   1.654   7.775
    4MOL     O2  669   1.288   1.707   7.757
    4MOL     C4  670   1.251   1.733   7.893
    4MOL     C5  671   1.387   1.636   7.304
    4MOL     H5  672   1.282   1.602   7.306
    4MOL     O3  673   1.438   1.624   7.170
    4MOL     C6  674   1.407   1.500   7.105
    4MOL     C7  675   1.388   1.786   7.338
    4MOL     H6  676   1.487   1.827   7.312
    4MOL     O4  677   1.281   1.849   7.264
    4MOL     C8  678   1.321   1.937   7.159
    4MOL     C9  679   1.363   1.812   7.487
    4MOL     H7  680   1.258   1.791   7.509
    4MOL     O5  681   1.394   1.951   7.510
    4MOL    C10  682   1.305   2.019   7.599
    4MOL     H8  683   1.223   1.953   7.631
    4MOL     O6  684   1.381   2.058   7.716
    4MOL    C11  685   1.493   2.144   7.690
    4MOL     H9  686   1.561   2.098   7.616
    4MOL    C12  687   1.570   2.159   7.822
    4MOL    H10  688   1.667   2.208   7.804
    4MOL    H11  689   1.590   2.060   7.865
    4MOL     O7  690   1.490   2.237   7.913
    4MOL    C13  691   1.552   2.263   8.039
    4MOL    C14  692   1.246   2.145   7.530
    4MOL    H12  693   1.167   2.187   7.594
    4MOL     O8  694   1.190   2.110   7.400
    4MOL    C15  695   1.067   2.038   7.402
    4MOL    C16  696   1.353   2.253   7.506
    4MOL    H13  697   1.420   2.220   7.425
    4MOL     O9  698   1.286   2.377   7.473
    4MOL    C17  699   1.297   2.418   7.336
    4MOL    C18  700   1.437   2.277   7.633
    4MOL    H14  701   1.373   2.324   7.708
    4MOL    O10  702   1.545   2.366   7.596
    4MOL    C19  703   1.570   2.474   7.688
    4MOL    H15  704   1.489   2.481   7.762
    4MOL    O11  705   1.696   2.450   7.755
    4MOL    C20  706   1.807   2.433   7.664
    4MOL    H16  707   1.779   2.354   7.594
    4MOL    C21  708   1.932   2.385   7.740
    4MOL    H17  709   2.008   2.357   7.666
    4MOL    H18  710   1.907   2.296   7.799
    4MOL    O12  711   1.982   2.490   7.824
    4MOL    C22  712   2.096   2.449   7.901
    4MOL    C23  713   1.580   2.608   7.610
    4MOL    H19  714   1.597   2.690   7.681
    4MOL    O13  715   1.459   2.630   7.537
    4MOL    C24  716   1.346   2.668   7.617
    4MOL    C25  717   1.698   2.605   7.511
    4MOL    H20  718   1.678   2.532   7.431
    4MOL    O14  719   1.712   2.739   7.456
    4MOL    C26  720   1.657   2.755   7.324
    4MOL    C27  721   1.829   2.564   7.585
    4MOL    H21  722   1.859   2.643   7.654
    4MOL    O15  723   1.933   2.538   7.489
    4MOL    C28  724   2.002   2.656   7.442
    4MOL    H22  725   1.935   2.742   7.437
    4MOL    O16  726   2.109   2.684   7.532
    4MOL    C29  727   2.209   2.582   7.547
    4MOL    H23  728   2.164   2.490   7.587
    4MOL    C30  729   2.307   2.639   7.650
    4MOL    H24  730   2.376   2.562   7.686
    4MOL    H25  731   2.250   2.675   7.737
    4MOL    O17  732   2.376   2.747   7.587
    4MOL    C31  733   2.471   2.812   7.670
    4MOL    C32  734   2.056   2.629   7.302
    4MOL    H26  735   2.094   2.723   7.261
    4MOL    O18  736   1.942   2.580   7.229
    4MOL    C33  737   1.946   2.606   7.091
    4MOL    C34  738   2.168   2.523   7.300
    4MOL    H27  739   2.121   2.426   7.320
    4MOL    O19  740   2.233   2.527   7.171
    4MOL    C35  741   2.253   2.399   7.108
    4MOL    C36  742   2.274   2.551   7.408
    4MOL    H28  743   2.332   2.638   7.374
    4MOL    O20  744   2.359   2.434   7.419
    4MOL    C37  745   2.498   2.461   7.446
    4MOL    H29  746   2.518   2.568   7.438
    4MOL    O21  747   2.528   2.417   7.580
    4MOL    C38  748   2.511   2.276   7.605
    4MOL    H30  749   2.409   2.247   7.578
    4MOL    C39  750   2.527   2.254   7.758
    4MOL    H31  751   2.498   2.152   7.783
    4MOL    H32  752   2.460   2.322   7.811
    4MOL    O22  753   2.664   2.277   7.798
    4MOL    C40  754   2.689   2.244   7.936
    4MOL    C41  755   2.590   2.386   7.345
    4MOL    H33  756   2.692   2.422   7.358
    4MOL    O23  757   2.547   2.411   7.209
    4MOL    C42  758   2.584   2.540   7.157
    4MOL    C43  759   2.592   2.233   7.367
    4MOL    H34  760   2.498   2.190   7.331
    4MOL    O24  761   2.706   2.181   7.295
    4MOL    C44  762   2.676   2.101   7.180
    4MOL    C45  763   2.610   2.198   7.516
    4MOL    H35  764   2.713   2.224   7.545
    4MOL    O25  765   2.585   2.056   7.529
    4MOL    C46  766   2.675   1.985   7.616
    4MOL    H36  767   2.754   2.051   7.654
    4MOL    O26  768   2.598   1.933   7.727
    4MOL    C47  769   2.489   1.844   7.690
    4MOL    H37  770   2.424   1.893   7.616
    4MOL    C48  771   2.403   1.816   7.815
    4MOL    H38  772   2.311   1.763   7.786
    4MOL    H39  773   2.374   1.912   7.859
    4MOL    O27  774   2.476   1.742   7.914
    4MOL    C49  775   2.401   1.727   8.036
    4MOL    C50  776   2.740   1.866   7.540
    4MOL    H40  777   2.816   1.821   7.605
    4MOL    O28  778   2.802   1.912   7.418
    4MOL    C51  779   2.925   1.985   7.435
    4MOL    C52  780   2.639   1.756   7.503
    4MOL    H41  781   2.574   1.793   7.422
    4MOL    O29  782   2.713   1.638   7.463
    4MOL    C53  783   2.712   1.614   7.321
    4MOL    C54  784   2.550   1.718   7.624
    4MOL    H42  785   2.613   1.666   7.697
    4MOL    O30  786   2.446   1.631   7.574
    4MOL    C55  787   2.432   1.505   7.644
    4MOL    H43  788   2.521   1.487   7.706
    4MOL    O31  789   2.314   1.512   7.727
    4MOL    C56  790   2.189   1.532   7.656
    4MOL    H44  791   2.191   1.628   7.602
    4MOL    C57  792   2.075   1.536   7.759
    4MOL    H45  793   2.076   1.443   7.817
    4MOL    H46  794   1.978   1.546   7.709
    4MOL    O32  795   2.097   1.648   7.845
    4MOL    C58  796   2.018   1.643   7.965
    4MOL    C59  797   2.418   1.385   7.547
    4MOL    H47  798   2.415   1.293   7.606
    4MOL    O33  799   2.530   1.381   7.456
    4MOL    C60  800   2.653   1.330   7.510
    4MOL    C61  801   2.288   1.393   7.464
    4MOL    H48  802   2.295   1.478   7.394
    4MOL    O34  803   2.270   1.268   7.394
    4MOL    C62  804   2.322   1.262   7.260
    4MOL    C63  805   2.166   1.417   7.556
    4MOL    H49  806   2.144   1.326   7.613
    4MOL    O35  807   2.054   1.455   7.474
    4MOL    C64  808   1.969   1.344   7.439
    4MOL    H50  809   2.027   1.251   7.440
    4MOL    O36  810   1.863   1.335   7.535
    4MOL    C65  811   1.764   1.441   7.537
    4MOL    H51  812   1.811   1.537   7.558
    4MOL    C66  813   1.671   1.401   7.653
    4MOL    H52  814   1.652   1.293   7.648
    4MOL    H53  815   1.575   1.452   7.648
    4MOL    O37  816   1.736   1.436   7.776
    4MOL    C67  817   1.675   1.377   7.891
    4MOL    C68  818   1.912   1.360   7.298
    4MOL    H54  819   1.875   1.261   7.266
    4MOL    O38  820   2.019   1.405   7.214
    4MOL    C69  821   2.036   1.324   7.099
    4MOL    C70  822   1.796   1.462   7.284
    4MOL    H55  823   1.840   1.562   7.290
    4MOL    O39  824   1.730   1.437   7.158
    4MOL    C71  825   1.727   1.548   7.068
    4MOL    C72  826   1.693   1.448   7.398
    4MOL    H56  827   1.634   1.357   7.383
    4MOL    O40  828   1.611   1.568   7.390
    4MOL    H57  829   1.143   1.717   7.907
    4MOL    H58  830   1.306   1.667   7.962
    4MOL    H59  831   1.274   1.837   7.919
    4MOL    H60  832   1.732   1.405   7.980
    4MOL    H61  833   1.572   1.412   7.901
    4MOL    H62  834   1.676   1.268   7.882
    4MOL    H63  835   2.034   1.735   8.023
    4MOL    H64  836   1.912   1.634   7.939
    4MOL    H65  837   2.047   1.557   8.026
    4MOL    H66  838   2.456   1.665   8.108
    4MOL    H67  839   2.383   1.825   8.082
    4MOL    H68  840   2.305   1.679   8.017
    4MOL    H69  841   2.796   2.255   7.958
    4MOL    H70  842   2.631   2.311   8.002
    4MOL    H71  843   2.659   2.141   7.956
    4MOL    H72  844   2.529   2.885   7.612
    4MOL    H73  845   2.421   2.865   7.752
    4MOL    H74  846   2.541   2.739   7.712
    4MOL    H75  847   2.130   2.533   7.964
    4MOL    H76  848   2.069   2.366   7.967
    4MOL    H77  849   2.178   2.418   7.835
    4MOL    H78  850   1.488   2.327   8.101
    4MOL    H79  851   1.571   2.169   8.092
    4MOL    H80  852   1.647   2.316   8.023
    4MOL    H81  853   1.241   2.511   7.320
    4MOL    H82  854   1.402   2.435   7.311
    4MOL    H83  855   1.256   2.340   7.270
    4MOL    H84  856   1.030   2.025   7.299
    4MOL    H85  857   1.082   1.938   7.444
    4MOL    H86  858   0.992   2.091   7.460
    4MOL    H87  859   1.232   1.979   7.110
    4MOL    H88  860   1.379   2.021   7.201
    4MOL    H89  861   1.381   1.884   7.084
    4MOL    H90  862   1.432   1.507   6.998
    4MOL    H91  863   1.465   1.419   7.149
    4MOL    H92  864   1.300   1.477   7.115
    4MOL    H93  865   1.667   1.527   6.979
    4MOL    H94  866   1.682   1.634   7.118
    4MOL    H95  867   1.829   1.573   7.035
    4MOL    H96  868   2.119   1.363   7.038
    4MOL    H97  869   2.058   1.220   7.127
    4MOL    H98  870   1.943   1.325   7.042
    4MOL    H99  871   2.290   1.169   7.211
    4MOL   H100  872   2.284   1.347   7.201
    4MOL   H101  873   2.431   1.266   7.259
    4MOL   H102  874   2.728   1.319   7.431
    4MOL   H103  875   2.694   1.401   7.584
    4MOL   H104  876   2.638   1.233   7.558
    4MOL   H105  877   2.775   1.527   7.298
    4MOL   H106  878   2.610   1.593   7.287
    4MOL   H107  879   2.751   1.701   7.267
    4MOL   H108  880   2.969   2.005   7.336
    4MOL   H109  881   2.907   2.081   7.484
    4MOL   H110  882   2.997   1.926   7.493
    4MOL   H111  883   2.770   2.069   7.133
    4MOL   H112  884   2.619   2.013   7.209
    4MOL   H113  885   2.618   2.160   7.107
    4MOL   H114  886   2.558   2.546   7.050
    4MOL   H115  887   2.532   2.620   7.210
    4MOL   H116  888   2.692   2.554   7.168
    4MOL   H117  889   2.307   2.410   7.014
    4MOL   H118  890   2.312   2.333   7.173
    4MOL   H119  891   2.156   2.351   7.088
    4MOL   H120  892   1.849   2.584   7.046
    4MOL   H121  893   1.971   2.711   7.072
    4MOL   H122  894   2.022   2.543   7.044
    4MOL   H123  895   1.666   2.860   7.292
    4MOL   H124  896   1.710   2.692   7.252
    4MOL   H125  897   1.551   2.727   7.323
    4MOL   H126  898   1.260   2.685   7.552
    4MOL   H127  899   1.318   2.587   7.686
    4MOL   H128  900   1.367   2.759   7.674
    5SOL     OW  901   0.230   0.656   0.119
    5SOL    HW1  902   0.136   0.646   0.132
    5SOL    HW2  903   0.249   0.609   0.038
    6SOL     OW  904   0.224   0.289   0.983
    6SOL    HW1  905   0.247   0.250   1.067
    6SOL    HW2  906   0.129   0.278   0.976
    7SOL     OW  907   0.019   0.385   0.633
    7SOL    HW1  908   3.929   0.399   0.663
    7SOL    HW2  909   0.025   0.291   0.618
    8SOL     OW  910   0.581   1.289   1.191
    8SOL    HW1  911   0.494   1.291   1.150
    8SOL    HW2  912   0.594   1.378   1.223
    9SOL     OW  913   1.547   1.495   0.710
    9SOL    HW1  914   1.515   1.478   0.799
    9SOL    HW2  915   1.468   1.497   0.656
   10SOL     OW  916   1.133   0.698   0.697
   10SOL    HW1  917   1.180   0.780   0.686
   10SOL    HW2  918   1.085   0.709   0.779
   11SOL     OW  919   1.762   0.623   0.216
   11SOL    HW1  920   1.779   0.598   0.126
   11SOL    HW2  921   1.766   0.541   0.265
   12SOL     OW  922   0.753   1.139   1.042
   12SOL    HW1  923   0.690   1.175   1.104
   12SOL    HW2  924   0.789   1.216   0.997
   13SOL     OW  925   0.871   0.770   1.824
   13SOL    HW1  926   0.860   0.841   1.887
   13SOL    HW2  927   0.893   0.814   1.742
   14SOL     OW  928   0.685   1.002   0.647
   14SOL    HW1  929   0.750   0.990   0.715
   14SOL    HW2  930   0.616   1.054   0.688
   15SOL     OW  931   0.712   1.149   1.816
   15SOL    HW1  932   0.759   1.227   1.845
   15SOL    HW2  933   0.630   1.183   1.779
   16SOL     OW  934   0.351   1.401   1.078
   16SOL    HW1  935   0.270   1.381   1.033
   16SOL    HW2  936   0.399   1.459   1.019
   17SOL     OW  937   1.448   1.485   1.359
   17SOL    HW1  938   1.495   1.567   1.373
   17SOL    HW2  939   1.380   1.484   1.426
   18SOL     OW  940   0.457   0.408   1.495
   18SOL    HW1  941   0.539   0.358   1.494
   18SOL    HW2  942   0.388   0.342   1.499
   19SOL     OW  943   1.611   0.450   0.735
   19SOL    HW1  944   1.541   0.485   0.679
   19SOL    HW2  945   1.632   0.523   0.794
   20SOL     OW  946   0.224   1.710   0.472
   20SOL    HW1  947   0.242   1.790   0.522
   20SOL    HW2  948   0.287   1.711   0.401
   21SOL     OW  949   1.137   1.342   1.694
   21SOL    HW1  950   1.177   1.336   1.780
   21SOL    HW2  951   1.085   1.262   1.687
   22SOL     OW  952   0.245   1.446   0.543
   22SOL    HW1  953   0.223   1.538   0.528
   22SOL    HW2  954   0.171   1.412   0.593
   23SOL     OW  955   0.247   1.066   0.884
   23SOL    HW1  956   0.268   0.980   0.923
   23SOL    HW2  957   0.195   1.110   0.950
   24SOL     OW  958   0.611   1.792   1.427
   24SOL    HW1  959   0.528   1.774   1.472
   24SOL    HW2  960   0.633   1.882   1.454
   25SOL     OW  961   0.561   0.981   0.165
   25SOL    HW1  962   0.587   1.024   0.084
   25SOL    HW2  963   0.617   1.021   0.232
   26SOL     OW  964   1.581   0.140   1.456
   26SOL    HW1  965   1.611   0.213   1.401
   26SOL    HW2  966   1.548   0.182   1.536
   27SOL     OW  967   0.139   0.654   0.568
   27SOL    HW1  968   0.097   0.568   0.575
   27SOL    HW2  969   0.103   0.703   0.642
   28SOL     OW  970   0.025   1.598   0.137
   28SOL    HW1  971   0.027   1.503   0.147
   28SOL    HW2  972   3.972   1.629   0.211
   29SOL     OW  973   1.685   0.915   0.642
   29SOL    HW1  974   1.771   0.877   0.625
   29SOL    HW2  975   1.667   0.968   0.565
   30SOL     OW  976   1.649   1.106   0.430
   30SOL    HW1  977   1.738   1.106   0.393
   30SOL    HW2  978   1.654   1.166   0.504
   31SOL     OW  979   0.141   0.756   1.588
   31SOL    HW1  980   0.236   0.751   1.584
   31SOL    HW2  981   0.123   0.844   1.621
   32SOL     OW  982   0.613   1.387   0.737
   32SOL    HW1  983   0.566   1.303   0.745
   32SOL    HW2  984   0.598   1.413   0.646
   33SOL     OW  985   1.285   1.235   1.424
   33SOL    HW1  986   1.317   1.168   1.363
   33SOL    HW2  987   1.345   1.229   1.499
   34SOL     OW  988   0.823   0.003   0.521
   34SOL    HW1  989   0.867   0.084   0.493
   34SOL    HW2  990   0.730   0.025   0.519
   35SOL     OW  991   0.184   0.950   1.278
   35SOL    HW1  992   0.272   0.915   1.266
   35SOL    HW2  993   0.132   0.907   1.210
   36SOL     OW  994   1.529   0.998   0.205
   36SOL    HW1  995   1.462   0.939   0.240
   36SOL    HW2  996   1.572   1.034   0.283
   37SOL     OW  997   1.187   1.809   1.624
   37SOL    HW1  998   1.194   1.869   1.549
   37SOL    HW2  999   1.202   1.722   1.587
   38SOL     OW 1000   0.345   0.251   1.840
   38SOL    HW1 1001   0.387   0.334   1.821
   38SOL    HW2 1002   0.254   0.274   1.858
   39SOL     OW 1003   1.466   1.419   0.956
   39SOL    HW1 1004   1.397   1.434   1.021
   39SOL    HW2 1005   1.454   1.328   0.929
   40SOL     OW 1006   1.612   1.706   0.560
   40SOL    HW1 1007   1.587   1.675   0.473
   40SOL    HW2 1008   1.603   1.628   0.616
   41SOL     OW 1009   0.595   0.715   0.265
   41SOL    HW1 1010   0.596   0.799   0.219
   41SOL    HW2 1011   0.535   0.729   0.338
   42SOL     OW 1012   1.275   0.369   0.940
   42SOL    HW1 1013   1.187   0.330   0.947
   42SOL    HW2 1014   1.332   0.307   0.986
   43SOL     OW 1015   1.538   1.714   0.296
   43SOL    HW1 1016   1.618   1.661   0.305
   43SOL    HW2 1017   1.511   1.701   0.205
   44SOL     OW 1018   0.794   0.616   1.453
   44SOL    HW1 1019   0.765   0.590   1.541
   44SOL    HW2 1020   0.757   0.550   1.395
   45SOL     OW 1021   1.392   0.476   1.677
   45SOL    HW1 1022   1.398   0.521   1.761
   45SOL    HW2 1023   1.450   0.400   1.686
   46SOL     OW 1024   0.952   0.887   1.584
   46SOL    HW1 1025   1.007   0.818   1.547
   46SOL    HW2 1026   0.903   0.922   1.510
   47SOL     OW 1027   0.992   0.403   1.238
   47SOL    HW1 1028   0.907   0.423   1.276
   47SOL    HW2 1029   0.972   0.374   1.149
   48SOL     OW 1030   1.052   0.703   0.428
   48SOL    HW1 1031   1.069   0.694   0.522
   48SOL    HW2 1032   0.969   0.657   0.414
   49SOL     OW 1033   0.082   0.828   0.790
   49SOL    HW1 1034   0.154   0.795   0.843
   49SOL    HW2 1035   0.101   0.921   0.779
   50SOL     OW 1036   0.130   1.863   1.577
   50SOL    HW1 1037   0.138   1.828   1.666
   50SOL    HW2 1038   0.038   1.851   1.554
   51SOL     OW 1039   0.874   0.361   0.221
   51SOL    HW1 1040   0.911   0.419   0.154
   51SOL    HW2 1041   0.879   0.274   0.182
   52SOL     OW 1042   1.708   0.575   1.829
   52SOL    HW1 1043   1.670   0.648   1.781
   52SOL    HW2 1044   1.732   0.512   1.762
   53SOL     OW 1045   1.379   1.142   0.542
   53SOL    HW1 1046   1.458   1.130   0.489
   53SOL    HW2 1047   1.325   1.203   0.493
   54SOL     OW 1048   0.562   0.196   0.881
   54SOL    HW1 1049   0.566   0.220   0.974
   54SOL    HW2 1050   0.549   0.279   0.836
   55SOL     OW 1051   1.002   1.441   0.475
   55SOL    HW1 1052   0.971   1.516   0.424
   55SOL    HW2 1053   0.981   1.463   0.566
   56SOL     OW 1054   0.365   1.819   0.872
   56SOL    HW1 1055   0.428   1.747   0.880
   56SOL    HW2 1056   0.416   1.898   0.887
   57SOL     OW 1057   1.800   1.047   0.872
   57SOL    HW1 1058   1.745   1.039   0.794
   57SOL    HW2 1059   1.737   1.057   0.944
   58SOL     OW 1060   1.224   1.537   1.515
   58SOL    HW1 1061   1.210   1.465   1.576
   58SOL    HW2 1062   1.158   1.524   1.447
   59SOL     OW 1063   0.308   0.931   0.241
   59SOL    HW1 1064   0.399   0.945   0.215
   59SOL    HW2 1065   0.296   0.836   0.234
   60SOL     OW 1066   1.478   0.748   0.730
   60SOL    HW1 1067   1.474   0.706   0.816
   60SOL    HW2 1068   1.556   0.803   0.734
   61SOL     OW 1069   0.468   1.261   1.737
   61SOL    HW1 1070   0.442   1.269   1.645
   61SOL    HW2 1071   0.386   1.264   1.786
   62SOL     OW 1072   1.121   1.779   0.229
   62SOL    HW1 1073   1.058   1.732   0.284
   62SOL    HW2 1074   1.150   1.714   0.166
   63SOL     OW 1075   0.201   0.294   1.500
   63SOL    HW1 1076   0.107   0.314   1.499
   63SOL    HW2 1077   0.209   0.222   1.562
   64SOL     OW 1078   1.631   1.375   0.089
   64SOL    HW1 1079   1.596   1.455   0.049
   64SOL    HW2 1080   1.565   1.308   0.071
   65SOL     OW 1081   0.476   1.732   0.323
   65SOL    HW1 1082   0.517   1.791   0.386
   65SOL    HW2 1083   0.550   1.697   0.272
   66SOL     OW 1084   1.441   0.141   0.396
   66SOL    HW1 1085   1.395   0.057   0.394
   66SOL    HW2 1086   1.522   0.124   0.444
   67SOL     OW 1087   0.252   1.791   1.231
   67SOL    HW1 1088   0.298   1.725   1.284
   67SOL    HW2 1089   0.249   1.753   1.143
   68SOL     OW 1090   0.938   1.699   0.897
   68SOL    HW1 1091   1.016   1.648   0.919
   68SOL    HW2 1092   0.895   1.649   0.828
   69SOL     OW 1093   0.397   0.695   0.470
   69SOL    HW1 1094   0.421   0.603   0.484
   69SOL    HW2 1095   0.305   0.699   0.497
   70SOL     OW 1096   1.529   0.229   1.727
   70SOL    HW1 1097   1.525   0.254   1.819
   70SOL    HW2 1098   1.511   0.135   1.727
   71SOL     OW 1099   0.628   0.109   0.122
   71SOL    HW1 1100   0.724   0.108   0.126
   71SOL    HW2 1101   0.609   0.132   0.031
   72SOL     OW 1102   0.776   0.284   1.767
   72SOL    HW1 1103   0.850   0.223   1.769
   72SOL    HW2 1104   0.720   0.255   1.839
   73SOL     OW 1105   0.876   1.522   1.194
   73SOL    HW1 1106   0.860   1.485   1.107
   73SOL    HW2 1107   0.945   1.468   1.231
   74SOL     OW 1108   1.339   0.587   1.431
   74SOL    HW1 1109   1.370   0.558   1.517
   74SOL    HW2 1110   1.375   0.676   1.421
   75SOL     OW 1111   0.816   1.393   0.942
   75SOL    HW1 1112   0.901   1.381   0.899
   75SOL    HW2 1113   0.754   1.395   0.869
   76SOL     OW 1114   0.930   0.512   0.900
   76SOL    HW1 1115   0.905   0.504   0.808
   76SOL    HW2 1116   0.955   0.423   0.926
   77SOL     OW 1117   0.551   0.052   0.498
   77SOL    HW1 1118   0.476   0.058   0.558
   77SOL    HW2 1119   0.544   0.129   0.443
   78SOL     OW 1120   1.430   1.205   0.044
   78SOL    HW1 1121   1.449   1.124   0.092
   78SOL    HW2 1122   1.338   1.222   0.064
   79SOL     OW 1123   0.358   3.988   0.175
   79SOL    HW1 1124   0.322   0.073   0.148
   79SOL    HW2 1125   0.434   0.010   0.229
   80SOL     OW 1126   0.943   0.249   0.466
   80SOL    HW1 1127   0.911   0.288   0.384
   80SOL    HW2 1128   1.038   0.251   0.457
   81SOL     OW 1129   1.079   0.683   1.458
   81SOL    HW1 1130   1.010   0.618   1.465
   81SOL    HW2 1131   1.160   0.632   1.453
   82SOL     OW 1132   1.223   1.570   0.794
   82SOL    HW1 1133   1.236   1.639   0.729
   82SOL    HW2 1134   1.291   1.585   0.859
   83SOL     OW 1135   0.465   1.151   0.733
   83SOL    HW1 1136   0.395   1.126   0.793
   83SOL    HW2 1137   0.429   1.137   0.646
   84SOL     OW 1138   1.262   1.793   0.610
   84SOL    HW1 1139   1.312   1.855   0.557
   84SOL    HW2 1140   1.196   1.847   0.654
   85SOL     OW 1141   0.999   0.532   0.053
   85SOL    HW1 1142   0.999   0.531  13.857
   85SOL    HW2 1143   1.090   0.552   0.076
   86SOL     OW 1144   0.081   0.573   1.393
   86SOL    HW1 1145   0.170   0.555   1.363
   86SOL    HW2 1146   0.090   0.645   1.456
   87SOL     OW 1147   0.572   0.231   1.160
   87SOL    HW1 1148   0.594   0.138   1.168
   87SOL    HW2 1149   0.481   0.237   1.190
   88SOL     OW 1150   0.871   0.462   0.638
   88SOL    HW1 1151   0.824   0.515   0.574
   88SOL    HW2 1152   0.891   0.381   0.592
   89SOL     OW 1153   0.996   0.040   0.779
   89SOL    HW1 1154   0.954   0.068   0.698
   89SOL    HW2 1155   1.008   3.946   0.769
   90SOL     OW 1156   1.438   1.163   0.858
   90SOL    HW1 1157   1.369   1.097   0.856
   90SOL    HW2 1158   1.464   1.173   0.766
   91SOL     OW 1159   1.465   0.607   0.974
   91SOL    HW1 1160   1.410   0.528   0.979
   91SOL    HW2 1161   1.524   0.600   1.049
   92SOL     OW 1162   1.845   0.817   0.385
   92SOL    HW1 1163   1.899   0.762   0.442
   92SOL    HW2 1164   1.812   0.757   0.318
   93SOL     OW 1165   0.494   1.381   0.167
   93SOL    HW1 1166   0.422   1.351   0.222
   93SOL    HW2 1167   0.452   1.419   0.090
   94SOL     OW 1168   1.673   1.261   0.644
   94SOL    HW1 1169   1.767   1.261   0.661
   94SOL    HW2 1170   1.644   1.349   0.671
   95SOL     OW 1171   1.420   0.591   0.087
   95SOL    HW1 1172   1.351   0.577   0.152
   95SOL    HW2 1173   1.473   0.511   0.090
   96SOL     OW 1174   0.528   0.258   0.327
   96SOL    HW1 1175   0.566   0.210   0.254
   96SOL    HW2 1176   0.505   0.344   0.290
   97SOL     OW 1177   1.749   1.233   1.572
   97SOL    HW1 1178   1.836   1.192   1.567
   97SOL    HW2 1179   1.766   1.324   1.596
   98SOL     OW 1180   1.056   1.354   1.334
   98SOL    HW1 1181   0.980   1.322   1.384
   98SOL    HW2 1182   1.131   1.311   1.375
   99SOL     OW 1183   1.608   1.614   1.664
   99SOL    HW1 1184   1.589   1.645   1.576
   99SOL    HW2 1185   1.688   1.563   1.656
  100SOL     OW 1186   1.132   1.208   1.104
  100SOL    HW1 1187   1.071   1.243   1.168
  100SOL    HW2 1188   1.100   1.239   1.020
  101SOL     OW 1189   1.624   1.096   1.075
  101SOL    HW1 1190   1.619   1.158   1.148
  101SOL    HW2 1191   1.548   1.115   1.021
  102SOL     OW 1192   0.913   0.115   1.401
  102SOL    HW1 1193   0.932   0.088   1.311
  102SOL    HW2 1194   0.993   0.157   1.432
  103SOL     OW 1195   0.984   1.115   1.723
  103SOL    HW1 1196   0.893   1.131   1.746
  103SOL    HW2 1197   0.982   1.037   1.668
  104SOL     OW 1198   0.716   1.061   0.377
  104SOL    HW1 1199   0.701   1.042   0.469
  104SOL    HW2 1200   0.789   1.005   0.353
  105SOL     OW 1201   0.423   0.817   1.252
  105SOL    HW1 1202   0.491   0.823   1.319
  105SOL    HW2 1203   0.388   0.728   1.262
  106SOL     OW 1204   1.265   0.375   1.277
  106SOL    HW1 1205   1.300   0.453   1.321
  106SOL    HW2 1206   1.178   0.400   1.247
  107SOL     OW 1207   0.065   1.580   1.346
  107SOL    HW1 1208   0.070   1.634   1.267
  107SOL    HW2 1209   0.156   1.567   1.373
  108SOL     OW 1210   0.364   1.103   0.481
  108SOL    HW1 1211   0.354   1.180   0.424
  108SOL    HW2 1212   0.380   1.031   0.420
  109SOL     OW 1213   0.555   0.533   0.858
  109SOL    HW1 1214   0.568   0.592   0.784
  109SOL    HW2 1215   0.620   0.560   0.922
  110SOL     OW 1216   1.245   1.342   0.398
  110SOL    HW1 1217   1.298   1.417   0.422
  110SOL    HW2 1218   1.157   1.363   0.429
  111SOL     OW 1219   1.279   1.460   1.147
  111SOL    HW1 1220   1.336   1.461   1.224
  111SOL    HW2 1221   1.225   1.382   1.158
  112SOL     OW 1222   1.579   0.637   0.490
  112SOL    HW1 1223   1.535   0.693   0.554
  112SOL    HW2 1224   1.613   0.697   0.424
  113SOL     OW 1225   0.345   1.527   1.318
  113SOL    HW1 1226   0.335   1.476   1.237
  113SOL    HW2 1227   0.440   1.542   1.326
  114SOL     OW 1228   0.417   0.737   1.601
  114SOL    HW1 1229   0.480   0.783   1.544
  114SOL    HW2 1230   0.454   0.650   1.614
  115SOL     OW 1231   1.604   0.780   1.685
  115SOL    HW1 1232   1.518   0.822   1.678
  115SOL    HW2 1233   1.656   0.821   1.616
  116SOL     OW 1234   1.011   0.134   1.779
  116SOL    HW1 1235   1.064   0.205   1.743
  116SOL    HW2 1236   1.001   0.073   1.705
  117SOL     OW 1237   0.483   0.037   1.765
  117SOL    HW1 1238   0.490   0.047   1.670
  117SOL    HW2 1239   0.421   0.105   1.791
  118SOL     OW 1240   0.584   0.875   1.031
  118SOL    HW1 1241   0.617   0.965   1.034
  118SOL    HW2 1242   0.529   0.867   1.109
  119SOL     OW 1243   1.353   0.858   1.027
  119SOL    HW1 1244   1.269   0.846   0.983
  119SOL    HW2 1245   1.397   0.774   1.019
  120SOL     OW 1246   1.217   0.550   0.268
  120SOL    HW1 1247   1.224   0.470   0.320
  120SOL    HW2 1248   1.160   0.607   0.319
  121SOL     OW 1249   0.311   0.212   1.240
  121SOL    HW1 1250   0.268   0.248   1.318
  121SOL    HW2 1251   0.296   0.118   1.246
  122SOL     OW 1252   0.062   1.306   1.280
  122SOL    HW1 1253   0.091   1.264   1.361
  122SOL    HW2 1254   0.052   1.398   1.304
  123SOL     OW 1255   0.725   0.634   1.053
  123SOL    HW1 1256   0.799   0.619   0.994
  123SOL    HW2 1257   0.695   0.722   1.031
  124SOL     OW 1258   1.737   0.960   1.854
  124SOL    HW1 1259   1.691   0.895   1.800
  124SOL    HW2 1260   1.678   0.975   1.928
  125SOL     OW 1261   0.332   0.057   0.657
  125SOL    HW1 1262   0.307   0.149   0.663
  125SOL    HW2 1263   0.282   0.013   0.726
  126SOL     OW 1264   1.576   0.390   0.391
  126SOL    HW1 1265   1.549   0.329   0.459
  126SOL    HW2 1266   1.568   0.477   0.431
  127SOL     OW 1267   1.029   0.759   0.959
  127SOL    HW1 1268   1.022   0.776   1.053
  127SOL    HW2 1269   1.002   0.668   0.949
  128SOL     OW 1270   0.982   1.567   1.719
  128SOL    HW1 1271   0.966   1.610   1.635
  128SOL    HW2 1272   1.024   1.484   1.696
  129SOL     OW 1273   1.852   1.489   1.604
  129SOL    HW1 1274   1.881   1.521   1.519
  129SOL    HW2 1275   1.926   1.507   1.663
  130SOL     OW 1276   0.353   0.922   1.798
  130SOL    HW1 1277   0.431   0.942   1.851
  130SOL    HW2 1278   0.382   0.854   1.737
  131SOL     OW 1279   1.537   0.268   0.146
  131SOL    HW1 1280   1.468   0.201   0.146
  131SOL    HW2 1281   1.537   0.302   0.235
  132SOL     OW 1282   1.288   0.832   0.056
  132SOL    HW1 1283   1.336   0.749   0.061
  132SOL    HW2 1284   1.307   0.864  13.868
  133SOL     OW 1285   1.066   1.337   0.855
  133SOL    HW1 1286   1.070   1.265   0.792
  133SOL    HW2 1287   1.127   1.402   0.820
  134SOL     OW 1288   0.313   0.803   0.950
  134SOL    HW1 1289   0.408   0.819   0.945
  134SOL    HW2 1290   0.306   0.713   0.982
  135SOL     OW 1291   0.339   0.529   1.015
  135SOL    HW1 1292   0.297   0.444   0.997
  135SOL    HW2 1293   0.414   0.532   0.956
  136SOL     OW 1294   1.133   0.380   1.697
  136SOL    HW1 1295   1.085   0.435   1.759
  136SOL    HW2 1296   1.220   0.420   1.692
  137SOL     OW 1297   1.151   0.225   1.482
  137SOL    HW1 1298   1.142   0.280   1.560
  137SOL    HW2 1299   1.177   0.287   1.413
  138SOL     OW 1300   0.014   1.325   0.192
  138SOL    HW1 1301   3.919   1.338   0.184
  138SOL    HW2 1302   0.023   1.233   0.215
  139SOL     OW 1303   0.078   1.800   0.888
  139SOL    HW1 1304   0.083   1.704   0.892
  139SOL    HW2 1305   0.169   1.829   0.892
  140SOL     OW 1306   0.501   1.571   0.910
  140SOL    HW1 1307   0.570   1.632   0.936
  140SOL    HW2 1308   0.544   1.508   0.852
  141SOL     OW 1309   0.978   0.789   1.224
  141SOL    HW1 1310   1.034   0.769   1.299
  141SOL    HW2 1311   0.893   0.750   1.247
  142SOL     OW 1312   0.035   0.575   1.112
  142SOL    HW1 1313   0.095   0.520   1.062
  142SOL    HW2 1314   0.061   0.561   1.203
  143SOL     OW 1315   0.211   0.516   1.722
  143SOL    HW1 1316   0.257   0.476   1.648
  143SOL    HW2 1317   0.164   0.590   1.684
  144SOL     OW 1318   1.379   0.937   1.657
  144SOL    HW1 1319   1.400   1.030   1.654
  144SOL    HW2 1320   1.375   0.910   1.565
  145SOL     OW 1321   0.815   0.581   0.374
  145SOL    HW1 1322   0.826   0.503   0.319
  145SOL    HW2 1323   0.741   0.627   0.335
  146SOL     OW 1324   1.640   0.602   1.183
  146SOL    HW1 1325   1.631   0.542   1.257
  146SOL    HW2 1326   1.728   0.585   1.149
  147SOL     OW 1327   0.300   1.544   1.725
  147SOL    HW1 1328   0.252   1.613   1.770
  147SOL    HW2 1329   0.269   1.463   1.765
  148SOL     OW 1330   0.710   0.454   1.256
  148SOL    HW1 1331   0.660   0.376   1.231
  148SOL    HW2 1332   0.700   0.513   1.181
  149SOL     OW 1333   0.926   1.679   1.469
  149SOL    HW1 1334   0.900   1.642   1.385
  149SOL    HW2 1335   0.919   1.774   1.456
  150SOL     OW 1336   0.429   0.491   0.228
  150SOL    HW1 1337   0.504   0.551   0.238
  150SOL    HW2 1338   0.357   0.548   0.202
  151SOL     OW 1339   0.156   1.135   1.475
  151SOL    HW1 1340   0.157   1.084   1.556
  151SOL    HW2 1341   0.171   1.070   1.406
  152SOL     OW 1342   1.323   1.045   1.222
  152SOL    HW1 1343   1.346   0.982   1.154
  152SOL    HW2 1344   1.255   1.100   1.182
  153SOL     OW 1345   1.314   0.858   0.327
  153SOL    HW1 1346   1.240   0.824   0.378
  153SOL    HW2 1347   1.290   0.844   0.236
  154SOL     OW 1348   1.244   1.735   1.108
  154SOL    HW1 1349   1.328   1.756   1.067
  154SOL    HW2 1350   1.249   1.642   1.128
  155SOL     OW 1351   0.078   1.216   1.027
  155SOL    HW1 1352   0.084   1.242   1.119
  155SOL    HW2 1353   3.985   1.226   1.006
  156SOL     OW 1354   0.679   1.668   1.734
  156SOL    HW1 1355   0.620   1.743   1.726
  156SOL    HW2 1356   0.746   1.682   1.667
  157SOL     OW 1357   0.902   0.104   0.135
  157SOL    HW1 1358   0.941   0.091   0.048
  157SOL    HW2 1359   0.910   0.019   0.178
  158SOL     OW 1360   1.701   0.124   0.495
  158SOL    HW1 1361   1.782   0.134   0.445
  158SOL    HW2 1362   1.693   0.030   0.509
  159SOL     OW 1363   1.369   1.572   0.473
  159SOL    HW1 1364   1.418   1.613   0.402
  159SOL    HW2 1365   1.329   1.645   0.520
  160SOL     OW 1366   0.175   1.763   1.830
  160SOL    HW1 1367   0.118   1.713   1.888
  160SOL    HW2 1368   0.215   1.829   1.887
  161SOL     OW 1369   1.276   0.928   0.672
  161SOL    HW1 1370   1.350   0.868   0.683
  161SOL    HW2 1371   1.311   0.999   0.618
  162SOL     OW 1372   0.810   1.274   1.428
  162SOL    HW1 1373   0.781   1.315   1.509
  162SOL    HW2 1374   0.738   1.291   1.366
  163SOL     OW 1375   0.673   1.586   0.187
  163SOL    HW1 1376   0.664   1.617   0.097
  163SOL    HW2 1377   0.628   1.501   0.188
  164SOL     OW 1378   1.582   1.712   1.410
  164SOL    HW1 1379   1.638   1.704   1.333
  164SOL    HW2 1380   1.570   1.806   1.421
  165SOL     OW 1381   1.839   0.177   0.966
  165SOL    HW1 1382   1.872   0.111   0.906
  165SOL    HW2 1383   1.750   0.196   0.935
  166SOL     OW 1384   0.273   0.321   0.715
  166SOL    HW1 1385   0.187   0.356   0.690
  166SOL    HW2 1386   0.267   0.305   0.809
  167SOL     OW 1387   1.216   1.601   0.033
  167SOL    HW1 1388   1.206   1.510   0.060
  167SOL    HW2 1389   1.177   1.605  13.846
  168SOL     OW 1390   0.823   1.005   1.374
  168SOL    HW1 1391   0.867   1.000   1.289
  168SOL    HW2 1392   0.822   1.099   1.394
  169SOL     OW 1393   0.921   0.911   0.287
  169SOL    HW1 1394   0.991   0.951   0.236
  169SOL    HW2 1395   0.964   0.841   0.336
  170SOL     OW 1396   1.483   1.643   0.048
  170SOL    HW1 1397   1.389   1.625   0.040
  170SOL    HW2 1398   1.513   1.649  13.857
  171SOL     OW 1399   0.374   1.303   1.491
  171SOL    HW1 1400   0.358   1.383   1.441
  171SOL    HW2 1401   0.297   1.248   1.474
  172SOL     OW 1402   1.610   1.279   1.278
  172SOL    HW1 1403   1.674   1.272   1.350
  172SOL    HW2 1404   1.547   1.343   1.309
  173SOL     OW 1405   1.056   1.109   0.708
  173SOL    HW1 1406   0.984   1.057   0.746
  173SOL    HW2 1407   1.120   1.044   0.680
  174SOL     OW 1408   1.015   0.249   0.969
  174SOL    HW1 1409   1.004   0.199   0.888
  174SOL    HW2 1410   1.010   0.184   1.039
  175SOL     OW 1411   0.607   1.487   0.483
  175SOL    HW1 1412   0.652   1.437   0.414
  175SOL    HW2 1413   0.536   1.532   0.438
  176SOL     OW 1414   1.721   0.394   1.372
  176SOL    HW1 1415   1.793   0.456   1.376
  176SOL    HW2 1416   1.754   0.322   1.318
  177SOL     OW 1417   0.266   1.315   0.310
  177SOL    HW1 1418   0.187   1.342   0.262
  177SOL    HW2 1419   0.263   1.365   0.391
  178SOL     OW 1420   0.108   0.999   1.718
  178SOL    HW1 1421   0.048   0.991   1.792
  178SOL    HW2 1422   0.194   0.981   1.754
  179SOL     OW 1423   0.694   0.253   1.501
  179SOL    HW1 1424   0.762   0.200   1.460
  179SOL    HW2 1425   0.723   0.262   1.592
  180SOL     OW 1426   0.068   0.365   0.037
  180SOL    HW1 1427   3.978   0.372   0.067
  180SOL    HW2 1428   0.063   0.383  13.843
  181SOL     OW 1429   1.427   0.857   1.398
  181SOL    HW1 1430   1.378   0.919   1.344
  181SOL    HW2 1431   1.516   0.859   1.363
  182SOL     OW 1432   0.051   0.201   0.320
  182SOL    HW1 1433   0.077   0.275   0.265
  182SOL    HW2 1434   0.134   0.158   0.342
  183SOL     OW 1435   1.186   1.347   0.122
  183SOL    HW1 1436   1.092   1.335   0.110
  183SOL    HW2 1437   1.201   1.332   0.215
  184SOL     OW 1438   0.621   0.829   1.437
  184SOL    HW1 1439   0.677   0.904   1.421
  184SOL    HW2 1440   0.681   0.755   1.445
  185SOL     OW 1441   1.492   1.783   0.983
  185SOL    HW1 1442   1.513   1.852   0.921
  185SOL    HW2 1443   1.575   1.738   0.998
  186SOL     OW 1444   0.718   0.562   1.707
  186SOL    HW1 1445   0.762   0.623   1.765
  186SOL    HW2 1446   0.744   0.475   1.739
  187SOL     OW 1447   1.472   1.198   1.631
  187SOL    HW1 1448   1.460   1.211   1.725
  187SOL    HW2 1449   1.566   1.212   1.616
  188SOL     OW 1450   0.378   1.743   1.557
  188SOL    HW1 1451   0.291   1.781   1.544
  188SOL    HW2 1452   0.362   1.661   1.603
  189SOL     OW 1453   1.667   0.881   1.255
  189SOL    HW1 1454   1.662   0.795   1.212
  189SOL    HW2 1455   1.657   0.944   1.184
  190SOL     OW 1456   1.231   0.335   0.435
  190SOL    HW1 1457   1.294   0.262   0.431
  190SOL    HW2 1458   1.247   0.376   0.520
  191SOL     OW 1459   0.589   0.737   0.672
  191SOL    HW1 1460   0.626   0.824   0.655
  191SOL    HW2 1461   0.522   0.727   0.604
  192SOL     OW 1462   1.751   0.384   1.643
  192SOL    HW1 1463   1.733   0.389   1.549
  192SOL    HW2 1464   1.694   0.313   1.674
  193SOL     OW 1465   1.745   0.933   1.512
  193SOL    HW1 1466   1.736   1.028   1.525
  193SOL    HW2 1467   1.729   0.920   1.418
  194SOL     OW 1468   0.907   1.399   0.065
  194SOL    HW1 1469   0.841   1.379   0.131
  194SOL    HW2 1470   0.859   1.400  13.882
  195SOL     OW 1471   0.663   1.788   0.942
  195SOL    HW1 1472   0.643   1.879   0.920
  195SOL    HW2 1473   0.758   1.782   0.935
  196SOL     OW 1474   0.868   0.968   0.853
  196SOL    HW1 1475   0.919   0.896   0.892
  196SOL    HW2 1476   0.832   1.014   0.928
  197SOL     OW 1477   1.098   1.014   0.111
  197SOL    HW1 1478   1.087   1.058   0.027
  197SOL    HW2 1479   1.171   0.954   0.097
  198SOL     OW 1480   1.858   1.516   0.835
  198SOL    HW1 1481   1.779   1.556   0.798
  198SOL    HW2 1482   1.843   1.517   0.930
  199SOL     OW 1483   0.226   1.303   1.856
  199SOL    HW1 1484   0.154   1.247   1.829
  199SOL    HW2 1485   0.213   1.317   1.950
  200SOL     OW 1486   0.112   1.282   0.729
  200SOL    HW1 1487   0.129   1.232   0.809
  200SOL    HW2 1488   0.103   1.215   0.661
  201SOL     OW 1489   0.682   1.405   1.629
  201SOL    HW1 1490   0.602   1.362   1.660
  201SOL    HW2 1491   0.677   1.493   1.667
  202SOL     OW 1492   1.811   0.183   1.238
  202SOL    HW1 1493   1.814   0.089   1.253
  202SOL    HW2 1494   1.826   0.193   1.144
  203SOL     OW 1495   0.442   0.437   0.533
  203SOL    HW1 1496   0.470   0.362   0.479
  203SOL    HW2 1497   0.389   0.397   0.602
  204SOL     OW 1498   1.700   1.500   1.100
  204SOL    HW1 1499   1.621   1.472   1.052
  204SOL    HW2 1500   1.715   1.430   1.163
  205SOL     OW 1501   0.333   0.558   1.293
  205SOL    HW1 1502   0.389   0.501   1.346
  205SOL    HW2 1503   0.348   0.529   1.203
  206SOL     OW 1504   0.829   1.579   0.676
  206SOL    HW1 1505   0.813   1.640   0.604
  206SOL    HW2 1506   0.753   1.520   0.674
  207SOL     OW 1507   1.460   0.254   1.110
  207SOL    HW1 1508   1.478   0.167   1.146
  207SOL    HW2 1509   1.405   0.296   1.176
  208SOL     OW 1510   1.004   0.028   1.146
  208SOL    HW1 1511   0.923   3.991   1.110
  208SOL    HW2 1512   1.062   3.953   1.155
  209SOL     OW 1513   0.778   1.324   0.320
  209SOL    HW1 1514   0.747   1.235   0.336
  209SOL    HW2 1515   0.859   1.330   0.370
  210SOL     OW 1516   0.620   1.556   1.286
  210SOL    HW1 1517   0.622   1.638   1.335
  210SOL    HW2 1518   0.708   1.549   1.249
  211SOL     OW 1519   1.321   0.069   0.129
  211SOL    HW1 1520   1.338   3.982   0.093
  211SOL    HW2 1521   1.255   0.055   0.197
  212SOL     OW 1522   1.281   0.455   0.683
  212SOL    HW1 1523   1.234   0.539   0.678
  212SOL    HW2 1524   1.284   0.436   0.777
  213SOL     OW 1525   1.588   0.210   0.868
  213SOL    HW1 1526   1.539   0.234   0.946
  213SOL    HW2 1527   1.588   0.289   0.814
  214SOL     OW 1528   0.044   1.031   0.256
  214SOL    HW1 1529   0.137   1.012   0.251
  214SOL    HW2 1530   0.007   0.957   0.305
  215SOL     OW 1531   0.894   1.655   0.343
  215SOL    HW1 1532   0.819   1.626   0.292
  215SOL    HW2 1533   0.862   1.728   0.395
  216SOL     OW 1534   0.233   0.628   1.979
  216SOL    HW1 1535   0.139   0.632   2.001
  216SOL    HW2 1536   0.235   0.598   1.888
  217SOL     OW 1537   0.224   0.289   2.845
  217SOL    HW1 1538   0.246   0.250   2.929
  217SOL    HW2 1539   0.129   0.278   2.838
  218SOL     OW 1540   0.019   0.385   2.498
  218SOL    HW1 1541   3.928   0.399   2.526
  218SOL    HW2 1542   0.025   0.291   2.483
  219SOL     OW 1543   0.581   1.289   3.053
  219SOL    HW1 1544   0.494   1.291   3.012
  219SOL    HW2 1545   0.594   1.378   3.085
  220SOL     OW 1546   1.550   1.502   2.571
  220SOL    HW1 1547   1.518   1.482   2.658
  220SOL    HW2 1548   1.472   1.500   2.516
  221SOL     OW 1549   1.133   0.698   2.559
  221SOL    HW1 1550   1.180   0.781   2.547
  221SOL    HW2 1551   1.085   0.710   2.641
  222SOL     OW 1552   1.767   0.619   2.087
  222SOL    HW1 1553   1.745   0.611   1.994
  222SOL    HW2 1554   1.752   0.531   2.122
  223SOL     OW 1555   0.754   1.139   2.904
  223SOL    HW1 1556   0.690   1.175   2.966
  223SOL    HW2 1557   0.789   1.216   2.859
  224SOL     OW 1558   0.871   0.770   3.686
  224SOL    HW1 1559   0.860   0.841   3.749
  224SOL    HW2 1560   0.893   0.814   3.604
  225SOL     OW 1561   0.685   1.002   2.507
  225SOL    HW1 1562   0.751   0.991   2.576
  225SOL    HW2 1563   0.616   1.054   2.549
  226SOL     OW 1564   0.712   1.149   3.678
  226SOL    HW1 1565   0.759   1.227   3.707
  226SOL    HW2 1566   0.630   1.183   3.641
  227SOL     OW 1567   0.351   1.401   2.941
  227SOL    HW1 1568   0.270   1.380   2.894
  227SOL    HW2 1569   0.399   1.459   2.881
  228SOL     OW 1570   1.449   1.485   3.221
  228SOL    HW1 1571   1.495   1.568   3.234
  228SOL    HW2 1572   1.380   1.485   3.288
  229SOL     OW 1573   0.457   0.408   3.357
  229SOL    HW1 1574   0.539   0.358   3.356
  229SOL    HW2 1575   0.388   0.341   3.361
  230SOL     OW 1576   1.612   0.451   2.597
  230SOL    HW1 1577   1.542   0.482   2.539
  230SOL    HW2 1578   1.630   0.524   2.656
  231SOL     OW 1579   0.220   1.719   2.319
  231SOL    HW1 1580   0.240   1.793   2.377
  231SOL    HW2 1581   0.297   1.711   2.263
  232SOL     OW 1582   1.137   1.342   3.556
  232SOL    HW1 1583   1.178   1.336   3.642
  232SOL    HW2 1584   1.085   1.262   3.549
  233SOL     OW 1585   0.250   1.450   2.402
  233SOL    HW1 1586   0.215   1.538   2.387
  233SOL    HW2 1587   0.183   1.406   2.453
  234SOL     OW 1588   0.248   1.066   2.746
  234SOL    HW1 1589   0.267   0.981   2.786
  234SOL    HW2 1590   0.195   1.111   2.812
  235SOL     OW 1591   0.611   1.792   3.289
  235SOL    HW1 1592   0.528   1.774   3.334
  235SOL    HW2 1593   0.633   1.882   3.315
  236SOL     OW 1594   0.577   0.986   2.001
  236SOL    HW1 1595   0.625   1.030   1.931
  236SOL    HW2 1596   0.618   1.016   2.082
  237SOL     OW 1597   1.581   0.140   3.318
  237SOL    HW1 1598   1.611   0.213   3.263
  237SOL    HW2 1599   1.548   0.182   3.398
  238SOL     OW 1600   0.140   0.652   2.431
  238SOL    HW1 1601   0.098   0.566   2.436
  238SOL    HW2 1602   0.102   0.702   2.504
  239SOL     OW 1603   0.044   1.589   2.000
  239SOL    HW1 1604   0.037   1.497   2.026
  239SOL    HW2 1605   3.961   1.628   2.027
  240SOL     OW 1606   1.685   0.915   2.502
  240SOL    HW1 1607   1.772   0.877   2.486
  240SOL    HW2 1608   1.667   0.969   2.425
  241SOL     OW 1609   1.649   1.106   2.291
  241SOL    HW1 1610   1.735   1.108   2.251
  241SOL    HW2 1611   1.655   1.167   2.365
  242SOL     OW 1612   0.141   0.756   3.451
  242SOL    HW1 1613   0.236   0.751   3.446
  242SOL    HW2 1614   0.123   0.844   3.483
  243SOL     OW 1615   0.613   1.387   2.598
  243SOL    HW1 1616   0.567   1.303   2.607
  243SOL    HW2 1617   0.598   1.413   2.508
  244SOL     OW 1618   1.285   1.235   3.286
  244SOL    HW1 1619   1.317   1.168   3.225
  244SOL    HW2 1620   1.345   1.230   3.361
  245SOL     OW 1621   0.820   0.004   2.378
  245SOL    HW1 1622   0.865   0.084   2.354
  245SOL    HW2 1623   0.727   0.027   2.378
  246SOL     OW 1624   0.184   0.950   3.140
  246SOL    HW1 1625   0.272   0.915   3.128
  246SOL    HW2 1626   0.132   0.908   3.072
  247SOL     OW 1627   1.532   0.996   2.062
  247SOL    HW1 1628   1.462   0.939   2.095
  247SOL    HW2 1629   1.574   1.030   2.141
  248SOL     OW 1630   1.187   1.809   3.486
  248SOL    HW1 1631   1.194   1.869   3.411
  248SOL    HW2 1632   1.202   1.722   3.449
  249SOL     OW 1633   0.345   0.251   3.702
  249SOL    HW1 1634   0.388   0.334   3.683
  249SOL    HW2 1635   0.253   0.274   3.719
  250SOL     OW 1636   1.467   1.420   2.816
  250SOL    HW1 1637   1.398   1.435   2.881
  250SOL    HW2 1638   1.455   1.328   2.790
  251SOL     OW 1639   1.598   1.714   2.407
  251SOL    HW1 1640   1.594   1.670   2.322
  251SOL    HW2 1641   1.596   1.643   2.471
  252SOL     OW 1642   0.595   0.717   2.128
  252SOL    HW1 1643   0.601   0.801   2.083
  252SOL    HW2 1644   0.533   0.731   2.199
  253SOL     OW 1645   1.274   0.369   2.803
  253SOL    HW1 1646   1.187   0.330   2.810
  253SOL    HW2 1647   1.332   0.307   2.849
  254SOL     OW 1648   1.567   1.648   2.150
  254SOL    HW1 1649   1.646   1.698   2.130
  254SOL    HW2 1650   1.527   1.631   2.064
  255SOL     OW 1651   0.794   0.616   3.315
  255SOL    HW1 1652   0.765   0.590   3.403
  255SOL    HW2 1653   0.756   0.550   3.257
  256SOL     OW 1654   1.392   0.476   3.539
  256SOL    HW1 1655   1.398   0.521   3.623
  256SOL    HW2 1656   1.450   0.400   3.548
  257SOL     OW 1657   0.952   0.887   3.446
  257SOL    HW1 1658   1.007   0.818   3.409
  257SOL    HW2 1659   0.903   0.922   3.372
  258SOL     OW 1660   0.992   0.403   3.100
  258SOL    HW1 1661   0.907   0.423   3.138
  258SOL    HW2 1662   0.972   0.374   3.011
  259SOL     OW 1663   1.052   0.700   2.287
  259SOL    HW1 1664   1.069   0.692   2.381
  259SOL    HW2 1665   0.970   0.653   2.274
  260SOL     OW 1666   0.081   0.829   2.652
  260SOL    HW1 1667   0.154   0.795   2.705
  260SOL    HW2 1668   0.102   0.921   2.639
  261SOL     OW 1669   0.130   1.863   3.439
  261SOL    HW1 1670   0.138   1.828   3.528
  261SOL    HW2 1671   0.038   1.851   3.416
  262SOL     OW 1672   0.894   0.352   2.060
  262SOL    HW1 1673   0.936   0.412   1.998
  262SOL    HW2 1674   0.893   0.268   2.015
  263SOL     OW 1675   1.708   0.575   3.691
  263SOL    HW1 1676   1.670   0.648   3.643
  263SOL    HW2 1677   1.732   0.512   3.624
  264SOL     OW 1678   1.378   1.141   2.401
  264SOL    HW1 1679   1.459   1.131   2.351
  264SOL    HW2 1680   1.325   1.202   2.351
  265SOL     OW 1681   0.561   0.195   2.742
  265SOL    HW1 1682   0.566   0.219   2.835
  265SOL    HW2 1683   0.547   0.278   2.697
  266SOL     OW 1684   0.999   1.441   2.331
  266SOL    HW1 1685   0.968   1.517   2.282
  266SOL    HW2 1686   0.983   1.463   2.423
  267SOL     OW 1687   0.365   1.820   2.732
  267SOL    HW1 1688   0.428   1.748   2.741
  267SOL    HW2 1689   0.416   1.899   2.748
  268SOL     OW 1690   1.800   1.048   2.734
  268SOL    HW1 1691   1.746   1.041   2.655
  268SOL    HW2 1692   1.737   1.057   2.805
  269SOL     OW 1693   1.224   1.537   3.377
  269SOL    HW1 1694   1.210   1.465   3.438
  269SOL    HW2 1695   1.159   1.524   3.309
  270SOL     OW 1696   0.310   0.954   2.104
  270SOL    HW1 1697   0.394   0.976   2.063
  270SOL    HW2 1698   0.298   0.861   2.084
  271SOL     OW 1699   1.479   0.747   2.591
  271SOL    HW1 1700   1.475   0.706   2.678
  271SOL    HW2 1701   1.557   0.802   2.594
  272SOL     OW 1702   0.468   1.261   3.599
  272SOL    HW1 1703   0.442   1.269   3.507
  272SOL    HW2 1704   0.386   1.264   3.648
  273SOL     OW 1705   1.122   1.777   2.091
  273SOL    HW1 1706   1.048   1.737   2.137
  273SOL    HW2 1707   1.145   1.714   2.023
  274SOL     OW 1708   0.201   0.294   3.362
  274SOL    HW1 1709   0.107   0.314   3.361
  274SOL    HW2 1710   0.209   0.222   3.424
  275SOL     OW 1711   1.627   1.382   1.946
  275SOL    HW1 1712   1.581   1.464   1.930
  275SOL    HW2 1713   1.561   1.314   1.929
  276SOL     OW 1714   0.466   1.739   2.178
  276SOL    HW1 1715   0.509   1.796   2.242
  276SOL    HW2 1716   0.538   1.703   2.126
  277SOL     OW 1717   1.441   0.166   2.267
  277SOL    HW1 1718   1.394   0.099   2.218
  277SOL    HW2 1719   1.512   0.119   2.312
  278SOL     OW 1720   0.252   1.791   3.093
  278SOL    HW1 1721   0.298   1.725   3.146
  278SOL    HW2 1722   0.249   1.753   3.005
  279SOL     OW 1723   0.938   1.699   2.760
  279SOL    HW1 1724   1.017   1.649   2.780
  279SOL    HW2 1725   0.895   1.649   2.690
  280SOL     OW 1726   0.397   0.694   2.333
  280SOL    HW1 1727   0.423   0.603   2.348
  280SOL    HW2 1728   0.305   0.698   2.358
  281SOL     OW 1729   1.529   0.229   3.589
  281SOL    HW1 1730   1.525   0.254   3.681
  281SOL    HW2 1731   1.511   0.135   3.589
  282SOL     OW 1732   0.645   0.130   1.965
  282SOL    HW1 1733   0.668   0.046   2.005
  282SOL    HW2 1734   0.584   0.107   1.895
  283SOL     OW 1735   0.776   0.284   3.629
  283SOL    HW1 1736   0.850   0.223   3.631
  283SOL    HW2 1737   0.720   0.255   3.701
  284SOL     OW 1738   0.876   1.522   3.056
  284SOL    HW1 1739   0.860   1.485   2.969
  284SOL    HW2 1740   0.945   1.468   3.093
  285SOL     OW 1741   1.340   0.587   3.293
  285SOL    HW1 1742   1.370   0.558   3.379
  285SOL    HW2 1743   1.375   0.676   3.283
  286SOL     OW 1744   0.816   1.393   2.804
  286SOL    HW1 1745   0.901   1.381   2.762
  286SOL    HW2 1746   0.754   1.395   2.731
  287SOL     OW 1747   0.930   0.512   2.762
  287SOL    HW1 1748   0.906   0.504   2.670
  287SOL    HW2 1749   0.956   0.423   2.788
  288SOL     OW 1750   0.546   0.056   2.349
  288SOL    HW1 1751   0.473   0.063   2.410
  288SOL    HW2 1752   0.548   0.140   2.304
  289SOL     OW 1753   1.428   1.198   1.903
  289SOL    HW1 1754   1.458   1.123   1.953
  289SOL    HW2 1755   1.342   1.220   1.940
  290SOL     OW 1756   0.346   0.036   2.060
  290SOL    HW1 1757   0.360   0.086   1.980
  290SOL    HW2 1758   0.431   0.037   2.104
  291SOL     OW 1759   0.942   0.249   2.323
  291SOL    HW1 1760   0.916   0.290   2.240
  291SOL    HW2 1761   1.038   0.254   2.322
  292SOL     OW 1762   1.079   0.683   3.320
  292SOL    HW1 1763   1.010   0.618   3.327
  292SOL    HW2 1764   1.160   0.632   3.315
  293SOL     OW 1765   1.222   1.570   2.656
  293SOL    HW1 1766   1.236   1.637   2.589
  293SOL    HW2 1767   1.291   1.585   2.720
  294SOL     OW 1768   0.466   1.151   2.597
  294SOL    HW1 1769   0.395   1.126   2.656
  294SOL    HW2 1770   0.432   1.135   2.510
  295SOL     OW 1771   1.263   1.791   2.473
  295SOL    HW1 1772   1.311   1.852   2.418
  295SOL    HW2 1773   1.197   1.845   2.517
  296SOL     OW 1774   1.022   0.543   1.891
  296SOL    HW1 1775   0.979   0.626   1.871
  296SOL    HW2 1776   1.086   0.564   1.959
  297SOL     OW 1777   0.081   0.573   3.255
  297SOL    HW1 1778   0.170   0.555   3.225
  297SOL    HW2 1779   0.090   0.645   3.318
  298SOL     OW 1780   0.572   0.231   3.021
  298SOL    HW1 1781   0.594   0.138   3.030
  298SOL    HW2 1782   0.481   0.237   3.051
  299SOL     OW 1783   0.871   0.461   2.500
  299SOL    HW1 1784   0.820   0.514   2.439
  299SOL    HW2 1785   0.891   0.381   2.453
  300SOL     OW 1786   0.996   0.039   2.643
  300SOL    HW1 1787   0.960   0.069   2.559
  300SOL    HW2 1788   1.007   3.945   2.632
  301SOL     OW 1789   1.439   1.163   2.720
  301SOL    HW1 1790   1.369   1.098   2.717
  301SOL    HW2 1791   1.467   1.173   2.629
  302SOL     OW 1792   1.465   0.607   2.836
  302SOL    HW1 1793   1.411   0.528   2.841
  302SOL    HW2 1794   1.524   0.600   2.911
  303SOL     OW 1795   1.844   0.818   2.249
  303SOL    HW1 1796   1.901   0.766   2.306
  303SOL    HW2 1797   1.815   0.757   2.181
  304SOL     OW 1798   0.487   1.421   2.021
  304SOL    HW1 1799   0.412   1.390   2.071
  304SOL    HW2 1800   0.472   1.388   1.933
  305SOL     OW 1801   1.671   1.260   2.510
  305SOL    HW1 1802   1.766   1.260   2.522
  305SOL    HW2 1803   1.645   1.350   2.532
  306SOL     OW 1804   1.395   0.576   1.931
  306SOL    HW1 1805   1.332   0.556   2.000
  306SOL    HW2 1806   1.480   0.557   1.970
  307SOL     OW 1807   0.557   0.271   2.180
  307SOL    HW1 1808   0.605   0.231   2.107
  307SOL    HW2 1809   0.528   0.355   2.146
  308SOL     OW 1810   1.749   1.233   3.434
  308SOL    HW1 1811   1.836   1.193   3.429
  308SOL    HW2 1812   1.766   1.324   3.459
  309SOL     OW 1813   1.056   1.354   3.196
  309SOL    HW1 1814   0.981   1.322   3.246
  309SOL    HW2 1815   1.131   1.311   3.237
  310SOL     OW 1816   1.607   1.614   3.526
  310SOL    HW1 1817   1.589   1.646   3.437
  310SOL    HW2 1818   1.688   1.564   3.518
  311SOL     OW 1819   1.132   1.207   2.966
  311SOL    HW1 1820   1.071   1.243   3.030
  311SOL    HW2 1821   1.100   1.239   2.882
  312SOL     OW 1822   1.625   1.096   2.937
  312SOL    HW1 1823   1.618   1.158   3.010
  312SOL    HW2 1824   1.548   1.115   2.883
  313SOL     OW 1825   0.913   0.115   3.263
  313SOL    HW1 1826   0.932   0.088   3.173
  313SOL    HW2 1827   0.993   0.157   3.294
  314SOL     OW 1828   0.984   1.115   3.585
  314SOL    HW1 1829   0.893   1.131   3.608
  314SOL    HW2 1830   0.982   1.037   3.530
  315SOL     OW 1831   0.708   1.062   2.232
  315SOL    HW1 1832   0.694   1.045   2.326
  315SOL    HW2 1833   0.784   1.008   2.209
  316SOL     OW 1834   0.422   0.817   3.115
  316SOL    HW1 1835   0.491   0.823   3.181
  316SOL    HW2 1836   0.388   0.728   3.124
  317SOL     OW 1837   1.266   0.375   3.139
  317SOL    HW1 1838   1.300   0.453   3.183
  317SOL    HW2 1839   1.178   0.400   3.109
  318SOL     OW 1840   0.065   1.580   3.208
  318SOL    HW1 1841   0.071   1.635   3.130
  318SOL    HW2 1842   0.156   1.567   3.235
  319SOL     OW 1843   0.371   1.103   2.344
  319SOL    HW1 1844   0.365   1.182   2.290
  319SOL    HW2 1845   0.370   1.031   2.282
  320SOL     OW 1846   0.554   0.534   2.720
  320SOL    HW1 1847   0.568   0.593   2.646
  320SOL    HW2 1848   0.620   0.561   2.784
  321SOL     OW 1849   1.241   1.341   2.249
  321SOL    HW1 1850   1.296   1.414   2.279
  321SOL    HW2 1851   1.154   1.361   2.283
  322SOL     OW 1852   1.280   1.460   3.008
  322SOL    HW1 1853   1.336   1.461   3.086
  322SOL    HW2 1854   1.226   1.382   3.019
  323SOL     OW 1855   1.575   0.634   2.348
  323SOL    HW1 1856   1.532   0.690   2.414
  323SOL    HW2 1857   1.623   0.695   2.293
  324SOL     OW 1858   0.345   1.527   3.180
  324SOL    HW1 1859   0.335   1.476   3.100
  324SOL    HW2 1860   0.440   1.542   3.188
  325SOL     OW 1861   0.417   0.737   3.463
  325SOL    HW1 1862   0.480   0.783   3.406
  325SOL    HW2 1863   0.455   0.650   3.476
  326SOL     OW 1864   1.604   0.780   3.547
  326SOL    HW1 1865   1.518   0.822   3.540
  326SOL    HW2 1866   1.656   0.821   3.478
  327SOL     OW 1867   1.011   0.134   3.641
  327SOL    HW1 1868   1.064   0.205   3.606
  327SOL    HW2 1869   1.001   0.073   3.567
  328SOL     OW 1870   0.483   0.037   3.627
  328SOL    HW1 1871   0.490   0.047   3.532
  328SOL    HW2 1872   0.421   0.105   3.653
  329SOL     OW 1873   0.585   0.875   2.893
  329SOL    HW1 1874   0.617   0.965   2.896
  329SOL    HW2 1875   0.529   0.867   2.971
  330SOL     OW 1876   1.353   0.858   2.889
  330SOL    HW1 1877   1.269   0.846   2.845
  330SOL    HW2 1878   1.397   0.773   2.881
  331SOL     OW 1879   1.200   0.537   2.120
  331SOL    HW1 1880   1.209   0.458   2.173
  331SOL    HW2 1881   1.157   0.600   2.178
  332SOL     OW 1882   0.311   0.212   3.102
  332SOL    HW1 1883   0.268   0.248   3.180
  332SOL    HW2 1884   0.296   0.118   3.108
  333SOL     OW 1885   0.062   1.306   3.142
  333SOL    HW1 1886   0.091   1.264   3.223
  333SOL    HW2 1887   0.052   1.398   3.165
  334SOL     OW 1888   0.724   0.634   2.915
  334SOL    HW1 1889   0.799   0.619   2.857
  334SOL    HW2 1890   0.695   0.722   2.894
  335SOL     OW 1891   1.737   0.960   3.716
  335SOL    HW1 1892   1.691   0.895   3.662
  335SOL    HW2 1893   1.678   0.975   3.790
  336SOL     OW 1894   0.330   0.055   2.517
  336SOL    HW1 1895   0.301   0.146   2.517
  336SOL    HW2 1896   0.293   0.017   2.597
  337SOL     OW 1897   1.607   0.392   2.242
  337SOL    HW1 1898   1.567   0.324   2.297
  337SOL    HW2 1899   1.587   0.474   2.288
  338SOL     OW 1900   1.030   0.759   2.821
  338SOL    HW1 1901   1.023   0.776   2.915
  338SOL    HW2 1902   1.002   0.668   2.811
  339SOL     OW 1903   0.982   1.567   3.581
  339SOL    HW1 1904   0.966   1.610   3.497
  339SOL    HW2 1905   1.024   1.484   3.558
  340SOL     OW 1906   1.852   1.490   3.467
  340SOL    HW1 1907   1.882   1.521   3.382
  340SOL    HW2 1908   1.925   1.508   3.526
  341SOL     OW 1909   0.353   0.922   3.660
  341SOL    HW1 1910   0.431   0.942   3.713
  341SOL    HW2 1911   0.382   0.854   3.599
  342SOL     OW 1912   1.504   0.275   1.997
  342SOL    HW1 1913   1.431   0.215   2.009
  342SOL    HW2 1914   1.518   0.314   2.083
  343SOL     OW 1915   1.288   0.827   1.891
  343SOL    HW1 1916   1.331   0.741   1.894
  343SOL    HW2 1917   1.320   0.866   1.809
  344SOL     OW 1918   1.066   1.337   2.717
  344SOL    HW1 1919   1.070   1.265   2.655
  344SOL    HW2 1920   1.127   1.403   2.682
  345SOL     OW 1921   0.313   0.803   2.812
  345SOL    HW1 1922   0.407   0.819   2.806
  345SOL    HW2 1923   0.306   0.713   2.844
  346SOL     OW 1924   0.338   0.528   2.877
  346SOL    HW1 1925   0.297   0.444   2.859
  346SOL    HW2 1926   0.413   0.532   2.818
  347SOL     OW 1927   1.133   0.380   3.559
  347SOL    HW1 1928   1.085   0.435   3.621
  347SOL    HW2 1929   1.220   0.420   3.554
  348SOL     OW 1930   1.151   0.225   3.344
  348SOL    HW1 1931   1.142   0.280   3.422
  348SOL    HW2 1932   1.176   0.287   3.275
  349SOL     OW 1933   0.000   1.317   2.044
  349SOL    HW1 1934   3.906   1.333   2.048
  349SOL    HW2 1935   0.009   1.223   2.063
  350SOL     OW 1936   0.078   1.800   2.750
  350SOL    HW1 1937   0.083   1.704   2.754
  350SOL    HW2 1938   0.169   1.829   2.754
  351SOL     OW 1939   0.500   1.571   2.772
  351SOL    HW1 1940   0.570   1.632   2.798
  351SOL    HW2 1941   0.543   1.508   2.715
  352SOL     OW 1942   0.978   0.789   3.086
  352SOL    HW1 1943   1.034   0.769   3.161
  352SOL    HW2 1944   0.893   0.751   3.109
  353SOL     OW 1945   0.035   0.574   2.974
  353SOL    HW1 1946   0.097   0.522   2.924
  353SOL    HW2 1947   0.061   0.560   3.065
  354SOL     OW 1948   0.211   0.516   3.584
  354SOL    HW1 1949   0.257   0.477   3.510
  354SOL    HW2 1950   0.164   0.591   3.546
  355SOL     OW 1951   1.379   0.936   3.519
  355SOL    HW1 1952   1.400   1.030   3.516
  355SOL    HW2 1953   1.375   0.910   3.427
  356SOL     OW 1954   0.818   0.572   2.224
  356SOL    HW1 1955   0.824   0.496   2.167
  356SOL    HW2 1956   0.743   0.621   2.191
  357SOL     OW 1957   1.640   0.602   3.045
  357SOL    HW1 1958   1.631   0.542   3.119
  357SOL    HW2 1959   1.728   0.585   3.011
  358SOL     OW 1960   0.300   1.544   3.587
  358SOL    HW1 1961   0.252   1.613   3.632
  358SOL    HW2 1962   0.269   1.463   3.627
  359SOL     OW 1963   0.710   0.454   3.118
  359SOL    HW1 1964   0.660   0.376   3.093
  359SOL    HW2 1965   0.700   0.513   3.043
  360SOL     OW 1966   0.926   1.679   3.331
  360SOL    HW1 1967   0.900   1.642   3.247
  360SOL    HW2 1968   0.919   1.774   3.318
  361SOL     OW 1969   0.454   0.492   2.059
  361SOL    HW1 1970   0.518   0.561   2.077
  361SOL    HW2 1971   0.374   0.539   2.035
  362SOL     OW 1972   0.156   1.135   3.336
  362SOL    HW1 1973   0.157   1.084   3.418
  362SOL    HW2 1974   0.171   1.070   3.268
  363SOL     OW 1975   1.323   1.045   3.084
  363SOL    HW1 1976   1.346   0.982   3.016
  363SOL    HW2 1977   1.255   1.100   3.044
  364SOL     OW 1978   1.314   0.856   2.167
  364SOL    HW1 1979   1.239   0.827   2.219
  364SOL    HW2 1980   1.287   0.843   2.076
  365SOL     OW 1981   1.244   1.735   2.971
  365SOL    HW1 1982   1.328   1.756   2.929
  365SOL    HW2 1983   1.249   1.642   2.990
  366SOL     OW 1984   0.077   1.217   2.889
  366SOL    HW1 1985   0.084   1.243   2.981
  366SOL    HW2 1986   3.985   1.227   2.868
  367SOL     OW 1987   0.680   1.668   3.596
  367SOL    HW1 1988   0.621   1.743   3.588
  367SOL    HW2 1989   0.746   1.682   3.529
  368SOL     OW 1990   1.714   0.124   2.350
  368SOL    HW1 1991   1.792   0.134   2.296
  368SOL    HW2 1992   1.705   0.030   2.362
  369SOL     OW 1993   1.369   1.560   2.339
  369SOL    HW1 1994   1.429   1.591   2.271
  369SOL    HW2 1995   1.332   1.640   2.377
  370SOL     OW 1996   0.175   1.763   3.692
  370SOL    HW1 1997   0.118   1.712   3.750
  370SOL    HW2 1998   0.216   1.828   3.749
  371SOL     OW 1999   1.277   0.928   2.533
  371SOL    HW1 2000   1.351   0.868   2.544
  371SOL    HW2 2001   1.312   0.999   2.480
  372SOL     OW 2002   0.810   1.274   3.290
  372SOL    HW1 2003   0.781   1.315   3.371
  372SOL    HW2 2004   0.739   1.291   3.228
  373SOL     OW 2005   0.670   1.622   2.017
  373SOL    HW1 2006   0.681   1.634   1.923
  373SOL    HW2 2007   0.615   1.545   2.025
  374SOL     OW 2008   1.581   1.712   3.271
  374SOL    HW1 2009   1.640   1.704   3.196
  374SOL    HW2 2010   1.568   1.807   3.281
  375SOL     OW 2011   1.839   0.178   2.828
  375SOL    HW1 2012   1.872   0.111   2.768
  375SOL    HW2 2013   1.751   0.197   2.797
  376SOL     OW 2014   0.275   0.322   2.576
  376SOL    HW1 2015   0.189   0.357   2.550
  376SOL    HW2 2016   0.266   0.306   2.670
  377SOL     OW 2017   1.204   1.603   1.893
  377SOL    HW1 2018   1.194   1.512   1.920
  377SOL    HW2 2019   1.138   1.615   1.825
  378SOL     OW 2020   0.823   1.005   3.235
  378SOL    HW1 2021   0.867   1.000   3.150
  378SOL    HW2 2022   0.822   1.099   3.256
  379SOL     OW 2023   0.915   0.910   2.152
  379SOL    HW1 2024   0.977   0.943   2.086
  379SOL    HW2 2025   0.964   0.842   2.198
  380SOL     OW 2026   1.480   1.622   1.900
  380SOL    HW1 2027   1.386   1.617   1.882
  380SOL    HW2 2028   1.520   1.626   1.813
  381SOL     OW 2029   0.374   1.303   3.353
  381SOL    HW1 2030   0.358   1.383   3.303
  381SOL    HW2 2031   0.297   1.248   3.336
  382SOL     OW 2032   1.610   1.279   3.140
  382SOL    HW1 2033   1.674   1.273   3.211
  382SOL    HW2 2034   1.547   1.344   3.171
  383SOL     OW 2035   1.056   1.109   2.570
  383SOL    HW1 2036   0.984   1.058   2.608
  383SOL    HW2 2037   1.120   1.043   2.541
  384SOL     OW 2038   1.014   0.249   2.832
  384SOL    HW1 2039   1.005   0.199   2.751
  384SOL    HW2 2040   1.010   0.184   2.901
  385SOL     OW 2041   0.606   1.488   2.344
  385SOL    HW1 2042   0.652   1.439   2.276
  385SOL    HW2 2043   0.531   1.527   2.298
  386SOL     OW 2044   1.720   0.394   3.234
  386SOL    HW1 2045   1.793   0.456   3.238
  386SOL    HW2 2046   1.754   0.322   3.180
  387SOL     OW 2047   0.254   1.341   2.155
  387SOL    HW1 2048   0.160   1.348   2.136
  387SOL    HW2 2049   0.264   1.380   2.242
  388SOL     OW 2050   0.107   0.999   3.580
  388SOL    HW1 2051   0.048   0.992   3.654
  388SOL    HW2 2052   0.194   0.980   3.616
  389SOL     OW 2053   0.694   0.253   3.363
  389SOL    HW1 2054   0.762   0.200   3.322
  389SOL    HW2 2055   0.723   0.262   3.454
  390SOL     OW 2056   0.088   0.321   1.889
  390SOL    HW1 2057   3.993   0.319   1.881
  390SOL    HW2 2058   0.113   0.404   1.847
  391SOL     OW 2059   1.427   0.857   3.260
  391SOL    HW1 2060   1.378   0.919   3.206
  391SOL    HW2 2061   1.516   0.859   3.225
  392SOL     OW 2062   0.037   0.169   2.146
  392SOL    HW1 2063   0.036   0.231   2.074
  392SOL    HW2 2064   0.113   0.193   2.199
  393SOL     OW 2065   1.177   1.338   1.979
  393SOL    HW1 2066   1.087   1.306   1.980
  393SOL    HW2 2067   1.204   1.336   2.070
  394SOL     OW 2068   0.621   0.829   3.299
  394SOL    HW1 2069   0.677   0.904   3.283
  394SOL    HW2 2070   0.681   0.755   3.307
  395SOL     OW 2071   1.492   1.783   2.845
  395SOL    HW1 2072   1.512   1.853   2.783
  395SOL    HW2 2073   1.576   1.739   2.860
  396SOL     OW 2074   0.717   0.562   3.569
  396SOL    HW1 2075   0.762   0.624   3.627
  396SOL    HW2 2076   0.744   0.476   3.601
  397SOL     OW 2077   1.472   1.198   3.493
  397SOL    HW1 2078   1.460   1.211   3.587
  397SOL    HW2 2079   1.565   1.212   3.478
  398SOL     OW 2080   0.378   1.743   3.419
  398SOL    HW1 2081   0.291   1.781   3.406
  398SOL    HW2 2082   0.362   1.661   3.465
  399SOL     OW 2083   1.667   0.881   3.117
  399SOL    HW1 2084   1.662   0.795   3.074
  399SOL    HW2 2085   1.657   0.944   3.046
  400SOL     OW 2086   1.223   0.336   2.304
  400SOL    HW1 2087   1.291   0.269   2.297
  400SOL    HW2 2088   1.242   0.381   2.387
  401SOL     OW 2089   0.590   0.738   2.533
  401SOL    HW1 2090   0.628   0.824   2.517
  401SOL    HW2 2091   0.523   0.728   2.466
  402SOL     OW 2092   1.751   0.383   3.505
  402SOL    HW1 2093   1.733   0.389   3.411
  402SOL    HW2 2094   1.694   0.313   3.536
  403SOL     OW 2095   1.745   0.933   3.374
  403SOL    HW1 2096   1.736   1.028   3.387
  403SOL    HW2 2097   1.729   0.920   3.280
  404SOL     OW 2098   0.863   1.366   1.900
  404SOL    HW1 2099   0.825   1.393   1.984
  404SOL    HW2 2100   0.879   1.448   1.853
  405SOL     OW 2101   0.663   1.788   2.804
  405SOL    HW1 2102   0.643   1.879   2.782
  405SOL    HW2 2103   0.758   1.782   2.797
  406SOL     OW 2104   0.869   0.968   2.715
  406SOL    HW1 2105   0.919   0.896   2.754
  406SOL    HW2 2106   0.832   1.015   2.790
  407SOL     OW 2107   1.078   0.989   1.951
  407SOL    HW1 2108   1.056   1.040   1.873
  407SOL    HW2 2109   1.152   0.935   1.924
  408SOL     OW 2110   1.858   1.521   2.697
  408SOL    HW1 2111   1.775   1.553   2.661
  408SOL    HW2 2112   1.844   1.519   2.791
  409SOL     OW 2113   0.226   1.304   3.718
  409SOL    HW1 2114   0.154   1.247   3.691
  409SOL    HW2 2115   0.213   1.317   3.812
  410SOL     OW 2116   0.122   1.280   2.583
  410SOL    HW1 2117   0.134   1.229   2.663
  410SOL    HW2 2118   0.106   1.215   2.515
  411SOL     OW 2119   0.682   1.405   3.491
  411SOL    HW1 2120   0.602   1.362   3.522
  411SOL    HW2 2121   0.677   1.493   3.529
  412SOL     OW 2122   1.811   0.183   3.100
  412SOL    HW1 2123   1.814   0.089   3.116
  412SOL    HW2 2124   1.826   0.193   3.006
  413SOL     OW 2125   0.444   0.438   2.393
  413SOL    HW1 2126   0.461   0.362   2.337
  413SOL    HW2 2127   0.389   0.404   2.463
  414SOL     OW 2128   1.700   1.500   2.962
  414SOL    HW1 2129   1.621   1.473   2.914
  414SOL    HW2 2130   1.715   1.430   3.025
  415SOL     OW 2131   0.333   0.557   3.155
  415SOL    HW1 2132   0.389   0.501   3.208
  415SOL    HW2 2133   0.348   0.528   3.065
  416SOL     OW 2134   0.828   1.579   2.539
  416SOL    HW1 2135   0.813   1.640   2.466
  416SOL    HW2 2136   0.753   1.520   2.537
  417SOL     OW 2137   1.461   0.254   2.972
  417SOL    HW1 2138   1.478   0.167   3.009
  417SOL    HW2 2139   1.405   0.297   3.038
  418SOL     OW 2140   1.003   0.028   3.008
  418SOL    HW1 2141   0.923   3.991   2.972
  418SOL    HW2 2142   1.063   3.953   3.017
  419SOL     OW 2143   0.773   1.333   2.179
  419SOL    HW1 2144   0.744   1.242   2.186
  419SOL    HW2 2145   0.854   1.337   2.230
  420SOL     OW 2146   0.620   1.557   3.148
  420SOL    HW1 2147   0.622   1.639   3.197
  420SOL    HW2 2148   0.708   1.549   3.111
  421SOL     OW 2149   1.311   0.074   2.027
  421SOL    HW1 2150   1.323   3.994   1.975
  421SOL    HW2 2151   1.225   0.062   2.069
  422SOL     OW 2152   1.281   0.457   2.547
  422SOL    HW1 2153   1.235   0.540   2.542
  422SOL    HW2 2154   1.284   0.437   2.641
  423SOL     OW 2155   1.588   0.210   2.730
  423SOL    HW1 2156   1.539   0.234   2.808
  423SOL    HW2 2157   1.588   0.289   2.676
  424SOL     OW 2158   0.047   1.048   2.103
  424SOL    HW1 2159   0.141   1.032   2.094
  424SOL    HW2 2160   0.011   0.965   2.132
  425SOL     OW 2161   0.887   1.656   2.202
  425SOL    HW1 2162   0.813   1.640   2.143
  425SOL    HW2 2163   0.859   1.730   2.256
  426SOL     OW 2164   0.232   0.628   3.841
  426SOL    HW1 2165   0.139   0.632   3.863
  426SOL    HW2 2166   0.235   0.598   3.750
  427SOL     OW 2167   0.224   0.289   4.707
  427SOL    HW1 2168   0.246   0.250   4.791
  427SOL    HW2 2169   0.129   0.278   4.700
  428SOL     OW 2170   0.019   0.385   4.360
  428SOL    HW1 2171   3.928   0.399   4.388
  428SOL    HW2 2172   0.025   0.290   4.345
  429SOL     OW 2173   0.581   1.289   4.915
  429SOL    HW1 2174   0.494   1.291   4.874
  429SOL    HW2 2175   0.594   1.378   4.947
  430SOL     OW 2176   1.548   1.502   4.432
  430SOL    HW1 2177   1.518   1.481   4.521
  430SOL    HW2 2178   1.469   1.498   4.378
  431SOL     OW 2179   1.133   0.698   4.421
  431SOL    HW1 2180   1.180   0.780   4.409
  431SOL    HW2 2181   1.085   0.710   4.503
  432SOL     OW 2182   1.767   0.619   3.949
  432SOL    HW1 2183   1.745   0.611   3.856
  432SOL    HW2 2184   1.752   0.531   3.984
  433SOL     OW 2185   0.753   1.139   4.766
  433SOL    HW1 2186   0.690   1.175   4.828
  433SOL    HW2 2187   0.789   1.216   4.721
  434SOL     OW 2188   0.871   0.770   5.548
  434SOL    HW1 2189   0.860   0.842   5.610
  434SOL    HW2 2190   0.893   0.814   5.465
  435SOL     OW 2191   0.685   1.002   4.370
  435SOL    HW1 2192   0.751   0.991   4.438
  435SOL    HW2 2193   0.616   1.054   4.411
  436SOL     OW 2194   0.712   1.149   5.541
  436SOL    HW1 2195   0.760   1.227   5.569
  436SOL    HW2 2196   0.631   1.183   5.503
  437SOL     OW 2197   0.351   1.401   4.803
  437SOL    HW1 2198   0.270   1.380   4.756
  437SOL    HW2 2199   0.399   1.459   4.743
  438SOL     OW 2200   1.449   1.485   5.082
  438SOL    HW1 2201   1.495   1.568   5.090
  438SOL    HW2 2202   1.383   1.488   5.151
  439SOL     OW 2203   0.457   0.408   5.220
  439SOL    HW1 2204   0.539   0.358   5.218
  439SOL    HW2 2205   0.388   0.341   5.222
  440SOL     OW 2206   1.612   0.451   4.459
  440SOL    HW1 2207   1.542   0.483   4.402
  440SOL    HW2 2208   1.630   0.524   4.518
  441SOL     OW 2209   0.220   1.719   4.181
  441SOL    HW1 2210   0.240   1.793   4.239
  441SOL    HW2 2211   0.297   1.711   4.125
  442SOL     OW 2212   1.137   1.342   5.417
  442SOL    HW1 2213   1.179   1.336   5.503
  442SOL    HW2 2214   1.085   1.262   5.410
  443SOL     OW 2215   0.250   1.450   4.264
  443SOL    HW1 2216   0.215   1.538   4.249
  443SOL    HW2 2217   0.183   1.406   4.315
  444SOL     OW 2218   0.248   1.066   4.608
  444SOL    HW1 2219   0.267   0.981   4.648
  444SOL    HW2 2220   0.195   1.111   4.674
  445SOL     OW 2221   0.610   1.793   5.150
  445SOL    HW1 2222   0.528   1.775   5.196
  445SOL    HW2 2223   0.633   1.882   5.177
  446SOL     OW 2224   0.577   0.986   3.863
  446SOL    HW1 2225   0.625   1.030   3.793
  446SOL    HW2 2226   0.618   1.016   3.944
  447SOL     OW 2227   1.581   0.140   5.180
  447SOL    HW1 2228   1.611   0.213   5.125
  447SOL    HW2 2229   1.548   0.182   5.259
  448SOL     OW 2230   0.141   0.652   4.293
  448SOL    HW1 2231   0.098   0.566   4.298
  448SOL    HW2 2232   0.102   0.702   4.366
  449SOL     OW 2233   0.044   1.589   3.862
  449SOL    HW1 2234   0.037   1.497   3.888
  449SOL    HW2 2235   3.961   1.628   3.889
  450SOL     OW 2236   1.685   0.914   4.364
  450SOL    HW1 2237   1.772   0.877   4.348
  450SOL    HW2 2238   1.667   0.968   4.287
  451SOL     OW 2239   1.649   1.106   4.153
  451SOL    HW1 2240   1.735   1.108   4.113
  451SOL    HW2 2241   1.655   1.167   4.227
  452SOL     OW 2242   0.141   0.756   5.313
  452SOL    HW1 2243   0.236   0.751   5.308
  452SOL    HW2 2244   0.123   0.844   5.345
  453SOL     OW 2245   0.613   1.387   4.460
  453SOL    HW1 2246   0.567   1.303   4.469
  453SOL    HW2 2247   0.598   1.413   4.369
  454SOL     OW 2248   1.284   1.234   5.148
  454SOL    HW1 2249   1.317   1.168   5.087
  454SOL    HW2 2250   1.345   1.230   5.222
  455SOL     OW 2251   0.820   0.004   4.240
  455SOL    HW1 2252   0.865   0.084   4.216
  455SOL    HW2 2253   0.727   0.027   4.240
  456SOL     OW 2254   0.184   0.950   5.002
  456SOL    HW1 2255   0.272   0.915   4.990
  456SOL    HW2 2256   0.132   0.908   4.934
  457SOL     OW 2257   1.532   0.996   3.924
  457SOL    HW1 2258   1.462   0.939   3.958
  457SOL    HW2 2259   1.574   1.030   4.003
  458SOL     OW 2260   1.183   1.808   5.346
  458SOL    HW1 2261   1.194   1.868   5.272
  458SOL    HW2 2262   1.201   1.722   5.310
  459SOL     OW 2263   0.345   0.251   5.564
  459SOL    HW1 2264   0.388   0.334   5.545
  459SOL    HW2 2265   0.254   0.274   5.582
  460SOL     OW 2266   1.467   1.420   4.679
  460SOL    HW1 2267   1.398   1.435   4.744
  460SOL    HW2 2268   1.455   1.328   4.653
  461SOL     OW 2269   1.593   1.714   4.269
  461SOL    HW1 2270   1.592   1.669   4.184
  461SOL    HW2 2271   1.592   1.643   4.333
  462SOL     OW 2272   0.596   0.717   3.990
  462SOL    HW1 2273   0.601   0.801   3.945
  462SOL    HW2 2274   0.533   0.731   4.061
  463SOL     OW 2275   1.274   0.369   4.665
  463SOL    HW1 2276   1.187   0.330   4.672
  463SOL    HW2 2277   1.332   0.307   4.711
  464SOL     OW 2278   1.567   1.645   4.012
  464SOL    HW1 2279   1.644   1.699   3.993
  464SOL    HW2 2280   1.528   1.628   3.926
  465SOL     OW 2281   0.794   0.616   5.177
  465SOL    HW1 2282   0.765   0.590   5.265
  465SOL    HW2 2283   0.756   0.550   5.119
  466SOL     OW 2284   1.392   0.476   5.401
  466SOL    HW1 2285   1.398   0.521   5.485
  466SOL    HW2 2286   1.450   0.400   5.410
  467SOL     OW 2287   0.952   0.887   5.308
  467SOL    HW1 2288   1.007   0.818   5.271
  467SOL    HW2 2289   0.904   0.922   5.234
  468SOL     OW 2290   0.992   0.403   4.962
  468SOL    HW1 2291   0.907   0.423   5.000
  468SOL    HW2 2292   0.972   0.374   4.873
  469SOL     OW 2293   1.052   0.700   4.149
  469SOL    HW1 2294   1.069   0.693   4.243
  469SOL    HW2 2295   0.970   0.653   4.136
  470SOL     OW 2296   0.081   0.829   4.514
  470SOL    HW1 2297   0.154   0.795   4.567
  470SOL    HW2 2298   0.102   0.921   4.500
  471SOL     OW 2299   0.130   1.863   5.301
  471SOL    HW1 2300   0.138   1.828   5.390
  471SOL    HW2 2301   0.038   1.851   5.278
  472SOL     OW 2302   0.894   0.352   3.922
  472SOL    HW1 2303   0.936   0.412   3.860
  472SOL    HW2 2304   0.893   0.268   3.877
  473SOL     OW 2305   1.708   0.575   5.553
  473SOL    HW1 2306   1.670   0.648   5.504
  473SOL    HW2 2307   1.732   0.512   5.486
  474SOL     OW 2308   1.378   1.141   4.263
  474SOL    HW1 2309   1.459   1.132   4.213
  474SOL    HW2 2310   1.325   1.202   4.212
  475SOL     OW 2311   0.561   0.195   4.604
  475SOL    HW1 2312   0.566   0.219   4.697
  475SOL    HW2 2313   0.547   0.278   4.559
  476SOL     OW 2314   0.998   1.441   4.193
  476SOL    HW1 2315   0.967   1.517   4.144
  476SOL    HW2 2316   0.984   1.463   4.285
  477SOL     OW 2317   0.365   1.820   4.594
  477SOL    HW1 2318   0.428   1.748   4.603
  477SOL    HW2 2319   0.416   1.899   4.610
  478SOL     OW 2320   1.800   1.047   4.596
  478SOL    HW1 2321   1.746   1.042   4.517
  478SOL    HW2 2322   1.738   1.057   4.668
  479SOL     OW 2323   1.224   1.538   5.239
  479SOL    HW1 2324   1.211   1.466   5.300
  479SOL    HW2 2325   1.160   1.523   5.170
  480SOL     OW 2326   0.310   0.954   3.966
  480SOL    HW1 2327   0.394   0.976   3.925
  480SOL    HW2 2328   0.298   0.861   3.946
  481SOL     OW 2329   1.479   0.747   4.453
  481SOL    HW1 2330   1.475   0.706   4.540
  481SOL    HW2 2331   1.557   0.802   4.456
  482SOL     OW 2332   0.468   1.261   5.461
  482SOL    HW1 2333   0.442   1.269   5.370
  482SOL    HW2 2334   0.386   1.264   5.510
  483SOL     OW 2335   1.122   1.777   3.953
  483SOL    HW1 2336   1.048   1.737   3.999
  483SOL    HW2 2337   1.145   1.714   3.885
  484SOL     OW 2338   0.201   0.294   5.224
  484SOL    HW1 2339   0.107   0.314   5.223
  484SOL    HW2 2340   0.209   0.222   5.286
  485SOL     OW 2341   1.627   1.381   3.808
  485SOL    HW1 2342   1.581   1.464   3.792
  485SOL    HW2 2343   1.561   1.314   3.791
  486SOL     OW 2344   0.466   1.739   4.040
  486SOL    HW1 2345   0.509   1.795   4.104
  486SOL    HW2 2346   0.537   1.703   3.988
  487SOL     OW 2347   1.441   0.166   4.129
  487SOL    HW1 2348   1.394   0.099   4.080
  487SOL    HW2 2349   1.512   0.119   4.173
  488SOL     OW 2350   0.252   1.791   4.955
  488SOL    HW1 2351   0.298   1.725   5.008
  488SOL    HW2 2352   0.249   1.753   4.867
  489SOL     OW 2353   0.938   1.699   4.622
  489SOL    HW1 2354   1.017   1.649   4.642
  489SOL    HW2 2355   0.896   1.649   4.552
  490SOL     OW 2356   0.397   0.694   4.195
  490SOL    HW1 2357   0.423   0.603   4.210
  490SOL    HW2 2358   0.305   0.698   4.220
  491SOL     OW 2359   1.529   0.229   5.451
  491SOL    HW1 2360   1.525   0.254   5.543
  491SOL    HW2 2361   1.511   0.135   5.451
  492SOL     OW 2362   0.645   0.130   3.827
  492SOL    HW1 2363   0.668   0.046   3.867
  492SOL    HW2 2364   0.584   0.107   3.757
  493SOL     OW 2365   0.777   0.283   5.491
  493SOL    HW1 2366   0.850   0.223   5.493
  493SOL    HW2 2367   0.720   0.255   5.563
  494SOL     OW 2368   0.876   1.522   4.918
  494SOL    HW1 2369   0.860   1.485   4.831
  494SOL    HW2 2370   0.945   1.468   4.955
  495SOL     OW 2371   1.339   0.587   5.155
  495SOL    HW1 2372   1.370   0.559   5.240
  495SOL    HW2 2373   1.375   0.676   5.145
  496SOL     OW 2374   0.816   1.392   4.666
  496SOL    HW1 2375   0.901   1.381   4.624
  496SOL    HW2 2376   0.754   1.395   4.593
  497SOL     OW 2377   0.930   0.512   4.624
  497SOL    HW1 2378   0.906   0.504   4.532
  497SOL    HW2 2379   0.956   0.423   4.650
  498SOL     OW 2380   0.546   0.056   4.211
  498SOL    HW1 2381   0.473   0.063   4.272
  498SOL    HW2 2382   0.548   0.140   4.166
  499SOL     OW 2383   1.428   1.198   3.765
  499SOL    HW1 2384   1.458   1.123   3.816
  499SOL    HW2 2385   1.342   1.220   3.802
  500SOL     OW 2386   0.346   0.036   3.922
  500SOL    HW1 2387   0.360   0.086   3.842
  500SOL    HW2 2388   0.431   0.037   3.966
  501SOL     OW 2389   0.942   0.249   4.185
  501SOL    HW1 2390   0.916   0.290   4.102
  501SOL    HW2 2391   1.038   0.254   4.184
  502SOL     OW 2392   1.079   0.684   5.182
  502SOL    HW1 2393   1.010   0.618   5.189
  502SOL    HW2 2394   1.160   0.633   5.177
  503SOL     OW 2395   1.222   1.570   4.518
  503SOL    HW1 2396   1.236   1.637   4.451
  503SOL    HW2 2397   1.291   1.585   4.582
  504SOL     OW 2398   0.466   1.151   4.459
  504SOL    HW1 2399   0.395   1.126   4.518
  504SOL    HW2 2400   0.431   1.135   4.372
  505SOL     OW 2401   1.262   1.791   4.336
  505SOL    HW1 2402   1.312   1.851   4.280
  505SOL    HW2 2403   1.197   1.845   4.379
  506SOL     OW 2404   1.022   0.542   3.753
  506SOL    HW1 2405   0.979   0.626   3.733
  506SOL    HW2 2406   1.086   0.564   3.821
  507SOL     OW 2407   0.081   0.573   5.117
  507SOL    HW1 2408   0.170   0.555   5.087
  507SOL    HW2 2409   0.090   0.645   5.180
  508SOL     OW 2410   0.572   0.231   4.883
  508SOL    HW1 2411   0.594   0.138   4.892
  508SOL    HW2 2412   0.481   0.237   4.913
  509SOL     OW 2413   0.871   0.461   4.362
  509SOL    HW1 2414   0.820   0.514   4.301
  509SOL    HW2 2415   0.891   0.381   4.315
  510SOL     OW 2416   0.996   0.039   4.505
  510SOL    HW1 2417   0.960   0.069   4.421
  510SOL    HW2 2418   1.007   3.945   4.494
  511SOL     OW 2419   1.439   1.163   4.583
  511SOL    HW1 2420   1.369   1.098   4.579
  511SOL    HW2 2421   1.467   1.173   4.492
  512SOL     OW 2422   1.465   0.607   4.698
  512SOL    HW1 2423   1.410   0.528   4.703
  512SOL    HW2 2424   1.524   0.600   4.773
  513SOL     OW 2425   1.845   0.818   4.111
  513SOL    HW1 2426   1.901   0.766   4.168
  513SOL    HW2 2427   1.815   0.756   4.043
  514SOL     OW 2428   0.487   1.421   3.883
  514SOL    HW1 2429   0.412   1.390   3.933
  514SOL    HW2 2430   0.473   1.388   3.795
  515SOL     OW 2431   1.672   1.260   4.372
  515SOL    HW1 2432   1.767   1.260   4.384
  515SOL    HW2 2433   1.645   1.349   4.395
  516SOL     OW 2434   1.395   0.576   3.793
  516SOL    HW1 2435   1.332   0.556   3.862
  516SOL    HW2 2436   1.480   0.557   3.832
  517SOL     OW 2437   0.557   0.270   4.042
  517SOL    HW1 2438   0.605   0.231   3.969
  517SOL    HW2 2439   0.528   0.355   4.008
  518SOL     OW 2440   1.749   1.234   5.296
  518SOL    HW1 2441   1.836   1.195   5.293
  518SOL    HW2 2442   1.765   1.325   5.322
  519SOL     OW 2443   1.056   1.353   5.058
  519SOL    HW1 2444   0.981   1.322   5.108
  519SOL    HW2 2445   1.131   1.311   5.098
  520SOL     OW 2446   1.608   1.619   5.368
  520SOL    HW1 2447   1.596   1.648   5.278
  520SOL    HW2 2448   1.691   1.570   5.366
  521SOL     OW 2449   1.132   1.207   4.828
  521SOL    HW1 2450   1.071   1.243   4.892
  521SOL    HW2 2451   1.100   1.239   4.744
  522SOL     OW 2452   1.625   1.096   4.800
  522SOL    HW1 2453   1.619   1.158   4.872
  522SOL    HW2 2454   1.548   1.115   4.745
  523SOL     OW 2455   0.913   0.115   5.125
  523SOL    HW1 2456   0.932   0.089   5.035
  523SOL    HW2 2457   0.993   0.157   5.156
  524SOL     OW 2458   0.984   1.115   5.448
  524SOL    HW1 2459   0.892   1.131   5.470
  524SOL    HW2 2460   0.982   1.037   5.392
  525SOL     OW 2461   0.708   1.061   4.094
  525SOL    HW1 2462   0.694   1.044   4.188
  525SOL    HW2 2463   0.784   1.008   4.071
  526SOL     OW 2464   0.422   0.817   4.977
  526SOL    HW1 2465   0.491   0.823   5.043
  526SOL    HW2 2466   0.388   0.728   4.986
  527SOL     OW 2467   1.266   0.375   5.001
  527SOL    HW1 2468   1.300   0.453   5.045
  527SOL    HW2 2469   1.178   0.400   4.971
  528SOL     OW 2470   0.065   1.580   5.070
  528SOL    HW1 2471   0.071   1.635   4.992
  528SOL    HW2 2472   0.156   1.567   5.097
  529SOL     OW 2473   0.371   1.103   4.206
  529SOL    HW1 2474   0.365   1.182   4.152
  529SOL    HW2 2475   0.370   1.031   4.144
  530SOL     OW 2476   0.554   0.534   4.582
  530SOL    HW1 2477   0.568   0.593   4.508
  530SOL    HW2 2478   0.620   0.561   4.646
  531SOL     OW 2479   1.240   1.339   4.111
  531SOL    HW1 2480   1.294   1.413   4.140
  531SOL    HW2 2481   1.153   1.359   4.145
  532SOL     OW 2482   1.280   1.460   4.871
  532SOL    HW1 2483   1.337   1.461   4.948
  532SOL    HW2 2484   1.226   1.382   4.882
  533SOL     OW 2485   1.575   0.634   4.210
  533SOL    HW1 2486   1.533   0.690   4.276
  533SOL    HW2 2487   1.623   0.695   4.155
  534SOL     OW 2488   0.345   1.527   5.042
  534SOL    HW1 2489   0.335   1.477   4.962
  534SOL    HW2 2490   0.440   1.542   5.050
  535SOL     OW 2491   0.417   0.737   5.325
  535SOL    HW1 2492   0.480   0.783   5.268
  535SOL    HW2 2493   0.455   0.650   5.338
  536SOL     OW 2494   1.603   0.779   5.409
  536SOL    HW1 2495   1.517   0.821   5.402
  536SOL    HW2 2496   1.656   0.820   5.340
  537SOL     OW 2497   1.012   0.133   5.503
  537SOL    HW1 2498   1.064   0.205   5.468
  537SOL    HW2 2499   1.001   0.074   5.429
  538SOL     OW 2500   0.483   0.036   5.489
  538SOL    HW1 2501   0.490   0.047   5.394
  538SOL    HW2 2502   0.421   0.104   5.516
  539SOL     OW 2503   0.585   0.875   4.755
  539SOL    HW1 2504   0.617   0.965   4.758
  539SOL    HW2 2505   0.529   0.867   4.833
  540SOL     OW 2506   1.353   0.858   4.750
  540SOL    HW1 2507   1.269   0.846   4.707
  540SOL    HW2 2508   1.397   0.773   4.743
  541SOL     OW 2509   1.200   0.537   3.982
  541SOL    HW1 2510   1.209   0.458   4.035
  541SOL    HW2 2511   1.157   0.600   4.040
  542SOL     OW 2512   0.311   0.212   4.964
  542SOL    HW1 2513   0.268   0.249   5.041
  542SOL    HW2 2514   0.296   0.118   4.970
  543SOL     OW 2515   0.062   1.306   5.004
  543SOL    HW1 2516   0.091   1.264   5.085
  543SOL    HW2 2517   0.052   1.398   5.027
  544SOL     OW 2518   0.724   0.633   4.777
  544SOL    HW1 2519   0.799   0.619   4.719
  544SOL    HW2 2520   0.695   0.722   4.756
  545SOL     OW 2521   1.736   0.959   5.579
  545SOL    HW1 2522   1.691   0.896   5.523
  545SOL    HW2 2523   1.675   0.975   5.651
  546SOL     OW 2524   0.330   0.055   4.379
  546SOL    HW1 2525   0.301   0.146   4.379
  546SOL    HW2 2526   0.293   0.017   4.459
  547SOL     OW 2527   1.607   0.392   4.104
  547SOL    HW1 2528   1.567   0.324   4.159
  547SOL    HW2 2529   1.587   0.474   4.149
  548SOL     OW 2530   1.030   0.759   4.683
  548SOL    HW1 2531   1.023   0.776   4.777
  548SOL    HW2 2532   1.002   0.668   4.673
  549SOL     OW 2533   0.978   1.564   5.441
  549SOL    HW1 2534   0.965   1.609   5.358
  549SOL    HW2 2535   1.024   1.484   5.418
  550SOL     OW 2536   1.852   1.492   5.328
  550SOL    HW1 2537   1.891   1.522   5.246
  550SOL    HW2 2538   1.920   1.508   5.394
  551SOL     OW 2539   0.353   0.922   5.522
  551SOL    HW1 2540   0.431   0.942   5.574
  551SOL    HW2 2541   0.382   0.854   5.461
  552SOL     OW 2542   1.505   0.275   3.859
  552SOL    HW1 2543   1.431   0.215   3.871
  552SOL    HW2 2544   1.518   0.314   3.945
  553SOL     OW 2545   1.288   0.827   3.752
  553SOL    HW1 2546   1.331   0.741   3.756
  553SOL    HW2 2547   1.320   0.866   3.671
  554SOL     OW 2548   1.066   1.337   4.579
  554SOL    HW1 2549   1.071   1.265   4.517
  554SOL    HW2 2550   1.127   1.403   4.544
  555SOL     OW 2551   0.313   0.803   4.674
  555SOL    HW1 2552   0.407   0.819   4.668
  555SOL    HW2 2553   0.306   0.713   4.706
  556SOL     OW 2554   0.338   0.528   4.739
  556SOL    HW1 2555   0.297   0.444   4.721
  556SOL    HW2 2556   0.413   0.532   4.680
  557SOL     OW 2557   1.133   0.380   5.422
  557SOL    HW1 2558   1.085   0.435   5.483
  557SOL    HW2 2559   1.220   0.420   5.416
  558SOL     OW 2560   1.151   0.225   5.206
  558SOL    HW1 2561   1.142   0.280   5.284
  558SOL    HW2 2562   1.177   0.286   5.137
  559SOL     OW 2563   0.000   1.317   3.906
  559SOL    HW1 2564   3.906   1.333   3.910
  559SOL    HW2 2565   0.009   1.223   3.925
  560SOL     OW 2566   0.078   1.800   4.613
  560SOL    HW1 2567   0.083   1.704   4.616
  560SOL    HW2 2568   0.169   1.829   4.616
  561SOL     OW 2569   0.500   1.571   4.634
  561SOL    HW1 2570   0.570   1.632   4.660
  561SOL    HW2 2571   0.543   1.508   4.577
  562SOL     OW 2572   0.978   0.789   4.948
  562SOL    HW1 2573   1.035   0.769   5.023
  562SOL    HW2 2574   0.893   0.751   4.972
  563SOL     OW 2575   0.035   0.573   4.836
  563SOL    HW1 2576   0.097   0.522   4.786
  563SOL    HW2 2577   0.061   0.560   4.927
  564SOL     OW 2578   0.211   0.516   5.446
  564SOL    HW1 2579   0.258   0.477   5.372
  564SOL    HW2 2580   0.164   0.591   5.408
  565SOL     OW 2581   1.378   0.937   5.381
  565SOL    HW1 2582   1.400   1.030   5.378
  565SOL    HW2 2583   1.375   0.910   5.289
  566SOL     OW 2584   0.818   0.572   4.086
  566SOL    HW1 2585   0.824   0.496   4.029
  566SOL    HW2 2586   0.743   0.621   4.053
  567SOL     OW 2587   1.640   0.602   4.907
  567SOL    HW1 2588   1.631   0.542   4.981
  567SOL    HW2 2589   1.728   0.584   4.873
  568SOL     OW 2590   0.300   1.544   5.449
  568SOL    HW1 2591   0.252   1.613   5.494
  568SOL    HW2 2592   0.269   1.463   5.489
  569SOL     OW 2593   0.710   0.454   4.980
  569SOL    HW1 2594   0.660   0.376   4.955
  569SOL    HW2 2595   0.700   0.513   4.906
  570SOL     OW 2596   0.924   1.679   5.193
  570SOL    HW1 2597   0.900   1.642   5.108
  570SOL    HW2 2598   0.919   1.774   5.180
  571SOL     OW 2599   0.454   0.492   3.921
  571SOL    HW1 2600   0.518   0.561   3.938
  571SOL    HW2 2601   0.374   0.539   3.897
  572SOL     OW 2602   0.156   1.135   5.198
  572SOL    HW1 2603   0.157   1.084   5.280
  572SOL    HW2 2604   0.171   1.070   5.130
  573SOL     OW 2605   1.323   1.045   4.946
  573SOL    HW1 2606   1.346   0.982   4.878
  573SOL    HW2 2607   1.255   1.099   4.906
  574SOL     OW 2608   1.314   0.856   4.028
  574SOL    HW1 2609   1.239   0.827   4.080
  574SOL    HW2 2610   1.287   0.843   3.938
  575SOL     OW 2611   1.244   1.735   4.832
  575SOL    HW1 2612   1.327   1.756   4.791
  575SOL    HW2 2613   1.249   1.642   4.852
  576SOL     OW 2614   0.077   1.217   4.751
  576SOL    HW1 2615   0.084   1.243   4.843
  576SOL    HW2 2616   3.985   1.227   4.730
  577SOL     OW 2617   0.679   1.667   5.458
  577SOL    HW1 2618   0.621   1.743   5.448
  577SOL    HW2 2619   0.747   1.680   5.392
  578SOL     OW 2620   1.714   0.124   4.212
  578SOL    HW1 2621   1.792   0.134   4.158
  578SOL    HW2 2622   1.705   0.030   4.224
  579SOL     OW 2623   1.366   1.559   4.199
  579SOL    HW1 2624   1.427   1.590   4.133
  579SOL    HW2 2625   1.331   1.640   4.238
  580SOL     OW 2626   0.175   1.763   5.554
  580SOL    HW1 2627   0.118   1.712   5.611
  580SOL    HW2 2628   0.215   1.828   5.612
  581SOL     OW 2629   1.277   0.928   4.395
  581SOL    HW1 2630   1.351   0.868   4.406
  581SOL    HW2 2631   1.312   0.999   4.342
  582SOL     OW 2632   0.810   1.274   5.152
  582SOL    HW1 2633   0.781   1.315   5.234
  582SOL    HW2 2634   0.739   1.291   5.090
  583SOL     OW 2635   0.670   1.622   3.879
  583SOL    HW1 2636   0.681   1.635   3.785
  583SOL    HW2 2637   0.615   1.545   3.887
  584SOL     OW 2638   1.581   1.715   5.117
  584SOL    HW1 2639   1.644   1.708   5.046
  584SOL    HW2 2640   1.568   1.809   5.129
  585SOL     OW 2641   1.839   0.177   4.690
  585SOL    HW1 2642   1.872   0.111   4.629
  585SOL    HW2 2643   1.751   0.197   4.659
  586SOL     OW 2644   0.275   0.322   4.438
  586SOL    HW1 2645   0.189   0.357   4.412
  586SOL    HW2 2646   0.266   0.306   4.532
  587SOL     OW 2647   1.204   1.604   3.755
  587SOL    HW1 2648   1.195   1.512   3.782
  587SOL    HW2 2649   1.138   1.615   3.687
  588SOL     OW 2650   0.823   1.005   5.097
  588SOL    HW1 2651   0.867   1.000   5.012
  588SOL    HW2 2652   0.822   1.099   5.118
  589SOL     OW 2653   0.915   0.910   4.014
  589SOL    HW1 2654   0.976   0.943   3.948
  589SOL    HW2 2655   0.964   0.842   4.060
  590SOL     OW 2656   1.480   1.622   3.761
  590SOL    HW1 2657   1.386   1.617   3.744
  590SOL    HW2 2658   1.520   1.627   3.675
  591SOL     OW 2659   0.374   1.303   5.216
  591SOL    HW1 2660   0.359   1.383   5.165
  591SOL    HW2 2661   0.297   1.248   5.198
  592SOL     OW 2662   1.610   1.279   5.002
  592SOL    HW1 2663   1.674   1.272   5.074
  592SOL    HW2 2664   1.547   1.344   5.033
  593SOL     OW 2665   1.056   1.109   4.432
  593SOL    HW1 2666   0.984   1.058   4.470
  593SOL    HW2 2667   1.120   1.044   4.403
  594SOL     OW 2668   1.014   0.249   4.694
  594SOL    HW1 2669   1.005   0.199   4.613
  594SOL    HW2 2670   1.010   0.184   4.764
  595SOL     OW 2671   0.606   1.488   4.206
  595SOL    HW1 2672   0.652   1.438   4.138
  595SOL    HW2 2673   0.532   1.527   4.160
  596SOL     OW 2674   1.721   0.394   5.096
  596SOL    HW1 2675   1.793   0.456   5.101
  596SOL    HW2 2676   1.754   0.322   5.042
  597SOL     OW 2677   0.254   1.341   4.017
  597SOL    HW1 2678   0.160   1.348   3.998
  597SOL    HW2 2679   0.264   1.380   4.104
  598SOL     OW 2680   0.107   0.999   5.442
  598SOL    HW1 2681   0.048   0.992   5.516
  598SOL    HW2 2682   0.194   0.980   5.479
  599SOL     OW 2683   0.694   0.253   5.225
  599SOL    HW1 2684   0.762   0.199   5.184
  599SOL    HW2 2685   0.723   0.262   5.316
  600SOL     OW 2686   0.088   0.321   3.750
  600SOL    HW1 2687   3.993   0.319   3.743
  600SOL    HW2 2688   0.113   0.404   3.709
  601SOL     OW 2689   1.427   0.856   5.122
  601SOL    HW1 2690   1.378   0.919   5.067
  601SOL    HW2 2691   1.516   0.859   5.088
  602SOL     OW 2692   0.037   0.169   4.008
  602SOL    HW1 2693   0.036   0.231   3.936
  602SOL    HW2 2694   0.113   0.193   4.061
  603SOL     OW 2695   1.177   1.337   3.840
  603SOL    HW1 2696   1.087   1.306   3.842
  603SOL    HW2 2697   1.204   1.336   3.932
  604SOL     OW 2698   0.621   0.829   5.161
  604SOL    HW1 2699   0.677   0.904   5.145
  604SOL    HW2 2700   0.681   0.755   5.169
  605SOL     OW 2701   1.492   1.783   4.707
  605SOL    HW1 2702   1.513   1.853   4.645
  605SOL    HW2 2703   1.574   1.736   4.720
  606SOL     OW 2704   0.717   0.562   5.431
  606SOL    HW1 2705   0.762   0.624   5.488
  606SOL    HW2 2706   0.744   0.476   5.463
  607SOL     OW 2707   1.472   1.198   5.352
  607SOL    HW1 2708   1.459   1.211   5.446
  607SOL    HW2 2709   1.566   1.213   5.339
  608SOL     OW 2710   0.378   1.743   5.281
  608SOL    HW1 2711   0.291   1.781   5.269
  608SOL    HW2 2712   0.363   1.661   5.328
  609SOL     OW 2713   1.667   0.881   4.979
  609SOL    HW1 2714   1.662   0.796   4.935
  609SOL    HW2 2715   1.657   0.944   4.908
  610SOL     OW 2716   1.223   0.336   4.166
  610SOL    HW1 2717   1.291   0.269   4.159
  610SOL    HW2 2718   1.242   0.381   4.249
  611SOL     OW 2719   0.590   0.738   4.395
  611SOL    HW1 2720   0.628   0.824   4.379
  611SOL    HW2 2721   0.523   0.728   4.328
  612SOL     OW 2722   1.751   0.383   5.367
  612SOL    HW1 2723   1.733   0.389   5.273
  612SOL    HW2 2724   1.693   0.313   5.398
  613SOL     OW 2725   1.743   0.933   5.236
  613SOL    HW1 2726   1.737   1.028   5.249
  613SOL    HW2 2727   1.728   0.921   5.142
  614SOL     OW 2728   0.862   1.366   3.762
  614SOL    HW1 2729   0.825   1.393   3.845
  614SOL    HW2 2730   0.879   1.448   3.715
  615SOL     OW 2731   0.663   1.788   4.666
  615SOL    HW1 2732   0.643   1.879   4.644
  615SOL    HW2 2733   0.758   1.782   4.659
  616SOL     OW 2734   0.869   0.968   4.577
  616SOL    HW1 2735   0.919   0.896   4.616
  616SOL    HW2 2736   0.832   1.015   4.652
  617SOL     OW 2737   1.078   0.989   3.813
  617SOL    HW1 2738   1.056   1.040   3.735
  617SOL    HW2 2739   1.152   0.935   3.786
  618SOL     OW 2740   1.858   1.520   4.556
  618SOL    HW1 2741   1.776   1.558   4.523
  618SOL    HW2 2742   1.846   1.517   4.651
  619SOL     OW 2743   0.226   1.303   5.580
  619SOL    HW1 2744   0.153   1.247   5.553
  619SOL    HW2 2745   0.212   1.317   5.674
  620SOL     OW 2746   0.121   1.280   4.445
  620SOL    HW1 2747   0.135   1.229   4.525
  620SOL    HW2 2748   0.106   1.215   4.377
  621SOL     OW 2749   0.682   1.405   5.354
  621SOL    HW1 2750   0.601   1.362   5.384
  621SOL    HW2 2751   0.678   1.493   5.391
  622SOL     OW 2752   1.811   0.183   4.962
  622SOL    HW1 2753   1.814   0.089   4.977
  622SOL    HW2 2754   1.826   0.193   4.868
  623SOL     OW 2755   0.444   0.438   4.255
  623SOL    HW1 2756   0.461   0.362   4.199
  623SOL    HW2 2757   0.389   0.403   4.325
  624SOL     OW 2758   1.700   1.501   4.824
  624SOL    HW1 2759   1.622   1.473   4.776
  624SOL    HW2 2760   1.717   1.431   4.887
  625SOL     OW 2761   0.333   0.557   5.017
  625SOL    HW1 2762   0.389   0.501   5.070
  625SOL    HW2 2763   0.348   0.528   4.927
  626SOL     OW 2764   0.828   1.580   4.401
  626SOL    HW1 2765   0.813   1.639   4.328
  626SOL    HW2 2766   0.753   1.520   4.399
  627SOL     OW 2767   1.461   0.254   4.834
  627SOL    HW1 2768   1.479   0.167   4.871
  627SOL    HW2 2769   1.405   0.297   4.900
  628SOL     OW 2770   1.003   0.028   4.870
  628SOL    HW1 2771   0.923   3.990   4.834
  628SOL    HW2 2772   1.063   3.954   4.879
  629SOL     OW 2773   0.773   1.333   4.041
  629SOL    HW1 2774   0.744   1.242   4.048
  629SOL    HW2 2775   0.854   1.337   4.092
  630SOL     OW 2776   0.620   1.556   5.010
  630SOL    HW1 2777   0.622   1.639   5.059
  630SOL    HW2 2778   0.708   1.549   4.973
  631SOL     OW 2779   1.311   0.074   3.889
  631SOL    HW1 2780   1.323   3.994   3.837
  631SOL    HW2 2781   1.225   0.062   3.931
  632SOL     OW 2782   1.281   0.457   4.409
  632SOL    HW1 2783   1.235   0.540   4.404
  632SOL    HW2 2784   1.284   0.437   4.503
  633SOL     OW 2785   1.588   0.210   4.592
  633SOL    HW1 2786   1.539   0.234   4.670
  633SOL    HW2 2787   1.588   0.289   4.538
  634SOL     OW 2788   0.047   1.049   3.965
  634SOL    HW1 2789   0.141   1.032   3.956
  634SOL    HW2 2790   0.011   0.965   3.995
  635SOL     OW 2791   0.887   1.656   4.064
  635SOL    HW1 2792   0.813   1.640   4.006
  635SOL    HW2 2793   0.859   1.730   4.118
  636SOL     OW 2794   0.232   0.628   5.703
  636SOL    HW1 2795   0.139   0.632   5.725
  636SOL    HW2 2796   0.235   0.598   5.612
  637SOL     OW 2797   0.224   0.289   6.568
  637SOL    HW1 2798   0.246   0.250   6.653
  637SOL    HW2 2799   0.129   0.278   6.562
  638SOL     OW 2800   0.019   0.385   6.222
  638SOL    HW1 2801   3.928   0.398   6.250
  638SOL    HW2 2802   0.025   0.290   6.207
  639SOL     OW 2803   0.579   1.288   6.778
  639SOL    HW1 2804   0.493   1.291   6.737
  639SOL    HW2 2805   0.595   1.378   6.809
  640SOL     OW 2806   1.132   0.697   6.284
  640SOL    HW1 2807   1.179   0.779   6.268
  640SOL    HW2 2808   1.085   0.711   6.366
  641SOL     OW 2809   1.766   0.619   5.810
  641SOL    HW1 2810   1.745   0.612   5.717
  641SOL    HW2 2811   1.754   0.531   5.844
  642SOL     OW 2812   0.752   1.138   6.628
  642SOL    HW1 2813   0.689   1.172   6.692
  642SOL    HW2 2814   0.784   1.216   6.583
  643SOL     OW 2815   0.870   0.770   7.409
  643SOL    HW1 2816   0.863   0.842   7.472
  643SOL    HW2 2817   0.893   0.813   7.326
  644SOL     OW 2818   0.685   1.002   6.231
  644SOL    HW1 2819   0.751   0.991   6.300
  644SOL    HW2 2820   0.616   1.054   6.273
  645SOL     OW 2821   0.710   1.149   7.403
  645SOL    HW1 2822   0.759   1.226   7.431
  645SOL    HW2 2823   0.629   1.184   7.364
  646SOL     OW 2824   0.351   1.401   6.665
  646SOL    HW1 2825   0.270   1.381   6.618
  646SOL    HW2 2826   0.399   1.459   6.605
  647SOL     OW 2827   0.457   0.408   7.082
  647SOL    HW1 2828   0.539   0.358   7.081
  647SOL    HW2 2829   0.388   0.341   7.084
  648SOL     OW 2830   1.612   0.451   6.321
  648SOL    HW1 2831   1.543   0.482   6.263
  648SOL    HW2 2832   1.628   0.524   6.381
  649SOL     OW 2833   0.220   1.719   6.043
  649SOL    HW1 2834   0.240   1.793   6.101
  649SOL    HW2 2835   0.298   1.711   5.987
  650SOL     OW 2836   1.136   1.337   7.288
  650SOL    HW1 2837   1.181   1.325   7.372
  650SOL    HW2 2838   1.082   1.258   7.279
  651SOL     OW 2839   0.250   1.450   6.126
  651SOL    HW1 2840   0.215   1.538   6.112
  651SOL    HW2 2841   0.183   1.406   6.177
  652SOL     OW 2842   0.247   1.066   6.470
  652SOL    HW1 2843   0.267   0.981   6.509
  652SOL    HW2 2844   0.195   1.111   6.536
  653SOL     OW 2845   0.609   1.794   7.013
  653SOL    HW1 2846   0.527   1.773   7.058
  653SOL    HW2 2847   0.629   1.883   7.039
  654SOL     OW 2848   0.577   0.986   5.724
  654SOL    HW1 2849   0.625   1.030   5.655
  654SOL    HW2 2850   0.618   1.015   5.806
  655SOL     OW 2851   1.582   0.140   7.042
  655SOL    HW1 2852   1.611   0.213   6.987
  655SOL    HW2 2853   1.548   0.182   7.121
  656SOL     OW 2854   0.141   0.652   6.156
  656SOL    HW1 2855   0.098   0.566   6.160
  656SOL    HW2 2856   0.102   0.702   6.228
  657SOL     OW 2857   0.044   1.590   5.724
  657SOL    HW1 2858   0.037   1.497   5.750
  657SOL    HW2 2859   3.961   1.628   5.751
  658SOL     OW 2860   1.695   0.923   6.226
  658SOL    HW1 2861   1.775   0.875   6.202
  658SOL    HW2 2862   1.670   0.968   6.146
  659SOL     OW 2863   1.653   1.110   6.010
  659SOL    HW1 2864   1.737   1.101   5.965
  659SOL    HW2 2865   1.664   1.186   6.067
  660SOL     OW 2866   0.141   0.756   7.175
  660SOL    HW1 2867   0.236   0.751   7.169
  660SOL    HW2 2868   0.123   0.844   7.207
  661SOL     OW 2869   0.611   1.388   6.322
  661SOL    HW1 2870   0.565   1.304   6.330
  661SOL    HW2 2871   0.597   1.414   6.232
  662SOL     OW 2872   1.279   1.226   7.014
  662SOL    HW1 2873   1.314   1.161   6.953
  662SOL    HW2 2874   1.332   1.217   7.093
  663SOL     OW 2875   0.820   0.003   6.102
  663SOL    HW1 2876   0.865   0.084   6.078
  663SOL    HW2 2877   0.727   0.027   6.102
  664SOL     OW 2878   0.184   0.950   6.864
  664SOL    HW1 2879   0.272   0.915   6.852
  664SOL    HW2 2880   0.132   0.909   6.795
  665SOL     OW 2881   1.530   0.995   5.784
  665SOL    HW1 2882   1.461   0.937   5.818
  665SOL    HW2 2883   1.575   1.027   5.862
  666SOL     OW 2884   0.345   0.251   7.426
  666SOL    HW1 2885   0.388   0.334   7.407
  666SOL    HW2 2886   0.254   0.274   7.444
  667SOL     OW 2887   0.596   0.717   5.852
  667SOL    HW1 2888   0.601   0.801   5.807
  667SOL    HW2 2889   0.533   0.731   5.923
  668SOL     OW 2890   1.275   0.368   6.527
  668SOL    HW1 2891   1.187   0.330   6.534
  668SOL    HW2 2892   1.332   0.306   6.572
  669SOL     OW 2893   0.794   0.615   7.039
  669SOL    HW1 2894   0.765   0.590   7.127
  669SOL    HW2 2895   0.756   0.550   6.981
  670SOL     OW 2896   1.391   0.476   7.263
  670SOL    HW1 2897   1.398   0.521   7.347
  670SOL    HW2 2898   1.450   0.401   7.272
  671SOL     OW 2899   0.950   0.886   7.170
  671SOL    HW1 2900   1.007   0.818   7.132
  671SOL    HW2 2901   0.903   0.922   7.095
  672SOL     OW 2902   0.992   0.402   6.825
  672SOL    HW1 2903   0.907   0.424   6.863
  672SOL    HW2 2904   0.972   0.375   6.735
  673SOL     OW 2905   1.052   0.699   6.011
  673SOL    HW1 2906   1.068   0.692   6.105
  673SOL    HW2 2907   0.969   0.653   5.998
  674SOL     OW 2908   0.081   0.829   6.376
  674SOL    HW1 2909   0.154   0.795   6.429
  674SOL    HW2 2910   0.102   0.921   6.362
  675SOL     OW 2911   0.130   1.863   7.163
  675SOL    HW1 2912   0.137   1.828   7.252
  675SOL    HW2 2913   0.038   1.852   7.140
  676SOL     OW 2914   0.894   0.352   5.784
  676SOL    HW1 2915   0.936   0.412   5.723
  676SOL    HW2 2916   0.893   0.268   5.739
  677SOL     OW 2917   1.708   0.575   7.414
  677SOL    HW1 2918   1.670   0.648   7.366
  677SOL    HW2 2919   1.733   0.512   7.347
  678SOL     OW 2920   1.374   1.127   6.093
  678SOL    HW1 2921   1.454   1.117   6.042
  678SOL    HW2 2922   1.324   1.194   6.046
  679SOL     OW 2923   0.561   0.195   6.466
  679SOL    HW1 2924   0.566   0.219   6.559
  679SOL    HW2 2925   0.547   0.278   6.421
  680SOL     OW 2926   1.008   1.449   6.064
  680SOL    HW1 2927   0.973   1.519   6.008
  680SOL    HW2 2928   0.972   1.466   6.150
  681SOL     OW 2929   0.365   1.820   6.456
  681SOL    HW1 2930   0.428   1.748   6.466
  681SOL    HW2 2931   0.417   1.899   6.472
  682SOL     OW 2932   1.803   1.016   6.464
  682SOL    HW1 2933   1.751   0.994   6.386
  682SOL    HW2 2934   1.770   1.101   6.491
  683SOL     OW 2935   0.310   0.954   5.828
  683SOL    HW1 2936   0.394   0.976   5.787
  683SOL    HW2 2937   0.298   0.861   5.808
  684SOL     OW 2938   1.480   0.749   6.316
  684SOL    HW1 2939   1.471   0.704   6.400
  684SOL    HW2 2940   1.557   0.806   6.327
  685SOL     OW 2941   0.467   1.261   7.324
  685SOL    HW1 2942   0.442   1.268   7.232
  685SOL    HW2 2943   0.384   1.265   7.372
  686SOL     OW 2944   1.120   1.783   5.820
  686SOL    HW1 2945   1.046   1.738   5.861
  686SOL    HW2 2946   1.147   1.725   5.749
  687SOL     OW 2947   0.201   0.293   7.085
  687SOL    HW1 2948   0.107   0.314   7.085
  687SOL    HW2 2949   0.209   0.222   7.148
  688SOL     OW 2950   1.613   1.381   5.669
  688SOL    HW1 2951   1.572   1.464   5.645
  688SOL    HW2 2952   1.548   1.315   5.647
  689SOL     OW 2953   0.466   1.739   5.902
  689SOL    HW1 2954   0.508   1.796   5.966
  689SOL    HW2 2955   0.538   1.703   5.850
  690SOL     OW 2956   1.441   0.166   5.992
  690SOL    HW1 2957   1.395   0.100   5.940
  690SOL    HW2 2958   1.512   0.118   6.034
  691SOL     OW 2959   0.252   1.790   6.817
  691SOL    HW1 2960   0.299   1.726   6.870
  691SOL    HW2 2961   0.250   1.752   6.729
  692SOL     OW 2962   0.926   1.696   6.496
  692SOL    HW1 2963   1.018   1.671   6.497
  692SOL    HW2 2964   0.889   1.653   6.419
  693SOL     OW 2965   0.397   0.694   6.056
  693SOL    HW1 2966   0.423   0.604   6.072
  693SOL    HW2 2967   0.305   0.698   6.082
  694SOL     OW 2968   1.530   0.229   7.313
  694SOL    HW1 2969   1.525   0.254   7.405
  694SOL    HW2 2970   1.510   0.135   7.313
  695SOL     OW 2971   0.645   0.130   5.689
  695SOL    HW1 2972   0.668   0.046   5.729
  695SOL    HW2 2973   0.584   0.107   5.619
  696SOL     OW 2974   0.777   0.283   7.353
  696SOL    HW1 2975   0.850   0.221   7.356
  696SOL    HW2 2976   0.720   0.256   7.425
  697SOL     OW 2977   0.877   1.523   6.782
  697SOL    HW1 2978   0.859   1.488   6.695
  697SOL    HW2 2979   0.944   1.464   6.818
  698SOL     OW 2980   1.340   0.586   7.016
  698SOL    HW1 2981   1.370   0.559   7.102
  698SOL    HW2 2982   1.374   0.675   7.005
  699SOL     OW 2983   0.802   1.395   6.531
  699SOL    HW1 2984   0.887   1.386   6.487
  699SOL    HW2 2985   0.738   1.397   6.460
  700SOL     OW 2986   0.930   0.511   6.487
  700SOL    HW1 2987   0.905   0.503   6.395
  700SOL    HW2 2988   0.955   0.422   6.512
  701SOL     OW 2989   0.546   0.056   6.073
  701SOL    HW1 2990   0.473   0.063   6.134
  701SOL    HW2 2991   0.548   0.140   6.028
  702SOL     OW 2992   1.422   1.193   5.622
  702SOL    HW1 2993   1.452   1.119   5.674
  702SOL    HW2 2994   1.337   1.216   5.661
  703SOL     OW 2995   0.346   0.036   5.784
  703SOL    HW1 2996   0.359   0.086   5.704
  703SOL    HW2 2997   0.431   0.037   5.828
  704SOL     OW 2998   0.942   0.249   6.046
  704SOL    HW1 2999   0.916   0.290   5.964
  704SOL    HW2 3000   1.038   0.254   6.046
  705SOL     OW 3001   1.080   0.683   7.044
  705SOL    HW1 3002   1.010   0.618   7.051
  705SOL    HW2 3003   1.161   0.632   7.039
  706SOL     OW 3004   0.466   1.151   6.321
  706SOL    HW1 3005   0.395   1.126   6.380
  706SOL    HW2 3006   0.431   1.135   6.233
  707SOL     OW 3007   1.022   0.542   5.615
  707SOL    HW1 3008   0.979   0.626   5.595
  707SOL    HW2 3009   1.086   0.564   5.683
  708SOL     OW 3010   0.081   0.573   6.979
  708SOL    HW1 3011   0.170   0.555   6.949
  708SOL    HW2 3012   0.090   0.645   7.042
  709SOL     OW 3013   0.572   0.231   6.745
  709SOL    HW1 3014   0.593   0.138   6.754
  709SOL    HW2 3015   0.481   0.237   6.775
  710SOL     OW 3016   0.871   0.461   6.225
  710SOL    HW1 3017   0.820   0.514   6.163
  710SOL    HW2 3018   0.890   0.380   6.177
  711SOL     OW 3019   0.997   0.039   6.367
  711SOL    HW1 3020   0.960   0.069   6.284
  711SOL    HW2 3021   1.008   3.945   6.356
  712SOL     OW 3022   1.465   0.604   6.558
  712SOL    HW1 3023   1.410   0.526   6.565
  712SOL    HW2 3024   1.524   0.598   6.634
  713SOL     OW 3025   1.837   0.817   5.977
  713SOL    HW1 3026   1.899   0.767   6.029
  713SOL    HW2 3027   1.811   0.758   5.907
  714SOL     OW 3028   0.487   1.420   5.745
  714SOL    HW1 3029   0.412   1.390   5.795
  714SOL    HW2 3030   0.472   1.388   5.656
  715SOL     OW 3031   1.395   0.576   5.655
  715SOL    HW1 3032   1.332   0.556   5.725
  715SOL    HW2 3033   1.481   0.558   5.694
  716SOL     OW 3034   0.557   0.270   5.904
  716SOL    HW1 3035   0.605   0.231   5.831
  716SOL    HW2 3036   0.528   0.355   5.871
  717SOL     OW 3037   1.051   1.341   6.914
  717SOL    HW1 3038   0.973   1.320   6.967
  717SOL    HW2 3039   1.124   1.307   6.966
  718SOL     OW 3040   1.132   1.208   6.689
  718SOL    HW1 3041   1.083   1.246   6.761
  718SOL    HW2 3042   1.080   1.228   6.611
  719SOL     OW 3043   0.913   0.114   6.988
  719SOL    HW1 3044   0.932   0.089   6.897
  719SOL    HW2 3045   0.993   0.157   7.018
  720SOL     OW 3046   0.982   1.112   7.312
  720SOL    HW1 3047   0.890   1.129   7.332
  720SOL    HW2 3048   0.980   1.035   7.255
  721SOL     OW 3049   0.708   1.061   5.956
  721SOL    HW1 3050   0.694   1.044   6.050
  721SOL    HW2 3051   0.784   1.008   5.933
  722SOL     OW 3052   0.422   0.817   6.839
  722SOL    HW1 3053   0.491   0.823   6.905
  722SOL    HW2 3054   0.388   0.728   6.849
  723SOL     OW 3055   1.266   0.374   6.862
  723SOL    HW1 3056   1.300   0.452   6.907
  723SOL    HW2 3057   1.178   0.400   6.833
  724SOL     OW 3058   0.065   1.580   6.932
  724SOL    HW1 3059   0.071   1.636   6.855
  724SOL    HW2 3060   0.156   1.567   6.959
  725SOL     OW 3061   0.371   1.103   6.068
  725SOL    HW1 3062   0.365   1.182   6.014
  725SOL    HW2 3063   0.369   1.031   6.005
  726SOL     OW 3064   0.554   0.534   6.444
  726SOL    HW1 3065   0.568   0.593   6.369
  726SOL    HW2 3066   0.620   0.561   6.508
  727SOL     OW 3067   1.247   1.352   5.972
  727SOL    HW1 3068   1.298   1.432   5.982
  727SOL    HW2 3069   1.162   1.372   6.010
  728SOL     OW 3070   1.332   1.397   6.790
  728SOL    HW1 3071   1.287   1.404   6.875
  728SOL    HW2 3072   1.280   1.333   6.741
  729SOL     OW 3073   1.574   0.633   6.074
  729SOL    HW1 3074   1.531   0.689   6.138
  729SOL    HW2 3075   1.622   0.693   6.017
  730SOL     OW 3076   0.346   1.527   6.904
  730SOL    HW1 3077   0.336   1.476   6.824
  730SOL    HW2 3078   0.440   1.542   6.912
  731SOL     OW 3079   0.417   0.737   7.186
  731SOL    HW1 3080   0.480   0.783   7.130
  731SOL    HW2 3081   0.456   0.651   7.200
  732SOL     OW 3082   1.601   0.778   7.271
  732SOL    HW1 3083   1.513   0.816   7.265
  732SOL    HW2 3084   1.652   0.822   7.204
  733SOL     OW 3085   1.013   0.132   7.365
  733SOL    HW1 3086   1.064   0.205   7.330
  733SOL    HW2 3087   1.000   0.074   7.290
  734SOL     OW 3088   0.483   0.037   7.351
  734SOL    HW1 3089   0.490   0.047   7.256
  734SOL    HW2 3090   0.421   0.104   7.378
  735SOL     OW 3091   0.585   0.875   6.617
  735SOL    HW1 3092   0.617   0.965   6.620
  735SOL    HW2 3093   0.529   0.868   6.695
  736SOL     OW 3094   1.362   0.855   6.618
  736SOL    HW1 3095   1.283   0.857   6.563
  736SOL    HW2 3096   1.397   0.767   6.607
  737SOL     OW 3097   1.200   0.537   5.844
  737SOL    HW1 3098   1.209   0.458   5.897
  737SOL    HW2 3099   1.158   0.600   5.902
  738SOL     OW 3100   0.311   0.212   6.826
  738SOL    HW1 3101   0.268   0.249   6.903
  738SOL    HW2 3102   0.296   0.118   6.832
  739SOL     OW 3103   0.059   1.306   6.866
  739SOL    HW1 3104   0.091   1.264   6.947
  739SOL    HW2 3105   0.052   1.399   6.889
  740SOL     OW 3106   0.724   0.633   6.639
  740SOL    HW1 3107   0.799   0.619   6.582
  740SOL    HW2 3108   0.695   0.722   6.618
  741SOL     OW 3109   1.732   0.957   7.441
  741SOL    HW1 3110   1.686   0.895   7.385
  741SOL    HW2 3111   1.668   0.981   7.508
  742SOL     OW 3112   0.330   0.055   6.241
  742SOL    HW1 3113   0.301   0.146   6.241
  742SOL    HW2 3114   0.293   0.017   6.320
  743SOL     OW 3115   1.607   0.391   5.967
  743SOL    HW1 3116   1.566   0.324   6.021
  743SOL    HW2 3117   1.587   0.473   6.012
  744SOL     OW 3118   1.026   0.759   6.543
  744SOL    HW1 3119   1.022   0.776   6.638
  744SOL    HW2 3120   1.001   0.668   6.534
  745SOL     OW 3121   0.978   1.557   7.285
  745SOL    HW1 3122   0.965   1.601   7.201
  745SOL    HW2 3123   1.030   1.479   7.263
  746SOL     OW 3124   0.353   0.921   7.385
  746SOL    HW1 3125   0.431   0.943   7.436
  746SOL    HW2 3126   0.382   0.854   7.324
  747SOL     OW 3127   1.505   0.274   5.721
  747SOL    HW1 3128   1.431   0.215   5.733
  747SOL    HW2 3129   1.518   0.314   5.807
  748SOL     OW 3130   1.287   0.826   5.613
  748SOL    HW1 3131   1.330   0.741   5.617
  748SOL    HW2 3132   1.320   0.866   5.533
  749SOL     OW 3133   1.039   1.340   6.424
  749SOL    HW1 3134   1.042   1.260   6.372
  749SOL    HW2 3135   1.116   1.390   6.397
  750SOL     OW 3136   0.313   0.803   6.536
  750SOL    HW1 3137   0.407   0.820   6.531
  750SOL    HW2 3138   0.307   0.713   6.568
  751SOL     OW 3139   0.338   0.528   6.601
  751SOL    HW1 3140   0.297   0.444   6.583
  751SOL    HW2 3141   0.413   0.532   6.542
  752SOL     OW 3142   1.133   0.380   7.284
  752SOL    HW1 3143   1.084   0.435   7.345
  752SOL    HW2 3144   1.220   0.420   7.278
  753SOL     OW 3145   1.151   0.225   7.068
  753SOL    HW1 3146   1.142   0.280   7.146
  753SOL    HW2 3147   1.176   0.287   6.999
  754SOL     OW 3148   0.000   1.317   5.768
  754SOL    HW1 3149   3.906   1.333   5.772
  754SOL    HW2 3150   0.009   1.224   5.787
  755SOL     OW 3151   0.078   1.800   6.474
  755SOL    HW1 3152   0.083   1.704   6.478
  755SOL    HW2 3153   0.169   1.829   6.478
  756SOL     OW 3154   0.499   1.571   6.497
  756SOL    HW1 3155   0.568   1.631   6.524
  756SOL    HW2 3156   0.542   1.509   6.438
  757SOL     OW 3157   0.978   0.789   6.810
  757SOL    HW1 3158   1.036   0.769   6.884
  757SOL    HW2 3159   0.894   0.752   6.835
  758SOL     OW 3160   0.035   0.573   6.699
  758SOL    HW1 3161   0.098   0.523   6.648
  758SOL    HW2 3162   0.061   0.560   6.790
  759SOL     OW 3163   0.211   0.516   7.307
  759SOL    HW1 3164   0.258   0.478   7.234
  759SOL    HW2 3165   0.165   0.591   7.270
  760SOL     OW 3166   1.370   0.924   7.241
  760SOL    HW1 3167   1.392   1.017   7.240
  760SOL    HW2 3168   1.370   0.898   7.149
  761SOL     OW 3169   0.818   0.572   5.948
  761SOL    HW1 3170   0.824   0.496   5.891
  761SOL    HW2 3171   0.743   0.621   5.915
  762SOL     OW 3172   1.640   0.601   6.770
  762SOL    HW1 3173   1.630   0.541   6.843
  762SOL    HW2 3174   1.727   0.583   6.735
  763SOL     OW 3175   0.299   1.544   7.311
  763SOL    HW1 3176   0.252   1.614   7.356
  763SOL    HW2 3177   0.269   1.463   7.352
  764SOL     OW 3178   0.709   0.454   6.842
  764SOL    HW1 3179   0.659   0.376   6.816
  764SOL    HW2 3180   0.700   0.513   6.768
  765SOL     OW 3181   0.923   1.684   7.050
  765SOL    HW1 3182   0.909   1.647   6.962
  765SOL    HW2 3183   0.918   1.778   7.037
  766SOL     OW 3184   0.454   0.492   5.784
  766SOL    HW1 3185   0.518   0.561   5.801
  766SOL    HW2 3186   0.374   0.539   5.759
  767SOL     OW 3187   0.155   1.134   7.060
  767SOL    HW1 3188   0.157   1.084   7.142
  767SOL    HW2 3189   0.170   1.070   6.992
  768SOL     OW 3190   1.323   1.043   6.808
  768SOL    HW1 3191   1.349   0.981   6.741
  768SOL    HW2 3192   1.255   1.097   6.767
  769SOL     OW 3193   1.317   0.854   5.889
  769SOL    HW1 3194   1.242   0.829   5.943
  769SOL    HW2 3195   1.287   0.841   5.799
  770SOL     OW 3196   0.078   1.217   6.614
  770SOL    HW1 3197   0.084   1.243   6.705
  770SOL    HW2 3198   3.985   1.226   6.592
  771SOL     OW 3199   0.682   1.667   7.322
  771SOL    HW1 3200   0.623   1.742   7.309
  771SOL    HW2 3201   0.749   1.677   7.255
  772SOL     OW 3202   1.714   0.124   6.074
  772SOL    HW1 3203   1.792   0.134   6.020
  772SOL    HW2 3204   1.705   0.030   6.087
  773SOL     OW 3205   0.175   1.763   7.416
  773SOL    HW1 3206   0.118   1.713   7.474
  773SOL    HW2 3207   0.217   1.828   7.473
  774SOL     OW 3208   1.274   0.925   6.246
  774SOL    HW1 3209   1.349   0.870   6.265
  774SOL    HW2 3210   1.308   0.996   6.192
  775SOL     OW 3211   0.806   1.273   7.015
  775SOL    HW1 3212   0.779   1.315   7.097
  775SOL    HW2 3213   0.735   1.291   6.954
  776SOL     OW 3214   0.669   1.622   5.740
  776SOL    HW1 3215   0.681   1.634   5.646
  776SOL    HW2 3216   0.613   1.544   5.748
  777SOL     OW 3217   1.839   0.177   6.552
  777SOL    HW1 3218   1.871   0.111   6.491
  777SOL    HW2 3219   1.750   0.197   6.522
  778SOL     OW 3220   0.275   0.322   6.300
  778SOL    HW1 3221   0.189   0.357   6.274
  778SOL    HW2 3222   0.266   0.306   6.394
  779SOL     OW 3223   1.193   1.610   5.618
  779SOL    HW1 3224   1.192   1.517   5.643
  779SOL    HW2 3225   1.125   1.617   5.550
  780SOL     OW 3226   0.824   1.005   6.959
  780SOL    HW1 3227   0.869   1.001   6.875
  780SOL    HW2 3228   0.821   1.099   6.980
  781SOL     OW 3229   0.916   0.910   5.876
  781SOL    HW1 3230   0.977   0.943   5.810
  781SOL    HW2 3231   0.964   0.842   5.922
  782SOL     OW 3232   1.470   1.601   5.592
  782SOL    HW1 3233   1.377   1.617   5.576
  782SOL    HW2 3234   1.511   1.616   5.507
  783SOL     OW 3235   0.373   1.302   7.078
  783SOL    HW1 3236   0.359   1.383   7.028
  783SOL    HW2 3237   0.296   1.249   7.059
  784SOL     OW 3238   1.612   1.269   6.944
  784SOL    HW1 3239   1.649   1.339   6.997
  784SOL    HW2 3240   1.540   1.310   6.896
  785SOL     OW 3241   1.055   1.107   6.294
  785SOL    HW1 3242   0.985   1.053   6.331
  785SOL    HW2 3243   1.122   1.044   6.268
  786SOL     OW 3244   1.015   0.249   6.556
  786SOL    HW1 3245   1.005   0.198   6.475
  786SOL    HW2 3246   1.010   0.184   6.626
  787SOL     OW 3247   0.606   1.488   6.068
  787SOL    HW1 3248   0.652   1.439   6.000
  787SOL    HW2 3249   0.532   1.528   6.022
  788SOL     OW 3250   1.721   0.393   6.958
  788SOL    HW1 3251   1.793   0.456   6.962
  788SOL    HW2 3252   1.755   0.322   6.904
  789SOL     OW 3253   0.254   1.341   5.879
  789SOL    HW1 3254   0.160   1.348   5.860
  789SOL    HW2 3255   0.264   1.380   5.966
  790SOL     OW 3256   0.108   0.999   7.304
  790SOL    HW1 3257   0.048   0.992   7.378
  790SOL    HW2 3258   0.194   0.980   7.341
  791SOL     OW 3259   0.694   0.252   7.087
  791SOL    HW1 3260   0.762   0.199   7.046
  791SOL    HW2 3261   0.723   0.262   7.178
  792SOL     OW 3262   0.088   0.321   5.612
  792SOL    HW1 3263   3.993   0.319   5.605
  792SOL    HW2 3264   0.113   0.404   5.571
  793SOL     OW 3265   1.425   0.853   6.983
  793SOL    HW1 3266   1.378   0.916   6.928
  793SOL    HW2 3267   1.517   0.861   6.956
  794SOL     OW 3268   0.037   0.169   5.870
  794SOL    HW1 3269   0.036   0.231   5.798
  794SOL    HW2 3270   0.113   0.193   5.923
  795SOL     OW 3271   1.177   1.336   5.700
  795SOL    HW1 3272   1.085   1.308   5.701
  795SOL    HW2 3273   1.202   1.336   5.793
  796SOL     OW 3274   0.621   0.829   7.022
  796SOL    HW1 3275   0.677   0.905   7.006
  796SOL    HW2 3276   0.682   0.755   7.031
  797SOL     OW 3277   0.717   0.562   7.293
  797SOL    HW1 3278   0.761   0.625   7.350
  797SOL    HW2 3279   0.745   0.477   7.325
  798SOL     OW 3280   1.458   1.180   7.221
  798SOL    HW1 3281   1.453   1.196   7.315
  798SOL    HW2 3282   1.548   1.200   7.197
  799SOL     OW 3283   0.378   1.743   7.143
  799SOL    HW1 3284   0.291   1.781   7.131
  799SOL    HW2 3285   0.362   1.661   7.190
  800SOL     OW 3286   1.670   0.874   6.838
  800SOL    HW1 3287   1.662   0.783   6.807
  800SOL    HW2 3288   1.662   0.927   6.759
  801SOL     OW 3289   1.223   0.336   6.029
  801SOL    HW1 3290   1.290   0.268   6.022
  801SOL    HW2 3291   1.242   0.381   6.111
  802SOL     OW 3292   0.590   0.738   6.257
  802SOL    HW1 3293   0.628   0.824   6.241
  802SOL    HW2 3294   0.523   0.728   6.190
  803SOL     OW 3295   1.752   0.382   7.229
  803SOL    HW1 3296   1.733   0.389   7.135
  803SOL    HW2 3297   1.692   0.314   7.260
  804SOL     OW 3298   1.734   0.933   7.099
  804SOL    HW1 3299   1.797   1.004   7.112
  804SOL    HW2 3300   1.724   0.928   7.004
  805SOL     OW 3301   0.864   1.366   5.624
  805SOL    HW1 3302   0.824   1.396   5.706
  805SOL    HW2 3303   0.880   1.446   5.575
  806SOL     OW 3304   0.661   1.787   6.530
  806SOL    HW1 3305   0.646   1.879   6.505
  806SOL    HW2 3306   0.755   1.776   6.524
  807SOL     OW 3307   0.868   0.968   6.439
  807SOL    HW1 3308   0.918   0.896   6.478
  807SOL    HW2 3309   0.831   1.014   6.515
  808SOL     OW 3310   1.079   0.990   5.676
  808SOL    HW1 3311   1.056   1.040   5.598
  808SOL    HW2 3312   1.152   0.935   5.648
  809SOL     OW 3313   0.226   1.304   7.442
  809SOL    HW1 3314   0.153   1.248   7.415
  809SOL    HW2 3315   0.212   1.317   7.536
  810SOL     OW 3316   0.121   1.280   6.307
  810SOL    HW1 3317   0.135   1.229   6.387
  810SOL    HW2 3318   0.106   1.214   6.239
  811SOL     OW 3319   0.679   1.405   7.215
  811SOL    HW1 3320   0.599   1.363   7.247
  811SOL    HW2 3321   0.678   1.492   7.255
  812SOL     OW 3322   1.812   0.183   6.825
  812SOL    HW1 3323   1.814   0.089   6.840
  812SOL    HW2 3324   1.827   0.193   6.730
  813SOL     OW 3325   0.444   0.438   6.117
  813SOL    HW1 3326   0.461   0.362   6.061
  813SOL    HW2 3327   0.389   0.404   6.187
  814SOL     OW 3328   0.333   0.557   6.879
  814SOL    HW1 3329   0.389   0.501   6.932
  814SOL    HW2 3330   0.348   0.529   6.789
  815SOL     OW 3331   0.834   1.580   6.259
  815SOL    HW1 3332   0.815   1.648   6.194
  815SOL    HW2 3333   0.757   1.524   6.258
  816SOL     OW 3334   1.461   0.254   6.697
  816SOL    HW1 3335   1.478   0.167   6.734
  816SOL    HW2 3336   1.405   0.297   6.761
  817SOL     OW 3337   1.003   0.028   6.732
  817SOL    HW1 3338   0.923   3.991   6.695
  817SOL    HW2 3339   1.062   3.953   6.741
  818SOL     OW 3340   0.772   1.332   5.904
  818SOL    HW1 3341   0.741   1.242   5.909
  818SOL    HW2 3342   0.855   1.332   5.952
  819SOL     OW 3343   0.621   1.557   6.872
  819SOL    HW1 3344   0.622   1.639   6.922
  819SOL    HW2 3345   0.709   1.549   6.836
  820SOL     OW 3346   1.311   0.073   5.753
  820SOL    HW1 3347   1.322   3.995   5.699
  820SOL    HW2 3348   1.226   0.062   5.794
  821SOL     OW 3349   1.282   0.457   6.271
  821SOL    HW1 3350   1.234   0.540   6.266
  821SOL    HW2 3351   1.285   0.437   6.365
  822SOL     OW 3352   1.588   0.210   6.454
  822SOL    HW1 3353   1.539   0.235   6.533
  822SOL    HW2 3354   1.588   0.289   6.400
  823SOL     OW 3355   0.047   1.049   5.827
  823SOL    HW1 3356   0.141   1.032   5.818
  823SOL    HW2 3357   0.011   0.965   5.857
  824SOL     OW 3358   0.888   1.650   5.920
  824SOL    HW1 3359   0.814   1.634   5.862
  824SOL    HW2 3360   0.859   1.723   5.976
  825SOL     OW 3361   0.232   0.627   7.565
  825SOL    HW1 3362   0.139   0.632   7.586
  825SOL    HW2 3363   0.235   0.598   7.474
  826SOL     OW 3364   0.224   0.289   8.431
  826SOL    HW1 3365   0.246   0.250   8.515
  826SOL    HW2 3366   0.129   0.278   8.424
  827SOL     OW 3367   0.019   0.385   8.084
  827SOL    HW1 3368   3.928   0.398   8.112
  827SOL    HW2 3369   0.026   0.291   8.069
  828SOL     OW 3370   0.581   1.289   8.639
  828SOL    HW1 3371   0.494   1.291   8.598
  828SOL    HW2 3372   0.594   1.379   8.671
  829SOL     OW 3373   1.555   1.493   8.175
  829SOL    HW1 3374   1.528   1.474   8.265
  829SOL    HW2 3375   1.473   1.506   8.128
  830SOL     OW 3376   1.133   0.698   8.145
  830SOL    HW1 3377   1.181   0.780   8.133
  830SOL    HW2 3378   1.085   0.710   8.227
  831SOL     OW 3379   1.767   0.616   7.672
  831SOL    HW1 3380   1.745   0.610   7.579
  831SOL    HW2 3381   1.751   0.528   7.706
  832SOL     OW 3382   0.754   1.139   8.491
  832SOL    HW1 3383   0.690   1.175   8.553
  832SOL    HW2 3384   0.789   1.216   8.445
  833SOL     OW 3385   0.871   0.770   9.272
  833SOL    HW1 3386   0.860   0.841   9.334
  833SOL    HW2 3387   0.893   0.814   9.189
  834SOL     OW 3388   0.685   1.002   8.094
  834SOL    HW1 3389   0.751   0.991   8.162
  834SOL    HW2 3390   0.616   1.054   8.135
  835SOL     OW 3391   0.712   1.149   9.264
  835SOL    HW1 3392   0.759   1.227   9.293
  835SOL    HW2 3393   0.630   1.183   9.227
  836SOL     OW 3394   0.351   1.401   8.526
  836SOL    HW1 3395   0.270   1.381   8.480
  836SOL    HW2 3396   0.399   1.459   8.467
  837SOL     OW 3397   1.449   1.488   8.807
  837SOL    HW1 3398   1.495   1.571   8.813
  837SOL    HW2 3399   1.383   1.491   8.875
  838SOL     OW 3400   0.457   0.408   8.944
  838SOL    HW1 3401   0.539   0.358   8.942
  838SOL    HW2 3402   0.388   0.341   8.947
  839SOL     OW 3403   1.612   0.451   8.183
  839SOL    HW1 3404   1.542   0.482   8.125
  839SOL    HW2 3405   1.628   0.524   8.242
  840SOL     OW 3406   0.221   1.718   7.906
  840SOL    HW1 3407   0.240   1.793   7.963
  840SOL    HW2 3408   0.297   1.710   7.849
  841SOL     OW 3409   1.137   1.342   9.142
  841SOL    HW1 3410   1.178   1.336   9.228
  841SOL    HW2 3411   1.085   1.262   9.134
  842SOL     OW 3412   0.249   1.450   7.988
  842SOL    HW1 3413   0.216   1.539   7.973
  842SOL    HW2 3414   0.179   1.407   8.038
  843SOL     OW 3415   0.247   1.066   8.332
  843SOL    HW1 3416   0.267   0.981   8.371
  843SOL    HW2 3417   0.194   1.111   8.398
  844SOL     OW 3418   0.611   1.792   8.876
  844SOL    HW1 3419   0.528   1.774   8.920
  844SOL    HW2 3420   0.633   1.881   8.901
  845SOL     OW 3421   0.577   0.986   7.586
  845SOL    HW1 3422   0.625   1.030   7.517
  845SOL    HW2 3423   0.618   1.015   7.667
  846SOL     OW 3424   1.581   0.140   8.904
  846SOL    HW1 3425   1.611   0.213   8.849
  846SOL    HW2 3426   1.548   0.182   8.984
  847SOL     OW 3427   0.140   0.651   8.018
  847SOL    HW1 3428   0.098   0.566   8.022
  847SOL    HW2 3429   0.102   0.701   8.090
  848SOL     OW 3430   0.044   1.590   7.586
  848SOL    HW1 3431   0.037   1.498   7.612
  848SOL    HW2 3432   3.961   1.629   7.613
  849SOL     OW 3433   1.687   0.911   8.074
  849SOL    HW1 3434   1.774   0.873   8.087
  849SOL    HW2 3435   1.701   0.981   8.011
  850SOL     OW 3436   0.141   0.756   9.037
  850SOL    HW1 3437   0.236   0.751   9.032
  850SOL    HW2 3438   0.123   0.844   9.069
  851SOL     OW 3439   0.612   1.386   8.185
  851SOL    HW1 3440   0.567   1.303   8.194
  851SOL    HW2 3441   0.597   1.413   8.095
  852SOL     OW 3442   1.285   1.235   8.872
  852SOL    HW1 3443   1.316   1.169   8.811
  852SOL    HW2 3444   1.345   1.230   8.946
  853SOL     OW 3445   0.820   0.004   7.964
  853SOL    HW1 3446   0.865   0.085   7.940
  853SOL    HW2 3447   0.727   0.027   7.964
  854SOL     OW 3448   0.184   0.950   8.726
  854SOL    HW1 3449   0.272   0.915   8.714
  854SOL    HW2 3450   0.132   0.908   8.657
  855SOL     OW 3451   1.532   0.999   7.647
  855SOL    HW1 3452   1.460   0.946   7.683
  855SOL    HW2 3453   1.601   0.992   7.713
  856SOL     OW 3454   1.187   1.810   9.072
  856SOL    HW1 3455   1.193   1.869   8.998
  856SOL    HW2 3456   1.202   1.723   9.035
  857SOL     OW 3457   0.345   0.251   9.288
  857SOL    HW1 3458   0.388   0.334   9.269
  857SOL    HW2 3459   0.254   0.274   9.305
  858SOL     OW 3460   1.467   1.417   8.414
  858SOL    HW1 3461   1.398   1.434   8.478
  858SOL    HW2 3462   1.454   1.326   8.387
  859SOL     OW 3463   1.581   1.686   7.991
  859SOL    HW1 3464   1.647   1.661   7.926
  859SOL    HW2 3465   1.597   1.629   8.066
  860SOL     OW 3466   0.596   0.717   7.714
  860SOL    HW1 3467   0.601   0.801   7.668
  860SOL    HW2 3468   0.533   0.732   7.785
  861SOL     OW 3469   1.274   0.369   8.389
  861SOL    HW1 3470   1.187   0.330   8.396
  861SOL    HW2 3471   1.332   0.307   8.435
  862SOL     OW 3472   0.794   0.616   8.901
  862SOL    HW1 3473   0.765   0.590   8.989
  862SOL    HW2 3474   0.756   0.550   8.843
  863SOL     OW 3475   1.392   0.476   9.125
  863SOL    HW1 3476   1.398   0.521   9.209
  863SOL    HW2 3477   1.450   0.400   9.134
  864SOL     OW 3478   0.952   0.887   9.032
  864SOL    HW1 3479   1.007   0.818   8.995
  864SOL    HW2 3480   0.903   0.922   8.958
  865SOL     OW 3481   0.992   0.403   8.686
  865SOL    HW1 3482   0.907   0.423   8.724
  865SOL    HW2 3483   0.972   0.374   8.597
  866SOL     OW 3484   1.052   0.699   7.874
  866SOL    HW1 3485   1.069   0.692   7.968
  866SOL    HW2 3486   0.970   0.653   7.860
  867SOL     OW 3487   0.081   0.828   8.238
  867SOL    HW1 3488   0.154   0.795   8.291
  867SOL    HW2 3489   0.102   0.921   8.224
  868SOL     OW 3490   0.130   1.863   9.025
  868SOL    HW1 3491   0.138   1.828   9.114
  868SOL    HW2 3492   0.038   1.851   9.003
  869SOL     OW 3493   0.894   0.352   7.646
  869SOL    HW1 3494   0.936   0.412   7.585
  869SOL    HW2 3495   0.893   0.268   7.600
  870SOL     OW 3496   1.708   0.575   9.277
  870SOL    HW1 3497   1.670   0.649   9.229
  870SOL    HW2 3498   1.732   0.512   9.210
  871SOL     OW 3499   1.370   1.144   7.987
  871SOL    HW1 3500   1.448   1.135   7.933
  871SOL    HW2 3501   1.317   1.209   7.942
  872SOL     OW 3502   0.561   0.195   8.329
  872SOL    HW1 3503   0.566   0.219   8.421
  872SOL    HW2 3504   0.547   0.278   8.283
  873SOL     OW 3505   1.009   1.443   7.925
  873SOL    HW1 3506   0.966   1.512   7.875
  873SOL    HW2 3507   0.979   1.458   8.015
  874SOL     OW 3508   0.365   1.820   8.319
  874SOL    HW1 3509   0.428   1.749   8.327
  874SOL    HW2 3510   0.415   1.899   8.334
  875SOL     OW 3511   1.799   1.035   8.328
  875SOL    HW1 3512   1.752   1.074   8.254
  875SOL    HW2 3513   1.739   1.046   8.402
  876SOL     OW 3514   1.225   1.538   8.963
  876SOL    HW1 3515   1.211   1.466   9.024
  876SOL    HW2 3516   1.159   1.524   8.894
  877SOL     OW 3517   0.311   0.954   7.690
  877SOL    HW1 3518   0.394   0.976   7.649
  877SOL    HW2 3519   0.298   0.861   7.669
  878SOL     OW 3520   1.479   0.747   8.178
  878SOL    HW1 3521   1.476   0.707   8.264
  878SOL    HW2 3522   1.556   0.804   8.180
  879SOL     OW 3523   0.468   1.261   9.185
  879SOL    HW1 3524   0.442   1.269   9.094
  879SOL    HW2 3525   0.386   1.264   9.234
  880SOL     OW 3526   1.020   1.806   7.649
  880SOL    HW1 3527   0.985   1.755   7.722
  880SOL    HW2 3528   1.068   1.743   7.596
  881SOL     OW 3529   0.201   0.294   8.948
  881SOL    HW1 3530   0.107   0.314   8.947
  881SOL    HW2 3531   0.209   0.222   9.010
  882SOL     OW 3532   0.466   1.738   7.765
  882SOL    HW1 3533   0.510   1.795   7.828
  882SOL    HW2 3534   0.537   1.703   7.711
  883SOL     OW 3535   1.441   0.167   7.854
  883SOL    HW1 3536   1.394   0.100   7.804
  883SOL    HW2 3537   1.512   0.119   7.897
  884SOL     OW 3538   0.251   1.791   8.679
  884SOL    HW1 3539   0.298   1.725   8.731
  884SOL    HW2 3540   0.250   1.754   8.591
  885SOL     OW 3541   0.935   1.696   8.345
  885SOL    HW1 3542   1.006   1.639   8.376
  885SOL    HW2 3543   0.894   1.647   8.274
  886SOL     OW 3544   0.397   0.694   7.919
  886SOL    HW1 3545   0.423   0.603   7.934
  886SOL    HW2 3546   0.305   0.698   7.944
  887SOL     OW 3547   1.529   0.229   9.175
  887SOL    HW1 3548   1.525   0.254   9.267
  887SOL    HW2 3549   1.511   0.135   9.175
  888SOL     OW 3550   0.645   0.130   7.551
  888SOL    HW1 3551   0.668   0.046   7.591
  888SOL    HW2 3552   0.584   0.107   7.481
  889SOL     OW 3553   0.776   0.284   9.215
  889SOL    HW1 3554   0.850   0.223   9.217
  889SOL    HW2 3555   0.720   0.255   9.287
  890SOL     OW 3556   0.876   1.522   8.641
  890SOL    HW1 3557   0.859   1.483   8.555
  890SOL    HW2 3558   0.945   1.467   8.679
  891SOL     OW 3559   1.339   0.587   8.879
  891SOL    HW1 3560   1.370   0.559   8.964
  891SOL    HW2 3561   1.375   0.676   8.869
  892SOL     OW 3562   0.817   1.392   8.389
  892SOL    HW1 3563   0.901   1.380   8.345
  892SOL    HW2 3564   0.753   1.395   8.318
  893SOL     OW 3565   0.930   0.512   8.348
  893SOL    HW1 3566   0.906   0.504   8.256
  893SOL    HW2 3567   0.956   0.423   8.374
  894SOL     OW 3568   0.546   0.056   7.935
  894SOL    HW1 3569   0.473   0.063   7.996
  894SOL    HW2 3570   0.548   0.140   7.889
  895SOL     OW 3571   1.433   1.201   7.486
  895SOL    HW1 3572   1.463   1.132   7.544
  895SOL    HW2 3573   1.350   1.231   7.524
  896SOL     OW 3574   0.346   0.037   7.646
  896SOL    HW1 3575   0.359   0.087   7.566
  896SOL    HW2 3576   0.431   0.037   7.689
  897SOL     OW 3577   0.942   0.249   7.908
  897SOL    HW1 3578   0.916   0.290   7.826
  897SOL    HW2 3579   1.038   0.254   7.908
  898SOL     OW 3580   1.079   0.683   8.906
  898SOL    HW1 3581   1.010   0.618   8.913
  898SOL    HW2 3582   1.160   0.633   8.901
  899SOL     OW 3583   1.238   1.561   8.241
  899SOL    HW1 3584   1.236   1.649   8.203
  899SOL    HW2 3585   1.295   1.570   8.318
  900SOL     OW 3586   0.466   1.150   8.183
  900SOL    HW1 3587   0.395   1.125   8.242
  900SOL    HW2 3588   0.431   1.135   8.096
  901SOL     OW 3589   1.021   0.543   7.477
  901SOL    HW1 3590   0.978   0.626   7.456
  901SOL    HW2 3591   1.086   0.565   7.544
  902SOL     OW 3592   0.081   0.573   8.841
  902SOL    HW1 3593   0.170   0.555   8.811
  902SOL    HW2 3594   0.090   0.645   8.904
  903SOL     OW 3595   0.572   0.231   8.607
  903SOL    HW1 3596   0.594   0.138   8.616
  903SOL    HW2 3597   0.481   0.237   8.637
  904SOL     OW 3598   0.871   0.461   8.086
  904SOL    HW1 3599   0.820   0.514   8.024
  904SOL    HW2 3600   0.891   0.381   8.039
  905SOL     OW 3601   0.996   0.039   8.229
  905SOL    HW1 3602   0.960   0.069   8.145
  905SOL    HW2 3603   1.007   3.945   8.218
  906SOL     OW 3604   1.435   1.162   8.321
  906SOL    HW1 3605   1.367   1.101   8.293
  906SOL    HW2 3606   1.493   1.169   8.245
  907SOL     OW 3607   1.465   0.606   8.422
  907SOL    HW1 3608   1.410   0.528   8.427
  907SOL    HW2 3609   1.524   0.600   8.497
  908SOL     OW 3610   1.845   0.816   7.830
  908SOL    HW1 3611   1.900   0.765   7.890
  908SOL    HW2 3612   1.817   0.753   7.764
  909SOL     OW 3613   0.487   1.421   7.607
  909SOL    HW1 3614   0.411   1.389   7.657
  909SOL    HW2 3615   0.474   1.387   7.519
  910SOL     OW 3616   1.663   1.233   8.166
  910SOL    HW1 3617   1.755   1.235   8.140
  910SOL    HW2 3618   1.635   1.325   8.161
  911SOL     OW 3619   1.395   0.574   7.517
  911SOL    HW1 3620   1.332   0.555   7.587
  911SOL    HW2 3621   1.481   0.557   7.557
  912SOL     OW 3622   0.557   0.270   7.766
  912SOL    HW1 3623   0.605   0.231   7.693
  912SOL    HW2 3624   0.528   0.355   7.733
  913SOL     OW 3625   1.750   1.236   9.018
  913SOL    HW1 3626   1.837   1.197   9.013
  913SOL    HW2 3627   1.765   1.326   9.047
  914SOL     OW 3628   1.055   1.354   8.783
  914SOL    HW1 3629   0.980   1.322   8.833
  914SOL    HW2 3630   1.131   1.311   8.823
  915SOL     OW 3631   1.604   1.623   9.104
  915SOL    HW1 3632   1.588   1.650   9.014
  915SOL    HW2 3633   1.687   1.575   9.100
  916SOL     OW 3634   1.132   1.209   8.553
  916SOL    HW1 3635   1.070   1.243   8.616
  916SOL    HW2 3636   1.099   1.238   8.468
  917SOL     OW 3637   1.625   1.096   8.527
  917SOL    HW1 3638   1.619   1.160   8.598
  917SOL    HW2 3639   1.548   1.114   8.473
  918SOL     OW 3640   0.913   0.115   8.849
  918SOL    HW1 3641   0.932   0.088   8.759
  918SOL    HW2 3642   0.993   0.157   8.880
  919SOL     OW 3643   0.984   1.115   9.171
  919SOL    HW1 3644   0.893   1.131   9.194
  919SOL    HW2 3645   0.982   1.037   9.116
  920SOL     OW 3646   0.707   1.060   7.819
  920SOL    HW1 3647   0.694   1.044   7.912
  920SOL    HW2 3648   0.783   1.007   7.796
  921SOL     OW 3649   0.422   0.817   8.701
  921SOL    HW1 3650   0.491   0.823   8.767
  921SOL    HW2 3651   0.388   0.728   8.710
  922SOL     OW 3652   1.266   0.375   8.725
  922SOL    HW1 3653   1.300   0.453   8.769
  922SOL    HW2 3654   1.178   0.400   8.695
  923SOL     OW 3655   0.065   1.580   8.794
  923SOL    HW1 3656   0.071   1.635   8.716
  923SOL    HW2 3657   0.156   1.567   8.821
  924SOL     OW 3658   0.369   1.103   7.931
  924SOL    HW1 3659   0.367   1.182   7.877
  924SOL    HW2 3660   0.369   1.031   7.867
  925SOL     OW 3661   0.554   0.534   8.306
  925SOL    HW1 3662   0.568   0.593   8.232
  925SOL    HW2 3663   0.620   0.561   8.370
  926SOL     OW 3664   1.251   1.354   7.840
  926SOL    HW1 3665   1.291   1.440   7.829
  926SOL    HW2 3666   1.163   1.373   7.875
  927SOL     OW 3667   1.277   1.461   8.598
  927SOL    HW1 3668   1.334   1.461   8.675
  927SOL    HW2 3669   1.224   1.382   8.607
  928SOL     OW 3670   1.575   0.634   7.935
  928SOL    HW1 3671   1.535   0.690   8.001
  928SOL    HW2 3672   1.628   0.694   7.882
  929SOL     OW 3673   0.345   1.527   8.766
  929SOL    HW1 3674   0.336   1.477   8.685
  929SOL    HW2 3675   0.440   1.542   8.774
  930SOL     OW 3676   0.417   0.737   9.049
  930SOL    HW1 3677   0.480   0.783   8.992
  930SOL    HW2 3678   0.455   0.650   9.062
  931SOL     OW 3679   1.604   0.780   9.133
  931SOL    HW1 3680   1.518   0.822   9.126
  931SOL    HW2 3681   1.656   0.821   9.064
  932SOL     OW 3682   1.011   0.133   9.227
  932SOL    HW1 3683   1.064   0.205   9.191
  932SOL    HW2 3684   1.001   0.073   9.153
  933SOL     OW 3685   0.483   0.037   9.213
  933SOL    HW1 3686   0.491   0.047   9.118
  933SOL    HW2 3687   0.421   0.105   9.239
  934SOL     OW 3688   0.585   0.875   8.480
  934SOL    HW1 3689   0.616   0.965   8.481
  934SOL    HW2 3690   0.529   0.867   8.557
  935SOL     OW 3691   1.354   0.856   8.477
  935SOL    HW1 3692   1.270   0.847   8.431
  935SOL    HW2 3693   1.396   0.771   8.467
  936SOL     OW 3694   1.201   0.537   7.707
  936SOL    HW1 3695   1.210   0.458   7.760
  936SOL    HW2 3696   1.157   0.600   7.764
  937SOL     OW 3697   0.311   0.212   8.688
  937SOL    HW1 3698   0.268   0.248   8.766
  937SOL    HW2 3699   0.296   0.118   8.694
  938SOL     OW 3700   0.059   1.306   8.729
  938SOL    HW1 3701   0.091   1.264   8.809
  938SOL    HW2 3702   0.052   1.398   8.751
  939SOL     OW 3703   0.725   0.634   8.501
  939SOL    HW1 3704   0.799   0.619   8.443
  939SOL    HW2 3705   0.695   0.722   8.480
  940SOL     OW 3706   1.737   0.959   9.303
  940SOL    HW1 3707   1.691   0.895   9.248
  940SOL    HW2 3708   1.677   0.975   9.376
  941SOL     OW 3709   0.330   0.055   8.103
  941SOL    HW1 3710   0.301   0.146   8.103
  941SOL    HW2 3711   0.293   0.017   8.183
  942SOL     OW 3712   1.607   0.392   7.828
  942SOL    HW1 3713   1.566   0.324   7.883
  942SOL    HW2 3714   1.587   0.474   7.873
  943SOL     OW 3715   1.029   0.759   8.407
  943SOL    HW1 3716   1.023   0.776   8.501
  943SOL    HW2 3717   1.002   0.668   8.397
  944SOL     OW 3718   0.982   1.567   9.167
  944SOL    HW1 3719   0.967   1.610   9.083
  944SOL    HW2 3720   1.025   1.484   9.144
  945SOL     OW 3721   1.848   1.495   9.058
  945SOL    HW1 3722   1.879   1.516   8.970
  945SOL    HW2 3723   1.921   1.517   9.116
  946SOL     OW 3724   0.353   0.922   9.246
  946SOL    HW1 3725   0.431   0.942   9.298
  946SOL    HW2 3726   0.382   0.854   9.185
  947SOL     OW 3727   1.505   0.274   7.583
  947SOL    HW1 3728   1.431   0.215   7.595
  947SOL    HW2 3729   1.518   0.314   7.669
  948SOL     OW 3730   1.289   0.825   7.480
  948SOL    HW1 3731   1.331   0.739   7.483
  948SOL    HW2 3732   1.317   0.863   7.397
  949SOL     OW 3733   1.067   1.338   8.300
  949SOL    HW1 3734   1.069   1.263   8.240
  949SOL    HW2 3735   1.131   1.399   8.264
  950SOL     OW 3736   0.313   0.803   8.398
  950SOL    HW1 3737   0.407   0.819   8.392
  950SOL    HW2 3738   0.306   0.713   8.430
  951SOL     OW 3739   0.338   0.528   8.463
  951SOL    HW1 3740   0.297   0.444   8.445
  951SOL    HW2 3741   0.413   0.532   8.404
  952SOL     OW 3742   1.133   0.380   9.145
  952SOL    HW1 3743   1.085   0.435   9.207
  952SOL    HW2 3744   1.220   0.420   9.140
  953SOL     OW 3745   1.151   0.225   8.930
  953SOL    HW1 3746   1.142   0.280   9.008
  953SOL    HW2 3747   1.176   0.287   8.861
  954SOL     OW 3748   0.000   1.317   7.631
  954SOL    HW1 3749   3.906   1.334   7.634
  954SOL    HW2 3750   0.009   1.224   7.648
  955SOL     OW 3751   0.078   1.800   8.337
  955SOL    HW1 3752   0.084   1.705   8.339
  955SOL    HW2 3753   0.169   1.830   8.341
  956SOL     OW 3754   0.501   1.571   8.359
  956SOL    HW1 3755   0.570   1.632   8.384
  956SOL    HW2 3756   0.543   1.509   8.300
  957SOL     OW 3757   0.978   0.789   8.672
  957SOL    HW1 3758   1.035   0.769   8.747
  957SOL    HW2 3759   0.893   0.750   8.695
  958SOL     OW 3760   0.035   0.574   8.560
  958SOL    HW1 3761   0.097   0.522   8.509
  958SOL    HW2 3762   0.061   0.560   8.651
  959SOL     OW 3763   0.211   0.516   9.170
  959SOL    HW1 3764   0.258   0.477   9.096
  959SOL    HW2 3765   0.164   0.591   9.132
  960SOL     OW 3766   1.379   0.937   9.105
  960SOL    HW1 3767   1.400   1.030   9.102
  960SOL    HW2 3768   1.375   0.910   9.013
  961SOL     OW 3769   0.818   0.572   7.811
  961SOL    HW1 3770   0.824   0.496   7.753
  961SOL    HW2 3771   0.744   0.622   7.777
  962SOL     OW 3772   1.640   0.602   8.631
  962SOL    HW1 3773   1.631   0.541   8.705
  962SOL    HW2 3774   1.727   0.584   8.597
  963SOL     OW 3775   0.300   1.544   9.173
  963SOL    HW1 3776   0.252   1.614   9.218
  963SOL    HW2 3777   0.269   1.463   9.214
  964SOL     OW 3778   0.710   0.454   8.704
  964SOL    HW1 3779   0.660   0.376   8.679
  964SOL    HW2 3780   0.700   0.513   8.630
  965SOL     OW 3781   0.926   1.680   8.917
  965SOL    HW1 3782   0.900   1.642   8.833
  965SOL    HW2 3783   0.920   1.774   8.904
  966SOL     OW 3784   0.454   0.492   7.646
  966SOL    HW1 3785   0.518   0.561   7.663
  966SOL    HW2 3786   0.374   0.539   7.622
  967SOL     OW 3787   0.156   1.135   8.922
  967SOL    HW1 3788   0.157   1.084   9.004
  967SOL    HW2 3789   0.171   1.070   8.854
  968SOL     OW 3790   1.323   1.045   8.670
  968SOL    HW1 3791   1.347   0.982   8.602
  968SOL    HW2 3792   1.256   1.100   8.630
  969SOL     OW 3793   1.316   0.859   7.754
  969SOL    HW1 3794   1.241   0.829   7.805
  969SOL    HW2 3795   1.290   0.846   7.663
  970SOL     OW 3796   1.243   1.734   8.554
  970SOL    HW1 3797   1.327   1.755   8.513
  970SOL    HW2 3798   1.250   1.642   8.577
  971SOL     OW 3799   0.077   1.216   8.476
  971SOL    HW1 3800   0.083   1.242   8.568
  971SOL    HW2 3801   3.985   1.226   8.454
  972SOL     OW 3802   0.680   1.668   9.182
  972SOL    HW1 3803   0.621   1.743   9.174
  972SOL    HW2 3804   0.746   1.682   9.115
  973SOL     OW 3805   1.714   0.124   7.936
  973SOL    HW1 3806   1.792   0.134   7.882
  973SOL    HW2 3807   1.705   0.030   7.949
  974SOL     OW 3808   0.175   1.763   9.278
  974SOL    HW1 3809   0.118   1.712   9.336
  974SOL    HW2 3810   0.216   1.828   9.335
  975SOL     OW 3811   1.277   0.928   8.121
  975SOL    HW1 3812   1.351   0.868   8.130
  975SOL    HW2 3813   1.310   1.000   8.068
  976SOL     OW 3814   0.809   1.274   8.876
  976SOL    HW1 3815   0.781   1.315   8.958
  976SOL    HW2 3816   0.738   1.291   8.814
  977SOL     OW 3817   0.668   1.623   7.605
  977SOL    HW1 3818   0.683   1.635   7.511
  977SOL    HW2 3819   0.614   1.545   7.611
  978SOL     OW 3820   1.580   1.719   8.840
  978SOL    HW1 3821   1.648   1.713   8.773
  978SOL    HW2 3822   1.566   1.813   8.852
  979SOL     OW 3823   1.839   0.178   8.414
  979SOL    HW1 3824   1.872   0.111   8.354
  979SOL    HW2 3825   1.751   0.197   8.383
  980SOL     OW 3826   0.275   0.322   8.162
  980SOL    HW1 3827   0.189   0.357   8.136
  980SOL    HW2 3828   0.266   0.306   8.256
  981SOL     OW 3829   1.114   1.590   7.516
  981SOL    HW1 3830   1.171   1.513   7.520
  981SOL    HW2 3831   1.071   1.583   7.430
  982SOL     OW 3832   0.823   1.005   8.822
  982SOL    HW1 3833   0.867   1.000   8.737
  982SOL    HW2 3834   0.822   1.099   8.842
  983SOL     OW 3835   0.915   0.910   7.741
  983SOL    HW1 3836   0.975   0.942   7.673
  983SOL    HW2 3837   0.964   0.841   7.786
  984SOL     OW 3838   0.374   1.303   8.940
  984SOL    HW1 3839   0.359   1.383   8.889
  984SOL    HW2 3840   0.297   1.248   8.922
  985SOL     OW 3841   1.608   1.281   8.728
  985SOL    HW1 3842   1.669   1.269   8.801
  985SOL    HW2 3843   1.546   1.347   8.758
  986SOL     OW 3844   1.055   1.109   8.157
  986SOL    HW1 3845   0.984   1.057   8.194
  986SOL    HW2 3846   1.119   1.044   8.128
  987SOL     OW 3847   1.014   0.249   8.418
  987SOL    HW1 3848   1.004   0.199   8.337
  987SOL    HW2 3849   1.010   0.184   8.487
  988SOL     OW 3850   0.603   1.485   7.932
  988SOL    HW1 3851   0.652   1.438   7.865
  988SOL    HW2 3852   0.532   1.528   7.884
  989SOL     OW 3853   1.721   0.394   8.820
  989SOL    HW1 3854   1.793   0.456   8.824
  989SOL    HW2 3855   1.754   0.322   8.766
  990SOL     OW 3856   0.254   1.341   7.742
  990SOL    HW1 3857   0.160   1.348   7.722
  990SOL    HW2 3858   0.264   1.380   7.828
  991SOL     OW 3859   0.108   0.999   9.166
  991SOL    HW1 3860   0.048   0.991   9.240
  991SOL    HW2 3861   0.194   0.981   9.203
  992SOL     OW 3862   0.694   0.253   8.949
  992SOL    HW1 3863   0.762   0.200   8.908
  992SOL    HW2 3864   0.723   0.262   9.040
  993SOL     OW 3865   0.088   0.321   7.474
  993SOL    HW1 3866   3.993   0.319   7.467
  993SOL    HW2 3867   0.114   0.404   7.433
  994SOL     OW 3868   1.427   0.857   8.846
  994SOL    HW1 3869   1.378   0.918   8.791
  994SOL    HW2 3870   1.516   0.859   8.811
  995SOL     OW 3871   0.037   0.169   7.732
  995SOL    HW1 3872   0.037   0.231   7.660
  995SOL    HW2 3873   0.113   0.192   7.785
  996SOL     OW 3874   1.188   1.315   7.567
  996SOL    HW1 3875   1.094   1.298   7.566
  996SOL    HW2 3876   1.210   1.323   7.660
  997SOL     OW 3877   0.621   0.829   8.885
  997SOL    HW1 3878   0.677   0.904   8.869
  997SOL    HW2 3879   0.681   0.755   8.893
  998SOL     OW 3880   1.491   1.779   8.425
  998SOL    HW1 3881   1.515   1.854   8.370
  998SOL    HW2 3882   1.574   1.734   8.440
  999SOL     OW 3883   0.717   0.562   9.155
  999SOL    HW1 3884   0.762   0.624   9.213
  999SOL    HW2 3885   0.744   0.476   9.187
 1000SOL     OW 3886   1.472   1.198   9.079
 1000SOL    HW1 3887   1.461   1.211   9.173
 1000SOL    HW2 3888   1.566   1.213   9.064
 1001SOL     OW 3889   0.378   1.743   9.005
 1001SOL    HW1 3890   0.291   1.781   8.992
 1001SOL    HW2 3891   0.362   1.661   9.051
 1002SOL     OW 3892   1.667   0.881   8.704
 1002SOL    HW1 3893   1.662   0.796   8.660
 1002SOL    HW2 3894   1.657   0.945   8.633
 1003SOL     OW 3895   1.223   0.336   7.891
 1003SOL    HW1 3896   1.291   0.269   7.884
 1003SOL    HW2 3897   1.242   0.381   7.973
 1004SOL     OW 3898   0.590   0.738   8.119
 1004SOL    HW1 3899   0.628   0.824   8.103
 1004SOL    HW2 3900   0.523   0.728   8.052
 1005SOL     OW 3901   1.751   0.383   9.091
 1005SOL    HW1 3902   1.733   0.389   8.997
 1005SOL    HW2 3903   1.694   0.313   9.122
 1006SOL     OW 3904   1.746   0.934   8.960
 1006SOL    HW1 3905   1.738   1.028   8.973
 1006SOL    HW2 3906   1.729   0.920   8.866
 1007SOL     OW 3907   0.858   1.366   7.484
 1007SOL    HW1 3908   0.827   1.400   7.567
 1007SOL    HW2 3909   0.882   1.443   7.433
 1008SOL     OW 3910   0.663   1.788   8.391
 1008SOL    HW1 3911   0.642   1.879   8.368
 1008SOL    HW2 3912   0.758   1.782   8.380
 1009SOL     OW 3913   0.868   0.968   8.302
 1009SOL    HW1 3914   0.919   0.896   8.340
 1009SOL    HW2 3915   0.832   1.014   8.377
 1010SOL     OW 3916   1.075   0.984   7.538
 1010SOL    HW1 3917   1.055   1.038   7.461
 1010SOL    HW2 3918   1.152   0.933   7.512
 1011SOL     OW 3919   1.860   1.530   8.279
 1011SOL    HW1 3920   1.771   1.552   8.252
 1011SOL    HW2 3921   1.854   1.511   8.373
 1012SOL     OW 3922   0.226   1.304   9.304
 1012SOL    HW1 3923   0.154   1.247   9.277
 1012SOL    HW2 3924   0.212   1.317   9.398
 1013SOL     OW 3925   0.118   1.279   8.170
 1013SOL    HW1 3926   0.136   1.226   8.249
 1013SOL    HW2 3927   0.105   1.214   8.101
 1014SOL     OW 3928   0.682   1.405   9.078
 1014SOL    HW1 3929   0.602   1.362   9.108
 1014SOL    HW2 3930   0.677   1.493   9.115
 1015SOL     OW 3931   1.811   0.183   8.686
 1015SOL    HW1 3932   1.814   0.089   8.702
 1015SOL    HW2 3933   1.826   0.193   8.592
 1016SOL     OW 3934   0.444   0.437   7.979
 1016SOL    HW1 3935   0.461   0.362   7.923
 1016SOL    HW2 3936   0.389   0.403   8.049
 1017SOL     OW 3937   1.700   1.503   8.553
 1017SOL    HW1 3938   1.621   1.477   8.505
 1017SOL    HW2 3939   1.717   1.429   8.612
 1018SOL     OW 3940   0.333   0.557   8.741
 1018SOL    HW1 3941   0.389   0.501   8.794
 1018SOL    HW2 3942   0.348   0.529   8.651
 1019SOL     OW 3943   0.830   1.576   8.123
 1019SOL    HW1 3944   0.820   1.633   8.047
 1019SOL    HW2 3945   0.753   1.520   8.121
 1020SOL     OW 3946   1.461   0.254   8.558
 1020SOL    HW1 3947   1.478   0.167   8.595
 1020SOL    HW2 3948   1.405   0.296   8.624
 1021SOL     OW 3949   1.003   0.028   8.594
 1021SOL    HW1 3950   0.923   3.991   8.558
 1021SOL    HW2 3951   1.063   3.953   8.603
 1022SOL     OW 3952   0.770   1.332   7.769
 1022SOL    HW1 3953   0.740   1.241   7.772
 1022SOL    HW2 3954   0.855   1.331   7.812
 1023SOL     OW 3955   0.621   1.556   8.734
 1023SOL    HW1 3956   0.622   1.638   8.783
 1023SOL    HW2 3957   0.708   1.549   8.696
 1024SOL     OW 3958   1.311   0.073   7.614
 1024SOL    HW1 3959   1.320   3.995   7.560
 1024SOL    HW2 3960   1.226   0.064   7.656
 1025SOL     OW 3961   1.281   0.456   8.133
 1025SOL    HW1 3962   1.235   0.540   8.128
 1025SOL    HW2 3963   1.284   0.437   8.227
 1026SOL     OW 3964   1.588   0.210   8.316
 1026SOL    HW1 3965   1.539   0.234   8.394
 1026SOL    HW2 3966   1.588   0.289   8.262
 1027SOL     OW 3967   0.047   1.049   7.688
 1027SOL    HW1 3968   0.141   1.033   7.679
 1027SOL    HW2 3969   0.012   0.966   7.720
 1028SOL     OW 3970   0.865   1.643   7.812
 1028SOL    HW1 3971   0.801   1.632   7.741
 1028SOL    HW2 3972   0.840   1.725   7.855
 1029SOL     OW 3973   0.232   0.628   9.427
 1029SOL    HW1 3974   0.139   0.632   9.448
 1029SOL    HW2 3975   0.235   0.598   9.336
 1030SOL     OW 3976   0.224   0.289  10.293
 1030SOL    HW1 3977   0.246   0.250  10.377
 1030SOL    HW2 3978   0.129   0.278  10.286
 1031SOL     OW 3979   0.019   0.385   9.946
 1031SOL    HW1 3980   3.928   0.399   9.974
 1031SOL    HW2 3981   0.025   0.291   9.931
 1032SOL     OW 3982   0.581   1.289  10.501
 1032SOL    HW1 3983   0.494   1.291  10.460
 1032SOL    HW2 3984   0.594   1.378  10.533
 1033SOL     OW 3985   1.543   1.496  10.019
 1033SOL    HW1 3986   1.515   1.476  10.108
 1033SOL    HW2 3987   1.463   1.490   9.967
 1034SOL     OW 3988   1.133   0.698  10.007
 1034SOL    HW1 3989   1.180   0.780   9.995
 1034SOL    HW2 3990   1.085   0.711  10.089
 1035SOL     OW 3991   1.767   0.619   9.535
 1035SOL    HW1 3992   1.745   0.611   9.442
 1035SOL    HW2 3993   1.752   0.531   9.570
 1036SOL     OW 3994   0.753   1.139  10.352
 1036SOL    HW1 3995   0.690   1.175  10.414
 1036SOL    HW2 3996   0.789   1.216  10.307
 1037SOL     OW 3997   0.871   0.770  11.134
 1037SOL    HW1 3998   0.861   0.841  11.197
 1037SOL    HW2 3999   0.893   0.814  11.051
 1038SOL     OW 4000   0.685   1.002   9.956
 1038SOL    HW1 4001   0.751   0.991  10.024
 1038SOL    HW2 4002   0.616   1.054   9.997
 1039SOL     OW 4003   0.711   1.149  11.126
 1039SOL    HW1 4004   0.759   1.227  11.155
 1039SOL    HW2 4005   0.630   1.183  11.088
 1040SOL     OW 4006   0.351   1.401  10.389
 1040SOL    HW1 4007   0.270   1.380  10.342
 1040SOL    HW2 4008   0.399   1.459  10.329
 1041SOL     OW 4009   1.450   1.487  10.669
 1041SOL    HW1 4010   1.495   1.571  10.673
 1041SOL    HW2 4011   1.384   1.492  10.737
 1042SOL     OW 4012   0.457   0.408  10.806
 1042SOL    HW1 4013   0.539   0.358  10.804
 1042SOL    HW2 4014   0.388   0.341  10.809
 1043SOL     OW 4015   1.612   0.451  10.045
 1043SOL    HW1 4016   1.542   0.482   9.987
 1043SOL    HW2 4017   1.630   0.524  10.104
 1044SOL     OW 4018   0.220   1.719   9.767
 1044SOL    HW1 4019   0.240   1.793   9.825
 1044SOL    HW2 4020   0.297   1.711   9.711
 1045SOL     OW 4021   1.137   1.342  11.004
 1045SOL    HW1 4022   1.178   1.336  11.090
 1045SOL    HW2 4023   1.085   1.262  10.996
 1046SOL     OW 4024   0.250   1.450   9.850
 1046SOL    HW1 4025   0.215   1.538   9.835
 1046SOL    HW2 4026   0.182   1.406   9.901
 1047SOL     OW 4027   0.247   1.066  10.194
 1047SOL    HW1 4028   0.267   0.981  10.233
 1047SOL    HW2 4029   0.195   1.111  10.260
 1048SOL     OW 4030   0.610   1.792  10.737
 1048SOL    HW1 4031   0.528   1.774  10.782
 1048SOL    HW2 4032   0.633   1.882  10.763
 1049SOL     OW 4033   0.577   0.986   9.449
 1049SOL    HW1 4034   0.625   1.030   9.379
 1049SOL    HW2 4035   0.618   1.016   9.530
 1050SOL     OW 4036   1.581   0.140  10.766
 1050SOL    HW1 4037   1.611   0.213  10.711
 1050SOL    HW2 4038   1.548   0.182  10.846
 1051SOL     OW 4039   0.140   0.652   9.879
 1051SOL    HW1 4040   0.098   0.566   9.884
 1051SOL    HW2 4041   0.102   0.701   9.952
 1052SOL     OW 4042   0.044   1.590   9.448
 1052SOL    HW1 4043   0.037   1.497   9.473
 1052SOL    HW2 4044   3.961   1.628   9.475
 1053SOL     OW 4045   1.685   0.913   9.950
 1053SOL    HW1 4046   1.772   0.877   9.934
 1053SOL    HW2 4047   1.667   0.968   9.873
 1054SOL     OW 4048   1.649   1.106   9.739
 1054SOL    HW1 4049   1.735   1.108   9.699
 1054SOL    HW2 4050   1.655   1.166   9.813
 1055SOL     OW 4051   0.141   0.756  10.899
 1055SOL    HW1 4052   0.236   0.751  10.894
 1055SOL    HW2 4053   0.123   0.844  10.931
 1056SOL     OW 4054   0.613   1.387  10.046
 1056SOL    HW1 4055   0.567   1.303  10.055
 1056SOL    HW2 4056   0.598   1.413   9.956
 1057SOL     OW 4057   1.284   1.234  10.734
 1057SOL    HW1 4058   1.317   1.168  10.673
 1057SOL    HW2 4059   1.344   1.230  10.809
 1058SOL     OW 4060   0.820   0.004   9.826
 1058SOL    HW1 4061   0.865   0.084   9.802
 1058SOL    HW2 4062   0.727   0.027   9.826
 1059SOL     OW 4063   0.184   0.950  10.588
 1059SOL    HW1 4064   0.272   0.915  10.576
 1059SOL    HW2 4065   0.132   0.908  10.520
 1060SOL     OW 4066   1.531   0.996   9.510
 1060SOL    HW1 4067   1.462   0.939   9.543
 1060SOL    HW2 4068   1.574   1.030   9.589
 1061SOL     OW 4069   1.186   1.809  10.934
 1061SOL    HW1 4070   1.194   1.869  10.859
 1061SOL    HW2 4071   1.202   1.722  10.897
 1062SOL     OW 4072   0.345   0.251  11.150
 1062SOL    HW1 4073   0.388   0.334  11.131
 1062SOL    HW2 4074   0.254   0.274  11.167
 1063SOL     OW 4075   1.468   1.420  10.268
 1063SOL    HW1 4076   1.399   1.435  10.332
 1063SOL    HW2 4077   1.457   1.328  10.242
 1064SOL     OW 4078   1.580   1.715   9.867
 1064SOL    HW1 4079   1.584   1.673   9.781
 1064SOL    HW2 4080   1.581   1.643   9.929
 1065SOL     OW 4081   0.596   0.717   9.576
 1065SOL    HW1 4082   0.601   0.801   9.531
 1065SOL    HW2 4083   0.533   0.731   9.647
 1066SOL     OW 4084   1.274   0.369  10.251
 1066SOL    HW1 4085   1.187   0.330  10.258
 1066SOL    HW2 4086   1.332   0.307  10.297
 1067SOL     OW 4087   1.565   1.648   9.605
 1067SOL    HW1 4088   1.643   1.701   9.588
 1067SOL    HW2 4089   1.530   1.629   9.518
 1068SOL     OW 4090   0.794   0.616  10.763
 1068SOL    HW1 4091   0.765   0.590  10.851
 1068SOL    HW2 4092   0.756   0.550  10.705
 1069SOL     OW 4093   1.392   0.476  10.987
 1069SOL    HW1 4094   1.398   0.521  11.071
 1069SOL    HW2 4095   1.450   0.400  10.996
 1070SOL     OW 4096   0.952   0.887  10.894
 1070SOL    HW1 4097   1.007   0.818  10.857
 1070SOL    HW2 4098   0.904   0.922  10.820
 1071SOL     OW 4099   0.992   0.403  10.548
 1071SOL    HW1 4100   0.907   0.423  10.586
 1071SOL    HW2 4101   0.972   0.374  10.459
 1072SOL     OW 4102   1.052   0.700   9.735
 1072SOL    HW1 4103   1.069   0.692   9.829
 1072SOL    HW2 4104   0.970   0.653   9.722
 1073SOL     OW 4105   0.081   0.829  10.100
 1073SOL    HW1 4106   0.154   0.795  10.153
 1073SOL    HW2 4107   0.102   0.921  10.086
 1074SOL     OW 4108   0.130   1.863  10.887
 1074SOL    HW1 4109   0.138   1.828  10.976
 1074SOL    HW2 4110   0.038   1.851  10.865
 1075SOL     OW 4111   0.894   0.352   9.508
 1075SOL    HW1 4112   0.936   0.412   9.446
 1075SOL    HW2 4113   0.893   0.268   9.463
 1076SOL     OW 4114   1.708   0.575  11.139
 1076SOL    HW1 4115   1.670   0.648  11.091
 1076SOL    HW2 4116   1.732   0.512  11.072
 1077SOL     OW 4117   1.378   1.141   9.850
 1077SOL    HW1 4118   1.459   1.132   9.799
 1077SOL    HW2 4119   1.324   1.201   9.798
 1078SOL     OW 4120   0.561   0.195  10.191
 1078SOL    HW1 4121   0.566   0.219  10.283
 1078SOL    HW2 4122   0.547   0.278  10.145
 1079SOL     OW 4123   0.998   1.440   9.779
 1079SOL    HW1 4124   0.967   1.517   9.730
 1079SOL    HW2 4125   0.984   1.463   9.871
 1080SOL     OW 4126   0.365   1.820  10.180
 1080SOL    HW1 4127   0.428   1.748  10.189
 1080SOL    HW2 4128   0.416   1.899  10.196
 1081SOL     OW 4129   1.801   1.047  10.182
 1081SOL    HW1 4130   1.747   1.043  10.104
 1081SOL    HW2 4131   1.738   1.057  10.254
 1082SOL     OW 4132   1.225   1.538  10.824
 1082SOL    HW1 4133   1.212   1.466  10.886
 1082SOL    HW2 4134   1.160   1.524  10.756
 1083SOL     OW 4135   0.310   0.954   9.552
 1083SOL    HW1 4136   0.394   0.976   9.511
 1083SOL    HW2 4137   0.298   0.861   9.532
 1084SOL     OW 4138   1.478   0.747  10.039
 1084SOL    HW1 4139   1.475   0.706  10.126
 1084SOL    HW2 4140   1.557   0.802  10.042
 1085SOL     OW 4141   0.468   1.261  11.047
 1085SOL    HW1 4142   0.442   1.269  10.956
 1085SOL    HW2 4143   0.386   1.264  11.096
 1086SOL     OW 4144   1.122   1.778   9.539
 1086SOL    HW1 4145   1.049   1.738   9.585
 1086SOL    HW2 4146   1.145   1.715   9.471
 1087SOL     OW 4147   0.201   0.294  10.810
 1087SOL    HW1 4148   0.107   0.314  10.809
 1087SOL    HW2 4149   0.209   0.222  10.872
 1088SOL     OW 4150   1.627   1.381   9.398
 1088SOL    HW1 4151   1.584   1.464   9.377
 1088SOL    HW2 4152   1.560   1.315   9.379
 1089SOL     OW 4153   0.466   1.739   9.626
 1089SOL    HW1 4154   0.509   1.795   9.690
 1089SOL    HW2 4155   0.537   1.703   9.573
 1090SOL     OW 4156   1.441   0.166   9.715
 1090SOL    HW1 4157   1.394   0.100   9.666
 1090SOL    HW2 4158   1.512   0.119   9.759
 1091SOL     OW 4159   0.252   1.791  10.541
 1091SOL    HW1 4160   0.298   1.725  10.594
 1091SOL    HW2 4161   0.250   1.753  10.453
 1092SOL     OW 4162   0.938   1.699  10.208
 1092SOL    HW1 4163   1.017   1.649  10.229
 1092SOL    HW2 4164   0.895   1.649  10.138
 1093SOL     OW 4165   0.397   0.694   9.781
 1093SOL    HW1 4166   0.423   0.604   9.796
 1093SOL    HW2 4167   0.305   0.698   9.806
 1094SOL     OW 4168   1.529   0.229  11.037
 1094SOL    HW1 4169   1.525   0.254  11.129
 1094SOL    HW2 4170   1.511   0.135  11.037
 1095SOL     OW 4171   0.645   0.130   9.413
 1095SOL    HW1 4172   0.668   0.046   9.453
 1095SOL    HW2 4173   0.584   0.107   9.343
 1096SOL     OW 4174   0.776   0.284  11.077
 1096SOL    HW1 4175   0.850   0.223  11.079
 1096SOL    HW2 4176   0.720   0.255  11.149
 1097SOL     OW 4177   0.876   1.522  10.504
 1097SOL    HW1 4178   0.860   1.485  10.417
 1097SOL    HW2 4179   0.945   1.468  10.541
 1098SOL     OW 4180   1.339   0.587  10.741
 1098SOL    HW1 4181   1.370   0.558  10.827
 1098SOL    HW2 4182   1.375   0.676  10.731
 1099SOL     OW 4183   0.816   1.392  10.252
 1099SOL    HW1 4184   0.901   1.381  10.209
 1099SOL    HW2 4185   0.754   1.395  10.179
 1100SOL     OW 4186   0.930   0.512  10.210
 1100SOL    HW1 4187   0.906   0.504  10.118
 1100SOL    HW2 4188   0.956   0.423  10.236
 1101SOL     OW 4189   0.546   0.056   9.797
 1101SOL    HW1 4190   0.472   0.063   9.858
 1101SOL    HW2 4191   0.548   0.140   9.751
 1102SOL     OW 4192   1.428   1.198   9.351
 1102SOL    HW1 4193   1.458   1.123   9.401
 1102SOL    HW2 4194   1.342   1.220   9.388
 1103SOL     OW 4195   0.346   0.037   9.508
 1103SOL    HW1 4196   0.360   0.086   9.428
 1103SOL    HW2 4197   0.431   0.037   9.551
 1104SOL     OW 4198   0.942   0.249   9.771
 1104SOL    HW1 4199   0.916   0.290   9.688
 1104SOL    HW2 4200   1.038   0.254   9.770
 1105SOL     OW 4201   1.079   0.684  10.768
 1105SOL    HW1 4202   1.010   0.618  10.775
 1105SOL    HW2 4203   1.160   0.633  10.763
 1106SOL     OW 4204   1.223   1.570  10.103
 1106SOL    HW1 4205   1.235   1.637  10.037
 1106SOL    HW2 4206   1.291   1.587  10.168
 1107SOL     OW 4207   0.466   1.151  10.045
 1107SOL    HW1 4208   0.395   1.126  10.104
 1107SOL    HW2 4209   0.431   1.135   9.958
 1108SOL     OW 4210   1.260   1.790   9.922
 1108SOL    HW1 4211   1.311   1.850   9.868
 1108SOL    HW2 4212   1.195   1.846   9.965
 1109SOL     OW 4213   1.022   0.543   9.339
 1109SOL    HW1 4214   0.979   0.626   9.319
 1109SOL    HW2 4215   1.086   0.564   9.407
 1110SOL     OW 4216   0.081   0.573  10.703
 1110SOL    HW1 4217   0.170   0.555  10.673
 1110SOL    HW2 4218   0.090   0.645  10.766
 1111SOL     OW 4219   0.572   0.231  10.469
 1111SOL    HW1 4220   0.594   0.138  10.478
 1111SOL    HW2 4221   0.481   0.237  10.499
 1112SOL     OW 4222   0.871   0.461   9.948
 1112SOL    HW1 4223   0.820   0.514   9.887
 1112SOL    HW2 4224   0.891   0.381   9.901
 1113SOL     OW 4225   0.996   0.039  10.091
 1113SOL    HW1 4226   0.960   0.069  10.007
 1113SOL    HW2 4227   1.007   3.945  10.080
 1114SOL     OW 4228   1.439   1.164  10.169
 1114SOL    HW1 4229   1.369   1.099  10.165
 1114SOL    HW2 4230   1.468   1.173  10.078
 1115SOL     OW 4231   1.465   0.607  10.284
 1115SOL    HW1 4232   1.410   0.528  10.289
 1115SOL    HW2 4233   1.524   0.600  10.359
 1116SOL     OW 4234   1.845   0.818   9.697
 1116SOL    HW1 4235   1.901   0.766   9.754
 1116SOL    HW2 4236   1.816   0.757   9.629
 1117SOL     OW 4237   0.487   1.421   9.469
 1117SOL    HW1 4238   0.412   1.390   9.519
 1117SOL    HW2 4239   0.473   1.388   9.381
 1118SOL     OW 4240   1.672   1.258   9.959
 1118SOL    HW1 4241   1.767   1.259   9.971
 1118SOL    HW2 4242   1.645   1.347   9.982
 1119SOL     OW 4243   1.395   0.576   9.379
 1119SOL    HW1 4244   1.332   0.556   9.448
 1119SOL    HW2 4245   1.480   0.557   9.418
 1120SOL     OW 4246   0.557   0.271   9.628
 1120SOL    HW1 4247   0.605   0.231   9.555
 1120SOL    HW2 4248   0.528   0.355   9.594
 1121SOL     OW 4249   1.749   1.236  10.880
 1121SOL    HW1 4250   1.837   1.198  10.875
 1121SOL    HW2 4251   1.765   1.326  10.910
 1122SOL     OW 4252   1.056   1.354  10.644
 1122SOL    HW1 4253   0.981   1.322  10.694
 1122SOL    HW2 4254   1.131   1.311  10.685
 1123SOL     OW 4255   1.604   1.625  10.964
 1123SOL    HW1 4256   1.587   1.651  10.874
 1123SOL    HW2 4257   1.687   1.578  10.961
 1124SOL     OW 4258   1.132   1.207  10.414
 1124SOL    HW1 4259   1.071   1.243  10.478
 1124SOL    HW2 4260   1.100   1.239  10.330
 1125SOL     OW 4261   1.625   1.096  10.386
 1125SOL    HW1 4262   1.620   1.159  10.458
 1125SOL    HW2 4263   1.549   1.115  10.331
 1126SOL     OW 4264   0.913   0.115  10.711
 1126SOL    HW1 4265   0.932   0.088  10.621
 1126SOL    HW2 4266   0.993   0.157  10.742
 1127SOL     OW 4267   0.984   1.115  11.033
 1127SOL    HW1 4268   0.893   1.131  11.056
 1127SOL    HW2 4269   0.982   1.037  10.978
 1128SOL     OW 4270   0.708   1.061   9.681
 1128SOL    HW1 4271   0.694   1.044   9.774
 1128SOL    HW2 4272   0.784   1.008   9.657
 1129SOL     OW 4273   0.422   0.817  10.563
 1129SOL    HW1 4274   0.491   0.823  10.629
 1129SOL    HW2 4275   0.388   0.728  10.572
 1130SOL     OW 4276   1.266   0.375  10.587
 1130SOL    HW1 4277   1.300   0.453  10.631
 1130SOL    HW2 4278   1.178   0.400  10.557
 1131SOL     OW 4279   0.065   1.580  10.656
 1131SOL    HW1 4280   0.071   1.635  10.578
 1131SOL    HW2 4281   0.156   1.567  10.683
 1132SOL     OW 4282   0.370   1.103   9.792
 1132SOL    HW1 4283   0.365   1.182   9.738
 1132SOL    HW2 4284   0.370   1.031   9.730
 1133SOL     OW 4285   0.554   0.534  10.168
 1133SOL    HW1 4286   0.568   0.593  10.094
 1133SOL    HW2 4287   0.620   0.561  10.232
 1134SOL     OW 4288   1.239   1.337   9.697
 1134SOL    HW1 4289   1.292   1.411   9.725
 1134SOL    HW2 4290   1.151   1.357   9.730
 1135SOL     OW 4291   1.279   1.460  10.458
 1135SOL    HW1 4292   1.336   1.461  10.535
 1135SOL    HW2 4293   1.225   1.382  10.468
 1136SOL     OW 4294   1.575   0.634   9.796
 1136SOL    HW1 4295   1.532   0.690   9.862
 1136SOL    HW2 4296   1.623   0.695   9.740
 1137SOL     OW 4297   0.345   1.527  10.628
 1137SOL    HW1 4298   0.335   1.477  10.548
 1137SOL    HW2 4299   0.440   1.542  10.636
 1138SOL     OW 4300   0.417   0.737  10.911
 1138SOL    HW1 4301   0.480   0.783  10.854
 1138SOL    HW2 4302   0.455   0.650  10.924
 1139SOL     OW 4303   1.604   0.780  10.995
 1139SOL    HW1 4304   1.518   0.822  10.988
 1139SOL    HW2 4305   1.656   0.821  10.926
 1140SOL     OW 4306   1.011   0.134  11.089
 1140SOL    HW1 4307   1.064   0.205  11.054
 1140SOL    HW2 4308   1.001   0.073  11.015
 1141SOL     OW 4309   0.483   0.036  11.075
 1141SOL    HW1 4310   0.490   0.047  10.980
 1141SOL    HW2 4311   0.421   0.105  11.101
 1142SOL     OW 4312   0.585   0.875  10.341
 1142SOL    HW1 4313   0.617   0.965  10.344
 1142SOL    HW2 4314   0.529   0.867  10.419
 1143SOL     OW 4315   1.353   0.858  10.337
 1143SOL    HW1 4316   1.269   0.846  10.293
 1143SOL    HW2 4317   1.397   0.773  10.329
 1144SOL     OW 4318   1.200   0.537   9.568
 1144SOL    HW1 4319   1.209   0.458   9.621
 1144SOL    HW2 4320   1.157   0.600   9.626
 1145SOL     OW 4321   0.311   0.212  10.550
 1145SOL    HW1 4322   0.268   0.248  10.628
 1145SOL    HW2 4323   0.296   0.118  10.556
 1146SOL     OW 4324   0.061   1.306  10.590
 1146SOL    HW1 4325   0.091   1.264  10.671
 1146SOL    HW2 4326   0.052   1.398  10.613
 1147SOL     OW 4327   0.725   0.634  10.363
 1147SOL    HW1 4328   0.799   0.619  10.305
 1147SOL    HW2 4329   0.695   0.722  10.342
 1148SOL     OW 4330   1.737   0.959  11.164
 1148SOL    HW1 4331   1.691   0.895  11.110
 1148SOL    HW2 4332   1.678   0.975  11.238
 1149SOL     OW 4333   0.330   0.055   9.965
 1149SOL    HW1 4334   0.301   0.146   9.965
 1149SOL    HW2 4335   0.293   0.017  10.045
 1150SOL     OW 4336   1.607   0.392   9.690
 1150SOL    HW1 4337   1.567   0.324   9.745
 1150SOL    HW2 4338   1.587   0.474   9.736
 1151SOL     OW 4339   1.029   0.759  10.269
 1151SOL    HW1 4340   1.023   0.776  10.363
 1151SOL    HW2 4341   1.002   0.668  10.259
 1152SOL     OW 4342   0.982   1.567  11.029
 1152SOL    HW1 4343   0.967   1.610  10.945
 1152SOL    HW2 4344   1.025   1.484  11.006
 1153SOL     OW 4345   1.849   1.496  10.918
 1153SOL    HW1 4346   1.878   1.516  10.829
 1153SOL    HW2 4347   1.924   1.517  10.973
 1154SOL     OW 4348   0.353   0.922  11.108
 1154SOL    HW1 4349   0.431   0.942  11.160
 1154SOL    HW2 4350   0.382   0.854  11.047
 1155SOL     OW 4351   1.505   0.275   9.445
 1155SOL    HW1 4352   1.431   0.215   9.457
 1155SOL    HW2 4353   1.518   0.314   9.531
 1156SOL     OW 4354   1.288   0.827   9.338
 1156SOL    HW1 4355   1.331   0.741   9.342
 1156SOL    HW2 4356   1.320   0.866   9.257
 1157SOL     OW 4357   1.066   1.337  10.165
 1157SOL    HW1 4358   1.070   1.265  10.103
 1157SOL    HW2 4359   1.127   1.403  10.130
 1158SOL     OW 4360   0.313   0.803  10.260
 1158SOL    HW1 4361   0.407   0.819  10.254
 1158SOL    HW2 4362   0.306   0.713  10.292
 1159SOL     OW 4363   0.338   0.528  10.325
 1159SOL    HW1 4364   0.297   0.444  10.307
 1159SOL    HW2 4365   0.413   0.532  10.266
 1160SOL     OW 4366   1.133   0.380  11.008
 1160SOL    HW1 4367   1.085   0.435  11.069
 1160SOL    HW2 4368   1.220   0.420  11.002
 1161SOL     OW 4369   1.151   0.225  10.792
 1161SOL    HW1 4370   1.142   0.280  10.870
 1161SOL    HW2 4371   1.176   0.287  10.723
 1162SOL     OW 4372   0.000   1.317   9.492
 1162SOL    HW1 4373   3.906   1.333   9.496
 1162SOL    HW2 4374   0.009   1.224   9.511
 1163SOL     OW 4375   0.078   1.800  10.199
 1163SOL    HW1 4376   0.083   1.705  10.202
 1163SOL    HW2 4377   0.169   1.829  10.202
 1164SOL     OW 4378   0.500   1.571  10.220
 1164SOL    HW1 4379   0.570   1.632  10.246
 1164SOL    HW2 4380   0.543   1.508  10.162
 1165SOL     OW 4381   0.978   0.789  10.534
 1165SOL    HW1 4382   1.035   0.769  10.609
 1165SOL    HW2 4383   0.893   0.751  10.557
 1166SOL     OW 4384   0.035   0.574  10.422
 1166SOL    HW1 4385   0.097   0.522  10.372
 1166SOL    HW2 4386   0.061   0.560  10.513
 1167SOL     OW 4387   0.211   0.516  11.032
 1167SOL    HW1 4388   0.258   0.477  10.958
 1167SOL    HW2 4389   0.164   0.591  10.994
 1168SOL     OW 4390   1.379   0.937  10.967
 1168SOL    HW1 4391   1.400   1.030  10.964
 1168SOL    HW2 4392   1.375   0.910  10.875
 1169SOL     OW 4393   0.818   0.572   9.672
 1169SOL    HW1 4394   0.825   0.496   9.615
 1169SOL    HW2 4395   0.743   0.621   9.639
 1170SOL     OW 4396   1.640   0.602  10.493
 1170SOL    HW1 4397   1.631   0.541  10.567
 1170SOL    HW2 4398   1.728   0.584  10.459
 1171SOL     OW 4399   0.300   1.544  11.035
 1171SOL    HW1 4400   0.252   1.613  11.080
 1171SOL    HW2 4401   0.269   1.463  11.075
 1172SOL     OW 4402   0.710   0.454  10.566
 1172SOL    HW1 4403   0.660   0.376  10.541
 1172SOL    HW2 4404   0.700   0.513  10.492
 1173SOL     OW 4405   0.925   1.679  10.780
 1173SOL    HW1 4406   0.900   1.642  10.695
 1173SOL    HW2 4407   0.919   1.774  10.766
 1174SOL     OW 4408   0.453   0.492   9.508
 1174SOL    HW1 4409   0.518   0.561   9.525
 1174SOL    HW2 4410   0.374   0.539   9.483
 1175SOL     OW 4411   0.156   1.135  10.784
 1175SOL    HW1 4412   0.157   1.084  10.866
 1175SOL    HW2 4413   0.171   1.070  10.716
 1176SOL     OW 4414   1.323   1.045  10.532
 1176SOL    HW1 4415   1.346   0.982  10.464
 1176SOL    HW2 4416   1.255   1.100  10.492
 1177SOL     OW 4417   1.314   0.856   9.615
 1177SOL    HW1 4418   1.239   0.827   9.666
 1177SOL    HW2 4419   1.287   0.843   9.524
 1178SOL     OW 4420   1.243   1.735  10.419
 1178SOL    HW1 4421   1.326   1.756  10.377
 1178SOL    HW2 4422   1.249   1.642  10.438
 1179SOL     OW 4423   0.077   1.217  10.337
 1179SOL    HW1 4424   0.084   1.243  10.429
 1179SOL    HW2 4425   3.985   1.227  10.316
 1180SOL     OW 4426   0.680   1.668  11.044
 1180SOL    HW1 4427   0.621   1.743  11.036
 1180SOL    HW2 4428   0.746   1.681  10.977
 1181SOL     OW 4429   1.714   0.124   9.798
 1181SOL    HW1 4430   1.792   0.134   9.744
 1181SOL    HW2 4431   1.705   0.030   9.811
 1182SOL     OW 4432   1.362   1.558   9.783
 1182SOL    HW1 4433   1.426   1.588   9.718
 1182SOL    HW2 4434   1.329   1.638   9.823
 1183SOL     OW 4435   0.175   1.763  11.140
 1183SOL    HW1 4436   0.118   1.712  11.198
 1183SOL    HW2 4437   0.216   1.828  11.197
 1184SOL     OW 4438   1.277   0.928   9.981
 1184SOL    HW1 4439   1.351   0.868   9.992
 1184SOL    HW2 4440   1.312   0.999   9.928
 1185SOL     OW 4441   0.810   1.274  10.738
 1185SOL    HW1 4442   0.781   1.315  10.820
 1185SOL    HW2 4443   0.739   1.291  10.676
 1186SOL     OW 4444   0.670   1.622   9.465
 1186SOL    HW1 4445   0.681   1.635   9.371
 1186SOL    HW2 4446   0.615   1.545   9.473
 1187SOL     OW 4447   1.579   1.721  10.695
 1187SOL    HW1 4448   1.646   1.717  10.627
 1187SOL    HW2 4449   1.564   1.814  10.710
 1188SOL     OW 4450   1.839   0.177  10.276
 1188SOL    HW1 4451   1.872   0.111  10.216
 1188SOL    HW2 4452   1.751   0.197  10.245
 1189SOL     OW 4453   0.275   0.322  10.024
 1189SOL    HW1 4454   0.189   0.357   9.998
 1189SOL    HW2 4455   0.266   0.306  10.118
 1190SOL     OW 4456   1.207   1.604   9.341
 1190SOL    HW1 4457   1.196   1.513   9.368
 1190SOL    HW2 4458   1.141   1.616   9.273
 1191SOL     OW 4459   0.823   1.005  10.683
 1191SOL    HW1 4460   0.867   1.000  10.598
 1191SOL    HW2 4461   0.822   1.099  10.704
 1192SOL     OW 4462   0.915   0.910   9.600
 1192SOL    HW1 4463   0.976   0.943   9.534
 1192SOL    HW2 4464   0.964   0.842   9.646
 1193SOL     OW 4465   1.485   1.623   9.348
 1193SOL    HW1 4466   1.391   1.618   9.331
 1193SOL    HW2 4467   1.524   1.631   9.261
 1194SOL     OW 4468   0.374   1.303  10.802
 1194SOL    HW1 4469   0.359   1.383  10.751
 1194SOL    HW2 4470   0.297   1.248  10.784
 1195SOL     OW 4471   1.607   1.280  10.588
 1195SOL    HW1 4472   1.670   1.269  10.660
 1195SOL    HW2 4473   1.546   1.346  10.619
 1196SOL     OW 4474   1.056   1.109  10.018
 1196SOL    HW1 4475   0.984   1.058  10.056
 1196SOL    HW2 4476   1.120   1.044   9.989
 1197SOL     OW 4477   1.014   0.249  10.280
 1197SOL    HW1 4478   1.004   0.199  10.199
 1197SOL    HW2 4479   1.010   0.184  10.349
 1198SOL     OW 4480   0.606   1.488   9.792
 1198SOL    HW1 4481   0.652   1.438   9.724
 1198SOL    HW2 4482   0.532   1.528   9.746
 1199SOL     OW 4483   1.720   0.394  10.682
 1199SOL    HW1 4484   1.793   0.456  10.686
 1199SOL    HW2 4485   1.754   0.322  10.628
 1200SOL     OW 4486   0.254   1.341   9.603
 1200SOL    HW1 4487   0.160   1.348   9.584
 1200SOL    HW2 4488   0.264   1.380   9.690
 1201SOL     OW 4489   0.108   0.999  11.028
 1201SOL    HW1 4490   0.048   0.991  11.102
 1201SOL    HW2 4491   0.194   0.981  11.065
 1202SOL     OW 4492   0.694   0.253  10.811
 1202SOL    HW1 4493   0.762   0.200  10.770
 1202SOL    HW2 4494   0.723   0.262  10.902
 1203SOL     OW 4495   0.088   0.321   9.337
 1203SOL    HW1 4496   3.993   0.319   9.329
 1203SOL    HW2 4497   0.113   0.404   9.295
 1204SOL     OW 4498   1.427   0.857  10.708
 1204SOL    HW1 4499   1.378   0.918  10.654
 1204SOL    HW2 4500   1.516   0.859  10.673
 1205SOL     OW 4501   0.037   0.169   9.594
 1205SOL    HW1 4502   0.037   0.231   9.522
 1205SOL    HW2 4503   0.113   0.193   9.647
 1206SOL     OW 4504   1.177   1.337   9.426
 1206SOL    HW1 4505   1.087   1.307   9.427
 1206SOL    HW2 4506   1.204   1.335   9.518
 1207SOL     OW 4507   0.621   0.829  10.747
 1207SOL    HW1 4508   0.677   0.904  10.731
 1207SOL    HW2 4509   0.681   0.755  10.755
 1208SOL     OW 4510   1.489   1.782  10.291
 1208SOL    HW1 4511   1.513   1.851  10.229
 1208SOL    HW2 4512   1.569   1.730  10.301
 1209SOL     OW 4513   0.717   0.562  11.017
 1209SOL    HW1 4514   0.762   0.624  11.074
 1209SOL    HW2 4515   0.744   0.476  11.049
 1210SOL     OW 4516   1.472   1.198  10.941
 1210SOL    HW1 4517   1.461   1.212  11.035
 1210SOL    HW2 4518   1.565   1.213  10.926
 1211SOL     OW 4519   0.378   1.743  10.867
 1211SOL    HW1 4520   0.291   1.781  10.854
 1211SOL    HW2 4521   0.362   1.661  10.913
 1212SOL     OW 4522   1.666   0.881  10.565
 1212SOL    HW1 4523   1.662   0.796  10.522
 1212SOL    HW2 4524   1.657   0.944  10.495
 1213SOL     OW 4525   1.223   0.336   9.752
 1213SOL    HW1 4526   1.291   0.269   9.745
 1213SOL    HW2 4527   1.242   0.381   9.835
 1214SOL     OW 4528   0.590   0.738   9.981
 1214SOL    HW1 4529   0.628   0.824   9.965
 1214SOL    HW2 4530   0.523   0.728   9.914
 1215SOL     OW 4531   1.751   0.383  10.953
 1215SOL    HW1 4532   1.733   0.389  10.859
 1215SOL    HW2 4533   1.694   0.313  10.984
 1216SOL     OW 4534   1.746   0.934  10.822
 1216SOL    HW1 4535   1.737   1.028  10.835
 1216SOL    HW2 4536   1.730   0.920  10.728
 1217SOL     OW 4537   0.863   1.366   9.348
 1217SOL    HW1 4538   0.825   1.394   9.431
 1217SOL    HW2 4539   0.879   1.447   9.301
 1218SOL     OW 4540   0.663   1.788  10.252
 1218SOL    HW1 4541   0.643   1.879  10.230
 1218SOL    HW2 4542   0.758   1.782  10.245
 1219SOL     OW 4543   0.869   0.968  10.163
 1219SOL    HW1 4544   0.919   0.896  10.202
 1219SOL    HW2 4545   0.832   1.015  10.238
 1220SOL     OW 4546   1.077   0.988   9.399
 1220SOL    HW1 4547   1.056   1.040   9.321
 1220SOL    HW2 4548   1.152   0.934   9.372
 1221SOL     OW 4549   1.860   1.514  10.137
 1221SOL    HW1 4550   1.789   1.575  10.114
 1221SOL    HW2 4551   1.850   1.501  10.231
 1222SOL     OW 4552   0.226   1.304  11.166
 1222SOL    HW1 4553   0.154   1.247  11.139
 1222SOL    HW2 4554   0.213   1.317  11.260
 1223SOL     OW 4555   0.121   1.280  10.031
 1223SOL    HW1 4556   0.135   1.228  10.111
 1223SOL    HW2 4557   0.106   1.215   9.963
 1224SOL     OW 4558   0.681   1.405  10.939
 1224SOL    HW1 4559   0.602   1.362  10.970
 1224SOL    HW2 4560   0.677   1.493  10.977
 1225SOL     OW 4561   1.811   0.183  10.548
 1225SOL    HW1 4562   1.814   0.089  10.564
 1225SOL    HW2 4563   1.826   0.193  10.454
 1226SOL     OW 4564   0.444   0.438   9.841
 1226SOL    HW1 4565   0.461   0.362   9.785
 1226SOL    HW2 4566   0.389   0.403   9.911
 1227SOL     OW 4567   1.701   1.504  10.412
 1227SOL    HW1 4568   1.623   1.478  10.362
 1227SOL    HW2 4569   1.716   1.431  10.472
 1228SOL     OW 4570   0.333   0.557  10.603
 1228SOL    HW1 4571   0.389   0.501  10.656
 1228SOL    HW2 4572   0.348   0.529  10.513
 1229SOL     OW 4573   0.828   1.580   9.987
 1229SOL    HW1 4574   0.814   1.640   9.914
 1229SOL    HW2 4575   0.753   1.520   9.985
 1230SOL     OW 4576   1.461   0.254  10.420
 1230SOL    HW1 4577   1.478   0.167  10.457
 1230SOL    HW2 4578   1.405   0.297  10.486
 1231SOL     OW 4579   1.003   0.028  10.456
 1231SOL    HW1 4580   0.923   3.991  10.420
 1231SOL    HW2 4581   1.063   3.953  10.465
 1232SOL     OW 4582   0.772   1.333   9.627
 1232SOL    HW1 4583   0.744   1.242   9.634
 1232SOL    HW2 4584   0.854   1.337   9.678
 1233SOL     OW 4585   0.620   1.557  10.596
 1233SOL    HW1 4586   0.622   1.639  10.645
 1233SOL    HW2 4587   0.708   1.549  10.559
 1234SOL     OW 4588   1.311   0.074   9.476
 1234SOL    HW1 4589   1.322   3.995   9.423
 1234SOL    HW2 4590   1.225   0.062   9.517
 1235SOL     OW 4591   1.281   0.457   9.995
 1235SOL    HW1 4592   1.235   0.540   9.990
 1235SOL    HW2 4593   1.284   0.437  10.089
 1236SOL     OW 4594   1.588   0.210  10.178
 1236SOL    HW1 4595   1.539   0.234  10.256
 1236SOL    HW2 4596   1.588   0.289  10.124
 1237SOL     OW 4597   0.047   1.049   9.551
 1237SOL    HW1 4598   0.141   1.032   9.542
 1237SOL    HW2 4599   0.011   0.965   9.581
 1238SOL     OW 4600   0.887   1.656   9.650
 1238SOL    HW1 4601   0.813   1.640   9.592
 1238SOL    HW2 4602   0.859   1.730   9.704
 1239SOL     OW 4603   0.232   0.628  11.289
 1239SOL    HW1 4604   0.139   0.632  11.310
 1239SOL    HW2 4605   0.235   0.598  11.198
 1240SOL     OW 4606   0.224   0.289  12.155
 1240SOL    HW1 4607   0.246   0.250  12.239
 1240SOL    HW2 4608   0.129   0.278  12.148
 1241SOL     OW 4609   0.019   0.385  11.808
 1241SOL    HW1 4610   3.928   0.398  11.836
 1241SOL    HW2 4611   0.025   0.291  11.793
 1242SOL     OW 4612   0.581   1.289  12.363
 1242SOL    HW1 4613   0.494   1.291  12.322
 1242SOL    HW2 4614   0.594   1.378  12.395
 1243SOL     OW 4615   1.542   1.493  11.879
 1243SOL    HW1 4616   1.515   1.474  11.969
 1243SOL    HW2 4617   1.461   1.489  11.828
 1244SOL     OW 4618   1.133   0.699  11.869
 1244SOL    HW1 4619   1.180   0.780  11.857
 1244SOL    HW2 4620   1.085   0.711  11.951
 1245SOL     OW 4621   1.767   0.618  11.396
 1245SOL    HW1 4622   1.745   0.611  11.304
 1245SOL    HW2 4623   1.752   0.531  11.432
 1246SOL     OW 4624   0.753   1.139  12.214
 1246SOL    HW1 4625   0.690   1.175  12.276
 1246SOL    HW2 4626   0.789   1.216  12.169
 1247SOL     OW 4627   0.871   0.770  12.995
 1247SOL    HW1 4628   0.860   0.843  13.057
 1247SOL    HW2 4629   0.893   0.813  12.912
 1248SOL     OW 4630   0.685   1.002  11.818
 1248SOL    HW1 4631   0.751   0.991  11.886
 1248SOL    HW2 4632   0.616   1.054  11.859
 1249SOL     OW 4633   0.711   1.149  12.988
 1249SOL    HW1 4634   0.759   1.227  13.016
 1249SOL    HW2 4635   0.630   1.183  12.950
 1250SOL     OW 4636   0.351   1.401  12.251
 1250SOL    HW1 4637   0.270   1.380  12.204
 1250SOL    HW2 4638   0.399   1.459  12.191
 1251SOL     OW 4639   1.450   1.487  12.531
 1251SOL    HW1 4640   1.495   1.572  12.533
 1251SOL    HW2 4641   1.384   1.493  12.599
 1252SOL     OW 4642   0.457   0.408  12.668
 1252SOL    HW1 4643   0.539   0.358  12.667
 1252SOL    HW2 4644   0.388   0.342  12.671
 1253SOL     OW 4645   1.612   0.451  11.907
 1253SOL    HW1 4646   1.542   0.483  11.849
 1253SOL    HW2 4647   1.630   0.525  11.965
 1254SOL     OW 4648   0.220   1.719  11.629
 1254SOL    HW1 4649   0.240   1.793  11.687
 1254SOL    HW2 4650   0.297   1.711  11.573
 1255SOL     OW 4651   1.137   1.342  12.866
 1255SOL    HW1 4652   1.177   1.336  12.952
 1255SOL    HW2 4653   1.085   1.262  12.858
 1256SOL     OW 4654   0.250   1.450  11.712
 1256SOL    HW1 4655   0.215   1.538  11.697
 1256SOL    HW2 4656   0.182   1.406  11.763
 1257SOL     OW 4657   0.247   1.066  12.056
 1257SOL    HW1 4658   0.267   0.981  12.095
 1257SOL    HW2 4659   0.195   1.111  12.122
 1258SOL     OW 4660   0.610   1.792  12.599
 1258SOL    HW1 4661   0.528   1.774  12.644
 1258SOL    HW2 4662   0.633   1.882  12.625
 1259SOL     OW 4663   0.577   0.986  11.311
 1259SOL    HW1 4664   0.625   1.030  11.241
 1259SOL    HW2 4665   0.618   1.016  11.392
 1260SOL     OW 4666   1.581   0.140  12.627
 1260SOL    HW1 4667   1.611   0.213  12.573
 1260SOL    HW2 4668   1.548   0.182  12.707
 1261SOL     OW 4669   0.140   0.652  11.742
 1261SOL    HW1 4670   0.098   0.566  11.746
 1261SOL    HW2 4671   0.102   0.701  11.814
 1262SOL     OW 4672   0.044   1.590  11.310
 1262SOL    HW1 4673   0.037   1.497  11.335
 1262SOL    HW2 4674   3.961   1.628  11.337
 1263SOL     OW 4675   1.684   0.913  11.811
 1263SOL    HW1 4676   1.771   0.877  11.795
 1263SOL    HW2 4677   1.666   0.968  11.735
 1264SOL     OW 4678   1.648   1.105  11.601
 1264SOL    HW1 4679   1.734   1.108  11.560
 1264SOL    HW2 4680   1.655   1.166  11.675
 1265SOL     OW 4681   0.141   0.756  12.761
 1265SOL    HW1 4682   0.236   0.751  12.756
 1265SOL    HW2 4683   0.123   0.844  12.793
 1266SOL     OW 4684   0.613   1.387  11.908
 1266SOL    HW1 4685   0.567   1.303  11.917
 1266SOL    HW2 4686   0.597   1.413  11.817
 1267SOL     OW 4687   1.284   1.234  12.597
 1267SOL    HW1 4688   1.317   1.168  12.535
 1267SOL    HW2 4689   1.344   1.230  12.671
 1268SOL     OW 4690   0.820   0.004  11.688
 1268SOL    HW1 4691   0.865   0.084  11.664
 1268SOL    HW2 4692   0.727   0.027  11.688
 1269SOL     OW 4693   0.184   0.950  12.450
 1269SOL    HW1 4694   0.272   0.915  12.438
 1269SOL    HW2 4695   0.132   0.908  12.381
 1270SOL     OW 4696   1.531   0.996  11.372
 1270SOL    HW1 4697   1.462   0.939  11.405
 1270SOL    HW2 4698   1.574   1.030  11.450
 1271SOL     OW 4699   1.186   1.809  12.796
 1271SOL    HW1 4700   1.194   1.869  12.722
 1271SOL    HW2 4701   1.202   1.722  12.759
 1272SOL     OW 4702   0.344   0.252  13.009
 1272SOL    HW1 4703   0.387   0.335  12.990
 1272SOL    HW2 4704   0.253   0.275  13.029
 1273SOL     OW 4705   1.468   1.420  12.130
 1273SOL    HW1 4706   1.398   1.435  12.194
 1273SOL    HW2 4707   1.457   1.328  12.104
 1274SOL     OW 4708   1.572   1.721  11.737
 1274SOL    HW1 4709   1.581   1.686  11.649
 1274SOL    HW2 4710   1.577   1.644  11.794
 1275SOL     OW 4711   0.596   0.717  11.438
 1275SOL    HW1 4712   0.601   0.801  11.393
 1275SOL    HW2 4713   0.533   0.731  11.509
 1276SOL     OW 4714   1.274   0.369  12.113
 1276SOL    HW1 4715   1.187   0.330  12.120
 1276SOL    HW2 4716   1.332   0.307  12.159
 1277SOL     OW 4717   1.570   1.651  11.471
 1277SOL    HW1 4718   1.665   1.653  11.456
 1277SOL    HW2 4719   1.532   1.641  11.384
 1278SOL     OW 4720   0.794   0.616  12.625
 1278SOL    HW1 4721   0.765   0.590  12.713
 1278SOL    HW2 4722   0.756   0.550  12.567
 1279SOL     OW 4723   1.392   0.476  12.850
 1279SOL    HW1 4724   1.399   0.521  12.934
 1279SOL    HW2 4725   1.450   0.400  12.859
 1280SOL     OW 4726   0.952   0.887  12.756
 1280SOL    HW1 4727   1.007   0.818  12.719
 1280SOL    HW2 4728   0.904   0.922  12.681
 1281SOL     OW 4729   0.992   0.403  12.410
 1281SOL    HW1 4730   0.907   0.423  12.448
 1281SOL    HW2 4731   0.972   0.374  12.321
 1282SOL     OW 4732   1.052   0.700  11.597
 1282SOL    HW1 4733   1.069   0.693  11.691
 1282SOL    HW2 4734   0.970   0.653  11.584
 1283SOL     OW 4735   0.081   0.829  11.962
 1283SOL    HW1 4736   0.154   0.795  12.015
 1283SOL    HW2 4737   0.102   0.921  11.948
 1284SOL     OW 4738   0.130   1.863  12.749
 1284SOL    HW1 4739   0.137   1.828  12.838
 1284SOL    HW2 4740   0.038   1.851  12.727
 1285SOL     OW 4741   0.894   0.352  11.370
 1285SOL    HW1 4742   0.936   0.412  11.308
 1285SOL    HW2 4743   0.893   0.268  11.325
 1286SOL     OW 4744   1.708   0.576  13.000
 1286SOL    HW1 4745   1.670   0.649  12.951
 1286SOL    HW2 4746   1.732   0.512  12.933
 1287SOL     OW 4747   1.378   1.141  11.711
 1287SOL    HW1 4748   1.459   1.132  11.661
 1287SOL    HW2 4749   1.325   1.202  11.660
 1288SOL     OW 4750   0.561   0.195  12.053
 1288SOL    HW1 4751   0.566   0.219  12.145
 1288SOL    HW2 4752   0.547   0.278  12.007
 1289SOL     OW 4753   0.998   1.440  11.641
 1289SOL    HW1 4754   0.967   1.516  11.592
 1289SOL    HW2 4755   0.985   1.463  11.733
 1290SOL     OW 4756   0.365   1.820  12.042
 1290SOL    HW1 4757   0.428   1.748  12.051
 1290SOL    HW2 4758   0.416   1.899  12.058
 1291SOL     OW 4759   1.801   1.047  12.045
 1291SOL    HW1 4760   1.747   1.045  11.966
 1291SOL    HW2 4761   1.738   1.056  12.116
 1292SOL     OW 4762   1.226   1.538  12.686
 1292SOL    HW1 4763   1.212   1.466  12.748
 1292SOL    HW2 4764   1.161   1.524  12.618
 1293SOL     OW 4765   0.311   0.954  11.414
 1293SOL    HW1 4766   0.394   0.976  11.373
 1293SOL    HW2 4767   0.298   0.861  11.394
 1294SOL     OW 4768   1.478   0.747  11.901
 1294SOL    HW1 4769   1.475   0.706  11.988
 1294SOL    HW2 4770   1.556   0.802  11.903
 1295SOL     OW 4771   0.468   1.260  12.909
 1295SOL    HW1 4772   0.442   1.269  12.817
 1295SOL    HW2 4773   0.386   1.264  12.958
 1296SOL     OW 4774   1.122   1.778  11.401
 1296SOL    HW1 4775   1.048   1.737  11.447
 1296SOL    HW2 4776   1.145   1.715  11.333
 1297SOL     OW 4777   0.201   0.294  12.672
 1297SOL    HW1 4778   0.107   0.314  12.671
 1297SOL    HW2 4779   0.209   0.222  12.734
 1298SOL     OW 4780   1.631   1.383  11.259
 1298SOL    HW1 4781   1.586   1.466  11.241
 1298SOL    HW2 4782   1.565   1.316  11.242
 1299SOL     OW 4783   0.466   1.739  11.488
 1299SOL    HW1 4784   0.509   1.795  11.552
 1299SOL    HW2 4785   0.537   1.703  11.435
 1300SOL     OW 4786   1.441   0.166  11.578
 1300SOL    HW1 4787   1.394   0.099  11.528
 1300SOL    HW2 4788   1.512   0.119  11.621
 1301SOL     OW 4789   0.252   1.791  12.403
 1301SOL    HW1 4790   0.298   1.726  12.456
 1301SOL    HW2 4791   0.250   1.753  12.315
 1302SOL     OW 4792   0.938   1.699  12.070
 1302SOL    HW1 4793   1.017   1.649  12.090
 1302SOL    HW2 4794   0.895   1.649  12.000
 1303SOL     OW 4795   0.397   0.694  11.643
 1303SOL    HW1 4796   0.423   0.604  11.658
 1303SOL    HW2 4797   0.305   0.698  11.668
 1304SOL     OW 4798   1.529   0.229  12.898
 1304SOL    HW1 4799   1.526   0.254  12.990
 1304SOL    HW2 4800   1.512   0.135  12.898
 1305SOL     OW 4801   0.645   0.130  11.275
 1305SOL    HW1 4802   0.668   0.046  11.315
 1305SOL    HW2 4803   0.584   0.107  11.205
 1306SOL     OW 4804   0.776   0.284  12.939
 1306SOL    HW1 4805   0.850   0.224  12.941
 1306SOL    HW2 4806   0.720   0.255  13.011
 1307SOL     OW 4807   0.875   1.522  12.366
 1307SOL    HW1 4808   0.860   1.485  12.279
 1307SOL    HW2 4809   0.946   1.468  12.403
 1308SOL     OW 4810   1.339   0.587  12.603
 1308SOL    HW1 4811   1.370   0.559  12.689
 1308SOL    HW2 4812   1.375   0.676  12.593
 1309SOL     OW 4813   0.816   1.392  12.114
 1309SOL    HW1 4814   0.901   1.381  12.072
 1309SOL    HW2 4815   0.754   1.395  12.041
 1310SOL     OW 4816   0.930   0.512  12.072
 1310SOL    HW1 4817   0.906   0.504  11.980
 1310SOL    HW2 4818   0.956   0.423  12.098
 1311SOL     OW 4819   0.546   0.056  11.659
 1311SOL    HW1 4820   0.472   0.063  11.720
 1311SOL    HW2 4821   0.548   0.140  11.613
 1312SOL     OW 4822   1.430   1.200  11.213
 1312SOL    HW1 4823   1.459   1.124  11.264
 1312SOL    HW2 4824   1.344   1.221  11.250
 1313SOL     OW 4825   0.346   0.037  11.370
 1313SOL    HW1 4826   0.360   0.086  11.290
 1313SOL    HW2 4827   0.431   0.037  11.414
 1314SOL     OW 4828   0.942   0.249  11.633
 1314SOL    HW1 4829   0.916   0.290  11.550
 1314SOL    HW2 4830   1.038   0.254  11.632
 1315SOL     OW 4831   1.079   0.683  12.630
 1315SOL    HW1 4832   1.010   0.618  12.637
 1315SOL    HW2 4833   1.160   0.633  12.625
 1316SOL     OW 4834   1.222   1.570  11.965
 1316SOL    HW1 4835   1.235   1.638  11.899
 1316SOL    HW2 4836   1.291   1.588  12.030
 1317SOL     OW 4837   0.466   1.151  11.907
 1317SOL    HW1 4838   0.395   1.126  11.966
 1317SOL    HW2 4839   0.431   1.135  11.820
 1318SOL     OW 4840   1.259   1.790  11.784
 1318SOL    HW1 4841   1.312   1.849  11.730
 1318SOL    HW2 4842   1.195   1.847  11.826
 1319SOL     OW 4843   1.022   0.542  11.201
 1319SOL    HW1 4844   0.979   0.626  11.181
 1319SOL    HW2 4845   1.086   0.564  11.269
 1320SOL     OW 4846   0.081   0.573  12.565
 1320SOL    HW1 4847   0.170   0.555  12.535
 1320SOL    HW2 4848   0.090   0.645  12.628
 1321SOL     OW 4849   0.572   0.231  12.331
 1321SOL    HW1 4850   0.594   0.138  12.340
 1321SOL    HW2 4851   0.481   0.237  12.361
 1322SOL     OW 4852   0.871   0.461  11.810
 1322SOL    HW1 4853   0.820   0.514  11.748
 1322SOL    HW2 4854   0.891   0.381  11.763
 1323SOL     OW 4855   0.996   0.039  11.953
 1323SOL    HW1 4856   0.960   0.069  11.869
 1323SOL    HW2 4857   1.007   3.945  11.942
 1324SOL     OW 4858   1.439   1.164  12.031
 1324SOL    HW1 4859   1.369   1.099  12.026
 1324SOL    HW2 4860   1.469   1.174  11.941
 1325SOL     OW 4861   1.465   0.607  12.146
 1325SOL    HW1 4862   1.411   0.528  12.151
 1325SOL    HW2 4863   1.524   0.600  12.221
 1326SOL     OW 4864   1.845   0.817  11.559
 1326SOL    HW1 4865   1.902   0.765  11.616
 1326SOL    HW2 4866   1.816   0.756  11.491
 1327SOL     OW 4867   0.487   1.421  11.331
 1327SOL    HW1 4868   0.412   1.390  11.381
 1327SOL    HW2 4869   0.473   1.388  11.243
 1328SOL     OW 4870   1.672   1.256  11.822
 1328SOL    HW1 4871   1.767   1.258  11.833
 1328SOL    HW2 4872   1.644   1.345  11.844
 1329SOL     OW 4873   1.395   0.576  11.241
 1329SOL    HW1 4874   1.332   0.556  11.310
 1329SOL    HW2 4875   1.481   0.557  11.280
 1330SOL     OW 4876   0.557   0.271  11.490
 1330SOL    HW1 4877   0.605   0.231  11.417
 1330SOL    HW2 4878   0.528   0.355  11.456
 1331SOL     OW 4879   1.750   1.237  12.743
 1331SOL    HW1 4880   1.837   1.198  12.737
 1331SOL    HW2 4881   1.765   1.327  12.771
 1332SOL     OW 4882   1.056   1.353  12.506
 1332SOL    HW1 4883   0.981   1.322  12.556
 1332SOL    HW2 4884   1.131   1.311  12.547
 1333SOL     OW 4885   1.604   1.626  12.826
 1333SOL    HW1 4886   1.586   1.652  12.736
 1333SOL    HW2 4887   1.687   1.579  12.821
 1334SOL     OW 4888   1.132   1.207  12.276
 1334SOL    HW1 4889   1.070   1.243  12.340
 1334SOL    HW2 4890   1.100   1.239  12.192
 1335SOL     OW 4891   1.625   1.095  12.248
 1335SOL    HW1 4892   1.620   1.158  12.319
 1335SOL    HW2 4893   1.549   1.115  12.193
 1336SOL     OW 4894   0.912   0.115  12.573
 1336SOL    HW1 4895   0.932   0.088  12.483
 1336SOL    HW2 4896   0.993   0.157  12.604
 1337SOL     OW 4897   0.984   1.115  12.896
 1337SOL    HW1 4898   0.893   1.132  12.917
 1337SOL    HW2 4899   0.982   1.037  12.840
 1338SOL     OW 4900   0.708   1.061  11.543
 1338SOL    HW1 4901   0.694   1.044  11.636
 1338SOL    HW2 4902   0.784   1.008  11.519
 1339SOL     OW 4903   0.422   0.817  12.425
 1339SOL    HW1 4904   0.491   0.823  12.491
 1339SOL    HW2 4905   0.388   0.728  12.434
 1340SOL     OW 4906   1.266   0.375  12.449
 1340SOL    HW1 4907   1.300   0.452  12.493
 1340SOL    HW2 4908   1.178   0.400  12.419
 1341SOL     OW 4909   0.065   1.580  12.518
 1341SOL    HW1 4910   0.071   1.635  12.440
 1341SOL    HW2 4911   0.156   1.567  12.545
 1342SOL     OW 4912   0.370   1.103  11.655
 1342SOL    HW1 4913   0.365   1.182  11.600
 1342SOL    HW2 4914   0.370   1.031  11.592
 1343SOL     OW 4915   0.554   0.534  12.030
 1343SOL    HW1 4916   0.568   0.593  11.956
 1343SOL    HW2 4917   0.620   0.561  12.094
 1344SOL     OW 4918   1.239   1.338  11.559
 1344SOL    HW1 4919   1.293   1.412  11.586
 1344SOL    HW2 4920   1.152   1.357  11.592
 1345SOL     OW 4921   1.279   1.460  12.320
 1345SOL    HW1 4922   1.336   1.460  12.397
 1345SOL    HW2 4923   1.225   1.382  12.331
 1346SOL     OW 4924   1.575   0.634  11.658
 1346SOL    HW1 4925   1.533   0.690  11.724
 1346SOL    HW2 4926   1.623   0.695  11.602
 1347SOL     OW 4927   0.345   1.527  12.490
 1347SOL    HW1 4928   0.336   1.477  12.410
 1347SOL    HW2 4929   0.440   1.542  12.498
 1348SOL     OW 4930   0.417   0.738  12.773
 1348SOL    HW1 4931   0.480   0.783  12.717
 1348SOL    HW2 4932   0.455   0.651  12.786
 1349SOL     OW 4933   1.604   0.780  12.857
 1349SOL    HW1 4934   1.518   0.822  12.849
 1349SOL    HW2 4935   1.656   0.821  12.788
 1350SOL     OW 4936   1.011   0.134  12.951
 1350SOL    HW1 4937   1.064   0.206  12.916
 1350SOL    HW2 4938   1.002   0.073  12.878
 1351SOL     OW 4939   0.482   0.036  12.938
 1351SOL    HW1 4940   0.491   0.046  12.843
 1351SOL    HW2 4941   0.420   0.105  12.963
 1352SOL     OW 4942   0.585   0.875  12.203
 1352SOL    HW1 4943   0.617   0.965  12.205
 1352SOL    HW2 4944   0.529   0.868  12.281
 1353SOL     OW 4945   1.353   0.858  12.199
 1353SOL    HW1 4946   1.269   0.846  12.154
 1353SOL    HW2 4947   1.397   0.773  12.191
 1354SOL     OW 4948   1.200   0.537  11.430
 1354SOL    HW1 4949   1.209   0.458  11.483
 1354SOL    HW2 4950   1.157   0.600  11.488
 1355SOL     OW 4951   0.311   0.212  12.412
 1355SOL    HW1 4952   0.268   0.248  12.489
 1355SOL    HW2 4953   0.296   0.118  12.418
 1356SOL     OW 4954   0.061   1.306  12.452
 1356SOL    HW1 4955   0.091   1.264  12.533
 1356SOL    HW2 4956   0.052   1.398  12.475
 1357SOL     OW 4957   0.725   0.634  12.225
 1357SOL    HW1 4958   0.799   0.619  12.167
 1357SOL    HW2 4959   0.695   0.722  12.204
 1358SOL     OW 4960   1.737   0.958  13.027
 1358SOL    HW1 4961   1.691   0.895  12.972
 1358SOL    HW2 4962   1.677   0.974  13.100
 1359SOL     OW 4963   0.330   0.055  11.827
 1359SOL    HW1 4964   0.301   0.146  11.827
 1359SOL    HW2 4965   0.293   0.017  11.907
 1360SOL     OW 4966   1.607   0.392  11.552
 1360SOL    HW1 4967   1.567   0.324  11.607
 1360SOL    HW2 4968   1.587   0.474  11.597
 1361SOL     OW 4969   1.029   0.759  12.131
 1361SOL    HW1 4970   1.023   0.776  12.225
 1361SOL    HW2 4971   1.002   0.668  12.121
 1362SOL     OW 4972   0.982   1.566  12.891
 1362SOL    HW1 4973   0.966   1.610  12.808
 1362SOL    HW2 4974   1.025   1.484  12.868
 1363SOL     OW 4975   1.849   1.497  12.778
 1363SOL    HW1 4976   1.878   1.516  12.688
 1363SOL    HW2 4977   1.925   1.519  12.832
 1364SOL     OW 4978   0.353   0.921  12.972
 1364SOL    HW1 4979   0.431   0.942  13.023
 1364SOL    HW2 4980   0.382   0.853  12.910
 1365SOL     OW 4981   1.505   0.274  11.307
 1365SOL    HW1 4982   1.431   0.215  11.319
 1365SOL    HW2 4983   1.518   0.314  11.393
 1366SOL     OW 4984   1.288   0.827  11.200
 1366SOL    HW1 4985   1.331   0.741  11.204
 1366SOL    HW2 4986   1.320   0.866  11.119
 1367SOL     OW 4987   1.067   1.337  12.027
 1367SOL    HW1 4988   1.071   1.265  11.965
 1367SOL    HW2 4989   1.127   1.403  11.992
 1368SOL     OW 4990   0.313   0.803  12.122
 1368SOL    HW1 4991   0.407   0.819  12.116
 1368SOL    HW2 4992   0.306   0.713  12.154
 1369SOL     OW 4993   0.338   0.528  12.187
 1369SOL    HW1 4994   0.297   0.444  12.169
 1369SOL    HW2 4995   0.413   0.532  12.128
 1370SOL     OW 4996   1.133   0.380  12.870
 1370SOL    HW1 4997   1.085   0.435  12.931
 1370SOL    HW2 4998   1.220   0.420  12.865
 1371SOL     OW 4999   1.151   0.225  12.654
 1371SOL    HW1 5000   1.142   0.280  12.732
 1371SOL    HW2 5001   1.176   0.286  12.585
 1372SOL     OW 5002   0.000   1.317  11.354
 1372SOL    HW1 5003   3.906   1.333  11.358
 1372SOL    HW2 5004   0.009   1.224  11.373
 1373SOL     OW 5005   0.078   1.800  12.061
 1373SOL    HW1 5006   0.083   1.705  12.064
 1373SOL    HW2 5007   0.169   1.830  12.064
 1374SOL     OW 5008   0.500   1.571  12.083
 1374SOL    HW1 5009   0.570   1.632  12.108
 1374SOL    HW2 5010   0.543   1.508  12.024
 1375SOL     OW 5011   0.978   0.789  12.396
 1375SOL    HW1 5012   1.035   0.769  12.471
 1375SOL    HW2 5013   0.894   0.750  12.419
 1376SOL     OW 5014   0.035   0.574  12.284
 1376SOL    HW1 5015   0.097   0.522  12.233
 1376SOL    HW2 5016   0.061   0.560  12.375
 1377SOL     OW 5017   0.211   0.516  12.894
 1377SOL    HW1 5018   0.258   0.477  12.820
 1377SOL    HW2 5019   0.164   0.590  12.856
 1378SOL     OW 5020   1.378   0.937  12.829
 1378SOL    HW1 5021   1.400   1.030  12.826
 1378SOL    HW2 5022   1.375   0.910  12.737
 1379SOL     OW 5023   0.818   0.572  11.534
 1379SOL    HW1 5024   0.825   0.496  11.477
 1379SOL    HW2 5025   0.743   0.621  11.501
 1380SOL     OW 5026   1.640   0.602  12.355
 1380SOL    HW1 5027   1.631   0.541  12.429
 1380SOL    HW2 5028   1.728   0.584  12.321
 1381SOL     OW 5029   0.300   1.545  12.897
 1381SOL    HW1 5030   0.251   1.614  12.942
 1381SOL    HW2 5031   0.269   1.463  12.938
 1382SOL     OW 5032   0.710   0.454  12.428
 1382SOL    HW1 5033   0.660   0.376  12.403
 1382SOL    HW2 5034   0.700   0.513  12.354
 1383SOL     OW 5035   0.925   1.679  12.642
 1383SOL    HW1 5036   0.900   1.642  12.557
 1383SOL    HW2 5037   0.919   1.774  12.629
 1384SOL     OW 5038   0.453   0.492  11.370
 1384SOL    HW1 5039   0.518   0.561  11.387
 1384SOL    HW2 5040   0.374   0.539  11.345
 1385SOL     OW 5041   0.156   1.135  12.646
 1385SOL    HW1 5042   0.157   1.084  12.728
 1385SOL    HW2 5043   0.170   1.070  12.578
 1386SOL     OW 5044   1.323   1.045  12.394
 1386SOL    HW1 5045   1.346   0.982  12.326
 1386SOL    HW2 5046   1.255   1.100  12.354
 1387SOL     OW 5047   1.314   0.856  11.476
 1387SOL    HW1 5048   1.239   0.827  11.528
 1387SOL    HW2 5049   1.287   0.843  11.386
 1388SOL     OW 5050   1.243   1.735  12.281
 1388SOL    HW1 5051   1.326   1.756  12.239
 1388SOL    HW2 5052   1.249   1.642  12.300
 1389SOL     OW 5053   0.077   1.217  12.199
 1389SOL    HW1 5054   0.084   1.243  12.291
 1389SOL    HW2 5055   3.985   1.227  12.178
 1390SOL     OW 5056   0.680   1.668  12.906
 1390SOL    HW1 5057   0.621   1.743  12.898
 1390SOL    HW2 5058   0.746   1.682  12.839
 1391SOL     OW 5059   1.714   0.124  11.660
 1391SOL    HW1 5060   1.792   0.134  11.606
 1391SOL    HW2 5061   1.705   0.030  11.672
 1392SOL     OW 5062   1.363   1.559  11.643
 1392SOL    HW1 5063   1.428   1.590  11.581
 1392SOL    HW2 5064   1.330   1.638  11.685
 1393SOL     OW 5065   0.174   1.763  13.002
 1393SOL    HW1 5066   0.118   1.712  13.060
 1393SOL    HW2 5067   0.217   1.827  13.060
 1394SOL     OW 5068   1.277   0.928  11.843
 1394SOL    HW1 5069   1.351   0.868  11.854
 1394SOL    HW2 5070   1.312   0.999  11.790
 1395SOL     OW 5071   0.810   1.274  12.600
 1395SOL    HW1 5072   0.781   1.315  12.682
 1395SOL    HW2 5073   0.739   1.291  12.538
 1396SOL     OW 5074   0.670   1.623  11.327
 1396SOL    HW1 5075   0.681   1.635  11.233
 1396SOL    HW2 5076   0.615   1.545  11.335
 1397SOL     OW 5077   1.578   1.722  12.555
 1397SOL    HW1 5078   1.646   1.720  12.488
 1397SOL    HW2 5079   1.563   1.815  12.572
 1398SOL     OW 5080   1.839   0.178  12.138
 1398SOL    HW1 5081   1.872   0.111  12.078
 1398SOL    HW2 5082   1.751   0.197  12.107
 1399SOL     OW 5083   0.275   0.322  11.886
 1399SOL    HW1 5084   0.189   0.357  11.860
 1399SOL    HW2 5085   0.266   0.306  11.980
 1400SOL     OW 5086   1.207   1.604  11.204
 1400SOL    HW1 5087   1.197   1.512  11.231
 1400SOL    HW2 5088   1.141   1.616  11.135
 1401SOL     OW 5089   0.823   1.005  12.545
 1401SOL    HW1 5090   0.867   1.000  12.460
 1401SOL    HW2 5091   0.822   1.099  12.566
 1402SOL     OW 5092   0.915   0.910  11.462
 1402SOL    HW1 5093   0.976   0.943  11.396
 1402SOL    HW2 5094   0.964   0.842  11.508
 1403SOL     OW 5095   1.486   1.625  11.212
 1403SOL    HW1 5096   1.392   1.618  11.196
 1403SOL    HW2 5097   1.525   1.632  11.125
 1404SOL     OW 5098   0.374   1.303  12.664
 1404SOL    HW1 5099   0.359   1.383  12.613
 1404SOL    HW2 5100   0.297   1.248  12.646
 1405SOL     OW 5101   1.607   1.280  12.449
 1405SOL    HW1 5102   1.670   1.269  12.520
 1405SOL    HW2 5103   1.546   1.346  12.481
 1406SOL     OW 5104   1.056   1.109  11.881
 1406SOL    HW1 5105   0.984   1.058  11.918
 1406SOL    HW2 5106   1.120   1.044  11.851
 1407SOL     OW 5107   1.014   0.249  12.142
 1407SOL    HW1 5108   1.004   0.199  12.061
 1407SOL    HW2 5109   1.010   0.184  12.212
 1408SOL     OW 5110   0.606   1.488  11.654
 1408SOL    HW1 5111   0.652   1.438  11.586
 1408SOL    HW2 5112   0.532   1.528  11.608
 1409SOL     OW 5113   1.721   0.394  12.544
 1409SOL    HW1 5114   1.793   0.456  12.548
 1409SOL    HW2 5115   1.754   0.322  12.490
 1410SOL     OW 5116   0.254   1.341  11.465
 1410SOL    HW1 5117   0.160   1.348  11.446
 1410SOL    HW2 5118   0.264   1.380  11.552
 1411SOL     OW 5119   0.108   0.999  12.890
 1411SOL    HW1 5120   0.048   0.992  12.964
 1411SOL    HW2 5121   0.194   0.980  12.927
 1412SOL     OW 5122   0.694   0.253  12.673
 1412SOL    HW1 5123   0.762   0.200  12.632
 1412SOL    HW2 5124   0.722   0.262  12.764
 1413SOL     OW 5125   0.088   0.321  11.198
 1413SOL    HW1 5126   3.993   0.319  11.191
 1413SOL    HW2 5127   0.113   0.404  11.157
 1414SOL     OW 5128   1.427   0.857  12.570
 1414SOL    HW1 5129   1.378   0.918  12.516
 1414SOL    HW2 5130   1.516   0.859  12.535
 1415SOL     OW 5131   0.037   0.169  11.456
 1415SOL    HW1 5132   0.036   0.231  11.384
 1415SOL    HW2 5133   0.113   0.193  11.509
 1416SOL     OW 5134   1.177   1.337  11.288
 1416SOL    HW1 5135   1.087   1.307  11.289
 1416SOL    HW2 5136   1.204   1.336  11.380
 1417SOL     OW 5137   0.621   0.829  12.609
 1417SOL    HW1 5138   0.677   0.904  12.593
 1417SOL    HW2 5139   0.681   0.755  12.617
 1418SOL     OW 5140   1.488   1.781  12.153
 1418SOL    HW1 5141   1.513   1.849  12.090
 1418SOL    HW2 5142   1.567   1.728  12.163
 1419SOL     OW 5143   0.717   0.562  12.879
 1419SOL    HW1 5144   0.762   0.624  12.937
 1419SOL    HW2 5145   0.744   0.476  12.911
 1420SOL     OW 5146   1.472   1.197  12.803
 1420SOL    HW1 5147   1.461   1.212  12.897
 1420SOL    HW2 5148   1.565   1.213  12.787
 1421SOL     OW 5149   0.378   1.743  12.729
 1421SOL    HW1 5150   0.291   1.781  12.716
 1421SOL    HW2 5151   0.362   1.661  12.775
 1422SOL     OW 5152   1.666   0.881  12.428
 1422SOL    HW1 5153   1.662   0.796  12.384
 1422SOL    HW2 5154   1.657   0.945  12.357
 1423SOL     OW 5155   1.223   0.336  11.614
 1423SOL    HW1 5156   1.290   0.269  11.607
 1423SOL    HW2 5157   1.242   0.381  11.697
 1424SOL     OW 5158   0.590   0.738  11.843
 1424SOL    HW1 5159   0.628   0.824  11.827
 1424SOL    HW2 5160   0.523   0.728  11.776
 1425SOL     OW 5161   1.751   0.384  12.815
 1425SOL    HW1 5162   1.733   0.389  12.721
 1425SOL    HW2 5163   1.694   0.313  12.846
 1426SOL     OW 5164   1.747   0.934  12.684
 1426SOL    HW1 5165   1.737   1.028  12.697
 1426SOL    HW2 5166   1.730   0.920  12.590
 1427SOL     OW 5167   0.862   1.366  11.210
 1427SOL    HW1 5168   0.825   1.394  11.293
 1427SOL    HW2 5169   0.879   1.447  11.163
 1428SOL     OW 5170   0.663   1.788  12.114
 1428SOL    HW1 5171   0.643   1.879  12.092
 1428SOL    HW2 5172   0.758   1.782  12.107
 1429SOL     OW 5173   0.868   0.968  12.025
 1429SOL    HW1 5174   0.919   0.896  12.064
 1429SOL    HW2 5175   0.832   1.015  12.100
 1430SOL     OW 5176   1.077   0.988  11.261
 1430SOL    HW1 5177   1.056   1.040  11.183
 1430SOL    HW2 5178   1.152   0.934  11.234
 1431SOL     OW 5179   1.859   1.512  12.000
 1431SOL    HW1 5180   1.798   1.582  11.979
 1431SOL    HW2 5181   1.847   1.498  12.094
 1432SOL     OW 5182   0.226   1.304  13.028
 1432SOL    HW1 5183   0.153   1.248  13.001
 1432SOL    HW2 5184   0.213   1.317  13.122
 1433SOL     OW 5185   0.121   1.280  11.893
 1433SOL    HW1 5186   0.135   1.228  11.973
 1433SOL    HW2 5187   0.106   1.215  11.825
 1434SOL     OW 5188   0.682   1.405  12.802
 1434SOL    HW1 5189   0.601   1.362  12.832
 1434SOL    HW2 5190   0.677   1.493  12.839
 1435SOL     OW 5191   1.811   0.183  12.410
 1435SOL    HW1 5192   1.814   0.089  12.425
 1435SOL    HW2 5193   1.826   0.193  12.316
 1436SOL     OW 5194   0.444   0.438  11.703
 1436SOL    HW1 5195   0.461   0.362  11.647
 1436SOL    HW2 5196   0.389   0.403  11.773
 1437SOL     OW 5197   1.701   1.504  12.273
 1437SOL    HW1 5198   1.623   1.478  12.223
 1437SOL    HW2 5199   1.716   1.431  12.333
 1438SOL     OW 5200   0.333   0.557  12.465
 1438SOL    HW1 5201   0.389   0.501  12.518
 1438SOL    HW2 5202   0.348   0.529  12.375
 1439SOL     OW 5203   0.828   1.580  11.849
 1439SOL    HW1 5204   0.814   1.640  11.776
 1439SOL    HW2 5205   0.753   1.520  11.847
 1440SOL     OW 5206   1.461   0.254  12.282
 1440SOL    HW1 5207   1.478   0.167  12.319
 1440SOL    HW2 5208   1.405   0.297  12.348
 1441SOL     OW 5209   1.003   0.028  12.318
 1441SOL    HW1 5210   0.923   3.990  12.282
 1441SOL    HW2 5211   1.063   3.954  12.327
 1442SOL     OW 5212   0.772   1.333  11.489
 1442SOL    HW1 5213   0.745   1.242  11.496
 1442SOL    HW2 5214   0.854   1.338  11.540
 1443SOL     OW 5215   0.620   1.556  12.458
 1443SOL    HW1 5216   0.622   1.639  12.507
 1443SOL    HW2 5217   0.708   1.549  12.421
 1444SOL     OW 5218   1.311   0.074  11.337
 1444SOL    HW1 5219   1.323   3.994  11.285
 1444SOL    HW2 5220   1.226   0.062  11.379
 1445SOL     OW 5221   1.281   0.457  11.857
 1445SOL    HW1 5222   1.235   0.540  11.852
 1445SOL    HW2 5223   1.284   0.437  11.951
 1446SOL     OW 5224   1.588   0.210  12.040
 1446SOL    HW1 5225   1.539   0.234  12.118
 1446SOL    HW2 5226   1.588   0.289  11.986
 1447SOL     OW 5227   0.047   1.049  11.413
 1447SOL    HW1 5228   0.141   1.032  11.404
 1447SOL    HW2 5229   0.011   0.965  11.443
 1448SOL     OW 5230   0.887   1.656  11.512
 1448SOL    HW1 5231   0.813   1.640  11.454
 1448SOL    HW2 5232   0.859   1.730  11.566
 1449SOL     OW 5233   0.231   0.628  13.151
 1449SOL    HW1 5234   0.138   0.631  13.172
 1449SOL    HW2 5235   0.234   0.598  13.060
 1450SOL     OW 5236   0.282   0.253   0.144
 1450SOL    HW1 5237   0.334   0.319   0.190
 1450SOL    HW2 5238   0.205   0.300   0.112
 1451SOL     OW 5239   0.018   0.381  13.666
 1451SOL    HW1 5240   3.927   0.403  13.647
 1451SOL    HW2 5241   0.028   0.290  13.640
 1452SOL     OW 5242   1.512   1.473  13.721
 1452SOL    HW1 5243   1.457   1.414  13.772
 1452SOL    HW2 5244   1.461   1.491  13.642
 1453SOL     OW 5245   1.131   0.699  13.732
 1453SOL    HW1 5246   1.184   0.775  13.708
 1453SOL    HW2 5247   1.076   0.730  13.804
 1454SOL     OW 5248   1.770   0.616  13.257
 1454SOL    HW1 5249   1.746   0.612  13.164
 1454SOL    HW2 5250   1.755   0.528  13.290
 1455SOL     OW 5251   0.687   1.011  13.671
 1455SOL    HW1 5252   0.740   0.990  13.748
 1455SOL    HW2 5253   0.613   1.062  13.705
 1456SOL     OW 5254   1.616   0.455  13.759
 1456SOL    HW1 5255   1.533   0.475  13.717
 1456SOL    HW2 5256   1.646   0.538  13.796
 1457SOL     OW 5257   0.218   1.714  13.485
 1457SOL    HW1 5258   0.236   1.788  13.543
 1457SOL    HW2 5259   0.296   1.707  13.431
 1458SOL     OW 5260   0.249   1.445  13.571
 1458SOL    HW1 5261   0.219   1.536  13.561
 1458SOL    HW2 5262   0.185   1.406  13.631
 1459SOL     OW 5263   0.256   1.075   0.018
 1459SOL    HW1 5264   0.274   1.034   0.103
 1459SOL    HW2 5265   0.215   1.159   0.040
 1460SOL     OW 5266   0.576   0.986  13.171
 1460SOL    HW1 5267   0.625   1.030  13.101
 1460SOL    HW2 5268   0.618   1.016  13.252
 1461SOL     OW 5269   0.147   0.652  13.609
 1461SOL    HW1 5270   0.088   0.577  13.601
 1461SOL    HW2 5271   0.101   0.712  13.668
 1462SOL     OW 5272   0.044   1.591  13.172
 1462SOL    HW1 5273   0.037   1.498  13.198
 1462SOL    HW2 5274   3.962   1.630  13.203
 1463SOL     OW 5275   1.684   0.912  13.665
 1463SOL    HW1 5276   1.771   0.880  13.645
 1463SOL    HW2 5277   1.662   0.970  13.592
 1464SOL     OW 5278   1.648   1.102  13.457
 1464SOL    HW1 5279   1.734   1.104  13.415
 1464SOL    HW2 5280   1.656   1.163  13.531
 1465SOL     OW 5281   0.612   1.387  13.761
 1465SOL    HW1 5282   0.562   1.307  13.778
 1465SOL    HW2 5283   0.582   1.416  13.675
 1466SOL     OW 5284   0.821   0.004  13.549
 1466SOL    HW1 5285   0.865   0.085  13.524
 1466SOL    HW2 5286   0.728   0.025  13.546
 1467SOL     OW 5287   1.530   0.994  13.233
 1467SOL    HW1 5288   1.461   0.937  13.266
 1467SOL    HW2 5289   1.572   1.030  13.311
 1468SOL     OW 5290   1.575   1.724  13.607
 1468SOL    HW1 5291   1.580   1.701  13.514
 1468SOL    HW2 5292   1.587   1.641  13.653
 1469SOL     OW 5293   0.594   0.718  13.297
 1469SOL    HW1 5294   0.599   0.802  13.252
 1469SOL    HW2 5295   0.532   0.733  13.368
 1470SOL     OW 5296   1.242   0.339   0.054
 1470SOL    HW1 5297   1.151   0.328   0.082
 1470SOL    HW2 5298   1.293   0.293   0.121
 1471SOL     OW 5299   1.572   1.660  13.336
 1471SOL    HW1 5300   1.667   1.652  13.321
 1471SOL    HW2 5301   1.533   1.649  13.249
 1472SOL     OW 5302   1.050   0.697  13.459
 1472SOL    HW1 5303   1.064   0.684  13.553
 1472SOL    HW2 5304   0.968   0.651  13.441
 1473SOL     OW 5305   0.079   0.841  13.806
 1473SOL    HW1 5306   0.158   0.820  13.855
 1473SOL    HW2 5307   0.077   0.936  13.803
 1474SOL     OW 5308   0.894   0.352  13.231
 1474SOL    HW1 5309   0.936   0.412  13.169
 1474SOL    HW2 5310   0.894   0.267  13.186
 1475SOL     OW 5311   1.365   1.135  13.553
 1475SOL    HW1 5312   1.454   1.135  13.518
 1475SOL    HW2 5313   1.320   1.204  13.504
 1476SOL     OW 5314   0.997   1.438  13.501
 1476SOL    HW1 5315   0.968   1.515  13.453
 1476SOL    HW2 5316   0.968   1.454  13.591
 1477SOL     OW 5317   0.407   1.800  13.858
 1477SOL    HW1 5318   0.415   1.705  13.867
 1477SOL    HW2 5319   0.487   1.835  13.897
 1478SOL     OW 5320   1.790   1.045  13.899
 1478SOL    HW1 5321   1.732   1.047  13.822
 1478SOL    HW2 5322   1.730   1.040   0.074
 1479SOL     OW 5323   0.311   0.954  13.276
 1479SOL    HW1 5324   0.394   0.977  13.235
 1479SOL    HW2 5325   0.298   0.862  13.255
 1480SOL     OW 5326   1.490   0.734  13.752
 1480SOL    HW1 5327   1.480   0.695  13.839
 1480SOL    HW2 5328   1.561   0.798  13.763
 1481SOL     OW 5329   1.122   1.777  13.263
 1481SOL    HW1 5330   1.048   1.738  13.309
 1481SOL    HW2 5331   1.145   1.714  13.195
 1482SOL     OW 5332   1.630   1.384  13.123
 1482SOL    HW1 5333   1.586   1.466  13.103
 1482SOL    HW2 5334   1.565   1.316  13.104
 1483SOL     OW 5335   0.466   1.739  13.349
 1483SOL    HW1 5336   0.508   1.794  13.415
 1483SOL    HW2 5337   0.539   1.704  13.297
 1484SOL     OW 5338   1.429   0.158  13.446
 1484SOL    HW1 5339   1.393   0.108  13.373
 1484SOL    HW2 5340   1.520   0.131  13.451
 1485SOL     OW 5341   0.920   1.688   0.011
 1485SOL    HW1 5342   0.948   1.621   0.073
 1485SOL    HW2 5343   0.883   1.640  13.837
 1486SOL     OW 5344   0.398   0.697  13.502
 1486SOL    HW1 5345   0.425   0.606  13.516
 1486SOL    HW2 5346   0.307   0.699  13.531
 1487SOL     OW 5347   0.645   0.131  13.137
 1487SOL    HW1 5348   0.669   0.047  13.176
 1487SOL    HW2 5349   0.584   0.108  13.067
 1488SOL     OW 5350   0.551   0.055  13.522
 1488SOL    HW1 5351   0.473   0.059  13.578
 1488SOL    HW2 5352   0.550   0.138  13.474
 1489SOL     OW 5353   1.430   1.200  13.076
 1489SOL    HW1 5354   1.459   1.123  13.125
 1489SOL    HW2 5355   1.344   1.221  13.111
 1490SOL     OW 5356   0.344   0.051  13.235
 1490SOL    HW1 5357   0.359   0.092  13.149
 1490SOL    HW2 5358   0.432   0.031  13.267
 1491SOL     OW 5359   0.942   0.248  13.493
 1491SOL    HW1 5360   0.915   0.290  13.411
 1491SOL    HW2 5361   1.037   0.255  13.493
 1492SOL     OW 5362   0.470   1.144  13.767
 1492SOL    HW1 5363   0.398   1.122  13.825
 1492SOL    HW2 5364   0.433   1.134  13.679
 1493SOL     OW 5365   1.261   1.793  13.635
 1493SOL    HW1 5366   1.308   1.860  13.585
 1493SOL    HW2 5367   1.194   1.841  13.683
 1494SOL     OW 5368   1.022   0.543  13.063
 1494SOL    HW1 5369   0.979   0.626  13.043
 1494SOL    HW2 5370   1.086   0.564  13.130
 1495SOL     OW 5371   0.899   0.474  13.669
 1495SOL    HW1 5372   0.827   0.518  13.623
 1495SOL    HW2 5373   0.905   0.388  13.627
 1496SOL     OW 5374   1.001   0.038  13.794
 1496SOL    HW1 5375   0.970   0.064  13.708
 1496SOL    HW2 5376   1.024   3.946  13.785
 1497SOL     OW 5377   1.846   0.818  13.417
 1497SOL    HW1 5378   1.904   0.766  13.473
 1497SOL    HW2 5379   1.816   0.756  13.350
 1498SOL     OW 5380   0.487   1.421  13.194
 1498SOL    HW1 5381   0.411   1.390  13.243
 1498SOL    HW2 5382   0.472   1.389  13.105
 1499SOL     OW 5383   1.680   1.257  13.668
 1499SOL    HW1 5384   1.773   1.264  13.691
 1499SOL    HW2 5385   1.641   1.337  13.701
 1500SOL     OW 5386   1.395   0.576  13.104
 1500SOL    HW1 5387   1.333   0.556  13.174
 1500SOL    HW2 5388   1.481   0.555  13.142
 1501SOL     OW 5389   0.558   0.272  13.352
 1501SOL    HW1 5390   0.604   0.229  13.280
 1501SOL    HW2 5391   0.528   0.355  13.316
 1502SOL     OW 5392   0.708   1.063  13.400
 1502SOL    HW1 5393   0.694   1.048  13.493
 1502SOL    HW2 5394   0.785   1.010  13.378
 1503SOL     OW 5395   0.373   1.103  13.515
 1503SOL    HW1 5396   0.366   1.184  13.464
 1503SOL    HW2 5397   0.370   1.033  13.450
 1504SOL     OW 5398   0.566   0.540  13.863
 1504SOL    HW1 5399   0.579   0.608  13.797
 1504SOL    HW2 5400   0.625   0.565   0.034
 1505SOL     OW 5401   1.239   1.344  13.417
 1505SOL    HW1 5402   1.293   1.419  13.444
 1505SOL    HW2 5403   1.152   1.363  13.451
 1506SOL     OW 5404   1.584   0.633  13.513
 1506SOL    HW1 5405   1.544   0.684  13.584
 1506SOL    HW2 5406   1.626   0.699  13.457
 1507SOL     OW 5407   1.201   0.533  13.294
 1507SOL    HW1 5408   1.208   0.454  13.347
 1507SOL    HW2 5409   1.157   0.596  13.351
 1508SOL     OW 5410   0.334   0.049  13.680
 1508SOL    HW1 5411   0.311   0.141  13.690
 1508SOL    HW2 5412   0.274   0.002  13.739
 1509SOL     OW 5413   1.590   0.391  13.407
 1509SOL    HW1 5414   1.569   0.326  13.474
 1509SOL    HW2 5415   1.580   0.475  13.451
 1510SOL     OW 5416   1.504   0.279  13.166
 1510SOL    HW1 5417   1.432   0.218  13.181
 1510SOL    HW2 5418   1.519   0.319  13.252
 1511SOL     OW 5419   1.288   0.826  13.062
 1511SOL    HW1 5420   1.331   0.741  13.066
 1511SOL    HW2 5421   1.320   0.866  12.981
 1512SOL     OW 5422   0.000   1.318  13.215
 1512SOL    HW1 5423   3.906   1.334  13.219
 1512SOL    HW2 5424   0.009   1.224  13.232
 1513SOL     OW 5425   0.818   0.575  13.388
 1513SOL    HW1 5426   0.822   0.496  13.334
 1513SOL    HW2 5427   0.741   0.622  13.356
 1514SOL     OW 5428   0.452   0.492  13.232
 1514SOL    HW1 5429   0.517   0.561  13.248
 1514SOL    HW2 5430   0.372   0.539  13.208
 1515SOL     OW 5431   1.315   0.851  13.338
 1515SOL    HW1 5432   1.238   0.827  13.388
 1515SOL    HW2 5433   1.288   0.840  13.246
 1516SOL     OW 5434   1.695   0.118  13.460
 1516SOL    HW1 5435   1.787   0.131  13.439
 1516SOL    HW2 5436   1.695   0.050  13.528
 1517SOL     OW 5437   1.366   1.564  13.505
 1517SOL    HW1 5438   1.426   1.600  13.440
 1517SOL    HW2 5439   1.327   1.641  13.547
 1518SOL     OW 5440   1.289   0.913  13.684
 1518SOL    HW1 5441   1.366   0.859  13.671
 1518SOL    HW2 5442   1.311   0.997  13.642
 1519SOL     OW 5443   0.670   1.622  13.189
 1519SOL    HW1 5444   0.681   1.634  13.095
 1519SOL    HW2 5445   0.615   1.545  13.197
 1520SOL     OW 5446   1.826   0.174   0.065
 1520SOL    HW1 5447   1.865   0.087   0.055
 1520SOL    HW2 5448   1.734   0.161   0.040
 1521SOL     OW 5449   0.286   0.309  13.737
 1521SOL    HW1 5450   0.206   0.354  13.711
 1521SOL    HW2 5451   0.292   0.323  13.831
 1522SOL     OW 5452   1.207   1.604  13.066
 1522SOL    HW1 5453   1.197   1.512  13.092
 1522SOL    HW2 5454   1.142   1.617  12.997
 1523SOL     OW 5455   0.918   0.913  13.329
 1523SOL    HW1 5456   0.978   0.943  13.260
 1523SOL    HW2 5457   0.964   0.839  13.370
 1524SOL     OW 5458   1.487   1.625  13.075
 1524SOL    HW1 5459   1.393   1.618  13.059
 1524SOL    HW2 5460   1.526   1.633  12.988
 1525SOL     OW 5461   1.050   1.091  13.755
 1525SOL    HW1 5462   0.963   1.053  13.741
 1525SOL    HW2 5463   1.104   1.053  13.686
 1526SOL     OW 5464   0.602   1.493  13.506
 1526SOL    HW1 5465   0.647   1.441  13.439
 1526SOL    HW2 5466   0.527   1.531  13.459
 1527SOL     OW 5467   0.253   1.340  13.325
 1527SOL    HW1 5468   0.159   1.348  13.306
 1527SOL    HW2 5469   0.263   1.379  13.412
 1528SOL     OW 5470   0.088   0.322  13.061
 1528SOL    HW1 5471   3.992   0.320  13.052
 1528SOL    HW2 5472   0.113   0.404  13.019
 1529SOL     OW 5473   0.043   0.170  13.306
 1529SOL    HW1 5474   0.044   0.233  13.234
 1529SOL    HW2 5475   0.120   0.191  13.359
 1530SOL     OW 5476   1.177   1.337  13.148
 1530SOL    HW1 5477   1.086   1.308  13.149
 1530SOL    HW2 5478   1.204   1.337  13.240
 1531SOL     OW 5479   1.221   0.331  13.482
 1531SOL    HW1 5480   1.290   0.265  13.472
 1531SOL    HW2 5481   1.247   0.381  13.559
 1532SOL     OW 5482   0.594   0.750  13.692
 1532SOL    HW1 5483   0.628   0.838  13.673
 1532SOL    HW2 5484   0.524   0.737  13.627
 1533SOL     OW 5485   0.864   1.366  13.071
 1533SOL    HW1 5486   0.825   1.393  13.155
 1533SOL    HW2 5487   0.879   1.447  13.024
 1534SOL     OW 5488   0.659   1.855   0.060
 1534SOL    HW1 5489   0.677   1.947   0.045
 1534SOL    HW2 5490   0.745   1.815   0.074
 1535SOL     OW 5491   0.827   0.965  13.897
 1535SOL    HW1 5492   0.854   0.883   0.037
 1535SOL    HW2 5493   0.855   1.032   0.059
 1536SOL     OW 5494   1.076   0.987  13.123
 1536SOL    HW1 5495   1.055   1.039  13.046
 1536SOL    HW2 5496   1.151   0.933  13.096
 1537SOL     OW 5497   0.115   1.275  13.758
 1537SOL    HW1 5498   0.052   1.234  13.817
 1537SOL    HW2 5499   0.121   1.215  13.683
 1538SOL     OW 5500   0.450   0.440  13.557
 1538SOL    HW1 5501   0.473   0.366  13.501
 1538SOL    HW2 5502   0.404   0.401  13.631
 1539SOL     OW 5503   1.704   1.505   0.318
 1539SOL    HW1 5504   1.669   1.453   0.247
 1539SOL    HW2 5505   1.767   1.447   0.362
 1540SOL     OW 5506   0.821   1.552  13.705
 1540SOL    HW1 5507   0.793   1.608  13.633
 1540SOL    HW2 5508   0.745   1.495  13.721
 1541SOL     OW 5509   0.772   1.334  13.348
 1541SOL    HW1 5510   0.744   1.243  13.356
 1541SOL    HW2 5511   0.853   1.339  13.399
 1542SOL     OW 5512   1.312   0.078  13.206
 1542SOL    HW1 5513   1.335   0.001  13.153
 1542SOL    HW2 5514   1.224   0.059  13.238
 1543SOL     OW 5515   1.291   0.459  13.715
 1543SOL    HW1 5516   1.242   0.541  13.715
 1543SOL    HW2 5517   1.285   0.428  13.805
 1544SOL     OW 5518   0.047   1.049  13.270
 1544SOL    HW1 5519   0.141   1.032  13.262
 1544SOL    HW2 5520   0.011   0.967  13.304
 1545SOL     OW 5521   0.887   1.656  13.374
 1545SOL    HW1 5522   0.813   1.640  13.316
 1545SOL    HW2 5523   0.859   1.728  13.430
 1546SOL     OW 5524   0.231   2.513   0.120
 1546SOL    HW1 5525   0.137   2.506   0.134
 1546SOL    HW2 5526   0.247   2.470   0.036
 1547SOL     OW 5527   0.229   2.134   0.987
 1547SOL    HW1 5528   0.250   2.100   1.074
 1547SOL    HW2 5529   0.134   2.126   0.981
 1548SOL     OW 5530   0.010   2.224   0.631
 1548SOL    HW1 5531   3.924   2.242   0.668
 1548SOL    HW2 5532   3.992   2.191   0.543
 1549SOL     OW 5533   0.580   3.151   1.190
 1549SOL    HW1 5534   0.493   3.154   1.148
 1549SOL    HW2 5535   0.594   3.239   1.223
 1550SOL     OW 5536   1.564   3.372   0.708
 1550SOL    HW1 5537   1.519   3.350   0.790
 1550SOL    HW2 5538   1.494   3.375   0.642
 1551SOL     OW 5539   1.132   2.560   0.699
 1551SOL    HW1 5540   1.180   2.641   0.686
 1551SOL    HW2 5541   1.085   2.573   0.782
 1552SOL     OW 5542   1.768   2.461   0.226
 1552SOL    HW1 5543   1.793   2.411   0.149
 1552SOL    HW2 5544   1.724   2.398   0.283
 1553SOL     OW 5545   0.752   3.001   1.042
 1553SOL    HW1 5546   0.689   3.037   1.104
 1553SOL    HW2 5547   0.789   3.077   0.997
 1554SOL     OW 5548   0.870   2.631   1.823
 1554SOL    HW1 5549   0.861   2.702   1.886
 1554SOL    HW2 5550   0.893   2.675   1.741
 1555SOL     OW 5551   0.684   2.862   0.647
 1555SOL    HW1 5552   0.751   2.852   0.715
 1555SOL    HW2 5553   0.616   2.915   0.688
 1556SOL     OW 5554   0.712   3.011   1.816
 1556SOL    HW1 5555   0.760   3.089   1.845
 1556SOL    HW2 5556   0.631   3.046   1.779
 1557SOL     OW 5557   0.351   3.263   1.077
 1557SOL    HW1 5558   0.268   3.250   1.031
 1557SOL    HW2 5559   0.401   3.322   1.021
 1558SOL     OW 5560   1.460   3.363   1.357
 1558SOL    HW1 5561   1.513   3.441   1.367
 1558SOL    HW2 5562   1.393   3.370   1.425
 1559SOL     OW 5563   0.450   2.260   1.486
 1559SOL    HW1 5564   0.525   2.201   1.491
 1559SOL    HW2 5565   0.374   2.204   1.500
 1560SOL     OW 5566   1.604   2.301   0.734
 1560SOL    HW1 5567   1.523   2.323   0.690
 1560SOL    HW2 5568   1.628   2.380   0.783
 1561SOL     OW 5569   0.226   3.572   0.471
 1561SOL    HW1 5570   0.221   3.656   0.515
 1561SOL    HW2 5571   0.301   3.579   0.412
 1562SOL     OW 5572   1.137   3.203   1.693
 1562SOL    HW1 5573   1.178   3.197   1.780
 1562SOL    HW2 5574   1.085   3.124   1.686
 1563SOL     OW 5575   0.244   3.307   0.543
 1563SOL    HW1 5576   0.223   3.399   0.527
 1563SOL    HW2 5577   0.170   3.275   0.594
 1564SOL     OW 5578   0.247   2.928   0.883
 1564SOL    HW1 5579   0.268   2.844   0.923
 1564SOL    HW2 5580   0.195   2.974   0.949
 1565SOL     OW 5581   0.611   3.648   1.428
 1565SOL    HW1 5582   0.529   3.634   1.474
 1565SOL    HW2 5583   0.637   3.737   1.452
 1566SOL     OW 5584   0.562   2.844   0.165
 1566SOL    HW1 5585   0.588   2.886   0.083
 1566SOL    HW2 5586   0.617   2.883   0.232
 1567SOL     OW 5587   1.563   1.993   1.449
 1567SOL    HW1 5588   1.576   2.079   1.409
 1567SOL    HW2 5589   1.563   2.011   1.543
 1568SOL     OW 5590   0.141   2.518   0.572
 1568SOL    HW1 5591   0.087   2.438   0.573
 1568SOL    HW2 5592   0.106   2.571   0.644
 1569SOL     OW 5593   1.838   3.605   0.337
 1569SOL    HW1 5594   1.900   3.572   0.402
 1569SOL    HW2 5595   1.862   3.697   0.326
 1570SOL     OW 5596   0.030   3.469   0.139
 1570SOL    HW1 5597   0.033   3.374   0.156
 1570SOL    HW2 5598   3.936   3.490   0.145
 1571SOL     OW 5599   1.688   2.779   0.643
 1571SOL    HW1 5600   1.770   2.736   0.618
 1571SOL    HW2 5601   1.664   2.832   0.567
 1572SOL     OW 5602   1.648   2.966   0.432
 1572SOL    HW1 5603   1.735   2.969   0.392
 1572SOL    HW2 5604   1.651   3.030   0.503
 1573SOL     OW 5605   0.139   2.615   1.589
 1573SOL    HW1 5606   0.235   2.610   1.586
 1573SOL    HW2 5607   0.121   2.703   1.621
 1574SOL     OW 5608   0.616   3.248   0.735
 1574SOL    HW1 5609   0.568   3.165   0.744
 1574SOL    HW2 5610   0.599   3.275   0.645
 1575SOL     OW 5611   1.287   3.098   1.422
 1575SOL    HW1 5612   1.319   3.031   1.362
 1575SOL    HW2 5613   1.346   3.094   1.498
 1576SOL     OW 5614   0.822   1.862   0.513
 1576SOL    HW1 5615   0.861   1.947   0.490
 1576SOL    HW2 5616   0.728   1.881   0.519
 1577SOL     OW 5617   0.184   2.812   1.280
 1577SOL    HW1 5618   0.272   2.777   1.267
 1577SOL    HW2 5619   0.132   2.774   1.209
 1578SOL     OW 5620   1.530   2.860   0.205
 1578SOL    HW1 5621   1.462   2.801   0.238
 1578SOL    HW2 5622   1.571   2.896   0.283
 1579SOL     OW 5623   1.218   3.666   1.627
 1579SOL    HW1 5624   1.194   3.727   1.557
 1579SOL    HW2 5625   1.219   3.580   1.585
 1580SOL     OW 5626   0.342   2.109   1.816
 1580SOL    HW1 5627   0.378   2.197   1.824
 1580SOL    HW2 5628   0.250   2.119   1.841
 1581SOL     OW 5629   1.466   3.281   0.950
 1581SOL    HW1 5630   1.398   3.296   1.016
 1581SOL    HW2 5631   1.453   3.190   0.924
 1582SOL     OW 5632   1.659   3.601   0.588
 1582SOL    HW1 5633   1.643   3.577   0.497
 1582SOL    HW2 5634   1.634   3.523   0.638
 1583SOL     OW 5635   0.598   2.579   0.266
 1583SOL    HW1 5636   0.599   2.662   0.218
 1583SOL    HW2 5637   0.537   2.593   0.338
 1584SOL     OW 5638   1.280   2.221   0.934
 1584SOL    HW1 5639   1.191   2.186   0.944
 1584SOL    HW2 5640   1.334   2.166   0.990
 1585SOL     OW 5641   1.561   3.593   0.314
 1585SOL    HW1 5642   1.657   3.593   0.312
 1585SOL    HW2 5643   1.535   3.559   0.229
 1586SOL     OW 5644   0.791   2.480   1.450
 1586SOL    HW1 5645   0.765   2.455   1.539
 1586SOL    HW2 5646   0.754   2.412   1.394
 1587SOL     OW 5647   1.393   2.335   1.678
 1587SOL    HW1 5648   1.396   2.381   1.762
 1587SOL    HW2 5649   1.455   2.262   1.688
 1588SOL     OW 5650   0.952   2.748   1.584
 1588SOL    HW1 5651   1.007   2.679   1.547
 1588SOL    HW2 5652   0.904   2.783   1.509
 1589SOL     OW 5653   0.993   2.273   1.237
 1589SOL    HW1 5654   0.905   2.293   1.270
 1589SOL    HW2 5655   0.977   2.229   1.153
 1590SOL     OW 5656   1.052   2.563   0.429
 1590SOL    HW1 5657   1.069   2.554   0.523
 1590SOL    HW2 5658   0.969   2.517   0.415
 1591SOL     OW 5659   0.082   2.690   0.791
 1591SOL    HW1 5660   0.157   2.660   0.843
 1591SOL    HW2 5661   0.099   2.784   0.777
 1592SOL     OW 5662   0.127   3.718   1.578
 1592SOL    HW1 5663   0.135   3.686   1.668
 1592SOL    HW2 5664   0.035   3.705   1.555
 1593SOL     OW 5665   0.869   2.222   0.215
 1593SOL    HW1 5666   0.908   2.283   0.153
 1593SOL    HW2 5667   0.883   2.136   0.177
 1594SOL     OW 5668   1.682   2.447   1.830
 1594SOL    HW1 5669   1.652   2.519   1.774
 1594SOL    HW2 5670   1.721   2.385   1.769
 1595SOL     OW 5671   1.379   3.004   0.543
 1595SOL    HW1 5672   1.457   2.992   0.489
 1595SOL    HW2 5673   1.325   3.067   0.495
 1596SOL     OW 5674   0.546   2.040   0.895
 1596SOL    HW1 5675   0.553   2.072   0.985
 1596SOL    HW2 5676   0.547   2.120   0.841
 1597SOL     OW 5677   1.003   3.305   0.474
 1597SOL    HW1 5678   0.971   3.379   0.424
 1597SOL    HW2 5679   0.982   3.326   0.565
 1598SOL     OW 5680   0.359   3.670   0.863
 1598SOL    HW1 5681   0.438   3.618   0.875
 1598SOL    HW2 5682   0.388   3.761   0.871
 1599SOL     OW 5683   1.800   2.912   0.870
 1599SOL    HW1 5684   1.746   2.898   0.792
 1599SOL    HW2 5685   1.737   2.921   0.942
 1600SOL     OW 5686   1.228   3.399   1.511
 1600SOL    HW1 5687   1.215   3.327   1.572
 1600SOL    HW2 5688   1.159   3.387   1.445
 1601SOL     OW 5689   0.309   2.793   0.241
 1601SOL    HW1 5690   0.400   2.807   0.214
 1601SOL    HW2 5691   0.297   2.698   0.235
 1602SOL     OW 5692   1.481   2.605   0.724
 1602SOL    HW1 5693   1.474   2.565   0.811
 1602SOL    HW2 5694   1.557   2.662   0.729
 1603SOL     OW 5695   0.468   3.122   1.737
 1603SOL    HW1 5696   0.442   3.130   1.645
 1603SOL    HW2 5697   0.386   3.126   1.785
 1604SOL     OW 5698   1.126   3.639   0.232
 1604SOL    HW1 5699   1.062   3.594   0.286
 1604SOL    HW2 5700   1.152   3.574   0.166
 1605SOL     OW 5701   0.204   2.135   1.508
 1605SOL    HW1 5702   0.114   2.168   1.502
 1605SOL    HW2 5703   0.195   2.048   1.547
 1606SOL     OW 5704   1.635   3.237   0.086
 1606SOL    HW1 5705   1.600   3.320   0.054
 1606SOL    HW2 5706   1.566   3.173   0.067
 1607SOL     OW 5707   0.466   3.604   0.321
 1607SOL    HW1 5708   0.504   3.666   0.384
 1607SOL    HW2 5709   0.542   3.571   0.271
 1608SOL     OW 5710   1.404   1.967   0.433
 1608SOL    HW1 5711   1.387   1.949   0.340
 1608SOL    HW2 5712   1.488   1.923   0.451
 1609SOL     OW 5713   0.253   3.656   1.226
 1609SOL    HW1 5714   0.297   3.589   1.279
 1609SOL    HW2 5715   0.251   3.620   1.138
 1610SOL     OW 5716   0.938   3.563   0.900
 1610SOL    HW1 5717   1.016   3.512   0.921
 1610SOL    HW2 5718   0.894   3.513   0.830
 1611SOL     OW 5719   0.398   2.557   0.471
 1611SOL    HW1 5720   0.421   2.465   0.484
 1611SOL    HW2 5721   0.306   2.562   0.499
 1612SOL     OW 5722   1.532   2.081   1.723
 1612SOL    HW1 5723   1.545   2.102   1.816
 1612SOL    HW2 5724   1.459   2.019   1.722
 1613SOL     OW 5725   0.765   2.141   1.755
 1613SOL    HW1 5726   0.844   2.086   1.753
 1613SOL    HW2 5727   0.719   2.112   1.834
 1614SOL     OW 5728   0.876   3.382   1.194
 1614SOL    HW1 5729   0.859   3.346   1.107
 1614SOL    HW2 5730   0.946   3.328   1.230
 1615SOL     OW 5731   1.341   2.451   1.432
 1615SOL    HW1 5732   1.371   2.420   1.518
 1615SOL    HW2 5733   1.376   2.539   1.425
 1616SOL     OW 5734   0.817   3.253   0.942
 1616SOL    HW1 5735   0.902   3.242   0.899
 1616SOL    HW2 5736   0.754   3.257   0.870
 1617SOL     OW 5737   0.928   2.371   0.901
 1617SOL    HW1 5738   0.904   2.363   0.809
 1617SOL    HW2 5739   0.959   2.284   0.926
 1618SOL     OW 5740   0.557   1.922   0.502
 1618SOL    HW1 5741   0.476   1.920   0.553
 1618SOL    HW2 5742   0.550   2.000   0.447
 1619SOL     OW 5743   1.431   3.069   0.044
 1619SOL    HW1 5744   1.450   2.988   0.092
 1619SOL    HW2 5745   1.339   3.087   0.064
 1620SOL     OW 5746   0.262   1.872   0.216
 1620SOL    HW1 5747   0.292   1.956   0.181
 1620SOL    HW2 5748   0.342   1.825   0.239
 1621SOL     OW 5749   0.942   2.109   0.461
 1621SOL    HW1 5750   0.911   2.149   0.380
 1621SOL    HW2 5751   1.036   2.127   0.462
 1622SOL     OW 5752   1.080   2.544   1.458
 1622SOL    HW1 5753   1.013   2.476   1.463
 1622SOL    HW2 5754   1.163   2.496   1.453
 1623SOL     OW 5755   1.221   3.433   0.795
 1623SOL    HW1 5756   1.236   3.499   0.727
 1623SOL    HW2 5757   1.291   3.448   0.858
 1624SOL     OW 5758   0.465   3.013   0.733
 1624SOL    HW1 5759   0.395   2.989   0.793
 1624SOL    HW2 5760   0.428   2.999   0.646
 1625SOL     OW 5761   1.266   3.657   0.608
 1625SOL    HW1 5762   1.314   3.721   0.556
 1625SOL    HW2 5763   1.194   3.707   0.646
 1626SOL     OW 5764   0.996   2.406   0.055
 1626SOL    HW1 5765   0.993   2.390  13.861
 1626SOL    HW2 5766   1.089   2.397   0.078
 1627SOL     OW 5767   0.082   2.435   1.389
 1627SOL    HW1 5768   0.172   2.421   1.359
 1627SOL    HW2 5769   0.089   2.504   1.455
 1628SOL     OW 5770   0.567   2.089   1.166
 1628SOL    HW1 5771   0.608   2.014   1.209
 1628SOL    HW2 5772   0.475   2.085   1.195
 1629SOL     OW 5773   0.867   2.320   0.639
 1629SOL    HW1 5774   0.824   2.376   0.574
 1629SOL    HW2 5775   0.889   2.240   0.592
 1630SOL     OW 5776   1.017   1.915   0.749
 1630SOL    HW1 5777   0.958   1.910   0.674
 1630SOL    HW2 5778   0.993   1.840   0.804
 1631SOL     OW 5779   1.438   3.023   0.857
 1631SOL    HW1 5780   1.367   2.959   0.856
 1631SOL    HW2 5781   1.462   3.034   0.765
 1632SOL     OW 5782   1.463   2.469   0.973
 1632SOL    HW1 5783   1.410   2.390   0.974
 1632SOL    HW2 5784   1.521   2.461   1.049
 1633SOL     OW 5785   1.847   2.672   0.382
 1633SOL    HW1 5786   1.902   2.620   0.440
 1633SOL    HW2 5787   1.816   2.610   0.316
 1634SOL     OW 5788   0.492   3.245   0.165
 1634SOL    HW1 5789   0.420   3.214   0.220
 1634SOL    HW2 5790   0.449   3.290   0.092
 1635SOL     OW 5791   1.673   3.124   0.647
 1635SOL    HW1 5792   1.767   3.127   0.659
 1635SOL    HW2 5793   1.643   3.214   0.661
 1636SOL     OW 5794   1.421   2.444   0.087
 1636SOL    HW1 5795   1.352   2.437   0.153
 1636SOL    HW2 5796   1.463   2.357   0.087
 1637SOL     OW 5797   0.533   2.124   0.326
 1637SOL    HW1 5798   0.583   2.090   0.252
 1637SOL    HW2 5799   0.500   2.209   0.296
 1638SOL     OW 5800   1.751   3.103   1.568
 1638SOL    HW1 5801   1.839   3.065   1.564
 1638SOL    HW2 5802   1.766   3.194   1.596
 1639SOL     OW 5803   1.056   3.214   1.332
 1639SOL    HW1 5804   0.981   3.184   1.383
 1639SOL    HW2 5805   1.132   3.173   1.374
 1640SOL     OW 5806   1.610   3.488   1.656
 1640SOL    HW1 5807   1.601   3.522   1.567
 1640SOL    HW2 5808   1.693   3.440   1.656
 1641SOL     OW 5809   1.132   3.067   1.103
 1641SOL    HW1 5810   1.073   3.105   1.168
 1641SOL    HW2 5811   1.100   3.101   1.020
 1642SOL     OW 5812   1.626   2.959   1.076
 1642SOL    HW1 5813   1.620   3.022   1.148
 1642SOL    HW2 5814   1.549   2.978   1.023
 1643SOL     OW 5815   0.918   1.957   1.394
 1643SOL    HW1 5816   0.941   1.939   1.303
 1643SOL    HW2 5817   0.997   1.997   1.431
 1644SOL     OW 5818   0.984   2.977   1.723
 1644SOL    HW1 5819   0.893   2.993   1.745
 1644SOL    HW2 5820   0.982   2.899   1.668
 1645SOL     OW 5821   0.715   2.922   0.377
 1645SOL    HW1 5822   0.701   2.903   0.470
 1645SOL    HW2 5823   0.790   2.867   0.353
 1646SOL     OW 5824   0.422   2.678   1.252
 1646SOL    HW1 5825   0.490   2.687   1.319
 1646SOL    HW2 5826   0.388   2.590   1.264
 1647SOL     OW 5827   1.265   2.237   1.278
 1647SOL    HW1 5828   1.297   2.315   1.323
 1647SOL    HW2 5829   1.174   2.259   1.255
 1648SOL     OW 5830   0.065   3.441   1.346
 1648SOL    HW1 5831   0.070   3.495   1.266
 1648SOL    HW2 5832   0.156   3.430   1.373
 1649SOL     OW 5833   0.361   2.965   0.481
 1649SOL    HW1 5834   0.354   3.043   0.426
 1649SOL    HW2 5835   0.380   2.894   0.419
 1650SOL     OW 5836   0.550   2.396   0.861
 1650SOL    HW1 5837   0.564   2.453   0.786
 1650SOL    HW2 5838   0.617   2.423   0.924
 1651SOL     OW 5839   1.248   3.209   0.399
 1651SOL    HW1 5840   1.304   3.282   0.425
 1651SOL    HW2 5841   1.161   3.233   0.431
 1652SOL     OW 5842   1.284   3.321   1.148
 1652SOL    HW1 5843   1.340   3.325   1.226
 1652SOL    HW2 5844   1.228   3.245   1.163
 1653SOL     OW 5845   1.578   2.490   0.477
 1653SOL    HW1 5846   1.530   2.533   0.547
 1653SOL    HW2 5847   1.608   2.561   0.420
 1654SOL     OW 5848   0.345   3.389   1.317
 1654SOL    HW1 5849   0.335   3.339   1.236
 1654SOL    HW2 5850   0.439   3.404   1.325
 1655SOL     OW 5851   0.416   2.601   1.601
 1655SOL    HW1 5852   0.479   2.646   1.545
 1655SOL    HW2 5853   0.456   2.515   1.618
 1656SOL     OW 5854   1.601   2.649   1.676
 1656SOL    HW1 5855   1.515   2.691   1.671
 1656SOL    HW2 5856   1.653   2.694   1.609
 1657SOL     OW 5857   0.996   1.990   1.753
 1657SOL    HW1 5858   1.054   2.062   1.729
 1657SOL    HW2 5859   1.044   1.911   1.729
 1658SOL     OW 5860   0.497   1.897   1.746
 1658SOL    HW1 5861   0.453   1.845   1.679
 1658SOL    HW2 5862   0.443   1.975   1.755
 1659SOL     OW 5863   0.585   2.736   1.032
 1659SOL    HW1 5864   0.618   2.826   1.033
 1659SOL    HW2 5865   0.529   2.730   1.109
 1660SOL     OW 5866   1.354   2.720   1.026
 1660SOL    HW1 5867   1.269   2.709   0.983
 1660SOL    HW2 5868   1.396   2.635   1.018
 1661SOL     OW 5869   1.219   2.404   0.273
 1661SOL    HW1 5870   1.222   2.324   0.325
 1661SOL    HW2 5871   1.163   2.463   0.322
 1662SOL     OW 5872   0.310   2.058   1.247
 1662SOL    HW1 5873   0.264   2.095   1.322
 1662SOL    HW2 5874   0.287   1.965   1.248
 1663SOL     OW 5875   0.060   3.167   1.280
 1663SOL    HW1 5876   0.091   3.127   1.362
 1663SOL    HW2 5877   0.052   3.260   1.301
 1664SOL     OW 5878   0.723   2.493   1.056
 1664SOL    HW1 5879   0.799   2.478   0.999
 1664SOL    HW2 5880   0.695   2.582   1.035
 1665SOL     OW 5881   1.736   2.821   1.854
 1665SOL    HW1 5882   1.690   2.758   1.799
 1665SOL    HW2 5883   1.676   2.836   1.927
 1666SOL     OW 5884   0.315   1.923   0.623
 1666SOL    HW1 5885   0.292   2.014   0.644
 1666SOL    HW2 5886   0.320   1.880   0.708
 1667SOL     OW 5887   1.623   2.242   0.380
 1667SOL    HW1 5888   1.622   2.182   0.455
 1667SOL    HW2 5889   1.596   2.326   0.417
 1668SOL     OW 5890   1.028   2.620   0.959
 1668SOL    HW1 5891   1.022   2.638   1.053
 1668SOL    HW2 5892   1.002   2.529   0.950
 1669SOL     OW 5893   0.986   3.430   1.720
 1669SOL    HW1 5894   0.967   3.471   1.636
 1669SOL    HW2 5895   1.027   3.347   1.697
 1670SOL     OW 5896   1.854   3.365   1.604
 1670SOL    HW1 5897   1.873   3.393   1.515
 1670SOL    HW2 5898   1.934   3.382   1.653
 1671SOL     OW 5899   0.353   2.784   1.800
 1671SOL    HW1 5900   0.431   2.805   1.851
 1671SOL    HW2 5901   0.381   2.716   1.738
 1672SOL     OW 5902   1.520   2.163   0.140
 1672SOL    HW1 5903   1.499   2.070   0.148
 1672SOL    HW2 5904   1.560   2.186   0.224
 1673SOL     OW 5905   1.292   2.690   0.055
 1673SOL    HW1 5906   1.339   2.607   0.060
 1673SOL    HW2 5907   1.310   2.724  13.868
 1674SOL     OW 5908   1.068   3.199   0.855
 1674SOL    HW1 5909   1.071   3.127   0.792
 1674SOL    HW2 5910   1.127   3.265   0.820
 1675SOL     OW 5911   0.314   2.664   0.949
 1675SOL    HW1 5912   0.408   2.682   0.944
 1675SOL    HW2 5913   0.308   2.574   0.982
 1676SOL     OW 5914   0.330   2.383   1.014
 1676SOL    HW1 5915   0.296   2.295   0.998
 1676SOL    HW2 5916   0.406   2.390   0.957
 1677SOL     OW 5917   1.134   2.236   1.684
 1677SOL    HW1 5918   1.086   2.291   1.746
 1677SOL    HW2 5919   1.222   2.275   1.681
 1678SOL     OW 5920   1.160   2.063   1.471
 1678SOL    HW1 5921   1.149   2.126   1.542
 1678SOL    HW2 5922   1.202   2.113   1.401
 1679SOL     OW 5923   0.013   3.189   0.190
 1679SOL    HW1 5924   3.919   3.204   0.183
 1679SOL    HW2 5925   0.021   3.097   0.215
 1680SOL     OW 5926   0.075   3.664   0.895
 1680SOL    HW1 5927   0.091   3.569   0.892
 1680SOL    HW2 5928   0.163   3.702   0.894
 1681SOL     OW 5929   0.507   3.425   0.918
 1681SOL    HW1 5930   0.573   3.492   0.937
 1681SOL    HW2 5931   0.550   3.367   0.855
 1682SOL     OW 5932   0.979   2.651   1.225
 1682SOL    HW1 5933   1.037   2.631   1.298
 1682SOL    HW2 5934   0.894   2.614   1.250
 1683SOL     OW 5935   0.038   2.420   1.109
 1683SOL    HW1 5936   0.121   2.397   1.067
 1683SOL    HW2 5937   0.057   2.417   1.203
 1684SOL     OW 5938   0.207   2.375   1.728
 1684SOL    HW1 5939   0.245   2.327   1.654
 1684SOL    HW2 5940   0.160   2.448   1.687
 1685SOL     OW 5941   1.375   2.801   1.657
 1685SOL    HW1 5942   1.397   2.894   1.654
 1685SOL    HW2 5943   1.371   2.774   1.565
 1686SOL     OW 5944   0.814   2.439   0.376
 1686SOL    HW1 5945   0.825   2.364   0.317
 1686SOL    HW2 5946   0.743   2.489   0.337
 1687SOL     OW 5947   1.639   2.464   1.184
 1687SOL    HW1 5948   1.628   2.409   1.262
 1687SOL    HW2 5949   1.724   2.439   1.149
 1688SOL     OW 5950   0.300   3.407   1.726
 1688SOL    HW1 5951   0.251   3.477   1.771
 1688SOL    HW2 5952   0.268   3.326   1.766
 1689SOL     OW 5953   0.707   2.311   1.257
 1689SOL    HW1 5954   0.654   2.237   1.228
 1689SOL    HW2 5955   0.701   2.374   1.185
 1690SOL     OW 5956   0.928   3.533   1.469
 1690SOL    HW1 5957   0.901   3.496   1.385
 1690SOL    HW2 5958   0.920   3.628   1.456
 1691SOL     OW 5959   0.430   2.356   0.234
 1691SOL    HW1 5960   0.505   2.415   0.239
 1691SOL    HW2 5961   0.359   2.411   0.202
 1692SOL     OW 5962   0.156   2.997   1.476
 1692SOL    HW1 5963   0.156   2.946   1.557
 1692SOL    HW2 5964   0.171   2.932   1.407
 1693SOL     OW 5965   1.324   2.907   1.221
 1693SOL    HW1 5966   1.346   2.844   1.153
 1693SOL    HW2 5967   1.255   2.961   1.182
 1694SOL     OW 5968   1.314   2.720   0.327
 1694SOL    HW1 5969   1.240   2.685   0.376
 1694SOL    HW2 5970   1.291   2.705   0.235
 1695SOL     OW 5971   1.772   3.602   1.151
 1695SOL    HW1 5972   1.834   3.630   1.084
 1695SOL    HW2 5973   1.750   3.512   1.127
 1696SOL     OW 5974   1.244   3.595   1.109
 1696SOL    HW1 5975   1.327   3.616   1.066
 1696SOL    HW2 5976   1.251   3.501   1.128
 1697SOL     OW 5977   0.076   3.075   1.028
 1697SOL    HW1 5978   0.084   3.103   1.119
 1697SOL    HW2 5979   3.984   3.087   1.007
 1698SOL     OW 5980   0.679   3.527   1.733
 1698SOL    HW1 5981   0.621   3.603   1.737
 1698SOL    HW2 5982   0.739   3.546   1.661
 1699SOL     OW 5983   0.928   1.972   0.129
 1699SOL    HW1 5984   0.962   1.961   0.040
 1699SOL    HW2 5985   0.977   1.908   0.181
 1700SOL     OW 5986   1.390   3.434   0.486
 1700SOL    HW1 5987   1.452   3.469   0.423
 1700SOL    HW2 5988   1.342   3.511   0.518
 1701SOL     OW 5989   0.170   3.623   1.832
 1701SOL    HW1 5990   0.115   3.570   1.890
 1701SOL    HW2 5991   0.217   3.682   1.890
 1702SOL     OW 5992   1.277   2.788   0.671
 1702SOL    HW1 5993   1.351   2.727   0.679
 1702SOL    HW2 5994   1.311   2.860   0.618
 1703SOL     OW 5995   0.810   3.136   1.428
 1703SOL    HW1 5996   0.782   3.177   1.510
 1703SOL    HW2 5997   0.740   3.155   1.366
 1704SOL     OW 5998   0.673   3.448   0.190
 1704SOL    HW1 5999   0.659   3.490   0.105
 1704SOL    HW2 6000   0.627   3.365   0.184
 1705SOL     OW 6001   1.622   3.588   1.390
 1705SOL    HW1 6002   1.674   3.593   1.309
 1705SOL    HW2 6003   1.609   3.679   1.415
 1706SOL     OW 6004   0.266   2.174   0.717
 1706SOL    HW1 6005   0.180   2.207   0.692
 1706SOL    HW2 6006   0.261   2.165   0.812
 1707SOL     OW 6007   1.222   3.461   0.034
 1707SOL    HW1 6008   1.210   3.369   0.061
 1707SOL    HW2 6009   1.177   3.467  13.850
 1708SOL     OW 6010   0.823   2.868   1.373
 1708SOL    HW1 6011   0.868   2.863   1.289
 1708SOL    HW2 6012   0.821   2.961   1.394
 1709SOL     OW 6013   0.922   2.774   0.289
 1709SOL    HW1 6014   0.992   2.812   0.236
 1709SOL    HW2 6015   0.966   2.702   0.336
 1710SOL     OW 6016   1.486   3.508   0.065
 1710SOL    HW1 6017   1.393   3.486   0.057
 1710SOL    HW2 6018   1.521   3.498  13.877
 1711SOL     OW 6019   0.374   3.165   1.491
 1711SOL    HW1 6020   0.359   3.245   1.441
 1711SOL    HW2 6021   0.297   3.111   1.474
 1712SOL     OW 6022   1.609   3.145   1.280
 1712SOL    HW1 6023   1.670   3.134   1.353
 1712SOL    HW2 6024   1.549   3.213   1.310
 1713SOL     OW 6025   1.056   2.970   0.708
 1713SOL    HW1 6026   0.985   2.919   0.746
 1713SOL    HW2 6027   1.119   2.905   0.679
 1714SOL     OW 6028   1.023   2.103   0.966
 1714SOL    HW1 6029   1.019   2.056   0.883
 1714SOL    HW2 6030   1.018   2.034   1.033
 1715SOL     OW 6031   0.607   3.349   0.482
 1715SOL    HW1 6032   0.653   3.300   0.413
 1715SOL    HW2 6033   0.536   3.394   0.436
 1716SOL     OW 6034   1.731   2.248   1.379
 1716SOL    HW1 6035   1.801   2.313   1.383
 1716SOL    HW2 6036   1.767   2.179   1.322
 1717SOL     OW 6037   0.264   3.178   0.309
 1717SOL    HW1 6038   0.185   3.205   0.262
 1717SOL    HW2 6039   0.262   3.227   0.390
 1718SOL     OW 6040   0.107   2.859   1.717
 1718SOL    HW1 6041   0.047   2.853   1.791
 1718SOL    HW2 6042   0.193   2.841   1.755
 1719SOL     OW 6043   0.676   2.058   1.500
 1719SOL    HW1 6044   0.760   2.037   1.459
 1719SOL    HW2 6045   0.699   2.091   1.587
 1720SOL     OW 6046   0.051   2.222   0.036
 1720SOL    HW1 6047   3.961   2.228   0.067
 1720SOL    HW2 6048   0.044   2.229  13.841
 1721SOL     OW 6049   1.428   2.720   1.398
 1721SOL    HW1 6050   1.379   2.781   1.343
 1721SOL    HW2 6051   1.517   2.723   1.364
 1722SOL     OW 6052   0.053   2.037   0.313
 1722SOL    HW1 6053   0.081   2.102   0.249
 1722SOL    HW2 6054   0.115   1.964   0.302
 1723SOL     OW 6055   1.186   3.207   0.123
 1723SOL    HW1 6056   1.091   3.197   0.112
 1723SOL    HW2 6057   1.201   3.194   0.216
 1724SOL     OW 6058   0.620   2.692   1.436
 1724SOL    HW1 6059   0.676   2.768   1.421
 1724SOL    HW2 6060   0.680   2.619   1.444
 1725SOL     OW 6061   1.486   3.642   0.981
 1725SOL    HW1 6062   1.508   3.699   0.908
 1725SOL    HW2 6063   1.570   3.619   1.021
 1726SOL     OW 6064   0.716   2.424   1.703
 1726SOL    HW1 6065   0.761   2.486   1.762
 1726SOL    HW2 6066   0.741   2.338   1.736
 1727SOL     OW 6067   1.473   3.059   1.630
 1727SOL    HW1 6068   1.461   3.074   1.724
 1727SOL    HW2 6069   1.566   3.077   1.616
 1728SOL     OW 6070   0.378   3.607   1.559
 1728SOL    HW1 6071   0.290   3.643   1.546
 1728SOL    HW2 6072   0.364   3.525   1.605
 1729SOL     OW 6073   1.668   2.743   1.254
 1729SOL    HW1 6074   1.660   2.658   1.211
 1729SOL    HW2 6075   1.657   2.807   1.183
 1730SOL     OW 6076   1.218   2.181   0.456
 1730SOL    HW1 6077   1.282   2.111   0.449
 1730SOL    HW2 6078   1.245   2.231   0.533
 1731SOL     OW 6079   0.588   2.598   0.673
 1731SOL    HW1 6080   0.627   2.684   0.658
 1731SOL    HW2 6081   0.522   2.589   0.604
 1732SOL     OW 6082   1.752   2.230   1.659
 1732SOL    HW1 6083   1.754   2.236   1.564
 1732SOL    HW2 6084   1.679   2.171   1.678
 1733SOL     OW 6085   1.744   2.806   1.509
 1733SOL    HW1 6086   1.734   2.900   1.521
 1733SOL    HW2 6087   1.728   2.791   1.416
 1734SOL     OW 6088   0.907   3.261   0.066
 1734SOL    HW1 6089   0.840   3.242   0.132
 1734SOL    HW2 6090   0.859   3.262  13.883
 1735SOL     OW 6091   0.659   3.650   0.935
 1735SOL    HW1 6092   0.637   3.742   0.916
 1735SOL    HW2 6093   0.754   3.648   0.933
 1736SOL     OW 6094   0.868   2.830   0.853
 1736SOL    HW1 6095   0.919   2.758   0.892
 1736SOL    HW2 6096   0.832   2.877   0.928
 1737SOL     OW 6097   1.098   2.873   0.110
 1737SOL    HW1 6098   1.088   2.919   0.027
 1737SOL    HW2 6099   1.172   2.813   0.096
 1738SOL     OW 6100   1.851   3.412   0.842
 1738SOL    HW1 6101   1.772   3.404   0.789
 1738SOL    HW2 6102   1.837   3.352   0.915
 1739SOL     OW 6103   0.227   3.166   1.856
 1739SOL    HW1 6104   0.153   3.111   1.830
 1739SOL    HW2 6105   0.214   3.179   1.950
 1740SOL     OW 6106   0.107   3.141   0.728
 1740SOL    HW1 6107   0.129   3.094   0.808
 1740SOL    HW2 6108   0.103   3.073   0.660
 1741SOL     OW 6109   0.683   3.266   1.631
 1741SOL    HW1 6110   0.602   3.225   1.660
 1741SOL    HW2 6111   0.679   3.355   1.667
 1742SOL     OW 6112   0.439   2.297   0.538
 1742SOL    HW1 6113   0.466   2.224   0.482
 1742SOL    HW2 6114   0.384   2.256   0.605
 1743SOL     OW 6115   1.701   3.347   1.090
 1743SOL    HW1 6116   1.619   3.327   1.045
 1743SOL    HW2 6117   1.708   3.280   1.158
 1744SOL     OW 6118   0.335   2.419   1.292
 1744SOL    HW1 6119   0.389   2.362   1.347
 1744SOL    HW2 6120   0.350   2.388   1.203
 1745SOL     OW 6121   0.829   3.441   0.676
 1745SOL    HW1 6122   0.814   3.498   0.601
 1745SOL    HW2 6123   0.754   3.382   0.677
 1746SOL     OW 6124   1.436   2.091   1.120
 1746SOL    HW1 6125   1.441   2.002   1.156
 1746SOL    HW2 6126   1.382   2.139   1.183
 1747SOL     OW 6127   1.010   1.879   1.139
 1747SOL    HW1 6128   0.956   1.812   1.098
 1747SOL    HW2 6129   1.098   1.841   1.141
 1748SOL     OW 6130   0.778   3.185   0.320
 1748SOL    HW1 6131   0.747   3.096   0.336
 1748SOL    HW2 6132   0.860   3.192   0.370
 1749SOL     OW 6133   0.621   3.415   1.286
 1749SOL    HW1 6134   0.622   3.497   1.336
 1749SOL    HW2 6135   0.708   3.410   1.248
 1750SOL     OW 6136   1.345   1.927   0.164
 1750SOL    HW1 6137   1.376   1.872   0.092
 1750SOL    HW2 6138   1.263   1.885   0.191
 1751SOL     OW 6139   1.298   2.324   0.679
 1751SOL    HW1 6140   1.245   2.403   0.685
 1751SOL    HW2 6141   1.292   2.285   0.767
 1752SOL     OW 6142   1.576   2.055   0.873
 1752SOL    HW1 6143   1.537   2.081   0.957
 1752SOL    HW2 6144   1.586   2.137   0.825
 1753SOL     OW 6145   0.043   2.893   0.255
 1753SOL    HW1 6146   0.137   2.876   0.249
 1753SOL    HW2 6147   0.008   2.821   0.307
 1754SOL     OW 6148   0.893   3.520   0.345
 1754SOL    HW1 6149   0.819   3.490   0.293
 1754SOL    HW2 6150   0.860   3.596   0.393
 1755SOL     OW 6151   0.231   2.486   1.981
 1755SOL    HW1 6152   0.138   2.494   2.002
 1755SOL    HW2 6153   0.232   2.455   1.891
 1756SOL     OW 6154   0.229   2.134   2.849
 1756SOL    HW1 6155   0.250   2.100   2.936
 1756SOL    HW2 6156   0.134   2.126   2.842
 1757SOL     OW 6157   0.009   2.221   2.492
 1757SOL    HW1 6158   3.920   2.239   2.524
 1757SOL    HW2 6159   3.996   2.190   2.402
 1758SOL     OW 6160   0.580   3.151   3.052
 1758SOL    HW1 6161   0.494   3.154   3.011
 1758SOL    HW2 6162   0.594   3.240   3.085
 1759SOL     OW 6163   1.564   3.373   2.570
 1759SOL    HW1 6164   1.522   3.351   2.654
 1759SOL    HW2 6165   1.492   3.376   2.507
 1760SOL     OW 6166   1.132   2.560   2.560
 1760SOL    HW1 6167   1.180   2.641   2.547
 1760SOL    HW2 6168   1.085   2.573   2.643
 1761SOL     OW 6169   1.761   2.473   2.091
 1761SOL    HW1 6170   1.740   2.469   1.997
 1761SOL    HW2 6171   1.753   2.382   2.120
 1762SOL     OW 6172   0.753   3.001   2.904
 1762SOL    HW1 6173   0.689   3.037   2.966
 1762SOL    HW2 6174   0.789   3.078   2.860
 1763SOL     OW 6175   0.870   2.631   3.685
 1763SOL    HW1 6176   0.861   2.702   3.748
 1763SOL    HW2 6177   0.893   2.675   3.603
 1764SOL     OW 6178   0.685   2.863   2.508
 1764SOL    HW1 6179   0.751   2.853   2.576
 1764SOL    HW2 6180   0.616   2.916   2.549
 1765SOL     OW 6181   0.712   3.011   3.678
 1765SOL    HW1 6182   0.760   3.089   3.707
 1765SOL    HW2 6183   0.631   3.046   3.641
 1766SOL     OW 6184   0.351   3.263   2.940
 1766SOL    HW1 6185   0.269   3.248   2.893
 1766SOL    HW2 6186   0.400   3.322   2.883
 1767SOL     OW 6187   1.460   3.363   3.219
 1767SOL    HW1 6188   1.513   3.441   3.229
 1767SOL    HW2 6189   1.393   3.370   3.287
 1768SOL     OW 6190   0.450   2.260   3.349
 1768SOL    HW1 6191   0.525   2.201   3.353
 1768SOL    HW2 6192   0.374   2.204   3.363
 1769SOL     OW 6193   1.608   2.302   2.597
 1769SOL    HW1 6194   1.529   2.324   2.547
 1769SOL    HW2 6195   1.627   2.381   2.647
 1770SOL     OW 6196   0.223   3.571   2.328
 1770SOL    HW1 6197   0.223   3.654   2.375
 1770SOL    HW2 6198   0.300   3.576   2.271
 1771SOL     OW 6199   1.137   3.203   3.555
 1771SOL    HW1 6200   1.178   3.197   3.642
 1771SOL    HW2 6201   1.085   3.124   3.548
 1772SOL     OW 6202   0.250   3.306   2.402
 1772SOL    HW1 6203   0.222   3.396   2.388
 1772SOL    HW2 6204   0.181   3.267   2.455
 1773SOL     OW 6205   0.247   2.929   2.746
 1773SOL    HW1 6206   0.267   2.844   2.786
 1773SOL    HW2 6207   0.195   2.974   2.811
 1774SOL     OW 6208   0.611   3.648   3.289
 1774SOL    HW1 6209   0.528   3.634   3.336
 1774SOL    HW2 6210   0.637   3.737   3.314
 1775SOL     OW 6211   0.577   2.848   2.000
 1775SOL    HW1 6212   0.626   2.893   1.931
 1775SOL    HW2 6213   0.618   2.877   2.081
 1776SOL     OW 6214   1.559   1.996   3.307
 1776SOL    HW1 6215   1.575   2.081   3.267
 1776SOL    HW2 6216   1.558   2.013   3.402
 1777SOL     OW 6217   0.143   2.515   2.436
 1777SOL    HW1 6218   0.087   2.437   2.435
 1777SOL    HW2 6219   0.106   2.569   2.506
 1778SOL     OW 6220   1.843   3.609   2.199
 1778SOL    HW1 6221   1.911   3.585   2.262
 1778SOL    HW2 6222   1.862   3.700   2.176
 1779SOL     OW 6223   0.041   3.453   2.002
 1779SOL    HW1 6224   0.034   3.361   2.027
 1779SOL    HW2 6225   3.958   3.491   2.030
 1780SOL     OW 6226   1.690   2.781   2.504
 1780SOL    HW1 6227   1.770   2.736   2.478
 1780SOL    HW2 6228   1.665   2.832   2.427
 1781SOL     OW 6229   1.647   2.967   2.291
 1781SOL    HW1 6230   1.734   2.970   2.250
 1781SOL    HW2 6231   1.653   3.029   2.363
 1782SOL     OW 6232   0.139   2.615   3.451
 1782SOL    HW1 6233   0.235   2.610   3.448
 1782SOL    HW2 6234   0.121   2.703   3.483
 1783SOL     OW 6235   0.616   3.248   2.596
 1783SOL    HW1 6236   0.568   3.166   2.606
 1783SOL    HW2 6237   0.598   3.276   2.506
 1784SOL     OW 6238   1.287   3.099   3.284
 1784SOL    HW1 6239   1.319   3.031   3.224
 1784SOL    HW2 6240   1.346   3.094   3.359
 1785SOL     OW 6241   0.820   1.863   2.374
 1785SOL    HW1 6242   0.860   1.947   2.352
 1785SOL    HW2 6243   0.726   1.881   2.379
 1786SOL     OW 6244   0.184   2.812   3.142
 1786SOL    HW1 6245   0.272   2.777   3.129
 1786SOL    HW2 6246   0.132   2.774   3.071
 1787SOL     OW 6247   1.531   2.858   2.061
 1787SOL    HW1 6248   1.462   2.801   2.094
 1787SOL    HW2 6249   1.573   2.892   2.140
 1788SOL     OW 6250   1.218   3.666   3.489
 1788SOL    HW1 6251   1.194   3.727   3.419
 1788SOL    HW2 6252   1.219   3.580   3.447
 1789SOL     OW 6253   0.342   2.109   3.679
 1789SOL    HW1 6254   0.378   2.197   3.686
 1789SOL    HW2 6255   0.250   2.119   3.703
 1790SOL     OW 6256   1.466   3.281   2.812
 1790SOL    HW1 6257   1.399   3.297   2.878
 1790SOL    HW2 6258   1.453   3.190   2.786
 1791SOL     OW 6259   1.654   3.602   2.443
 1791SOL    HW1 6260   1.640   3.571   2.353
 1791SOL    HW2 6261   1.631   3.527   2.498
 1792SOL     OW 6262   0.596   2.578   2.128
 1792SOL    HW1 6263   0.602   2.662   2.083
 1792SOL    HW2 6264   0.533   2.593   2.198
 1793SOL     OW 6265   1.280   2.222   2.797
 1793SOL    HW1 6266   1.191   2.186   2.806
 1793SOL    HW2 6267   1.334   2.166   2.853
 1794SOL     OW 6268   1.577   3.537   2.170
 1794SOL    HW1 6269   1.669   3.561   2.165
 1794SOL    HW2 6270   1.551   3.518   2.080
 1795SOL     OW 6271   0.791   2.480   3.312
 1795SOL    HW1 6272   0.765   2.455   3.401
 1795SOL    HW2 6273   0.754   2.412   3.256
 1796SOL     OW 6274   1.393   2.335   3.540
 1796SOL    HW1 6275   1.396   2.381   3.624
 1796SOL    HW2 6276   1.454   2.262   3.550
 1797SOL     OW 6277   0.952   2.748   3.446
 1797SOL    HW1 6278   1.007   2.679   3.409
 1797SOL    HW2 6279   0.904   2.783   3.371
 1798SOL     OW 6280   0.993   2.274   3.099
 1798SOL    HW1 6281   0.905   2.293   3.132
 1798SOL    HW2 6282   0.977   2.229   3.015
 1799SOL     OW 6283   1.053   2.560   2.287
 1799SOL    HW1 6284   1.069   2.553   2.381
 1799SOL    HW2 6285   0.970   2.514   2.274
 1800SOL     OW 6286   0.082   2.691   2.652
 1800SOL    HW1 6287   0.156   2.660   2.704
 1800SOL    HW2 6288   0.100   2.784   2.637
 1801SOL     OW 6289   0.127   3.718   3.440
 1801SOL    HW1 6290   0.135   3.686   3.530
 1801SOL    HW2 6291   0.035   3.705   3.418
 1802SOL     OW 6292   0.896   2.212   2.055
 1802SOL    HW1 6293   0.936   2.275   1.995
 1802SOL    HW2 6294   0.913   2.126   2.015
 1803SOL     OW 6295   1.682   2.448   3.693
 1803SOL    HW1 6296   1.652   2.520   3.637
 1803SOL    HW2 6297   1.720   2.385   3.632
 1804SOL     OW 6298   1.379   3.004   2.403
 1804SOL    HW1 6299   1.458   2.992   2.350
 1804SOL    HW2 6300   1.326   3.066   2.352
 1805SOL     OW 6301   0.546   2.040   2.756
 1805SOL    HW1 6302   0.553   2.072   2.846
 1805SOL    HW2 6303   0.546   2.119   2.702
 1806SOL     OW 6304   1.003   3.307   2.332
 1806SOL    HW1 6305   0.967   3.381   2.283
 1806SOL    HW2 6306   0.983   3.326   2.424
 1807SOL     OW 6307   0.359   3.671   2.723
 1807SOL    HW1 6308   0.438   3.618   2.736
 1807SOL    HW2 6309   0.389   3.761   2.733
 1808SOL     OW 6310   1.800   2.914   2.731
 1808SOL    HW1 6311   1.747   2.897   2.654
 1808SOL    HW2 6312   1.737   2.922   2.803
 1809SOL     OW 6313   1.228   3.399   3.373
 1809SOL    HW1 6314   1.215   3.327   3.435
 1809SOL    HW2 6315   1.159   3.387   3.307
 1810SOL     OW 6316   0.311   2.816   2.104
 1810SOL    HW1 6317   0.394   2.839   2.063
 1810SOL    HW2 6318   0.298   2.723   2.083
 1811SOL     OW 6319   1.480   2.608   2.587
 1811SOL    HW1 6320   1.474   2.565   2.672
 1811SOL    HW2 6321   1.559   2.663   2.593
 1812SOL     OW 6322   0.468   3.122   3.599
 1812SOL    HW1 6323   0.442   3.130   3.507
 1812SOL    HW2 6324   0.386   3.126   3.647
 1813SOL     OW 6325   1.113   3.643   2.084
 1813SOL    HW1 6326   1.049   3.597   2.137
 1813SOL    HW2 6327   1.144   3.577   2.021
 1814SOL     OW 6328   0.204   2.135   3.370
 1814SOL    HW1 6329   0.114   2.168   3.364
 1814SOL    HW2 6330   0.195   2.048   3.409
 1815SOL     OW 6331   1.627   3.243   1.952
 1815SOL    HW1 6332   1.587   3.328   1.935
 1815SOL    HW2 6333   1.559   3.179   1.931
 1816SOL     OW 6334   0.468   3.601   2.183
 1816SOL    HW1 6335   0.506   3.664   2.244
 1816SOL    HW2 6336   0.541   3.573   2.128
 1817SOL     OW 6337   1.397   1.967   2.297
 1817SOL    HW1 6338   1.384   1.946   2.204
 1817SOL    HW2 6339   1.486   1.938   2.316
 1818SOL     OW 6340   0.253   3.656   3.088
 1818SOL    HW1 6341   0.297   3.590   3.142
 1818SOL    HW2 6342   0.251   3.619   3.000
 1819SOL     OW 6343   0.938   3.563   2.762
 1819SOL    HW1 6344   1.015   3.511   2.784
 1819SOL    HW2 6345   0.894   3.513   2.692
 1820SOL     OW 6346   0.399   2.555   2.333
 1820SOL    HW1 6347   0.424   2.464   2.348
 1820SOL    HW2 6348   0.307   2.559   2.360
 1821SOL     OW 6349   1.531   2.081   3.584
 1821SOL    HW1 6350   1.545   2.102   3.676
 1821SOL    HW2 6351   1.460   2.017   3.584
 1822SOL     OW 6352   0.643   1.981   1.959
 1822SOL    HW1 6353   0.703   1.909   1.979
 1822SOL    HW2 6354   0.593   1.949   1.883
 1823SOL     OW 6355   0.765   2.141   3.617
 1823SOL    HW1 6356   0.844   2.086   3.615
 1823SOL    HW2 6357   0.719   2.112   3.696
 1824SOL     OW 6358   0.876   3.383   3.056
 1824SOL    HW1 6359   0.859   3.346   2.969
 1824SOL    HW2 6360   0.946   3.328   3.092
 1825SOL     OW 6361   1.341   2.451   3.294
 1825SOL    HW1 6362   1.371   2.420   3.380
 1825SOL    HW2 6363   1.376   2.539   3.287
 1826SOL     OW 6364   0.817   3.254   2.804
 1826SOL    HW1 6365   0.902   3.242   2.761
 1826SOL    HW2 6366   0.754   3.256   2.732
 1827SOL     OW 6367   0.929   2.371   2.764
 1827SOL    HW1 6368   0.905   2.363   2.672
 1827SOL    HW2 6369   0.959   2.284   2.789
 1828SOL     OW 6370   0.556   1.924   2.357
 1828SOL    HW1 6371   0.474   1.929   2.406
 1828SOL    HW2 6372   0.560   2.007   2.308
 1829SOL     OW 6373   1.428   3.061   1.902
 1829SOL    HW1 6374   1.458   2.986   1.953
 1829SOL    HW2 6375   1.342   3.083   1.939
 1830SOL     OW 6376   0.308   1.913   2.032
 1830SOL    HW1 6377   0.372   1.951   1.971
 1830SOL    HW2 6378   0.358   1.848   2.081
 1831SOL     OW 6379   0.940   2.109   2.321
 1831SOL    HW1 6380   0.912   2.150   2.239
 1831SOL    HW2 6381   1.034   2.126   2.324
 1832SOL     OW 6382   1.080   2.544   3.320
 1832SOL    HW1 6383   1.013   2.476   3.325
 1832SOL    HW2 6384   1.163   2.496   3.314
 1833SOL     OW 6385   1.222   3.432   2.656
 1833SOL    HW1 6386   1.237   3.500   2.589
 1833SOL    HW2 6387   1.290   3.448   2.721
 1834SOL     OW 6388   0.467   3.013   2.597
 1834SOL    HW1 6389   0.395   2.989   2.656
 1834SOL    HW2 6390   0.432   2.997   2.509
 1835SOL     OW 6391   1.266   3.656   2.470
 1835SOL    HW1 6392   1.313   3.721   2.418
 1835SOL    HW2 6393   1.194   3.705   2.509
 1836SOL     OW 6394   1.023   2.401   1.887
 1836SOL    HW1 6395   0.981   2.484   1.867
 1836SOL    HW2 6396   1.089   2.422   1.952
 1837SOL     OW 6397   0.082   2.434   3.252
 1837SOL    HW1 6398   0.172   2.421   3.221
 1837SOL    HW2 6399   0.089   2.504   3.317
 1838SOL     OW 6400   0.567   2.089   3.028
 1838SOL    HW1 6401   0.608   2.014   3.070
 1838SOL    HW2 6402   0.475   2.086   3.057
 1839SOL     OW 6403   0.867   2.320   2.502
 1839SOL    HW1 6404   0.820   2.374   2.438
 1839SOL    HW2 6405   0.888   2.240   2.454
 1840SOL     OW 6406   1.016   1.916   2.612
 1840SOL    HW1 6407   0.958   1.910   2.536
 1840SOL    HW2 6408   0.993   1.841   2.666
 1841SOL     OW 6409   1.438   3.023   2.719
 1841SOL    HW1 6410   1.368   2.959   2.719
 1841SOL    HW2 6411   1.462   3.033   2.627
 1842SOL     OW 6412   1.464   2.469   2.835
 1842SOL    HW1 6413   1.411   2.390   2.836
 1842SOL    HW2 6414   1.522   2.461   2.910
 1843SOL     OW 6415   1.846   2.676   2.249
 1843SOL    HW1 6416   1.904   2.623   2.305
 1843SOL    HW2 6417   1.815   2.615   2.182
 1844SOL     OW 6418   0.488   3.281   2.021
 1844SOL    HW1 6419   0.412   3.251   2.071
 1844SOL    HW2 6420   0.470   3.253   1.931
 1845SOL     OW 6421   1.673   3.126   2.506
 1845SOL    HW1 6422   1.768   3.127   2.520
 1845SOL    HW2 6423   1.644   3.214   2.528
 1846SOL     OW 6424   1.392   2.436   1.931
 1846SOL    HW1 6425   1.336   2.413   2.005
 1846SOL    HW2 6426   1.480   2.414   1.960
 1847SOL     OW 6427   0.574   2.130   2.180
 1847SOL    HW1 6428   0.605   2.083   2.103
 1847SOL    HW2 6429   0.542   2.214   2.146
 1848SOL     OW 6430   1.751   3.103   3.430
 1848SOL    HW1 6431   1.839   3.065   3.426
 1848SOL    HW2 6432   1.766   3.194   3.458
 1849SOL     OW 6433   1.056   3.214   3.194
 1849SOL    HW1 6434   0.981   3.184   3.245
 1849SOL    HW2 6435   1.132   3.174   3.236
 1850SOL     OW 6436   1.610   3.488   3.518
 1850SOL    HW1 6437   1.601   3.522   3.429
 1850SOL    HW2 6438   1.693   3.440   3.518
 1851SOL     OW 6439   1.132   3.068   2.966
 1851SOL    HW1 6440   1.073   3.105   3.031
 1851SOL    HW2 6441   1.100   3.101   2.882
 1852SOL     OW 6442   1.626   2.959   2.938
 1852SOL    HW1 6443   1.620   3.022   3.011
 1852SOL    HW2 6444   1.548   2.977   2.885
 1853SOL     OW 6445   0.918   1.957   3.256
 1853SOL    HW1 6446   0.941   1.939   3.165
 1853SOL    HW2 6447   0.997   1.997   3.293
 1854SOL     OW 6448   0.984   2.977   3.585
 1854SOL    HW1 6449   0.893   2.993   3.607
 1854SOL    HW2 6450   0.982   2.899   3.530
 1855SOL     OW 6451   0.708   2.922   2.233
 1855SOL    HW1 6452   0.694   2.906   2.326
 1855SOL    HW2 6453   0.784   2.869   2.209
 1856SOL     OW 6454   0.422   2.679   3.114
 1856SOL    HW1 6455   0.490   2.687   3.181
 1856SOL    HW2 6456   0.388   2.590   3.126
 1857SOL     OW 6457   1.265   2.237   3.140
 1857SOL    HW1 6458   1.297   2.315   3.185
 1857SOL    HW2 6459   1.174   2.259   3.117
 1858SOL     OW 6460   0.065   3.442   3.208
 1858SOL    HW1 6461   0.071   3.496   3.129
 1858SOL    HW2 6462   0.156   3.430   3.235
 1859SOL     OW 6463   0.370   2.964   2.345
 1859SOL    HW1 6464   0.365   3.045   2.293
 1859SOL    HW2 6465   0.369   2.894   2.280
 1860SOL     OW 6466   0.549   2.398   2.723
 1860SOL    HW1 6467   0.564   2.455   2.648
 1860SOL    HW2 6468   0.617   2.424   2.786
 1861SOL     OW 6469   1.248   3.211   2.252
 1861SOL    HW1 6470   1.304   3.282   2.283
 1861SOL    HW2 6471   1.161   3.233   2.285
 1862SOL     OW 6472   1.285   3.321   3.010
 1862SOL    HW1 6473   1.340   3.325   3.088
 1862SOL    HW2 6474   1.229   3.245   3.024
 1863SOL     OW 6475   1.576   2.483   2.339
 1863SOL    HW1 6476   1.531   2.538   2.404
 1863SOL    HW2 6477   1.622   2.545   2.282
 1864SOL     OW 6478   0.345   3.389   3.180
 1864SOL    HW1 6479   0.335   3.339   3.099
 1864SOL    HW2 6480   0.439   3.404   3.187
 1865SOL     OW 6481   0.416   2.601   3.463
 1865SOL    HW1 6482   0.479   2.646   3.407
 1865SOL    HW2 6483   0.456   2.515   3.480
 1866SOL     OW 6484   1.601   2.649   3.538
 1866SOL    HW1 6485   1.515   2.691   3.533
 1866SOL    HW2 6486   1.653   2.694   3.471
 1867SOL     OW 6487   0.996   1.990   3.615
 1867SOL    HW1 6488   1.054   2.062   3.591
 1867SOL    HW2 6489   1.044   1.911   3.591
 1868SOL     OW 6490   0.497   1.897   3.608
 1868SOL    HW1 6491   0.453   1.845   3.542
 1868SOL    HW2 6492   0.443   1.975   3.617
 1869SOL     OW 6493   0.585   2.736   2.894
 1869SOL    HW1 6494   0.618   2.826   2.894
 1869SOL    HW2 6495   0.529   2.730   2.971
 1870SOL     OW 6496   1.354   2.720   2.888
 1870SOL    HW1 6497   1.269   2.709   2.845
 1870SOL    HW2 6498   1.396   2.635   2.880
 1871SOL     OW 6499   1.203   2.390   2.127
 1871SOL    HW1 6500   1.211   2.312   2.182
 1871SOL    HW2 6501   1.160   2.454   2.183
 1872SOL     OW 6502   0.310   2.058   3.109
 1872SOL    HW1 6503   0.263   2.095   3.184
 1872SOL    HW2 6504   0.287   1.965   3.109
 1873SOL     OW 6505   0.060   3.167   3.142
 1873SOL    HW1 6506   0.091   3.126   3.223
 1873SOL    HW2 6507   0.052   3.260   3.164
 1874SOL     OW 6508   0.723   2.493   2.918
 1874SOL    HW1 6509   0.799   2.478   2.861
 1874SOL    HW2 6510   0.695   2.582   2.897
 1875SOL     OW 6511   1.736   2.822   3.716
 1875SOL    HW1 6512   1.691   2.758   3.661
 1875SOL    HW2 6513   1.676   2.836   3.789
 1876SOL     OW 6514   0.314   1.924   2.482
 1876SOL    HW1 6515   0.293   2.015   2.503
 1876SOL    HW2 6516   0.320   1.881   2.567
 1877SOL     OW 6517   1.609   2.236   2.232
 1877SOL    HW1 6518   1.625   2.184   2.311
 1877SOL    HW2 6519   1.589   2.324   2.265
 1878SOL     OW 6520   1.029   2.621   2.821
 1878SOL    HW1 6521   1.022   2.638   2.915
 1878SOL    HW2 6522   1.002   2.529   2.812
 1879SOL     OW 6523   0.986   3.430   3.582
 1879SOL    HW1 6524   0.967   3.471   3.498
 1879SOL    HW2 6525   1.027   3.347   3.559
 1880SOL     OW 6526   1.854   3.365   3.466
 1880SOL    HW1 6527   1.873   3.393   3.377
 1880SOL    HW2 6528   1.934   3.382   3.515
 1881SOL     OW 6529   0.353   2.784   3.662
 1881SOL    HW1 6530   0.431   2.805   3.713
 1881SOL    HW2 6531   0.381   2.716   3.600
 1882SOL     OW 6532   1.529   2.131   1.988
 1882SOL    HW1 6533   1.462   2.069   2.017
 1882SOL    HW2 6534   1.562   2.170   2.068
 1883SOL     OW 6535   1.289   2.688   1.892
 1883SOL    HW1 6536   1.331   2.602   1.895
 1883SOL    HW2 6537   1.320   2.727   1.810
 1884SOL     OW 6538   1.067   3.199   2.717
 1884SOL    HW1 6539   1.071   3.127   2.654
 1884SOL    HW2 6540   1.127   3.265   2.682
 1885SOL     OW 6541   0.313   2.664   2.812
 1885SOL    HW1 6542   0.407   2.682   2.806
 1885SOL    HW2 6543   0.308   2.574   2.844
 1886SOL     OW 6544   0.330   2.383   2.876
 1886SOL    HW1 6545   0.295   2.295   2.860
 1886SOL    HW2 6546   0.406   2.390   2.819
 1887SOL     OW 6547   1.134   2.236   3.546
 1887SOL    HW1 6548   1.086   2.291   3.608
 1887SOL    HW2 6549   1.222   2.275   3.543
 1888SOL     OW 6550   1.160   2.063   3.333
 1888SOL    HW1 6551   1.149   2.126   3.404
 1888SOL    HW2 6552   1.202   2.113   3.263
 1889SOL     OW 6553   4.000   3.180   2.044
 1889SOL    HW1 6554   3.905   3.195   2.048
 1889SOL    HW2 6555   0.009   3.086   2.062
 1890SOL     OW 6556   0.075   3.663   2.757
 1890SOL    HW1 6557   0.091   3.568   2.755
 1890SOL    HW2 6558   0.163   3.701   2.756
 1891SOL     OW 6559   0.507   3.425   2.779
 1891SOL    HW1 6560   0.573   3.492   2.799
 1891SOL    HW2 6561   0.549   3.367   2.716
 1892SOL     OW 6562   0.979   2.652   3.087
 1892SOL    HW1 6563   1.036   2.631   3.160
 1892SOL    HW2 6564   0.894   2.614   3.112
 1893SOL     OW 6565   0.038   2.420   2.971
 1893SOL    HW1 6566   0.120   2.397   2.929
 1893SOL    HW2 6567   0.057   2.417   3.065
 1894SOL     OW 6568   0.207   2.375   3.590
 1894SOL    HW1 6569   0.245   2.327   3.516
 1894SOL    HW2 6570   0.160   2.447   3.549
 1895SOL     OW 6571   1.374   2.801   3.519
 1895SOL    HW1 6572   1.397   2.894   3.516
 1895SOL    HW2 6573   1.371   2.774   3.427
 1896SOL     OW 6574   0.818   2.431   2.224
 1896SOL    HW1 6575   0.823   2.356   2.165
 1896SOL    HW2 6576   0.744   2.482   2.192
 1897SOL     OW 6577   1.640   2.464   3.046
 1897SOL    HW1 6578   1.628   2.408   3.123
 1897SOL    HW2 6579   1.725   2.439   3.011
 1898SOL     OW 6580   0.300   3.407   3.588
 1898SOL    HW1 6581   0.251   3.476   3.633
 1898SOL    HW2 6582   0.268   3.326   3.628
 1899SOL     OW 6583   0.707   2.311   3.119
 1899SOL    HW1 6584   0.654   2.237   3.090
 1899SOL    HW2 6585   0.701   2.374   3.047
 1900SOL     OW 6586   0.928   3.533   3.331
 1900SOL    HW1 6587   0.901   3.496   3.247
 1900SOL    HW2 6588   0.920   3.628   3.319
 1901SOL     OW 6589   0.455   2.351   2.057
 1901SOL    HW1 6590   0.520   2.419   2.075
 1901SOL    HW2 6591   0.375   2.400   2.035
 1902SOL     OW 6592   0.156   2.997   3.337
 1902SOL    HW1 6593   0.156   2.946   3.419
 1902SOL    HW2 6594   0.171   2.932   3.268
 1903SOL     OW 6595   1.324   2.907   3.083
 1903SOL    HW1 6596   1.346   2.843   3.015
 1903SOL    HW2 6597   1.255   2.961   3.044
 1904SOL     OW 6598   1.313   2.719   2.167
 1904SOL    HW1 6599   1.239   2.687   2.218
 1904SOL    HW2 6600   1.288   2.705   2.076
 1905SOL     OW 6601   1.772   3.602   3.013
 1905SOL    HW1 6602   1.834   3.630   2.946
 1905SOL    HW2 6603   1.750   3.512   2.989
 1906SOL     OW 6604   1.244   3.595   2.970
 1906SOL    HW1 6605   1.327   3.616   2.928
 1906SOL    HW2 6606   1.251   3.501   2.990
 1907SOL     OW 6607   0.076   3.076   2.890
 1907SOL    HW1 6608   0.083   3.104   2.981
 1907SOL    HW2 6609   3.984   3.087   2.868
 1908SOL     OW 6610   0.679   3.527   3.595
 1908SOL    HW1 6611   0.621   3.603   3.599
 1908SOL    HW2 6612   0.739   3.546   3.523
 1909SOL     OW 6613   1.391   3.431   2.349
 1909SOL    HW1 6614   1.450   3.464   2.282
 1909SOL    HW2 6615   1.342   3.508   2.379
 1910SOL     OW 6616   0.170   3.623   3.694
 1910SOL    HW1 6617   0.115   3.570   3.752
 1910SOL    HW2 6618   0.217   3.682   3.752
 1911SOL     OW 6619   1.277   2.789   2.533
 1911SOL    HW1 6620   1.351   2.728   2.542
 1911SOL    HW2 6621   1.312   2.861   2.480
 1912SOL     OW 6622   0.810   3.136   3.290
 1912SOL    HW1 6623   0.782   3.177   3.372
 1912SOL    HW2 6624   0.739   3.155   3.228
 1913SOL     OW 6625   0.675   3.479   2.020
 1913SOL    HW1 6626   0.683   3.496   1.926
 1913SOL    HW2 6627   0.616   3.404   2.025
 1914SOL     OW 6628   1.622   3.588   3.252
 1914SOL    HW1 6629   1.674   3.593   3.171
 1914SOL    HW2 6630   1.608   3.679   3.277
 1915SOL     OW 6631   0.266   2.175   2.578
 1915SOL    HW1 6632   0.180   2.207   2.552
 1915SOL    HW2 6633   0.261   2.165   2.673
 1916SOL     OW 6634   1.208   3.466   1.898
 1916SOL    HW1 6635   1.197   3.374   1.922
 1916SOL    HW2 6636   1.147   3.479   1.825
 1917SOL     OW 6637   0.823   2.868   3.236
 1917SOL    HW1 6638   0.868   2.863   3.151
 1917SOL    HW2 6639   0.822   2.961   3.256
 1918SOL     OW 6640   0.916   2.772   2.153
 1918SOL    HW1 6641   0.976   2.805   2.086
 1918SOL    HW2 6642   0.965   2.704   2.198
 1919SOL     OW 6643   1.489   3.491   1.905
 1919SOL    HW1 6644   1.395   3.480   1.888
 1919SOL    HW2 6645   1.528   3.496   1.817
 1920SOL     OW 6646   0.374   3.165   3.353
 1920SOL    HW1 6647   0.359   3.245   3.303
 1920SOL    HW2 6648   0.297   3.111   3.336
 1921SOL     OW 6649   1.609   3.145   3.142
 1921SOL    HW1 6650   1.670   3.133   3.215
 1921SOL    HW2 6651   1.549   3.213   3.172
 1922SOL     OW 6652   1.056   2.971   2.570
 1922SOL    HW1 6653   0.984   2.920   2.608
 1922SOL    HW2 6654   1.120   2.905   2.541
 1923SOL     OW 6655   1.023   2.103   2.829
 1923SOL    HW1 6656   1.019   2.056   2.746
 1923SOL    HW2 6657   1.018   2.034   2.895
 1924SOL     OW 6658   0.606   3.352   2.342
 1924SOL    HW1 6659   0.651   3.302   2.275
 1924SOL    HW2 6660   0.533   3.395   2.296
 1925SOL     OW 6661   1.731   2.247   3.239
 1925SOL    HW1 6662   1.800   2.313   3.244
 1925SOL    HW2 6663   1.769   2.176   3.186
 1926SOL     OW 6664   0.253   3.203   2.154
 1926SOL    HW1 6665   0.160   3.211   2.135
 1926SOL    HW2 6666   0.264   3.241   2.241
 1927SOL     OW 6667   0.107   2.860   3.579
 1927SOL    HW1 6668   0.047   2.853   3.653
 1927SOL    HW2 6669   0.193   2.842   3.616
 1928SOL     OW 6670   0.676   2.058   3.362
 1928SOL    HW1 6671   0.760   2.037   3.321
 1928SOL    HW2 6672   0.699   2.091   3.449
 1929SOL     OW 6673   0.081   2.176   1.900
 1929SOL    HW1 6674   3.985   2.176   1.907
 1929SOL    HW2 6675   0.101   2.257   1.852
 1930SOL     OW 6676   1.428   2.721   3.261
 1930SOL    HW1 6677   1.379   2.781   3.205
 1930SOL    HW2 6678   1.517   2.723   3.226
 1931SOL     OW 6679   0.018   2.097   2.238
 1931SOL    HW1 6680   0.045   2.161   2.172
 1931SOL    HW2 6681   0.100   2.058   2.268
 1932SOL     OW 6682   1.178   3.199   1.979
 1932SOL    HW1 6683   1.086   3.170   1.980
 1932SOL    HW2 6684   1.204   3.199   2.071
 1933SOL     OW 6685   0.620   2.692   3.298
 1933SOL    HW1 6686   0.676   2.768   3.283
 1933SOL    HW2 6687   0.680   2.619   3.306
 1934SOL     OW 6688   1.486   3.641   2.843
 1934SOL    HW1 6689   1.508   3.700   2.771
 1934SOL    HW2 6690   1.570   3.619   2.884
 1935SOL     OW 6691   0.716   2.424   3.566
 1935SOL    HW1 6692   0.761   2.486   3.624
 1935SOL    HW2 6693   0.741   2.338   3.598
 1936SOL     OW 6694   1.473   3.059   3.492
 1936SOL    HW1 6695   1.461   3.074   3.586
 1936SOL    HW2 6696   1.566   3.077   3.478
 1937SOL     OW 6697   0.378   3.607   3.421
 1937SOL    HW1 6698   0.290   3.643   3.408
 1937SOL    HW2 6699   0.364   3.525   3.467
 1938SOL     OW 6700   1.668   2.743   3.116
 1938SOL    HW1 6701   1.660   2.658   3.073
 1938SOL    HW2 6702   1.657   2.807   3.045
 1939SOL     OW 6703   1.215   2.182   2.320
 1939SOL    HW1 6704   1.278   2.110   2.312
 1939SOL    HW2 6705   1.244   2.231   2.396
 1940SOL     OW 6706   0.589   2.599   2.534
 1940SOL    HW1 6707   0.628   2.685   2.519
 1940SOL    HW2 6708   0.523   2.590   2.466
 1941SOL     OW 6709   1.749   2.232   3.519
 1941SOL    HW1 6710   1.751   2.238   3.423
 1941SOL    HW2 6711   1.677   2.172   3.537
 1942SOL     OW 6712   1.745   2.805   3.371
 1942SOL    HW1 6713   1.735   2.900   3.383
 1942SOL    HW2 6714   1.728   2.791   3.278
 1943SOL     OW 6715   0.865   3.229   1.901
 1943SOL    HW1 6716   0.823   3.257   1.983
 1943SOL    HW2 6717   0.879   3.309   1.852
 1944SOL     OW 6718   0.659   3.651   2.797
 1944SOL    HW1 6719   0.637   3.742   2.778
 1944SOL    HW2 6720   0.754   3.647   2.795
 1945SOL     OW 6721   0.869   2.830   2.716
 1945SOL    HW1 6722   0.919   2.758   2.754
 1945SOL    HW2 6723   0.832   2.877   2.791
 1946SOL     OW 6724   1.077   2.850   1.951
 1946SOL    HW1 6725   1.056   2.902   1.873
 1946SOL    HW2 6726   1.152   2.796   1.925
 1947SOL     OW 6727   1.851   3.412   2.703
 1947SOL    HW1 6728   1.770   3.402   2.652
 1947SOL    HW2 6729   1.841   3.351   2.776
 1948SOL     OW 6730   0.227   3.166   3.718
 1948SOL    HW1 6731   0.153   3.111   3.692
 1948SOL    HW2 6732   0.214   3.179   3.812
 1949SOL     OW 6733   0.115   3.140   2.584
 1949SOL    HW1 6734   0.134   3.090   2.663
 1949SOL    HW2 6735   0.105   3.074   2.515
 1950SOL     OW 6736   0.683   3.266   3.493
 1950SOL    HW1 6737   0.602   3.225   3.522
 1950SOL    HW2 6738   0.679   3.355   3.529
 1951SOL     OW 6739   0.441   2.296   2.396
 1951SOL    HW1 6740   0.441   2.226   2.330
 1951SOL    HW2 6741   0.385   2.262   2.466
 1952SOL     OW 6742   1.700   3.348   2.953
 1952SOL    HW1 6743   1.619   3.327   2.908
 1952SOL    HW2 6744   1.709   3.280   3.020
 1953SOL     OW 6745   0.335   2.419   3.154
 1953SOL    HW1 6746   0.389   2.362   3.209
 1953SOL    HW2 6747   0.349   2.388   3.065
 1954SOL     OW 6748   0.828   3.441   2.538
 1954SOL    HW1 6749   0.812   3.495   2.461
 1954SOL    HW2 6750   0.754   3.381   2.542
 1955SOL     OW 6751   1.436   2.090   2.982
 1955SOL    HW1 6752   1.442   2.002   3.018
 1955SOL    HW2 6753   1.382   2.139   3.045
 1956SOL     OW 6754   1.010   1.879   3.001
 1956SOL    HW1 6755   0.956   1.812   2.959
 1956SOL    HW2 6756   1.098   1.841   3.003
 1957SOL     OW 6757   0.772   3.194   2.181
 1957SOL    HW1 6758   0.743   3.103   2.187
 1957SOL    HW2 6759   0.855   3.196   2.229
 1958SOL     OW 6760   0.621   3.416   3.148
 1958SOL    HW1 6761   0.621   3.497   3.198
 1958SOL    HW2 6762   0.708   3.410   3.110
 1959SOL     OW 6763   1.353   1.912   2.030
 1959SOL    HW1 6764   1.382   1.849   1.964
 1959SOL    HW2 6765   1.265   1.884   2.054
 1960SOL     OW 6766   1.297   2.324   2.542
 1960SOL    HW1 6767   1.244   2.403   2.547
 1960SOL    HW2 6768   1.292   2.285   2.630
 1961SOL     OW 6769   1.575   2.056   2.734
 1961SOL    HW1 6770   1.536   2.081   2.818
 1961SOL    HW2 6771   1.586   2.138   2.687
 1962SOL     OW 6772   0.047   2.911   2.101
 1962SOL    HW1 6773   0.141   2.895   2.093
 1962SOL    HW2 6774   0.011   2.828   2.132
 1963SOL     OW 6775   0.886   3.521   2.205
 1963SOL    HW1 6776   0.815   3.501   2.144
 1963SOL    HW2 6777   0.855   3.596   2.255
 1964SOL     OW 6778   0.231   2.487   3.843
 1964SOL    HW1 6779   0.138   2.495   3.864
 1964SOL    HW2 6780   0.233   2.455   3.753
 1965SOL     OW 6781   0.229   2.134   4.711
 1965SOL    HW1 6782   0.250   2.100   4.798
 1965SOL    HW2 6783   0.134   2.126   4.704
 1966SOL     OW 6784   0.009   2.221   4.354
 1966SOL    HW1 6785   3.920   2.239   4.385
 1966SOL    HW2 6786   3.997   2.190   4.264
 1967SOL     OW 6787   0.580   3.151   4.914
 1967SOL    HW1 6788   0.494   3.154   4.873
 1967SOL    HW2 6789   0.594   3.240   4.947
 1968SOL     OW 6790   1.564   3.373   4.432
 1968SOL    HW1 6791   1.521   3.351   4.516
 1968SOL    HW2 6792   1.492   3.376   4.369
 1969SOL     OW 6793   1.132   2.560   4.422
 1969SOL    HW1 6794   1.180   2.642   4.409
 1969SOL    HW2 6795   1.084   2.573   4.505
 1970SOL     OW 6796   1.764   2.471   3.952
 1970SOL    HW1 6797   1.741   2.468   3.859
 1970SOL    HW2 6798   1.752   2.382   3.983
 1971SOL     OW 6799   0.753   3.001   4.766
 1971SOL    HW1 6800   0.689   3.037   4.828
 1971SOL    HW2 6801   0.789   3.078   4.722
 1972SOL     OW 6802   0.867   2.631   5.545
 1972SOL    HW1 6803   0.858   2.700   5.609
 1972SOL    HW2 6804   0.891   2.676   5.464
 1973SOL     OW 6805   0.685   2.863   4.370
 1973SOL    HW1 6806   0.751   2.853   4.438
 1973SOL    HW2 6807   0.616   2.916   4.411
 1974SOL     OW 6808   0.712   3.012   5.540
 1974SOL    HW1 6809   0.760   3.089   5.569
 1974SOL    HW2 6810   0.631   3.046   5.503
 1975SOL     OW 6811   0.351   3.263   4.802
 1975SOL    HW1 6812   0.269   3.248   4.755
 1975SOL    HW2 6813   0.400   3.322   4.745
 1976SOL     OW 6814   1.460   3.363   5.081
 1976SOL    HW1 6815   1.513   3.441   5.091
 1976SOL    HW2 6816   1.393   3.370   5.149
 1977SOL     OW 6817   0.450   2.260   5.211
 1977SOL    HW1 6818   0.525   2.201   5.214
 1977SOL    HW2 6819   0.374   2.204   5.225
 1978SOL     OW 6820   1.606   2.302   4.458
 1978SOL    HW1 6821   1.527   2.324   4.409
 1978SOL    HW2 6822   1.627   2.381   4.508
 1979SOL     OW 6823   0.223   3.571   4.190
 1979SOL    HW1 6824   0.223   3.655   4.237
 1979SOL    HW2 6825   0.300   3.576   4.133
 1980SOL     OW 6826   1.137   3.203   5.417
 1980SOL    HW1 6827   1.177   3.198   5.504
 1980SOL    HW2 6828   1.085   3.123   5.409
 1981SOL     OW 6829   0.250   3.306   4.264
 1981SOL    HW1 6830   0.222   3.396   4.250
 1981SOL    HW2 6831   0.181   3.267   4.317
 1982SOL     OW 6832   0.247   2.929   4.608
 1982SOL    HW1 6833   0.267   2.844   4.648
 1982SOL    HW2 6834   0.195   2.974   4.673
 1983SOL     OW 6835   0.611   3.648   5.151
 1983SOL    HW1 6836   0.528   3.634   5.198
 1983SOL    HW2 6837   0.637   3.737   5.176
 1984SOL     OW 6838   0.577   2.848   3.862
 1984SOL    HW1 6839   0.626   2.893   3.793
 1984SOL    HW2 6840   0.618   2.877   3.943
 1985SOL     OW 6841   1.555   1.999   5.164
 1985SOL    HW1 6842   1.575   2.085   5.127
 1985SOL    HW2 6843   1.551   2.014   5.258
 1986SOL     OW 6844   0.143   2.515   4.298
 1986SOL    HW1 6845   0.087   2.437   4.296
 1986SOL    HW2 6846   0.106   2.569   4.368
 1987SOL     OW 6847   1.843   3.609   4.061
 1987SOL    HW1 6848   1.911   3.585   4.124
 1987SOL    HW2 6849   1.862   3.700   4.038
 1988SOL     OW 6850   0.041   3.453   3.864
 1988SOL    HW1 6851   0.034   3.361   3.889
 1988SOL    HW2 6852   3.958   3.491   3.892
 1989SOL     OW 6853   1.690   2.781   4.366
 1989SOL    HW1 6854   1.770   2.736   4.340
 1989SOL    HW2 6855   1.665   2.832   4.289
 1990SOL     OW 6856   1.647   2.967   4.153
 1990SOL    HW1 6857   1.733   2.970   4.112
 1990SOL    HW2 6858   1.653   3.029   4.226
 1991SOL     OW 6859   0.139   2.615   5.313
 1991SOL    HW1 6860   0.235   2.610   5.310
 1991SOL    HW2 6861   0.121   2.703   5.345
 1992SOL     OW 6862   0.616   3.248   4.458
 1992SOL    HW1 6863   0.568   3.166   4.468
 1992SOL    HW2 6864   0.598   3.276   4.368
 1993SOL     OW 6865   1.287   3.098   5.146
 1993SOL    HW1 6866   1.319   3.031   5.086
 1993SOL    HW2 6867   1.346   3.094   5.221
 1994SOL     OW 6868   0.820   1.863   4.236
 1994SOL    HW1 6869   0.860   1.947   4.214
 1994SOL    HW2 6870   0.726   1.881   4.241
 1995SOL     OW 6871   0.184   2.812   5.004
 1995SOL    HW1 6872   0.272   2.777   4.991
 1995SOL    HW2 6873   0.132   2.774   4.933
 1996SOL     OW 6874   1.531   2.858   3.923
 1996SOL    HW1 6875   1.462   2.801   3.955
 1996SOL    HW2 6876   1.573   2.892   4.003
 1997SOL     OW 6877   1.218   3.666   5.352
 1997SOL    HW1 6878   1.194   3.727   5.282
 1997SOL    HW2 6879   1.219   3.580   5.309
 1998SOL     OW 6880   0.342   2.109   5.541
 1998SOL    HW1 6881   0.377   2.198   5.547
 1998SOL    HW2 6882   0.249   2.119   5.566
 1999SOL     OW 6883   1.466   3.281   4.674
 1999SOL    HW1 6884   1.399   3.297   4.740
 1999SOL    HW2 6885   1.453   3.190   4.648
 2000SOL     OW 6886   1.654   3.602   4.305
 2000SOL    HW1 6887   1.640   3.571   4.215
 2000SOL    HW2 6888   1.631   3.527   4.360
 2001SOL     OW 6889   0.596   2.578   3.990
 2001SOL    HW1 6890   0.602   2.662   3.945
 2001SOL    HW2 6891   0.533   2.593   4.060
 2002SOL     OW 6892   1.280   2.222   4.659
 2002SOL    HW1 6893   1.191   2.186   4.668
 2002SOL    HW2 6894   1.334   2.166   4.715
 2003SOL     OW 6895   1.577   3.537   4.032
 2003SOL    HW1 6896   1.669   3.561   4.027
 2003SOL    HW2 6897   1.551   3.518   3.942
 2004SOL     OW 6898   0.792   2.480   5.174
 2004SOL    HW1 6899   0.765   2.454   5.262
 2004SOL    HW2 6900   0.754   2.413   5.117
 2005SOL     OW 6901   1.392   2.335   5.406
 2005SOL    HW1 6902   1.400   2.379   5.490
 2005SOL    HW2 6903   1.450   2.259   5.413
 2006SOL     OW 6904   0.952   2.748   5.308
 2006SOL    HW1 6905   1.007   2.679   5.271
 2006SOL    HW2 6906   0.904   2.783   5.233
 2007SOL     OW 6907   0.993   2.275   4.961
 2007SOL    HW1 6908   0.905   2.293   4.993
 2007SOL    HW2 6909   0.978   2.229   4.878
 2008SOL     OW 6910   1.053   2.560   4.149
 2008SOL    HW1 6911   1.069   2.553   4.243
 2008SOL    HW2 6912   0.970   2.514   4.136
 2009SOL     OW 6913   0.082   2.691   4.514
 2009SOL    HW1 6914   0.156   2.660   4.566
 2009SOL    HW2 6915   0.100   2.784   4.499
 2010SOL     OW 6916   0.127   3.717   5.302
 2010SOL    HW1 6917   0.135   3.686   5.392
 2010SOL    HW2 6918   0.035   3.705   5.279
 2011SOL     OW 6919   0.897   2.212   3.917
 2011SOL    HW1 6920   0.936   2.275   3.857
 2011SOL    HW2 6921   0.913   2.126   3.878
 2012SOL     OW 6922   1.684   2.454   5.535
 2012SOL    HW1 6923   1.655   2.525   5.479
 2012SOL    HW2 6924   1.719   2.388   5.475
 2013SOL     OW 6925   1.379   3.004   4.265
 2013SOL    HW1 6926   1.457   2.992   4.212
 2013SOL    HW2 6927   1.325   3.066   4.215
 2014SOL     OW 6928   0.546   2.040   4.618
 2014SOL    HW1 6929   0.553   2.072   4.708
 2014SOL    HW2 6930   0.546   2.119   4.564
 2015SOL     OW 6931   1.003   3.307   4.194
 2015SOL    HW1 6932   0.967   3.381   4.145
 2015SOL    HW2 6933   0.983   3.326   4.286
 2016SOL     OW 6934   0.359   3.671   4.585
 2016SOL    HW1 6935   0.438   3.618   4.598
 2016SOL    HW2 6936   0.389   3.761   4.595
 2017SOL     OW 6937   1.800   2.914   4.593
 2017SOL    HW1 6938   1.747   2.897   4.516
 2017SOL    HW2 6939   1.737   2.922   4.665
 2018SOL     OW 6940   1.228   3.399   5.235
 2018SOL    HW1 6941   1.215   3.327   5.296
 2018SOL    HW2 6942   1.159   3.387   5.169
 2019SOL     OW 6943   0.311   2.816   3.966
 2019SOL    HW1 6944   0.394   2.839   3.925
 2019SOL    HW2 6945   0.298   2.723   3.945
 2020SOL     OW 6946   1.480   2.608   4.449
 2020SOL    HW1 6947   1.474   2.565   4.534
 2020SOL    HW2 6948   1.559   2.663   4.455
 2021SOL     OW 6949   0.468   3.122   5.461
 2021SOL    HW1 6950   0.442   3.130   5.369
 2021SOL    HW2 6951   0.386   3.126   5.509
 2022SOL     OW 6952   1.113   3.643   3.946
 2022SOL    HW1 6953   1.049   3.597   3.999
 2022SOL    HW2 6954   1.144   3.577   3.883
 2023SOL     OW 6955   0.204   2.135   5.233
 2023SOL    HW1 6956   0.114   2.168   5.226
 2023SOL    HW2 6957   0.195   2.048   5.271
 2024SOL     OW 6958   1.628   3.243   3.814
 2024SOL    HW1 6959   1.587   3.328   3.797
 2024SOL    HW2 6960   1.559   3.179   3.794
 2025SOL     OW 6961   0.468   3.601   4.045
 2025SOL    HW1 6962   0.506   3.664   4.106
 2025SOL    HW2 6963   0.541   3.573   3.990
 2026SOL     OW 6964   1.397   1.968   4.159
 2026SOL    HW1 6965   1.384   1.946   4.066
 2026SOL    HW2 6966   1.486   1.937   4.178
 2027SOL     OW 6967   0.253   3.656   4.950
 2027SOL    HW1 6968   0.297   3.590   5.003
 2027SOL    HW2 6969   0.251   3.619   4.862
 2028SOL     OW 6970   0.938   3.563   4.624
 2028SOL    HW1 6971   1.015   3.511   4.646
 2028SOL    HW2 6972   0.894   3.513   4.554
 2029SOL     OW 6973   0.399   2.555   4.195
 2029SOL    HW1 6974   0.424   2.464   4.210
 2029SOL    HW2 6975   0.307   2.559   4.222
 2030SOL     OW 6976   1.528   2.082   5.445
 2030SOL    HW1 6977   1.543   2.104   5.537
 2030SOL    HW2 6978   1.465   2.011   5.447
 2031SOL     OW 6979   0.643   1.981   3.821
 2031SOL    HW1 6980   0.703   1.909   3.841
 2031SOL    HW2 6981   0.593   1.949   3.746
 2032SOL     OW 6982   0.766   2.143   5.481
 2032SOL    HW1 6983   0.845   2.088   5.476
 2032SOL    HW2 6984   0.717   2.108   5.556
 2033SOL     OW 6985   0.876   3.383   4.918
 2033SOL    HW1 6986   0.859   3.346   4.831
 2033SOL    HW2 6987   0.946   3.328   4.954
 2034SOL     OW 6988   1.341   2.451   5.158
 2034SOL    HW1 6989   1.371   2.420   5.243
 2034SOL    HW2 6990   1.376   2.539   5.149
 2035SOL     OW 6991   0.817   3.254   4.666
 2035SOL    HW1 6992   0.902   3.242   4.623
 2035SOL    HW2 6993   0.754   3.256   4.594
 2036SOL     OW 6994   0.929   2.371   4.626
 2036SOL    HW1 6995   0.905   2.363   4.534
 2036SOL    HW2 6996   0.959   2.284   4.651
 2037SOL     OW 6997   0.556   1.924   4.219
 2037SOL    HW1 6998   0.474   1.929   4.268
 2037SOL    HW2 6999   0.560   2.007   4.170
 2038SOL     OW 7000   1.428   3.061   3.764
 2038SOL    HW1 7001   1.458   2.986   3.815
 2038SOL    HW2 7002   1.342   3.082   3.801
 2039SOL     OW 7003   0.308   1.913   3.894
 2039SOL    HW1 7004   0.372   1.951   3.833
 2039SOL    HW2 7005   0.358   1.848   3.943
 2040SOL     OW 7006   0.940   2.109   4.183
 2040SOL    HW1 7007   0.912   2.150   4.101
 2040SOL    HW2 7008   1.034   2.126   4.186
 2041SOL     OW 7009   1.080   2.544   5.183
 2041SOL    HW1 7010   1.012   2.476   5.185
 2041SOL    HW2 7011   1.162   2.495   5.176
 2042SOL     OW 7012   1.222   3.433   4.518
 2042SOL    HW1 7013   1.236   3.500   4.451
 2042SOL    HW2 7014   1.290   3.448   4.583
 2043SOL     OW 7015   0.467   3.013   4.459
 2043SOL    HW1 7016   0.395   2.989   4.518
 2043SOL    HW2 7017   0.432   2.997   4.371
 2044SOL     OW 7018   1.266   3.656   4.332
 2044SOL    HW1 7019   1.313   3.721   4.280
 2044SOL    HW2 7020   1.193   3.705   4.371
 2045SOL     OW 7021   1.023   2.401   3.749
 2045SOL    HW1 7022   0.981   2.484   3.730
 2045SOL    HW2 7023   1.089   2.422   3.814
 2046SOL     OW 7024   0.082   2.434   5.114
 2046SOL    HW1 7025   0.172   2.421   5.083
 2046SOL    HW2 7026   0.089   2.504   5.179
 2047SOL     OW 7027   0.567   2.089   4.890
 2047SOL    HW1 7028   0.608   2.013   4.932
 2047SOL    HW2 7029   0.475   2.085   4.919
 2048SOL     OW 7030   0.867   2.320   4.364
 2048SOL    HW1 7031   0.820   2.374   4.300
 2048SOL    HW2 7032   0.888   2.240   4.316
 2049SOL     OW 7033   1.015   1.917   4.475
 2049SOL    HW1 7034   0.958   1.910   4.398
 2049SOL    HW2 7035   0.993   1.841   4.528
 2050SOL     OW 7036   1.438   3.023   4.581
 2050SOL    HW1 7037   1.368   2.959   4.580
 2050SOL    HW2 7038   1.462   3.033   4.489
 2051SOL     OW 7039   1.464   2.469   4.697
 2051SOL    HW1 7040   1.411   2.390   4.698
 2051SOL    HW2 7041   1.521   2.461   4.773
 2052SOL     OW 7042   1.846   2.675   4.111
 2052SOL    HW1 7043   1.904   2.623   4.166
 2052SOL    HW2 7044   1.815   2.614   4.044
 2053SOL     OW 7045   0.488   3.281   3.883
 2053SOL    HW1 7046   0.412   3.251   3.933
 2053SOL    HW2 7047   0.470   3.252   3.793
 2054SOL     OW 7048   1.673   3.126   4.368
 2054SOL    HW1 7049   1.768   3.127   4.382
 2054SOL    HW2 7050   1.644   3.214   4.390
 2055SOL     OW 7051   1.392   2.436   3.793
 2055SOL    HW1 7052   1.336   2.413   3.867
 2055SOL    HW2 7053   1.480   2.413   3.822
 2056SOL     OW 7054   0.574   2.130   4.042
 2056SOL    HW1 7055   0.605   2.083   3.965
 2056SOL    HW2 7056   0.542   2.214   4.008
 2057SOL     OW 7057   1.752   3.103   5.292
 2057SOL    HW1 7058   1.839   3.065   5.287
 2057SOL    HW2 7059   1.766   3.194   5.320
 2058SOL     OW 7060   1.056   3.214   5.056
 2058SOL    HW1 7061   0.981   3.184   5.107
 2058SOL    HW2 7062   1.132   3.174   5.098
 2059SOL     OW 7063   1.610   3.488   5.380
 2059SOL    HW1 7064   1.601   3.522   5.291
 2059SOL    HW2 7065   1.693   3.440   5.380
 2060SOL     OW 7066   1.132   3.068   4.828
 2060SOL    HW1 7067   1.073   3.105   4.892
 2060SOL    HW2 7068   1.100   3.101   4.744
 2061SOL     OW 7069   1.626   2.959   4.800
 2061SOL    HW1 7070   1.620   3.021   4.872
 2061SOL    HW2 7071   1.548   2.977   4.747
 2062SOL     OW 7072   0.918   1.958   5.118
 2062SOL    HW1 7073   0.941   1.939   5.027
 2062SOL    HW2 7074   0.997   1.997   5.155
 2063SOL     OW 7075   0.984   2.977   5.447
 2063SOL    HW1 7076   0.893   2.993   5.470
 2063SOL    HW2 7077   0.981   2.899   5.392
 2064SOL     OW 7078   0.708   2.922   4.095
 2064SOL    HW1 7079   0.694   2.906   4.188
 2064SOL    HW2 7080   0.784   2.870   4.071
 2065SOL     OW 7081   0.422   2.679   4.976
 2065SOL    HW1 7082   0.490   2.687   5.043
 2065SOL    HW2 7083   0.388   2.590   4.988
 2066SOL     OW 7084   1.264   2.238   5.002
 2066SOL    HW1 7085   1.297   2.316   5.047
 2066SOL    HW2 7086   1.174   2.259   4.979
 2067SOL     OW 7087   0.065   3.442   5.070
 2067SOL    HW1 7088   0.071   3.496   4.991
 2067SOL    HW2 7089   0.156   3.430   5.097
 2068SOL     OW 7090   0.370   2.964   4.207
 2068SOL    HW1 7091   0.365   3.045   4.155
 2068SOL    HW2 7092   0.369   2.894   4.142
 2069SOL     OW 7093   0.549   2.398   4.586
 2069SOL    HW1 7094   0.564   2.455   4.510
 2069SOL    HW2 7095   0.617   2.424   4.648
 2070SOL     OW 7096   1.248   3.211   4.114
 2070SOL    HW1 7097   1.304   3.282   4.145
 2070SOL    HW2 7098   1.161   3.233   4.147
 2071SOL     OW 7099   1.285   3.321   4.872
 2071SOL    HW1 7100   1.340   3.325   4.950
 2071SOL    HW2 7101   1.229   3.245   4.886
 2072SOL     OW 7102   1.576   2.483   4.201
 2072SOL    HW1 7103   1.531   2.538   4.266
 2072SOL    HW2 7104   1.622   2.546   4.145
 2073SOL     OW 7105   0.345   3.389   5.042
 2073SOL    HW1 7106   0.335   3.339   4.961
 2073SOL    HW2 7107   0.439   3.404   5.049
 2074SOL     OW 7108   0.416   2.601   5.325
 2074SOL    HW1 7109   0.479   2.646   5.269
 2074SOL    HW2 7110   0.455   2.515   5.341
 2075SOL     OW 7111   1.598   2.656   5.394
 2075SOL    HW1 7112   1.512   2.699   5.390
 2075SOL    HW2 7113   1.651   2.701   5.328
 2076SOL     OW 7114   0.995   1.991   5.476
 2076SOL    HW1 7115   1.055   2.061   5.452
 2076SOL    HW2 7116   1.042   1.910   5.454
 2077SOL     OW 7117   0.497   1.898   5.471
 2077SOL    HW1 7118   0.453   1.845   5.404
 2077SOL    HW2 7119   0.442   1.976   5.480
 2078SOL     OW 7120   0.585   2.736   4.756
 2078SOL    HW1 7121   0.618   2.826   4.756
 2078SOL    HW2 7122   0.529   2.730   4.833
 2079SOL     OW 7123   1.354   2.720   4.750
 2079SOL    HW1 7124   1.269   2.709   4.707
 2079SOL    HW2 7125   1.396   2.635   4.742
 2080SOL     OW 7126   1.202   2.390   3.989
 2080SOL    HW1 7127   1.211   2.312   4.044
 2080SOL    HW2 7128   1.160   2.454   4.045
 2081SOL     OW 7129   0.311   2.058   4.971
 2081SOL    HW1 7130   0.263   2.095   5.046
 2081SOL    HW2 7131   0.287   1.965   4.971
 2082SOL     OW 7132   0.060   3.167   5.004
 2082SOL    HW1 7133   0.091   3.126   5.085
 2082SOL    HW2 7134   0.052   3.260   5.026
 2083SOL     OW 7135   0.724   2.493   4.780
 2083SOL    HW1 7136   0.799   2.478   4.723
 2083SOL    HW2 7137   0.695   2.582   4.759
 2084SOL     OW 7138   1.736   2.818   5.581
 2084SOL    HW1 7139   1.692   2.757   5.522
 2084SOL    HW2 7140   1.672   2.836   5.650
 2085SOL     OW 7141   0.314   1.924   4.344
 2085SOL    HW1 7142   0.293   2.015   4.365
 2085SOL    HW2 7143   0.320   1.881   4.429
 2086SOL     OW 7144   1.609   2.237   4.093
 2086SOL    HW1 7145   1.626   2.184   4.171
 2086SOL    HW2 7146   1.588   2.324   4.127
 2087SOL     OW 7147   1.028   2.621   4.683
 2087SOL    HW1 7148   1.023   2.638   4.777
 2087SOL    HW2 7149   1.002   2.529   4.674
 2088SOL     OW 7150   0.986   3.430   5.444
 2088SOL    HW1 7151   0.967   3.471   5.360
 2088SOL    HW2 7152   1.027   3.347   5.421
 2089SOL     OW 7153   1.854   3.365   5.328
 2089SOL    HW1 7154   1.873   3.393   5.238
 2089SOL    HW2 7155   1.934   3.383   5.377
 2090SOL     OW 7156   0.353   2.784   5.524
 2090SOL    HW1 7157   0.431   2.804   5.575
 2090SOL    HW2 7158   0.381   2.716   5.462
 2091SOL     OW 7159   1.528   2.132   3.849
 2091SOL    HW1 7160   1.462   2.069   3.879
 2091SOL    HW2 7161   1.562   2.171   3.930
 2092SOL     OW 7162   1.289   2.688   3.754
 2092SOL    HW1 7163   1.331   2.602   3.758
 2092SOL    HW2 7164   1.321   2.727   3.672
 2093SOL     OW 7165   1.067   3.199   4.579
 2093SOL    HW1 7166   1.071   3.127   4.516
 2093SOL    HW2 7167   1.127   3.265   4.544
 2094SOL     OW 7168   0.313   2.664   4.674
 2094SOL    HW1 7169   0.407   2.681   4.668
 2094SOL    HW2 7170   0.308   2.574   4.706
 2095SOL     OW 7171   0.330   2.383   4.738
 2095SOL    HW1 7172   0.295   2.295   4.722
 2095SOL    HW2 7173   0.406   2.390   4.681
 2096SOL     OW 7174   1.133   2.238   5.407
 2096SOL    HW1 7175   1.085   2.294   5.468
 2096SOL    HW2 7176   1.221   2.275   5.404
 2097SOL     OW 7177   1.159   2.063   5.194
 2097SOL    HW1 7178   1.149   2.126   5.266
 2097SOL    HW2 7179   1.202   2.113   5.125
 2098SOL     OW 7180   4.000   3.180   3.906
 2098SOL    HW1 7181   3.905   3.196   3.910
 2098SOL    HW2 7182   0.009   3.086   3.924
 2099SOL     OW 7183   0.075   3.663   4.619
 2099SOL    HW1 7184   0.091   3.568   4.617
 2099SOL    HW2 7185   0.163   3.701   4.618
 2100SOL     OW 7186   0.507   3.425   4.641
 2100SOL    HW1 7187   0.573   3.492   4.661
 2100SOL    HW2 7188   0.549   3.367   4.578
 2101SOL     OW 7189   0.979   2.652   4.949
 2101SOL    HW1 7190   1.036   2.631   5.023
 2101SOL    HW2 7191   0.895   2.613   4.973
 2102SOL     OW 7192   0.038   2.420   4.833
 2102SOL    HW1 7193   0.120   2.396   4.791
 2102SOL    HW2 7194   0.057   2.417   4.927
 2103SOL     OW 7195   0.207   2.375   5.451
 2103SOL    HW1 7196   0.245   2.326   5.378
 2103SOL    HW2 7197   0.159   2.447   5.411
 2104SOL     OW 7198   1.370   2.803   5.381
 2104SOL    HW1 7199   1.395   2.896   5.377
 2104SOL    HW2 7200   1.366   2.776   5.289
 2105SOL     OW 7201   0.818   2.431   4.086
 2105SOL    HW1 7202   0.823   2.356   4.027
 2105SOL    HW2 7203   0.744   2.482   4.054
 2106SOL     OW 7204   1.639   2.464   4.908
 2106SOL    HW1 7205   1.628   2.407   4.984
 2106SOL    HW2 7206   1.724   2.440   4.873
 2107SOL     OW 7207   0.300   3.407   5.450
 2107SOL    HW1 7208   0.251   3.477   5.495
 2107SOL    HW2 7209   0.268   3.326   5.490
 2108SOL     OW 7210   0.707   2.311   4.981
 2108SOL    HW1 7211   0.654   2.237   4.952
 2108SOL    HW2 7212   0.701   2.374   4.909
 2109SOL     OW 7213   0.928   3.533   5.193
 2109SOL    HW1 7214   0.901   3.496   5.109
 2109SOL    HW2 7215   0.920   3.628   5.181
 2110SOL     OW 7216   0.455   2.351   3.919
 2110SOL    HW1 7217   0.520   2.419   3.937
 2110SOL    HW2 7218   0.375   2.400   3.897
 2111SOL     OW 7219   0.156   2.997   5.199
 2111SOL    HW1 7220   0.156   2.946   5.281
 2111SOL    HW2 7221   0.171   2.932   5.131
 2112SOL     OW 7222   1.324   2.907   4.945
 2112SOL    HW1 7223   1.346   2.843   4.877
 2112SOL    HW2 7224   1.255   2.961   4.906
 2113SOL     OW 7225   1.313   2.719   4.029
 2113SOL    HW1 7226   1.239   2.687   4.080
 2113SOL    HW2 7227   1.288   2.705   3.938
 2114SOL     OW 7228   1.772   3.602   4.875
 2114SOL    HW1 7229   1.834   3.630   4.808
 2114SOL    HW2 7230   1.750   3.512   4.851
 2115SOL     OW 7231   1.244   3.595   4.832
 2115SOL    HW1 7232   1.327   3.616   4.790
 2115SOL    HW2 7233   1.251   3.501   4.852
 2116SOL     OW 7234   0.076   3.076   4.752
 2116SOL    HW1 7235   0.083   3.104   4.843
 2116SOL    HW2 7236   3.984   3.087   4.730
 2117SOL     OW 7237   0.679   3.527   5.457
 2117SOL    HW1 7238   0.621   3.603   5.461
 2117SOL    HW2 7239   0.739   3.546   5.385
 2118SOL     OW 7240   1.391   3.431   4.211
 2118SOL    HW1 7241   1.450   3.464   4.144
 2118SOL    HW2 7242   1.342   3.508   4.241
 2119SOL     OW 7243   0.170   3.623   5.556
 2119SOL    HW1 7244   0.115   3.570   5.614
 2119SOL    HW2 7245   0.217   3.682   5.614
 2120SOL     OW 7246   1.277   2.789   4.395
 2120SOL    HW1 7247   1.351   2.728   4.404
 2120SOL    HW2 7248   1.312   2.861   4.342
 2121SOL     OW 7249   0.810   3.136   5.152
 2121SOL    HW1 7250   0.781   3.177   5.234
 2121SOL    HW2 7251   0.739   3.155   5.090
 2122SOL     OW 7252   0.675   3.479   3.882
 2122SOL    HW1 7253   0.683   3.496   3.788
 2122SOL    HW2 7254   0.616   3.403   3.887
 2123SOL     OW 7255   1.622   3.588   5.114
 2123SOL    HW1 7256   1.674   3.593   5.033
 2123SOL    HW2 7257   1.608   3.679   5.139
 2124SOL     OW 7258   0.266   2.175   4.440
 2124SOL    HW1 7259   0.180   2.207   4.414
 2124SOL    HW2 7260   0.261   2.165   4.535
 2125SOL     OW 7261   1.208   3.466   3.760
 2125SOL    HW1 7262   1.197   3.374   3.784
 2125SOL    HW2 7263   1.147   3.479   3.687
 2126SOL     OW 7264   0.823   2.868   5.098
 2126SOL    HW1 7265   0.867   2.863   5.013
 2126SOL    HW2 7266   0.821   2.961   5.118
 2127SOL     OW 7267   0.916   2.772   4.015
 2127SOL    HW1 7268   0.976   2.805   3.948
 2127SOL    HW2 7269   0.965   2.704   4.060
 2128SOL     OW 7270   1.489   3.491   3.767
 2128SOL    HW1 7271   1.395   3.480   3.750
 2128SOL    HW2 7272   1.528   3.496   3.679
 2129SOL     OW 7273   0.374   3.165   5.215
 2129SOL    HW1 7274   0.359   3.245   5.165
 2129SOL    HW2 7275   0.297   3.111   5.198
 2130SOL     OW 7276   1.609   3.145   5.004
 2130SOL    HW1 7277   1.671   3.134   5.076
 2130SOL    HW2 7278   1.549   3.213   5.034
 2131SOL     OW 7279   1.056   2.971   4.432
 2131SOL    HW1 7280   0.984   2.920   4.470
 2131SOL    HW2 7281   1.119   2.905   4.403
 2132SOL     OW 7282   1.023   2.103   4.691
 2132SOL    HW1 7283   1.019   2.056   4.608
 2132SOL    HW2 7284   1.018   2.034   4.758
 2133SOL     OW 7285   0.606   3.352   4.204
 2133SOL    HW1 7286   0.651   3.302   4.137
 2133SOL    HW2 7287   0.533   3.395   4.158
 2134SOL     OW 7288   1.731   2.245   5.098
 2134SOL    HW1 7289   1.800   2.311   5.103
 2134SOL    HW2 7290   1.770   2.173   5.049
 2135SOL     OW 7291   0.253   3.203   4.016
 2135SOL    HW1 7292   0.160   3.211   3.997
 2135SOL    HW2 7293   0.264   3.241   4.103
 2136SOL     OW 7294   0.107   2.860   5.441
 2136SOL    HW1 7295   0.047   2.853   5.515
 2136SOL    HW2 7296   0.193   2.842   5.479
 2137SOL     OW 7297   0.676   2.059   5.225
 2137SOL    HW1 7298   0.760   2.037   5.184
 2137SOL    HW2 7299   0.700   2.092   5.311
 2138SOL     OW 7300   0.081   2.176   3.762
 2138SOL    HW1 7301   3.985   2.176   3.769
 2138SOL    HW2 7302   0.101   2.257   3.714
 2139SOL     OW 7303   1.427   2.721   5.123
 2139SOL    HW1 7304   1.379   2.782   5.067
 2139SOL    HW2 7305   1.516   2.723   5.088
 2140SOL     OW 7306   0.018   2.097   4.100
 2140SOL    HW1 7307   0.045   2.161   4.034
 2140SOL    HW2 7308   0.100   2.058   4.130
 2141SOL     OW 7309   1.178   3.199   3.841
 2141SOL    HW1 7310   1.086   3.170   3.842
 2141SOL    HW2 7311   1.204   3.199   3.933
 2142SOL     OW 7312   0.620   2.692   5.161
 2142SOL    HW1 7313   0.676   2.768   5.145
 2142SOL    HW2 7314   0.680   2.618   5.167
 2143SOL     OW 7315   1.486   3.641   4.705
 2143SOL    HW1 7316   1.508   3.701   4.633
 2143SOL    HW2 7317   1.570   3.620   4.746
 2144SOL     OW 7318   0.714   2.423   5.426
 2144SOL    HW1 7319   0.756   2.484   5.486
 2144SOL    HW2 7320   0.738   2.336   5.460
 2145SOL     OW 7321   1.474   3.059   5.354
 2145SOL    HW1 7322   1.461   3.075   5.448
 2145SOL    HW2 7323   1.566   3.078   5.339
 2146SOL     OW 7324   0.378   3.607   5.283
 2146SOL    HW1 7325   0.290   3.643   5.270
 2146SOL    HW2 7326   0.364   3.525   5.329
 2147SOL     OW 7327   1.668   2.743   4.978
 2147SOL    HW1 7328   1.660   2.658   4.936
 2147SOL    HW2 7329   1.656   2.806   4.907
 2148SOL     OW 7330   1.216   2.182   4.182
 2148SOL    HW1 7331   1.278   2.110   4.174
 2148SOL    HW2 7332   1.245   2.231   4.258
 2149SOL     OW 7333   0.589   2.599   4.397
 2149SOL    HW1 7334   0.628   2.685   4.381
 2149SOL    HW2 7335   0.523   2.590   4.328
 2150SOL     OW 7336   1.746   2.234   5.376
 2150SOL    HW1 7337   1.747   2.238   5.280
 2150SOL    HW2 7338   1.675   2.173   5.397
 2151SOL     OW 7339   1.748   2.807   5.231
 2151SOL    HW1 7340   1.737   2.902   5.242
 2151SOL    HW2 7341   1.730   2.792   5.139
 2152SOL     OW 7342   0.865   3.229   3.763
 2152SOL    HW1 7343   0.823   3.257   3.845
 2152SOL    HW2 7344   0.879   3.310   3.714
 2153SOL     OW 7345   0.659   3.651   4.659
 2153SOL    HW1 7346   0.637   3.742   4.640
 2153SOL    HW2 7347   0.754   3.648   4.657
 2154SOL     OW 7348   0.869   2.830   4.578
 2154SOL    HW1 7349   0.919   2.758   4.616
 2154SOL    HW2 7350   0.832   2.877   4.653
 2155SOL     OW 7351   1.077   2.850   3.813
 2155SOL    HW1 7352   1.056   2.902   3.735
 2155SOL    HW2 7353   1.152   2.796   3.787
 2156SOL     OW 7354   1.851   3.412   4.565
 2156SOL    HW1 7355   1.770   3.403   4.514
 2156SOL    HW2 7356   1.841   3.351   4.638
 2157SOL     OW 7357   0.227   3.166   5.580
 2157SOL    HW1 7358   0.153   3.111   5.553
 2157SOL    HW2 7359   0.214   3.179   5.674
 2158SOL     OW 7360   0.115   3.140   4.446
 2158SOL    HW1 7361   0.134   3.090   4.525
 2158SOL    HW2 7362   0.105   3.074   4.377
 2159SOL     OW 7363   0.683   3.266   5.355
 2159SOL    HW1 7364   0.602   3.225   5.384
 2159SOL    HW2 7365   0.679   3.355   5.391
 2160SOL     OW 7366   0.441   2.296   4.258
 2160SOL    HW1 7367   0.442   2.226   4.192
 2160SOL    HW2 7368   0.385   2.262   4.328
 2161SOL     OW 7369   1.700   3.348   4.815
 2161SOL    HW1 7370   1.619   3.327   4.770
 2161SOL    HW2 7371   1.709   3.280   4.882
 2162SOL     OW 7372   0.335   2.419   5.016
 2162SOL    HW1 7373   0.389   2.362   5.070
 2162SOL    HW2 7374   0.349   2.388   4.927
 2163SOL     OW 7375   0.828   3.441   4.400
 2163SOL    HW1 7376   0.812   3.495   4.323
 2163SOL    HW2 7377   0.754   3.381   4.404
 2164SOL     OW 7378   1.436   2.090   4.844
 2164SOL    HW1 7379   1.443   2.002   4.881
 2164SOL    HW2 7380   1.382   2.138   4.907
 2165SOL     OW 7381   1.009   1.879   4.863
 2165SOL    HW1 7382   0.956   1.812   4.821
 2165SOL    HW2 7383   1.098   1.841   4.865
 2166SOL     OW 7384   0.772   3.194   4.043
 2166SOL    HW1 7385   0.743   3.103   4.049
 2166SOL    HW2 7386   0.855   3.196   4.091
 2167SOL     OW 7387   0.621   3.415   5.010
 2167SOL    HW1 7388   0.621   3.497   5.060
 2167SOL    HW2 7389   0.708   3.410   4.972
 2168SOL     OW 7390   1.353   1.912   3.892
 2168SOL    HW1 7391   1.382   1.849   3.826
 2168SOL    HW2 7392   1.265   1.883   3.916
 2169SOL     OW 7393   1.298   2.324   4.404
 2169SOL    HW1 7394   1.244   2.403   4.410
 2169SOL    HW2 7395   1.292   2.286   4.492
 2170SOL     OW 7396   1.575   2.056   4.597
 2170SOL    HW1 7397   1.536   2.082   4.680
 2170SOL    HW2 7398   1.586   2.138   4.549
 2171SOL     OW 7399   0.047   2.911   3.963
 2171SOL    HW1 7400   0.141   2.895   3.955
 2171SOL    HW2 7401   0.011   2.828   3.994
 2172SOL     OW 7402   0.886   3.521   4.067
 2172SOL    HW1 7403   0.815   3.501   4.006
 2172SOL    HW2 7404   0.855   3.596   4.117
 2173SOL     OW 7405   0.231   2.486   5.705
 2173SOL    HW1 7406   0.138   2.494   5.726
 2173SOL    HW2 7407   0.233   2.455   5.615
 2174SOL     OW 7408   0.228   2.134   6.573
 2174SOL    HW1 7409   0.249   2.100   6.660
 2174SOL    HW2 7410   0.133   2.126   6.566
 2175SOL     OW 7411   0.010   2.222   6.215
 2175SOL    HW1 7412   3.921   2.239   6.248
 2175SOL    HW2 7413   3.997   2.190   6.126
 2176SOL     OW 7414   0.580   3.151   6.777
 2176SOL    HW1 7415   0.494   3.154   6.735
 2176SOL    HW2 7416   0.593   3.240   6.809
 2177SOL     OW 7417   1.563   3.371   6.293
 2177SOL    HW1 7418   1.520   3.356   6.377
 2177SOL    HW2 7419   1.491   3.378   6.230
 2178SOL     OW 7420   1.106   2.571   6.284
 2178SOL    HW1 7421   1.145   2.658   6.269
 2178SOL    HW2 7422   1.071   2.576   6.373
 2179SOL     OW 7423   1.668   2.425   5.798
 2179SOL    HW1 7424   1.683   2.447   5.707
 2179SOL    HW2 7425   1.740   2.365   5.820
 2180SOL     OW 7426   0.754   3.002   6.630
 2180SOL    HW1 7427   0.689   3.037   6.692
 2180SOL    HW2 7428   0.789   3.079   6.585
 2181SOL     OW 7429   0.865   2.639   7.408
 2181SOL    HW1 7430   0.856   2.710   7.471
 2181SOL    HW2 7431   0.891   2.682   7.326
 2182SOL     OW 7432   0.684   2.863   6.231
 2182SOL    HW1 7433   0.750   2.851   6.300
 2182SOL    HW2 7434   0.615   2.916   6.272
 2183SOL     OW 7435   0.712   3.012   7.402
 2183SOL    HW1 7436   0.760   3.090   7.431
 2183SOL    HW2 7437   0.630   3.046   7.365
 2184SOL     OW 7438   0.351   3.263   6.664
 2184SOL    HW1 7439   0.268   3.247   6.618
 2184SOL    HW2 7440   0.400   3.322   6.606
 2185SOL     OW 7441   1.461   3.363   6.943
 2185SOL    HW1 7442   1.513   3.442   6.954
 2185SOL    HW2 7443   1.393   3.370   7.011
 2186SOL     OW 7444   0.450   2.260   7.072
 2186SOL    HW1 7445   0.524   2.200   7.075
 2186SOL    HW2 7446   0.373   2.204   7.086
 2187SOL     OW 7447   0.223   3.571   6.052
 2187SOL    HW1 7448   0.223   3.655   6.099
 2187SOL    HW2 7449   0.300   3.576   5.995
 2188SOL     OW 7450   1.138   3.203   7.278
 2188SOL    HW1 7451   1.176   3.197   7.366
 2188SOL    HW2 7452   1.084   3.125   7.270
 2189SOL     OW 7453   0.251   3.306   6.126
 2189SOL    HW1 7454   0.222   3.396   6.112
 2189SOL    HW2 7455   0.181   3.267   6.179
 2190SOL     OW 7456   0.248   2.928   6.470
 2190SOL    HW1 7457   0.267   2.844   6.510
 2190SOL    HW2 7458   0.195   2.974   6.535
 2191SOL     OW 7459   0.612   3.647   7.014
 2191SOL    HW1 7460   0.529   3.633   7.060
 2191SOL    HW2 7461   0.637   3.736   7.038
 2192SOL     OW 7462   0.577   2.848   5.724
 2192SOL    HW1 7463   0.626   2.893   5.655
 2192SOL    HW2 7464   0.618   2.877   5.805
 2193SOL     OW 7465   1.588   2.065   7.053
 2193SOL    HW1 7466   1.542   2.078   6.970
 2193SOL    HW2 7467   1.543   1.990   7.093
 2194SOL     OW 7468   0.142   2.515   6.159
 2194SOL    HW1 7469   0.088   2.436   6.159
 2194SOL    HW2 7470   0.106   2.569   6.230
 2195SOL     OW 7471   1.843   3.609   5.924
 2195SOL    HW1 7472   1.912   3.585   5.986
 2195SOL    HW2 7473   1.862   3.699   5.900
 2196SOL     OW 7474   0.041   3.453   5.726
 2196SOL    HW1 7475   0.034   3.361   5.751
 2196SOL    HW2 7476   3.958   3.491   5.754
 2197SOL     OW 7477   1.647   3.012   5.978
 2197SOL    HW1 7478   1.738   2.997   5.956
 2197SOL    HW2 7479   1.649   3.055   6.064
 2198SOL     OW 7480   0.139   2.615   7.175
 2198SOL    HW1 7481   0.235   2.609   7.172
 2198SOL    HW2 7482   0.121   2.703   7.206
 2199SOL     OW 7483   0.616   3.248   6.320
 2199SOL    HW1 7484   0.569   3.166   6.330
 2199SOL    HW2 7485   0.598   3.276   6.230
 2200SOL     OW 7486   1.289   3.100   7.008
 2200SOL    HW1 7487   1.317   3.027   6.952
 2200SOL    HW2 7488   1.345   3.094   7.085
 2201SOL     OW 7489   0.810   1.851   6.085
 2201SOL    HW1 7490   0.856   1.935   6.083
 2201SOL    HW2 7491   0.718   1.874   6.094
 2202SOL     OW 7492   0.184   2.813   6.865
 2202SOL    HW1 7493   0.272   2.777   6.852
 2202SOL    HW2 7494   0.132   2.773   6.796
 2203SOL     OW 7495   1.531   2.857   5.782
 2203SOL    HW1 7496   1.468   2.798   5.823
 2203SOL    HW2 7497   1.567   2.908   5.854
 2204SOL     OW 7498   1.220   3.666   7.213
 2204SOL    HW1 7499   1.194   3.728   7.144
 2204SOL    HW2 7500   1.220   3.581   7.170
 2205SOL     OW 7501   0.342   2.109   7.403
 2205SOL    HW1 7502   0.377   2.198   7.411
 2205SOL    HW2 7503   0.250   2.118   7.427
 2206SOL     OW 7504   1.466   3.288   6.541
 2206SOL    HW1 7505   1.399   3.307   6.606
 2206SOL    HW2 7506   1.451   3.197   6.516
 2207SOL     OW 7507   1.655   3.601   6.167
 2207SOL    HW1 7508   1.640   3.571   6.077
 2207SOL    HW2 7509   1.632   3.526   6.221
 2208SOL     OW 7510   0.596   2.578   5.852
 2208SOL    HW1 7511   0.602   2.663   5.807
 2208SOL    HW2 7512   0.534   2.592   5.923
 2209SOL     OW 7513   1.577   3.537   5.895
 2209SOL    HW1 7514   1.669   3.561   5.889
 2209SOL    HW2 7515   1.551   3.518   5.804
 2210SOL     OW 7516   0.788   2.482   7.037
 2210SOL    HW1 7517   0.765   2.457   7.127
 2210SOL    HW2 7518   0.750   2.413   6.982
 2211SOL     OW 7519   0.954   2.748   7.169
 2211SOL    HW1 7520   1.009   2.679   7.134
 2211SOL    HW2 7521   0.906   2.782   7.094
 2212SOL     OW 7522   0.972   2.254   6.861
 2212SOL    HW1 7523   0.882   2.285   6.870
 2212SOL    HW2 7524   0.981   2.233   6.768
 2213SOL     OW 7525   1.051   2.570   6.009
 2213SOL    HW1 7526   1.070   2.556   6.101
 2213SOL    HW2 7527   0.974   2.516   5.991
 2214SOL     OW 7528   0.082   2.691   6.376
 2214SOL    HW1 7529   0.156   2.660   6.428
 2214SOL    HW2 7530   0.100   2.784   6.361
 2215SOL     OW 7531   0.127   3.718   7.164
 2215SOL    HW1 7532   0.135   3.686   7.254
 2215SOL    HW2 7533   0.035   3.705   7.142
 2216SOL     OW 7534   0.902   2.209   5.781
 2216SOL    HW1 7535   0.936   2.272   5.718
 2216SOL    HW2 7536   0.904   2.125   5.734
 2217SOL     OW 7537   1.354   3.013   6.107
 2217SOL    HW1 7538   1.438   3.010   6.061
 2217SOL    HW2 7539   1.303   3.079   6.060
 2218SOL     OW 7540   0.546   2.042   6.479
 2218SOL    HW1 7541   0.552   2.073   6.570
 2218SOL    HW2 7542   0.545   2.122   6.426
 2219SOL     OW 7543   1.001   3.309   6.058
 2219SOL    HW1 7544   0.965   3.382   6.008
 2219SOL    HW2 7545   0.978   3.328   6.149
 2220SOL     OW 7546   0.359   3.671   6.447
 2220SOL    HW1 7547   0.438   3.618   6.460
 2220SOL    HW2 7548   0.389   3.761   6.457
 2221SOL     OW 7549   1.796   2.951   6.473
 2221SOL    HW1 7550   1.775   2.893   6.400
 2221SOL    HW2 7551   1.723   2.940   6.534
 2222SOL     OW 7552   1.229   3.399   7.096
 2222SOL    HW1 7553   1.215   3.327   7.158
 2222SOL    HW2 7554   1.157   3.390   7.033
 2223SOL     OW 7555   0.311   2.816   5.829
 2223SOL    HW1 7556   0.394   2.839   5.787
 2223SOL    HW2 7557   0.298   2.723   5.807
 2224SOL     OW 7558   0.468   3.123   7.323
 2224SOL    HW1 7559   0.442   3.131   7.231
 2224SOL    HW2 7560   0.386   3.126   7.371
 2225SOL     OW 7561   1.113   3.643   5.808
 2225SOL    HW1 7562   1.048   3.597   5.861
 2225SOL    HW2 7563   1.144   3.577   5.745
 2226SOL     OW 7564   0.203   2.136   7.095
 2226SOL    HW1 7565   0.113   2.168   7.088
 2226SOL    HW2 7566   0.195   2.049   7.133
 2227SOL     OW 7567   1.629   3.244   5.674
 2227SOL    HW1 7568   1.588   3.329   5.658
 2227SOL    HW2 7569   1.560   3.180   5.656
 2228SOL     OW 7570   0.468   3.601   5.907
 2228SOL    HW1 7571   0.506   3.664   5.968
 2228SOL    HW2 7572   0.541   3.573   5.852
 2229SOL     OW 7573   0.253   3.656   6.812
 2229SOL    HW1 7574   0.297   3.589   6.865
 2229SOL    HW2 7575   0.251   3.619   6.724
 2230SOL     OW 7576   0.937   3.563   6.486
 2230SOL    HW1 7577   1.013   3.510   6.510
 2230SOL    HW2 7578   0.894   3.513   6.416
 2231SOL     OW 7579   0.399   2.555   6.057
 2231SOL    HW1 7580   0.424   2.463   6.072
 2231SOL    HW2 7581   0.307   2.559   6.083
 2232SOL     OW 7582   0.646   1.981   5.681
 2232SOL    HW1 7583   0.701   1.907   5.706
 2232SOL    HW2 7584   0.594   1.949   5.607
 2233SOL     OW 7585   0.752   2.140   7.338
 2233SOL    HW1 7586   0.834   2.094   7.358
 2233SOL    HW2 7587   0.698   2.128   7.417
 2234SOL     OW 7588   0.876   3.383   6.780
 2234SOL    HW1 7589   0.859   3.346   6.693
 2234SOL    HW2 7590   0.945   3.327   6.816
 2235SOL     OW 7591   1.345   2.461   7.041
 2235SOL    HW1 7592   1.394   2.427   7.115
 2235SOL    HW2 7593   1.373   2.552   7.032
 2236SOL     OW 7594   0.817   3.254   6.528
 2236SOL    HW1 7595   0.902   3.243   6.485
 2236SOL    HW2 7596   0.754   3.256   6.456
 2237SOL     OW 7597   0.928   2.375   6.488
 2237SOL    HW1 7598   0.898   2.366   6.397
 2237SOL    HW2 7599   0.985   2.300   6.502
 2238SOL     OW 7600   0.552   1.925   6.080
 2238SOL    HW1 7601   0.470   1.931   6.130
 2238SOL    HW2 7602   0.557   2.008   6.033
 2239SOL     OW 7603   1.427   3.063   5.625
 2239SOL    HW1 7604   1.456   2.986   5.675
 2239SOL    HW2 7605   1.342   3.084   5.662
 2240SOL     OW 7606   0.308   1.913   5.756
 2240SOL    HW1 7607   0.371   1.951   5.694
 2240SOL    HW2 7608   0.358   1.848   5.805
 2241SOL     OW 7609   0.932   2.106   6.049
 2241SOL    HW1 7610   0.901   2.146   5.968
 2241SOL    HW2 7611   1.026   2.096   6.036
 2242SOL     OW 7612   1.080   2.540   7.042
 2242SOL    HW1 7613   1.013   2.472   7.044
 2242SOL    HW2 7614   1.163   2.491   7.038
 2243SOL     OW 7615   1.225   3.432   6.378
 2243SOL    HW1 7616   1.236   3.499   6.311
 2243SOL    HW2 7617   1.290   3.453   6.445
 2244SOL     OW 7618   0.467   3.013   6.321
 2244SOL    HW1 7619   0.395   2.989   6.380
 2244SOL    HW2 7620   0.432   2.998   6.233
 2245SOL     OW 7621   1.265   3.656   6.195
 2245SOL    HW1 7622   1.313   3.720   6.142
 2245SOL    HW2 7623   1.193   3.706   6.233
 2246SOL     OW 7624   1.020   2.409   5.607
 2246SOL    HW1 7625   0.965   2.483   5.580
 2246SOL    HW2 7626   1.087   2.449   5.662
 2247SOL     OW 7627   0.082   2.435   6.975
 2247SOL    HW1 7628   0.172   2.422   6.945
 2247SOL    HW2 7629   0.089   2.504   7.041
 2248SOL     OW 7630   0.567   2.089   6.752
 2248SOL    HW1 7631   0.607   2.012   6.791
 2248SOL    HW2 7632   0.476   2.086   6.781
 2249SOL     OW 7633   0.864   2.316   6.229
 2249SOL    HW1 7634   0.822   2.376   6.168
 2249SOL    HW2 7635   0.882   2.238   6.177
 2250SOL     OW 7636   1.433   3.031   6.458
 2250SOL    HW1 7637   1.349   2.988   6.441
 2250SOL    HW2 7638   1.472   3.043   6.372
 2251SOL     OW 7639   0.488   3.281   5.745
 2251SOL    HW1 7640   0.412   3.251   5.795
 2251SOL    HW2 7641   0.470   3.253   5.655
 2252SOL     OW 7642   1.662   3.120   6.230
 2252SOL    HW1 7643   1.756   3.116   6.244
 2252SOL    HW2 7644   1.638   3.211   6.248
 2253SOL     OW 7645   1.404   2.440   5.663
 2253SOL    HW1 7646   1.366   2.415   5.747
 2253SOL    HW2 7647   1.498   2.434   5.676
 2254SOL     OW 7648   0.576   2.131   5.903
 2254SOL    HW1 7649   0.606   2.084   5.825
 2254SOL    HW2 7650   0.541   2.213   5.869
 2255SOL     OW 7651   1.744   3.117   7.160
 2255SOL    HW1 7652   1.825   3.068   7.146
 2255SOL    HW2 7653   1.773   3.206   7.181
 2256SOL     OW 7654   1.057   3.212   6.916
 2256SOL    HW1 7655   0.982   3.183   6.968
 2256SOL    HW2 7656   1.132   3.174   6.960
 2257SOL     OW 7657   1.611   3.487   7.242
 2257SOL    HW1 7658   1.602   3.522   7.153
 2257SOL    HW2 7659   1.694   3.440   7.242
 2258SOL     OW 7660   1.133   3.064   6.689
 2258SOL    HW1 7661   1.075   3.102   6.756
 2258SOL    HW2 7662   1.101   3.100   6.606
 2259SOL     OW 7663   1.603   2.953   6.667
 2259SOL    HW1 7664   1.607   3.019   6.736
 2259SOL    HW2 7665   1.541   2.990   6.603
 2260SOL     OW 7666   0.919   1.968   6.994
 2260SOL    HW1 7667   0.939   1.933   6.907
 2260SOL    HW2 7668   0.980   2.041   7.004
 2261SOL     OW 7669   0.978   2.982   7.303
 2261SOL    HW1 7670   0.885   2.993   7.324
 2261SOL    HW2 7671   0.981   2.902   7.250
 2262SOL     OW 7672   0.707   2.923   5.957
 2262SOL    HW1 7673   0.694   2.906   6.050
 2262SOL    HW2 7674   0.783   2.870   5.933
 2263SOL     OW 7675   0.422   2.679   6.838
 2263SOL    HW1 7676   0.490   2.687   6.905
 2263SOL    HW2 7677   0.388   2.590   6.850
 2264SOL     OW 7678   0.065   3.442   6.932
 2264SOL    HW1 7679   0.070   3.496   6.853
 2264SOL    HW2 7680   0.156   3.430   6.959
 2265SOL     OW 7681   0.370   2.964   6.069
 2265SOL    HW1 7682   0.365   3.045   6.017
 2265SOL    HW2 7683   0.369   2.894   6.004
 2266SOL     OW 7684   0.550   2.397   6.447
 2266SOL    HW1 7685   0.564   2.454   6.372
 2266SOL    HW2 7686   0.616   2.424   6.511
 2267SOL     OW 7687   1.242   3.222   5.968
 2267SOL    HW1 7688   1.300   3.290   6.002
 2267SOL    HW2 7689   1.156   3.243   6.004
 2268SOL     OW 7690   1.283   3.323   6.736
 2268SOL    HW1 7691   1.338   3.326   6.814
 2268SOL    HW2 7692   1.225   3.249   6.751
 2269SOL     OW 7693   0.345   3.390   6.903
 2269SOL    HW1 7694   0.335   3.339   6.823
 2269SOL    HW2 7695   0.439   3.404   6.911
 2270SOL     OW 7696   0.416   2.601   7.187
 2270SOL    HW1 7697   0.479   2.645   7.131
 2270SOL    HW2 7698   0.456   2.516   7.205
 2271SOL     OW 7699   0.498   1.898   7.331
 2271SOL    HW1 7700   0.453   1.845   7.265
 2271SOL    HW2 7701   0.443   1.976   7.341
 2272SOL     OW 7702   0.585   2.736   6.618
 2272SOL    HW1 7703   0.616   2.826   6.619
 2272SOL    HW2 7704   0.528   2.730   6.696
 2273SOL     OW 7705   0.311   2.058   6.833
 2273SOL    HW1 7706   0.263   2.095   6.907
 2273SOL    HW2 7707   0.287   1.965   6.833
 2274SOL     OW 7708   0.063   3.168   6.865
 2274SOL    HW1 7709   0.092   3.126   6.947
 2274SOL    HW2 7710   0.053   3.260   6.888
 2275SOL     OW 7711   0.722   2.494   6.642
 2275SOL    HW1 7712   0.796   2.479   6.584
 2275SOL    HW2 7713   0.693   2.583   6.622
 2276SOL     OW 7714   0.312   1.924   6.207
 2276SOL    HW1 7715   0.291   2.015   6.229
 2276SOL    HW2 7716   0.320   1.881   6.292
 2277SOL     OW 7717   1.019   2.624   6.547
 2277SOL    HW1 7718   1.020   2.641   6.641
 2277SOL    HW2 7719   0.993   2.532   6.539
 2278SOL     OW 7720   0.987   3.430   7.306
 2278SOL    HW1 7721   0.967   3.471   7.222
 2278SOL    HW2 7722   1.027   3.346   7.283
 2279SOL     OW 7723   1.857   3.365   7.188
 2279SOL    HW1 7724   1.875   3.395   7.099
 2279SOL    HW2 7725   1.937   3.385   7.237
 2280SOL     OW 7726   0.353   2.784   7.386
 2280SOL    HW1 7727   0.431   2.804   7.437
 2280SOL    HW2 7728   0.381   2.717   7.324
 2281SOL     OW 7729   1.527   2.131   5.709
 2281SOL    HW1 7730   1.463   2.063   5.732
 2281SOL    HW2 7731   1.562   2.159   5.793
 2282SOL     OW 7732   1.289   2.687   5.615
 2282SOL    HW1 7733   1.336   2.604   5.620
 2282SOL    HW2 7734   1.319   2.728   5.534
 2283SOL     OW 7735   1.070   3.201   6.444
 2283SOL    HW1 7736   1.066   3.131   6.380
 2283SOL    HW2 7737   1.128   3.267   6.405
 2284SOL     OW 7738   0.313   2.664   6.536
 2284SOL    HW1 7739   0.407   2.681   6.530
 2284SOL    HW2 7740   0.307   2.574   6.568
 2285SOL     OW 7741   0.330   2.382   6.600
 2285SOL    HW1 7742   0.295   2.294   6.584
 2285SOL    HW2 7743   0.406   2.389   6.542
 2286SOL     OW 7744   4.000   3.180   5.768
 2286SOL    HW1 7745   3.906   3.196   5.772
 2286SOL    HW2 7746   0.009   3.086   5.786
 2287SOL     OW 7747   0.075   3.663   6.481
 2287SOL    HW1 7748   0.090   3.568   6.479
 2287SOL    HW2 7749   0.163   3.701   6.479
 2288SOL     OW 7750   0.507   3.425   6.503
 2288SOL    HW1 7751   0.573   3.492   6.522
 2288SOL    HW2 7752   0.549   3.367   6.440
 2289SOL     OW 7753   0.981   2.653   6.814
 2289SOL    HW1 7754   1.037   2.628   6.887
 2289SOL    HW2 7755   0.895   2.617   6.837
 2290SOL     OW 7756   0.038   2.421   6.695
 2290SOL    HW1 7757   0.121   2.396   6.653
 2290SOL    HW2 7758   0.056   2.417   6.789
 2291SOL     OW 7759   0.207   2.375   7.314
 2291SOL    HW1 7760   0.244   2.326   7.241
 2291SOL    HW2 7761   0.159   2.446   7.273
 2292SOL     OW 7762   1.325   2.827   7.249
 2292SOL    HW1 7763   1.372   2.910   7.242
 2292SOL    HW2 7764   1.355   2.776   7.173
 2293SOL     OW 7765   0.820   2.431   5.947
 2293SOL    HW1 7766   0.822   2.354   5.889
 2293SOL    HW2 7767   0.745   2.482   5.916
 2294SOL     OW 7768   0.300   3.407   7.312
 2294SOL    HW1 7769   0.251   3.476   7.357
 2294SOL    HW2 7770   0.269   3.326   7.352
 2295SOL     OW 7771   0.702   2.313   6.844
 2295SOL    HW1 7772   0.650   2.238   6.814
 2295SOL    HW2 7773   0.696   2.376   6.772
 2296SOL     OW 7774   0.930   3.533   7.054
 2296SOL    HW1 7775   0.901   3.495   6.971
 2296SOL    HW2 7776   0.921   3.627   7.042
 2297SOL     OW 7777   0.455   2.351   5.780
 2297SOL    HW1 7778   0.520   2.419   5.799
 2297SOL    HW2 7779   0.376   2.400   5.758
 2298SOL     OW 7780   0.156   2.997   7.061
 2298SOL    HW1 7781   0.156   2.946   7.142
 2298SOL    HW2 7782   0.171   2.932   6.993
 2299SOL     OW 7783   1.321   2.901   6.812
 2299SOL    HW1 7784   1.372   2.872   6.736
 2299SOL    HW2 7785   1.248   2.950   6.775
 2300SOL     OW 7786   1.308   2.710   5.895
 2300SOL    HW1 7787   1.231   2.675   5.940
 2300SOL    HW2 7788   1.285   2.708   5.803
 2301SOL     OW 7789   1.771   3.603   6.736
 2301SOL    HW1 7790   1.834   3.631   6.670
 2301SOL    HW2 7791   1.751   3.512   6.712
 2302SOL     OW 7792   1.244   3.595   6.693
 2302SOL    HW1 7793   1.327   3.616   6.651
 2302SOL    HW2 7794   1.250   3.502   6.715
 2303SOL     OW 7795   0.076   3.077   6.613
 2303SOL    HW1 7796   0.084   3.104   6.705
 2303SOL    HW2 7797   3.984   3.088   6.592
 2304SOL     OW 7798   0.679   3.528   7.319
 2304SOL    HW1 7799   0.621   3.603   7.324
 2304SOL    HW2 7800   0.738   3.547   7.246
 2305SOL     OW 7801   1.391   3.432   6.074
 2305SOL    HW1 7802   1.451   3.465   6.006
 2305SOL    HW2 7803   1.343   3.509   6.103
 2306SOL     OW 7804   0.170   3.623   7.418
 2306SOL    HW1 7805   0.115   3.570   7.476
 2306SOL    HW2 7806   0.217   3.682   7.476
 2307SOL     OW 7807   1.243   2.803   6.244
 2307SOL    HW1 7808   1.312   2.736   6.239
 2307SOL    HW2 7809   1.274   2.873   6.187
 2308SOL     OW 7810   0.810   3.137   7.013
 2308SOL    HW1 7811   0.782   3.177   7.096
 2308SOL    HW2 7812   0.738   3.154   6.952
 2309SOL     OW 7813   0.675   3.479   5.744
 2309SOL    HW1 7814   0.683   3.496   5.650
 2309SOL    HW2 7815   0.616   3.403   5.749
 2310SOL     OW 7816   1.623   3.588   6.976
 2310SOL    HW1 7817   1.674   3.594   6.895
 2310SOL    HW2 7818   1.609   3.679   7.002
 2311SOL     OW 7819   0.266   2.176   6.303
 2311SOL    HW1 7820   0.180   2.208   6.277
 2311SOL    HW2 7821   0.260   2.166   6.398
 2312SOL     OW 7822   1.208   3.466   5.622
 2312SOL    HW1 7823   1.197   3.374   5.645
 2312SOL    HW2 7824   1.147   3.480   5.549
 2313SOL     OW 7825   0.823   2.868   6.959
 2313SOL    HW1 7826   0.867   2.863   6.875
 2313SOL    HW2 7827   0.822   2.961   6.980
 2314SOL     OW 7828   0.914   2.773   5.874
 2314SOL    HW1 7829   0.976   2.805   5.809
 2314SOL    HW2 7830   0.962   2.707   5.923
 2315SOL     OW 7831   1.489   3.491   5.629
 2315SOL    HW1 7832   1.395   3.480   5.612
 2315SOL    HW2 7833   1.528   3.496   5.541
 2316SOL     OW 7834   0.374   3.165   7.077
 2316SOL    HW1 7835   0.359   3.245   7.027
 2316SOL    HW2 7836   0.298   3.111   7.060
 2317SOL     OW 7837   1.607   3.145   6.865
 2317SOL    HW1 7838   1.674   3.140   6.933
 2317SOL    HW2 7839   1.546   3.212   6.896
 2318SOL     OW 7840   1.041   2.979   6.296
 2318SOL    HW1 7841   0.970   2.928   6.335
 2318SOL    HW2 7842   1.104   2.913   6.267
 2319SOL     OW 7843   0.606   3.353   6.067
 2319SOL    HW1 7844   0.651   3.302   5.999
 2319SOL    HW2 7845   0.533   3.395   6.021
 2320SOL     OW 7846   0.253   3.203   5.878
 2320SOL    HW1 7847   0.160   3.211   5.859
 2320SOL    HW2 7848   0.264   3.241   5.965
 2321SOL     OW 7849   0.107   2.860   7.303
 2321SOL    HW1 7850   0.047   2.852   7.377
 2321SOL    HW2 7851   0.194   2.842   7.340
 2322SOL     OW 7852   0.669   2.059   7.084
 2322SOL    HW1 7853   0.755   2.038   7.046
 2322SOL    HW2 7854   0.690   2.091   7.173
 2323SOL     OW 7855   0.081   2.176   5.624
 2323SOL    HW1 7856   3.985   2.176   5.631
 2323SOL    HW2 7857   0.101   2.257   5.577
 2324SOL     OW 7858   1.431   2.731   7.008
 2324SOL    HW1 7859   1.377   2.788   6.953
 2324SOL    HW2 7860   1.515   2.726   6.961
 2325SOL     OW 7861   0.018   2.097   5.962
 2325SOL    HW1 7862   0.046   2.161   5.896
 2325SOL    HW2 7863   0.100   2.058   5.993
 2326SOL     OW 7864   1.177   3.198   5.700
 2326SOL    HW1 7865   1.085   3.171   5.701
 2326SOL    HW2 7866   1.203   3.202   5.792
 2327SOL     OW 7867   0.619   2.693   7.023
 2327SOL    HW1 7868   0.676   2.769   7.007
 2327SOL    HW2 7869   0.679   2.619   7.030
 2328SOL     OW 7870   1.486   3.639   6.566
 2328SOL    HW1 7871   1.507   3.701   6.495
 2328SOL    HW2 7872   1.571   3.622   6.608
 2329SOL     OW 7873   0.719   2.429   7.292
 2329SOL    HW1 7874   0.762   2.494   7.348
 2329SOL    HW2 7875   0.749   2.345   7.326
 2330SOL     OW 7876   1.475   3.062   7.219
 2330SOL    HW1 7877   1.461   3.076   7.313
 2330SOL    HW2 7878   1.565   3.089   7.203
 2331SOL     OW 7879   0.378   3.607   7.145
 2331SOL    HW1 7880   0.290   3.643   7.132
 2331SOL    HW2 7881   0.364   3.525   7.191
 2332SOL     OW 7882   1.647   2.736   6.833
 2332SOL    HW1 7883   1.679   2.659   6.787
 2332SOL    HW2 7884   1.640   2.803   6.765
 2333SOL     OW 7885   0.588   2.599   6.259
 2333SOL    HW1 7886   0.628   2.685   6.243
 2333SOL    HW2 7887   0.523   2.590   6.190
 2334SOL     OW 7888   1.735   2.235   7.214
 2334SOL    HW1 7889   1.768   2.222   7.125
 2334SOL    HW2 7890   1.658   2.178   7.218
 2335SOL     OW 7891   1.773   2.868   7.031
 2335SOL    HW1 7892   1.708   2.927   7.068
 2335SOL    HW2 7893   1.725   2.815   6.968
 2336SOL     OW 7894   0.866   3.229   5.626
 2336SOL    HW1 7895   0.823   3.257   5.706
 2336SOL    HW2 7896   0.879   3.309   5.576
 2337SOL     OW 7897   0.659   3.651   6.521
 2337SOL    HW1 7898   0.637   3.742   6.502
 2337SOL    HW2 7899   0.754   3.648   6.519
 2338SOL     OW 7900   0.864   2.831   6.441
 2338SOL    HW1 7901   0.915   2.759   6.478
 2338SOL    HW2 7902   0.829   2.877   6.517
 2339SOL     OW 7903   1.079   2.851   5.675
 2339SOL    HW1 7904   1.057   2.903   5.597
 2339SOL    HW2 7905   1.153   2.797   5.647
 2340SOL     OW 7906   1.851   3.413   6.427
 2340SOL    HW1 7907   1.772   3.401   6.375
 2340SOL    HW2 7908   1.842   3.350   6.499
 2341SOL     OW 7909   0.227   3.166   7.442
 2341SOL    HW1 7910   0.154   3.110   7.415
 2341SOL    HW2 7911   0.213   3.179   7.536
 2342SOL     OW 7912   0.115   3.140   6.308
 2342SOL    HW1 7913   0.133   3.090   6.387
 2342SOL    HW2 7914   0.105   3.074   6.239
 2343SOL     OW 7915   0.684   3.267   7.217
 2343SOL    HW1 7916   0.603   3.224   7.246
 2343SOL    HW2 7917   0.679   3.355   7.253
 2344SOL     OW 7918   0.440   2.296   6.120
 2344SOL    HW1 7919   0.439   2.226   6.054
 2344SOL    HW2 7920   0.386   2.262   6.191
 2345SOL     OW 7921   1.700   3.347   6.678
 2345SOL    HW1 7922   1.619   3.331   6.631
 2345SOL    HW2 7923   1.702   3.280   6.747
 2346SOL     OW 7924   0.335   2.420   6.878
 2346SOL    HW1 7925   0.388   2.363   6.933
 2346SOL    HW2 7926   0.350   2.388   6.789
 2347SOL     OW 7927   0.829   3.440   6.262
 2347SOL    HW1 7928   0.812   3.496   6.186
 2347SOL    HW2 7929   0.754   3.380   6.266
 2348SOL     OW 7930   0.995   1.856   6.755
 2348SOL    HW1 7931   0.944   1.795   6.702
 2348SOL    HW2 7932   1.081   1.858   6.714
 2349SOL     OW 7933   0.772   3.194   5.905
 2349SOL    HW1 7934   0.742   3.103   5.911
 2349SOL    HW2 7935   0.855   3.195   5.953
 2350SOL     OW 7936   0.621   3.416   6.872
 2350SOL    HW1 7937   0.622   3.497   6.922
 2350SOL    HW2 7938   0.708   3.410   6.834
 2351SOL     OW 7939   1.351   1.925   5.741
 2351SOL    HW1 7940   1.384   1.846   5.698
 2351SOL    HW2 7941   1.272   1.897   5.786
 2352SOL     OW 7942   0.047   2.911   5.826
 2352SOL    HW1 7943   0.141   2.895   5.817
 2352SOL    HW2 7944   0.011   2.828   5.856
 2353SOL     OW 7945   0.886   3.521   5.928
 2353SOL    HW1 7946   0.814   3.502   5.867
 2353SOL    HW2 7947   0.854   3.596   5.979
 2354SOL     OW 7948   0.231   2.489   7.567
 2354SOL    HW1 7949   0.138   2.495   7.588
 2354SOL    HW2 7950   0.233   2.456   7.477
 2355SOL     OW 7951   0.229   2.134   8.435
 2355SOL    HW1 7952   0.250   2.100   8.522
 2355SOL    HW2 7953   0.134   2.126   8.428
 2356SOL     OW 7954   0.009   2.221   8.078
 2356SOL    HW1 7955   3.920   2.239   8.109
 2356SOL    HW2 7956   3.998   2.190   7.988
 2357SOL     OW 7957   0.580   3.151   8.639
 2357SOL    HW1 7958   0.494   3.154   8.597
 2357SOL    HW2 7959   0.594   3.240   8.671
 2358SOL     OW 7960   1.563   3.377   8.159
 2358SOL    HW1 7961   1.521   3.353   8.242
 2358SOL    HW2 7962   1.491   3.378   8.095
 2359SOL     OW 7963   1.125   2.566   8.155
 2359SOL    HW1 7964   1.175   2.646   8.135
 2359SOL    HW2 7965   1.083   2.585   8.239
 2360SOL     OW 7966   0.753   3.001   8.491
 2360SOL    HW1 7967   0.689   3.037   8.553
 2360SOL    HW2 7968   0.789   3.078   8.446
 2361SOL     OW 7969   0.870   2.631   9.271
 2361SOL    HW1 7970   0.860   2.702   9.334
 2361SOL    HW2 7971   0.893   2.675   9.188
 2362SOL     OW 7972   0.685   2.864   8.093
 2362SOL    HW1 7973   0.752   2.852   8.161
 2362SOL    HW2 7974   0.617   2.916   8.135
 2363SOL     OW 7975   0.712   3.011   9.265
 2363SOL    HW1 7976   0.760   3.089   9.293
 2363SOL    HW2 7977   0.631   3.046   9.227
 2364SOL     OW 7978   0.350   3.263   8.526
 2364SOL    HW1 7979   0.269   3.247   8.479
 2364SOL    HW2 7980   0.400   3.322   8.469
 2365SOL     OW 7981   1.460   3.363   8.805
 2365SOL    HW1 7982   1.513   3.442   8.815
 2365SOL    HW2 7983   1.393   3.370   8.874
 2366SOL     OW 7984   0.450   2.261   8.936
 2366SOL    HW1 7985   0.525   2.202   8.939
 2366SOL    HW2 7986   0.374   2.204   8.949
 2367SOL     OW 7987   0.223   3.571   7.914
 2367SOL    HW1 7988   0.223   3.655   7.961
 2367SOL    HW2 7989   0.300   3.575   7.857
 2368SOL     OW 7990   1.137   3.203   9.142
 2368SOL    HW1 7991   1.178   3.197   9.228
 2368SOL    HW2 7992   1.085   3.124   9.134
 2369SOL     OW 7993   0.251   3.306   7.988
 2369SOL    HW1 7994   0.222   3.396   7.974
 2369SOL    HW2 7995   0.181   3.267   8.041
 2370SOL     OW 7996   0.247   2.929   8.332
 2370SOL    HW1 7997   0.267   2.844   8.371
 2370SOL    HW2 7998   0.194   2.974   8.398
 2371SOL     OW 7999   0.611   3.648   8.875
 2371SOL    HW1 8000   0.528   3.634   8.922
 2371SOL    HW2 8001   0.637   3.737   8.900
 2372SOL     OW 8002   0.576   2.848   7.586
 2372SOL    HW1 8003   0.625   2.893   7.517
 2372SOL    HW2 8004   0.618   2.877   7.667
 2373SOL     OW 8005   1.553   2.002   8.887
 2373SOL    HW1 8006   1.574   2.087   8.849
 2373SOL    HW2 8007   1.547   2.019   8.981
 2374SOL     OW 8008   0.142   2.516   8.022
 2374SOL    HW1 8009   0.088   2.437   8.020
 2374SOL    HW2 8010   0.105   2.569   8.092
 2375SOL     OW 8011   1.844   3.609   7.784
 2375SOL    HW1 8012   1.911   3.585   7.848
 2375SOL    HW2 8013   1.863   3.700   7.762
 2376SOL     OW 8014   0.041   3.453   7.588
 2376SOL    HW1 8015   0.035   3.361   7.613
 2376SOL    HW2 8016   3.957   3.490   7.616
 2377SOL     OW 8017   1.703   2.815   8.109
 2377SOL    HW1 8018   1.740   2.730   8.086
 2377SOL    HW2 8019   1.668   2.849   8.026
 2378SOL     OW 8020   1.639   2.970   7.881
 2378SOL    HW1 8021   1.719   2.977   7.829
 2378SOL    HW2 8022   1.651   3.032   7.952
 2379SOL     OW 8023   0.139   2.615   9.038
 2379SOL    HW1 8024   0.235   2.610   9.034
 2379SOL    HW2 8025   0.121   2.704   9.068
 2380SOL     OW 8026   0.616   3.249   8.182
 2380SOL    HW1 8027   0.569   3.166   8.192
 2380SOL    HW2 8028   0.598   3.276   8.092
 2381SOL     OW 8029   1.287   3.099   8.871
 2381SOL    HW1 8030   1.318   3.032   8.810
 2381SOL    HW2 8031   1.346   3.094   8.945
 2382SOL     OW 8032   0.819   1.864   7.963
 2382SOL    HW1 8033   0.859   1.948   7.940
 2382SOL    HW2 8034   0.725   1.883   7.968
 2383SOL     OW 8035   0.184   2.812   8.727
 2383SOL    HW1 8036   0.272   2.777   8.715
 2383SOL    HW2 8037   0.132   2.774   8.656
 2384SOL     OW 8038   1.218   3.666   9.075
 2384SOL    HW1 8039   1.194   3.727   9.005
 2384SOL    HW2 8040   1.219   3.580   9.033
 2385SOL     OW 8041   0.342   2.109   9.265
 2385SOL    HW1 8042   0.378   2.197   9.271
 2385SOL    HW2 8043   0.250   2.119   9.290
 2386SOL     OW 8044   1.466   3.282   8.398
 2386SOL    HW1 8045   1.399   3.297   8.464
 2386SOL    HW2 8046   1.453   3.191   8.371
 2387SOL     OW 8047   1.655   3.602   8.028
 2387SOL    HW1 8048   1.640   3.570   7.939
 2387SOL    HW2 8049   1.631   3.528   8.084
 2388SOL     OW 8050   0.595   2.579   7.713
 2388SOL    HW1 8051   0.601   2.663   7.668
 2388SOL    HW2 8052   0.532   2.594   7.783
 2389SOL     OW 8053   1.282   2.222   8.392
 2389SOL    HW1 8054   1.193   2.187   8.396
 2389SOL    HW2 8055   1.334   2.162   8.445
 2390SOL     OW 8056   1.577   3.537   7.756
 2390SOL    HW1 8057   1.670   3.561   7.751
 2390SOL    HW2 8058   1.551   3.518   7.666
 2391SOL     OW 8059   0.791   2.480   8.899
 2391SOL    HW1 8060   0.764   2.454   8.987
 2391SOL    HW2 8061   0.754   2.412   8.842
 2392SOL     OW 8062   1.393   2.336   9.125
 2392SOL    HW1 8063   1.396   2.381   9.209
 2392SOL    HW2 8064   1.452   2.261   9.136
 2393SOL     OW 8065   0.952   2.748   9.032
 2393SOL    HW1 8066   1.007   2.679   8.995
 2393SOL    HW2 8067   0.904   2.783   8.957
 2394SOL     OW 8068   0.993   2.273   8.685
 2394SOL    HW1 8069   0.904   2.291   8.716
 2394SOL    HW2 8070   0.980   2.232   8.600
 2395SOL     OW 8071   1.024   2.578   7.895
 2395SOL    HW1 8072   1.048   2.565   7.987
 2395SOL    HW2 8073   0.945   2.526   7.883
 2396SOL     OW 8074   0.082   2.691   8.239
 2396SOL    HW1 8075   0.156   2.660   8.290
 2396SOL    HW2 8076   0.101   2.784   8.223
 2397SOL     OW 8077   0.127   3.718   9.026
 2397SOL    HW1 8078   0.135   3.686   9.116
 2397SOL    HW2 8079   0.035   3.705   9.004
 2398SOL     OW 8080   0.877   2.216   7.658
 2398SOL    HW1 8081   0.914   2.281   7.598
 2398SOL    HW2 8082   0.915   2.133   7.630
 2399SOL     OW 8083   1.675   2.448   9.279
 2399SOL    HW1 8084   1.647   2.523   9.227
 2399SOL    HW2 8085   1.710   2.386   9.214
 2400SOL     OW 8086   1.379   3.000   7.983
 2400SOL    HW1 8087   1.462   2.992   7.936
 2400SOL    HW2 8088   1.330   3.066   7.933
 2401SOL     OW 8089   0.544   2.039   8.342
 2401SOL    HW1 8090   0.552   2.073   8.432
 2401SOL    HW2 8091   0.547   2.118   8.287
 2402SOL     OW 8092   1.004   3.307   7.918
 2402SOL    HW1 8093   0.967   3.381   7.870
 2402SOL    HW2 8094   0.984   3.325   8.009
 2403SOL     OW 8095   0.359   3.671   8.310
 2403SOL    HW1 8096   0.438   3.618   8.322
 2403SOL    HW2 8097   0.390   3.761   8.319
 2404SOL     OW 8098   1.807   2.930   8.326
 2404SOL    HW1 8099   1.761   2.900   8.247
 2404SOL    HW2 8100   1.739   2.930   8.394
 2405SOL     OW 8101   1.228   3.399   8.959
 2405SOL    HW1 8102   1.215   3.327   9.021
 2405SOL    HW2 8103   1.160   3.386   8.893
 2406SOL     OW 8104   0.311   2.815   7.690
 2406SOL    HW1 8105   0.394   2.838   7.649
 2406SOL    HW2 8106   0.298   2.723   7.669
 2407SOL     OW 8107   1.461   2.626   8.201
 2407SOL    HW1 8108   1.461   2.562   8.272
 2407SOL    HW2 8109   1.554   2.647   8.188
 2408SOL     OW 8110   0.468   3.122   9.185
 2408SOL    HW1 8111   0.442   3.131   9.093
 2408SOL    HW2 8112   0.386   3.126   9.234
 2409SOL     OW 8113   1.113   3.643   7.669
 2409SOL    HW1 8114   1.049   3.597   7.723
 2409SOL    HW2 8115   1.144   3.577   7.607
 2410SOL     OW 8116   0.204   2.135   8.956
 2410SOL    HW1 8117   0.114   2.168   8.950
 2410SOL    HW2 8118   0.195   2.048   8.994
 2411SOL     OW 8119   1.627   3.242   7.535
 2411SOL    HW1 8120   1.586   3.328   7.519
 2411SOL    HW2 8121   1.557   3.179   7.520
 2412SOL     OW 8122   0.467   3.602   7.769
 2412SOL    HW1 8123   0.506   3.664   7.830
 2412SOL    HW2 8124   0.541   3.573   7.714
 2413SOL     OW 8125   0.253   3.656   8.674
 2413SOL    HW1 8126   0.297   3.590   8.727
 2413SOL    HW2 8127   0.251   3.619   8.586
 2414SOL     OW 8128   0.937   3.563   8.348
 2414SOL    HW1 8129   1.014   3.511   8.370
 2414SOL    HW2 8130   0.894   3.513   8.278
 2415SOL     OW 8131   0.398   2.556   7.919
 2415SOL    HW1 8132   0.424   2.465   7.934
 2415SOL    HW2 8133   0.307   2.560   7.946
 2416SOL     OW 8134   1.529   2.083   9.169
 2416SOL    HW1 8135   1.544   2.102   9.262
 2416SOL    HW2 8136   1.461   2.015   9.169
 2417SOL     OW 8137   0.639   1.977   7.549
 2417SOL    HW1 8138   0.698   1.906   7.573
 2417SOL    HW2 8139   0.592   1.944   7.472
 2418SOL     OW 8140   0.765   2.141   9.203
 2418SOL    HW1 8141   0.844   2.086   9.201
 2418SOL    HW2 8142   0.719   2.112   9.282
 2419SOL     OW 8143   0.876   3.383   8.642
 2419SOL    HW1 8144   0.859   3.346   8.555
 2419SOL    HW2 8145   0.946   3.328   8.678
 2420SOL     OW 8146   1.340   2.451   8.880
 2420SOL    HW1 8147   1.370   2.421   8.966
 2420SOL    HW2 8148   1.376   2.539   8.872
 2421SOL     OW 8149   0.817   3.254   8.390
 2421SOL    HW1 8150   0.902   3.242   8.347
 2421SOL    HW2 8151   0.754   3.256   8.318
 2422SOL     OW 8152   0.928   2.371   8.350
 2422SOL    HW1 8153   0.904   2.364   8.258
 2422SOL    HW2 8154   0.960   2.284   8.374
 2423SOL     OW 8155   0.555   1.924   7.944
 2423SOL    HW1 8156   0.473   1.929   7.992
 2423SOL    HW2 8157   0.559   2.006   7.895
 2424SOL     OW 8158   1.426   3.062   7.492
 2424SOL    HW1 8159   1.436   2.974   7.529
 2424SOL    HW2 8160   1.339   3.090   7.522
 2425SOL     OW 8161   0.309   1.912   7.617
 2425SOL    HW1 8162   0.373   1.952   7.558
 2425SOL    HW2 8163   0.359   1.847   7.667
 2426SOL     OW 8164   0.932   2.108   7.912
 2426SOL    HW1 8165   0.900   2.154   7.834
 2426SOL    HW2 8166   1.026   2.124   7.913
 2427SOL     OW 8167   1.080   2.544   8.907
 2427SOL    HW1 8168   1.013   2.475   8.910
 2427SOL    HW2 8169   1.163   2.496   8.900
 2428SOL     OW 8170   1.222   3.433   8.242
 2428SOL    HW1 8171   1.237   3.500   8.175
 2428SOL    HW2 8172   1.291   3.447   8.307
 2429SOL     OW 8173   0.466   3.013   8.183
 2429SOL    HW1 8174   0.395   2.989   8.242
 2429SOL    HW2 8175   0.432   2.997   8.095
 2430SOL     OW 8176   1.266   3.656   8.056
 2430SOL    HW1 8177   1.313   3.721   8.003
 2430SOL    HW2 8178   1.194   3.705   8.095
 2431SOL     OW 8179   0.985   2.396   7.487
 2431SOL    HW1 8180   0.960   2.485   7.462
 2431SOL    HW2 8181   1.070   2.406   7.531
 2432SOL     OW 8182   0.082   2.434   8.838
 2432SOL    HW1 8183   0.172   2.421   8.808
 2432SOL    HW2 8184   0.089   2.504   8.903
 2433SOL     OW 8185   0.566   2.090   8.614
 2433SOL    HW1 8186   0.608   2.014   8.655
 2433SOL    HW2 8187   0.475   2.086   8.643
 2434SOL     OW 8188   0.865   2.323   8.088
 2434SOL    HW1 8189   0.820   2.373   8.020
 2434SOL    HW2 8190   0.888   2.240   8.046
 2435SOL     OW 8191   0.993   1.928   8.213
 2435SOL    HW1 8192   0.954   1.917   8.126
 2435SOL    HW2 8193   0.978   1.845   8.257
 2436SOL     OW 8194   1.438   3.025   8.306
 2436SOL    HW1 8195   1.369   2.958   8.305
 2436SOL    HW2 8196   1.467   3.030   8.215
 2437SOL     OW 8197   1.456   2.463   8.426
 2437SOL    HW1 8198   1.403   2.384   8.430
 2437SOL    HW2 8199   1.517   2.455   8.500
 2438SOL     OW 8200   0.488   3.281   7.606
 2438SOL    HW1 8201   0.412   3.252   7.657
 2438SOL    HW2 8202   0.470   3.252   7.517
 2439SOL     OW 8203   1.673   3.135   8.087
 2439SOL    HW1 8204   1.767   3.133   8.106
 2439SOL    HW2 8205   1.645   3.222   8.114
 2440SOL     OW 8206   0.569   2.130   7.769
 2440SOL    HW1 8207   0.603   2.082   7.693
 2440SOL    HW2 8208   0.542   2.215   7.734
 2441SOL     OW 8209   1.751   3.104   9.017
 2441SOL    HW1 8210   1.838   3.064   9.013
 2441SOL    HW2 8211   1.767   3.194   9.044
 2442SOL     OW 8212   1.056   3.216   8.781
 2442SOL    HW1 8213   0.981   3.184   8.832
 2442SOL    HW2 8214   1.132   3.174   8.822
 2443SOL     OW 8215   1.610   3.488   9.105
 2443SOL    HW1 8216   1.601   3.522   9.015
 2443SOL    HW2 8217   1.693   3.440   9.104
 2444SOL     OW 8218   1.133   3.070   8.552
 2444SOL    HW1 8219   1.072   3.106   8.616
 2444SOL    HW2 8220   1.101   3.101   8.468
 2445SOL     OW 8221   1.624   2.958   8.527
 2445SOL    HW1 8222   1.618   3.022   8.598
 2445SOL    HW2 8223   1.547   2.976   8.473
 2446SOL     OW 8224   0.918   1.957   8.843
 2446SOL    HW1 8225   0.940   1.939   8.752
 2446SOL    HW2 8226   0.997   1.997   8.879
 2447SOL     OW 8227   0.984   2.977   9.171
 2447SOL    HW1 8228   0.893   2.993   9.193
 2447SOL    HW2 8229   0.982   2.899   9.116
 2448SOL     OW 8230   0.708   2.922   7.818
 2448SOL    HW1 8231   0.696   2.904   7.911
 2448SOL    HW2 8232   0.785   2.870   7.793
 2449SOL     OW 8233   0.422   2.679   8.701
 2449SOL    HW1 8234   0.490   2.687   8.767
 2449SOL    HW2 8235   0.388   2.590   8.712
 2450SOL     OW 8236   1.265   2.237   8.727
 2450SOL    HW1 8237   1.297   2.316   8.771
 2450SOL    HW2 8238   1.174   2.258   8.703
 2451SOL     OW 8239   0.066   3.441   8.794
 2451SOL    HW1 8240   0.071   3.495   8.715
 2451SOL    HW2 8241   0.157   3.430   8.821
 2452SOL     OW 8242   0.369   2.964   7.931
 2452SOL    HW1 8243   0.365   3.044   7.878
 2452SOL    HW2 8244   0.370   2.893   7.867
 2453SOL     OW 8245   0.549   2.398   8.310
 2453SOL    HW1 8246   0.563   2.455   8.234
 2453SOL    HW2 8247   0.618   2.423   8.372
 2454SOL     OW 8248   1.249   3.212   7.836
 2454SOL    HW1 8249   1.304   3.283   7.868
 2454SOL    HW2 8250   1.162   3.231   7.870
 2455SOL     OW 8251   1.284   3.321   8.595
 2455SOL    HW1 8252   1.339   3.324   8.674
 2455SOL    HW2 8253   1.229   3.244   8.607
 2456SOL     OW 8254   1.635   2.578   7.983
 2456SOL    HW1 8255   1.540   2.576   7.995
 2456SOL    HW2 8256   1.652   2.526   7.905
 2457SOL     OW 8257   0.345   3.389   8.766
 2457SOL    HW1 8258   0.335   3.339   8.685
 2457SOL    HW2 8259   0.439   3.404   8.773
 2458SOL     OW 8260   0.416   2.600   9.049
 2458SOL    HW1 8261   0.479   2.646   8.993
 2458SOL    HW2 8262   0.456   2.515   9.066
 2459SOL     OW 8263   1.600   2.652   9.126
 2459SOL    HW1 8264   1.514   2.695   9.118
 2459SOL    HW2 8265   1.653   2.693   9.058
 2460SOL     OW 8266   0.996   1.990   9.202
 2460SOL    HW1 8267   1.054   2.062   9.177
 2460SOL    HW2 8268   1.044   1.911   9.177
 2461SOL     OW 8269   0.497   1.897   9.195
 2461SOL    HW1 8270   0.453   1.845   9.128
 2461SOL    HW2 8271   0.443   1.975   9.204
 2462SOL     OW 8272   0.585   2.736   8.480
 2462SOL    HW1 8273   0.618   2.826   8.480
 2462SOL    HW2 8274   0.529   2.731   8.557
 2463SOL     OW 8275   1.353   2.718   8.482
 2463SOL    HW1 8276   1.274   2.710   8.428
 2463SOL    HW2 8277   1.398   2.634   8.470
 2464SOL     OW 8278   1.140   2.394   7.736
 2464SOL    HW1 8279   1.157   2.322   7.797
 2464SOL    HW2 8280   1.109   2.466   7.792
 2465SOL     OW 8281   0.310   2.058   8.695
 2465SOL    HW1 8282   0.264   2.095   8.771
 2465SOL    HW2 8283   0.287   1.965   8.696
 2466SOL     OW 8284   0.058   3.167   8.729
 2466SOL    HW1 8285   0.091   3.126   8.809
 2466SOL    HW2 8286   0.052   3.260   8.750
 2467SOL     OW 8287   0.725   2.493   8.505
 2467SOL    HW1 8288   0.799   2.477   8.447
 2467SOL    HW2 8289   0.696   2.582   8.483
 2468SOL     OW 8290   1.737   2.821   9.303
 2468SOL    HW1 8291   1.691   2.759   9.246
 2468SOL    HW2 8292   1.676   2.836   9.375
 2469SOL     OW 8293   0.313   1.924   8.068
 2469SOL    HW1 8294   0.293   2.015   8.089
 2469SOL    HW2 8295   0.320   1.881   8.153
 2470SOL     OW 8296   1.024   2.622   8.408
 2470SOL    HW1 8297   1.021   2.639   8.503
 2470SOL    HW2 8298   1.000   2.530   8.399
 2471SOL     OW 8299   0.986   3.430   9.168
 2471SOL    HW1 8300   0.967   3.471   9.084
 2471SOL    HW2 8301   1.028   3.347   9.145
 2472SOL     OW 8302   1.854   3.365   9.052
 2472SOL    HW1 8303   1.873   3.393   8.963
 2472SOL    HW2 8304   1.934   3.383   9.101
 2473SOL     OW 8305   0.353   2.783   9.248
 2473SOL    HW1 8306   0.432   2.805   9.298
 2473SOL    HW2 8307   0.381   2.716   9.186
 2474SOL     OW 8308   1.067   3.199   8.303
 2474SOL    HW1 8309   1.070   3.127   8.240
 2474SOL    HW2 8310   1.127   3.264   8.267
 2475SOL     OW 8311   0.313   2.664   8.398
 2475SOL    HW1 8312   0.407   2.681   8.390
 2475SOL    HW2 8313   0.308   2.574   8.429
 2476SOL     OW 8314   0.329   2.383   8.463
 2476SOL    HW1 8315   0.295   2.295   8.446
 2476SOL    HW2 8316   0.405   2.390   8.406
 2477SOL     OW 8317   1.134   2.236   9.133
 2477SOL    HW1 8318   1.086   2.291   9.194
 2477SOL    HW2 8319   1.221   2.275   9.128
 2478SOL     OW 8320   1.160   2.063   8.919
 2478SOL    HW1 8321   1.149   2.126   8.990
 2478SOL    HW2 8322   1.202   2.113   8.849
 2479SOL     OW 8323   4.000   3.180   7.630
 2479SOL    HW1 8324   3.906   3.196   7.634
 2479SOL    HW2 8325   0.009   3.086   7.648
 2480SOL     OW 8326   0.076   3.663   8.343
 2480SOL    HW1 8327   0.091   3.568   8.341
 2480SOL    HW2 8328   0.164   3.701   8.341
 2481SOL     OW 8329   0.506   3.425   8.365
 2481SOL    HW1 8330   0.573   3.492   8.385
 2481SOL    HW2 8331   0.549   3.367   8.302
 2482SOL     OW 8332   0.978   2.653   8.675
 2482SOL    HW1 8333   1.036   2.631   8.748
 2482SOL    HW2 8334   0.895   2.612   8.698
 2483SOL     OW 8335   0.037   2.420   8.557
 2483SOL    HW1 8336   0.120   2.397   8.514
 2483SOL    HW2 8337   0.058   2.416   8.651
 2484SOL     OW 8338   0.207   2.375   9.175
 2484SOL    HW1 8339   0.246   2.328   9.102
 2484SOL    HW2 8340   0.160   2.448   9.134
 2485SOL     OW 8341   1.373   2.802   9.104
 2485SOL    HW1 8342   1.396   2.895   9.101
 2485SOL    HW2 8343   1.370   2.775   9.012
 2486SOL     OW 8344   0.806   2.431   7.824
 2486SOL    HW1 8345   0.821   2.359   7.762
 2486SOL    HW2 8346   0.737   2.483   7.783
 2487SOL     OW 8347   1.634   2.465   8.635
 2487SOL    HW1 8348   1.624   2.408   8.711
 2487SOL    HW2 8349   1.720   2.441   8.599
 2488SOL     OW 8350   0.300   3.407   9.174
 2488SOL    HW1 8351   0.251   3.477   9.219
 2488SOL    HW2 8352   0.268   3.326   9.214
 2489SOL     OW 8353   0.707   2.311   8.705
 2489SOL    HW1 8354   0.654   2.237   8.676
 2489SOL    HW2 8355   0.702   2.375   8.634
 2490SOL     OW 8356   0.927   3.534   8.918
 2490SOL    HW1 8357   0.901   3.495   8.834
 2490SOL    HW2 8358   0.919   3.628   8.904
 2491SOL     OW 8359   0.454   2.351   7.643
 2491SOL    HW1 8360   0.520   2.418   7.660
 2491SOL    HW2 8361   0.375   2.400   7.621
 2492SOL     OW 8362   0.156   2.997   8.923
 2492SOL    HW1 8363   0.156   2.946   9.004
 2492SOL    HW2 8364   0.171   2.932   8.854
 2493SOL     OW 8365   1.323   2.908   8.671
 2493SOL    HW1 8366   1.344   2.842   8.604
 2493SOL    HW2 8367   1.256   2.963   8.630
 2494SOL     OW 8368   1.772   3.602   8.599
 2494SOL    HW1 8369   1.834   3.630   8.532
 2494SOL    HW2 8370   1.750   3.512   8.575
 2495SOL     OW 8371   1.244   3.595   8.557
 2495SOL    HW1 8372   1.327   3.616   8.514
 2495SOL    HW2 8373   1.250   3.501   8.577
 2496SOL     OW 8374   0.076   3.076   8.477
 2496SOL    HW1 8375   0.082   3.104   8.568
 2496SOL    HW2 8376   3.984   3.087   8.454
 2497SOL     OW 8377   0.679   3.527   9.181
 2497SOL    HW1 8378   0.621   3.603   9.185
 2497SOL    HW2 8379   0.739   3.546   9.109
 2498SOL     OW 8380   1.391   3.431   7.935
 2498SOL    HW1 8381   1.450   3.465   7.868
 2498SOL    HW2 8382   1.342   3.508   7.965
 2499SOL     OW 8383   0.170   3.623   9.280
 2499SOL    HW1 8384   0.115   3.570   9.338
 2499SOL    HW2 8385   0.217   3.682   9.338
 2500SOL     OW 8386   1.269   2.797   8.123
 2500SOL    HW1 8387   1.342   2.740   8.146
 2500SOL    HW2 8388   1.308   2.864   8.067
 2501SOL     OW 8389   0.810   3.136   8.876
 2501SOL    HW1 8390   0.781   3.177   8.958
 2501SOL    HW2 8391   0.739   3.154   8.814
 2502SOL     OW 8392   0.675   3.479   7.606
 2502SOL    HW1 8393   0.683   3.496   7.512
 2502SOL    HW2 8394   0.616   3.404   7.611
 2503SOL     OW 8395   1.622   3.588   8.838
 2503SOL    HW1 8396   1.674   3.593   8.757
 2503SOL    HW2 8397   1.609   3.680   8.863
 2504SOL     OW 8398   0.266   2.174   8.164
 2504SOL    HW1 8399   0.180   2.207   8.138
 2504SOL    HW2 8400   0.261   2.165   8.259
 2505SOL     OW 8401   1.208   3.465   7.484
 2505SOL    HW1 8402   1.197   3.373   7.507
 2505SOL    HW2 8403   1.147   3.479   7.412
 2506SOL     OW 8404   0.823   2.867   8.822
 2506SOL    HW1 8405   0.868   2.861   8.738
 2506SOL    HW2 8406   0.822   2.961   8.842
 2507SOL     OW 8407   0.918   2.777   7.731
 2507SOL    HW1 8408   0.985   2.806   7.668
 2507SOL    HW2 8409   0.962   2.712   7.785
 2508SOL     OW 8410   1.490   3.489   7.490
 2508SOL    HW1 8411   1.396   3.480   7.475
 2508SOL    HW2 8412   1.528   3.495   7.403
 2509SOL     OW 8413   0.374   3.165   8.940
 2509SOL    HW1 8414   0.359   3.245   8.889
 2509SOL    HW2 8415   0.297   3.111   8.922
 2510SOL     OW 8416   1.610   3.146   8.729
 2510SOL    HW1 8417   1.669   3.133   8.803
 2510SOL    HW2 8418   1.549   3.214   8.758
 2511SOL     OW 8419   1.052   2.973   8.155
 2511SOL    HW1 8420   0.982   2.920   8.193
 2511SOL    HW2 8421   1.118   2.908   8.129
 2512SOL     OW 8422   1.024   2.107   8.420
 2512SOL    HW1 8423   1.014   2.061   8.336
 2512SOL    HW2 8424   1.018   2.038   8.486
 2513SOL     OW 8425   0.606   3.353   7.928
 2513SOL    HW1 8426   0.651   3.302   7.861
 2513SOL    HW2 8427   0.533   3.394   7.882
 2514SOL     OW 8428   1.731   2.244   8.820
 2514SOL    HW1 8429   1.799   2.311   8.824
 2514SOL    HW2 8430   1.770   2.173   8.768
 2515SOL     OW 8431   0.254   3.203   7.740
 2515SOL    HW1 8432   0.160   3.211   7.721
 2515SOL    HW2 8433   0.264   3.241   7.827
 2516SOL     OW 8434   0.107   2.860   9.165
 2516SOL    HW1 8435   0.047   2.853   9.239
 2516SOL    HW2 8436   0.194   2.842   9.202
 2517SOL     OW 8437   0.675   2.058   8.948
 2517SOL    HW1 8438   0.759   2.037   8.907
 2517SOL    HW2 8439   0.699   2.091   9.035
 2518SOL     OW 8440   0.080   2.175   7.484
 2518SOL    HW1 8441   3.984   2.176   7.492
 2518SOL    HW2 8442   0.101   2.256   7.438
 2519SOL     OW 8443   1.428   2.720   8.847
 2519SOL    HW1 8444   1.379   2.781   8.791
 2519SOL    HW2 8445   1.517   2.722   8.812
 2520SOL     OW 8446   0.016   2.098   7.826
 2520SOL    HW1 8447   0.043   2.162   7.759
 2520SOL    HW2 8448   0.098   2.058   7.854
 2521SOL     OW 8449   1.180   3.197   7.564
 2521SOL    HW1 8450   1.088   3.171   7.565
 2521SOL    HW2 8451   1.205   3.198   7.656
 2522SOL     OW 8452   0.620   2.692   8.885
 2522SOL    HW1 8453   0.676   2.768   8.869
 2522SOL    HW2 8454   0.680   2.618   8.892
 2523SOL     OW 8455   1.486   3.641   8.429
 2523SOL    HW1 8456   1.508   3.700   8.357
 2523SOL    HW2 8457   1.570   3.619   8.469
 2524SOL     OW 8458   0.716   2.424   9.152
 2524SOL    HW1 8459   0.761   2.486   9.210
 2524SOL    HW2 8460   0.741   2.338   9.184
 2525SOL     OW 8461   1.473   3.060   9.078
 2525SOL    HW1 8462   1.461   3.074   9.172
 2525SOL    HW2 8463   1.566   3.077   9.063
 2526SOL     OW 8464   0.378   3.608   9.007
 2526SOL    HW1 8465   0.290   3.643   8.994
 2526SOL    HW2 8466   0.364   3.525   9.053
 2527SOL     OW 8467   1.669   2.743   8.702
 2527SOL    HW1 8468   1.658   2.657   8.659
 2527SOL    HW2 8469   1.656   2.806   8.631
 2528SOL     OW 8470   1.195   2.181   7.905
 2528SOL    HW1 8471   1.276   2.141   7.875
 2528SOL    HW2 8472   1.217   2.223   7.988
 2529SOL     OW 8473   0.586   2.601   8.123
 2529SOL    HW1 8474   0.627   2.685   8.105
 2529SOL    HW2 8475   0.522   2.591   8.052
 2530SOL     OW 8476   1.740   2.240   9.095
 2530SOL    HW1 8477   1.740   2.245   8.999
 2530SOL    HW2 8478   1.672   2.177   9.116
 2531SOL     OW 8479   1.747   2.800   8.956
 2531SOL    HW1 8480   1.740   2.895   8.968
 2531SOL    HW2 8481   1.731   2.785   8.863
 2532SOL     OW 8482   0.867   3.229   7.489
 2532SOL    HW1 8483   0.824   3.256   7.570
 2532SOL    HW2 8484   0.878   3.310   7.440
 2533SOL     OW 8485   0.659   3.651   8.383
 2533SOL    HW1 8486   0.637   3.742   8.364
 2533SOL    HW2 8487   0.754   3.647   8.381
 2534SOL     OW 8488   0.867   2.831   8.302
 2534SOL    HW1 8489   0.917   2.758   8.339
 2534SOL    HW2 8490   0.832   2.877   8.377
 2535SOL     OW 8491   1.084   2.861   7.523
 2535SOL    HW1 8492   1.045   2.917   7.457
 2535SOL    HW2 8493   1.152   2.812   7.476
 2536SOL     OW 8494   1.850   3.413   8.290
 2536SOL    HW1 8495   1.769   3.403   8.240
 2536SOL    HW2 8496   1.842   3.350   8.362
 2537SOL     OW 8497   0.226   3.166   9.304
 2537SOL    HW1 8498   0.153   3.111   9.277
 2537SOL    HW2 8499   0.214   3.179   9.398
 2538SOL     OW 8500   0.116   3.140   8.170
 2538SOL    HW1 8501   0.135   3.089   8.248
 2538SOL    HW2 8502   0.104   3.075   8.101
 2539SOL     OW 8503   0.683   3.266   9.079
 2539SOL    HW1 8504   0.602   3.225   9.108
 2539SOL    HW2 8505   0.679   3.355   9.115
 2540SOL     OW 8506   0.440   2.297   7.981
 2540SOL    HW1 8507   0.449   2.226   7.918
 2540SOL    HW2 8508   0.385   2.261   8.050
 2541SOL     OW 8509   1.700   3.348   8.539
 2541SOL    HW1 8510   1.619   3.327   8.493
 2541SOL    HW2 8511   1.708   3.280   8.606
 2542SOL     OW 8512   0.334   2.419   8.740
 2542SOL    HW1 8513   0.389   2.362   8.794
 2542SOL    HW2 8514   0.349   2.388   8.650
 2543SOL     OW 8515   0.828   3.441   8.124
 2543SOL    HW1 8516   0.811   3.494   8.047
 2543SOL    HW2 8517   0.754   3.380   8.128
 2544SOL     OW 8518   1.437   2.085   8.578
 2544SOL    HW1 8519   1.440   1.999   8.620
 2544SOL    HW2 8520   1.382   2.138   8.636
 2545SOL     OW 8521   1.009   1.879   8.589
 2545SOL    HW1 8522   0.955   1.814   8.544
 2545SOL    HW2 8523   1.097   1.841   8.589
 2546SOL     OW 8524   0.772   3.194   7.767
 2546SOL    HW1 8525   0.743   3.103   7.773
 2546SOL    HW2 8526   0.855   3.195   7.815
 2547SOL     OW 8527   0.621   3.416   8.734
 2547SOL    HW1 8528   0.622   3.498   8.784
 2547SOL    HW2 8529   0.708   3.410   8.696
 2548SOL     OW 8530   1.241   2.315   8.134
 2548SOL    HW1 8531   1.200   2.401   8.143
 2548SOL    HW2 8532   1.260   2.288   8.224
 2549SOL     OW 8533   1.565   2.059   8.336
 2549SOL    HW1 8534   1.529   2.074   8.423
 2549SOL    HW2 8535   1.575   2.146   8.298
 2550SOL     OW 8536   0.047   2.911   7.688
 2550SOL    HW1 8537   0.141   2.895   7.679
 2550SOL    HW2 8538   0.011   2.827   7.717
 2551SOL     OW 8539   0.886   3.521   7.791
 2551SOL    HW1 8540   0.815   3.501   7.730
 2551SOL    HW2 8541   0.855   3.596   7.841
 2552SOL     OW 8542   0.231   2.486   9.429
 2552SOL    HW1 8543   0.138   2.494   9.450
 2552SOL    HW2 8544   0.233   2.455   9.339
 2553SOL     OW 8545   0.229   2.134  10.297
 2553SOL    HW1 8546   0.250   2.100  10.384
 2553SOL    HW2 8547   0.134   2.126  10.290
 2554SOL     OW 8548   0.009   2.221   9.940
 2554SOL    HW1 8549   3.920   2.239   9.971
 2554SOL    HW2 8550   3.997   2.190   9.850
 2555SOL     OW 8551   0.580   3.151  10.500
 2555SOL    HW1 8552   0.494   3.154  10.459
 2555SOL    HW2 8553   0.594   3.240  10.533
 2556SOL     OW 8554   1.564   3.373  10.018
 2556SOL    HW1 8555   1.521   3.351  10.102
 2556SOL    HW2 8556   1.492   3.376   9.955
 2557SOL     OW 8557   1.132   2.560  10.008
 2557SOL    HW1 8558   1.180   2.641   9.995
 2557SOL    HW2 8559   1.085   2.573  10.091
 2558SOL     OW 8560   1.768   2.471   9.536
 2558SOL    HW1 8561   1.742   2.467   9.444
 2558SOL    HW2 8562   1.749   2.384   9.571
 2559SOL     OW 8563   0.753   3.001  10.352
 2559SOL    HW1 8564   0.689   3.037  10.414
 2559SOL    HW2 8565   0.789   3.078  10.308
 2560SOL     OW 8566   0.870   2.631  11.133
 2560SOL    HW1 8567   0.861   2.702  11.196
 2560SOL    HW2 8568   0.893   2.675  11.051
 2561SOL     OW 8569   0.685   2.863   9.956
 2561SOL    HW1 8570   0.751   2.853  10.024
 2561SOL    HW2 8571   0.616   2.916   9.997
 2562SOL     OW 8572   0.712   3.011  11.126
 2562SOL    HW1 8573   0.760   3.089  11.155
 2562SOL    HW2 8574   0.631   3.046  11.089
 2563SOL     OW 8575   0.351   3.263  10.388
 2563SOL    HW1 8576   0.269   3.248  10.341
 2563SOL    HW2 8577   0.400   3.322  10.331
 2564SOL     OW 8578   1.460   3.363  10.667
 2564SOL    HW1 8579   1.513   3.441  10.677
 2564SOL    HW2 8580   1.393   3.370  10.735
 2565SOL     OW 8581   0.450   2.261  10.797
 2565SOL    HW1 8582   0.525   2.201  10.801
 2565SOL    HW2 8583   0.374   2.204  10.811
 2566SOL     OW 8584   1.603   2.304  10.045
 2566SOL    HW1 8585   1.523   2.324   9.998
 2566SOL    HW2 8586   1.621   2.382  10.097
 2567SOL     OW 8587   0.223   3.571   9.776
 2567SOL    HW1 8588   0.223   3.655   9.823
 2567SOL    HW2 8589   0.300   3.576   9.719
 2568SOL     OW 8590   1.137   3.203  11.004
 2568SOL    HW1 8591   1.178   3.197  11.090
 2568SOL    HW2 8592   1.085   3.124  10.996
 2569SOL     OW 8593   0.250   3.306   9.850
 2569SOL    HW1 8594   0.222   3.396   9.836
 2569SOL    HW2 8595   0.181   3.267   9.903
 2570SOL     OW 8596   0.247   2.929  10.194
 2570SOL    HW1 8597   0.267   2.844  10.233
 2570SOL    HW2 8598   0.194   2.974  10.259
 2571SOL     OW 8599   0.611   3.648  10.737
 2571SOL    HW1 8600   0.528   3.634  10.784
 2571SOL    HW2 8601   0.637   3.737  10.762
 2572SOL     OW 8602   0.577   2.848   9.448
 2572SOL    HW1 8603   0.625   2.893   9.379
 2572SOL    HW2 8604   0.618   2.877   9.529
 2573SOL     OW 8605   1.553   2.002  10.751
 2573SOL    HW1 8606   1.572   2.088  10.713
 2573SOL    HW2 8607   1.547   2.019  10.845
 2574SOL     OW 8608   0.143   2.515   9.884
 2574SOL    HW1 8609   0.087   2.437   9.883
 2574SOL    HW2 8610   0.106   2.569   9.954
 2575SOL     OW 8611   1.843   3.609   9.647
 2575SOL    HW1 8612   1.911   3.585   9.710
 2575SOL    HW2 8613   1.862   3.700   9.624
 2576SOL     OW 8614   0.041   3.453   9.450
 2576SOL    HW1 8615   0.034   3.361   9.475
 2576SOL    HW2 8616   3.958   3.491   9.478
 2577SOL     OW 8617   1.689   2.781   9.952
 2577SOL    HW1 8618   1.770   2.736   9.926
 2577SOL    HW2 8619   1.665   2.833   9.875
 2578SOL     OW 8620   1.647   2.967   9.739
 2578SOL    HW1 8621   1.733   2.970   9.698
 2578SOL    HW2 8622   1.653   3.030   9.812
 2579SOL     OW 8623   0.139   2.615  10.899
 2579SOL    HW1 8624   0.235   2.610  10.896
 2579SOL    HW2 8625   0.121   2.703  10.931
 2580SOL     OW 8626   0.616   3.248  10.044
 2580SOL    HW1 8627   0.568   3.166  10.054
 2580SOL    HW2 8628   0.598   3.276   9.954
 2581SOL     OW 8629   1.287   3.099  10.732
 2581SOL    HW1 8630   1.319   3.031  10.672
 2581SOL    HW2 8631   1.346   3.094  10.807
 2582SOL     OW 8632   0.820   1.863   9.822
 2582SOL    HW1 8633   0.860   1.947   9.800
 2582SOL    HW2 8634   0.726   1.881   9.827
 2583SOL     OW 8635   0.184   2.812  10.589
 2583SOL    HW1 8636   0.272   2.777  10.577
 2583SOL    HW2 8637   0.132   2.774  10.519
 2584SOL     OW 8638   1.531   2.858   9.509
 2584SOL    HW1 8639   1.462   2.801   9.541
 2584SOL    HW2 8640   1.573   2.892   9.589
 2585SOL     OW 8641   1.218   3.666  10.937
 2585SOL    HW1 8642   1.194   3.727  10.867
 2585SOL    HW2 8643   1.219   3.580  10.895
 2586SOL     OW 8644   0.342   2.109  11.127
 2586SOL    HW1 8645   0.378   2.197  11.134
 2586SOL    HW2 8646   0.250   2.119  11.151
 2587SOL     OW 8647   1.466   3.281  10.260
 2587SOL    HW1 8648   1.399   3.297  10.326
 2587SOL    HW2 8649   1.453   3.190  10.233
 2588SOL     OW 8650   1.654   3.602   9.891
 2588SOL    HW1 8651   1.640   3.571   9.801
 2588SOL    HW2 8652   1.631   3.527   9.946
 2589SOL     OW 8653   0.596   2.578   9.576
 2589SOL    HW1 8654   0.602   2.662   9.531
 2589SOL    HW2 8655   0.533   2.593   9.646
 2590SOL     OW 8656   1.280   2.221  10.245
 2590SOL    HW1 8657   1.191   2.186  10.254
 2590SOL    HW2 8658   1.334   2.165  10.301
 2591SOL     OW 8659   1.577   3.537   9.619
 2591SOL    HW1 8660   1.669   3.561   9.613
 2591SOL    HW2 8661   1.551   3.518   9.528
 2592SOL     OW 8662   0.791   2.480  10.760
 2592SOL    HW1 8663   0.765   2.455  10.849
 2592SOL    HW2 8664   0.754   2.412  10.704
 2593SOL     OW 8665   1.393   2.336  10.987
 2593SOL    HW1 8666   1.396   2.381  11.071
 2593SOL    HW2 8667   1.451   2.261  10.999
 2594SOL     OW 8668   0.952   2.748  10.894
 2594SOL    HW1 8669   1.007   2.679  10.857
 2594SOL    HW2 8670   0.904   2.783  10.819
 2595SOL     OW 8671   0.993   2.274  10.547
 2595SOL    HW1 8672   0.905   2.293  10.580
 2595SOL    HW2 8673   0.977   2.229  10.463
 2596SOL     OW 8674   1.053   2.560   9.735
 2596SOL    HW1 8675   1.069   2.553   9.829
 2596SOL    HW2 8676   0.970   2.514   9.722
 2597SOL     OW 8677   0.082   2.691  10.100
 2597SOL    HW1 8678   0.156   2.660  10.152
 2597SOL    HW2 8679   0.100   2.784  10.085
 2598SOL     OW 8680   0.127   3.718  10.888
 2598SOL    HW1 8681   0.135   3.686  10.978
 2598SOL    HW2 8682   0.035   3.705  10.866
 2599SOL     OW 8683   0.897   2.212   9.503
 2599SOL    HW1 8684   0.936   2.275   9.443
 2599SOL    HW2 8685   0.913   2.127   9.463
 2600SOL     OW 8686   1.671   2.449  11.142
 2600SOL    HW1 8687   1.644   2.524  11.089
 2600SOL    HW2 8688   1.711   2.389  11.079
 2601SOL     OW 8689   1.379   3.004   9.851
 2601SOL    HW1 8690   1.457   2.992   9.798
 2601SOL    HW2 8691   1.325   3.066   9.801
 2602SOL     OW 8692   0.546   2.040  10.204
 2602SOL    HW1 8693   0.553   2.072  10.294
 2602SOL    HW2 8694   0.546   2.119  10.150
 2603SOL     OW 8695   1.004   3.307   9.780
 2603SOL    HW1 8696   0.967   3.381   9.731
 2603SOL    HW2 8697   0.983   3.326   9.872
 2604SOL     OW 8698   0.359   3.671  10.172
 2604SOL    HW1 8699   0.438   3.618  10.184
 2604SOL    HW2 8700   0.389   3.761  10.181
 2605SOL     OW 8701   1.800   2.913  10.179
 2605SOL    HW1 8702   1.747   2.896  10.102
 2605SOL    HW2 8703   1.737   2.922  10.251
 2606SOL     OW 8704   1.228   3.399  10.821
 2606SOL    HW1 8705   1.215   3.327  10.883
 2606SOL    HW2 8706   1.159   3.387  10.755
 2607SOL     OW 8707   0.311   2.816   9.552
 2607SOL    HW1 8708   0.394   2.839   9.511
 2607SOL    HW2 8709   0.298   2.723   9.530
 2608SOL     OW 8710   1.480   2.608  10.034
 2608SOL    HW1 8711   1.474   2.566  10.120
 2608SOL    HW2 8712   1.559   2.663  10.041
 2609SOL     OW 8713   0.468   3.122  11.047
 2609SOL    HW1 8714   0.442   3.130  10.955
 2609SOL    HW2 8715   0.386   3.126  11.095
 2610SOL     OW 8716   1.113   3.643   9.532
 2610SOL    HW1 8717   1.049   3.597   9.585
 2610SOL    HW2 8718   1.144   3.577   9.469
 2611SOL     OW 8719   0.204   2.135  10.818
 2611SOL    HW1 8720   0.114   2.168  10.812
 2611SOL    HW2 8721   0.195   2.048  10.857
 2612SOL     OW 8722   1.628   3.243   9.401
 2612SOL    HW1 8723   1.587   3.328   9.383
 2612SOL    HW2 8724   1.559   3.179   9.380
 2613SOL     OW 8725   0.468   3.601   9.631
 2613SOL    HW1 8726   0.506   3.664   9.692
 2613SOL    HW2 8727   0.541   3.573   9.576
 2614SOL     OW 8728   1.397   1.969   9.745
 2614SOL    HW1 8729   1.384   1.946   9.652
 2614SOL    HW2 8730   1.484   1.934   9.765
 2615SOL     OW 8731   0.253   3.656  10.536
 2615SOL    HW1 8732   0.297   3.590  10.589
 2615SOL    HW2 8733   0.251   3.619  10.448
 2616SOL     OW 8734   0.938   3.563  10.210
 2616SOL    HW1 8735   1.015   3.511  10.232
 2616SOL    HW2 8736   0.894   3.513  10.140
 2617SOL     OW 8737   0.399   2.555   9.781
 2617SOL    HW1 8738   0.424   2.464   9.796
 2617SOL    HW2 8739   0.307   2.559   9.808
 2618SOL     OW 8740   1.528   2.083  11.031
 2618SOL    HW1 8741   1.543   2.103  11.124
 2618SOL    HW2 8742   1.462   2.014  11.032
 2619SOL     OW 8743   0.643   1.980   9.407
 2619SOL    HW1 8744   0.704   1.909   9.427
 2619SOL    HW2 8745   0.593   1.949   9.332
 2620SOL     OW 8746   0.765   2.141  11.065
 2620SOL    HW1 8747   0.844   2.086  11.063
 2620SOL    HW2 8748   0.719   2.112  11.144
 2621SOL     OW 8749   0.876   3.383  10.504
 2621SOL    HW1 8750   0.859   3.346  10.417
 2621SOL    HW2 8751   0.946   3.328  10.540
 2622SOL     OW 8752   1.341   2.451  10.742
 2622SOL    HW1 8753   1.370   2.420  10.828
 2622SOL    HW2 8754   1.376   2.540  10.735
 2623SOL     OW 8755   0.817   3.254  10.252
 2623SOL    HW1 8756   0.902   3.242  10.209
 2623SOL    HW2 8757   0.754   3.256  10.180
 2624SOL     OW 8758   0.929   2.371  10.212
 2624SOL    HW1 8759   0.905   2.363  10.119
 2624SOL    HW2 8760   0.959   2.284  10.237
 2625SOL     OW 8761   0.556   1.924   9.805
 2625SOL    HW1 8762   0.474   1.929   9.854
 2625SOL    HW2 8763   0.560   2.007   9.756
 2626SOL     OW 8764   1.428   3.061   9.350
 2626SOL    HW1 8765   1.458   2.986   9.401
 2626SOL    HW2 8766   1.342   3.082   9.387
 2627SOL     OW 8767   0.308   1.913   9.480
 2627SOL    HW1 8768   0.371   1.951   9.419
 2627SOL    HW2 8769   0.358   1.848   9.529
 2628SOL     OW 8770   0.940   2.109   9.769
 2628SOL    HW1 8771   0.912   2.149   9.687
 2628SOL    HW2 8772   1.034   2.126   9.772
 2629SOL     OW 8773   1.080   2.544  10.768
 2629SOL    HW1 8774   1.013   2.476  10.773
 2629SOL    HW2 8775   1.163   2.496  10.762
 2630SOL     OW 8776   1.222   3.433  10.104
 2630SOL    HW1 8777   1.236   3.500  10.037
 2630SOL    HW2 8778   1.290   3.448  10.169
 2631SOL     OW 8779   0.467   3.013  10.045
 2631SOL    HW1 8780   0.395   2.989  10.104
 2631SOL    HW2 8781   0.431   2.997   9.957
 2632SOL     OW 8782   1.266   3.656   9.918
 2632SOL    HW1 8783   1.313   3.721   9.865
 2632SOL    HW2 8784   1.193   3.705   9.957
 2633SOL     OW 8785   1.023   2.401   9.335
 2633SOL    HW1 8786   0.980   2.484   9.315
 2633SOL    HW2 8787   1.089   2.423   9.400
 2634SOL     OW 8788   0.082   2.434  10.700
 2634SOL    HW1 8789   0.172   2.421  10.670
 2634SOL    HW2 8790   0.089   2.504  10.765
 2635SOL     OW 8791   0.567   2.089  10.476
 2635SOL    HW1 8792   0.608   2.014  10.518
 2635SOL    HW2 8793   0.475   2.086  10.505
 2636SOL     OW 8794   0.867   2.320   9.950
 2636SOL    HW1 8795   0.820   2.374   9.886
 2636SOL    HW2 8796   0.888   2.240   9.902
 2637SOL     OW 8797   1.015   1.917  10.060
 2637SOL    HW1 8798   0.958   1.910   9.984
 2637SOL    HW2 8799   0.993   1.841  10.114
 2638SOL     OW 8800   1.438   3.023  10.167
 2638SOL    HW1 8801   1.367   2.959  10.167
 2638SOL    HW2 8802   1.462   3.033  10.074
 2639SOL     OW 8803   1.464   2.469  10.282
 2639SOL    HW1 8804   1.410   2.390  10.284
 2639SOL    HW2 8805   1.520   2.462  10.358
 2640SOL     OW 8806   1.845   2.676   9.697
 2640SOL    HW1 8807   1.904   2.625   9.752
 2640SOL    HW2 8808   1.816   2.615   9.629
 2641SOL     OW 8809   0.488   3.281   9.469
 2641SOL    HW1 8810   0.412   3.251   9.519
 2641SOL    HW2 8811   0.471   3.252   9.379
 2642SOL     OW 8812   1.673   3.126   9.954
 2642SOL    HW1 8813   1.768   3.128   9.968
 2642SOL    HW2 8814   1.644   3.214   9.976
 2643SOL     OW 8815   1.390   2.436   9.378
 2643SOL    HW1 8816   1.335   2.413   9.453
 2643SOL    HW2 8817   1.479   2.416   9.407
 2644SOL     OW 8818   0.574   2.130   9.628
 2644SOL    HW1 8819   0.605   2.083   9.551
 2644SOL    HW2 8820   0.542   2.214   9.594
 2645SOL     OW 8821   1.751   3.104  10.878
 2645SOL    HW1 8822   1.838   3.065  10.875
 2645SOL    HW2 8823   1.766   3.194  10.906
 2646SOL     OW 8824   1.056   3.214  10.642
 2646SOL    HW1 8825   0.981   3.184  10.693
 2646SOL    HW2 8826   1.132   3.174  10.684
 2647SOL     OW 8827   1.610   3.488  10.966
 2647SOL    HW1 8828   1.601   3.522  10.877
 2647SOL    HW2 8829   1.693   3.440  10.966
 2648SOL     OW 8830   1.132   3.068  10.414
 2648SOL    HW1 8831   1.073   3.105  10.479
 2648SOL    HW2 8832   1.100   3.101  10.330
 2649SOL     OW 8833   1.626   2.960  10.386
 2649SOL    HW1 8834   1.621   3.022  10.458
 2649SOL    HW2 8835   1.548   2.978  10.333
 2650SOL     OW 8836   0.918   1.957  10.704
 2650SOL    HW1 8837   0.941   1.939  10.613
 2650SOL    HW2 8838   0.997   1.997  10.741
 2651SOL     OW 8839   0.984   2.977  11.033
 2651SOL    HW1 8840   0.893   2.993  11.055
 2651SOL    HW2 8841   0.982   2.899  10.978
 2652SOL     OW 8842   0.708   2.922   9.681
 2652SOL    HW1 8843   0.694   2.905   9.774
 2652SOL    HW2 8844   0.784   2.870   9.657
 2653SOL     OW 8845   0.422   2.679  10.562
 2653SOL    HW1 8846   0.490   2.687  10.629
 2653SOL    HW2 8847   0.388   2.590  10.574
 2654SOL     OW 8848   1.264   2.238  10.588
 2654SOL    HW1 8849   1.296   2.316  10.633
 2654SOL    HW2 8850   1.174   2.259  10.566
 2655SOL     OW 8851   0.065   3.441  10.656
 2655SOL    HW1 8852   0.071   3.496  10.577
 2655SOL    HW2 8853   0.157   3.430  10.683
 2656SOL     OW 8854   0.369   2.964   9.793
 2656SOL    HW1 8855   0.365   3.045   9.741
 2656SOL    HW2 8856   0.369   2.894   9.728
 2657SOL     OW 8857   0.549   2.398  10.171
 2657SOL    HW1 8858   0.564   2.455  10.096
 2657SOL    HW2 8859   0.617   2.424  10.234
 2658SOL     OW 8860   1.248   3.211   9.700
 2658SOL    HW1 8861   1.304   3.282   9.731
 2658SOL    HW2 8862   1.161   3.233   9.733
 2659SOL     OW 8863   1.285   3.321  10.458
 2659SOL    HW1 8864   1.340   3.325  10.536
 2659SOL    HW2 8865   1.229   3.245  10.472
 2660SOL     OW 8866   1.576   2.485   9.785
 2660SOL    HW1 8867   1.531   2.537   9.853
 2660SOL    HW2 8868   1.623   2.550   9.733
 2661SOL     OW 8869   0.345   3.389  10.628
 2661SOL    HW1 8870   0.335   3.339  10.547
 2661SOL    HW2 8871   0.439   3.404  10.635
 2662SOL     OW 8872   0.416   2.600  10.911
 2662SOL    HW1 8873   0.479   2.646  10.855
 2662SOL    HW2 8874   0.456   2.515  10.928
 2663SOL     OW 8875   1.599   2.652  10.987
 2663SOL    HW1 8876   1.514   2.695  10.980
 2663SOL    HW2 8877   1.653   2.694  10.920
 2664SOL     OW 8878   0.996   1.990  11.063
 2664SOL    HW1 8879   1.054   2.062  11.039
 2664SOL    HW2 8880   1.044   1.911  11.039
 2665SOL     OW 8881   0.497   1.897  11.056
 2665SOL    HW1 8882   0.453   1.845  10.990
 2665SOL    HW2 8883   0.443   1.975  11.065
 2666SOL     OW 8884   0.585   2.736  10.342
 2666SOL    HW1 8885   0.618   2.826  10.342
 2666SOL    HW2 8886   0.529   2.730  10.419
 2667SOL     OW 8887   1.354   2.720  10.336
 2667SOL    HW1 8888   1.269   2.709  10.293
 2667SOL    HW2 8889   1.396   2.635  10.328
 2668SOL     OW 8890   1.203   2.390   9.576
 2668SOL    HW1 8891   1.210   2.312   9.631
 2668SOL    HW2 8892   1.160   2.454   9.631
 2669SOL     OW 8893   0.310   2.058  10.557
 2669SOL    HW1 8894   0.264   2.095  10.632
 2669SOL    HW2 8895   0.287   1.965  10.557
 2670SOL     OW 8896   0.060   3.167  10.590
 2670SOL    HW1 8897   0.091   3.126  10.671
 2670SOL    HW2 8898   0.052   3.260  10.612
 2671SOL     OW 8899   0.724   2.493  10.366
 2671SOL    HW1 8900   0.799   2.478  10.309
 2671SOL    HW2 8901   0.695   2.582  10.345
 2672SOL     OW 8902   1.737   2.821  11.164
 2672SOL    HW1 8903   1.691   2.759  11.108
 2672SOL    HW2 8904   1.677   2.836  11.237
 2673SOL     OW 8905   0.314   1.924   9.930
 2673SOL    HW1 8906   0.293   2.015   9.951
 2673SOL    HW2 8907   0.320   1.881  10.015
 2674SOL     OW 8908   1.610   2.240   9.677
 2674SOL    HW1 8909   1.622   2.185   9.754
 2674SOL    HW2 8910   1.589   2.327   9.712
 2675SOL     OW 8911   1.029   2.621  10.269
 2675SOL    HW1 8912   1.022   2.638  10.363
 2675SOL    HW2 8913   1.002   2.529  10.260
 2676SOL     OW 8914   0.986   3.430  11.030
 2676SOL    HW1 8915   0.967   3.471  10.946
 2676SOL    HW2 8916   1.027   3.347  11.007
 2677SOL     OW 8917   1.854   3.365  10.914
 2677SOL    HW1 8918   1.873   3.393  10.825
 2677SOL    HW2 8919   1.934   3.383  10.963
 2678SOL     OW 8920   0.353   2.784  11.110
 2678SOL    HW1 8921   0.431   2.805  11.160
 2678SOL    HW2 8922   0.381   2.716  11.048
 2679SOL     OW 8923   1.533   2.128   9.436
 2679SOL    HW1 8924   1.464   2.068   9.463
 2679SOL    HW2 8925   1.562   2.170   9.517
 2680SOL     OW 8926   1.289   2.689   9.340
 2680SOL    HW1 8927   1.331   2.603   9.343
 2680SOL    HW2 8928   1.320   2.728   9.258
 2681SOL     OW 8929   1.067   3.199  10.165
 2681SOL    HW1 8930   1.071   3.127  10.102
 2681SOL    HW2 8931   1.127   3.265  10.130
 2682SOL     OW 8932   0.313   2.664  10.260
 2682SOL    HW1 8933   0.407   2.682  10.254
 2682SOL    HW2 8934   0.308   2.574  10.292
 2683SOL     OW 8935   0.330   2.383  10.324
 2683SOL    HW1 8936   0.295   2.295  10.308
 2683SOL    HW2 8937   0.406   2.390  10.267
 2684SOL     OW 8938   1.134   2.236  10.994
 2684SOL    HW1 8939   1.086   2.291  11.056
 2684SOL    HW2 8940   1.221   2.275  10.990
 2685SOL     OW 8941   1.160   2.063  10.781
 2685SOL    HW1 8942   1.149   2.126  10.852
 2685SOL    HW2 8943   1.202   2.113  10.711
 2686SOL     OW 8944   4.000   3.180   9.492
 2686SOL    HW1 8945   3.905   3.196   9.496
 2686SOL    HW2 8946   0.009   3.086   9.510
 2687SOL     OW 8947   0.076   3.663  10.205
 2687SOL    HW1 8948   0.091   3.568  10.203
 2687SOL    HW2 8949   0.163   3.701  10.204
 2688SOL     OW 8950   0.507   3.425  10.227
 2688SOL    HW1 8951   0.573   3.492  10.247
 2688SOL    HW2 8952   0.549   3.367  10.164
 2689SOL     OW 8953   0.979   2.652  10.535
 2689SOL    HW1 8954   1.036   2.631  10.608
 2689SOL    HW2 8955   0.894   2.614  10.559
 2690SOL     OW 8956   0.038   2.420  10.419
 2690SOL    HW1 8957   0.120   2.397  10.377
 2690SOL    HW2 8958   0.057   2.417  10.513
 2691SOL     OW 8959   0.207   2.375  11.038
 2691SOL    HW1 8960   0.246   2.327  10.964
 2691SOL    HW2 8961   0.160   2.447  10.997
 2692SOL     OW 8962   1.372   2.802  10.966
 2692SOL    HW1 8963   1.396   2.895  10.963
 2692SOL    HW2 8964   1.369   2.775  10.874
 2693SOL     OW 8965   0.818   2.431   9.672
 2693SOL    HW1 8966   0.823   2.356   9.613
 2693SOL    HW2 8967   0.744   2.482   9.640
 2694SOL     OW 8968   1.635   2.466  10.495
 2694SOL    HW1 8969   1.623   2.409  10.572
 2694SOL    HW2 8970   1.721   2.442  10.461
 2695SOL     OW 8971   0.300   3.407  11.036
 2695SOL    HW1 8972   0.251   3.477  11.081
 2695SOL    HW2 8973   0.268   3.326  11.076
 2696SOL     OW 8974   0.707   2.311  10.567
 2696SOL    HW1 8975   0.654   2.237  10.538
 2696SOL    HW2 8976   0.701   2.374  10.495
 2697SOL     OW 8977   0.928   3.533  10.779
 2697SOL    HW1 8978   0.901   3.496  10.695
 2697SOL    HW2 8979   0.920   3.628  10.767
 2698SOL     OW 8980   0.455   2.351   9.506
 2698SOL    HW1 8981   0.520   2.419   9.523
 2698SOL    HW2 8982   0.375   2.400   9.483
 2699SOL     OW 8983   0.156   2.997  10.785
 2699SOL    HW1 8984   0.156   2.946  10.866
 2699SOL    HW2 8985   0.171   2.932  10.716
 2700SOL     OW 8986   1.324   2.907  10.531
 2700SOL    HW1 8987   1.346   2.844  10.463
 2700SOL    HW2 8988   1.256   2.962  10.492
 2701SOL     OW 8989   1.313   2.719   9.615
 2701SOL    HW1 8990   1.239   2.687   9.666
 2701SOL    HW2 8991   1.288   2.705   9.524
 2702SOL     OW 8992   1.772   3.602  10.461
 2702SOL    HW1 8993   1.834   3.630  10.394
 2702SOL    HW2 8994   1.750   3.512  10.437
 2703SOL     OW 8995   1.244   3.595  10.418
 2703SOL    HW1 8996   1.327   3.616  10.376
 2703SOL    HW2 8997   1.251   3.501  10.438
 2704SOL     OW 8998   0.076   3.076  10.338
 2704SOL    HW1 8999   0.083   3.104  10.430
 2704SOL    HW2 9000   3.984   3.087  10.316
 2705SOL     OW 9001   0.679   3.527  11.043
 2705SOL    HW1 9002   0.621   3.603  11.047
 2705SOL    HW2 9003   0.739   3.546  10.971
 2706SOL     OW 9004   1.391   3.431   9.797
 2706SOL    HW1 9005   1.450   3.464   9.730
 2706SOL    HW2 9006   1.342   3.508   9.827
 2707SOL     OW 9007   0.170   3.623  11.142
 2707SOL    HW1 9008   0.115   3.570  11.200
 2707SOL    HW2 9009   0.217   3.682  11.200
 2708SOL     OW 9010   1.278   2.789   9.981
 2708SOL    HW1 9011   1.351   2.728   9.989
 2708SOL    HW2 9012   1.312   2.861   9.928
 2709SOL     OW 9013   0.810   3.136  10.738
 2709SOL    HW1 9014   0.781   3.177  10.820
 2709SOL    HW2 9015   0.739   3.155  10.676
 2710SOL     OW 9016   0.675   3.479   9.468
 2710SOL    HW1 9017   0.683   3.496   9.374
 2710SOL    HW2 9018   0.616   3.404   9.473
 2711SOL     OW 9019   1.622   3.588  10.700
 2711SOL    HW1 9020   1.674   3.593  10.619
 2711SOL    HW2 9021   1.608   3.679  10.725
 2712SOL     OW 9022   0.266   2.175  10.026
 2712SOL    HW1 9023   0.180   2.207  10.000
 2712SOL    HW2 9024   0.261   2.165  10.121
 2713SOL     OW 9025   1.208   3.466   9.346
 2713SOL    HW1 9026   1.197   3.374   9.370
 2713SOL    HW2 9027   1.147   3.479   9.273
 2714SOL     OW 9028   0.823   2.868  10.684
 2714SOL    HW1 9029   0.868   2.863  10.599
 2714SOL    HW2 9030   0.822   2.961  10.704
 2715SOL     OW 9031   0.916   2.772   9.601
 2715SOL    HW1 9032   0.976   2.805   9.534
 2715SOL    HW2 9033   0.965   2.704   9.646
 2716SOL     OW 9034   1.489   3.491   9.353
 2716SOL    HW1 9035   1.395   3.480   9.336
 2716SOL    HW2 9036   1.528   3.496   9.265
 2717SOL     OW 9037   0.374   3.165  10.801
 2717SOL    HW1 9038   0.359   3.245  10.751
 2717SOL    HW2 9039   0.297   3.111  10.784
 2718SOL     OW 9040   1.610   3.145  10.590
 2718SOL    HW1 9041   1.669   3.133  10.664
 2718SOL    HW2 9042   1.549   3.213  10.620
 2719SOL     OW 9043   1.056   2.971  10.018
 2719SOL    HW1 9044   0.984   2.920  10.056
 2719SOL    HW2 9045   1.119   2.905   9.989
 2720SOL     OW 9046   1.023   2.103  10.277
 2720SOL    HW1 9047   1.019   2.056  10.194
 2720SOL    HW2 9048   1.018   2.034  10.343
 2721SOL     OW 9049   0.606   3.352   9.790
 2721SOL    HW1 9050   0.651   3.302   9.723
 2721SOL    HW2 9051   0.534   3.395   9.744
 2722SOL     OW 9052   1.731   2.244  10.682
 2722SOL    HW1 9053   1.800   2.310  10.686
 2722SOL    HW2 9054   1.769   2.173  10.629
 2723SOL     OW 9055   0.253   3.203   9.602
 2723SOL    HW1 9056   0.160   3.211   9.583
 2723SOL    HW2 9057   0.264   3.241   9.689
 2724SOL     OW 9058   0.107   2.860  11.027
 2724SOL    HW1 9059   0.047   2.853  11.101
 2724SOL    HW2 9060   0.194   2.842  11.064
 2725SOL     OW 9061   0.676   2.058  10.810
 2725SOL    HW1 9062   0.760   2.037  10.769
 2725SOL    HW2 9063   0.699   2.091  10.897
 2726SOL     OW 9064   0.081   2.176   9.348
 2726SOL    HW1 9065   3.985   2.176   9.355
 2726SOL    HW2 9066   0.101   2.257   9.300
 2727SOL     OW 9067   1.428   2.721  10.709
 2727SOL    HW1 9068   1.379   2.782  10.653
 2727SOL    HW2 9069   1.517   2.723  10.675
 2728SOL     OW 9070   0.018   2.098   9.687
 2728SOL    HW1 9071   0.045   2.161   9.620
 2728SOL    HW2 9072   0.100   2.058   9.716
 2729SOL     OW 9073   1.178   3.199   9.427
 2729SOL    HW1 9074   1.086   3.170   9.428
 2729SOL    HW2 9075   1.204   3.198   9.519
 2730SOL     OW 9076   0.620   2.692  10.746
 2730SOL    HW1 9077   0.676   2.768  10.731
 2730SOL    HW2 9078   0.680   2.619  10.754
 2731SOL     OW 9079   1.486   3.641  10.291
 2731SOL    HW1 9080   1.508   3.700  10.219
 2731SOL    HW2 9081   1.570   3.620  10.332
 2732SOL     OW 9082   0.716   2.424  11.014
 2732SOL    HW1 9083   0.761   2.486  11.072
 2732SOL    HW2 9084   0.741   2.338  11.046
 2733SOL     OW 9085   1.473   3.060  10.940
 2733SOL    HW1 9086   1.461   3.074  11.034
 2733SOL    HW2 9087   1.566   3.077  10.925
 2734SOL     OW 9088   0.378   3.607  10.869
 2734SOL    HW1 9089   0.290   3.643  10.856
 2734SOL    HW2 9090   0.364   3.525  10.915
 2735SOL     OW 9091   1.668   2.744  10.563
 2735SOL    HW1 9092   1.659   2.658  10.521
 2735SOL    HW2 9093   1.657   2.807  10.492
 2736SOL     OW 9094   1.215   2.182   9.768
 2736SOL    HW1 9095   1.278   2.110   9.761
 2736SOL    HW2 9096   1.245   2.231   9.845
 2737SOL     OW 9097   0.589   2.599   9.983
 2737SOL    HW1 9098   0.628   2.685   9.967
 2737SOL    HW2 9099   0.523   2.590   9.914
 2738SOL     OW 9100   1.741   2.238  10.957
 2738SOL    HW1 9101   1.739   2.244  10.861
 2738SOL    HW2 9102   1.672   2.176  10.978
 2739SOL     OW 9103   1.746   2.800  10.818
 2739SOL    HW1 9104   1.741   2.895  10.830
 2739SOL    HW2 9105   1.731   2.787  10.725
 2740SOL     OW 9106   0.865   3.229   9.349
 2740SOL    HW1 9107   0.823   3.258   9.430
 2740SOL    HW2 9108   0.879   3.309   9.300
 2741SOL     OW 9109   0.659   3.651  10.245
 2741SOL    HW1 9110   0.637   3.742  10.226
 2741SOL    HW2 9111   0.754   3.647  10.243
 2742SOL     OW 9112   0.869   2.830  10.164
 2742SOL    HW1 9113   0.919   2.758  10.202
 2742SOL    HW2 9114   0.832   2.877  10.239
 2743SOL     OW 9115   1.077   2.850   9.399
 2743SOL    HW1 9116   1.056   2.901   9.321
 2743SOL    HW2 9117   1.152   2.797   9.373
 2744SOL     OW 9118   1.851   3.412  10.151
 2744SOL    HW1 9119   1.770   3.403  10.100
 2744SOL    HW2 9120   1.840   3.351  10.224
 2745SOL     OW 9121   0.227   3.166  11.166
 2745SOL    HW1 9122   0.153   3.111  11.140
 2745SOL    HW2 9123   0.214   3.179  11.260
 2746SOL     OW 9124   0.115   3.140  10.032
 2746SOL    HW1 9125   0.134   3.089  10.111
 2746SOL    HW2 9126   0.104   3.074   9.963
 2747SOL     OW 9127   0.683   3.266  10.941
 2747SOL    HW1 9128   0.602   3.225  10.970
 2747SOL    HW2 9129   0.679   3.355  10.977
 2748SOL     OW 9130   0.441   2.296   9.844
 2748SOL    HW1 9131   0.442   2.226   9.778
 2748SOL    HW2 9132   0.385   2.262   9.914
 2749SOL     OW 9133   1.700   3.347  10.401
 2749SOL    HW1 9134   1.619   3.327  10.355
 2749SOL    HW2 9135   1.708   3.280  10.468
 2750SOL     OW 9136   0.335   2.419  10.602
 2750SOL    HW1 9137   0.389   2.362  10.656
 2750SOL    HW2 9138   0.349   2.388  10.513
 2751SOL     OW 9139   0.828   3.441   9.986
 2751SOL    HW1 9140   0.812   3.495   9.909
 2751SOL    HW2 9141   0.754   3.381   9.990
 2752SOL     OW 9142   1.435   2.090  10.431
 2752SOL    HW1 9143   1.440   2.002  10.468
 2752SOL    HW2 9144   1.381   2.139  10.494
 2753SOL     OW 9145   1.009   1.879  10.449
 2753SOL    HW1 9146   0.955   1.812  10.407
 2753SOL    HW2 9147   1.097   1.841  10.451
 2754SOL     OW 9148   0.772   3.194   9.629
 2754SOL    HW1 9149   0.743   3.103   9.635
 2754SOL    HW2 9150   0.855   3.195   9.677
 2755SOL     OW 9151   0.621   3.416  10.596
 2755SOL    HW1 9152   0.621   3.497  10.646
 2755SOL    HW2 9153   0.708   3.410  10.558
 2756SOL     OW 9154   1.353   1.912   9.478
 2756SOL    HW1 9155   1.381   1.850   9.411
 2756SOL    HW2 9156   1.265   1.884   9.502
 2757SOL     OW 9157   1.299   2.324   9.991
 2757SOL    HW1 9158   1.245   2.403   9.995
 2757SOL    HW2 9159   1.292   2.285  10.078
 2758SOL     OW 9160   1.577   2.058  10.186
 2758SOL    HW1 9161   1.535   2.084  10.268
 2758SOL    HW2 9162   1.587   2.140  10.138
 2759SOL     OW 9163   0.047   2.911   9.549
 2759SOL    HW1 9164   0.141   2.896   9.541
 2759SOL    HW2 9165   0.012   2.828   9.580
 2760SOL     OW 9166   0.886   3.521   9.653
 2760SOL    HW1 9167   0.815   3.501   9.592
 2760SOL    HW2 9168   0.855   3.596   9.703
 2761SOL     OW 9169   0.231   2.487  11.291
 2761SOL    HW1 9170   0.138   2.495  11.312
 2761SOL    HW2 9171   0.232   2.455  11.201
 2762SOL     OW 9172   0.229   2.134  12.159
 2762SOL    HW1 9173   0.250   2.100  12.246
 2762SOL    HW2 9174   0.134   2.126  12.152
 2763SOL     OW 9175   0.009   2.221  11.802
 2763SOL    HW1 9176   3.920   2.239  11.833
 2763SOL    HW2 9177   3.997   2.190  11.712
 2764SOL     OW 9178   0.580   3.151  12.362
 2764SOL    HW1 9179   0.494   3.154  12.321
 2764SOL    HW2 9180   0.594   3.240  12.395
 2765SOL     OW 9181   1.564   3.373  11.880
 2765SOL    HW1 9182   1.522   3.351  11.964
 2765SOL    HW2 9183   1.492   3.376  11.817
 2766SOL     OW 9184   1.132   2.560  11.870
 2766SOL    HW1 9185   1.180   2.641  11.857
 2766SOL    HW2 9186   1.085   2.573  11.953
 2767SOL     OW 9187   1.767   2.472  11.399
 2767SOL    HW1 9188   1.740   2.467  11.307
 2767SOL    HW2 9189   1.749   2.384  11.433
 2768SOL     OW 9190   0.753   3.001  12.214
 2768SOL    HW1 9191   0.689   3.037  12.276
 2768SOL    HW2 9192   0.789   3.078  12.170
 2769SOL     OW 9193   0.870   2.631  12.994
 2769SOL    HW1 9194   0.861   2.703  13.058
 2769SOL    HW2 9195   0.893   2.675  12.912
 2770SOL     OW 9196   0.685   2.863  11.818
 2770SOL    HW1 9197   0.751   2.853  11.886
 2770SOL    HW2 9198   0.616   2.916  11.859
 2771SOL     OW 9199   0.712   3.011  12.988
 2771SOL    HW1 9200   0.760   3.089  13.017
 2771SOL    HW2 9201   0.631   3.046  12.950
 2772SOL     OW 9202   0.350   3.263  12.250
 2772SOL    HW1 9203   0.269   3.247  12.203
 2772SOL    HW2 9204   0.400   3.322  12.193
 2773SOL     OW 9205   1.460   3.363  12.529
 2773SOL    HW1 9206   1.513   3.442  12.539
 2773SOL    HW2 9207   1.394   3.370  12.597
 2774SOL     OW 9208   0.450   2.261  12.659
 2774SOL    HW1 9209   0.525   2.202  12.663
 2774SOL    HW2 9210   0.374   2.204  12.673
 2775SOL     OW 9211   1.602   2.305  11.909
 2775SOL    HW1 9212   1.521   2.325  11.861
 2775SOL    HW2 9213   1.618   2.382  11.962
 2776SOL     OW 9214   0.223   3.571  11.638
 2776SOL    HW1 9215   0.223   3.655  11.685
 2776SOL    HW2 9216   0.300   3.576  11.581
 2777SOL     OW 9217   1.137   3.203  12.865
 2777SOL    HW1 9218   1.177   3.198  12.952
 2777SOL    HW2 9219   1.085   3.124  12.858
 2778SOL     OW 9220   0.250   3.306  11.712
 2778SOL    HW1 9221   0.222   3.396  11.698
 2778SOL    HW2 9222   0.181   3.267  11.765
 2779SOL     OW 9223   0.247   2.929  12.056
 2779SOL    HW1 9224   0.267   2.844  12.095
 2779SOL    HW2 9225   0.194   2.974  12.121
 2780SOL     OW 9226   0.610   3.648  12.599
 2780SOL    HW1 9227   0.528   3.634  12.646
 2780SOL    HW2 9228   0.637   3.737  12.624
 2781SOL     OW 9229   0.577   2.848  11.310
 2781SOL    HW1 9230   0.626   2.893  11.241
 2781SOL    HW2 9231   0.618   2.877  11.391
 2782SOL     OW 9232   1.553   2.003  12.617
 2782SOL    HW1 9233   1.574   2.088  12.577
 2782SOL    HW2 9234   1.549   2.021  12.711
 2783SOL     OW 9235   0.142   2.515  11.746
 2783SOL    HW1 9236   0.087   2.437  11.745
 2783SOL    HW2 9237   0.106   2.569  11.816
 2784SOL     OW 9238   1.843   3.609  11.509
 2784SOL    HW1 9239   1.911   3.585  11.572
 2784SOL    HW2 9240   1.862   3.700  11.486
 2785SOL     OW 9241   0.041   3.453  11.312
 2785SOL    HW1 9242   0.034   3.361  11.337
 2785SOL    HW2 9243   3.958   3.491  11.340
 2786SOL     OW 9244   1.689   2.781  11.814
 2786SOL    HW1 9245   1.770   2.736  11.788
 2786SOL    HW2 9246   1.665   2.832  11.737
 2787SOL     OW 9247   1.647   2.967  11.601
 2787SOL    HW1 9248   1.733   2.970  11.560
 2787SOL    HW2 9249   1.653   3.029  11.673
 2788SOL     OW 9250   0.139   2.615  12.762
 2788SOL    HW1 9251   0.235   2.610  12.758
 2788SOL    HW2 9252   0.121   2.703  12.793
 2789SOL     OW 9253   0.616   3.248  11.906
 2789SOL    HW1 9254   0.568   3.166  11.916
 2789SOL    HW2 9255   0.598   3.276  11.816
 2790SOL     OW 9256   1.287   3.099  12.594
 2790SOL    HW1 9257   1.319   3.031  12.534
 2790SOL    HW2 9258   1.346   3.094  12.670
 2791SOL     OW 9259   0.820   1.863  11.684
 2791SOL    HW1 9260   0.860   1.947  11.662
 2791SOL    HW2 9261   0.726   1.881  11.689
 2792SOL     OW 9262   0.184   2.812  12.451
 2792SOL    HW1 9263   0.272   2.777  12.439
 2792SOL    HW2 9264   0.132   2.774  12.381
 2793SOL     OW 9265   1.531   2.858  11.371
 2793SOL    HW1 9266   1.462   2.801  11.403
 2793SOL    HW2 9267   1.573   2.892  11.450
 2794SOL     OW 9268   1.217   3.666  12.799
 2794SOL    HW1 9269   1.194   3.727  12.729
 2794SOL    HW2 9270   1.219   3.580  12.757
 2795SOL     OW 9271   0.342   2.109  12.988
 2795SOL    HW1 9272   0.378   2.197  12.996
 2795SOL    HW2 9273   0.250   2.119  13.013
 2796SOL     OW 9274   1.466   3.281  12.122
 2796SOL    HW1 9275   1.399   3.297  12.188
 2796SOL    HW2 9276   1.453   3.190  12.095
 2797SOL     OW 9277   1.654   3.602  11.753
 2797SOL    HW1 9278   1.640   3.571  11.663
 2797SOL    HW2 9279   1.631   3.527  11.808
 2798SOL     OW 9280   0.596   2.578  11.438
 2798SOL    HW1 9281   0.602   2.662  11.393
 2798SOL    HW2 9282   0.533   2.593  11.508
 2799SOL     OW 9283   1.280   2.221  12.107
 2799SOL    HW1 9284   1.191   2.186  12.116
 2799SOL    HW2 9285   1.333   2.166  12.163
 2800SOL     OW 9286   1.577   3.537  11.480
 2800SOL    HW1 9287   1.669   3.561  11.475
 2800SOL    HW2 9288   1.551   3.518  11.390
 2801SOL     OW 9289   0.791   2.480  12.622
 2801SOL    HW1 9290   0.764   2.455  12.711
 2801SOL    HW2 9291   0.754   2.412  12.566
 2802SOL     OW 9292   1.393   2.335  12.849
 2802SOL    HW1 9293   1.397   2.381  12.933
 2802SOL    HW2 9294   1.455   2.263  12.859
 2803SOL     OW 9295   0.952   2.748  12.756
 2803SOL    HW1 9296   1.007   2.679  12.719
 2803SOL    HW2 9297   0.904   2.783  12.681
 2804SOL     OW 9298   0.992   2.274  12.409
 2804SOL    HW1 9299   0.905   2.293  12.442
 2804SOL    HW2 9300   0.977   2.229  12.325
 2805SOL     OW 9301   1.052   2.560  11.597
 2805SOL    HW1 9302   1.069   2.553  11.691
 2805SOL    HW2 9303   0.970   2.514  11.584
 2806SOL     OW 9304   0.082   2.691  11.962
 2806SOL    HW1 9305   0.156   2.660  12.014
 2806SOL    HW2 9306   0.100   2.784  11.947
 2807SOL     OW 9307   0.127   3.718  12.751
 2807SOL    HW1 9308   0.135   3.686  12.841
 2807SOL    HW2 9309   0.035   3.705  12.728
 2808SOL     OW 9310   0.897   2.212  11.365
 2808SOL    HW1 9311   0.936   2.275  11.305
 2808SOL    HW2 9312   0.913   2.126  11.325
 2809SOL     OW 9313   1.704   2.439  13.005
 2809SOL    HW1 9314   1.669   2.510  12.952
 2809SOL    HW2 9315   1.734   2.374  12.942
 2810SOL     OW 9316   1.379   3.004  11.713
 2810SOL    HW1 9317   1.457   2.992  11.660
 2810SOL    HW2 9318   1.325   3.066  11.663
 2811SOL     OW 9319   0.546   2.040  12.066
 2811SOL    HW1 9320   0.553   2.072  12.156
 2811SOL    HW2 9321   0.546   2.119  12.012
 2812SOL     OW 9322   1.003   3.307  11.642
 2812SOL    HW1 9323   0.967   3.381  11.593
 2812SOL    HW2 9324   0.983   3.326  11.734
 2813SOL     OW 9325   0.359   3.671  12.034
 2813SOL    HW1 9326   0.438   3.618  12.046
 2813SOL    HW2 9327   0.389   3.761  12.043
 2814SOL     OW 9328   1.800   2.914  12.041
 2814SOL    HW1 9329   1.747   2.896  11.964
 2814SOL    HW2 9330   1.737   2.922  12.113
 2815SOL     OW 9331   1.228   3.399  12.683
 2815SOL    HW1 9332   1.215   3.327  12.745
 2815SOL    HW2 9333   1.159   3.387  12.617
 2816SOL     OW 9334   0.311   2.816  11.414
 2816SOL    HW1 9335   0.394   2.839  11.373
 2816SOL    HW2 9336   0.298   2.723  11.393
 2817SOL     OW 9337   1.480   2.608  11.897
 2817SOL    HW1 9338   1.474   2.566  11.983
 2817SOL    HW2 9339   1.558   2.663  11.903
 2818SOL     OW 9340   0.468   3.122  12.909
 2818SOL    HW1 9341   0.442   3.130  12.817
 2818SOL    HW2 9342   0.386   3.126  12.957
 2819SOL     OW 9343   1.113   3.643  11.394
 2819SOL    HW1 9344   1.049   3.597  11.447
 2819SOL    HW2 9345   1.144   3.577  11.331
 2820SOL     OW 9346   0.204   2.135  12.680
 2820SOL    HW1 9347   0.114   2.168  12.674
 2820SOL    HW2 9348   0.195   2.048  12.719
 2821SOL     OW 9349   1.628   3.243  11.262
 2821SOL    HW1 9350   1.587   3.328  11.245
 2821SOL    HW2 9351   1.559   3.179  11.242
 2822SOL     OW 9352   0.468   3.601  11.493
 2822SOL    HW1 9353   0.506   3.664  11.554
 2822SOL    HW2 9354   0.541   3.573  11.438
 2823SOL     OW 9355   1.398   1.968  11.606
 2823SOL    HW1 9356   1.384   1.946  11.514
 2823SOL    HW2 9357   1.484   1.931  11.627
 2824SOL     OW 9358   0.253   3.656  12.398
 2824SOL    HW1 9359   0.297   3.590  12.451
 2824SOL    HW2 9360   0.251   3.619  12.310
 2825SOL     OW 9361   0.938   3.563  12.072
 2825SOL    HW1 9362   1.015   3.511  12.094
 2825SOL    HW2 9363   0.894   3.513  12.002
 2826SOL     OW 9364   0.399   2.555  11.643
 2826SOL    HW1 9365   0.424   2.464  11.658
 2826SOL    HW2 9366   0.307   2.559  11.670
 2827SOL     OW 9367   1.533   2.086  12.896
 2827SOL    HW1 9368   1.549   2.107  12.988
 2827SOL    HW2 9369   1.466   2.018  12.897
 2828SOL     OW 9370   0.643   1.980  11.269
 2828SOL    HW1 9371   0.704   1.909  11.289
 2828SOL    HW2 9372   0.593   1.949  11.194
 2829SOL     OW 9373   0.765   2.141  12.927
 2829SOL    HW1 9374   0.844   2.086  12.925
 2829SOL    HW2 9375   0.719   2.113  13.006
 2830SOL     OW 9376   0.876   3.383  12.366
 2830SOL    HW1 9377   0.859   3.346  12.279
 2830SOL    HW2 9378   0.946   3.328  12.402
 2831SOL     OW 9379   1.340   2.451  12.604
 2831SOL    HW1 9380   1.371   2.420  12.690
 2831SOL    HW2 9381   1.376   2.539  12.597
 2832SOL     OW 9382   0.817   3.254  12.114
 2832SOL    HW1 9383   0.902   3.242  12.071
 2832SOL    HW2 9384   0.754   3.256  12.042
 2833SOL     OW 9385   0.929   2.371  12.074
 2833SOL    HW1 9386   0.905   2.363  11.982
 2833SOL    HW2 9387   0.959   2.284  12.099
 2834SOL     OW 9388   0.556   1.924  11.667
 2834SOL    HW1 9389   0.474   1.929  11.716
 2834SOL    HW2 9390   0.560   2.007  11.618
 2835SOL     OW 9391   1.428   3.061  11.212
 2835SOL    HW1 9392   1.458   2.986  11.262
 2835SOL    HW2 9393   1.342   3.082  11.249
 2836SOL     OW 9394   0.308   1.913  11.342
 2836SOL    HW1 9395   0.372   1.951  11.281
 2836SOL    HW2 9396   0.358   1.848  11.391
 2837SOL     OW 9397   0.940   2.109  11.631
 2837SOL    HW1 9398   0.912   2.150  11.549
 2837SOL    HW2 9399   1.034   2.126  11.634
 2838SOL     OW 9400   1.080   2.544  12.630
 2838SOL    HW1 9401   1.013   2.476  12.635
 2838SOL    HW2 9402   1.163   2.496  12.624
 2839SOL     OW 9403   1.222   3.433  11.966
 2839SOL    HW1 9404   1.237   3.500  11.899
 2839SOL    HW2 9405   1.290   3.448  12.031
 2840SOL     OW 9406   0.467   3.013  11.907
 2840SOL    HW1 9407   0.395   2.989  11.966
 2840SOL    HW2 9408   0.431   2.997  11.819
 2841SOL     OW 9409   1.266   3.656  11.780
 2841SOL    HW1 9410   1.313   3.721  11.727
 2841SOL    HW2 9411   1.194   3.705  11.819
 2842SOL     OW 9412   1.023   2.401  11.197
 2842SOL    HW1 9413   0.981   2.484  11.178
 2842SOL    HW2 9414   1.090   2.422  11.262
 2843SOL     OW 9415   0.082   2.434  12.562
 2843SOL    HW1 9416   0.172   2.421  12.532
 2843SOL    HW2 9417   0.089   2.504  12.627
 2844SOL     OW 9418   0.567   2.089  12.338
 2844SOL    HW1 9419   0.608   2.014  12.380
 2844SOL    HW2 9420   0.475   2.085  12.367
 2845SOL     OW 9421   0.867   2.320  11.812
 2845SOL    HW1 9422   0.820   2.374  11.748
 2845SOL    HW2 9423   0.888   2.240  11.764
 2846SOL     OW 9424   1.015   1.917  11.923
 2846SOL    HW1 9425   0.958   1.910  11.846
 2846SOL    HW2 9426   0.992   1.841  11.976
 2847SOL     OW 9427   1.438   3.024  12.029
 2847SOL    HW1 9428   1.368   2.959  12.029
 2847SOL    HW2 9429   1.462   3.033  11.936
 2848SOL     OW 9430   1.464   2.469  12.144
 2848SOL    HW1 9431   1.410   2.390  12.146
 2848SOL    HW2 9432   1.521   2.462  12.221
 2849SOL     OW 9433   1.845   2.676  11.559
 2849SOL    HW1 9434   1.904   2.625  11.614
 2849SOL    HW2 9435   1.816   2.615  11.491
 2850SOL     OW 9436   0.488   3.281  11.331
 2850SOL    HW1 9437   0.412   3.251  11.381
 2850SOL    HW2 9438   0.470   3.252  11.241
 2851SOL     OW 9439   1.673   3.126  11.816
 2851SOL    HW1 9440   1.768   3.127  11.830
 2851SOL    HW2 9441   1.644   3.214  11.838
 2852SOL     OW 9442   1.390   2.436  11.240
 2852SOL    HW1 9443   1.335   2.413  11.316
 2852SOL    HW2 9444   1.479   2.417  11.268
 2853SOL     OW 9445   0.574   2.130  11.490
 2853SOL    HW1 9446   0.605   2.083  11.413
 2853SOL    HW2 9447   0.542   2.214  11.456
 2854SOL     OW 9448   1.751   3.103  12.740
 2854SOL    HW1 9449   1.838   3.064  12.736
 2854SOL    HW2 9450   1.766   3.194  12.768
 2855SOL     OW 9451   1.056   3.214  12.504
 2855SOL    HW1 9452   0.981   3.184  12.555
 2855SOL    HW2 9453   1.132   3.174  12.546
 2856SOL     OW 9454   1.610   3.488  12.828
 2856SOL    HW1 9455   1.602   3.522  12.739
 2856SOL    HW2 9456   1.692   3.440  12.828
 2857SOL     OW 9457   1.132   3.068  12.276
 2857SOL    HW1 9458   1.073   3.105  12.341
 2857SOL    HW2 9459   1.100   3.101  12.192
 2858SOL     OW 9460   1.626   2.960  12.248
 2858SOL    HW1 9461   1.621   3.022  12.320
 2858SOL    HW2 9462   1.548   2.977  12.195
 2859SOL     OW 9463   0.918   1.957  12.566
 2859SOL    HW1 9464   0.941   1.938  12.475
 2859SOL    HW2 9465   0.997   1.997  12.603
 2860SOL     OW 9466   0.984   2.977  12.895
 2860SOL    HW1 9467   0.893   2.993  12.917
 2860SOL    HW2 9468   0.982   2.899  12.840
 2861SOL     OW 9469   0.708   2.922  11.543
 2861SOL    HW1 9470   0.694   2.906  11.636
 2861SOL    HW2 9471   0.784   2.870  11.519
 2862SOL     OW 9472   0.422   2.679  12.424
 2862SOL    HW1 9473   0.490   2.687  12.491
 2862SOL    HW2 9474   0.388   2.590  12.436
 2863SOL     OW 9475   1.264   2.238  12.450
 2863SOL    HW1 9476   1.296   2.316  12.496
 2863SOL    HW2 9477   1.173   2.259  12.428
 2864SOL     OW 9478   0.065   3.442  12.517
 2864SOL    HW1 9479   0.071   3.495  12.439
 2864SOL    HW2 9480   0.156   3.430  12.545
 2865SOL     OW 9481   0.369   2.964  11.655
 2865SOL    HW1 9482   0.365   3.045  11.603
 2865SOL    HW2 9483   0.369   2.894  11.590
 2866SOL     OW 9484   0.549   2.398  12.033
 2866SOL    HW1 9485   0.564   2.455  11.958
 2866SOL    HW2 9486   0.617   2.424  12.096
 2867SOL     OW 9487   1.248   3.211  11.562
 2867SOL    HW1 9488   1.304   3.282  11.593
 2867SOL    HW2 9489   1.161   3.233  11.595
 2868SOL     OW 9490   1.285   3.321  12.320
 2868SOL    HW1 9491   1.340   3.325  12.398
 2868SOL    HW2 9492   1.229   3.245  12.334
 2869SOL     OW 9493   1.575   2.486  11.648
 2869SOL    HW1 9494   1.531   2.537  11.715
 2869SOL    HW2 9495   1.623   2.550  11.595
 2870SOL     OW 9496   0.345   3.390  12.490
 2870SOL    HW1 9497   0.335   3.339  12.409
 2870SOL    HW2 9498   0.439   3.404  12.497
 2871SOL     OW 9499   0.416   2.601  12.773
 2871SOL    HW1 9500   0.479   2.646  12.717
 2871SOL    HW2 9501   0.456   2.515  12.790
 2872SOL     OW 9502   1.604   2.643  12.856
 2872SOL    HW1 9503   1.518   2.685  12.850
 2872SOL    HW2 9504   1.656   2.684  12.788
 2873SOL     OW 9505   0.996   1.990  12.925
 2873SOL    HW1 9506   1.054   2.062  12.901
 2873SOL    HW2 9507   1.044   1.911  12.900
 2874SOL     OW 9508   0.497   1.897  12.918
 2874SOL    HW1 9509   0.453   1.845  12.851
 2874SOL    HW2 9510   0.443   1.975  12.927
 2875SOL     OW 9511   0.585   2.736  12.204
 2875SOL    HW1 9512   0.618   2.826  12.204
 2875SOL    HW2 9513   0.529   2.730  12.281
 2876SOL     OW 9514   1.354   2.720  12.198
 2876SOL    HW1 9515   1.269   2.709  12.155
 2876SOL    HW2 9516   1.396   2.635  12.190
 2877SOL     OW 9517   1.203   2.390  11.438
 2877SOL    HW1 9518   1.210   2.312  11.493
 2877SOL    HW2 9519   1.160   2.454  11.493
 2878SOL     OW 9520   0.310   2.058  12.419
 2878SOL    HW1 9521   0.264   2.095  12.494
 2878SOL    HW2 9522   0.287   1.965  12.419
 2879SOL     OW 9523   0.060   3.167  12.452
 2879SOL    HW1 9524   0.091   3.126  12.533
 2879SOL    HW2 9525   0.052   3.260  12.474
 2880SOL     OW 9526   0.724   2.493  12.228
 2880SOL    HW1 9527   0.799   2.477  12.171
 2880SOL    HW2 9528   0.695   2.582  12.207
 2881SOL     OW 9529   1.737   2.820  13.028
 2881SOL    HW1 9530   1.693   2.756  12.972
 2881SOL    HW2 9531   1.676   2.837  13.100
 2882SOL     OW 9532   0.314   1.924  11.792
 2882SOL    HW1 9533   0.293   2.015  11.813
 2882SOL    HW2 9534   0.321   1.881  11.877
 2883SOL     OW 9535   1.610   2.241  11.538
 2883SOL    HW1 9536   1.619   2.184  11.614
 2883SOL    HW2 9537   1.589   2.327  11.574
 2884SOL     OW 9538   1.029   2.621  12.131
 2884SOL    HW1 9539   1.022   2.638  12.225
 2884SOL    HW2 9540   1.002   2.529  12.122
 2885SOL     OW 9541   0.986   3.430  12.892
 2885SOL    HW1 9542   0.967   3.471  12.808
 2885SOL    HW2 9543   1.027   3.347  12.870
 2886SOL     OW 9544   1.854   3.365  12.776
 2886SOL    HW1 9545   1.873   3.393  12.687
 2886SOL    HW2 9546   1.934   3.383  12.825
 2887SOL     OW 9547   0.353   2.783  12.973
 2887SOL    HW1 9548   0.431   2.804  13.023
 2887SOL    HW2 9549   0.381   2.716  12.911
 2888SOL     OW 9550   1.533   2.129  11.297
 2888SOL    HW1 9551   1.464   2.068  11.326
 2888SOL    HW2 9552   1.562   2.170  11.378
 2889SOL     OW 9553   1.289   2.689  11.202
 2889SOL    HW1 9554   1.330   2.603  11.205
 2889SOL    HW2 9555   1.320   2.727  11.120
 2890SOL     OW 9556   1.067   3.199  12.027
 2890SOL    HW1 9557   1.071   3.127  11.964
 2890SOL    HW2 9558   1.127   3.265  11.992
 2891SOL     OW 9559   0.313   2.664  12.122
 2891SOL    HW1 9560   0.407   2.682  12.116
 2891SOL    HW2 9561   0.308   2.574  12.154
 2892SOL     OW 9562   0.329   2.383  12.186
 2892SOL    HW1 9563   0.295   2.295  12.170
 2892SOL    HW2 9564   0.406   2.390  12.129
 2893SOL     OW 9565   1.134   2.236  12.856
 2893SOL    HW1 9566   1.087   2.291  12.918
 2893SOL    HW2 9567   1.222   2.275  12.852
 2894SOL     OW 9568   1.159   2.063  12.643
 2894SOL    HW1 9569   1.149   2.126  12.714
 2894SOL    HW2 9570   1.202   2.112  12.573
 2895SOL     OW 9571   4.000   3.180  11.354
 2895SOL    HW1 9572   3.905   3.196  11.358
 2895SOL    HW2 9573   0.009   3.086  11.372
 2896SOL     OW 9574   0.076   3.663  12.067
 2896SOL    HW1 9575   0.091   3.568  12.065
 2896SOL    HW2 9576   0.163   3.701  12.065
 2897SOL     OW 9577   0.507   3.425  12.089
 2897SOL    HW1 9578   0.573   3.492  12.109
 2897SOL    HW2 9579   0.549   3.367  12.026
 2898SOL     OW 9580   0.978   2.652  12.397
 2898SOL    HW1 9581   1.036   2.631  12.470
 2898SOL    HW2 9582   0.894   2.614  12.422
 2899SOL     OW 9583   0.038   2.420  12.281
 2899SOL    HW1 9584   0.120   2.397  12.239
 2899SOL    HW2 9585   0.057   2.417  12.375
 2900SOL     OW 9586   0.207   2.375  12.900
 2900SOL    HW1 9587   0.246   2.327  12.827
 2900SOL    HW2 9588   0.160   2.447  12.859
 2901SOL     OW 9589   1.378   2.799  12.829
 2901SOL    HW1 9590   1.400   2.892  12.826
 2901SOL    HW2 9591   1.375   2.772  12.737
 2902SOL     OW 9592   0.818   2.431  11.534
 2902SOL    HW1 9593   0.823   2.356  11.475
 2902SOL    HW2 9594   0.744   2.482  11.501
 2903SOL     OW 9595   1.635   2.465  12.358
 2903SOL    HW1 9596   1.624   2.409  12.435
 2903SOL    HW2 9597   1.721   2.441  12.323
 2904SOL     OW 9598   0.299   3.408  12.898
 2904SOL    HW1 9599   0.250   3.477  12.943
 2904SOL    HW2 9600   0.268   3.327  12.938
 2905SOL     OW 9601   0.707   2.311  12.429
 2905SOL    HW1 9602   0.654   2.237  12.400
 2905SOL    HW2 9603   0.701   2.374  12.357
 2906SOL     OW 9604   0.927   3.533  12.641
 2906SOL    HW1 9605   0.901   3.496  12.557
 2906SOL    HW2 9606   0.920   3.628  12.628
 2907SOL     OW 9607   0.455   2.351  11.367
 2907SOL    HW1 9608   0.520   2.419  11.385
 2907SOL    HW2 9609   0.375   2.400  11.345
 2908SOL     OW 9610   0.156   2.997  12.647
 2908SOL    HW1 9611   0.156   2.946  12.728
 2908SOL    HW2 9612   0.171   2.932  12.578
 2909SOL     OW 9613   1.324   2.907  12.393
 2909SOL    HW1 9614   1.346   2.843  12.325
 2909SOL    HW2 9615   1.256   2.961  12.354
 2910SOL     OW 9616   1.313   2.719  11.477
 2910SOL    HW1 9617   1.239   2.687  11.528
 2910SOL    HW2 9618   1.288   2.705  11.386
 2911SOL     OW 9619   1.772   3.602  12.323
 2911SOL    HW1 9620   1.834   3.630  12.256
 2911SOL    HW2 9621   1.750   3.512  12.299
 2912SOL     OW 9622   1.244   3.595  12.280
 2912SOL    HW1 9623   1.327   3.616  12.238
 2912SOL    HW2 9624   1.251   3.501  12.300
 2913SOL     OW 9625   0.076   3.076  12.200
 2913SOL    HW1 9626   0.083   3.104  12.291
 2913SOL    HW2 9627   3.984   3.087  12.178
 2914SOL     OW 9628   0.679   3.527  12.905
 2914SOL    HW1 9629   0.621   3.603  12.908
 2914SOL    HW2 9630   0.740   3.546  12.833
 2915SOL     OW 9631   1.391   3.431  11.659
 2915SOL    HW1 9632   1.450   3.464  11.592
 2915SOL    HW2 9633   1.342   3.508  11.689
 2916SOL     OW 9634   0.169   3.624  13.005
 2916SOL    HW1 9635   0.114   3.570  13.062
 2916SOL    HW2 9636   0.216   3.683  13.064
 2917SOL     OW 9637   1.277   2.789  11.843
 2917SOL    HW1 9638   1.351   2.728  11.852
 2917SOL    HW2 9639   1.312   2.861  11.790
 2918SOL     OW 9640   0.810   3.136  12.600
 2918SOL    HW1 9641   0.782   3.177  12.682
 2918SOL    HW2 9642   0.739   3.155  12.538
 2919SOL     OW 9643   0.675   3.479  11.330
 2919SOL    HW1 9644   0.683   3.496  11.236
 2919SOL    HW2 9645   0.616   3.404  11.335
 2920SOL     OW 9646   1.622   3.588  12.562
 2920SOL    HW1 9647   1.674   3.593  12.481
 2920SOL    HW2 9648   1.608   3.679  12.587
 2921SOL     OW 9649   0.266   2.175  11.888
 2921SOL    HW1 9650   0.180   2.207  11.862
 2921SOL    HW2 9651   0.261   2.165  11.983
 2922SOL     OW 9652   1.208   3.466  11.208
 2922SOL    HW1 9653   1.197   3.374  11.232
 2922SOL    HW2 9654   1.147   3.479  11.135
 2923SOL     OW 9655   0.823   2.868  12.546
 2923SOL    HW1 9656   0.868   2.862  12.461
 2923SOL    HW2 9657   0.822   2.961  12.566
 2924SOL     OW 9658   0.916   2.772  11.463
 2924SOL    HW1 9659   0.976   2.805  11.396
 2924SOL    HW2 9660   0.965   2.704  11.508
 2925SOL     OW 9661   1.489   3.491  11.215
 2925SOL    HW1 9662   1.395   3.480  11.198
 2925SOL    HW2 9663   1.528   3.496  11.127
 2926SOL     OW 9664   0.374   3.165  12.663
 2926SOL    HW1 9665   0.359   3.245  12.613
 2926SOL    HW2 9666   0.297   3.111  12.646
 2927SOL     OW 9667   1.610   3.146  12.452
 2927SOL    HW1 9668   1.669   3.132  12.526
 2927SOL    HW2 9669   1.549   3.213  12.482
 2928SOL     OW 9670   1.056   2.971  11.880
 2928SOL    HW1 9671   0.984   2.920  11.918
 2928SOL    HW2 9672   1.120   2.905  11.851
 2929SOL     OW 9673   1.023   2.103  12.139
 2929SOL    HW1 9674   1.019   2.056  12.056
 2929SOL    HW2 9675   1.018   2.035  12.206
 2930SOL     OW 9676   0.606   3.352  11.652
 2930SOL    HW1 9677   0.651   3.302  11.585
 2930SOL    HW2 9678   0.534   3.395  11.606
 2931SOL     OW 9679   1.731   2.242  12.546
 2931SOL    HW1 9680   1.799   2.309  12.552
 2931SOL    HW2 9681   1.770   2.172  12.494
 2932SOL     OW 9682   0.253   3.203  11.464
 2932SOL    HW1 9683   0.160   3.211  11.445
 2932SOL    HW2 9684   0.264   3.241  11.551
 2933SOL     OW 9685   0.107   2.859  12.889
 2933SOL    HW1 9686   0.047   2.854  12.963
 2933SOL    HW2 9687   0.193   2.842  12.927
 2934SOL     OW 9688   0.676   2.058  12.672
 2934SOL    HW1 9689   0.759   2.037  12.631
 2934SOL    HW2 9690   0.699   2.090  12.759
 2935SOL     OW 9691   0.081   2.176  11.209
 2935SOL    HW1 9692   3.985   2.176  11.217
 2935SOL    HW2 9693   0.101   2.257  11.162
 2936SOL     OW 9694   1.428   2.720  12.571
 2936SOL    HW1 9695   1.380   2.781  12.515
 2936SOL    HW2 9696   1.518   2.723  12.538
 2937SOL     OW 9697   0.018   2.098  11.549
 2937SOL    HW1 9698   0.045   2.161  11.483
 2937SOL    HW2 9699   0.100   2.058  11.578
 2938SOL     OW 9700   1.178   3.199  11.289
 2938SOL    HW1 9701   1.086   3.170  11.290
 2938SOL    HW2 9702   1.204   3.199  11.381
 2939SOL     OW 9703   0.619   2.692  12.609
 2939SOL    HW1 9704   0.676   2.768  12.593
 2939SOL    HW2 9705   0.680   2.619  12.616
 2940SOL     OW 9706   1.486   3.641  12.153
 2940SOL    HW1 9707   1.508   3.700  12.081
 2940SOL    HW2 9708   1.570   3.619  12.194
 2941SOL     OW 9709   0.716   2.424  12.876
 2941SOL    HW1 9710   0.761   2.486  12.934
 2941SOL    HW2 9711   0.741   2.338  12.908
 2942SOL     OW 9712   1.473   3.060  12.803
 2942SOL    HW1 9713   1.461   3.074  12.897
 2942SOL    HW2 9714   1.566   3.077  12.788
 2943SOL     OW 9715   0.378   3.607  12.731
 2943SOL    HW1 9716   0.290   3.643  12.719
 2943SOL    HW2 9717   0.364   3.525  12.777
 2944SOL     OW 9718   1.669   2.744  12.426
 2944SOL    HW1 9719   1.659   2.658  12.384
 2944SOL    HW2 9720   1.657   2.807  12.355
 2945SOL     OW 9721   1.216   2.182  11.630
 2945SOL    HW1 9722   1.278   2.110  11.622
 2945SOL    HW2 9723   1.245   2.231  11.707
 2946SOL     OW 9724   0.589   2.599  11.844
 2946SOL    HW1 9725   0.628   2.685  11.829
 2946SOL    HW2 9726   0.523   2.590  11.776
 2947SOL     OW 9727   1.754   2.241  12.824
 2947SOL    HW1 9728   1.744   2.244  12.728
 2947SOL    HW2 9729   1.689   2.177  12.852
 2948SOL     OW 9730   1.742   2.798  12.684
 2948SOL    HW1 9731   1.738   2.893  12.695
 2948SOL    HW2 9732   1.729   2.785  12.590
 2949SOL     OW 9733   0.865   3.229  11.211
 2949SOL    HW1 9734   0.823   3.257  11.292
 2949SOL    HW2 9735   0.879   3.310  11.162
 2950SOL     OW 9736   0.659   3.651  12.107
 2950SOL    HW1 9737   0.637   3.742  12.088
 2950SOL    HW2 9738   0.754   3.647  12.105
 2951SOL     OW 9739   0.869   2.830  12.026
 2951SOL    HW1 9740   0.919   2.758  12.064
 2951SOL    HW2 9741   0.832   2.877  12.101
 2952SOL     OW 9742   1.077   2.850  11.260
 2952SOL    HW1 9743   1.056   2.902  11.183
 2952SOL    HW2 9744   1.152   2.797  11.235
 2953SOL     OW 9745   1.851   3.412  12.013
 2953SOL    HW1 9746   1.770   3.402  11.962
 2953SOL    HW2 9747   1.841   3.351  12.086
 2954SOL     OW 9748   0.227   3.166  13.028
 2954SOL    HW1 9749   0.152   3.112  13.002
 2954SOL    HW2 9750   0.215   3.179  13.122
 2955SOL     OW 9751   0.115   3.140  11.894
 2955SOL    HW1 9752   0.134   3.090  11.973
 2955SOL    HW2 9753   0.105   3.074  11.825
 2956SOL     OW 9754   0.682   3.266  12.802
 2956SOL    HW1 9755   0.602   3.225  12.832
 2956SOL    HW2 9756   0.679   3.355  12.839
 2957SOL     OW 9757   0.441   2.296  11.706
 2957SOL    HW1 9758   0.442   2.226  11.640
 2957SOL    HW2 9759   0.385   2.262  11.776
 2958SOL     OW 9760   1.700   3.348  12.263
 2958SOL    HW1 9761   1.619   3.327  12.218
 2958SOL    HW2 9762   1.708   3.280  12.330
 2959SOL     OW 9763   0.335   2.419  12.464
 2959SOL    HW1 9764   0.389   2.362  12.518
 2959SOL    HW2 9765   0.349   2.388  12.375
 2960SOL     OW 9766   0.828   3.441  11.848
 2960SOL    HW1 9767   0.812   3.495  11.771
 2960SOL    HW2 9768   0.754   3.381  11.852
 2961SOL     OW 9769   1.434   2.090  12.293
 2961SOL    HW1 9770   1.441   2.002  12.330
 2961SOL    HW2 9771   1.381   2.139  12.356
 2962SOL     OW 9772   1.009   1.879  12.311
 2962SOL    HW1 9773   0.955   1.812  12.269
 2962SOL    HW2 9774   1.097   1.841  12.313
 2963SOL     OW 9775   0.772   3.194  11.491
 2963SOL    HW1 9776   0.743   3.103  11.497
 2963SOL    HW2 9777   0.855   3.196  11.539
 2964SOL     OW 9778   0.621   3.416  12.458
 2964SOL    HW1 9779   0.621   3.497  12.508
 2964SOL    HW2 9780   0.708   3.410  12.420
 2965SOL     OW 9781   1.352   1.913  11.339
 2965SOL    HW1 9782   1.382   1.849  11.275
 2965SOL    HW2 9783   1.264   1.885  11.363
 2966SOL     OW 9784   1.299   2.324  11.853
 2966SOL    HW1 9785   1.244   2.403  11.857
 2966SOL    HW2 9786   1.292   2.285  11.940
 2967SOL     OW 9787   1.579   2.059  12.050
 2967SOL    HW1 9788   1.535   2.084  12.131
 2967SOL    HW2 9789   1.588   2.141  12.001
 2968SOL     OW 9790   0.047   2.911  11.411
 2968SOL    HW1 9791   0.141   2.895  11.403
 2968SOL    HW2 9792   0.012   2.828  11.442
 2969SOL     OW 9793   0.886   3.521  11.515
 2969SOL    HW1 9794   0.815   3.501  11.454
 2969SOL    HW2 9795   0.855   3.596  11.565
 2970SOL     OW 9796   0.230   2.487  13.153
 2970SOL    HW1 9797   0.136   2.494  13.174
 2970SOL    HW2 9798   0.232   2.455  13.063
 2971SOL     OW 9799   0.285   2.131   0.131
 2971SOL    HW1 9800   0.328   2.199   0.182
 2971SOL    HW2 9801   0.201   2.170   0.105
 2972SOL     OW 9802   0.004   2.222  13.660
 2972SOL    HW1 9803   3.911   2.241  13.662
 2972SOL    HW2 9804   0.021   2.191  13.571
 2973SOL     OW 9805   1.523   3.358  13.727
 2973SOL    HW1 9806   1.468   3.290  13.766
 2973SOL    HW2 9807   1.479   3.381  13.645
 2974SOL     OW 9808   1.130   2.560  13.729
 2974SOL    HW1 9809   1.182   2.638  13.710
 2974SOL    HW2 9810   1.082   2.583  13.809
 2975SOL     OW 9811   1.788   2.462  13.258
 2975SOL    HW1 9812   1.756   2.459  13.168
 2975SOL    HW2 9813   1.741   2.392  13.303
 2976SOL     OW 9814   0.686   2.872  13.671
 2976SOL    HW1 9815   0.740   2.852  13.748
 2976SOL    HW2 9816   0.613   2.924  13.705
 2977SOL     OW 9817   1.611   2.304  13.734
 2977SOL    HW1 9818   1.519   2.318  13.715
 2977SOL    HW2 9819   1.627   2.355  13.814
 2978SOL     OW 9820   0.222   3.571  13.500
 2978SOL    HW1 9821   0.241   3.631  13.572
 2978SOL    HW2 9822   0.299   3.576  13.444
 2979SOL     OW 9823   0.248   3.303  13.571
 2979SOL    HW1 9824   0.222   3.394  13.560
 2979SOL    HW2 9825   0.184   3.266  13.632
 2980SOL     OW 9826   0.256   2.937   0.018
 2980SOL    HW1 9827   0.275   2.897   0.103
 2980SOL    HW2 9828   0.216   3.021   0.039
 2981SOL     OW 9829   0.576   2.848  13.171
 2981SOL    HW1 9830   0.625   2.893  13.101
 2981SOL    HW2 9831   0.618   2.878  13.252
 2982SOL     OW 9832   0.142   2.510  13.615
 2982SOL    HW1 9833   0.068   2.454  13.593
 2982SOL    HW2 9834   0.106   2.576  13.674
 2983SOL     OW 9835   1.845   3.609  13.372
 2983SOL    HW1 9836   1.912   3.587  13.436
 2983SOL    HW2 9837   1.863   3.701  13.349
 2984SOL     OW 9838   0.041   3.454  13.174
 2984SOL    HW1 9839   0.034   3.362  13.199
 2984SOL    HW2 9840   3.962   3.494  13.210
 2985SOL     OW 9841   1.687   2.778  13.668
 2985SOL    HW1 9842   1.772   2.742  13.643
 2985SOL    HW2 9843   1.662   2.835  13.595
 2986SOL     OW 9844   1.648   2.966  13.460
 2986SOL    HW1 9845   1.734   2.968  13.417
 2986SOL    HW2 9846   1.654   3.030  13.530
 2987SOL     OW 9847   0.615   3.247  13.760
 2987SOL    HW1 9848   0.564   3.168  13.778
 2987SOL    HW2 9849   0.584   3.277  13.674
 2988SOL     OW 9850   0.819   1.862  13.545
 2988SOL    HW1 9851   0.858   1.946  13.523
 2988SOL    HW2 9852   0.725   1.880  13.552
 2989SOL     OW 9853   1.531   2.857  13.233
 2989SOL    HW1 9854   1.461   2.800  13.266
 2989SOL    HW2 9855   1.571   2.893  13.313
 2990SOL     OW 9856   1.654   3.599  13.612
 2990SOL    HW1 9857   1.635   3.569  13.523
 2990SOL    HW2 9858   1.644   3.520  13.666
 2991SOL     OW 9859   0.594   2.579  13.298
 2991SOL    HW1 9860   0.600   2.663  13.253
 2991SOL    HW2 9861   0.532   2.594  13.368
 2992SOL     OW 9862   1.251   2.191   0.041
 2992SOL    HW1 9863   1.186   2.132   0.079
 2992SOL    HW2 9864   1.333   2.167   0.083
 2993SOL     OW 9865   1.578   3.540  13.340
 2993SOL    HW1 9866   1.671   3.562  13.335
 2993SOL    HW2 9867   1.553   3.520  13.250
 2994SOL     OW 9868   1.050   2.558  13.458
 2994SOL    HW1 9869   1.065   2.548  13.552
 2994SOL    HW2 9870   0.968   2.512  13.442
 2995SOL     OW 9871   0.082   2.704  13.806
 2995SOL    HW1 9872   0.163   2.687  13.855
 2995SOL    HW2 9873   0.075   2.799  13.802
 2996SOL     OW 9874   0.895   2.211  13.226
 2996SOL    HW1 9875   0.935   2.274  13.166
 2996SOL    HW2 9876   0.915   2.126  13.188
 2997SOL     OW 9877   1.364   2.997  13.553
 2997SOL    HW1 9878   1.454   2.997  13.518
 2997SOL    HW2 9879   1.321   3.068  13.505
 2998SOL     OW 9880   1.000   3.303  13.502
 2998SOL    HW1 9881   0.967   3.379  13.455
 2998SOL    HW2 9882   0.969   3.316  13.592
 2999SOL     OW 9883   0.414   3.678  13.807
 2999SOL    HW1 9884   0.423   3.587  13.832
 2999SOL    HW2 9885   0.459   3.727  13.876
 3000SOL     OW 9886   1.791   2.911  13.898
 3000SOL    HW1 9887   1.734   2.900  13.821
 3000SOL    HW2 9888   1.731   2.907   0.072
 3001SOL     OW 9889   0.311   2.816  13.277
 3001SOL    HW1 9890   0.394   2.839  13.235
 3001SOL    HW2 9891   0.298   2.724  13.254
 3002SOL     OW 9892   1.490   2.594  13.744
 3002SOL    HW1 9893   1.483   2.549  13.828
 3002SOL    HW2 9894   1.564   2.654  13.754
 3003SOL     OW 9895   1.113   3.644  13.254
 3003SOL    HW1 9896   1.049   3.598  13.310
 3003SOL    HW2 9897   1.144   3.577  13.193
 3004SOL     OW 9898   1.628   3.243  13.124
 3004SOL    HW1 9899   1.587   3.328  13.106
 3004SOL    HW2 9900   1.559   3.179  13.104
 3005SOL     OW 9901   0.466   3.600  13.353
 3005SOL    HW1 9902   0.505   3.661  13.416
 3005SOL    HW2 9903   0.540   3.572  13.299
 3006SOL     OW 9904   1.401   1.973  13.465
 3006SOL    HW1 9905   1.385   1.949  13.374
 3006SOL    HW2 9906   1.486   1.934  13.485
 3007SOL     OW 9907   0.929   3.547   0.010
 3007SOL    HW1 9908   0.946   3.478   0.075
 3007SOL    HW2 9909   0.887   3.501  13.838
 3008SOL     OW 9910   0.396   2.557  13.504
 3008SOL    HW1 9911   0.424   2.467  13.516
 3008SOL    HW2 9912   0.305   2.559  13.534
 3009SOL     OW 9913   0.642   1.980  13.131
 3009SOL    HW1 9914   0.704   1.910  13.151
 3009SOL    HW2 9915   0.593   1.948  13.056
 3010SOL     OW 9916   0.554   1.924  13.530
 3010SOL    HW1 9917   0.470   1.928  13.576
 3010SOL    HW2 9918   0.558   2.007  13.481
 3011SOL     OW 9919   1.428   3.061  13.075
 3011SOL    HW1 9920   1.458   2.985  13.125
 3011SOL    HW2 9921   1.342   3.082  13.111
 3012SOL     OW 9922   0.308   1.912  13.202
 3012SOL    HW1 9923   0.373   1.950  13.142
 3012SOL    HW2 9924   0.358   1.848  13.253
 3013SOL     OW 9925   0.940   2.106  13.493
 3013SOL    HW1 9926   0.910   2.149  13.413
 3013SOL    HW2 9927   1.034   2.125  13.496
 3014SOL     OW 9928   0.470   3.006  13.766
 3014SOL    HW1 9929   0.398   2.983  13.825
 3014SOL    HW2 9930   0.433   2.995  13.679
 3015SOL     OW 9931   1.268   3.659  13.630
 3015SOL    HW1 9932   1.313   3.726  13.579
 3015SOL    HW2 9933   1.199   3.706  13.677
 3016SOL     OW 9934   1.023   2.401  13.058
 3016SOL    HW1 9935   0.981   2.484  13.039
 3016SOL    HW2 9936   1.089   2.422  13.125
 3017SOL     OW 9937   0.894   2.332  13.673
 3017SOL    HW1 9938   0.827   2.379  13.623
 3017SOL    HW2 9939   0.901   2.247  13.629
 3018SOL     OW 9940   1.025   1.898  13.775
 3018SOL    HW1 9941   0.967   1.909  13.701
 3018SOL    HW2 9942   0.993   1.819  13.819
 3019SOL     OW 9943   1.848   2.674  13.419
 3019SOL    HW1 9944   1.906   2.624  13.475
 3019SOL    HW2 9945   1.822   2.612  13.350
 3020SOL     OW 9946   0.488   3.281  13.193
 3020SOL    HW1 9947   0.412   3.251  13.243
 3020SOL    HW2 9948   0.471   3.252  13.104
 3021SOL     OW 9949   1.683   3.133  13.662
 3021SOL    HW1 9950   1.776   3.133  13.687
 3021SOL    HW2 9951   1.648   3.214  13.701
 3022SOL     OW 9952   1.393   2.435  13.104
 3022SOL    HW1 9953   1.334   2.415  13.176
 3022SOL    HW2 9954   1.479   2.407  13.135
 3023SOL     OW 9955   0.572   2.130  13.351
 3023SOL    HW1 9956   0.604   2.082  13.275
 3023SOL    HW2 9957   0.543   2.214  13.316
 3024SOL     OW 9958   0.708   2.924  13.400
 3024SOL    HW1 9959   0.694   2.909  13.493
 3024SOL    HW2 9960   0.784   2.871  13.378
 3025SOL     OW 9961   0.371   2.965  13.515
 3025SOL    HW1 9962   0.366   3.046  13.465
 3025SOL    HW2 9963   0.370   2.896  13.449
 3026SOL     OW 9964   0.568   2.406  13.870
 3026SOL    HW1 9965   0.577   2.469  13.799
 3026SOL    HW2 9966   0.632   2.433   0.035
 3027SOL     OW 9967   1.245   3.214  13.418
 3027SOL    HW1 9968   1.300   3.288  13.446
 3027SOL    HW2 9969   1.159   3.234  13.454
 3028SOL     OW 9970   1.577   2.495  13.492
 3028SOL    HW1 9971   1.537   2.527  13.573
 3028SOL    HW2 9972   1.622   2.572  13.456
 3029SOL     OW 9973   1.202   2.390  13.298
 3029SOL    HW1 9974   1.210   2.312  13.353
 3029SOL    HW2 9975   1.159   2.454  13.354
 3030SOL     OW 9976   0.303   1.921  13.641
 3030SOL    HW1 9977   0.291   2.012  13.669
 3030SOL    HW2 9978   0.321   1.874  13.722
 3031SOL     OW 9979   1.614   2.243  13.405
 3031SOL    HW1 9980   1.605   2.188  13.483
 3031SOL    HW2 9981   1.592   2.331  13.435
 3032SOL     OW 9982   1.530   2.132  13.163
 3032SOL    HW1 9983   1.463   2.069  13.190
 3032SOL    HW2 9984   1.561   2.170  13.245
 3033SOL     OW 9985   1.288   2.687  13.062
 3033SOL    HW1 9986   1.332   2.602  13.066
 3033SOL    HW2 9987   1.320   2.727  12.981
 3034SOL     OW 9988   4.000   3.180  13.215
 3034SOL    HW1 9989   3.905   3.196  13.219
 3034SOL    HW2 9990   0.009   3.086  13.232
 3035SOL     OW 9991   0.818   2.433  13.388
 3035SOL    HW1 9992   0.821   2.356  13.332
 3035SOL    HW2 9993   0.742   2.483  13.357
 3036SOL     OW 9994   0.454   2.351  13.227
 3036SOL    HW1 9995   0.519   2.418  13.246
 3036SOL    HW2 9996   0.374   2.400  13.207
 3037SOL     OW 9997   1.314   2.716  13.337
 3037SOL    HW1 9998   1.239   2.688  13.389
 3037SOL    HW2 9999   1.288   2.703  13.246
 3038SOL     OW10000   1.383   3.437  13.507
 3038SOL    HW110001   1.443   3.474  13.443
 3038SOL    HW210002   1.337   3.512  13.545
 3039SOL     OW10003   1.289   2.776  13.685
 3039SOL    HW110004   1.365   2.719  13.672
 3039SOL    HW210005   1.312   2.858  13.643
 3040SOL     OW10006   0.674   3.480  13.191
 3040SOL    HW110007   0.683   3.496  13.097
 3040SOL    HW210008   0.616   3.404  13.197
 3041SOL     OW10009   0.282   2.172  13.738
 3041SOL    HW110010   0.199   2.216  13.722
 3041SOL    HW210011   0.291   2.171  13.833
 3042SOL     OW10012   1.208   3.466  13.070
 3042SOL    HW110013   1.197   3.374  13.093
 3042SOL    HW210014   1.147   3.479  12.997
 3043SOL     OW10015   0.918   2.774  13.328
 3043SOL    HW110016   0.977   2.805  13.260
 3043SOL    HW210017   0.965   2.702  13.370
 3044SOL     OW10018   1.489   3.491  13.076
 3044SOL    HW110019   1.396   3.480  13.060
 3044SOL    HW210020   1.528   3.496  12.989
 3045SOL     OW10021   1.050   2.953  13.755
 3045SOL    HW110022   0.964   2.914  13.741
 3045SOL    HW210023   1.105   2.913  13.688
 3046SOL     OW10024   0.602   3.356  13.505
 3046SOL    HW110025   0.647   3.304  13.438
 3046SOL    HW210026   0.530   3.398  13.457
 3047SOL     OW10027   0.252   3.202  13.324
 3047SOL    HW110028   0.159   3.210  13.305
 3047SOL    HW210029   0.263   3.240  13.411
 3048SOL     OW10030   0.080   2.175  13.071
 3048SOL    HW110031   3.985   2.175  13.079
 3048SOL    HW210032   0.101   2.256  13.025
 3049SOL     OW10033   0.019   2.103  13.411
 3049SOL    HW110034   0.047   2.162  13.341
 3049SOL    HW210035   0.098   2.055  13.435
 3050SOL     OW10036   1.177   3.199  13.149
 3050SOL    HW110037   1.086   3.170  13.151
 3050SOL    HW210038   1.204   3.200  13.241
 3051SOL     OW10039   1.216   2.182  13.490
 3051SOL    HW110040   1.279   2.110  13.482
 3051SOL    HW210041   1.245   2.231  13.567
 3052SOL     OW10042   0.593   2.611  13.691
 3052SOL    HW110043   0.627   2.698  13.674
 3052SOL    HW210044   0.523   2.599  13.627
 3053SOL     OW10045   0.865   3.228  13.072
 3053SOL    HW110046   0.824   3.255  13.154
 3053SOL    HW210047   0.879   3.310  13.024
 3054SOL     OW10048   0.657   3.713   0.070
 3054SOL    HW110049   0.654   3.806   0.090
 3054SOL    HW210050   0.749   3.688   0.079
 3055SOL     OW10051   0.827   2.826  13.897
 3055SOL    HW110052   0.857   2.743   0.034
 3055SOL    HW210053   0.856   2.893   0.059
 3056SOL     OW10054   1.076   2.848  13.122
 3056SOL    HW110055   1.056   2.901  13.045
 3056SOL    HW210056   1.151   2.795  13.096
 3057SOL     OW10057   0.115   3.136  13.759
 3057SOL    HW110058   0.051   3.095  13.817
 3057SOL    HW210059   0.121   3.077  13.684
 3058SOL     OW10060   0.446   2.300  13.556
 3058SOL    HW110061   0.453   2.227  13.495
 3058SOL    HW210062   0.402   2.264  13.633
 3059SOL     OW10063   1.680   3.320   0.346
 3059SOL    HW110064   1.650   3.299   0.257
 3059SOL    HW210065   1.769   3.285   0.350
 3060SOL     OW10066   0.820   3.414  13.705
 3060SOL    HW110067   0.790   3.464  13.629
 3060SOL    HW210068   0.746   3.356  13.725
 3061SOL     OW10069   0.773   3.195  13.348
 3061SOL    HW110070   0.743   3.104  13.356
 3061SOL    HW210071   0.854   3.198  13.399
 3062SOL     OW10072   1.352   1.913  13.201
 3062SOL    HW110073   1.381   1.851  13.135
 3062SOL    HW210074   1.264   1.884  13.225
 3063SOL     OW10075   1.305   2.323  13.710
 3063SOL    HW110076   1.251   2.402  13.715
 3063SOL    HW210077   1.286   2.277  13.792
 3064SOL     OW10078   0.047   2.911  13.269
 3064SOL    HW110079   0.141   2.895  13.262
 3064SOL    HW210080   0.011   2.829  13.303
 3065SOL     OW10081   0.887   3.520  13.377
 3065SOL    HW110082   0.814   3.502  13.317
 3065SOL    HW210083   0.856   3.594  13.430
 3066SOL     OW10084   0.233   3.945   0.965
 3066SOL    HW110085   0.253   3.959   1.058
 3066SOL    HW210086   0.140   3.965   0.958
 3067SOL     OW10087   0.017   0.099   0.633
 3067SOL    HW110088   3.928   0.083   0.665
 3067SOL    HW210089   0.021   0.054   0.549
 3068SOL     OW10090   1.808   0.356   0.273
 3068SOL    HW110091   1.785   0.312   0.191
 3068SOL    HW210092   1.726   0.360   0.321
 3069SOL     OW10093   0.440   0.097   1.510
 3069SOL    HW110094   0.511   0.059   1.459
 3069SOL    HW210095   0.363   0.046   1.486
 3070SOL     OW10096   1.596   3.849   1.461
 3070SOL    HW110097   1.603   3.934   1.418
 3070SOL    HW210098   1.579   3.870   1.553
 3071SOL     OW10099   0.806   3.727   0.507
 3071SOL    HW110100   0.834   3.818   0.497
 3071SOL    HW210101   0.711   3.732   0.517
 3072SOL     OW10102   1.268   0.062   0.936
 3072SOL    HW110103   1.195   0.008   0.905
 3072SOL    HW210104   1.323   0.002   0.985
 3073SOL     OW10105   0.555   3.904   0.891
 3073SOL    HW110106   0.551   3.926   0.984
 3073SOL    HW210107   0.549   3.989   0.846
 3074SOL     OW10108   0.191   3.979   1.498
 3074SOL    HW110109   0.102   0.014   1.501
 3074SOL    HW210110   0.187   3.897   1.547
 3075SOL     OW10111   1.409   3.838   0.430
 3075SOL    HW110112   1.404   3.795   0.345
 3075SOL    HW210113   1.501   3.828   0.456
 3076SOL     OW10114   1.533   3.939   1.722
 3076SOL    HW110115   1.559   3.942   1.814
 3076SOL    HW210116   1.465   3.872   1.718
 3077SOL     OW10117   0.772   3.956   1.743
 3077SOL    HW110118   0.828   3.928   1.815
 3077SOL    HW210119   0.687   3.972   1.784
 3078SOL     OW10120   0.535   3.783   0.515
 3078SOL    HW110121   0.481   3.782   0.594
 3078SOL    HW210122   0.546   3.876   0.494
 3079SOL     OW10123   0.265   3.736   0.182
 3079SOL    HW110124   0.299   3.825   0.172
 3079SOL    HW210125   0.337   3.688   0.225
 3080SOL     OW10126   0.563   3.944   1.167
 3080SOL    HW110127   0.604   3.873   1.216
 3080SOL    HW210128   0.471   3.942   1.195
 3081SOL     OW10129   1.020   3.767   0.734
 3081SOL    HW110130   0.955   3.756   0.666
 3081SOL    HW210131   0.997   3.702   0.801
 3082SOL     OW10132   0.924   3.802   1.398
 3082SOL    HW110133   0.952   3.782   1.309
 3082SOL    HW210134   0.997   3.851   1.436
 3083SOL     OW10135   1.267   0.074   1.265
 3083SOL    HW110136   1.280   0.143   1.331
 3083SOL    HW210137   1.199   0.109   1.207
 3084SOL     OW10138   0.507   3.751   1.756
 3084SOL    HW110139   0.453   3.705   1.691
 3084SOL    HW210140   0.477   3.841   1.753
 3085SOL     OW10141   0.304   3.924   1.255
 3085SOL    HW110142   0.257   3.941   1.337
 3085SOL    HW210143   0.289   3.831   1.238
 3086SOL     OW10144   1.597   3.937   0.156
 3086SOL    HW110145   1.517   3.885   0.158
 3086SOL    HW210146   1.569   0.024   0.185
 3087SOL     OW10147   1.164   3.922   1.473
 3087SOL    HW110148   1.168   3.996   1.533
 3087SOL    HW210149   1.206   3.953   1.393
 3088SOL     OW10150   0.922   3.825   0.150
 3088SOL    HW110151   0.951   3.816   0.059
 3088SOL    HW210152   0.981   3.769   0.200
 3089SOL     OW10153   1.708   3.858   0.512
 3089SOL    HW110154   1.786   3.847   0.458
 3089SOL    HW210155   1.697   3.773   0.556
 3090SOL     OW10156   1.836   3.880   0.971
 3090SOL    HW110157   1.871   3.797   0.938
 3090SOL    HW210158   1.755   3.894   0.921
 3091SOL     OW10159   0.677   3.909   1.490
 3091SOL    HW110160   0.760   3.901   1.442
 3091SOL    HW210161   0.702   3.931   1.579
 3092SOL     OW10162   0.044   0.015   0.041
 3092SOL    HW110163   3.956   0.019   0.004
 3092SOL    HW210164   0.087   0.095   0.009
 3093SOL     OW10165   0.124   3.932   0.375
 3093SOL    HW110166   0.073   3.975   0.307
 3093SOL    HW210167   0.166   3.858   0.331
 3094SOL     OW10168   1.193   0.011   0.464
 3094SOL    HW110169   1.256   3.939   0.467
 3094SOL    HW210170   1.212   0.064   0.541
 3095SOL     OW10171   1.786   0.041   1.640
 3095SOL    HW110172   1.759   0.075   1.555
 3095SOL    HW210173   1.706   0.003   1.677
 3096SOL     OW10174   1.816   3.913   1.239
 3096SOL    HW110175   1.822   3.822   1.268
 3096SOL    HW210176   1.822   3.907   1.143
 3097SOL     OW10177   1.439   3.932   1.117
 3097SOL    HW110178   1.472   3.854   1.161
 3097SOL    HW210179   1.380   3.974   1.180
 3098SOL     OW10180   1.016   3.736   1.148
 3098SOL    HW110181   0.958   3.681   1.094
 3098SOL    HW210182   1.101   3.693   1.143
 3099SOL     OW10183   1.352   3.783   0.151
 3099SOL    HW110184   1.391   3.711   0.100
 3099SOL    HW210185   1.269   3.748   0.183
 3100SOL     OW10186   1.283   0.163   0.679
 3100SOL    HW110187   1.280   0.258   0.688
 3100SOL    HW210188   1.288   0.131   0.770
 3101SOL     OW10189   1.580   3.927   0.880
 3101SOL    HW110190   1.530   3.932   0.961
 3101SOL    HW210191   1.581   0.016   0.846
 3102SOL     OW10192   0.234   3.946   2.825
 3102SOL    HW110193   0.255   3.959   2.918
 3102SOL    HW210194   0.140   3.964   2.819
 3103SOL     OW10195   0.010   0.105   2.487
 3103SOL    HW110196   3.926   0.089   2.529
 3103SOL    HW210197   0.012   0.046   2.411
 3104SOL     OW10198   1.777   0.319   2.052
 3104SOL    HW110199   1.704   0.296   1.995
 3104SOL    HW210200   1.736   0.337   2.137
 3105SOL     OW10201   0.440   0.097   3.372
 3105SOL    HW110202   0.511   0.058   3.321
 3105SOL    HW210203   0.363   0.046   3.349
 3106SOL     OW10204   1.596   3.849   3.323
 3106SOL    HW110205   1.603   3.934   3.280
 3106SOL    HW210206   1.579   3.869   3.415
 3107SOL     OW10207   0.806   3.729   2.367
 3107SOL    HW110208   0.832   3.821   2.361
 3107SOL    HW210209   0.710   3.732   2.377
 3108SOL     OW10210   1.267   0.062   2.801
 3108SOL    HW110211   1.196   0.008   2.768
 3108SOL    HW210212   1.323   0.002   2.849
 3109SOL     OW10213   0.554   3.905   2.753
 3109SOL    HW110214   0.552   3.925   2.846
 3109SOL    HW210215   0.550   3.990   2.710
 3110SOL     OW10216   0.192   3.979   3.360
 3110SOL    HW110217   0.103   0.014   3.363
 3110SOL    HW210218   0.187   3.897   3.409
 3111SOL     OW10219   1.407   3.832   2.294
 3111SOL    HW110220   1.398   3.799   2.204
 3111SOL    HW210221   1.500   3.825   2.313
 3112SOL     OW10222   1.533   3.939   3.583
 3112SOL    HW110223   1.559   3.942   3.676
 3112SOL    HW210224   1.465   3.872   3.580
 3113SOL     OW10225   0.627   3.850   1.988
 3113SOL    HW110226   0.718   3.820   1.989
 3113SOL    HW210227   0.587   3.801   1.916
 3114SOL     OW10228   0.772   3.955   3.605
 3114SOL    HW110229   0.828   3.928   3.677
 3114SOL    HW210230   0.687   3.972   3.646
 3115SOL     OW10231   0.534   3.785   2.376
 3115SOL    HW110232   0.483   3.786   2.456
 3115SOL    HW210233   0.543   3.878   2.352
 3116SOL     OW10234   0.287   3.759   2.039
 3116SOL    HW110235   0.330   3.844   2.029
 3116SOL    HW210236   0.353   3.703   2.081
 3117SOL     OW10237   0.563   3.943   3.029
 3117SOL    HW110238   0.605   3.873   3.079
 3117SOL    HW210239   0.471   3.942   3.057
 3118SOL     OW10240   1.020   3.767   2.597
 3118SOL    HW110241   0.955   3.755   2.528
 3118SOL    HW210242   0.997   3.702   2.664
 3119SOL     OW10243   0.924   3.802   3.260
 3119SOL    HW110244   0.952   3.782   3.171
 3119SOL    HW210245   0.997   3.851   3.298
 3120SOL     OW10246   1.267   0.074   3.127
 3120SOL    HW110247   1.280   0.143   3.193
 3120SOL    HW210248   1.200   0.109   3.069
 3121SOL     OW10249   0.507   3.751   3.618
 3121SOL    HW110250   0.453   3.705   3.553
 3121SOL    HW210251   0.477   3.841   3.615
 3122SOL     OW10252   0.304   3.924   3.117
 3122SOL    HW110253   0.258   3.942   3.199
 3122SOL    HW210254   0.288   3.831   3.100
 3123SOL     OW10255   1.577   3.953   1.982
 3123SOL    HW110256   1.517   3.898   2.031
 3123SOL    HW210257   1.607   0.019   2.045
 3124SOL     OW10258   1.164   3.922   3.335
 3124SOL    HW110259   1.168   3.996   3.395
 3124SOL    HW210260   1.205   3.953   3.255
 3125SOL     OW10261   0.900   3.812   1.965
 3125SOL    HW110262   0.960   3.771   1.902
 3125SOL    HW210263   0.941   3.796   2.050
 3126SOL     OW10264   1.710   3.856   2.360
 3126SOL    HW110265   1.788   3.843   2.306
 3126SOL    HW210266   1.699   3.774   2.408
 3127SOL     OW10267   1.836   3.880   2.834
 3127SOL    HW110268   1.871   3.798   2.801
 3127SOL    HW210269   1.756   3.894   2.784
 3128SOL     OW10270   0.677   3.909   3.351
 3128SOL    HW110271   0.760   3.901   3.304
 3128SOL    HW210272   0.702   3.931   3.441
 3129SOL     OW10273   0.071   0.026   1.847
 3129SOL    HW110274   3.977   0.026   1.864
 3129SOL    HW210275   0.100   0.113   1.875
 3130SOL     OW10276   0.106   3.916   2.231
 3130SOL    HW110277   0.081   3.999   2.191
 3130SOL    HW210278   0.186   3.890   2.185
 3131SOL     OW10279   1.193   0.011   2.328
 3131SOL    HW110280   1.262   3.944   2.327
 3131SOL    HW210281   1.214   0.065   2.404
 3132SOL     OW10282   1.786   0.040   3.502
 3132SOL    HW110283   1.760   0.075   3.417
 3132SOL    HW210284   1.706   0.003   3.539
 3133SOL     OW10285   1.816   3.913   3.101
 3133SOL    HW110286   1.822   3.822   3.130
 3133SOL    HW210287   1.822   3.907   3.006
 3134SOL     OW10288   1.439   3.932   2.979
 3134SOL    HW110289   1.472   3.854   3.025
 3134SOL    HW210290   1.381   3.974   3.042
 3135SOL     OW10291   1.016   3.736   3.010
 3135SOL    HW110292   0.958   3.681   2.957
 3135SOL    HW210293   1.101   3.693   3.005
 3136SOL     OW10294   1.353   3.770   2.024
 3136SOL    HW110295   1.386   3.702   1.966
 3136SOL    HW210296   1.266   3.741   2.049
 3137SOL     OW10297   1.281   0.162   2.545
 3137SOL    HW110298   1.282   0.258   2.550
 3137SOL    HW210299   1.286   0.133   2.635
 3138SOL     OW10300   1.580   3.927   2.742
 3138SOL    HW110301   1.530   3.932   2.823
 3138SOL    HW210302   1.581   0.016   2.708
 3139SOL     OW10303   0.234   3.946   4.687
 3139SOL    HW110304   0.255   3.959   4.779
 3139SOL    HW210305   0.140   3.964   4.681
 3140SOL     OW10306   0.010   0.105   4.349
 3140SOL    HW110307   3.926   0.089   4.391
 3140SOL    HW210308   0.012   0.046   4.273
 3141SOL     OW10309   1.777   0.319   3.914
 3141SOL    HW110310   1.704   0.296   3.857
 3141SOL    HW210311   1.736   0.337   3.999
 3142SOL     OW10312   0.440   0.097   5.234
 3142SOL    HW110313   0.511   0.059   5.183
 3142SOL    HW210314   0.363   0.046   5.210
 3143SOL     OW10315   1.596   3.849   5.185
 3143SOL    HW110316   1.603   3.934   5.142
 3143SOL    HW210317   1.579   3.870   5.277
 3144SOL     OW10318   0.806   3.729   4.229
 3144SOL    HW110319   0.832   3.821   4.223
 3144SOL    HW210320   0.710   3.732   4.239
 3145SOL     OW10321   1.267   0.062   4.663
 3145SOL    HW110322   1.196   0.008   4.629
 3145SOL    HW210323   1.323   0.002   4.711
 3146SOL     OW10324   0.554   3.905   4.615
 3146SOL    HW110325   0.552   3.925   4.708
 3146SOL    HW210326   0.550   3.990   4.572
 3147SOL     OW10327   0.192   3.979   5.222
 3147SOL    HW110328   0.103   0.014   5.225
 3147SOL    HW210329   0.187   3.897   5.271
 3148SOL     OW10330   1.407   3.832   4.156
 3148SOL    HW110331   1.398   3.799   4.066
 3148SOL    HW210332   1.501   3.825   4.175
 3149SOL     OW10333   1.533   3.939   5.445
 3149SOL    HW110334   1.559   3.941   5.537
 3149SOL    HW210335   1.464   3.872   5.442
 3150SOL     OW10336   0.627   3.850   3.850
 3150SOL    HW110337   0.718   3.820   3.851
 3150SOL    HW210338   0.587   3.801   3.778
 3151SOL     OW10339   0.772   3.956   5.467
 3151SOL    HW110340   0.828   3.929   5.539
 3151SOL    HW210341   0.687   3.972   5.508
 3152SOL     OW10342   0.534   3.785   4.238
 3152SOL    HW110343   0.483   3.786   4.318
 3152SOL    HW210344   0.543   3.878   4.214
 3153SOL     OW10345   0.287   3.758   3.901
 3153SOL    HW110346   0.329   3.844   3.891
 3153SOL    HW210347   0.353   3.703   3.943
 3154SOL     OW10348   0.563   3.943   4.891
 3154SOL    HW110349   0.604   3.873   4.941
 3154SOL    HW210350   0.471   3.942   4.919
 3155SOL     OW10351   1.020   3.767   4.459
 3155SOL    HW110352   0.955   3.755   4.390
 3155SOL    HW210353   0.997   3.702   4.526
 3156SOL     OW10354   0.924   3.802   5.122
 3156SOL    HW110355   0.953   3.782   5.033
 3156SOL    HW210356   0.997   3.852   5.160
 3157SOL     OW10357   1.267   0.074   4.989
 3157SOL    HW110358   1.280   0.143   5.055
 3157SOL    HW210359   1.200   0.110   4.931
 3158SOL     OW10360   0.507   3.751   5.480
 3158SOL    HW110361   0.453   3.705   5.415
 3158SOL    HW210362   0.477   3.841   5.477
 3159SOL     OW10363   0.304   3.924   4.979
 3159SOL    HW110364   0.258   3.942   5.061
 3159SOL    HW210365   0.288   3.831   4.962
 3160SOL     OW10366   1.577   3.953   3.843
 3160SOL    HW110367   1.517   3.898   3.893
 3160SOL    HW210368   1.607   0.019   3.907
 3161SOL     OW10369   1.164   3.922   5.198
 3161SOL    HW110370   1.167   3.997   5.257
 3161SOL    HW210371   1.206   3.953   5.117
 3162SOL     OW10372   0.900   3.812   3.827
 3162SOL    HW110373   0.960   3.771   3.764
 3162SOL    HW210374   0.941   3.796   3.912
 3163SOL     OW10375   1.710   3.856   4.222
 3163SOL    HW110376   1.788   3.843   4.168
 3163SOL    HW210377   1.699   3.774   4.270
 3164SOL     OW10378   1.835   3.880   4.696
 3164SOL    HW110379   1.871   3.798   4.663
 3164SOL    HW210380   1.756   3.894   4.646
 3165SOL     OW10381   0.677   3.909   5.213
 3165SOL    HW110382   0.760   3.901   5.166
 3165SOL    HW210383   0.702   3.931   5.303
 3166SOL     OW10384   0.071   0.026   3.709
 3166SOL    HW110385   3.977   0.026   3.725
 3166SOL    HW210386   0.100   0.113   3.736
 3167SOL     OW10387   0.106   3.916   4.093
 3167SOL    HW110388   0.081   3.999   4.053
 3167SOL    HW210389   0.186   3.890   4.047
 3168SOL     OW10390   1.193   0.011   4.190
 3168SOL    HW110391   1.262   3.944   4.189
 3168SOL    HW210392   1.214   0.065   4.266
 3169SOL     OW10393   1.786   0.040   5.364
 3169SOL    HW110394   1.761   0.075   5.279
 3169SOL    HW210395   1.705   0.003   5.400
 3170SOL     OW10396   1.816   3.913   4.963
 3170SOL    HW110397   1.822   3.822   4.992
 3170SOL    HW210398   1.821   3.907   4.868
 3171SOL     OW10399   1.439   3.931   4.841
 3171SOL    HW110400   1.472   3.855   4.887
 3171SOL    HW210401   1.381   3.974   4.904
 3172SOL     OW10402   1.016   3.736   4.872
 3172SOL    HW110403   0.958   3.681   4.819
 3172SOL    HW210404   1.101   3.693   4.867
 3173SOL     OW10405   1.353   3.770   3.886
 3173SOL    HW110406   1.386   3.702   3.828
 3173SOL    HW210407   1.266   3.741   3.911
 3174SOL     OW10408   1.281   0.162   4.407
 3174SOL    HW110409   1.282   0.258   4.412
 3174SOL    HW210410   1.286   0.133   4.498
 3175SOL     OW10411   1.580   3.927   4.604
 3175SOL    HW110412   1.530   3.932   4.685
 3175SOL    HW210413   1.581   0.016   4.570
 3176SOL     OW10414   0.234   3.946   6.549
 3176SOL    HW110415   0.255   3.959   6.642
 3176SOL    HW210416   0.140   3.964   6.543
 3177SOL     OW10417   0.011   0.105   6.211
 3177SOL    HW110418   3.926   0.089   6.253
 3177SOL    HW210419   0.012   0.046   6.135
 3178SOL     OW10420   1.777   0.320   5.776
 3178SOL    HW110421   1.704   0.297   5.718
 3178SOL    HW210422   1.736   0.337   5.861
 3179SOL     OW10423   0.440   0.097   7.096
 3179SOL    HW110424   0.511   0.059   7.044
 3179SOL    HW210425   0.363   0.046   7.072
 3180SOL     OW10426   1.596   3.849   7.048
 3180SOL    HW110427   1.604   3.934   7.005
 3180SOL    HW210428   1.579   3.869   7.139
 3181SOL     OW10429   0.805   3.729   6.092
 3181SOL    HW110430   0.832   3.820   6.085
 3181SOL    HW210431   0.710   3.732   6.101
 3182SOL     OW10432   1.267   0.062   6.525
 3182SOL    HW110433   1.195   0.009   6.491
 3182SOL    HW210434   1.323   0.001   6.572
 3183SOL     OW10435   0.555   3.905   6.477
 3183SOL    HW110436   0.552   3.925   6.570
 3183SOL    HW210437   0.550   3.990   6.434
 3184SOL     OW10438   0.192   3.979   7.084
 3184SOL    HW110439   0.103   0.014   7.087
 3184SOL    HW210440   0.186   3.897   7.133
 3185SOL     OW10441   1.407   3.831   6.018
 3185SOL    HW110442   1.398   3.799   5.929
 3185SOL    HW210443   1.501   3.825   6.037
 3186SOL     OW10444   1.533   3.938   7.308
 3186SOL    HW110445   1.559   3.941   7.400
 3186SOL    HW210446   1.464   3.873   7.304
 3187SOL     OW10447   0.627   3.850   5.712
 3187SOL    HW110448   0.718   3.820   5.713
 3187SOL    HW210449   0.587   3.801   5.640
 3188SOL     OW10450   0.772   3.956   7.329
 3188SOL    HW110451   0.828   3.928   7.401
 3188SOL    HW210452   0.687   3.972   7.370
 3189SOL     OW10453   0.535   3.785   6.100
 3189SOL    HW110454   0.482   3.786   6.180
 3189SOL    HW210455   0.544   3.878   6.076
 3190SOL     OW10456   0.287   3.758   5.763
 3190SOL    HW110457   0.329   3.844   5.754
 3190SOL    HW210458   0.353   3.704   5.805
 3191SOL     OW10459   0.563   3.943   6.753
 3191SOL    HW110460   0.604   3.873   6.803
 3191SOL    HW210461   0.471   3.942   6.781
 3192SOL     OW10462   1.021   3.766   6.320
 3192SOL    HW110463   0.955   3.755   6.251
 3192SOL    HW210464   0.996   3.702   6.387
 3193SOL     OW10465   0.924   3.802   6.984
 3193SOL    HW110466   0.953   3.782   6.895
 3193SOL    HW210467   0.997   3.852   7.022
 3194SOL     OW10468   1.267   0.074   6.851
 3194SOL    HW110469   1.280   0.143   6.917
 3194SOL    HW210470   1.200   0.109   6.792
 3195SOL     OW10471   0.507   3.751   7.342
 3195SOL    HW110472   0.453   3.705   7.277
 3195SOL    HW210473   0.477   3.841   7.339
 3196SOL     OW10474   0.304   3.924   6.841
 3196SOL    HW110475   0.257   3.941   6.923
 3196SOL    HW210476   0.289   3.831   6.824
 3197SOL     OW10477   1.577   3.953   5.705
 3197SOL    HW110478   1.516   3.898   5.755
 3197SOL    HW210479   1.607   0.019   5.768
 3198SOL     OW10480   1.164   3.922   7.060
 3198SOL    HW110481   1.167   3.997   7.119
 3198SOL    HW210482   1.206   3.953   6.980
 3199SOL     OW10483   0.900   3.812   5.689
 3199SOL    HW110484   0.960   3.771   5.626
 3199SOL    HW210485   0.941   3.796   5.774
 3200SOL     OW10486   1.709   3.856   6.083
 3200SOL    HW110487   1.788   3.843   6.030
 3200SOL    HW210488   1.699   3.774   6.132
 3201SOL     OW10489   1.835   3.880   6.559
 3201SOL    HW110490   1.871   3.798   6.525
 3201SOL    HW210491   1.756   3.894   6.508
 3202SOL     OW10492   0.677   3.909   7.076
 3202SOL    HW110493   0.760   3.902   7.029
 3202SOL    HW210494   0.702   3.931   7.165
 3203SOL     OW10495   0.071   0.026   5.571
 3203SOL    HW110496   3.977   0.026   5.588
 3203SOL    HW210497   0.100   0.113   5.598
 3204SOL     OW10498   0.106   3.916   5.955
 3204SOL    HW110499   0.081   3.999   5.915
 3204SOL    HW210500   0.186   3.890   5.909
 3205SOL     OW10501   1.193   0.010   6.053
 3205SOL    HW110502   1.262   3.944   6.051
 3205SOL    HW210503   1.214   0.065   6.128
 3206SOL     OW10504   1.786   0.039   7.226
 3206SOL    HW110505   1.760   0.076   7.142
 3206SOL    HW210506   1.706   0.003   7.263
 3207SOL     OW10507   1.816   3.912   6.825
 3207SOL    HW110508   1.823   3.822   6.854
 3207SOL    HW210509   1.821   3.908   6.730
 3208SOL     OW10510   1.439   3.931   6.704
 3208SOL    HW110511   1.473   3.856   6.751
 3208SOL    HW210512   1.380   3.974   6.766
 3209SOL     OW10513   1.016   3.736   6.734
 3209SOL    HW110514   0.958   3.681   6.681
 3209SOL    HW210515   1.101   3.694   6.728
 3210SOL     OW10516   1.353   3.770   5.749
 3210SOL    HW110517   1.386   3.702   5.690
 3210SOL    HW210518   1.266   3.741   5.773
 3211SOL     OW10519   1.280   0.162   6.269
 3211SOL    HW110520   1.282   0.258   6.274
 3211SOL    HW210521   1.286   0.133   6.360
 3212SOL     OW10522   1.579   3.926   6.466
 3212SOL    HW110523   1.530   3.933   6.547
 3212SOL    HW210524   1.581   0.015   6.432
 3213SOL     OW10525   0.234   3.947   8.411
 3213SOL    HW110526   0.255   3.959   8.504
 3213SOL    HW210527   0.140   3.964   8.405
 3214SOL     OW10528   0.010   0.106   8.073
 3214SOL    HW110529   3.926   0.089   8.114
 3214SOL    HW210530   0.012   0.046   7.998
 3215SOL     OW10531   1.777   0.319   7.638
 3215SOL    HW110532   1.704   0.296   7.581
 3215SOL    HW210533   1.736   0.336   7.723
 3216SOL     OW10534   0.440   0.098   8.958
 3216SOL    HW110535   0.511   0.059   8.907
 3216SOL    HW210536   0.363   0.046   8.934
 3217SOL     OW10537   1.596   3.849   8.909
 3217SOL    HW110538   1.602   3.935   8.867
 3217SOL    HW210539   1.579   3.869   9.001
 3218SOL     OW10540   0.806   3.729   7.953
 3218SOL    HW110541   0.832   3.821   7.947
 3218SOL    HW210542   0.710   3.732   7.963
 3219SOL     OW10543   1.267   0.062   8.387
 3219SOL    HW110544   1.196   0.008   8.353
 3219SOL    HW210545   1.323   0.002   8.435
 3220SOL     OW10546   0.554   3.905   8.339
 3220SOL    HW110547   0.552   3.925   8.432
 3220SOL    HW210548   0.550   3.990   8.296
 3221SOL     OW10549   0.192   3.979   8.946
 3221SOL    HW110550   0.103   0.014   8.949
 3221SOL    HW210551   0.187   3.897   8.995
 3222SOL     OW10552   1.407   3.832   7.880
 3222SOL    HW110553   1.398   3.799   7.790
 3222SOL    HW210554   1.501   3.825   7.899
 3223SOL     OW10555   1.533   3.939   9.170
 3223SOL    HW110556   1.559   3.941   9.262
 3223SOL    HW210557   1.465   3.872   9.166
 3224SOL     OW10558   0.627   3.850   7.574
 3224SOL    HW110559   0.717   3.820   7.575
 3224SOL    HW210560   0.586   3.801   7.502
 3225SOL     OW10561   0.772   3.956   9.191
 3225SOL    HW110562   0.829   3.928   9.263
 3225SOL    HW210563   0.687   3.972   9.232
 3226SOL     OW10564   0.535   3.785   7.962
 3226SOL    HW110565   0.483   3.786   8.042
 3226SOL    HW210566   0.544   3.878   7.938
 3227SOL     OW10567   0.287   3.759   7.625
 3227SOL    HW110568   0.329   3.844   7.615
 3227SOL    HW210569   0.353   3.703   7.667
 3228SOL     OW10570   0.563   3.944   8.615
 3228SOL    HW110571   0.604   3.873   8.664
 3228SOL    HW210572   0.471   3.942   8.643
 3229SOL     OW10573   1.020   3.767   8.183
 3229SOL    HW110574   0.955   3.755   8.114
 3229SOL    HW210575   0.997   3.702   8.249
 3230SOL     OW10576   0.924   3.803   8.846
 3230SOL    HW110577   0.952   3.782   8.757
 3230SOL    HW210578   0.997   3.851   8.884
 3231SOL     OW10579   1.267   0.074   8.713
 3231SOL    HW110580   1.280   0.143   8.779
 3231SOL    HW210581   1.200   0.109   8.655
 3232SOL     OW10582   0.507   3.751   9.204
 3232SOL    HW110583   0.453   3.705   9.139
 3232SOL    HW210584   0.477   3.841   9.201
 3233SOL     OW10585   0.304   3.924   8.703
 3233SOL    HW110586   0.258   3.941   8.785
 3233SOL    HW210587   0.289   3.831   8.686
 3234SOL     OW10588   1.577   3.952   7.568
 3234SOL    HW110589   1.515   3.899   7.617
 3234SOL    HW210590   1.604   0.020   7.629
 3235SOL     OW10591   1.164   3.922   8.922
 3235SOL    HW110592   1.167   3.997   8.981
 3235SOL    HW210593   1.205   3.953   8.841
 3236SOL     OW10594   0.900   3.812   7.551
 3236SOL    HW110595   0.960   3.771   7.489
 3236SOL    HW210596   0.940   3.796   7.637
 3237SOL     OW10597   1.710   3.856   7.946
 3237SOL    HW110598   1.788   3.843   7.892
 3237SOL    HW210599   1.700   3.774   7.994
 3238SOL     OW10600   1.836   3.880   8.420
 3238SOL    HW110601   1.871   3.797   8.387
 3238SOL    HW210602   1.755   3.894   8.370
 3239SOL     OW10603   0.677   3.909   8.938
 3239SOL    HW110604   0.760   3.901   8.891
 3239SOL    HW210605   0.702   3.931   9.027
 3240SOL     OW10606   0.071   0.026   7.434
 3240SOL    HW110607   3.976   0.026   7.450
 3240SOL    HW210608   0.100   0.113   7.461
 3241SOL     OW10609   0.107   3.916   7.818
 3241SOL    HW110610   0.081   3.998   7.777
 3241SOL    HW210611   0.186   3.889   7.771
 3242SOL     OW10612   1.193   0.011   7.914
 3242SOL    HW110613   1.262   3.944   7.913
 3242SOL    HW210614   1.214   0.065   7.990
 3243SOL     OW10615   1.786   0.041   9.088
 3243SOL    HW110616   1.759   0.075   9.003
 3243SOL    HW210617   1.706   0.003   9.125
 3244SOL     OW10618   1.816   3.913   8.687
 3244SOL    HW110619   1.821   3.822   8.716
 3244SOL    HW210620   1.822   3.907   8.592
 3245SOL     OW10621   1.439   3.932   8.565
 3245SOL    HW110622   1.472   3.854   8.610
 3245SOL    HW210623   1.381   3.974   8.628
 3246SOL     OW10624   1.016   3.736   8.596
 3246SOL    HW110625   0.958   3.681   8.543
 3246SOL    HW210626   1.101   3.693   8.591
 3247SOL     OW10627   1.353   3.770   7.610
 3247SOL    HW110628   1.385   3.702   7.551
 3247SOL    HW210629   1.265   3.741   7.635
 3248SOL     OW10630   1.281   0.162   8.131
 3248SOL    HW110631   1.282   0.258   8.136
 3248SOL    HW210632   1.286   0.133   8.222
 3249SOL     OW10633   1.580   3.927   8.328
 3249SOL    HW110634   1.530   3.932   8.409
 3249SOL    HW210635   1.581   0.016   8.294
 3250SOL     OW10636   0.234   3.946  10.273
 3250SOL    HW110637   0.255   3.959  10.365
 3250SOL    HW210638   0.140   3.964  10.267
 3251SOL     OW10639   0.010   0.105   9.935
 3251SOL    HW110640   3.926   0.089   9.977
 3251SOL    HW210641   0.012   0.046   9.859
 3252SOL     OW10642   1.777   0.319   9.500
 3252SOL    HW110643   1.704   0.296   9.442
 3252SOL    HW210644   1.736   0.337   9.585
 3253SOL     OW10645   0.440   0.098  10.820
 3253SOL    HW110646   0.511   0.059  10.769
 3253SOL    HW210647   0.363   0.046  10.796
 3254SOL     OW10648   1.596   3.849  10.771
 3254SOL    HW110649   1.603   3.934  10.729
 3254SOL    HW210650   1.579   3.869  10.863
 3255SOL     OW10651   0.806   3.729   9.815
 3255SOL    HW110652   0.832   3.821   9.809
 3255SOL    HW210653   0.710   3.732   9.825
 3256SOL     OW10654   1.267   0.062  10.249
 3256SOL    HW110655   1.196   0.008  10.215
 3256SOL    HW210656   1.323   0.002  10.296
 3257SOL     OW10657   0.554   3.905  10.201
 3257SOL    HW110658   0.552   3.925  10.294
 3257SOL    HW210659   0.550   3.990  10.158
 3258SOL     OW10660   0.192   3.979  10.808
 3258SOL    HW110661   0.103   0.014  10.811
 3258SOL    HW210662   0.187   3.897  10.857
 3259SOL     OW10663   1.407   3.832   9.742
 3259SOL    HW110664   1.398   3.799   9.652
 3259SOL    HW210665   1.500   3.825   9.761
 3260SOL     OW10666   1.533   3.939  11.032
 3260SOL    HW110667   1.559   3.942  11.124
 3260SOL    HW210668   1.465   3.872  11.028
 3261SOL     OW10669   0.627   3.850   9.436
 3261SOL    HW110670   0.718   3.820   9.437
 3261SOL    HW210671   0.587   3.801   9.364
 3262SOL     OW10672   0.772   3.955  11.053
 3262SOL    HW110673   0.829   3.928  11.125
 3262SOL    HW210674   0.687   3.972  11.094
 3263SOL     OW10675   0.535   3.785   9.824
 3263SOL    HW110676   0.483   3.786   9.904
 3263SOL    HW210677   0.544   3.878   9.800
 3264SOL     OW10678   0.287   3.758   9.487
 3264SOL    HW110679   0.330   3.844   9.477
 3264SOL    HW210680   0.353   3.703   9.529
 3265SOL     OW10681   0.563   3.943  10.477
 3265SOL    HW110682   0.605   3.873  10.527
 3265SOL    HW210683   0.471   3.942  10.505
 3266SOL     OW10684   1.020   3.767  10.045
 3266SOL    HW110685   0.955   3.755   9.976
 3266SOL    HW210686   0.997   3.702  10.111
 3267SOL     OW10687   0.924   3.802  10.708
 3267SOL    HW110688   0.952   3.782  10.619
 3267SOL    HW210689   0.997   3.851  10.746
 3268SOL     OW10690   1.267   0.074  10.575
 3268SOL    HW110691   1.280   0.143  10.641
 3268SOL    HW210692   1.200   0.109  10.517
 3269SOL     OW10693   0.507   3.751  11.066
 3269SOL    HW110694   0.453   3.705  11.001
 3269SOL    HW210695   0.477   3.841  11.063
 3270SOL     OW10696   0.304   3.924  10.565
 3270SOL    HW110697   0.258   3.941  10.647
 3270SOL    HW210698   0.288   3.831  10.548
 3271SOL     OW10699   1.577   3.953   9.430
 3271SOL    HW110700   1.516   3.898   9.479
 3271SOL    HW210701   1.606   0.019   9.493
 3272SOL     OW10702   1.164   3.922  10.784
 3272SOL    HW110703   1.167   3.997  10.843
 3272SOL    HW210704   1.205   3.953  10.703
 3273SOL     OW10705   0.900   3.812   9.413
 3273SOL    HW110706   0.960   3.771   9.350
 3273SOL    HW210707   0.941   3.796   9.498
 3274SOL     OW10708   1.710   3.856   9.808
 3274SOL    HW110709   1.788   3.843   9.754
 3274SOL    HW210710   1.700   3.774   9.856
 3275SOL     OW10711   1.836   3.880  10.282
 3275SOL    HW110712   1.871   3.798  10.249
 3275SOL    HW210713   1.756   3.894  10.232
 3276SOL     OW10714   0.677   3.909  10.800
 3276SOL    HW110715   0.760   3.901  10.752
 3276SOL    HW210716   0.702   3.931  10.889
 3277SOL     OW10717   0.071   0.026   9.295
 3277SOL    HW110718   3.977   0.026   9.312
 3277SOL    HW210719   0.100   0.113   9.323
 3278SOL     OW10720   0.107   3.916   9.680
 3278SOL    HW110721   0.081   3.999   9.639
 3278SOL    HW210722   0.186   3.890   9.633
 3279SOL     OW10723   1.193   0.011   9.776
 3279SOL    HW110724   1.262   3.944   9.775
 3279SOL    HW210725   1.214   0.065   9.852
 3280SOL     OW10726   1.786   0.040  10.950
 3280SOL    HW110727   1.759   0.075  10.865
 3280SOL    HW210728   1.706   0.003  10.987
 3281SOL     OW10729   1.816   3.913  10.549
 3281SOL    HW110730   1.822   3.822  10.578
 3281SOL    HW210731   1.822   3.907  10.454
 3282SOL     OW10732   1.439   3.932  10.427
 3282SOL    HW110733   1.472   3.854  10.473
 3282SOL    HW210734   1.381   3.974  10.490
 3283SOL     OW10735   1.016   3.736  10.458
 3283SOL    HW110736   0.958   3.681  10.405
 3283SOL    HW210737   1.101   3.693  10.453
 3284SOL     OW10738   1.353   3.770   9.472
 3284SOL    HW110739   1.386   3.702   9.414
 3284SOL    HW210740   1.266   3.741   9.497
 3285SOL     OW10741   1.281   0.162   9.993
 3285SOL    HW110742   1.282   0.258   9.998
 3285SOL    HW210743   1.286   0.133  10.084
 3286SOL     OW10744   1.580   3.927  10.190
 3286SOL    HW110745   1.530   3.932  10.271
 3286SOL    HW210746   1.581   0.016  10.156
 3287SOL     OW10747   0.234   3.947  12.135
 3287SOL    HW110748   0.255   3.959  12.228
 3287SOL    HW210749   0.140   3.964  12.129
 3288SOL     OW10750   0.010   0.105  11.797
 3288SOL    HW110751   3.926   0.089  11.839
 3288SOL    HW210752   0.012   0.046  11.721
 3289SOL     OW10753   1.777   0.319  11.362
 3289SOL    HW110754   1.704   0.296  11.305
 3289SOL    HW210755   1.736   0.337  11.447
 3290SOL     OW10756   0.440   0.097  12.683
 3290SOL    HW110757   0.511   0.060  12.631
 3290SOL    HW210758   0.363   0.046  12.658
 3291SOL     OW10759   1.596   3.849  12.633
 3291SOL    HW110760   1.602   3.934  12.591
 3291SOL    HW210761   1.579   3.869  12.725
 3292SOL     OW10762   0.806   3.729  11.677
 3292SOL    HW110763   0.832   3.821  11.671
 3292SOL    HW210764   0.710   3.732  11.687
 3293SOL     OW10765   1.266   0.062  12.111
 3293SOL    HW110766   1.196   0.008  12.077
 3293SOL    HW210767   1.323   0.002  12.158
 3294SOL     OW10768   0.554   3.905  12.063
 3294SOL    HW110769   0.552   3.925  12.156
 3294SOL    HW210770   0.550   3.990  12.020
 3295SOL     OW10771   0.191   3.979  12.670
 3295SOL    HW110772   0.102   0.014  12.673
 3295SOL    HW210773   0.186   3.897  12.718
 3296SOL     OW10774   1.407   3.832  11.604
 3296SOL    HW110775   1.398   3.799  11.514
 3296SOL    HW210776   1.500   3.825  11.623
 3297SOL     OW10777   1.533   3.939  12.894
 3297SOL    HW110778   1.558   3.944  12.987
 3297SOL    HW210779   1.465   3.872  12.891
 3298SOL     OW10780   0.627   3.850  11.298
 3298SOL    HW110781   0.718   3.820  11.299
 3298SOL    HW210782   0.587   3.801  11.226
 3299SOL     OW10783   0.771   3.955  12.915
 3299SOL    HW110784   0.829   3.929  12.987
 3299SOL    HW210785   0.686   3.970  12.957
 3300SOL     OW10786   0.534   3.785  11.686
 3300SOL    HW110787   0.483   3.786  11.766
 3300SOL    HW210788   0.544   3.878  11.662
 3301SOL     OW10789   0.287   3.758  11.349
 3301SOL    HW110790   0.330   3.844  11.339
 3301SOL    HW210791   0.353   3.703  11.391
 3302SOL     OW10792   0.563   3.944  12.339
 3302SOL    HW110793   0.605   3.873  12.388
 3302SOL    HW210794   0.471   3.941  12.367
 3303SOL     OW10795   1.020   3.767  11.907
 3303SOL    HW110796   0.955   3.755  11.838
 3303SOL    HW210797   0.997   3.702  11.974
 3304SOL     OW10798   0.924   3.803  12.570
 3304SOL    HW110799   0.952   3.782  12.481
 3304SOL    HW210800   0.997   3.851  12.608
 3305SOL     OW10801   1.267   0.074  12.437
 3305SOL    HW110802   1.280   0.143  12.503
 3305SOL    HW210803   1.200   0.109  12.378
 3306SOL     OW10804   0.506   3.751  12.928
 3306SOL    HW110805   0.453   3.705  12.863
 3306SOL    HW210806   0.476   3.842  12.923
 3307SOL     OW10807   0.304   3.924  12.427
 3307SOL    HW110808   0.257   3.942  12.509
 3307SOL    HW210809   0.289   3.831  12.410
 3308SOL     OW10810   1.577   3.953  11.291
 3308SOL    HW110811   1.517   3.898  11.341
 3308SOL    HW210812   1.606   0.019  11.354
 3309SOL     OW10813   1.164   3.922  12.645
 3309SOL    HW110814   1.168   3.997  12.705
 3309SOL    HW210815   1.205   3.953  12.565
 3310SOL     OW10816   0.900   3.812  11.275
 3310SOL    HW110817   0.960   3.771  11.212
 3310SOL    HW210818   0.941   3.796  11.360
 3311SOL     OW10819   1.710   3.856  11.670
 3311SOL    HW110820   1.788   3.843  11.616
 3311SOL    HW210821   1.699   3.774  11.718
 3312SOL     OW10822   1.836   3.880  12.144
 3312SOL    HW110823   1.871   3.798  12.111
 3312SOL    HW210824   1.756   3.894  12.094
 3313SOL     OW10825   0.677   3.909  12.662
 3313SOL    HW110826   0.760   3.901  12.615
 3313SOL    HW210827   0.702   3.931  12.751
 3314SOL     OW10828   0.071   0.026  11.157
 3314SOL    HW110829   3.977   0.026  11.174
 3314SOL    HW210830   0.100   0.113  11.184
 3315SOL     OW10831   0.107   3.916  11.541
 3315SOL    HW110832   0.081   3.999  11.501
 3315SOL    HW210833   0.186   3.890  11.495
 3316SOL     OW10834   1.193   0.011  11.638
 3316SOL    HW110835   1.262   3.944  11.637
 3316SOL    HW210836   1.214   0.065  11.714
 3317SOL     OW10837   1.786   0.041  12.811
 3317SOL    HW110838   1.758   0.075  12.726
 3317SOL    HW210839   1.706   0.003  12.848
 3318SOL     OW10840   1.816   3.913  12.411
 3318SOL    HW110841   1.822   3.822  12.441
 3318SOL    HW210842   1.822   3.907  12.316
 3319SOL     OW10843   1.439   3.932  12.289
 3319SOL    HW110844   1.472   3.854  12.335
 3319SOL    HW210845   1.381   3.974  12.352
 3320SOL     OW10846   1.016   3.736  12.320
 3320SOL    HW110847   0.958   3.681  12.267
 3320SOL    HW210848   1.101   3.693  12.315
 3321SOL     OW10849   1.353   3.770  11.334
 3321SOL    HW110850   1.386   3.702  11.276
 3321SOL    HW210851   1.266   3.741  11.359
 3322SOL     OW10852   1.280   0.162  11.855
 3322SOL    HW110853   1.282   0.258  11.860
 3322SOL    HW210854   1.286   0.133  11.946
 3323SOL     OW10855   1.580   3.927  12.052
 3323SOL    HW110856   1.530   3.932  12.133
 3323SOL    HW210857   1.581   0.016  12.018
 3324SOL     OW10858   0.010   0.102  13.645
 3324SOL    HW110859   3.916   0.091  13.656
 3324SOL    HW210860   0.032   0.047  13.569
 3325SOL     OW10861   1.777   0.321  13.223
 3325SOL    HW110862   1.701   0.301  13.168
 3325SOL    HW210863   1.741   0.325  13.312
 3326SOL     OW10864   1.613   0.171  13.766
 3326SOL    HW110865   1.524   0.147  13.737
 3326SOL    HW210866   1.604   0.262  13.795
 3327SOL     OW10867   0.808   3.730  13.539
 3327SOL    HW110868   0.832   3.822  13.533
 3327SOL    HW210869   0.713   3.730  13.550
 3328SOL     OW10870   1.405   3.833  13.463
 3328SOL    HW110871   1.399   3.799  13.373
 3328SOL    HW210872   1.498   3.829  13.484
 3329SOL     OW10873   0.625   3.851  13.158
 3329SOL    HW110874   0.716   3.821  13.163
 3329SOL    HW210875   0.587   3.800  13.087
 3330SOL     OW10876   0.535   3.779  13.547
 3330SOL    HW110877   0.484   3.769  13.628
 3330SOL    HW210878   0.538   3.874  13.534
 3331SOL     OW10879   0.287   3.759  13.213
 3331SOL    HW110880   0.339   3.838  13.194
 3331SOL    HW210881   0.349   3.700  13.256
 3332SOL     OW10882   1.012   3.762  13.772
 3332SOL    HW110883   0.955   3.757  13.695
 3332SOL    HW210884   0.992   3.683  13.822
 3333SOL     OW10885   1.575   3.959  13.155
 3333SOL    HW110886   1.524   3.896  13.206
 3333SOL    HW210887   1.625   0.008  13.220
 3334SOL     OW10888   0.900   3.812  13.138
 3334SOL    HW110889   0.959   3.771  13.074
 3334SOL    HW210890   0.940   3.794  13.223
 3335SOL     OW10891   1.729   3.859  13.557
 3335SOL    HW110892   1.796   3.845  13.489
 3335SOL    HW210893   1.711   3.771  13.591
 3336SOL     OW10894   1.847   3.894   0.055
 3336SOL    HW110895   1.871   3.801   0.053
 3336SOL    HW210896   1.757   3.895   0.085
 3337SOL     OW10897   0.072   0.024  13.021
 3337SOL    HW110898   3.978   0.024  13.037
 3337SOL    HW210899   0.102   0.110  13.049
 3338SOL     OW10900   0.114   3.923  13.409
 3338SOL    HW110901   0.088   3.998  13.354
 3338SOL    HW210902   0.187   3.884  13.362
 3339SOL     OW10903   1.187   0.002  13.517
 3339SOL    HW110904   1.260   3.944  13.497
 3339SOL    HW210905   1.221   0.060  13.585
 3340SOL     OW10906   1.354   3.769  13.195
 3340SOL    HW110907   1.386   3.701  13.137
 3340SOL    HW210908   1.266   3.741  13.221
 3341SOL     OW10909   1.310   0.156  13.736
 3341SOL    HW110910   1.279   0.244  13.716
 3341SOL    HW210911   1.292   0.145  13.829
 3342SOL     OW10912   2.097   0.645   0.118
 3342SOL    HW110913   2.010   0.616   0.146
 3342SOL    HW210914   2.112   0.598   0.036
 3343SOL     OW10915   2.078   0.301   0.992
 3343SOL    HW110916   2.116   0.257   1.068
 3343SOL    HW210917   1.994   0.258   0.979
 3344SOL     OW10918   1.872   0.399   0.633
 3344SOL    HW110919   1.784   0.412   0.670
 3344SOL    HW210920   1.861   0.327   0.571
 3345SOL     OW10921   2.430   1.291   1.177
 3345SOL    HW110922   2.343   1.295   1.135
 3345SOL    HW210923   2.447   1.380   1.206
 3346SOL     OW10924   3.426   1.513   0.707
 3346SOL    HW110925   3.382   1.490   0.789
 3346SOL    HW210926   3.357   1.516   0.642
 3347SOL     OW10927   2.995   0.698   0.697
 3347SOL    HW110928   3.042   0.780   0.685
 3347SOL    HW210929   2.947   0.710   0.780
 3348SOL     OW10930   3.617   0.631   0.224
 3348SOL    HW110931   3.624   0.620   0.129
 3348SOL    HW210932   3.629   0.542   0.259
 3349SOL     OW10933   2.614   1.140   1.044
 3349SOL    HW110934   2.546   1.176   1.101
 3349SOL    HW210935   2.651   1.216   0.999
 3350SOL     OW10936   2.732   0.769   1.824
 3350SOL    HW110937   2.718   0.840   1.887
 3350SOL    HW210938   2.755   0.814   1.742
 3351SOL     OW10939   2.547   0.999   0.647
 3351SOL    HW110940   2.613   0.990   0.716
 3351SOL    HW210941   2.479   1.053   0.685
 3352SOL     OW10942   2.576   1.149   1.815
 3352SOL    HW110943   2.623   1.227   1.845
 3352SOL    HW210944   2.493   1.183   1.781
 3353SOL     OW10945   2.189   1.422   1.067
 3353SOL    HW110946   2.117   1.386   1.017
 3353SOL    HW210947   2.239   1.474   1.003
 3354SOL     OW10948   3.321   1.501   1.358
 3354SOL    HW110949   3.375   1.580   1.367
 3354SOL    HW210950   3.256   1.508   1.427
 3355SOL     OW10951   2.307   0.393   1.493
 3355SOL    HW110952   2.397   0.362   1.492
 3355SOL    HW210953   2.254   0.313   1.501
 3356SOL     OW10954   3.472   0.450   0.735
 3356SOL    HW110955   3.405   0.487   0.678
 3356SOL    HW210956   3.497   0.522   0.793
 3357SOL     OW10957   2.109   1.698   0.490
 3357SOL    HW110958   2.061   1.780   0.498
 3357SOL    HW210959   2.175   1.715   0.423
 3358SOL     OW10960   2.999   1.342   1.693
 3358SOL    HW110961   3.040   1.337   1.780
 3358SOL    HW210962   2.947   1.262   1.687
 3359SOL     OW10963   2.079   1.434   0.535
 3359SOL    HW110964   2.089   1.529   0.530
 3359SOL    HW210965   2.024   1.419   0.612
 3360SOL     OW10966   2.123   1.090   0.890
 3360SOL    HW110967   2.120   1.002   0.927
 3360SOL    HW210968   2.066   1.142   0.947
 3361SOL     OW10969   2.474   1.783   1.434
 3361SOL    HW110970   2.394   1.770   1.485
 3361SOL    HW210971   2.496   1.875   1.448
 3362SOL     OW10972   2.428   0.979   0.162
 3362SOL    HW110973   2.456   1.025   0.083
 3362SOL    HW210974   2.480   1.019   0.232
 3363SOL     OW10975   3.444   0.141   1.456
 3363SOL    HW110976   3.470   0.214   1.400
 3363SOL    HW210977   3.408   0.183   1.534
 3364SOL     OW10978   1.979   0.656   0.559
 3364SOL    HW110979   1.951   0.567   0.583
 3364SOL    HW210980   1.971   0.706   0.640
 3365SOL     OW10981   3.708   1.758   0.332
 3365SOL    HW110982   3.770   1.722   0.396
 3365SOL    HW210983   3.729   1.851   0.329
 3366SOL     OW10984   1.929   1.576   0.112
 3366SOL    HW110985   1.912   1.484   0.134
 3366SOL    HW210986   1.853   1.623   0.147
 3367SOL     OW10987   3.549   0.917   0.648
 3367SOL    HW110988   3.632   0.874   0.631
 3367SOL    HW210989   3.531   0.968   0.569
 3368SOL     OW10990   3.506   1.103   0.434
 3368SOL    HW110991   3.591   1.111   0.391
 3368SOL    HW210992   3.509   1.167   0.505
 3369SOL     OW10993   1.985   0.750   1.580
 3369SOL    HW110994   2.076   0.780   1.585
 3369SOL    HW210995   1.933   0.829   1.588
 3370SOL     OW10996   2.478   1.388   0.734
 3370SOL    HW110997   2.431   1.305   0.743
 3370SOL    HW210998   2.461   1.416   0.644
 3371SOL     OW10999   3.149   1.237   1.422
 3371SOL    HW111000   3.181   1.170   1.362
 3371SOL    HW211001   3.208   1.232   1.498
 3372SOL     OW11002   2.684   0.003   0.520
 3372SOL    HW111003   2.729   0.083   0.493
 3372SOL    HW211004   2.591   0.026   0.520
 3373SOL     OW11005   2.051   0.962   1.273
 3373SOL    HW111006   2.136   0.922   1.259
 3373SOL    HW211007   1.991   0.912   1.218
 3374SOL     OW11008   3.392   0.996   0.206
 3374SOL    HW111009   3.323   0.938   0.239
 3374SOL    HW211010   3.432   1.034   0.284
 3375SOL     OW11011   3.048   1.809   1.624
 3375SOL    HW111012   3.056   1.868   1.549
 3375SOL    HW211013   3.065   1.722   1.588
 3376SOL     OW11014   2.219   0.253   1.839
 3376SOL    HW111015   2.263   0.338   1.839
 3376SOL    HW211016   2.126   0.274   1.843
 3377SOL     OW11017   3.328   1.420   0.949
 3377SOL    HW111018   3.261   1.435   1.016
 3377SOL    HW211019   3.317   1.328   0.924
 3378SOL     OW11020   3.521   1.745   0.584
 3378SOL    HW111021   3.499   1.720   0.494
 3378SOL    HW211022   3.499   1.667   0.636
 3379SOL     OW11023   2.458   0.717   0.266
 3379SOL    HW111024   2.460   0.800   0.218
 3379SOL    HW211025   2.398   0.733   0.339
 3380SOL     OW11026   3.137   0.369   0.940
 3380SOL    HW111027   3.050   0.330   0.948
 3380SOL    HW211028   3.194   0.307   0.985
 3381SOL     OW11029   3.427   1.730   0.314
 3381SOL    HW111030   3.523   1.730   0.310
 3381SOL    HW211031   3.400   1.696   0.229
 3382SOL     OW11032   2.658   0.616   1.452
 3382SOL    HW111033   2.629   0.590   1.540
 3382SOL    HW211034   2.619   0.550   1.394
 3383SOL     OW11035   3.254   0.476   1.677
 3383SOL    HW111036   3.260   0.521   1.761
 3383SOL    HW211037   3.311   0.400   1.687
 3384SOL     OW11038   2.814   0.887   1.584
 3384SOL    HW111039   2.869   0.818   1.547
 3384SOL    HW211040   2.766   0.922   1.509
 3385SOL     OW11041   2.854   0.402   1.238
 3385SOL    HW111042   2.770   0.423   1.277
 3385SOL    HW211043   2.834   0.375   1.149
 3386SOL     OW11044   2.914   0.702   0.428
 3386SOL    HW111045   2.931   0.694   0.522
 3386SOL    HW211046   2.831   0.657   0.415
 3387SOL     OW11047   1.950   0.824   0.775
 3387SOL    HW111048   2.029   0.815   0.827
 3387SOL    HW211049   1.905   0.900   0.812
 3388SOL     OW11050   2.736   0.360   0.221
 3388SOL    HW111051   2.773   0.418   0.155
 3388SOL    HW211052   2.739   0.273   0.182
 3389SOL     OW11053   3.570   0.573   1.829
 3389SOL    HW111054   3.532   0.648   1.782
 3389SOL    HW211055   3.595   0.512   1.761
 3390SOL     OW11056   3.239   1.141   0.542
 3390SOL    HW111057   3.318   1.130   0.489
 3390SOL    HW211058   3.187   1.205   0.494
 3391SOL     OW11059   2.420   0.198   0.881
 3391SOL    HW111060   2.423   0.218   0.975
 3391SOL    HW211061   2.416   0.284   0.839
 3392SOL     OW11062   2.866   1.442   0.475
 3392SOL    HW111063   2.834   1.516   0.424
 3392SOL    HW211064   2.842   1.463   0.565
 3393SOL     OW11065   2.249   1.814   0.827
 3393SOL    HW111066   2.252   1.720   0.840
 3393SOL    HW211067   2.325   1.848   0.875
 3394SOL     OW11068   3.667   1.062   0.868
 3394SOL    HW111069   3.613   1.037   0.793
 3394SOL    HW211070   3.605   1.065   0.941
 3395SOL     OW11071   3.090   1.539   1.513
 3395SOL    HW111072   3.077   1.467   1.574
 3395SOL    HW211073   3.023   1.526   1.446
 3396SOL     OW11074   2.171   0.938   0.231
 3396SOL    HW111075   2.263   0.950   0.207
 3396SOL    HW211076   2.158   0.843   0.226
 3397SOL     OW11077   3.340   0.748   0.731
 3397SOL    HW111078   3.336   0.706   0.816
 3397SOL    HW211079   3.418   0.803   0.735
 3398SOL     OW11080   2.333   1.265   1.744
 3398SOL    HW111081   2.306   1.267   1.652
 3398SOL    HW211082   2.250   1.261   1.793
 3399SOL     OW11083   2.984   1.780   0.230
 3399SOL    HW111084   2.922   1.734   0.285
 3399SOL    HW211085   3.014   1.715   0.166
 3400SOL     OW11086   2.031   0.274   1.499
 3400SOL    HW111087   1.976   0.352   1.489
 3400SOL    HW211088   2.038   0.262   1.594
 3401SOL     OW11089   3.494   1.374   0.088
 3401SOL    HW111090   3.462   1.459   0.057
 3401SOL    HW211091   3.424   1.312   0.067
 3402SOL     OW11092   2.332   1.739   0.327
 3402SOL    HW111093   2.375   1.801   0.386
 3402SOL    HW211094   2.396   1.722   0.258
 3403SOL     OW11095   3.298   0.140   0.392
 3403SOL    HW111096   3.256   0.054   0.397
 3403SOL    HW211097   3.382   0.128   0.437
 3404SOL     OW11098   2.133   1.738   1.258
 3404SOL    HW111099   2.166   1.654   1.289
 3404SOL    HW211100   2.138   1.732   1.163
 3405SOL     OW11101   2.800   1.698   0.898
 3405SOL    HW111102   2.878   1.648   0.919
 3405SOL    HW211103   2.758   1.649   0.827
 3406SOL     OW11104   2.256   0.695   0.472
 3406SOL    HW111105   2.276   0.603   0.486
 3406SOL    HW211106   2.163   0.703   0.495
 3407SOL     OW11107   3.392   0.229   1.727
 3407SOL    HW111108   3.385   0.255   1.819
 3407SOL    HW211109   3.373   0.136   1.726
 3408SOL     OW11110   2.483   0.103   0.119
 3408SOL    HW111111   2.578   0.102   0.127
 3408SOL    HW211112   2.466   0.132   0.030
 3409SOL     OW11113   2.637   0.282   1.768
 3409SOL    HW111114   2.709   0.219   1.772
 3409SOL    HW211115   2.580   0.256   1.840
 3410SOL     OW11116   2.739   1.522   1.193
 3410SOL    HW111117   2.723   1.485   1.106
 3410SOL    HW211118   2.809   1.468   1.230
 3411SOL     OW11119   3.202   0.587   1.430
 3411SOL    HW111120   3.232   0.559   1.517
 3411SOL    HW211121   3.236   0.676   1.421
 3412SOL     OW11122   2.679   1.392   0.943
 3412SOL    HW111123   2.763   1.380   0.899
 3412SOL    HW211124   2.615   1.396   0.871
 3413SOL     OW11125   2.792   0.511   0.900
 3413SOL    HW111126   2.767   0.504   0.808
 3413SOL    HW211127   2.818   0.423   0.925
 3414SOL     OW11128   2.411   0.052   0.499
 3414SOL    HW111129   2.335   0.059   0.557
 3414SOL    HW211130   2.403   0.129   0.442
 3415SOL     OW11131   3.291   1.206   0.044
 3415SOL    HW111132   3.310   1.126   0.093
 3415SOL    HW211133   3.200   1.226   0.065
 3416SOL     OW11134   2.200   0.007   0.186
 3416SOL    HW111135   2.173   0.087   0.142
 3416SOL    HW211136   2.287   0.028   0.222
 3417SOL     OW11137   2.805   0.249   0.466
 3417SOL    HW111138   2.773   0.288   0.384
 3417SOL    HW211139   2.900   0.252   0.458
 3418SOL     OW11140   2.942   0.684   1.458
 3418SOL    HW111141   2.872   0.619   1.465
 3418SOL    HW211142   3.022   0.632   1.453
 3419SOL     OW11143   3.083   1.572   0.795
 3419SOL    HW111144   3.099   1.636   0.727
 3419SOL    HW211145   3.153   1.585   0.858
 3420SOL     OW11146   2.333   1.152   0.730
 3420SOL    HW111147   2.264   1.132   0.794
 3420SOL    HW211148   2.290   1.139   0.645
 3421SOL     OW11149   3.129   1.794   0.609
 3421SOL    HW111150   3.177   1.857   0.555
 3421SOL    HW211151   3.062   1.848   0.652
 3422SOL     OW11152   2.861   0.531   0.053
 3422SOL    HW111153   2.860   0.530  13.857
 3422SOL    HW211154   2.952   0.552   0.076
 3423SOL     OW11155   1.944   0.550   1.396
 3423SOL    HW111156   2.035   0.552   1.367
 3423SOL    HW211157   1.937   0.623   1.458
 3424SOL     OW11158   2.425   0.231   1.161
 3424SOL    HW111159   2.449   0.139   1.170
 3424SOL    HW211160   2.336   0.236   1.194
 3425SOL     OW11161   2.732   0.462   0.638
 3425SOL    HW111162   2.687   0.516   0.574
 3425SOL    HW211163   2.753   0.381   0.591
 3426SOL     OW11164   2.858   0.040   0.779
 3426SOL    HW111165   2.818   0.068   0.697
 3426SOL    HW211166   2.869   3.945   0.769
 3427SOL     OW11167   3.301   1.161   0.858
 3427SOL    HW111168   3.230   1.098   0.856
 3427SOL    HW211169   3.326   1.172   0.766
 3428SOL     OW11170   3.326   0.608   0.974
 3428SOL    HW111171   3.272   0.528   0.979
 3428SOL    HW211172   3.386   0.601   1.049
 3429SOL     OW11173   3.724   0.825   0.374
 3429SOL    HW111174   3.763   0.767   0.440
 3429SOL    HW211175   3.679   0.765   0.314
 3430SOL     OW11176   2.349   1.407   0.156
 3430SOL    HW111177   2.275   1.375   0.207
 3430SOL    HW211178   2.329   1.381   0.066
 3431SOL     OW11179   3.529   1.264   0.646
 3431SOL    HW111180   3.624   1.268   0.655
 3431SOL    HW211181   3.500   1.354   0.660
 3432SOL     OW11182   3.283   0.590   0.087
 3432SOL    HW111183   3.214   0.578   0.152
 3432SOL    HW211184   3.333   0.509   0.090
 3433SOL     OW11185   2.379   0.254   0.323
 3433SOL    HW111186   2.422   0.209   0.251
 3433SOL    HW211187   2.358   0.341   0.287
 3434SOL     OW11188   3.613   1.234   1.566
 3434SOL    HW111189   3.701   1.199   1.549
 3434SOL    HW211190   3.629   1.323   1.596
 3435SOL     OW11191   2.919   1.353   1.332
 3435SOL    HW111192   2.844   1.322   1.383
 3435SOL    HW211193   2.994   1.312   1.374
 3436SOL     OW11194   3.468   1.628   1.656
 3436SOL    HW111195   3.460   1.662   1.567
 3436SOL    HW211196   3.548   1.577   1.655
 3437SOL     OW11197   2.993   1.206   1.103
 3437SOL    HW111198   2.934   1.244   1.168
 3437SOL    HW211199   2.962   1.240   1.020
 3438SOL     OW11200   3.490   1.096   1.075
 3438SOL    HW111201   3.481   1.158   1.148
 3438SOL    HW211202   3.413   1.112   1.020
 3439SOL     OW11203   2.774   0.116   1.401
 3439SOL    HW111204   2.794   0.089   1.312
 3439SOL    HW211205   2.855   0.158   1.432
 3440SOL     OW11206   2.846   1.115   1.724
 3440SOL    HW111207   2.755   1.132   1.746
 3440SOL    HW211208   2.844   1.037   1.668
 3441SOL     OW11209   2.577   1.058   0.377
 3441SOL    HW111210   2.562   1.040   0.470
 3441SOL    HW211211   2.652   1.003   0.353
 3442SOL     OW11212   2.283   0.816   1.252
 3442SOL    HW111213   2.351   0.824   1.318
 3442SOL    HW211214   2.247   0.728   1.264
 3443SOL     OW11215   3.128   0.375   1.276
 3443SOL    HW111216   3.162   0.453   1.320
 3443SOL    HW211217   3.041   0.400   1.246
 3444SOL     OW11218   2.208   1.114   0.486
 3444SOL    HW111219   2.205   1.186   0.424
 3444SOL    HW211220   2.215   1.035   0.432
 3445SOL     OW11221   2.416   0.532   0.857
 3445SOL    HW111222   2.430   0.591   0.783
 3445SOL    HW211223   2.481   0.559   0.922
 3446SOL     OW11224   3.110   1.346   0.398
 3446SOL    HW111225   3.166   1.419   0.424
 3446SOL    HW211226   3.023   1.370   0.430
 3447SOL     OW11227   3.146   1.459   1.148
 3447SOL    HW111228   3.202   1.463   1.225
 3447SOL    HW211229   3.091   1.383   1.162
 3448SOL     OW11230   3.438   0.633   0.492
 3448SOL    HW111231   3.395   0.693   0.552
 3448SOL    HW211232   3.473   0.689   0.422
 3449SOL     OW11233   2.222   1.493   1.320
 3449SOL    HW111234   2.207   1.464   1.230
 3449SOL    HW211235   2.315   1.516   1.323
 3450SOL     OW11236   2.279   0.744   1.602
 3450SOL    HW111237   2.341   0.789   1.544
 3450SOL    HW211238   2.321   0.660   1.620
 3451SOL     OW11239   3.466   0.778   1.683
 3451SOL    HW111240   3.381   0.821   1.677
 3451SOL    HW211241   3.519   0.821   1.616
 3452SOL     OW11242   2.876   0.132   1.780
 3452SOL    HW111243   2.925   0.205   1.743
 3452SOL    HW211244   2.859   0.073   1.706
 3453SOL     OW11245   2.350   0.034   1.762
 3453SOL    HW111246   2.353   0.047   1.667
 3453SOL    HW211247   2.291   0.102   1.794
 3454SOL     OW11248   2.445   0.874   1.031
 3454SOL    HW111249   2.476   0.964   1.033
 3454SOL    HW211250   2.389   0.866   1.108
 3455SOL     OW11251   3.215   0.859   1.026
 3455SOL    HW111252   3.131   0.847   0.983
 3455SOL    HW211253   3.258   0.774   1.019
 3456SOL     OW11254   3.079   0.550   0.267
 3456SOL    HW111255   3.085   0.470   0.320
 3456SOL    HW211256   3.023   0.608   0.319
 3457SOL     OW11257   2.162   0.209   1.243
 3457SOL    HW111258   2.120   0.238   1.324
 3457SOL    HW211259   2.150   0.114   1.242
 3458SOL     OW11260   1.907   1.333   1.292
 3458SOL    HW111261   1.936   1.264   1.352
 3458SOL    HW211262   1.979   1.397   1.293
 3459SOL     OW11263   2.584   0.632   1.052
 3459SOL    HW111264   2.660   0.619   0.995
 3459SOL    HW211265   2.555   0.721   1.033
 3460SOL     OW11266   3.594   0.957   1.862
 3460SOL    HW111267   3.551   0.895   1.803
 3460SOL    HW211268   3.530   0.972   1.932
 3461SOL     OW11269   2.184   0.056   0.651
 3461SOL    HW111270   2.164   0.149   0.663
 3461SOL    HW211271   2.146   0.013   0.728
 3462SOL     OW11272   3.437   0.389   0.390
 3462SOL    HW111273   3.419   0.327   0.461
 3462SOL    HW211274   3.431   0.475   0.431
 3463SOL     OW11275   2.891   0.759   0.958
 3463SOL    HW111276   2.885   0.776   1.052
 3463SOL    HW211277   2.864   0.668   0.949
 3464SOL     OW11278   2.845   1.567   1.719
 3464SOL    HW111279   2.829   1.610   1.636
 3464SOL    HW211280   2.888   1.484   1.696
 3465SOL     OW11281   3.705   1.499   1.598
 3465SOL    HW111282   3.728   1.528   1.510
 3465SOL    HW211283   3.786   1.509   1.649
 3466SOL     OW11284   2.214   0.916   1.808
 3466SOL    HW111285   2.295   0.936   1.855
 3466SOL    HW211286   2.240   0.853   1.741
 3467SOL     OW11287   3.388   0.271   0.144
 3467SOL    HW111288   3.326   0.199   0.148
 3467SOL    HW211289   3.394   0.303   0.234
 3468SOL     OW11290   3.151   0.832   0.055
 3468SOL    HW111291   3.198   0.749   0.061
 3468SOL    HW211292   3.168   0.864  13.867
 3469SOL     OW11293   2.929   1.337   0.855
 3469SOL    HW111294   2.933   1.265   0.792
 3469SOL    HW211295   2.989   1.403   0.820
 3470SOL     OW11296   2.170   0.810   0.945
 3470SOL    HW111297   2.263   0.831   0.940
 3470SOL    HW211298   2.167   0.719   0.977
 3471SOL     OW11299   2.198   0.536   1.014
 3471SOL    HW111300   2.157   0.451   0.999
 3471SOL    HW211301   2.274   0.537   0.956
 3472SOL     OW11302   2.995   0.381   1.697
 3472SOL    HW111303   2.946   0.435   1.758
 3472SOL    HW211304   3.081   0.421   1.692
 3473SOL     OW11305   3.013   0.226   1.481
 3473SOL    HW111306   3.004   0.280   1.560
 3473SOL    HW211307   3.038   0.288   1.412
 3474SOL     OW11308   1.882   1.305   0.176
 3474SOL    HW111309   1.797   1.316   0.132
 3474SOL    HW211310   1.875   1.220   0.220
 3475SOL     OW11311   2.360   1.568   0.911
 3475SOL    HW111312   2.426   1.635   0.930
 3475SOL    HW211313   2.404   1.508   0.850
 3476SOL     OW11314   2.841   0.788   1.224
 3476SOL    HW111315   2.897   0.769   1.298
 3476SOL    HW211316   2.755   0.753   1.249
 3477SOL     OW11317   1.895   0.547   1.117
 3477SOL    HW111318   1.970   0.521   1.063
 3477SOL    HW211319   1.929   0.547   1.206
 3478SOL     OW11320   2.065   0.526   1.712
 3478SOL    HW111321   2.136   0.506   1.651
 3478SOL    HW211322   2.021   0.602   1.673
 3479SOL     OW11323   3.242   0.936   1.657
 3479SOL    HW111324   3.263   1.030   1.655
 3479SOL    HW211325   3.237   0.910   1.565
 3480SOL     OW11326   2.677   0.580   0.375
 3480SOL    HW111327   2.687   0.503   0.319
 3480SOL    HW211328   2.604   0.628   0.335
 3481SOL     OW11329   3.501   0.602   1.183
 3481SOL    HW111330   3.491   0.541   1.256
 3481SOL    HW211331   3.588   0.581   1.147
 3482SOL     OW11332   2.088   1.560   1.739
 3482SOL    HW111333   2.049   1.591   1.821
 3482SOL    HW211334   2.115   1.470   1.758
 3483SOL     OW11335   2.570   0.453   1.256
 3483SOL    HW111336   2.519   0.376   1.231
 3483SOL    HW211337   2.561   0.513   1.182
 3484SOL     OW11338   2.789   1.678   1.469
 3484SOL    HW111339   2.761   1.642   1.384
 3484SOL    HW211340   2.783   1.773   1.457
 3485SOL     OW11341   2.297   0.493   0.230
 3485SOL    HW111342   2.370   0.553   0.244
 3485SOL    HW211343   2.228   0.547   0.192
 3486SOL     OW11344   2.003   1.140   1.469
 3486SOL    HW111345   2.006   1.092   1.551
 3486SOL    HW211346   2.021   1.075   1.402
 3487SOL     OW11347   3.184   1.045   1.222
 3487SOL    HW111348   3.207   0.982   1.154
 3487SOL    HW211349   3.116   1.099   1.182
 3488SOL     OW11350   3.177   0.857   0.327
 3488SOL    HW111351   3.102   0.825   0.378
 3488SOL    HW211352   3.152   0.844   0.236
 3489SOL     OW11353   3.642   1.741   1.157
 3489SOL    HW111354   3.697   1.769   1.084
 3489SOL    HW211355   3.613   1.653   1.133
 3490SOL     OW11356   3.103   1.734   1.110
 3490SOL    HW111357   3.185   1.756   1.066
 3490SOL    HW211358   3.110   1.640   1.129
 3491SOL     OW11359   1.952   1.252   1.027
 3491SOL    HW111360   1.922   1.274   1.116
 3491SOL    HW211361   1.874   1.217   0.984
 3492SOL     OW11362   2.542   1.664   1.732
 3492SOL    HW111363   2.488   1.744   1.737
 3492SOL    HW211364   2.605   1.682   1.662
 3493SOL     OW11365   2.758   0.103   0.134
 3493SOL    HW111366   2.799   0.091   0.048
 3493SOL    HW211367   2.768   0.018   0.177
 3494SOL     OW11368   3.554   0.124   0.484
 3494SOL    HW111369   3.636   0.135   0.435
 3494SOL    HW211370   3.553   0.031   0.508
 3495SOL     OW11371   3.252   1.571   0.486
 3495SOL    HW111372   3.315   1.606   0.422
 3495SOL    HW211373   3.204   1.649   0.517
 3496SOL     OW11374   3.138   0.927   0.671
 3496SOL    HW111375   3.212   0.868   0.682
 3496SOL    HW211376   3.172   0.999   0.618
 3497SOL     OW11377   2.672   1.274   1.427
 3497SOL    HW111378   2.644   1.314   1.509
 3497SOL    HW211379   2.603   1.296   1.364
 3498SOL     OW11380   2.551   1.581   0.183
 3498SOL    HW111381   2.528   1.642   0.113
 3498SOL    HW211382   2.487   1.510   0.175
 3499SOL     OW11383   3.482   1.727   1.391
 3499SOL    HW111384   3.537   1.732   1.313
 3499SOL    HW211385   3.469   1.818   1.417
 3500SOL     OW11386   3.704   0.182   0.970
 3500SOL    HW111387   3.729   0.098   0.932
 3500SOL    HW211388   3.617   0.200   0.933
 3501SOL     OW11389   2.125   0.316   0.716
 3501SOL    HW111390   2.039   0.351   0.694
 3501SOL    HW211391   2.124   0.307   0.812
 3502SOL     OW11392   3.083   1.600   0.035
 3502SOL    HW111393   3.071   1.509   0.062
 3502SOL    HW211394   3.040   1.606  13.850
 3503SOL     OW11395   2.686   1.006   1.373
 3503SOL    HW111396   2.729   1.002   1.287
 3503SOL    HW211397   2.684   1.099   1.394
 3504SOL     OW11398   2.783   0.910   0.287
 3504SOL    HW111399   2.853   0.951   0.236
 3504SOL    HW211400   2.827   0.840   0.337
 3505SOL     OW11401   3.348   1.645   0.067
 3505SOL    HW111402   3.255   1.626   0.057
 3505SOL    HW211403   3.384   1.636  13.879
 3506SOL     OW11404   2.230   1.294   1.503
 3506SOL    HW111405   2.228   1.365   1.439
 3506SOL    HW211406   2.153   1.241   1.481
 3507SOL     OW11407   3.463   1.280   1.277
 3507SOL    HW111408   3.531   1.272   1.345
 3507SOL    HW211409   3.406   1.350   1.310
 3508SOL     OW11410   2.917   1.108   0.708
 3508SOL    HW111411   2.846   1.057   0.746
 3508SOL    HW211412   2.981   1.043   0.680
 3509SOL     OW11413   2.877   0.249   0.969
 3509SOL    HW111414   2.867   0.198   0.888
 3509SOL    HW211415   2.872   0.183   1.039
 3510SOL     OW11416   2.467   1.489   0.480
 3510SOL    HW111417   2.512   1.440   0.412
 3510SOL    HW211418   2.399   1.537   0.434
 3511SOL     OW11419   3.582   0.394   1.372
 3511SOL    HW111420   3.654   0.457   1.372
 3511SOL    HW211421   3.614   0.321   1.318
 3512SOL     OW11422   2.131   1.319   0.298
 3512SOL    HW111423   2.049   1.332   0.251
 3512SOL    HW211424   2.119   1.365   0.382
 3513SOL     OW11425   1.975   1.027   1.719
 3513SOL    HW111426   1.899   1.002   1.772
 3513SOL    HW211427   2.049   0.988   1.765
 3514SOL     OW11428   2.555   0.255   1.501
 3514SOL    HW111429   2.622   0.200   1.460
 3514SOL    HW211430   2.582   0.261   1.593
 3515SOL     OW11431   1.902   0.439   0.008
 3515SOL    HW111432   1.872   0.350   0.023
 3515SOL    HW211433   1.900   0.449  13.813
 3516SOL     OW11434   3.287   0.856   1.398
 3516SOL    HW111435   3.238   0.919   1.345
 3516SOL    HW211436   3.376   0.859   1.362
 3517SOL     OW11437   1.942   0.145   0.368
 3517SOL    HW111438   1.913   0.227   0.327
 3517SOL    HW211439   2.028   0.129   0.328
 3518SOL     OW11440   3.048   1.345   0.122
 3518SOL    HW111441   2.954   1.335   0.110
 3518SOL    HW211442   3.062   1.333   0.216
 3519SOL     OW11443   2.483   0.829   1.434
 3519SOL    HW111444   2.540   0.905   1.419
 3519SOL    HW211445   2.544   0.755   1.443
 3520SOL     OW11446   3.344   1.782   0.981
 3520SOL    HW111447   3.368   1.843   0.911
 3520SOL    HW211448   3.428   1.753   1.017
 3521SOL     OW11449   2.580   0.561   1.704
 3521SOL    HW111450   2.622   0.624   1.763
 3521SOL    HW211451   2.605   0.475   1.738
 3522SOL     OW11452   3.335   1.197   1.630
 3522SOL    HW111453   3.323   1.212   1.724
 3522SOL    HW211454   3.428   1.213   1.615
 3523SOL     OW11455   2.238   1.739   1.575
 3523SOL    HW111456   2.175   1.754   1.505
 3523SOL    HW211457   2.202   1.665   1.625
 3524SOL     OW11458   3.527   0.881   1.259
 3524SOL    HW111459   3.525   0.796   1.215
 3524SOL    HW211460   3.520   0.944   1.188
 3525SOL     OW11461   3.091   0.334   0.435
 3525SOL    HW111462   3.155   0.263   0.430
 3525SOL    HW211463   3.109   0.376   0.519
 3526SOL     OW11464   2.450   0.736   0.671
 3526SOL    HW111465   2.489   0.822   0.657
 3526SOL    HW211466   2.384   0.728   0.603
 3527SOL     OW11467   3.617   0.381   1.642
 3527SOL    HW111468   3.595   0.390   1.549
 3527SOL    HW211469   3.556   0.314   1.674
 3528SOL     OW11470   3.617   0.930   1.513
 3528SOL    HW111471   3.607   1.024   1.531
 3528SOL    HW211472   3.592   0.920   1.421
 3529SOL     OW11473   2.772   1.396   0.065
 3529SOL    HW111474   2.702   1.388   0.130
 3529SOL    HW211475   2.725   1.405  13.882
 3530SOL     OW11476   2.525   1.792   0.936
 3530SOL    HW111477   2.516   1.887   0.932
 3530SOL    HW211478   2.619   1.776   0.936
 3531SOL     OW11479   2.730   0.969   0.854
 3531SOL    HW111480   2.781   0.897   0.893
 3531SOL    HW211481   2.694   1.015   0.929
 3532SOL     OW11482   2.960   1.012   0.111
 3532SOL    HW111483   2.949   1.059   0.028
 3532SOL    HW211484   3.034   0.954   0.097
 3533SOL     OW11485   3.714   1.556   0.841
 3533SOL    HW111486   3.635   1.541   0.789
 3533SOL    HW211487   3.711   1.489   0.910
 3534SOL     OW11488   2.088   1.299   1.852
 3534SOL    HW111489   2.020   1.235   1.829
 3534SOL    HW211490   2.071   1.321   1.943
 3535SOL     OW11491   1.942   1.213   0.663
 3535SOL    HW111492   1.961   1.173   0.747
 3535SOL    HW211493   2.021   1.199   0.610
 3536SOL     OW11494   2.543   1.405   1.627
 3536SOL    HW111495   2.466   1.361   1.664
 3536SOL    HW211496   2.542   1.492   1.665
 3537SOL     OW11497   3.676   0.181   1.244
 3537SOL    HW111498   3.678   0.086   1.252
 3537SOL    HW211499   3.694   0.198   1.151
 3538SOL     OW11500   2.293   0.435   0.533
 3538SOL    HW111501   2.325   0.364   0.478
 3538SOL    HW211502   2.244   0.392   0.602
 3539SOL     OW11503   3.559   1.491   1.096
 3539SOL    HW111504   3.480   1.468   1.046
 3539SOL    HW211505   3.568   1.419   1.159
 3540SOL     OW11506   2.193   0.556   1.294
 3540SOL    HW111507   2.246   0.498   1.348
 3540SOL    HW211508   2.212   0.530   1.204
 3541SOL     OW11509   2.691   1.577   0.676
 3541SOL    HW111510   2.673   1.635   0.602
 3541SOL    HW211511   2.616   1.518   0.679
 3542SOL     OW11512   3.323   0.253   1.110
 3542SOL    HW111513   3.337   0.165   1.145
 3542SOL    HW211514   3.267   0.296   1.175
 3543SOL     OW11515   2.866   0.027   1.146
 3543SOL    HW111516   2.785   3.991   1.111
 3543SOL    HW211517   2.925   3.952   1.155
 3544SOL     OW11518   2.637   1.321   0.322
 3544SOL    HW111519   2.608   1.231   0.339
 3544SOL    HW211520   2.720   1.329   0.369
 3545SOL     OW11521   2.485   1.554   1.285
 3545SOL    HW111522   2.484   1.635   1.335
 3545SOL    HW211523   2.573   1.549   1.248
 3546SOL     OW11524   3.182   0.067   0.126
 3546SOL    HW111525   3.200   3.979   0.094
 3546SOL    HW211526   3.117   0.055   0.195
 3547SOL     OW11527   3.142   0.454   0.683
 3547SOL    HW111528   3.096   0.538   0.677
 3547SOL    HW211529   3.146   0.436   0.777
 3548SOL     OW11530   3.452   0.210   0.867
 3548SOL    HW111531   3.404   0.233   0.946
 3548SOL    HW211532   3.450   0.290   0.814
 3549SOL     OW11533   1.902   1.068   0.310
 3549SOL    HW111534   1.997   1.067   0.310
 3549SOL    HW211535   1.876   0.979   0.331
 3550SOL     OW11536   2.759   1.655   0.343
 3550SOL    HW111537   2.685   1.624   0.291
 3550SOL    HW211538   2.723   1.728   0.395
 3551SOL     OW11539   2.089   0.619   1.983
 3551SOL    HW111540   1.999   0.628   2.015
 3551SOL    HW211541   2.080   0.599   1.890
 3552SOL     OW11542   2.079   0.300   2.853
 3552SOL    HW111543   2.116   0.257   2.930
 3552SOL    HW211544   1.994   0.258   2.840
 3553SOL     OW11545   1.871   0.397   2.495
 3553SOL    HW111546   1.784   0.413   2.533
 3553SOL    HW211547   1.857   0.328   2.430
 3554SOL     OW11548   2.430   1.291   3.039
 3554SOL    HW111549   2.343   1.295   2.997
 3554SOL    HW211550   2.447   1.380   3.068
 3555SOL     OW11551   3.426   1.513   2.570
 3555SOL    HW111552   3.383   1.491   2.653
 3555SOL    HW211553   3.354   1.518   2.506
 3556SOL     OW11554   2.994   0.698   2.559
 3556SOL    HW111555   3.042   0.780   2.546
 3556SOL    HW211556   2.947   0.711   2.641
 3557SOL     OW11557   3.624   0.623   2.088
 3557SOL    HW111558   3.605   0.612   1.995
 3557SOL    HW211559   3.606   0.538   2.127
 3558SOL     OW11560   2.615   1.140   2.906
 3558SOL    HW111561   2.546   1.176   2.963
 3558SOL    HW211562   2.651   1.216   2.862
 3559SOL     OW11563   2.732   0.769   3.686
 3559SOL    HW111564   2.718   0.840   3.749
 3559SOL    HW211565   2.755   0.814   3.604
 3560SOL     OW11566   2.548   1.000   2.507
 3560SOL    HW111567   2.613   0.991   2.577
 3560SOL    HW211568   2.479   1.053   2.546
 3561SOL     OW11569   2.576   1.150   3.677
 3561SOL    HW111570   2.623   1.227   3.707
 3561SOL    HW211571   2.493   1.183   3.642
 3562SOL     OW11572   2.189   1.423   2.929
 3562SOL    HW111573   2.117   1.385   2.879
 3562SOL    HW211574   2.239   1.474   2.865
 3563SOL     OW11575   3.321   1.501   3.220
 3563SOL    HW111576   3.375   1.580   3.229
 3563SOL    HW211577   3.256   1.508   3.289
 3564SOL     OW11578   2.307   0.393   3.354
 3564SOL    HW111579   2.397   0.362   3.354
 3564SOL    HW211580   2.254   0.313   3.363
 3565SOL     OW11581   3.473   0.450   2.597
 3565SOL    HW111582   3.403   0.483   2.540
 3565SOL    HW211583   3.494   0.524   2.654
 3566SOL     OW11584   2.101   1.693   2.344
 3566SOL    HW111585   2.069   1.780   2.365
 3566SOL    HW211586   2.174   1.707   2.284
 3567SOL     OW11587   2.999   1.342   3.556
 3567SOL    HW111588   3.040   1.337   3.642
 3567SOL    HW211589   2.947   1.262   3.549
 3568SOL     OW11590   2.093   1.430   2.401
 3568SOL    HW111591   2.091   1.525   2.393
 3568SOL    HW211592   2.029   1.410   2.470
 3569SOL     OW11593   2.124   1.091   2.754
 3569SOL    HW111594   2.120   1.002   2.790
 3569SOL    HW211595   2.066   1.142   2.810
 3570SOL     OW11596   2.474   1.783   3.296
 3570SOL    HW111597   2.394   1.770   3.347
 3570SOL    HW211598   2.496   1.875   3.310
 3571SOL     OW11599   2.445   0.983   1.998
 3571SOL    HW111600   2.492   1.030   1.930
 3571SOL    HW211601   2.483   1.015   2.080
 3572SOL     OW11602   3.444   0.141   3.318
 3572SOL    HW111603   3.470   0.214   3.262
 3572SOL    HW211604   3.408   0.183   3.396
 3573SOL     OW11605   1.979   0.656   2.422
 3573SOL    HW111606   1.952   0.567   2.446
 3573SOL    HW211607   1.971   0.706   2.504
 3574SOL     OW11608   3.702   1.757   2.197
 3574SOL    HW111609   3.772   1.733   2.259
 3574SOL    HW211610   3.721   1.849   2.176
 3575SOL     OW11611   1.940   1.576   1.965
 3575SOL    HW111612   1.901   1.498   2.005
 3575SOL    HW211613   1.871   1.643   1.971
 3576SOL     OW11614   3.549   0.918   2.508
 3576SOL    HW111615   3.634   0.875   2.491
 3576SOL    HW211616   3.532   0.968   2.428
 3577SOL     OW11617   3.504   1.104   2.294
 3577SOL    HW111618   3.589   1.110   2.249
 3577SOL    HW211619   3.510   1.167   2.365
 3578SOL     OW11620   1.985   0.750   3.442
 3578SOL    HW111621   2.076   0.780   3.447
 3578SOL    HW211622   1.932   0.829   3.450
 3579SOL     OW11623   2.477   1.388   2.596
 3579SOL    HW111624   2.431   1.305   2.605
 3579SOL    HW211625   2.460   1.416   2.506
 3580SOL     OW11626   3.149   1.237   3.284
 3580SOL    HW111627   3.181   1.170   3.224
 3580SOL    HW211628   3.208   1.232   3.360
 3581SOL     OW11629   2.682   0.004   2.379
 3581SOL    HW111630   2.727   0.085   2.354
 3581SOL    HW211631   2.589   0.028   2.379
 3582SOL     OW11632   2.051   0.962   3.135
 3582SOL    HW111633   2.136   0.922   3.121
 3582SOL    HW211634   1.991   0.913   3.079
 3583SOL     OW11635   3.390   0.996   2.063
 3583SOL    HW111636   3.321   0.939   2.096
 3583SOL    HW211637   3.432   1.031   2.141
 3584SOL     OW11638   3.048   1.809   3.486
 3584SOL    HW111639   3.056   1.868   3.411
 3584SOL    HW211640   3.065   1.722   3.450
 3585SOL     OW11641   2.219   0.253   3.701
 3585SOL    HW111642   2.263   0.338   3.701
 3585SOL    HW211643   2.126   0.274   3.705
 3586SOL     OW11644   3.329   1.420   2.811
 3586SOL    HW111645   3.261   1.435   2.878
 3586SOL    HW211646   3.317   1.328   2.786
 3587SOL     OW11647   3.515   1.746   2.441
 3587SOL    HW111648   3.499   1.713   2.352
 3587SOL    HW211649   3.495   1.671   2.498
 3588SOL     OW11650   2.457   0.720   2.130
 3588SOL    HW111651   2.461   0.803   2.083
 3588SOL    HW211652   2.393   0.735   2.199
 3589SOL     OW11653   3.137   0.368   2.803
 3589SOL    HW111654   3.049   0.330   2.810
 3589SOL    HW211655   3.194   0.307   2.848
 3590SOL     OW11656   3.439   1.671   2.172
 3590SOL    HW111657   3.530   1.701   2.165
 3590SOL    HW211658   3.413   1.655   2.081
 3591SOL     OW11659   2.658   0.616   3.314
 3591SOL    HW111660   2.629   0.590   3.402
 3591SOL    HW211661   2.619   0.550   3.256
 3592SOL     OW11662   3.254   0.476   3.539
 3592SOL    HW111663   3.260   0.521   3.623
 3592SOL    HW211664   3.311   0.400   3.549
 3593SOL     OW11665   2.814   0.887   3.446
 3593SOL    HW111666   2.869   0.818   3.409
 3593SOL    HW211667   2.766   0.923   3.371
 3594SOL     OW11668   2.855   0.402   3.100
 3594SOL    HW111669   2.770   0.424   3.140
 3594SOL    HW211670   2.833   0.375   3.011
 3595SOL     OW11671   2.914   0.699   2.287
 3595SOL    HW111672   2.931   0.693   2.381
 3595SOL    HW211673   2.831   0.653   2.274
 3596SOL     OW11674   1.949   0.823   2.639
 3596SOL    HW111675   2.029   0.815   2.690
 3596SOL    HW211676   1.905   0.900   2.674
 3597SOL     OW11677   2.757   0.352   2.061
 3597SOL    HW111678   2.799   0.411   1.999
 3597SOL    HW211679   2.750   0.269   2.015
 3598SOL     OW11680   3.569   0.573   3.691
 3598SOL    HW111681   3.532   0.648   3.644
 3598SOL    HW211682   3.595   0.512   3.623
 3599SOL     OW11683   3.239   1.141   2.402
 3599SOL    HW111684   3.319   1.130   2.351
 3599SOL    HW211685   3.187   1.204   2.352
 3600SOL     OW11686   2.420   0.199   2.743
 3600SOL    HW111687   2.423   0.218   2.836
 3600SOL    HW211688   2.416   0.285   2.701
 3601SOL     OW11689   2.865   1.443   2.333
 3601SOL    HW111690   2.831   1.517   2.282
 3601SOL    HW211691   2.844   1.464   2.423
 3602SOL     OW11692   2.247   1.812   2.690
 3602SOL    HW111693   2.252   1.717   2.704
 3602SOL    HW211694   2.320   1.847   2.741
 3603SOL     OW11695   3.667   1.062   2.729
 3603SOL    HW111696   3.613   1.037   2.654
 3603SOL    HW211697   3.605   1.065   2.803
 3604SOL     OW11698   3.090   1.539   3.375
 3604SOL    HW111699   3.077   1.467   3.436
 3604SOL    HW211700   3.023   1.526   3.308
 3605SOL     OW11701   2.181   0.959   2.115
 3605SOL    HW111702   2.263   0.979   2.070
 3605SOL    HW211703   2.151   0.877   2.076
 3606SOL     OW11704   3.342   0.746   2.590
 3606SOL    HW111705   3.336   0.706   2.677
 3606SOL    HW211706   3.419   0.803   2.596
 3607SOL     OW11707   2.333   1.265   3.606
 3607SOL    HW111708   2.306   1.267   3.514
 3607SOL    HW211709   2.250   1.261   3.654
 3608SOL     OW11710   2.986   1.777   2.093
 3608SOL    HW111711   2.911   1.737   2.136
 3608SOL    HW211712   3.009   1.715   2.024
 3609SOL     OW11713   2.031   0.274   3.361
 3609SOL    HW111714   1.977   0.352   3.351
 3609SOL    HW211715   2.038   0.262   3.456
 3610SOL     OW11716   3.487   1.383   1.949
 3610SOL    HW111717   3.444   1.468   1.934
 3610SOL    HW211718   3.420   1.318   1.930
 3611SOL     OW11719   2.333   1.725   2.197
 3611SOL    HW111720   2.380   1.791   2.248
 3611SOL    HW211721   2.392   1.704   2.125
 3612SOL     OW11722   3.297   0.170   2.264
 3612SOL    HW111723   3.252   0.096   2.223
 3612SOL    HW211724   3.372   0.131   2.308
 3613SOL     OW11725   2.125   1.736   3.114
 3613SOL    HW111726   2.161   1.654   3.148
 3613SOL    HW211727   2.132   1.728   3.019
 3614SOL     OW11728   2.799   1.698   2.760
 3614SOL    HW111729   2.878   1.648   2.781
 3614SOL    HW211730   2.758   1.649   2.689
 3615SOL     OW11731   2.257   0.695   2.336
 3615SOL    HW111732   2.275   0.602   2.349
 3615SOL    HW211733   2.164   0.704   2.354
 3616SOL     OW11734   3.392   0.229   3.589
 3616SOL    HW111735   3.385   0.255   3.681
 3616SOL    HW211736   3.373   0.136   3.588
 3617SOL     OW11737   2.506   0.130   1.970
 3617SOL    HW111738   2.529   0.046   2.010
 3617SOL    HW211739   2.443   0.107   1.901
 3618SOL     OW11740   2.637   0.282   3.630
 3618SOL    HW111741   2.709   0.219   3.634
 3618SOL    HW211742   2.580   0.256   3.702
 3619SOL     OW11743   2.739   1.522   3.055
 3619SOL    HW111744   2.723   1.485   2.968
 3619SOL    HW211745   2.809   1.468   3.092
 3620SOL     OW11746   3.202   0.587   3.292
 3620SOL    HW111747   3.232   0.559   3.379
 3620SOL    HW211748   3.236   0.676   3.283
 3621SOL     OW11749   2.679   1.392   2.804
 3621SOL    HW111750   2.763   1.381   2.761
 3621SOL    HW211751   2.615   1.396   2.733
 3622SOL     OW11752   2.792   0.511   2.762
 3622SOL    HW111753   2.767   0.503   2.670
 3622SOL    HW211754   2.818   0.423   2.788
 3623SOL     OW11755   2.407   0.057   2.353
 3623SOL    HW111756   2.332   0.062   2.413
 3623SOL    HW211757   2.402   0.138   2.302
 3624SOL     OW11758   3.289   1.199   1.902
 3624SOL    HW111759   3.319   1.124   1.953
 3624SOL    HW211760   3.204   1.222   1.940
 3625SOL     OW11761   2.192   0.043   2.073
 3625SOL    HW111762   2.200   0.110   2.005
 3625SOL    HW211763   2.274   0.049   2.122
 3626SOL     OW11764   2.804   0.250   2.322
 3626SOL    HW111765   2.779   0.290   2.238
 3626SOL    HW211766   2.900   0.254   2.323
 3627SOL     OW11767   2.942   0.684   3.321
 3627SOL    HW111768   2.872   0.619   3.327
 3627SOL    HW211769   3.022   0.632   3.315
 3628SOL     OW11770   3.083   1.571   2.656
 3628SOL    HW111771   3.099   1.637   2.589
 3628SOL    HW211772   3.153   1.586   2.721
 3629SOL     OW11773   2.333   1.151   2.593
 3629SOL    HW111774   2.265   1.132   2.657
 3629SOL    HW211775   2.292   1.136   2.508
 3630SOL     OW11776   3.129   1.793   2.472
 3630SOL    HW111777   3.177   1.854   2.416
 3630SOL    HW211778   3.062   1.846   2.514
 3631SOL     OW11779   2.884   0.543   1.890
 3631SOL    HW111780   2.840   0.625   1.871
 3631SOL    HW211781   2.947   0.565   1.958
 3632SOL     OW11782   1.944   0.550   3.258
 3632SOL    HW111783   2.035   0.552   3.229
 3632SOL    HW211784   1.937   0.623   3.320
 3633SOL     OW11785   2.425   0.231   3.022
 3633SOL    HW111786   2.449   0.139   3.033
 3633SOL    HW211787   2.336   0.236   3.055
 3634SOL     OW11788   2.732   0.460   2.500
 3634SOL    HW111789   2.684   0.515   2.437
 3634SOL    HW211790   2.753   0.381   2.451
 3635SOL     OW11791   2.858   0.039   2.642
 3635SOL    HW111792   2.821   0.068   2.559
 3635SOL    HW211793   2.869   3.945   2.632
 3636SOL     OW11794   3.302   1.161   2.720
 3636SOL    HW111795   3.230   1.098   2.718
 3636SOL    HW211796   3.327   1.171   2.628
 3637SOL     OW11797   3.326   0.608   2.836
 3637SOL    HW111798   3.272   0.529   2.841
 3637SOL    HW211799   3.386   0.601   2.910
 3638SOL     OW11800   3.722   0.824   2.237
 3638SOL    HW111801   3.763   0.767   2.301
 3638SOL    HW211802   3.684   0.764   2.173
 3639SOL     OW11803   2.353   1.420   2.017
 3639SOL    HW111804   2.278   1.394   2.069
 3639SOL    HW211805   2.342   1.374   1.934
 3640SOL     OW11806   3.529   1.265   2.506
 3640SOL    HW111807   3.625   1.269   2.516
 3640SOL    HW211808   3.500   1.354   2.527
 3641SOL     OW11809   3.257   0.575   1.931
 3641SOL    HW111810   3.193   0.557   2.000
 3641SOL    HW211811   3.342   0.560   1.972
 3642SOL     OW11812   2.388   0.266   2.178
 3642SOL    HW111813   2.443   0.228   2.110
 3642SOL    HW211814   2.360   0.350   2.141
 3643SOL     OW11815   3.613   1.234   3.428
 3643SOL    HW111816   3.701   1.199   3.411
 3643SOL    HW211817   3.629   1.323   3.458
 3644SOL     OW11818   2.919   1.353   3.194
 3644SOL    HW111819   2.844   1.322   3.245
 3644SOL    HW211820   2.994   1.312   3.236
 3645SOL     OW11821   3.468   1.628   3.518
 3645SOL    HW111822   3.460   1.662   3.429
 3645SOL    HW211823   3.548   1.577   3.517
 3646SOL     OW11824   2.994   1.206   2.966
 3646SOL    HW111825   2.934   1.244   3.030
 3646SOL    HW211826   2.962   1.240   2.882
 3647SOL     OW11827   3.490   1.096   2.937
 3647SOL    HW111828   3.482   1.158   3.009
 3647SOL    HW211829   3.414   1.112   2.882
 3648SOL     OW11830   2.774   0.116   3.263
 3648SOL    HW111831   2.794   0.089   3.174
 3648SOL    HW211832   2.855   0.158   3.294
 3649SOL     OW11833   2.846   1.115   3.586
 3649SOL    HW111834   2.755   1.132   3.608
 3649SOL    HW211835   2.844   1.037   3.530
 3650SOL     OW11836   2.571   1.062   2.232
 3650SOL    HW111837   2.556   1.044   2.325
 3650SOL    HW211838   2.647   1.008   2.209
 3651SOL     OW11839   2.282   0.816   3.114
 3651SOL    HW111840   2.351   0.824   3.180
 3651SOL    HW211841   2.247   0.728   3.126
 3652SOL     OW11842   3.128   0.375   3.138
 3652SOL    HW111843   3.162   0.453   3.182
 3652SOL    HW211844   3.041   0.400   3.108
 3653SOL     OW11845   2.209   1.112   2.352
 3653SOL    HW111846   2.209   1.188   2.294
 3653SOL    HW211847   2.205   1.037   2.293
 3654SOL     OW11848   2.416   0.532   2.718
 3654SOL    HW111849   2.430   0.592   2.645
 3654SOL    HW211850   2.481   0.559   2.784
 3655SOL     OW11851   3.110   1.349   2.252
 3655SOL    HW111852   3.165   1.420   2.283
 3655SOL    HW211853   3.023   1.370   2.285
 3656SOL     OW11854   3.147   1.459   3.010
 3656SOL    HW111855   3.202   1.463   3.087
 3656SOL    HW211856   3.091   1.383   3.024
 3657SOL     OW11857   3.434   0.632   2.347
 3657SOL    HW111858   3.392   0.687   2.414
 3657SOL    HW211859   3.481   0.694   2.291
 3658SOL     OW11860   2.221   1.495   3.182
 3658SOL    HW111861   2.207   1.465   3.092
 3658SOL    HW211862   2.314   1.517   3.185
 3659SOL     OW11863   2.280   0.744   3.464
 3659SOL    HW111864   2.341   0.789   3.406
 3659SOL    HW211865   2.321   0.660   3.482
 3660SOL     OW11866   3.466   0.778   3.545
 3660SOL    HW111867   3.381   0.821   3.539
 3660SOL    HW211868   3.519   0.821   3.478
 3661SOL     OW11869   2.876   0.132   3.642
 3661SOL    HW111870   2.925   0.205   3.605
 3661SOL    HW211871   2.859   0.073   3.568
 3662SOL     OW11872   2.350   0.034   3.624
 3662SOL    HW111873   2.353   0.047   3.529
 3662SOL    HW211874   2.291   0.102   3.656
 3663SOL     OW11875   2.446   0.873   2.894
 3663SOL    HW111876   2.476   0.964   2.894
 3663SOL    HW211877   2.389   0.867   2.970
 3664SOL     OW11878   3.215   0.859   2.888
 3664SOL    HW111879   3.130   0.847   2.845
 3664SOL    HW211880   3.258   0.774   2.880
 3665SOL     OW11881   3.063   0.537   2.120
 3665SOL    HW111882   3.070   0.458   2.173
 3665SOL    HW211883   3.020   0.600   2.177
 3666SOL     OW11884   2.161   0.209   3.105
 3666SOL    HW111885   2.120   0.238   3.186
 3666SOL    HW211886   2.150   0.114   3.105
 3667SOL     OW11887   1.907   1.333   3.154
 3667SOL    HW111888   1.936   1.264   3.214
 3667SOL    HW211889   1.978   1.397   3.155
 3668SOL     OW11890   2.584   0.632   2.914
 3668SOL    HW111891   2.660   0.619   2.857
 3668SOL    HW211892   2.554   0.721   2.896
 3669SOL     OW11893   3.594   0.957   3.724
 3669SOL    HW111894   3.551   0.895   3.665
 3669SOL    HW211895   3.530   0.972   3.794
 3670SOL     OW11896   2.185   0.056   2.513
 3670SOL    HW111897   2.165   0.148   2.525
 3670SOL    HW211898   2.150   0.014   2.592
 3671SOL     OW11899   3.474   0.392   2.241
 3671SOL    HW111900   3.436   0.323   2.296
 3671SOL    HW211901   3.452   0.474   2.287
 3672SOL     OW11902   2.892   0.759   2.821
 3672SOL    HW111903   2.885   0.776   2.915
 3672SOL    HW211904   2.864   0.668   2.811
 3673SOL     OW11905   2.845   1.567   3.581
 3673SOL    HW111906   2.829   1.610   3.498
 3673SOL    HW211907   2.888   1.484   3.558
 3674SOL     OW11908   3.705   1.498   3.460
 3674SOL    HW111909   3.728   1.528   3.372
 3674SOL    HW211910   3.786   1.509   3.511
 3675SOL     OW11911   2.214   0.916   3.671
 3675SOL    HW111912   2.295   0.936   3.717
 3675SOL    HW211913   2.240   0.853   3.603
 3676SOL     OW11914   3.364   0.274   1.996
 3676SOL    HW111915   3.290   0.214   2.007
 3676SOL    HW211916   3.376   0.313   2.083
 3677SOL     OW11917   3.150   0.826   1.890
 3677SOL    HW111918   3.193   0.741   1.894
 3677SOL    HW211919   3.183   0.866   1.810
 3678SOL     OW11920   2.929   1.337   2.718
 3678SOL    HW111921   2.933   1.265   2.655
 3678SOL    HW211922   2.989   1.403   2.682
 3679SOL     OW11923   2.170   0.810   2.808
 3679SOL    HW111924   2.263   0.831   2.801
 3679SOL    HW211925   2.168   0.720   2.840
 3680SOL     OW11926   2.198   0.536   2.876
 3680SOL    HW111927   2.157   0.451   2.860
 3680SOL    HW211928   2.274   0.537   2.818
 3681SOL     OW11929   2.995   0.381   3.559
 3681SOL    HW111930   2.946   0.435   3.620
 3681SOL    HW211931   3.081   0.421   3.554
 3682SOL     OW11932   3.013   0.226   3.343
 3682SOL    HW111933   3.004   0.280   3.422
 3682SOL    HW211934   3.038   0.288   3.274
 3683SOL     OW11935   1.866   1.319   2.057
 3683SOL    HW111936   1.778   1.333   2.020
 3683SOL    HW211937   1.863   1.230   2.092
 3684SOL     OW11938   2.360   1.568   2.773
 3684SOL    HW111939   2.426   1.635   2.791
 3684SOL    HW211940   2.403   1.508   2.712
 3685SOL     OW11941   2.841   0.788   3.086
 3685SOL    HW111942   2.897   0.769   3.161
 3685SOL    HW211943   2.755   0.753   3.111
 3686SOL     OW11944   1.895   0.547   2.979
 3686SOL    HW111945   1.970   0.523   2.925
 3686SOL    HW211946   1.929   0.547   3.068
 3687SOL     OW11947   2.065   0.526   3.574
 3687SOL    HW111948   2.136   0.506   3.513
 3687SOL    HW211949   2.021   0.602   3.535
 3688SOL     OW11950   3.242   0.936   3.519
 3688SOL    HW111951   3.263   1.030   3.517
 3688SOL    HW211952   3.237   0.910   3.427
 3689SOL     OW11953   2.679   0.572   2.226
 3689SOL    HW111954   2.685   0.497   2.167
 3689SOL    HW211955   2.604   0.623   2.193
 3690SOL     OW11956   3.501   0.602   3.045
 3690SOL    HW111957   3.491   0.542   3.118
 3690SOL    HW211958   3.588   0.581   3.009
 3691SOL     OW11959   2.088   1.560   3.602
 3691SOL    HW111960   2.048   1.592   3.683
 3691SOL    HW211961   2.114   1.470   3.623
 3692SOL     OW11962   2.570   0.453   3.118
 3692SOL    HW111963   2.519   0.376   3.093
 3692SOL    HW211964   2.561   0.513   3.044
 3693SOL     OW11965   2.789   1.678   3.331
 3693SOL    HW111966   2.761   1.642   3.246
 3693SOL    HW211967   2.783   1.773   3.319
 3694SOL     OW11968   2.325   0.494   2.045
 3694SOL    HW111969   2.383   0.566   2.069
 3694SOL    HW211970   2.239   0.534   2.033
 3695SOL     OW11971   2.004   1.141   3.331
 3695SOL    HW111972   2.007   1.092   3.414
 3695SOL    HW211973   2.021   1.075   3.264
 3696SOL     OW11974   3.184   1.044   3.084
 3696SOL    HW111975   3.207   0.982   3.015
 3696SOL    HW211976   3.116   1.099   3.044
 3697SOL     OW11977   3.176   0.854   2.167
 3697SOL    HW111978   3.100   0.827   2.219
 3697SOL    HW211979   3.148   0.843   2.076
 3698SOL     OW11980   3.642   1.741   3.019
 3698SOL    HW111981   3.697   1.769   2.946
 3698SOL    HW211982   3.613   1.654   2.995
 3699SOL     OW11983   3.103   1.733   2.972
 3699SOL    HW111984   3.185   1.756   2.928
 3699SOL    HW211985   3.110   1.640   2.991
 3700SOL     OW11986   1.952   1.253   2.889
 3700SOL    HW111987   1.922   1.275   2.977
 3700SOL    HW211988   1.874   1.216   2.846
 3701SOL     OW11989   2.541   1.665   3.594
 3701SOL    HW111990   2.488   1.744   3.598
 3701SOL    HW211991   2.605   1.683   3.525
 3702SOL     OW11992   3.551   0.120   2.349
 3702SOL    HW111993   3.632   0.135   2.301
 3702SOL    HW211994   3.553   0.026   2.371
 3703SOL     OW11995   3.253   1.567   2.350
 3703SOL    HW111996   3.312   1.600   2.282
 3703SOL    HW211997   3.203   1.644   2.378
 3704SOL     OW11998   3.139   0.926   2.532
 3704SOL    HW111999   3.214   0.867   2.543
 3704SOL    HW212000   3.173   0.999   2.480
 3705SOL     OW12001   2.672   1.274   3.289
 3705SOL    HW112002   2.644   1.314   3.371
 3705SOL    HW212003   2.603   1.296   3.226
 3706SOL     OW12004   2.534   1.623   2.015
 3706SOL    HW112005   2.545   1.634   1.921
 3706SOL    HW212006   2.478   1.546   2.024
 3707SOL     OW12007   3.482   1.727   3.253
 3707SOL    HW112008   3.537   1.732   3.175
 3707SOL    HW212009   3.469   1.818   3.279
 3708SOL     OW12010   3.703   0.182   2.833
 3708SOL    HW112011   3.727   0.097   2.795
 3708SOL    HW212012   3.617   0.201   2.796
 3709SOL     OW12013   2.126   0.316   2.577
 3709SOL    HW112014   2.039   0.351   2.555
 3709SOL    HW212015   2.125   0.308   2.672
 3710SOL     OW12016   3.070   1.604   1.894
 3710SOL    HW112017   3.059   1.513   1.921
 3710SOL    HW212018   3.004   1.617   1.826
 3711SOL     OW12019   2.686   1.006   3.235
 3711SOL    HW112020   2.728   1.002   3.149
 3711SOL    HW212021   2.684   1.099   3.256
 3712SOL     OW12022   2.778   0.910   2.152
 3712SOL    HW112023   2.839   0.943   2.086
 3712SOL    HW212024   2.827   0.842   2.198
 3713SOL     OW12025   3.351   1.628   1.905
 3713SOL    HW112026   3.257   1.619   1.891
 3713SOL    HW212027   3.389   1.634   1.817
 3714SOL     OW12028   2.230   1.294   3.364
 3714SOL    HW112029   2.227   1.366   3.301
 3714SOL    HW212030   2.153   1.242   3.343
 3715SOL     OW12031   3.463   1.280   3.139
 3715SOL    HW112032   3.531   1.272   3.206
 3715SOL    HW212033   3.406   1.349   3.172
 3716SOL     OW12034   2.918   1.109   2.571
 3716SOL    HW112035   2.846   1.058   2.608
 3716SOL    HW212036   2.981   1.043   2.541
 3717SOL     OW12037   2.877   0.249   2.831
 3717SOL    HW112038   2.867   0.198   2.751
 3717SOL    HW212039   2.872   0.183   2.901
 3718SOL     OW12040   2.466   1.491   2.342
 3718SOL    HW112041   2.509   1.441   2.273
 3718SOL    HW212042   2.397   1.540   2.298
 3719SOL     OW12043   3.582   0.394   3.234
 3719SOL    HW112044   3.654   0.457   3.234
 3719SOL    HW212045   3.614   0.321   3.180
 3720SOL     OW12046   2.122   1.341   2.151
 3720SOL    HW112047   2.029   1.340   2.128
 3720SOL    HW212048   2.124   1.377   2.240
 3721SOL     OW12049   1.975   1.027   3.581
 3721SOL    HW112050   1.899   1.002   3.633
 3721SOL    HW212051   2.049   0.988   3.627
 3722SOL     OW12052   2.555   0.254   3.363
 3722SOL    HW112053   2.622   0.200   3.322
 3722SOL    HW212054   2.582   0.261   3.455
 3723SOL     OW12055   1.962   0.317   1.854
 3723SOL    HW112056   1.894   0.337   1.918
 3723SOL    HW212057   1.970   0.398   1.802
 3724SOL     OW12058   3.287   0.856   3.260
 3724SOL    HW112059   3.238   0.919   3.207
 3724SOL    HW212060   3.376   0.859   3.224
 3725SOL     OW12061   1.943   0.152   2.202
 3725SOL    HW112062   1.912   0.211   2.133
 3725SOL    HW212063   2.029   0.124   2.172
 3726SOL     OW12064   3.040   1.337   1.979
 3726SOL    HW112065   2.949   1.307   1.982
 3726SOL    HW212066   3.067   1.338   2.071
 3727SOL     OW12067   2.483   0.829   3.296
 3727SOL    HW112068   2.540   0.905   3.281
 3727SOL    HW212069   2.544   0.755   3.305
 3728SOL     OW12070   3.344   1.781   2.842
 3728SOL    HW112071   3.367   1.843   2.773
 3728SOL    HW212072   3.428   1.754   2.879
 3729SOL     OW12073   2.580   0.561   3.566
 3729SOL    HW112074   2.622   0.624   3.625
 3729SOL    HW212075   2.606   0.475   3.600
 3730SOL     OW12076   3.335   1.197   3.492
 3730SOL    HW112077   3.323   1.212   3.586
 3730SOL    HW212078   3.428   1.213   3.477
 3731SOL     OW12079   2.239   1.737   3.438
 3731SOL    HW112080   2.175   1.750   3.368
 3731SOL    HW212081   2.204   1.663   3.489
 3732SOL     OW12082   3.526   0.881   3.121
 3732SOL    HW112083   3.525   0.796   3.077
 3732SOL    HW212084   3.520   0.944   3.050
 3733SOL     OW12085   3.082   0.337   2.305
 3733SOL    HW112086   3.151   0.271   2.296
 3733SOL    HW212087   3.103   0.381   2.387
 3734SOL     OW12088   2.451   0.736   2.533
 3734SOL    HW112089   2.490   0.822   2.518
 3734SOL    HW212090   2.385   0.728   2.465
 3735SOL     OW12091   3.617   0.381   3.504
 3735SOL    HW112092   3.595   0.390   3.411
 3735SOL    HW212093   3.556   0.314   3.536
 3736SOL     OW12094   3.617   0.930   3.375
 3736SOL    HW112095   3.607   1.024   3.393
 3736SOL    HW212096   3.592   0.920   3.283
 3737SOL     OW12097   2.724   1.366   1.899
 3737SOL    HW112098   2.687   1.393   1.984
 3737SOL    HW212099   2.741   1.449   1.854
 3738SOL     OW12100   2.525   1.792   2.798
 3738SOL    HW112101   2.517   1.888   2.792
 3738SOL    HW212102   2.619   1.776   2.798
 3739SOL     OW12103   2.730   0.969   2.717
 3739SOL    HW112104   2.781   0.897   2.755
 3739SOL    HW212105   2.694   1.016   2.792
 3740SOL     OW12106   2.940   0.989   1.951
 3740SOL    HW112107   2.918   1.040   1.874
 3740SOL    HW212108   3.014   0.935   1.924
 3741SOL     OW12109   3.714   1.556   2.703
 3741SOL    HW112110   3.635   1.540   2.652
 3741SOL    HW212111   3.713   1.489   2.771
 3742SOL     OW12112   2.089   1.299   3.714
 3742SOL    HW112113   2.021   1.236   3.691
 3742SOL    HW212114   2.072   1.320   3.806
 3743SOL     OW12115   1.942   1.216   2.524
 3743SOL    HW112116   1.961   1.176   2.609
 3743SOL    HW212117   2.018   1.195   2.470
 3744SOL     OW12118   2.543   1.405   3.489
 3744SOL    HW112119   2.466   1.361   3.526
 3744SOL    HW212120   2.542   1.493   3.527
 3745SOL     OW12121   3.676   0.181   3.106
 3745SOL    HW112122   3.678   0.086   3.115
 3745SOL    HW212123   3.694   0.198   3.014
 3746SOL     OW12124   2.290   0.434   2.387
 3746SOL    HW112125   2.324   0.363   2.334
 3746SOL    HW212126   2.243   0.391   2.458
 3747SOL     OW12127   3.558   1.491   2.959
 3747SOL    HW112128   3.480   1.468   2.909
 3747SOL    HW212129   3.568   1.419   3.021
 3748SOL     OW12130   2.193   0.556   3.156
 3748SOL    HW112131   2.246   0.498   3.210
 3748SOL    HW212132   2.212   0.530   3.066
 3749SOL     OW12133   2.691   1.577   2.538
 3749SOL    HW112134   2.674   1.634   2.464
 3749SOL    HW212135   2.616   1.518   2.541
 3750SOL     OW12136   3.323   0.253   2.972
 3750SOL    HW112137   3.337   0.165   3.008
 3750SOL    HW212138   3.267   0.296   3.037
 3751SOL     OW12139   2.866   0.027   3.008
 3751SOL    HW112140   2.785   3.991   2.972
 3751SOL    HW212141   2.925   3.952   3.017
 3752SOL     OW12142   2.636   1.333   2.178
 3752SOL    HW112143   2.606   1.243   2.186
 3752SOL    HW212144   2.716   1.336   2.230
 3753SOL     OW12145   2.485   1.554   3.146
 3753SOL    HW112146   2.484   1.635   3.196
 3753SOL    HW212147   2.573   1.549   3.109
 3754SOL     OW12148   3.173   0.071   2.022
 3754SOL    HW112149   3.179   3.989   1.972
 3754SOL    HW212150   3.088   0.066   2.066
 3755SOL     OW12151   3.143   0.457   2.547
 3755SOL    HW112152   3.097   0.540   2.542
 3755SOL    HW212153   3.146   0.437   2.641
 3756SOL     OW12154   3.452   0.210   2.729
 3756SOL    HW112155   3.404   0.234   2.808
 3756SOL    HW212156   3.451   0.290   2.676
 3757SOL     OW12157   1.905   1.069   2.167
 3757SOL    HW112158   1.999   1.063   2.151
 3757SOL    HW212159   1.878   0.981   2.192
 3758SOL     OW12160   2.750   1.655   2.201
 3758SOL    HW112161   2.675   1.639   2.142
 3758SOL    HW212162   2.722   1.728   2.255
 3759SOL     OW12163   2.089   0.619   3.845
 3759SOL    HW112164   1.999   0.629   3.877
 3759SOL    HW212165   2.080   0.599   3.752
 3760SOL     OW12166   2.079   0.300   4.715
 3760SOL    HW112167   2.116   0.257   4.792
 3760SOL    HW212168   1.994   0.258   4.702
 3761SOL     OW12169   1.871   0.397   4.357
 3761SOL    HW112170   1.784   0.413   4.395
 3761SOL    HW212171   1.856   0.329   4.292
 3762SOL     OW12172   2.430   1.291   4.901
 3762SOL    HW112173   2.343   1.295   4.860
 3762SOL    HW212174   2.446   1.380   4.931
 3763SOL     OW12175   3.426   1.513   4.432
 3763SOL    HW112176   3.383   1.491   4.515
 3763SOL    HW212177   3.354   1.518   4.368
 3764SOL     OW12178   2.995   0.698   4.421
 3764SOL    HW112179   3.042   0.780   4.408
 3764SOL    HW212180   2.947   0.711   4.503
 3765SOL     OW12181   3.624   0.623   3.950
 3765SOL    HW112182   3.605   0.611   3.857
 3765SOL    HW212183   3.605   0.538   3.989
 3766SOL     OW12184   2.615   1.140   4.768
 3766SOL    HW112185   2.547   1.176   4.825
 3766SOL    HW212186   2.651   1.217   4.724
 3767SOL     OW12187   2.732   0.769   5.547
 3767SOL    HW112188   2.714   0.840   5.609
 3767SOL    HW212189   2.755   0.814   5.466
 3768SOL     OW12190   2.548   1.000   4.369
 3768SOL    HW112191   2.613   0.991   4.439
 3768SOL    HW212192   2.479   1.053   4.408
 3769SOL     OW12193   2.576   1.148   5.539
 3769SOL    HW112194   2.623   1.227   5.563
 3769SOL    HW212195   2.493   1.180   5.504
 3770SOL     OW12196   2.189   1.424   4.791
 3770SOL    HW112197   2.117   1.385   4.741
 3770SOL    HW212198   2.239   1.474   4.727
 3771SOL     OW12199   3.321   1.501   5.082
 3771SOL    HW112200   3.375   1.580   5.091
 3771SOL    HW212201   3.255   1.508   5.151
 3772SOL     OW12202   2.307   0.392   5.216
 3772SOL    HW112203   2.397   0.362   5.216
 3772SOL    HW212204   2.254   0.313   5.225
 3773SOL     OW12205   3.473   0.450   4.459
 3773SOL    HW112206   3.403   0.483   4.402
 3773SOL    HW212207   3.494   0.524   4.516
 3774SOL     OW12208   2.101   1.694   4.206
 3774SOL    HW112209   2.067   1.782   4.221
 3774SOL    HW212210   2.174   1.706   4.145
 3775SOL     OW12211   2.999   1.341   5.416
 3775SOL    HW112212   3.041   1.335   5.502
 3775SOL    HW212213   2.946   1.261   5.410
 3776SOL     OW12214   2.092   1.431   4.263
 3776SOL    HW112215   2.090   1.526   4.256
 3776SOL    HW212216   2.029   1.411   4.332
 3777SOL     OW12217   2.124   1.091   4.615
 3777SOL    HW112218   2.119   1.002   4.652
 3777SOL    HW212219   2.066   1.143   4.672
 3778SOL     OW12220   2.474   1.784   5.158
 3778SOL    HW112221   2.395   1.769   5.209
 3778SOL    HW212222   2.495   1.876   5.173
 3779SOL     OW12223   2.445   0.983   3.860
 3779SOL    HW112224   2.492   1.030   3.792
 3779SOL    HW212225   2.483   1.015   3.942
 3780SOL     OW12226   3.444   0.141   5.180
 3780SOL    HW112227   3.470   0.213   5.124
 3780SOL    HW212228   3.408   0.183   5.258
 3781SOL     OW12229   1.979   0.656   4.284
 3781SOL    HW112230   1.952   0.568   4.308
 3781SOL    HW212231   1.971   0.706   4.366
 3782SOL     OW12232   3.702   1.757   4.059
 3782SOL    HW112233   3.772   1.733   4.121
 3782SOL    HW212234   3.721   1.849   4.038
 3783SOL     OW12235   1.939   1.575   3.830
 3783SOL    HW112236   1.904   1.494   3.866
 3783SOL    HW212237   1.868   1.638   3.839
 3784SOL     OW12238   3.549   0.918   4.370
 3784SOL    HW112239   3.634   0.875   4.353
 3784SOL    HW212240   3.532   0.968   4.290
 3785SOL     OW12241   3.504   1.104   4.156
 3785SOL    HW112242   3.589   1.110   4.111
 3785SOL    HW212243   3.510   1.167   4.227
 3786SOL     OW12244   1.986   0.750   5.305
 3786SOL    HW112245   2.076   0.780   5.310
 3786SOL    HW212246   1.934   0.830   5.314
 3787SOL     OW12247   2.477   1.389   4.458
 3787SOL    HW112248   2.431   1.305   4.467
 3787SOL    HW212249   2.459   1.416   4.368
 3788SOL     OW12250   3.149   1.237   5.146
 3788SOL    HW112251   3.181   1.170   5.086
 3788SOL    HW212252   3.208   1.232   5.222
 3789SOL     OW12253   2.682   0.004   4.241
 3789SOL    HW112254   2.727   0.084   4.216
 3789SOL    HW212255   2.589   0.028   4.241
 3790SOL     OW12256   2.051   0.963   4.997
 3790SOL    HW112257   2.136   0.922   4.983
 3790SOL    HW212258   1.991   0.912   4.942
 3791SOL     OW12259   3.390   0.995   3.925
 3791SOL    HW112260   3.321   0.939   3.958
 3791SOL    HW212261   3.432   1.031   4.003
 3792SOL     OW12262   3.051   1.809   5.347
 3792SOL    HW112263   3.057   1.868   5.272
 3792SOL    HW212264   3.066   1.722   5.311
 3793SOL     OW12265   2.219   0.253   5.564
 3793SOL    HW112266   2.263   0.337   5.562
 3793SOL    HW212267   2.126   0.274   5.568
 3794SOL     OW12268   3.329   1.420   4.674
 3794SOL    HW112269   3.261   1.435   4.740
 3794SOL    HW212270   3.317   1.328   4.648
 3795SOL     OW12271   3.515   1.746   4.303
 3795SOL    HW112272   3.499   1.713   4.214
 3795SOL    HW212273   3.495   1.671   4.360
 3796SOL     OW12274   2.457   0.720   3.992
 3796SOL    HW112275   2.461   0.803   3.945
 3796SOL    HW212276   2.393   0.735   4.061
 3797SOL     OW12277   3.137   0.368   4.665
 3797SOL    HW112278   3.049   0.330   4.672
 3797SOL    HW212279   3.194   0.307   4.710
 3798SOL     OW12280   3.439   1.671   4.034
 3798SOL    HW112281   3.530   1.701   4.027
 3798SOL    HW212282   3.413   1.655   3.943
 3799SOL     OW12283   2.659   0.615   5.176
 3799SOL    HW112284   2.630   0.590   5.263
 3799SOL    HW212285   2.619   0.550   5.118
 3800SOL     OW12286   3.254   0.476   5.401
 3800SOL    HW112287   3.260   0.521   5.485
 3800SOL    HW212288   3.311   0.400   5.411
 3801SOL     OW12289   2.814   0.887   5.308
 3801SOL    HW112290   2.869   0.818   5.271
 3801SOL    HW212291   2.766   0.923   5.233
 3802SOL     OW12292   2.855   0.402   4.963
 3802SOL    HW112293   2.770   0.424   5.002
 3802SOL    HW212294   2.833   0.375   4.873
 3803SOL     OW12295   2.914   0.699   4.149
 3803SOL    HW112296   2.931   0.693   4.243
 3803SOL    HW212297   2.831   0.653   4.136
 3804SOL     OW12298   1.949   0.823   4.500
 3804SOL    HW112299   2.029   0.815   4.552
 3804SOL    HW212300   1.904   0.900   4.536
 3805SOL     OW12301   2.757   0.352   3.923
 3805SOL    HW112302   2.799   0.412   3.861
 3805SOL    HW212303   2.750   0.269   3.877
 3806SOL     OW12304   3.570   0.573   5.553
 3806SOL    HW112305   3.532   0.648   5.506
 3806SOL    HW212306   3.595   0.512   5.485
 3807SOL     OW12307   3.239   1.141   4.264
 3807SOL    HW112308   3.319   1.130   4.213
 3807SOL    HW212309   3.187   1.204   4.214
 3808SOL     OW12310   2.420   0.199   4.605
 3808SOL    HW112311   2.423   0.218   4.698
 3808SOL    HW212312   2.416   0.285   4.563
 3809SOL     OW12313   2.865   1.443   4.195
 3809SOL    HW112314   2.831   1.517   4.144
 3809SOL    HW212315   2.843   1.464   4.285
 3810SOL     OW12316   2.246   1.814   4.547
 3810SOL    HW112317   2.251   1.720   4.561
 3810SOL    HW212318   2.317   1.850   4.600
 3811SOL     OW12319   3.667   1.062   4.591
 3811SOL    HW112320   3.613   1.037   4.516
 3811SOL    HW212321   3.605   1.065   4.665
 3812SOL     OW12322   3.090   1.539   5.237
 3812SOL    HW112323   3.077   1.466   5.298
 3812SOL    HW212324   3.023   1.526   5.170
 3813SOL     OW12325   2.181   0.960   3.977
 3813SOL    HW112326   2.263   0.979   3.932
 3813SOL    HW212327   2.151   0.877   3.938
 3814SOL     OW12328   3.342   0.746   4.452
 3814SOL    HW112329   3.336   0.706   4.539
 3814SOL    HW212330   3.419   0.803   4.457
 3815SOL     OW12331   2.337   1.258   5.462
 3815SOL    HW112332   2.303   1.261   5.372
 3815SOL    HW212333   2.260   1.269   5.517
 3816SOL     OW12334   2.986   1.777   3.955
 3816SOL    HW112335   2.911   1.737   3.998
 3816SOL    HW212336   3.009   1.715   3.886
 3817SOL     OW12337   2.031   0.274   5.223
 3817SOL    HW112338   1.977   0.352   5.211
 3817SOL    HW212339   2.037   0.264   5.318
 3818SOL     OW12340   3.487   1.383   3.811
 3818SOL    HW112341   3.444   1.468   3.796
 3818SOL    HW212342   3.420   1.318   3.792
 3819SOL     OW12343   2.334   1.723   4.059
 3819SOL    HW112344   2.380   1.791   4.109
 3819SOL    HW212345   2.392   1.703   3.986
 3820SOL     OW12346   3.297   0.170   4.126
 3820SOL    HW112347   3.252   0.096   4.085
 3820SOL    HW212348   3.372   0.131   4.170
 3821SOL     OW12349   2.122   1.737   4.970
 3821SOL    HW112350   2.158   1.657   5.007
 3821SOL    HW212351   2.129   1.725   4.875
 3822SOL     OW12352   2.799   1.698   4.622
 3822SOL    HW112353   2.877   1.648   4.644
 3822SOL    HW212354   2.758   1.649   4.551
 3823SOL     OW12355   2.257   0.695   4.198
 3823SOL    HW112356   2.275   0.602   4.211
 3823SOL    HW212357   2.164   0.704   4.216
 3824SOL     OW12358   3.392   0.230   5.451
 3824SOL    HW112359   3.385   0.255   5.543
 3824SOL    HW212360   3.373   0.136   5.450
 3825SOL     OW12361   2.506   0.130   3.832
 3825SOL    HW112362   2.529   0.046   3.872
 3825SOL    HW212363   2.443   0.107   3.763
 3826SOL     OW12364   2.637   0.282   5.492
 3826SOL    HW112365   2.709   0.219   5.496
 3826SOL    HW212366   2.580   0.256   5.564
 3827SOL     OW12367   2.739   1.523   4.917
 3827SOL    HW112368   2.722   1.485   4.830
 3827SOL    HW212369   2.809   1.468   4.954
 3828SOL     OW12370   3.202   0.587   5.154
 3828SOL    HW112371   3.232   0.559   5.241
 3828SOL    HW212372   3.236   0.676   5.145
 3829SOL     OW12373   2.679   1.392   4.667
 3829SOL    HW112374   2.763   1.381   4.623
 3829SOL    HW212375   2.615   1.396   4.595
 3830SOL     OW12376   2.792   0.511   4.624
 3830SOL    HW112377   2.767   0.503   4.532
 3830SOL    HW212378   2.818   0.423   4.650
 3831SOL     OW12379   2.407   0.057   4.215
 3831SOL    HW112380   2.332   0.062   4.275
 3831SOL    HW212381   2.402   0.138   4.164
 3832SOL     OW12382   3.289   1.199   3.764
 3832SOL    HW112383   3.319   1.124   3.815
 3832SOL    HW212384   3.204   1.222   3.802
 3833SOL     OW12385   2.192   0.043   3.935
 3833SOL    HW112386   2.200   0.110   3.867
 3833SOL    HW212387   2.274   0.049   3.984
 3834SOL     OW12388   2.804   0.250   4.184
 3834SOL    HW112389   2.779   0.290   4.100
 3834SOL    HW212390   2.900   0.254   4.185
 3835SOL     OW12391   2.942   0.684   5.183
 3835SOL    HW112392   2.871   0.619   5.189
 3835SOL    HW212393   3.022   0.631   5.177
 3836SOL     OW12394   3.084   1.571   4.518
 3836SOL    HW112395   3.099   1.637   4.450
 3836SOL    HW212396   3.153   1.586   4.583
 3837SOL     OW12397   2.333   1.151   4.455
 3837SOL    HW112398   2.265   1.132   4.519
 3837SOL    HW212399   2.292   1.136   4.370
 3838SOL     OW12400   3.129   1.793   4.334
 3838SOL    HW112401   3.177   1.854   4.278
 3838SOL    HW212402   3.062   1.846   4.376
 3839SOL     OW12403   2.884   0.543   3.752
 3839SOL    HW112404   2.840   0.625   3.733
 3839SOL    HW212405   2.947   0.565   3.820
 3840SOL     OW12406   1.944   0.550   5.121
 3840SOL    HW112407   2.035   0.553   5.091
 3840SOL    HW212408   1.936   0.623   5.182
 3841SOL     OW12409   2.425   0.231   4.884
 3841SOL    HW112410   2.449   0.139   4.894
 3841SOL    HW212411   2.336   0.236   4.917
 3842SOL     OW12412   2.732   0.460   4.362
 3842SOL    HW112413   2.684   0.515   4.300
 3842SOL    HW212414   2.753   0.381   4.313
 3843SOL     OW12415   2.858   0.039   4.505
 3843SOL    HW112416   2.822   0.068   4.421
 3843SOL    HW212417   2.869   3.945   4.494
 3844SOL     OW12418   3.302   1.161   4.582
 3844SOL    HW112419   3.229   1.099   4.580
 3844SOL    HW212420   3.327   1.171   4.490
 3845SOL     OW12421   3.326   0.608   4.698
 3845SOL    HW112422   3.272   0.529   4.703
 3845SOL    HW212423   3.386   0.601   4.772
 3846SOL     OW12424   3.722   0.824   4.099
 3846SOL    HW112425   3.763   0.767   4.163
 3846SOL    HW212426   3.684   0.764   4.035
 3847SOL     OW12427   2.354   1.420   3.879
 3847SOL    HW112428   2.278   1.394   3.932
 3847SOL    HW212429   2.342   1.374   3.796
 3848SOL     OW12430   3.529   1.265   4.368
 3848SOL    HW112431   3.625   1.269   4.378
 3848SOL    HW212432   3.500   1.354   4.389
 3849SOL     OW12433   3.257   0.575   3.793
 3849SOL    HW112434   3.193   0.557   3.862
 3849SOL    HW212435   3.342   0.560   3.834
 3850SOL     OW12436   2.388   0.266   4.040
 3850SOL    HW112437   2.443   0.228   3.972
 3850SOL    HW212438   2.360   0.350   4.003
 3851SOL     OW12439   3.613   1.234   5.290
 3851SOL    HW112440   3.701   1.199   5.273
 3851SOL    HW212441   3.629   1.323   5.320
 3852SOL     OW12442   2.918   1.353   5.056
 3852SOL    HW112443   2.843   1.322   5.107
 3852SOL    HW212444   2.994   1.312   5.098
 3853SOL     OW12445   3.469   1.628   5.380
 3853SOL    HW112446   3.460   1.662   5.291
 3853SOL    HW212447   3.549   1.576   5.378
 3854SOL     OW12448   2.993   1.206   4.828
 3854SOL    HW112449   2.934   1.244   4.892
 3854SOL    HW212450   2.962   1.240   4.744
 3855SOL     OW12451   3.490   1.096   4.799
 3855SOL    HW112452   3.481   1.158   4.871
 3855SOL    HW212453   3.414   1.112   4.744
 3856SOL     OW12454   2.774   0.116   5.125
 3856SOL    HW112455   2.794   0.089   5.036
 3856SOL    HW212456   2.855   0.158   5.156
 3857SOL     OW12457   2.847   1.114   5.448
 3857SOL    HW112458   2.756   1.132   5.470
 3857SOL    HW212459   2.843   1.036   5.393
 3858SOL     OW12460   2.571   1.062   4.094
 3858SOL    HW112461   2.556   1.044   4.187
 3858SOL    HW212462   2.647   1.008   4.071
 3859SOL     OW12463   2.282   0.816   4.975
 3859SOL    HW112464   2.351   0.824   5.042
 3859SOL    HW212465   2.247   0.728   4.989
 3860SOL     OW12466   3.128   0.375   5.000
 3860SOL    HW112467   3.162   0.453   5.044
 3860SOL    HW212468   3.041   0.400   4.970
 3861SOL     OW12469   2.209   1.112   4.214
 3861SOL    HW112470   2.209   1.188   4.156
 3861SOL    HW212471   2.205   1.037   4.155
 3862SOL     OW12472   2.416   0.532   4.580
 3862SOL    HW112473   2.430   0.592   4.507
 3862SOL    HW212474   2.480   0.559   4.646
 3863SOL     OW12475   3.110   1.349   4.114
 3863SOL    HW112476   3.165   1.420   4.145
 3863SOL    HW212477   3.023   1.370   4.147
 3864SOL     OW12478   3.147   1.459   4.872
 3864SOL    HW112479   3.202   1.463   4.949
 3864SOL    HW212480   3.091   1.383   4.886
 3865SOL     OW12481   3.434   0.632   4.209
 3865SOL    HW112482   3.392   0.687   4.276
 3865SOL    HW212483   3.481   0.694   4.153
 3866SOL     OW12484   2.220   1.497   5.044
 3866SOL    HW112485   2.206   1.467   4.955
 3866SOL    HW212486   2.313   1.519   5.048
 3867SOL     OW12487   2.281   0.742   5.325
 3867SOL    HW112488   2.341   0.788   5.266
 3867SOL    HW212489   2.324   0.658   5.342
 3868SOL     OW12490   3.466   0.778   5.407
 3868SOL    HW112491   3.381   0.821   5.401
 3868SOL    HW212492   3.519   0.821   5.340
 3869SOL     OW12493   2.876   0.131   5.504
 3869SOL    HW112494   2.925   0.205   5.467
 3869SOL    HW212495   2.859   0.073   5.430
 3870SOL     OW12496   2.350   0.034   5.486
 3870SOL    HW112497   2.352   0.047   5.391
 3870SOL    HW212498   2.291   0.102   5.518
 3871SOL     OW12499   2.446   0.873   4.756
 3871SOL    HW112500   2.475   0.964   4.756
 3871SOL    HW212501   2.389   0.866   4.832
 3872SOL     OW12502   3.215   0.859   4.750
 3872SOL    HW112503   3.130   0.847   4.707
 3872SOL    HW212504   3.258   0.774   4.742
 3873SOL     OW12505   3.063   0.537   3.982
 3873SOL    HW112506   3.070   0.458   4.035
 3873SOL    HW212507   3.020   0.600   4.039
 3874SOL     OW12508   2.161   0.209   4.967
 3874SOL    HW112509   2.119   0.238   5.048
 3874SOL    HW212510   2.150   0.114   4.967
 3875SOL     OW12511   1.908   1.332   5.014
 3875SOL    HW112512   1.935   1.263   5.075
 3875SOL    HW212513   1.977   1.398   5.019
 3876SOL     OW12514   2.584   0.632   4.776
 3876SOL    HW112515   2.660   0.619   4.720
 3876SOL    HW212516   2.554   0.721   4.758
 3877SOL     OW12517   3.594   0.956   5.586
 3877SOL    HW112518   3.551   0.895   5.527
 3877SOL    HW212519   3.530   0.972   5.656
 3878SOL     OW12520   2.184   0.055   4.375
 3878SOL    HW112521   2.165   0.148   4.387
 3878SOL    HW212522   2.150   0.014   4.454
 3879SOL     OW12523   3.474   0.392   4.103
 3879SOL    HW112524   3.436   0.323   4.158
 3879SOL    HW212525   3.452   0.474   4.149
 3880SOL     OW12526   2.892   0.759   4.682
 3880SOL    HW112527   2.885   0.776   4.776
 3880SOL    HW212528   2.864   0.668   4.672
 3881SOL     OW12529   2.847   1.568   5.443
 3881SOL    HW112530   2.829   1.612   5.359
 3881SOL    HW212531   2.886   1.484   5.418
 3882SOL     OW12532   3.705   1.498   5.322
 3882SOL    HW112533   3.728   1.528   5.234
 3882SOL    HW212534   3.786   1.509   5.373
 3883SOL     OW12535   2.211   0.911   5.531
 3883SOL    HW112536   2.291   0.937   5.577
 3883SOL    HW212537   2.242   0.851   5.463
 3884SOL     OW12538   3.364   0.274   3.858
 3884SOL    HW112539   3.290   0.214   3.869
 3884SOL    HW212540   3.376   0.313   3.945
 3885SOL     OW12541   3.150   0.826   3.752
 3885SOL    HW112542   3.193   0.741   3.756
 3885SOL    HW212543   3.183   0.866   3.672
 3886SOL     OW12544   2.929   1.337   4.579
 3886SOL    HW112545   2.933   1.265   4.517
 3886SOL    HW212546   2.989   1.403   4.544
 3887SOL     OW12547   2.170   0.810   4.670
 3887SOL    HW112548   2.263   0.831   4.663
 3887SOL    HW212549   2.168   0.719   4.702
 3888SOL     OW12550   2.198   0.536   4.738
 3888SOL    HW112551   2.157   0.451   4.722
 3888SOL    HW212552   2.274   0.537   4.680
 3889SOL     OW12553   2.995   0.380   5.421
 3889SOL    HW112554   2.946   0.435   5.482
 3889SOL    HW212555   3.081   0.421   5.416
 3890SOL     OW12556   3.013   0.226   5.205
 3890SOL    HW112557   3.004   0.280   5.284
 3890SOL    HW212558   3.038   0.288   5.136
 3891SOL     OW12559   1.866   1.319   3.918
 3891SOL    HW112560   1.778   1.332   3.881
 3891SOL    HW212561   1.863   1.230   3.953
 3892SOL     OW12562   2.358   1.570   4.634
 3892SOL    HW112563   2.424   1.637   4.653
 3892SOL    HW212564   2.402   1.509   4.574
 3893SOL     OW12565   2.841   0.787   4.947
 3893SOL    HW112566   2.898   0.769   5.023
 3893SOL    HW212567   2.755   0.754   4.973
 3894SOL     OW12568   1.895   0.546   4.841
 3894SOL    HW112569   1.970   0.523   4.787
 3894SOL    HW212570   1.929   0.547   4.931
 3895SOL     OW12571   2.065   0.526   5.435
 3895SOL    HW112572   2.137   0.508   5.375
 3895SOL    HW212573   2.020   0.602   5.397
 3896SOL     OW12574   3.242   0.936   5.381
 3896SOL    HW112575   3.263   1.029   5.379
 3896SOL    HW212576   3.237   0.910   5.290
 3897SOL     OW12577   2.679   0.572   4.088
 3897SOL    HW112578   2.685   0.497   4.029
 3897SOL    HW212579   2.604   0.623   4.055
 3898SOL     OW12580   3.501   0.602   4.907
 3898SOL    HW112581   3.491   0.542   4.980
 3898SOL    HW212582   3.588   0.581   4.871
 3899SOL     OW12583   2.088   1.563   5.467
 3899SOL    HW112584   2.041   1.595   5.544
 3899SOL    HW212585   2.111   1.473   5.490
 3900SOL     OW12586   2.569   0.453   4.980
 3900SOL    HW112587   2.518   0.376   4.955
 3900SOL    HW212588   2.561   0.513   4.906
 3901SOL     OW12589   2.790   1.678   5.192
 3901SOL    HW112590   2.761   1.642   5.108
 3901SOL    HW212591   2.783   1.773   5.181
 3902SOL     OW12592   2.325   0.494   3.907
 3902SOL    HW112593   2.383   0.566   3.931
 3902SOL    HW212594   2.239   0.534   3.895
 3903SOL     OW12595   2.003   1.141   5.193
 3903SOL    HW112596   2.006   1.092   5.276
 3903SOL    HW212597   2.021   1.075   5.126
 3904SOL     OW12598   3.184   1.044   4.946
 3904SOL    HW112599   3.207   0.982   4.877
 3904SOL    HW212600   3.116   1.099   4.906
 3905SOL     OW12601   3.176   0.854   4.029
 3905SOL    HW112602   3.100   0.828   4.081
 3905SOL    HW212603   3.148   0.843   3.938
 3906SOL     OW12604   3.642   1.741   4.881
 3906SOL    HW112605   3.697   1.769   4.808
 3906SOL    HW212606   3.613   1.653   4.857
 3907SOL     OW12607   3.103   1.734   4.834
 3907SOL    HW112608   3.185   1.756   4.790
 3907SOL    HW212609   3.110   1.640   4.853
 3908SOL     OW12610   1.952   1.254   4.750
 3908SOL    HW112611   1.924   1.275   4.839
 3908SOL    HW212612   1.874   1.217   4.708
 3909SOL     OW12613   2.540   1.665   5.453
 3909SOL    HW112614   2.487   1.745   5.458
 3909SOL    HW212615   2.603   1.682   5.384
 3910SOL     OW12616   3.551   0.120   4.211
 3910SOL    HW112617   3.632   0.135   4.163
 3910SOL    HW212618   3.553   0.026   4.233
 3911SOL     OW12619   3.253   1.567   4.212
 3911SOL    HW112620   3.312   1.600   4.144
 3911SOL    HW212621   3.203   1.644   4.240
 3912SOL     OW12622   3.139   0.926   4.394
 3912SOL    HW112623   3.214   0.867   4.404
 3912SOL    HW212624   3.173   0.999   4.342
 3913SOL     OW12625   2.672   1.274   5.151
 3913SOL    HW112626   2.643   1.314   5.233
 3913SOL    HW212627   2.603   1.296   5.089
 3914SOL     OW12628   2.535   1.622   3.877
 3914SOL    HW112629   2.545   1.634   3.782
 3914SOL    HW212630   2.478   1.545   3.885
 3915SOL     OW12631   3.482   1.727   5.115
 3915SOL    HW112632   3.537   1.732   5.037
 3915SOL    HW212633   3.469   1.818   5.141
 3916SOL     OW12634   3.703   0.182   4.695
 3916SOL    HW112635   3.727   0.097   4.657
 3916SOL    HW212636   3.617   0.201   4.658
 3917SOL     OW12637   2.126   0.316   4.439
 3917SOL    HW112638   2.039   0.351   4.417
 3917SOL    HW212639   2.125   0.308   4.534
 3918SOL     OW12640   3.070   1.604   3.756
 3918SOL    HW112641   3.059   1.513   3.783
 3918SOL    HW212642   3.004   1.617   3.688
 3919SOL     OW12643   2.687   1.006   5.097
 3919SOL    HW112644   2.727   1.004   5.010
 3919SOL    HW212645   2.683   1.099   5.119
 3920SOL     OW12646   2.778   0.910   4.014
 3920SOL    HW112647   2.839   0.943   3.948
 3920SOL    HW212648   2.827   0.842   4.060
 3921SOL     OW12649   3.351   1.628   3.767
 3921SOL    HW112650   3.257   1.620   3.753
 3921SOL    HW212651   3.389   1.634   3.679
 3922SOL     OW12652   2.229   1.294   5.223
 3922SOL    HW112653   2.225   1.367   5.162
 3922SOL    HW212654   2.151   1.242   5.204
 3923SOL     OW12655   3.463   1.280   5.001
 3923SOL    HW112656   3.531   1.272   5.069
 3923SOL    HW212657   3.406   1.349   5.034
 3924SOL     OW12658   2.918   1.109   4.432
 3924SOL    HW112659   2.846   1.058   4.470
 3924SOL    HW212660   2.981   1.043   4.403
 3925SOL     OW12661   2.877   0.249   4.693
 3925SOL    HW112662   2.867   0.198   4.613
 3925SOL    HW212663   2.872   0.184   4.763
 3926SOL     OW12664   2.466   1.491   4.204
 3926SOL    HW112665   2.508   1.441   4.135
 3926SOL    HW212666   2.398   1.541   4.160
 3927SOL     OW12667   3.582   0.394   5.096
 3927SOL    HW112668   3.654   0.457   5.096
 3927SOL    HW212669   3.614   0.321   5.042
 3928SOL     OW12670   2.122   1.341   4.013
 3928SOL    HW112671   2.029   1.340   3.990
 3928SOL    HW212672   2.124   1.378   4.102
 3929SOL     OW12673   1.974   1.022   5.440
 3929SOL    HW112674   1.898   1.001   5.495
 3929SOL    HW212675   2.049   0.986   5.487
 3930SOL     OW12676   2.555   0.254   5.225
 3930SOL    HW112677   2.622   0.199   5.184
 3930SOL    HW212678   2.582   0.261   5.317
 3931SOL     OW12679   1.962   0.317   3.716
 3931SOL    HW112680   1.894   0.337   3.780
 3931SOL    HW212681   1.970   0.398   3.664
 3932SOL     OW12682   3.287   0.856   5.122
 3932SOL    HW112683   3.237   0.918   5.069
 3932SOL    HW212684   3.376   0.859   5.086
 3933SOL     OW12685   1.943   0.152   4.064
 3933SOL    HW112686   1.912   0.211   3.996
 3933SOL    HW212687   2.029   0.124   4.034
 3934SOL     OW12688   3.040   1.337   3.841
 3934SOL    HW112689   2.949   1.308   3.844
 3934SOL    HW212690   3.067   1.338   3.933
 3935SOL     OW12691   2.484   0.828   5.157
 3935SOL    HW112692   2.539   0.905   5.143
 3935SOL    HW212693   2.545   0.756   5.166
 3936SOL     OW12694   3.344   1.781   4.704
 3936SOL    HW112695   3.367   1.843   4.635
 3936SOL    HW212696   3.429   1.754   4.741
 3937SOL     OW12697   2.580   0.561   5.428
 3937SOL    HW112698   2.622   0.624   5.487
 3937SOL    HW212699   2.606   0.475   5.462
 3938SOL     OW12700   3.335   1.197   5.354
 3938SOL    HW112701   3.323   1.212   5.448
 3938SOL    HW212702   3.428   1.213   5.338
 3939SOL     OW12703   2.238   1.733   5.299
 3939SOL    HW112704   2.173   1.744   5.230
 3939SOL    HW212705   2.204   1.661   5.352
 3940SOL     OW12706   3.526   0.881   4.983
 3940SOL    HW112707   3.525   0.796   4.939
 3940SOL    HW212708   3.520   0.944   4.912
 3941SOL     OW12709   3.082   0.337   4.167
 3941SOL    HW112710   3.151   0.271   4.158
 3941SOL    HW212711   3.102   0.381   4.249
 3942SOL     OW12712   2.452   0.736   4.394
 3942SOL    HW112713   2.490   0.822   4.380
 3942SOL    HW212714   2.385   0.728   4.326
 3943SOL     OW12715   3.617   0.381   5.366
 3943SOL    HW112716   3.596   0.390   5.273
 3943SOL    HW212717   3.556   0.314   5.398
 3944SOL     OW12718   3.617   0.930   5.237
 3944SOL    HW112719   3.607   1.024   5.255
 3944SOL    HW212720   3.592   0.920   5.145
 3945SOL     OW12721   2.724   1.366   3.761
 3945SOL    HW112722   2.687   1.392   3.846
 3945SOL    HW212723   2.741   1.449   3.716
 3946SOL     OW12724   2.525   1.792   4.660
 3946SOL    HW112725   2.517   1.887   4.654
 3946SOL    HW212726   2.619   1.776   4.660
 3947SOL     OW12727   2.730   0.969   4.579
 3947SOL    HW112728   2.781   0.897   4.617
 3947SOL    HW212729   2.694   1.016   4.654
 3948SOL     OW12730   2.940   0.989   3.813
 3948SOL    HW112731   2.918   1.040   3.736
 3948SOL    HW212732   3.014   0.935   3.786
 3949SOL     OW12733   3.714   1.556   4.565
 3949SOL    HW112734   3.635   1.540   4.514
 3949SOL    HW212735   3.713   1.489   4.633
 3950SOL     OW12736   2.093   1.305   5.574
 3950SOL    HW112737   2.025   1.239   5.563
 3950SOL    HW212738   2.101   1.316   5.669
 3951SOL     OW12739   1.943   1.215   4.386
 3951SOL    HW112740   1.962   1.176   4.471
 3951SOL    HW212741   2.019   1.194   4.332
 3952SOL     OW12742   2.542   1.404   5.350
 3952SOL    HW112743   2.467   1.358   5.386
 3952SOL    HW212744   2.538   1.492   5.388
 3953SOL     OW12745   3.676   0.181   4.968
 3953SOL    HW112746   3.678   0.086   4.977
 3953SOL    HW212747   3.694   0.198   4.876
 3954SOL     OW12748   2.290   0.434   4.249
 3954SOL    HW112749   2.324   0.363   4.196
 3954SOL    HW212750   2.243   0.391   4.320
 3955SOL     OW12751   3.558   1.491   4.821
 3955SOL    HW112752   3.480   1.468   4.771
 3955SOL    HW212753   3.568   1.419   4.883
 3956SOL     OW12754   2.193   0.556   5.018
 3956SOL    HW112755   2.246   0.498   5.072
 3956SOL    HW212756   2.213   0.530   4.928
 3957SOL     OW12757   2.691   1.577   4.400
 3957SOL    HW112758   2.674   1.634   4.326
 3957SOL    HW212759   2.616   1.518   4.404
 3958SOL     OW12760   3.323   0.253   4.834
 3958SOL    HW112761   3.337   0.165   4.870
 3958SOL    HW212762   3.267   0.296   4.899
 3959SOL     OW12763   2.866   0.027   4.870
 3959SOL    HW112764   2.785   3.991   4.834
 3959SOL    HW212765   2.925   3.952   4.879
 3960SOL     OW12766   2.636   1.333   4.039
 3960SOL    HW112767   2.606   1.243   4.048
 3960SOL    HW212768   2.716   1.336   4.092
 3961SOL     OW12769   2.484   1.554   5.008
 3961SOL    HW112770   2.484   1.635   5.058
 3961SOL    HW212771   2.572   1.549   4.971
 3962SOL     OW12772   3.173   0.071   3.884
 3962SOL    HW112773   3.178   3.989   3.834
 3962SOL    HW212774   3.088   0.066   3.928
 3963SOL     OW12775   3.143   0.457   4.409
 3963SOL    HW112776   3.097   0.540   4.404
 3963SOL    HW212777   3.146   0.437   4.503
 3964SOL     OW12778   3.452   0.210   4.591
 3964SOL    HW112779   3.404   0.234   4.670
 3964SOL    HW212780   3.451   0.290   4.538
 3965SOL     OW12781   1.905   1.069   4.029
 3965SOL    HW112782   1.999   1.063   4.014
 3965SOL    HW212783   1.878   0.981   4.054
 3966SOL     OW12784   2.749   1.655   4.063
 3966SOL    HW112785   2.675   1.639   4.004
 3966SOL    HW212786   2.721   1.729   4.117
 3967SOL     OW12787   2.090   0.616   5.707
 3967SOL    HW112788   2.001   0.631   5.738
 3967SOL    HW212789   2.080   0.599   5.613
 3968SOL     OW12790   2.078   0.298   6.577
 3968SOL    HW112791   2.115   0.255   6.654
 3968SOL    HW212792   1.993   0.256   6.564
 3969SOL     OW12793   1.870   0.396   6.219
 3969SOL    HW112794   1.784   0.412   6.257
 3969SOL    HW212795   1.854   0.329   6.152
 3970SOL     OW12796   3.424   1.512   6.294
 3970SOL    HW112797   3.382   1.494   6.378
 3970SOL    HW212798   3.351   1.516   6.232
 3971SOL     OW12799   2.994   0.698   6.283
 3971SOL    HW112800   3.042   0.780   6.270
 3971SOL    HW212801   2.947   0.711   6.366
 3972SOL     OW12802   3.623   0.623   5.812
 3972SOL    HW112803   3.605   0.612   5.719
 3972SOL    HW212804   3.606   0.537   5.851
 3973SOL     OW12805   2.610   1.142   6.613
 3973SOL    HW112806   2.550   1.195   6.667
 3973SOL    HW212807   2.676   1.204   6.584
 3974SOL     OW12808   2.736   0.767   7.410
 3974SOL    HW112809   2.729   0.837   7.475
 3974SOL    HW212810   2.758   0.812   7.329
 3975SOL     OW12811   2.543   1.006   6.233
 3975SOL    HW112812   2.613   0.991   6.296
 3975SOL    HW212813   2.474   1.050   6.283
 3976SOL     OW12814   3.321   1.500   6.945
 3976SOL    HW112815   3.373   1.579   6.954
 3976SOL    HW212816   3.251   1.509   7.009
 3977SOL     OW12817   2.307   0.394   7.079
 3977SOL    HW112818   2.397   0.361   7.078
 3977SOL    HW212819   2.253   0.315   7.087
 3978SOL     OW12820   3.473   0.450   6.321
 3978SOL    HW112821   3.404   0.484   6.264
 3978SOL    HW212822   3.495   0.524   6.378
 3979SOL     OW12823   2.994   1.352   7.286
 3979SOL    HW112824   3.041   1.342   7.369
 3979SOL    HW212825   2.952   1.267   7.273
 3980SOL     OW12826   2.140   1.060   6.519
 3980SOL    HW112827   2.149   0.965   6.525
 3980SOL    HW212828   2.046   1.075   6.509
 3981SOL     OW12829   2.467   1.805   7.030
 3981SOL    HW112830   2.392   1.770   7.077
 3981SOL    HW212831   2.509   1.864   7.093
 3982SOL     OW12832   2.447   0.980   5.723
 3982SOL    HW112833   2.492   1.028   5.654
 3982SOL    HW212834   2.484   1.014   5.804
 3983SOL     OW12835   3.444   0.141   7.042
 3983SOL    HW112836   3.470   0.213   6.986
 3983SOL    HW212837   3.407   0.183   7.120
 3984SOL     OW12838   1.979   0.653   6.142
 3984SOL    HW112839   1.952   0.564   6.166
 3984SOL    HW212840   1.974   0.703   6.224
 3985SOL     OW12841   3.702   1.757   5.921
 3985SOL    HW112842   3.772   1.733   5.983
 3985SOL    HW212843   3.721   1.849   5.900
 3986SOL     OW12844   1.914   1.573   5.679
 3986SOL    HW112845   1.885   1.492   5.721
 3986SOL    HW212846   1.847   1.637   5.703
 3987SOL     OW12847   3.549   0.916   6.231
 3987SOL    HW112848   3.633   0.875   6.215
 3987SOL    HW212849   3.532   0.968   6.152
 3988SOL     OW12850   3.504   1.104   6.018
 3988SOL    HW112851   3.589   1.110   5.974
 3988SOL    HW212852   3.510   1.167   6.090
 3989SOL     OW12853   1.991   0.752   7.164
 3989SOL    HW112854   2.085   0.774   7.166
 3989SOL    HW212855   1.947   0.833   7.189
 3990SOL     OW12856   3.148   1.225   7.019
 3990SOL    HW112857   3.182   1.166   6.952
 3990SOL    HW212858   3.214   1.226   7.088
 3991SOL     OW12859   2.682   0.004   6.103
 3991SOL    HW112860   2.727   0.085   6.078
 3991SOL    HW212861   2.589   0.029   6.103
 3992SOL     OW12862   2.054   0.982   6.850
 3992SOL    HW112863   2.137   0.935   6.838
 3992SOL    HW212864   1.988   0.918   6.824
 3993SOL     OW12865   3.390   0.995   5.787
 3993SOL    HW112866   3.321   0.939   5.820
 3993SOL    HW212867   3.433   1.031   5.865
 3994SOL     OW12868   3.065   1.786   7.209
 3994SOL    HW112869   3.061   1.861   7.150
 3994SOL    HW212870   3.085   1.712   7.152
 3995SOL     OW12871   2.219   0.253   7.425
 3995SOL    HW112872   2.263   0.338   7.424
 3995SOL    HW212873   2.126   0.274   7.430
 3996SOL     OW12874   3.333   1.416   6.540
 3996SOL    HW112875   3.264   1.431   6.604
 3996SOL    HW212876   3.320   1.326   6.511
 3997SOL     OW12877   3.515   1.746   6.165
 3997SOL    HW112878   3.499   1.712   6.076
 3997SOL    HW212879   3.493   1.672   6.222
 3998SOL     OW12880   2.457   0.721   5.854
 3998SOL    HW112881   2.459   0.803   5.806
 3998SOL    HW212882   2.392   0.735   5.923
 3999SOL     OW12883   3.136   0.368   6.527
 3999SOL    HW112884   3.050   0.329   6.534
 3999SOL    HW212885   3.194   0.307   6.572
 4000SOL     OW12886   3.440   1.671   5.895
 4000SOL    HW112887   3.531   1.701   5.889
 4000SOL    HW212888   3.413   1.655   5.805
 4001SOL     OW12889   2.655   0.617   7.038
 4001SOL    HW112890   2.628   0.590   7.125
 4001SOL    HW212891   2.619   0.550   6.980
 4002SOL     OW12892   3.254   0.476   7.263
 4002SOL    HW112893   3.261   0.522   7.347
 4002SOL    HW212894   3.311   0.400   7.273
 4003SOL     OW12895   2.816   0.887   7.170
 4003SOL    HW112896   2.870   0.817   7.135
 4003SOL    HW212897   2.766   0.919   7.094
 4004SOL     OW12898   2.854   0.404   6.823
 4004SOL    HW112899   2.768   0.422   6.861
 4004SOL    HW212900   2.835   0.374   6.734
 4005SOL     OW12901   2.914   0.699   6.011
 4005SOL    HW112902   2.931   0.692   6.105
 4005SOL    HW212903   2.831   0.653   5.998
 4006SOL     OW12904   1.953   0.808   6.363
 4006SOL    HW112905   2.035   0.801   6.413
 4006SOL    HW212906   1.904   0.877   6.406
 4007SOL     OW12907   2.757   0.352   5.786
 4007SOL    HW112908   2.799   0.412   5.723
 4007SOL    HW212909   2.750   0.269   5.739
 4008SOL     OW12910   3.568   0.574   7.416
 4008SOL    HW112911   3.532   0.648   7.368
 4008SOL    HW212912   3.595   0.512   7.347
 4009SOL     OW12913   3.238   1.141   6.125
 4009SOL    HW112914   3.318   1.130   6.074
 4009SOL    HW212915   3.186   1.204   6.075
 4010SOL     OW12916   2.420   0.198   6.467
 4010SOL    HW112917   2.423   0.218   6.560
 4010SOL    HW212918   2.416   0.284   6.424
 4011SOL     OW12919   2.857   1.446   6.064
 4011SOL    HW112920   2.805   1.525   6.048
 4011SOL    HW212921   2.870   1.444   6.159
 4012SOL     OW12922   2.229   1.807   6.436
 4012SOL    HW112923   2.284   1.736   6.467
 4012SOL    HW212924   2.269   1.886   6.473
 4013SOL     OW12925   3.666   1.061   6.454
 4013SOL    HW112926   3.612   1.038   6.378
 4013SOL    HW212927   3.605   1.065   6.527
 4014SOL     OW12928   3.086   1.534   7.091
 4014SOL    HW112929   3.063   1.467   7.156
 4014SOL    HW212930   3.008   1.540   7.035
 4015SOL     OW12931   2.161   0.957   5.826
 4015SOL    HW112932   2.249   0.985   5.801
 4015SOL    HW212933   2.148   0.875   5.779
 4016SOL     OW12934   3.341   0.746   6.315
 4016SOL    HW112935   3.337   0.706   6.401
 4016SOL    HW212936   3.418   0.803   6.319
 4017SOL     OW12937   3.007   1.785   5.795
 4017SOL    HW112938   2.921   1.763   5.830
 4017SOL    HW212939   3.024   1.718   5.729
 4018SOL     OW12940   2.032   0.275   7.085
 4018SOL    HW112941   1.977   0.352   7.073
 4018SOL    HW212942   2.036   0.263   7.180
 4019SOL     OW12943   3.487   1.384   5.673
 4019SOL    HW112944   3.444   1.468   5.658
 4019SOL    HW212945   3.420   1.318   5.654
 4020SOL     OW12946   2.346   1.769   5.887
 4020SOL    HW112947   2.389   1.777   5.972
 4020SOL    HW212948   2.408   1.718   5.834
 4021SOL     OW12949   3.297   0.170   5.988
 4021SOL    HW112950   3.253   0.097   5.946
 4021SOL    HW212951   3.372   0.131   6.032
 4022SOL     OW12952   2.260   0.693   6.061
 4022SOL    HW112953   2.275   0.600   6.074
 4022SOL    HW212954   2.166   0.704   6.075
 4023SOL     OW12955   3.391   0.229   7.313
 4023SOL    HW112956   3.384   0.254   7.405
 4023SOL    HW212957   3.374   0.135   7.312
 4024SOL     OW12958   2.506   0.130   5.694
 4024SOL    HW112959   2.529   0.046   5.734
 4024SOL    HW212960   2.443   0.108   5.626
 4025SOL     OW12961   2.637   0.283   7.355
 4025SOL    HW112962   2.709   0.220   7.357
 4025SOL    HW212963   2.580   0.255   7.427
 4026SOL     OW12964   3.201   0.588   7.017
 4026SOL    HW112965   3.232   0.559   7.103
 4026SOL    HW212966   3.236   0.676   7.006
 4027SOL     OW12967   2.792   0.511   6.486
 4027SOL    HW112968   2.767   0.503   6.394
 4027SOL    HW212969   2.818   0.423   6.511
 4028SOL     OW12970   2.407   0.057   6.077
 4028SOL    HW112971   2.332   0.062   6.137
 4028SOL    HW212972   2.402   0.137   6.026
 4029SOL     OW12973   3.289   1.199   5.626
 4029SOL    HW112974   3.319   1.124   5.677
 4029SOL    HW212975   3.204   1.221   5.663
 4030SOL     OW12976   2.192   0.043   5.797
 4030SOL    HW112977   2.199   0.110   5.729
 4030SOL    HW212978   2.274   0.049   5.845
 4031SOL     OW12979   2.804   0.250   6.046
 4031SOL    HW112980   2.779   0.290   5.963
 4031SOL    HW212981   2.900   0.254   6.047
 4032SOL     OW12982   2.941   0.683   7.046
 4032SOL    HW112983   2.874   0.615   7.051
 4032SOL    HW212984   3.023   0.634   7.039
 4033SOL     OW12985   3.091   1.554   6.366
 4033SOL    HW112986   3.106   1.627   6.306
 4033SOL    HW212987   3.137   1.580   6.446
 4034SOL     OW12988   3.135   1.789   6.186
 4034SOL    HW112989   3.184   1.850   6.130
 4034SOL    HW212990   3.067   1.843   6.227
 4035SOL     OW12991   2.883   0.543   5.614
 4035SOL    HW112992   2.839   0.625   5.594
 4035SOL    HW212993   2.947   0.565   5.682
 4036SOL     OW12994   1.944   0.551   6.983
 4036SOL    HW112995   2.035   0.554   6.954
 4036SOL    HW212996   1.936   0.625   7.043
 4037SOL     OW12997   2.426   0.231   6.747
 4037SOL    HW112998   2.449   0.139   6.756
 4037SOL    HW212999   2.336   0.236   6.779
 4038SOL     OW13000   2.731   0.461   6.224
 4038SOL    HW113001   2.685   0.515   6.160
 4038SOL    HW213002   2.753   0.381   6.176
 4039SOL     OW13003   2.858   0.040   6.366
 4039SOL    HW113004   2.822   0.068   6.283
 4039SOL    HW213005   2.869   3.945   6.357
 4040SOL     OW13006   3.304   1.159   6.444
 4040SOL    HW113007   3.229   1.100   6.441
 4040SOL    HW213008   3.328   1.172   6.352
 4041SOL     OW13009   3.326   0.607   6.560
 4041SOL    HW113010   3.273   0.528   6.565
 4041SOL    HW213011   3.386   0.601   6.634
 4042SOL     OW13012   3.723   0.824   5.960
 4042SOL    HW113013   3.764   0.767   6.025
 4042SOL    HW213014   3.684   0.764   5.897
 4043SOL     OW13015   3.529   1.265   6.230
 4043SOL    HW113016   3.624   1.269   6.240
 4043SOL    HW213017   3.499   1.354   6.252
 4044SOL     OW13018   3.257   0.575   5.655
 4044SOL    HW113019   3.193   0.557   5.724
 4044SOL    HW213020   3.342   0.560   5.696
 4045SOL     OW13021   2.388   0.266   5.902
 4045SOL    HW113022   2.443   0.227   5.834
 4045SOL    HW213023   2.360   0.350   5.865
 4046SOL     OW13024   3.615   1.234   7.154
 4046SOL    HW113025   3.702   1.199   7.136
 4046SOL    HW213026   3.630   1.324   7.182
 4047SOL     OW13027   2.932   1.337   6.905
 4047SOL    HW113028   2.856   1.324   6.961
 4047SOL    HW213029   3.005   1.303   6.956
 4048SOL     OW13030   3.469   1.627   7.243
 4048SOL    HW113031   3.459   1.662   7.155
 4048SOL    HW213032   3.550   1.576   7.240
 4049SOL     OW13033   2.972   1.182   6.687
 4049SOL    HW113034   2.946   1.242   6.757
 4049SOL    HW213035   2.962   1.233   6.607
 4050SOL     OW13036   3.489   1.096   6.661
 4050SOL    HW113037   3.480   1.158   6.733
 4050SOL    HW213038   3.414   1.113   6.605
 4051SOL     OW13039   2.773   0.118   6.987
 4051SOL    HW113040   2.794   0.088   6.898
 4051SOL    HW213041   2.855   0.158   7.018
 4052SOL     OW13042   2.846   1.117   7.305
 4052SOL    HW113043   2.751   1.134   7.301
 4052SOL    HW213044   2.858   1.038   7.252
 4053SOL     OW13045   2.573   1.067   5.957
 4053SOL    HW113046   2.557   1.048   6.049
 4053SOL    HW213047   2.647   1.012   5.933
 4054SOL     OW13048   2.282   0.817   6.838
 4054SOL    HW113049   2.349   0.825   6.905
 4054SOL    HW213050   2.244   0.730   6.851
 4055SOL     OW13051   3.128   0.375   6.863
 4055SOL    HW113052   3.162   0.453   6.907
 4055SOL    HW213053   3.041   0.401   6.832
 4056SOL     OW13054   2.417   0.532   6.443
 4056SOL    HW113055   2.430   0.592   6.370
 4056SOL    HW213056   2.483   0.559   6.508
 4057SOL     OW13057   3.105   1.350   5.975
 4057SOL    HW113058   3.162   1.420   6.006
 4057SOL    HW213059   3.018   1.373   6.008
 4058SOL     OW13060   3.147   1.455   6.736
 4058SOL    HW113061   3.207   1.464   6.810
 4058SOL    HW213062   3.071   1.410   6.771
 4059SOL     OW13063   3.434   0.632   6.072
 4059SOL    HW113064   3.392   0.688   6.137
 4059SOL    HW213065   3.482   0.693   6.015
 4060SOL     OW13066   2.280   0.742   7.189
 4060SOL    HW113067   2.341   0.787   7.130
 4060SOL    HW213068   2.321   0.657   7.204
 4061SOL     OW13069   3.465   0.779   7.269
 4061SOL    HW113070   3.379   0.822   7.262
 4061SOL    HW213071   3.518   0.821   7.202
 4062SOL     OW13072   2.874   0.133   7.366
 4062SOL    HW113073   2.926   0.205   7.328
 4062SOL    HW213074   2.861   0.072   7.293
 4063SOL     OW13075   2.350   0.034   7.348
 4063SOL    HW113076   2.352   0.047   7.253
 4063SOL    HW213077   2.290   0.102   7.380
 4064SOL     OW13078   2.446   0.869   6.618
 4064SOL    HW113079   2.468   0.962   6.614
 4064SOL    HW213080   2.385   0.862   6.692
 4065SOL     OW13081   3.216   0.858   6.614
 4065SOL    HW113082   3.133   0.848   6.567
 4065SOL    HW213083   3.258   0.772   6.604
 4066SOL     OW13084   3.063   0.537   5.844
 4066SOL    HW113085   3.071   0.458   5.897
 4066SOL    HW213086   3.020   0.600   5.901
 4067SOL     OW13087   2.162   0.209   6.829
 4067SOL    HW113088   2.120   0.238   6.910
 4067SOL    HW213089   2.150   0.114   6.829
 4068SOL     OW13090   2.587   0.631   6.640
 4068SOL    HW113091   2.661   0.618   6.581
 4068SOL    HW213092   2.556   0.720   6.621
 4069SOL     OW13093   3.595   0.956   7.449
 4069SOL    HW113094   3.552   0.896   7.388
 4069SOL    HW213095   3.530   0.971   7.518
 4070SOL     OW13096   2.184   0.055   6.237
 4070SOL    HW113097   2.164   0.148   6.249
 4070SOL    HW213098   2.150   0.013   6.316
 4071SOL     OW13099   3.474   0.392   5.965
 4071SOL    HW113100   3.436   0.323   6.020
 4071SOL    HW213101   3.452   0.473   6.011
 4072SOL     OW13102   2.891   0.760   6.545
 4072SOL    HW113103   2.884   0.778   6.639
 4072SOL    HW213104   2.864   0.668   6.537
 4073SOL     OW13105   3.706   1.497   7.184
 4073SOL    HW113106   3.728   1.528   7.096
 4073SOL    HW213107   3.786   1.508   7.235
 4074SOL     OW13108   2.216   0.914   7.396
 4074SOL    HW113109   2.299   0.923   7.443
 4074SOL    HW213110   2.235   0.852   7.326
 4075SOL     OW13111   3.364   0.274   5.720
 4075SOL    HW113112   3.290   0.214   5.731
 4075SOL    HW213113   3.376   0.313   5.807
 4076SOL     OW13114   3.150   0.826   5.614
 4076SOL    HW113115   3.193   0.741   5.618
 4076SOL    HW213116   3.182   0.866   5.534
 4077SOL     OW13117   2.930   1.327   6.457
 4077SOL    HW113118   2.929   1.260   6.388
 4077SOL    HW213119   2.983   1.398   6.421
 4078SOL     OW13120   2.177   0.792   6.526
 4078SOL    HW113121   2.270   0.811   6.523
 4078SOL    HW213122   2.171   0.704   6.562
 4079SOL     OW13123   2.202   0.530   6.604
 4079SOL    HW113124   2.159   0.446   6.587
 4079SOL    HW213125   2.277   0.531   6.544
 4080SOL     OW13126   2.995   0.381   7.282
 4080SOL    HW113127   2.947   0.435   7.345
 4080SOL    HW213128   3.082   0.421   7.277
 4081SOL     OW13129   3.013   0.226   7.067
 4081SOL    HW113130   3.004   0.280   7.145
 4081SOL    HW213131   3.039   0.287   6.998
 4082SOL     OW13132   1.837   1.327   5.801
 4082SOL    HW113133   1.755   1.339   5.755
 4082SOL    HW213134   1.844   1.233   5.815
 4083SOL     OW13135   2.837   0.790   6.813
 4083SOL    HW113136   2.895   0.770   6.886
 4083SOL    HW213137   2.755   0.744   6.832
 4084SOL     OW13138   1.894   0.544   6.704
 4084SOL    HW113139   1.969   0.521   6.649
 4084SOL    HW213140   1.929   0.547   6.793
 4085SOL     OW13141   2.064   0.527   7.298
 4085SOL    HW113142   2.133   0.506   7.236
 4085SOL    HW213143   2.020   0.603   7.260
 4086SOL     OW13144   3.239   0.937   7.243
 4086SOL    HW113145   3.264   1.030   7.241
 4086SOL    HW213146   3.236   0.911   7.151
 4087SOL     OW13147   2.678   0.572   5.951
 4087SOL    HW113148   2.684   0.497   5.891
 4087SOL    HW213149   2.604   0.623   5.918
 4088SOL     OW13150   3.501   0.601   6.769
 4088SOL    HW113151   3.491   0.540   6.842
 4088SOL    HW213152   3.587   0.581   6.732
 4089SOL     OW13153   2.571   0.452   6.842
 4089SOL    HW113154   2.519   0.375   6.818
 4089SOL    HW213155   2.562   0.512   6.768
 4090SOL     OW13156   2.809   1.651   7.011
 4090SOL    HW113157   2.762   1.686   6.935
 4090SOL    HW213158   2.833   1.729   7.061
 4091SOL     OW13159   2.326   0.494   5.770
 4091SOL    HW113160   2.383   0.567   5.794
 4091SOL    HW213161   2.240   0.534   5.756
 4092SOL     OW13162   3.181   1.044   6.808
 4092SOL    HW113163   3.208   0.982   6.739
 4092SOL    HW213164   3.109   1.093   6.769
 4093SOL     OW13165   3.176   0.854   5.891
 4093SOL    HW113166   3.100   0.828   5.942
 4093SOL    HW213167   3.148   0.843   5.800
 4094SOL     OW13168   3.642   1.741   6.742
 4094SOL    HW113169   3.697   1.769   6.669
 4094SOL    HW213170   3.612   1.653   6.718
 4095SOL     OW13171   3.121   1.734   6.702
 4095SOL    HW113172   3.201   1.749   6.650
 4095SOL    HW213173   3.119   1.640   6.715
 4096SOL     OW13174   3.551   0.120   6.073
 4096SOL    HW113175   3.632   0.135   6.025
 4096SOL    HW213176   3.553   0.026   6.095
 4097SOL     OW13177   3.252   1.565   6.069
 4097SOL    HW113178   3.313   1.599   6.003
 4097SOL    HW213179   3.206   1.643   6.101
 4098SOL     OW13180   3.139   0.927   6.257
 4098SOL    HW113181   3.213   0.868   6.268
 4098SOL    HW213182   3.172   0.999   6.204
 4099SOL     OW13183   2.682   1.279   7.033
 4099SOL    HW113184   2.692   1.338   7.108
 4099SOL    HW213185   2.609   1.315   6.983
 4100SOL     OW13186   2.528   1.627   5.734
 4100SOL    HW113187   2.536   1.635   5.639
 4100SOL    HW213188   2.512   1.534   5.748
 4101SOL     OW13189   3.484   1.726   6.978
 4101SOL    HW113190   3.537   1.731   6.899
 4101SOL    HW213191   3.471   1.817   7.005
 4102SOL     OW13192   3.703   0.181   6.557
 4102SOL    HW113193   3.728   0.097   6.519
 4102SOL    HW213194   3.617   0.201   6.520
 4103SOL     OW13195   2.125   0.315   6.301
 4103SOL    HW113196   2.039   0.350   6.278
 4103SOL    HW213197   2.124   0.307   6.396
 4104SOL     OW13198   3.072   1.597   5.611
 4104SOL    HW113199   3.061   1.506   5.639
 4104SOL    HW213200   3.005   1.609   5.543
 4105SOL     OW13201   2.686   1.008   6.958
 4105SOL    HW113202   2.739   0.993   6.880
 4105SOL    HW213203   2.694   1.102   6.975
 4106SOL     OW13204   2.779   0.912   5.878
 4106SOL    HW113205   2.839   0.944   5.811
 4106SOL    HW213206   2.827   0.842   5.922
 4107SOL     OW13207   3.351   1.630   5.629
 4107SOL    HW113208   3.257   1.619   5.613
 4107SOL    HW213209   3.389   1.634   5.541
 4108SOL     OW13210   3.462   1.279   6.864
 4108SOL    HW113211   3.533   1.274   6.928
 4108SOL    HW213212   3.406   1.349   6.896
 4109SOL     OW13213   2.915   1.109   6.290
 4109SOL    HW113214   2.845   1.056   6.329
 4109SOL    HW213215   2.980   1.045   6.263
 4110SOL     OW13216   2.876   0.249   6.556
 4110SOL    HW113217   2.866   0.199   6.475
 4110SOL    HW213218   2.872   0.183   6.626
 4111SOL     OW13219   3.582   0.394   6.958
 4111SOL    HW113220   3.654   0.457   6.958
 4111SOL    HW213221   3.614   0.322   6.904
 4112SOL     OW13222   2.101   1.330   5.844
 4112SOL    HW113223   2.006   1.341   5.845
 4112SOL    HW213224   2.129   1.358   5.931
 4113SOL     OW13225   1.962   1.003   7.295
 4113SOL    HW113226   1.891   0.995   7.358
 4113SOL    HW213227   2.041   0.987   7.347
 4114SOL     OW13228   2.555   0.256   7.088
 4114SOL    HW113229   2.621   0.201   7.046
 4114SOL    HW213230   2.582   0.260   7.179
 4115SOL     OW13231   1.962   0.317   5.577
 4115SOL    HW113232   1.894   0.338   5.642
 4115SOL    HW213233   1.971   0.398   5.526
 4116SOL     OW13234   3.287   0.857   6.984
 4116SOL    HW113235   3.237   0.919   6.930
 4116SOL    HW213236   3.376   0.860   6.948
 4117SOL     OW13237   1.943   0.152   5.926
 4117SOL    HW113238   1.912   0.212   5.858
 4117SOL    HW213239   2.029   0.124   5.896
 4118SOL     OW13240   3.041   1.335   5.703
 4118SOL    HW113241   2.951   1.300   5.705
 4118SOL    HW213242   3.067   1.337   5.795
 4119SOL     OW13243   2.484   0.831   7.021
 4119SOL    HW113244   2.542   0.904   7.000
 4119SOL    HW213245   2.542   0.755   7.029
 4120SOL     OW13246   3.352   1.778   6.557
 4120SOL    HW113247   3.375   1.846   6.493
 4120SOL    HW213248   3.434   1.758   6.601
 4121SOL     OW13249   2.581   0.559   7.291
 4121SOL    HW113250   2.623   0.620   7.351
 4121SOL    HW213251   2.604   0.472   7.323
 4122SOL     OW13252   3.339   1.195   7.218
 4122SOL    HW113253   3.329   1.211   7.311
 4122SOL    HW213254   3.431   1.213   7.200
 4123SOL     OW13255   2.235   1.716   7.168
 4123SOL    HW113256   2.158   1.745   7.119
 4123SOL    HW213257   2.215   1.626   7.195
 4124SOL     OW13258   3.526   0.881   6.845
 4124SOL    HW113259   3.525   0.796   6.800
 4124SOL    HW213260   3.519   0.945   6.775
 4125SOL     OW13261   3.082   0.337   6.029
 4125SOL    HW113262   3.151   0.271   6.020
 4125SOL    HW213263   3.103   0.381   6.112
 4126SOL     OW13264   2.451   0.737   6.258
 4126SOL    HW113265   2.490   0.823   6.238
 4126SOL    HW213266   2.384   0.725   6.190
 4127SOL     OW13267   3.616   0.381   7.228
 4127SOL    HW113268   3.596   0.390   7.135
 4127SOL    HW213269   3.556   0.313   7.260
 4128SOL     OW13270   3.615   0.930   7.100
 4128SOL    HW113271   3.608   1.024   7.117
 4128SOL    HW213272   3.592   0.921   7.007
 4129SOL     OW13273   2.726   1.364   5.612
 4129SOL    HW113274   2.701   1.380   5.703
 4129SOL    HW213275   2.742   1.452   5.577
 4130SOL     OW13276   2.729   0.963   6.435
 4130SOL    HW113277   2.783   0.893   6.473
 4130SOL    HW213278   2.692   1.008   6.510
 4131SOL     OW13279   2.941   0.990   5.677
 4131SOL    HW113280   2.917   1.040   5.598
 4131SOL    HW213281   3.014   0.935   5.649
 4132SOL     OW13282   3.714   1.556   6.427
 4132SOL    HW113283   3.634   1.541   6.377
 4132SOL    HW213284   3.710   1.491   6.498
 4133SOL     OW13285   3.675   0.181   6.830
 4133SOL    HW113286   3.678   0.086   6.839
 4133SOL    HW213287   3.694   0.198   6.738
 4134SOL     OW13288   2.291   0.433   6.113
 4134SOL    HW113289   2.324   0.361   6.058
 4134SOL    HW213290   2.242   0.389   6.182
 4135SOL     OW13291   3.561   1.490   6.682
 4135SOL    HW113292   3.482   1.468   6.632
 4135SOL    HW213293   3.569   1.419   6.745
 4136SOL     OW13294   2.193   0.557   6.881
 4136SOL    HW113295   2.246   0.498   6.934
 4136SOL    HW213296   2.212   0.531   6.791
 4137SOL     OW13297   3.323   0.253   6.696
 4137SOL    HW113298   3.337   0.165   6.731
 4137SOL    HW213299   3.268   0.296   6.761
 4138SOL     OW13300   2.866   0.027   6.733
 4138SOL    HW113301   2.785   3.990   6.697
 4138SOL    HW213302   2.925   3.952   6.741
 4139SOL     OW13303   2.657   1.330   5.877
 4139SOL    HW113304   2.615   1.246   5.895
 4139SOL    HW213305   2.723   1.339   5.945
 4140SOL     OW13306   3.173   0.071   5.746
 4140SOL    HW113307   3.179   3.989   5.696
 4140SOL    HW213308   3.088   0.066   5.791
 4141SOL     OW13309   3.143   0.456   6.271
 4141SOL    HW113310   3.097   0.540   6.266
 4141SOL    HW213311   3.146   0.437   6.365
 4142SOL     OW13312   3.452   0.210   6.453
 4142SOL    HW113313   3.404   0.234   6.532
 4142SOL    HW213314   3.451   0.290   6.400
 4143SOL     OW13315   1.901   1.068   5.891
 4143SOL    HW113316   1.994   1.067   5.871
 4143SOL    HW213317   1.880   0.978   5.916
 4144SOL     OW13318   2.090   0.619   7.569
 4144SOL    HW113319   2.000   0.629   7.601
 4144SOL    HW213320   2.080   0.600   7.476
 4145SOL     OW13321   2.079   0.300   8.439
 4145SOL    HW113322   2.116   0.257   8.516
 4145SOL    HW213323   1.994   0.258   8.426
 4146SOL     OW13324   1.870   0.397   8.081
 4146SOL    HW113325   1.784   0.413   8.119
 4146SOL    HW213326   1.856   0.329   8.016
 4147SOL     OW13327   2.430   1.291   8.624
 4147SOL    HW113328   2.342   1.295   8.585
 4147SOL    HW213329   2.446   1.380   8.654
 4148SOL     OW13330   3.426   1.512   8.155
 4148SOL    HW113331   3.383   1.492   8.238
 4148SOL    HW213332   3.354   1.518   8.092
 4149SOL     OW13333   2.994   0.699   8.144
 4149SOL    HW113334   3.042   0.781   8.133
 4149SOL    HW213335   2.947   0.710   8.227
 4150SOL     OW13336   3.622   0.623   7.675
 4150SOL    HW113337   3.604   0.612   7.581
 4150SOL    HW213338   3.607   0.536   7.712
 4151SOL     OW13339   2.614   1.140   8.492
 4151SOL    HW113340   2.546   1.175   8.548
 4151SOL    HW213341   2.654   1.217   8.451
 4152SOL     OW13342   2.733   0.769   9.272
 4152SOL    HW113343   2.718   0.840   9.335
 4152SOL    HW213344   2.755   0.814   9.190
 4153SOL     OW13345   2.550   1.000   8.092
 4153SOL    HW113346   2.615   0.990   8.162
 4153SOL    HW213347   2.479   1.051   8.132
 4154SOL     OW13348   2.575   1.150   9.263
 4154SOL    HW113349   2.622   1.227   9.292
 4154SOL    HW213350   2.493   1.183   9.227
 4155SOL     OW13351   2.191   1.422   8.516
 4155SOL    HW113352   2.116   1.385   8.470
 4155SOL    HW213353   2.237   1.475   8.451
 4156SOL     OW13354   3.321   1.501   8.805
 4156SOL    HW113355   3.375   1.580   8.815
 4156SOL    HW213356   3.256   1.508   8.875
 4157SOL     OW13357   2.307   0.393   8.940
 4157SOL    HW113358   2.397   0.361   8.940
 4157SOL    HW213359   2.254   0.314   8.949
 4158SOL     OW13360   3.472   0.450   8.183
 4158SOL    HW113361   3.403   0.484   8.126
 4158SOL    HW213362   3.495   0.524   8.240
 4159SOL     OW13363   2.999   1.342   9.142
 4159SOL    HW113364   3.040   1.337   9.228
 4159SOL    HW213365   2.947   1.262   9.135
 4160SOL     OW13366   2.122   1.091   8.339
 4160SOL    HW113367   2.115   1.003   8.374
 4160SOL    HW213368   2.064   1.144   8.393
 4161SOL     OW13369   2.470   1.784   8.880
 4161SOL    HW113370   2.392   1.771   8.934
 4161SOL    HW213371   2.495   1.875   8.896
 4162SOL     OW13372   2.440   0.984   7.585
 4162SOL    HW113373   2.462   1.056   7.525
 4162SOL    HW213374   2.484   1.007   7.667
 4163SOL     OW13375   3.444   0.141   8.904
 4163SOL    HW113376   3.470   0.213   8.848
 4163SOL    HW213377   3.408   0.183   8.982
 4164SOL     OW13378   1.979   0.656   8.008
 4164SOL    HW113379   1.952   0.568   8.031
 4164SOL    HW213380   1.970   0.707   8.088
 4165SOL     OW13381   3.702   1.757   7.785
 4165SOL    HW113382   3.773   1.733   7.845
 4165SOL    HW213383   3.720   1.849   7.762
 4166SOL     OW13384   3.549   0.917   8.093
 4166SOL    HW113385   3.634   0.875   8.079
 4166SOL    HW213386   3.533   0.967   8.014
 4167SOL     OW13387   3.504   1.105   7.880
 4167SOL    HW113388   3.589   1.110   7.835
 4167SOL    HW213389   3.511   1.167   7.952
 4168SOL     OW13390   1.985   0.749   9.029
 4168SOL    HW113391   2.075   0.781   9.033
 4168SOL    HW213392   1.932   0.829   9.035
 4169SOL     OW13393   2.482   1.375   8.208
 4169SOL    HW113394   2.437   1.292   8.221
 4169SOL    HW213395   2.463   1.399   8.117
 4170SOL     OW13396   3.149   1.237   8.870
 4170SOL    HW113397   3.182   1.170   8.810
 4170SOL    HW213398   3.208   1.232   8.946
 4171SOL     OW13399   2.682   0.005   7.965
 4171SOL    HW113400   2.727   0.085   7.940
 4171SOL    HW213401   2.589   0.029   7.965
 4172SOL     OW13402   2.051   0.961   8.724
 4172SOL    HW113403   2.136   0.921   8.708
 4172SOL    HW213404   1.991   0.915   8.666
 4173SOL     OW13405   3.389   0.996   7.649
 4173SOL    HW113406   3.320   0.940   7.684
 4173SOL    HW213407   3.433   1.031   7.727
 4174SOL     OW13408   3.047   1.809   9.071
 4174SOL    HW113409   3.057   1.868   8.997
 4174SOL    HW213410   3.065   1.722   9.036
 4175SOL     OW13411   2.219   0.253   9.287
 4175SOL    HW113412   2.263   0.338   9.287
 4175SOL    HW213413   2.126   0.274   9.292
 4176SOL     OW13414   3.327   1.421   8.397
 4176SOL    HW113415   3.261   1.435   8.464
 4176SOL    HW213416   3.316   1.329   8.372
 4177SOL     OW13417   3.515   1.746   8.027
 4177SOL    HW113418   3.501   1.714   7.938
 4177SOL    HW213419   3.496   1.671   8.083
 4178SOL     OW13420   2.456   0.720   7.717
 4178SOL    HW113421   2.456   0.802   7.668
 4178SOL    HW213422   2.391   0.733   7.786
 4179SOL     OW13423   3.137   0.369   8.389
 4179SOL    HW113424   3.049   0.329   8.396
 4179SOL    HW213425   3.194   0.307   8.434
 4180SOL     OW13426   3.441   1.668   7.758
 4180SOL    HW113427   3.531   1.700   7.752
 4180SOL    HW213428   3.414   1.654   7.667
 4181SOL     OW13429   2.658   0.616   8.900
 4181SOL    HW113430   2.629   0.590   8.988
 4181SOL    HW213431   2.619   0.550   8.842
 4182SOL     OW13432   3.254   0.476   9.125
 4182SOL    HW113433   3.260   0.521   9.209
 4182SOL    HW213434   3.311   0.400   9.135
 4183SOL     OW13435   2.814   0.887   9.032
 4183SOL    HW113436   2.869   0.818   8.995
 4183SOL    HW213437   2.766   0.922   8.958
 4184SOL     OW13438   2.854   0.402   8.686
 4184SOL    HW113439   2.770   0.424   8.725
 4184SOL    HW213440   2.833   0.374   8.597
 4185SOL     OW13441   2.914   0.700   7.873
 4185SOL    HW113442   2.931   0.693   7.967
 4185SOL    HW213443   2.831   0.653   7.860
 4186SOL     OW13444   1.944   0.823   8.223
 4186SOL    HW113445   2.024   0.815   8.274
 4186SOL    HW213446   1.897   0.897   8.262
 4187SOL     OW13447   2.757   0.352   7.648
 4187SOL    HW113448   2.799   0.410   7.585
 4187SOL    HW213449   2.748   0.268   7.601
 4188SOL     OW13450   3.569   0.573   9.278
 4188SOL    HW113451   3.532   0.648   9.230
 4188SOL    HW213452   3.595   0.512   9.209
 4189SOL     OW13453   3.239   1.141   7.987
 4189SOL    HW113454   3.320   1.129   7.938
 4189SOL    HW213455   3.190   1.205   7.936
 4190SOL     OW13456   2.420   0.199   8.329
 4190SOL    HW113457   2.423   0.218   8.422
 4190SOL    HW213458   2.415   0.285   8.287
 4191SOL     OW13459   2.874   1.449   7.926
 4191SOL    HW113460   2.826   1.520   7.883
 4191SOL    HW213461   2.856   1.461   8.019
 4192SOL     OW13462   2.213   1.799   8.308
 4192SOL    HW113463   2.249   1.711   8.316
 4192SOL    HW213464   2.288   1.857   8.319
 4193SOL     OW13465   3.667   1.061   8.316
 4193SOL    HW113466   3.614   1.037   8.241
 4193SOL    HW213467   3.605   1.065   8.389
 4194SOL     OW13468   3.089   1.539   8.962
 4194SOL    HW113469   3.077   1.467   9.023
 4194SOL    HW213470   3.024   1.525   8.893
 4195SOL     OW13471   2.180   0.958   7.700
 4195SOL    HW113472   2.260   0.973   7.649
 4195SOL    HW213473   2.144   0.877   7.665
 4196SOL     OW13474   3.341   0.748   8.177
 4196SOL    HW113475   3.336   0.706   8.263
 4196SOL    HW213476   3.419   0.803   8.181
 4197SOL     OW13477   2.332   1.265   9.188
 4197SOL    HW113478   2.305   1.268   9.096
 4197SOL    HW213479   2.250   1.262   9.237
 4198SOL     OW13480   3.033   1.758   7.705
 4198SOL    HW113481   2.954   1.725   7.748
 4198SOL    HW213482   3.043   1.703   7.628
 4199SOL     OW13483   2.032   0.275   8.947
 4199SOL    HW113484   1.976   0.352   8.936
 4199SOL    HW213485   2.037   0.262   9.042
 4200SOL     OW13486   3.487   1.383   7.537
 4200SOL    HW113487   3.446   1.467   7.520
 4200SOL    HW213488   3.420   1.318   7.515
 4201SOL     OW13489   3.297   0.169   7.850
 4201SOL    HW113490   3.252   0.095   7.809
 4201SOL    HW213491   3.372   0.130   7.894
 4202SOL     OW13492   2.120   1.744   8.665
 4202SOL    HW113493   2.180   1.680   8.703
 4202SOL    HW213494   2.138   1.743   8.571
 4203SOL     OW13495   2.803   1.697   8.347
 4203SOL    HW113496   2.883   1.651   8.373
 4203SOL    HW213497   2.765   1.643   8.278
 4204SOL     OW13498   2.257   0.695   7.922
 4204SOL    HW113499   2.275   0.602   7.935
 4204SOL    HW213500   2.164   0.704   7.940
 4205SOL     OW13501   3.392   0.229   9.175
 4205SOL    HW113502   3.385   0.255   9.267
 4205SOL    HW213503   3.373   0.136   9.174
 4206SOL     OW13504   2.505   0.130   7.556
 4206SOL    HW113505   2.529   0.046   7.595
 4206SOL    HW213506   2.443   0.108   7.487
 4207SOL     OW13507   2.637   0.282   9.216
 4207SOL    HW113508   2.709   0.219   9.220
 4207SOL    HW213509   2.579   0.256   9.288
 4208SOL     OW13510   2.741   1.524   8.643
 4208SOL    HW113511   2.723   1.486   8.557
 4208SOL    HW213512   2.809   1.469   8.680
 4209SOL     OW13513   3.202   0.587   8.878
 4209SOL    HW113514   3.232   0.559   8.965
 4209SOL    HW213515   3.236   0.676   8.869
 4210SOL     OW13516   2.684   1.394   8.399
 4210SOL    HW113517   2.766   1.381   8.351
 4210SOL    HW213518   2.616   1.392   8.331
 4211SOL     OW13519   2.792   0.511   8.348
 4211SOL    HW113520   2.767   0.503   8.256
 4211SOL    HW213521   2.818   0.423   8.374
 4212SOL     OW13522   2.407   0.057   7.939
 4212SOL    HW113523   2.333   0.062   7.999
 4212SOL    HW213524   2.402   0.137   7.888
 4213SOL     OW13525   3.290   1.198   7.488
 4213SOL    HW113526   3.321   1.124   7.539
 4213SOL    HW213527   3.206   1.221   7.528
 4214SOL     OW13528   2.192   0.043   7.659
 4214SOL    HW113529   2.199   0.109   7.590
 4214SOL    HW213530   2.274   0.048   7.707
 4215SOL     OW13531   2.804   0.250   7.908
 4215SOL    HW113532   2.780   0.289   7.824
 4215SOL    HW213533   2.900   0.253   7.909
 4216SOL     OW13534   2.942   0.684   8.906
 4216SOL    HW113535   2.872   0.619   8.913
 4216SOL    HW213536   3.022   0.632   8.901
 4217SOL     OW13537   3.084   1.570   8.241
 4217SOL    HW113538   3.099   1.637   8.174
 4217SOL    HW213539   3.153   1.584   8.305
 4218SOL     OW13540   2.335   1.144   8.184
 4218SOL    HW113541   2.264   1.126   8.246
 4218SOL    HW213542   2.296   1.130   8.098
 4219SOL     OW13543   3.126   1.792   8.057
 4219SOL    HW113544   3.176   1.851   8.001
 4219SOL    HW213545   3.062   1.849   8.100
 4220SOL     OW13546   2.885   0.540   7.477
 4220SOL    HW113547   2.841   0.623   7.458
 4220SOL    HW213548   2.948   0.562   7.546
 4221SOL     OW13549   1.944   0.550   8.844
 4221SOL    HW113550   2.035   0.553   8.815
 4221SOL    HW213551   1.936   0.623   8.906
 4222SOL     OW13552   2.425   0.231   8.609
 4222SOL    HW113553   2.449   0.139   8.619
 4222SOL    HW213554   2.336   0.236   8.641
 4223SOL     OW13555   2.732   0.461   8.086
 4223SOL    HW113556   2.683   0.514   8.024
 4223SOL    HW213557   2.753   0.381   8.038
 4224SOL     OW13558   2.858   0.040   8.228
 4224SOL    HW113559   2.821   0.068   8.145
 4224SOL    HW213560   2.869   3.945   8.218
 4225SOL     OW13561   3.302   1.162   8.306
 4225SOL    HW113562   3.232   1.096   8.303
 4225SOL    HW213563   3.329   1.171   8.215
 4226SOL     OW13564   3.326   0.608   8.422
 4226SOL    HW113565   3.273   0.529   8.427
 4226SOL    HW213566   3.386   0.601   8.496
 4227SOL     OW13567   3.720   0.824   7.823
 4227SOL    HW113568   3.762   0.767   7.887
 4227SOL    HW213569   3.683   0.764   7.759
 4228SOL     OW13570   3.528   1.264   8.093
 4228SOL    HW113571   3.624   1.267   8.102
 4228SOL    HW213572   3.500   1.354   8.113
 4229SOL     OW13573   3.257   0.577   7.517
 4229SOL    HW113574   3.194   0.556   7.587
 4229SOL    HW213575   3.342   0.559   7.556
 4230SOL     OW13576   2.388   0.266   7.764
 4230SOL    HW113577   2.443   0.227   7.696
 4230SOL    HW213578   2.360   0.349   7.727
 4231SOL     OW13579   3.613   1.234   9.014
 4231SOL    HW113580   3.701   1.199   8.997
 4231SOL    HW213581   3.629   1.323   9.044
 4232SOL     OW13582   2.919   1.353   8.780
 4232SOL    HW113583   2.844   1.322   8.831
 4232SOL    HW213584   2.995   1.312   8.822
 4233SOL     OW13585   3.468   1.628   9.104
 4233SOL    HW113586   3.460   1.663   9.015
 4233SOL    HW213587   3.548   1.577   9.103
 4234SOL     OW13588   2.993   1.206   8.552
 4234SOL    HW113589   2.935   1.244   8.617
 4234SOL    HW213590   2.961   1.240   8.468
 4235SOL     OW13591   3.490   1.096   8.523
 4235SOL    HW113592   3.481   1.157   8.596
 4235SOL    HW213593   3.413   1.113   8.468
 4236SOL     OW13594   2.774   0.116   8.849
 4236SOL    HW113595   2.794   0.089   8.760
 4236SOL    HW213596   2.855   0.158   8.880
 4237SOL     OW13597   2.846   1.115   9.171
 4237SOL    HW113598   2.755   1.132   9.194
 4237SOL    HW213599   2.843   1.037   9.116
 4238SOL     OW13600   2.570   1.049   7.819
 4238SOL    HW113601   2.553   1.030   7.912
 4238SOL    HW213602   2.646   0.995   7.797
 4239SOL     OW13603   2.283   0.816   8.699
 4239SOL    HW113604   2.351   0.824   8.765
 4239SOL    HW213605   2.247   0.728   8.712
 4240SOL     OW13606   3.128   0.375   8.724
 4240SOL    HW113607   3.162   0.453   8.769
 4240SOL    HW213608   3.041   0.400   8.695
 4241SOL     OW13609   1.947   1.557   8.813
 4241SOL    HW113610   1.921   1.621   8.746
 4241SOL    HW213611   2.043   1.554   8.806
 4242SOL     OW13612   2.223   1.106   7.939
 4242SOL    HW113613   2.215   1.180   7.879
 4242SOL    HW213614   2.206   1.029   7.885
 4243SOL     OW13615   2.416   0.532   8.304
 4243SOL    HW113616   2.430   0.592   8.231
 4243SOL    HW213617   2.480   0.559   8.370
 4244SOL     OW13618   3.114   1.351   7.837
 4244SOL    HW113619   3.172   1.421   7.868
 4244SOL    HW213620   3.028   1.374   7.874
 4245SOL     OW13621   3.146   1.459   8.596
 4245SOL    HW113622   3.203   1.464   8.673
 4245SOL    HW213623   3.092   1.382   8.611
 4246SOL     OW13624   3.433   0.632   7.933
 4246SOL    HW113625   3.393   0.689   7.999
 4246SOL    HW213626   3.484   0.692   7.878
 4247SOL     OW13627   2.220   1.509   8.767
 4247SOL    HW113628   2.204   1.471   8.681
 4247SOL    HW213629   2.314   1.523   8.770
 4248SOL     OW13630   2.279   0.745   9.050
 4248SOL    HW113631   2.341   0.789   8.992
 4248SOL    HW213632   2.321   0.660   9.067
 4249SOL     OW13633   3.466   0.778   9.131
 4249SOL    HW113634   3.380   0.821   9.125
 4249SOL    HW213635   3.519   0.821   9.064
 4250SOL     OW13636   2.876   0.132   9.228
 4250SOL    HW113637   2.925   0.205   9.190
 4250SOL    HW213638   2.859   0.073   9.154
 4251SOL     OW13639   2.350   0.034   9.210
 4251SOL    HW113640   2.352   0.047   9.115
 4251SOL    HW213641   2.291   0.102   9.242
 4252SOL     OW13642   2.446   0.873   8.479
 4252SOL    HW113643   2.475   0.965   8.481
 4252SOL    HW213644   2.389   0.865   8.555
 4253SOL     OW13645   3.215   0.859   8.473
 4253SOL    HW113646   3.130   0.846   8.432
 4253SOL    HW213647   3.259   0.774   8.467
 4254SOL     OW13648   3.062   0.538   7.706
 4254SOL    HW113649   3.071   0.458   7.759
 4254SOL    HW213650   3.018   0.600   7.765
 4255SOL     OW13651   2.161   0.209   8.691
 4255SOL    HW113652   2.120   0.238   8.772
 4255SOL    HW213653   2.150   0.114   8.691
 4256SOL     OW13654   1.904   1.304   8.727
 4256SOL    HW113655   1.938   1.247   8.795
 4256SOL    HW213656   1.917   1.393   8.762
 4257SOL     OW13657   2.584   0.632   8.500
 4257SOL    HW113658   2.660   0.619   8.443
 4257SOL    HW213659   2.555   0.721   8.482
 4258SOL     OW13660   3.594   0.957   9.310
 4258SOL    HW113661   3.551   0.895   9.251
 4258SOL    HW213662   3.530   0.972   9.380
 4259SOL     OW13663   2.185   0.056   8.099
 4259SOL    HW113664   2.165   0.149   8.111
 4259SOL    HW213665   2.149   0.014   8.178
 4260SOL     OW13666   3.473   0.392   7.827
 4260SOL    HW113667   3.436   0.323   7.883
 4260SOL    HW213668   3.452   0.473   7.873
 4261SOL     OW13669   2.891   0.759   8.406
 4261SOL    HW113670   2.884   0.776   8.500
 4261SOL    HW213671   2.864   0.668   8.396
 4262SOL     OW13672   2.844   1.566   9.167
 4262SOL    HW113673   2.829   1.610   9.084
 4262SOL    HW213674   2.887   1.484   9.144
 4263SOL     OW13675   3.705   1.499   9.046
 4263SOL    HW113676   3.729   1.528   8.958
 4263SOL    HW213677   3.785   1.509   9.097
 4264SOL     OW13678   2.214   0.915   9.257
 4264SOL    HW113679   2.296   0.935   9.304
 4264SOL    HW213680   2.240   0.853   9.189
 4265SOL     OW13681   3.363   0.275   7.582
 4265SOL    HW113682   3.290   0.214   7.593
 4265SOL    HW213683   3.376   0.312   7.669
 4266SOL     OW13684   3.149   0.826   7.477
 4266SOL    HW113685   3.192   0.741   7.481
 4266SOL    HW213686   3.182   0.866   7.396
 4267SOL     OW13687   2.929   1.336   8.301
 4267SOL    HW113688   2.934   1.264   8.238
 4267SOL    HW213689   2.990   1.402   8.268
 4268SOL     OW13690   2.168   0.809   8.393
 4268SOL    HW113691   2.261   0.831   8.387
 4268SOL    HW213692   2.166   0.719   8.425
 4269SOL     OW13693   2.198   0.536   8.462
 4269SOL    HW113694   2.157   0.451   8.446
 4269SOL    HW213695   2.274   0.536   8.404
 4270SOL     OW13696   2.995   0.381   9.145
 4270SOL    HW113697   2.946   0.435   9.206
 4270SOL    HW213698   3.081   0.421   9.140
 4271SOL     OW13699   3.013   0.226   8.929
 4271SOL    HW113700   3.004   0.280   9.008
 4271SOL    HW213701   3.038   0.288   8.860
 4272SOL     OW13702   2.361   1.572   8.359
 4272SOL    HW113703   2.428   1.639   8.375
 4272SOL    HW213704   2.406   1.504   8.309
 4273SOL     OW13705   2.840   0.788   8.672
 4273SOL    HW113706   2.897   0.769   8.746
 4273SOL    HW213707   2.755   0.753   8.697
 4274SOL     OW13708   1.895   0.547   8.565
 4274SOL    HW113709   1.970   0.522   8.511
 4274SOL    HW213710   1.929   0.547   8.655
 4275SOL     OW13711   2.065   0.526   9.160
 4275SOL    HW113712   2.136   0.506   9.099
 4275SOL    HW213713   2.021   0.602   9.122
 4276SOL     OW13714   3.242   0.936   9.105
 4276SOL    HW113715   3.263   1.030   9.103
 4276SOL    HW213716   3.237   0.910   9.013
 4277SOL     OW13717   2.680   0.573   7.810
 4277SOL    HW113718   2.685   0.497   7.753
 4277SOL    HW213719   2.603   0.621   7.779
 4278SOL     OW13720   3.502   0.602   8.631
 4278SOL    HW113721   3.491   0.542   8.704
 4278SOL    HW213722   3.588   0.581   8.595
 4279SOL     OW13723   2.090   1.563   9.190
 4279SOL    HW113724   2.045   1.595   9.268
 4279SOL    HW213725   2.112   1.472   9.211
 4280SOL     OW13726   2.570   0.453   8.704
 4280SOL    HW113727   2.519   0.376   8.679
 4280SOL    HW213728   2.561   0.512   8.630
 4281SOL     OW13729   2.788   1.678   8.917
 4281SOL    HW113730   2.762   1.642   8.832
 4281SOL    HW213731   2.784   1.773   8.905
 4282SOL     OW13732   2.325   0.493   7.631
 4282SOL    HW113733   2.382   0.566   7.656
 4282SOL    HW213734   2.239   0.533   7.618
 4283SOL     OW13735   2.005   1.139   8.922
 4283SOL    HW113736   2.007   1.090   9.004
 4283SOL    HW213737   2.023   1.073   8.854
 4284SOL     OW13738   3.184   1.044   8.670
 4284SOL    HW113739   3.208   0.982   8.601
 4284SOL    HW213740   3.116   1.099   8.630
 4285SOL     OW13741   3.174   0.857   7.753
 4285SOL    HW113742   3.100   0.823   7.805
 4285SOL    HW213743   3.148   0.841   7.662
 4286SOL     OW13744   3.642   1.741   8.605
 4286SOL    HW113745   3.697   1.769   8.532
 4286SOL    HW213746   3.613   1.654   8.581
 4287SOL     OW13747   3.102   1.733   8.556
 4287SOL    HW113748   3.184   1.756   8.514
 4287SOL    HW213749   3.110   1.640   8.577
 4288SOL     OW13750   1.951   1.259   8.466
 4288SOL    HW113751   1.932   1.273   8.559
 4288SOL    HW213752   1.871   1.219   8.431
 4289SOL     OW13753   2.539   1.667   9.180
 4289SOL    HW113754   2.487   1.748   9.180
 4289SOL    HW213755   2.606   1.683   9.113
 4290SOL     OW13756   3.551   0.120   7.936
 4290SOL    HW113757   3.632   0.136   7.888
 4290SOL    HW213758   3.553   0.027   7.957
 4291SOL     OW13759   3.253   1.568   7.935
 4291SOL    HW113760   3.314   1.600   7.868
 4291SOL    HW213761   3.204   1.646   7.962
 4292SOL     OW13762   3.139   0.928   8.120
 4292SOL    HW113763   3.213   0.868   8.131
 4292SOL    HW213764   3.173   0.999   8.066
 4293SOL     OW13765   2.672   1.274   8.875
 4293SOL    HW113766   2.644   1.314   8.957
 4293SOL    HW213767   2.602   1.295   8.813
 4294SOL     OW13768   3.482   1.727   8.839
 4294SOL    HW113769   3.537   1.732   8.761
 4294SOL    HW213770   3.469   1.818   8.864
 4295SOL     OW13771   3.703   0.182   8.419
 4295SOL    HW113772   3.728   0.097   8.380
 4295SOL    HW213773   3.617   0.201   8.382
 4296SOL     OW13774   2.126   0.316   8.163
 4296SOL    HW113775   2.039   0.351   8.140
 4296SOL    HW213776   2.124   0.308   8.258
 4297SOL     OW13777   3.073   1.611   7.480
 4297SOL    HW113778   3.051   1.518   7.485
 4297SOL    HW213779   3.036   1.640   7.397
 4298SOL     OW13780   2.686   1.006   8.821
 4298SOL    HW113781   2.729   1.002   8.735
 4298SOL    HW213782   2.684   1.099   8.842
 4299SOL     OW13783   2.781   0.909   7.736
 4299SOL    HW113784   2.844   0.941   7.671
 4299SOL    HW213785   2.828   0.840   7.784
 4300SOL     OW13786   3.354   1.627   7.492
 4300SOL    HW113787   3.260   1.621   7.477
 4300SOL    HW213788   3.392   1.633   7.404
 4301SOL     OW13789   2.229   1.298   8.946
 4301SOL    HW113790   2.223   1.371   8.885
 4301SOL    HW213791   2.152   1.244   8.928
 4302SOL     OW13792   3.462   1.280   8.725
 4302SOL    HW113793   3.532   1.272   8.791
 4302SOL    HW213794   3.406   1.349   8.758
 4303SOL     OW13795   2.917   1.109   8.151
 4303SOL    HW113796   2.846   1.059   8.193
 4303SOL    HW213797   2.982   1.043   8.127
 4304SOL     OW13798   2.876   0.249   8.417
 4304SOL    HW113799   2.867   0.198   8.337
 4304SOL    HW213800   2.872   0.183   8.487
 4305SOL     OW13801   2.451   1.439   7.955
 4305SOL    HW113802   2.514   1.391   7.902
 4305SOL    HW213803   2.394   1.482   7.892
 4306SOL     OW13804   3.582   0.394   8.820
 4306SOL    HW113805   3.654   0.457   8.820
 4306SOL    HW213806   3.614   0.322   8.766
 4307SOL     OW13807   1.975   1.026   9.169
 4307SOL    HW113808   1.899   1.001   9.222
 4307SOL    HW213809   2.049   0.986   9.215
 4308SOL     OW13810   2.555   0.255   8.949
 4308SOL    HW113811   2.622   0.200   8.908
 4308SOL    HW213812   2.582   0.261   9.041
 4309SOL     OW13813   1.962   0.318   7.440
 4309SOL    HW113814   1.894   0.337   7.504
 4309SOL    HW213815   1.970   0.398   7.388
 4310SOL     OW13816   3.287   0.857   8.846
 4310SOL    HW113817   3.238   0.919   8.793
 4310SOL    HW213818   3.376   0.859   8.810
 4311SOL     OW13819   1.943   0.151   7.788
 4311SOL    HW113820   1.912   0.211   7.720
 4311SOL    HW213821   2.030   0.124   7.758
 4312SOL     OW13822   3.045   1.334   7.569
 4312SOL    HW113823   2.961   1.291   7.583
 4312SOL    HW213824   3.081   1.346   7.657
 4313SOL     OW13825   2.483   0.829   8.882
 4313SOL    HW113826   2.540   0.905   8.867
 4313SOL    HW213827   2.544   0.755   8.891
 4314SOL     OW13828   3.344   1.782   8.428
 4314SOL    HW113829   3.368   1.844   8.359
 4314SOL    HW213830   3.428   1.753   8.465
 4315SOL     OW13831   2.580   0.561   9.152
 4315SOL    HW113832   2.622   0.623   9.211
 4315SOL    HW213833   2.606   0.475   9.186
 4316SOL     OW13834   3.335   1.197   9.078
 4316SOL    HW113835   3.323   1.212   9.172
 4316SOL    HW213836   3.428   1.213   9.062
 4317SOL     OW13837   2.234   1.741   9.025
 4317SOL    HW113838   2.164   1.752   8.961
 4317SOL    HW213839   2.206   1.667   9.079
 4318SOL     OW13840   3.526   0.881   8.707
 4318SOL    HW113841   3.526   0.795   8.663
 4318SOL    HW213842   3.520   0.944   8.636
 4319SOL     OW13843   3.083   0.338   7.891
 4319SOL    HW113844   3.151   0.271   7.881
 4319SOL    HW213845   3.103   0.381   7.973
 4320SOL     OW13846   2.452   0.736   8.118
 4320SOL    HW113847   2.490   0.823   8.104
 4320SOL    HW213848   2.385   0.727   8.051
 4321SOL     OW13849   3.616   0.381   9.090
 4321SOL    HW113850   3.595   0.390   8.997
 4321SOL    HW213851   3.556   0.314   9.122
 4322SOL     OW13852   3.616   0.930   8.962
 4322SOL    HW113853   3.607   1.024   8.979
 4322SOL    HW213854   3.592   0.920   8.869
 4323SOL     OW13855   2.527   1.792   8.374
 4323SOL    HW113856   2.516   1.887   8.375
 4323SOL    HW213857   2.622   1.779   8.382
 4324SOL     OW13858   2.732   0.970   8.302
 4324SOL    HW113859   2.781   0.897   8.340
 4324SOL    HW213860   2.693   1.015   8.377
 4325SOL     OW13861   2.940   0.991   7.534
 4325SOL    HW113862   2.922   1.040   7.454
 4325SOL    HW213863   3.015   0.935   7.512
 4326SOL     OW13864   3.714   1.557   8.290
 4326SOL    HW113865   3.635   1.539   8.238
 4326SOL    HW213866   3.714   1.488   8.357
 4327SOL     OW13867   2.090   1.300   9.300
 4327SOL    HW113868   2.021   1.237   9.275
 4327SOL    HW213869   2.074   1.316   9.393
 4328SOL     OW13870   1.928   1.213   8.113
 4328SOL    HW113871   1.977   1.187   8.191
 4328SOL    HW213872   1.990   1.201   8.041
 4329SOL     OW13873   2.543   1.406   9.075
 4329SOL    HW113874   2.466   1.361   9.111
 4329SOL    HW213875   2.540   1.493   9.113
 4330SOL     OW13876   3.676   0.181   8.692
 4330SOL    HW113877   3.677   0.086   8.701
 4330SOL    HW213878   3.694   0.198   8.600
 4331SOL     OW13879   2.291   0.435   7.973
 4331SOL    HW113880   2.324   0.363   7.920
 4331SOL    HW213881   2.243   0.391   8.044
 4332SOL     OW13882   3.558   1.491   8.545
 4332SOL    HW113883   3.480   1.468   8.495
 4332SOL    HW213884   3.569   1.419   8.607
 4333SOL     OW13885   2.193   0.556   8.742
 4333SOL    HW113886   2.246   0.497   8.796
 4333SOL    HW213887   2.212   0.530   8.652
 4334SOL     OW13888   2.699   1.567   8.124
 4334SOL    HW113889   2.666   1.636   8.067
 4334SOL    HW213890   2.627   1.504   8.131
 4335SOL     OW13891   3.323   0.253   8.558
 4335SOL    HW113892   3.337   0.165   8.593
 4335SOL    HW213893   3.267   0.296   8.623
 4336SOL     OW13894   2.866   0.027   8.594
 4336SOL    HW113895   2.785   3.990   8.558
 4336SOL    HW213896   2.925   3.953   8.603
 4337SOL     OW13897   2.644   1.310   7.823
 4337SOL    HW113898   2.620   1.218   7.820
 4337SOL    HW213899   2.733   1.311   7.856
 4338SOL     OW13900   2.485   1.555   8.732
 4338SOL    HW113901   2.485   1.636   8.783
 4338SOL    HW213902   2.574   1.549   8.696
 4339SOL     OW13903   3.172   0.071   7.607
 4339SOL    HW113904   3.181   3.989   7.558
 4339SOL    HW213905   3.088   0.064   7.651
 4340SOL     OW13906   3.143   0.457   8.133
 4340SOL    HW113907   3.096   0.540   8.128
 4340SOL    HW213908   3.146   0.437   8.227
 4341SOL     OW13909   3.452   0.210   8.315
 4341SOL    HW113910   3.404   0.234   8.394
 4341SOL    HW213911   3.451   0.289   8.262
 4342SOL     OW13912   1.917   1.072   7.776
 4342SOL    HW113913   1.998   1.060   7.728
 4342SOL    HW213914   1.886   0.983   7.794
 4343SOL     OW13915   2.089   0.619   9.431
 4343SOL    HW113916   1.999   0.628   9.463
 4343SOL    HW213917   2.080   0.599   9.338
 4344SOL     OW13918   2.079   0.300  10.301
 4344SOL    HW113919   2.116   0.257  10.378
 4344SOL    HW213920   1.994   0.258  10.288
 4345SOL     OW13921   1.871   0.397   9.943
 4345SOL    HW113922   1.784   0.413   9.981
 4345SOL    HW213923   1.856   0.329   9.878
 4346SOL     OW13924   2.429   1.291  10.488
 4346SOL    HW113925   2.343   1.294  10.446
 4346SOL    HW213926   2.447   1.381  10.515
 4347SOL     OW13927   3.426   1.513  10.018
 4347SOL    HW113928   3.383   1.491  10.101
 4347SOL    HW213929   3.355   1.518   9.954
 4348SOL     OW13930   2.995   0.698  10.007
 4348SOL    HW113931   3.042   0.780   9.994
 4348SOL    HW213932   2.947   0.711  10.089
 4349SOL     OW13933   3.624   0.623   9.536
 4349SOL    HW113934   3.605   0.612   9.443
 4349SOL    HW213935   3.606   0.538   9.575
 4350SOL     OW13936   2.615   1.140  10.354
 4350SOL    HW113937   2.547   1.176  10.411
 4350SOL    HW213938   2.651   1.217  10.310
 4351SOL     OW13939   2.733   0.769  11.134
 4351SOL    HW113940   2.718   0.840  11.196
 4351SOL    HW213941   2.755   0.814  11.052
 4352SOL     OW13942   2.548   1.000   9.955
 4352SOL    HW113943   2.613   0.990  10.025
 4352SOL    HW213944   2.479   1.053   9.994
 4353SOL     OW13945   2.575   1.150  11.125
 4353SOL    HW113946   2.622   1.227  11.154
 4353SOL    HW213947   2.493   1.183  11.089
 4354SOL     OW13948   2.190   1.425  10.379
 4354SOL    HW113949   2.118   1.385  10.331
 4354SOL    HW213950   2.238   1.474  10.313
 4355SOL     OW13951   3.321   1.501  10.668
 4355SOL    HW113952   3.375   1.580  10.677
 4355SOL    HW213953   3.256   1.508  10.738
 4356SOL     OW13954   2.307   0.393  10.803
 4356SOL    HW113955   2.397   0.362  10.802
 4356SOL    HW213956   2.254   0.313  10.811
 4357SOL     OW13957   3.473   0.450  10.045
 4357SOL    HW113958   3.403   0.483   9.988
 4357SOL    HW213959   3.494   0.524  10.102
 4358SOL     OW13960   2.106   1.693   9.791
 4358SOL    HW113961   2.077   1.783   9.804
 4358SOL    HW213962   2.178   1.700   9.729
 4359SOL     OW13963   2.999   1.342  11.004
 4359SOL    HW113964   3.040   1.336  11.090
 4359SOL    HW213965   2.947   1.262  10.997
 4360SOL     OW13966   2.092   1.429   9.849
 4360SOL    HW113967   2.092   1.525   9.844
 4360SOL    HW213968   2.029   1.409   9.918
 4361SOL     OW13969   2.126   1.090  10.201
 4361SOL    HW113970   2.119   1.002  10.238
 4361SOL    HW213971   2.067   1.143  10.255
 4362SOL     OW13972   2.471   1.785  10.741
 4362SOL    HW113973   2.392   1.773  10.794
 4362SOL    HW213974   2.497   1.875  10.758
 4363SOL     OW13975   2.445   0.983   9.446
 4363SOL    HW113976   2.492   1.030   9.378
 4363SOL    HW213977   2.483   1.015   9.528
 4364SOL     OW13978   3.444   0.141  10.766
 4364SOL    HW113979   3.470   0.213  10.710
 4364SOL    HW213980   3.408   0.183  10.844
 4365SOL     OW13981   1.979   0.656   9.870
 4365SOL    HW113982   1.952   0.568   9.894
 4365SOL    HW213983   1.971   0.706   9.951
 4366SOL     OW13984   3.702   1.757   9.646
 4366SOL    HW113985   3.772   1.733   9.707
 4366SOL    HW213986   3.721   1.849   9.624
 4367SOL     OW13987   1.934   1.567   9.415
 4367SOL    HW113988   1.908   1.478   9.438
 4367SOL    HW213989   1.880   1.623   9.471
 4368SOL     OW13990   3.550   0.918   9.956
 4368SOL    HW113991   3.634   0.875   9.939
 4368SOL    HW213992   3.532   0.968   9.876
 4369SOL     OW13993   3.504   1.104   9.742
 4369SOL    HW113994   3.589   1.110   9.697
 4369SOL    HW213995   3.510   1.167   9.813
 4370SOL     OW13996   1.985   0.749  10.891
 4370SOL    HW113997   2.075   0.781  10.895
 4370SOL    HW213998   1.931   0.829  10.897
 4371SOL     OW13999   2.476   1.389  10.045
 4371SOL    HW114000   2.431   1.306  10.054
 4371SOL    HW214001   2.459   1.417   9.955
 4372SOL     OW14002   3.149   1.237  10.733
 4372SOL    HW114003   3.181   1.170  10.672
 4372SOL    HW214004   3.208   1.232  10.808
 4373SOL     OW14005   2.682   0.004   9.827
 4373SOL    HW114006   2.727   0.084   9.802
 4373SOL    HW214007   2.589   0.028   9.827
 4374SOL     OW14008   2.051   0.961  10.586
 4374SOL    HW114009   2.136   0.921  10.570
 4374SOL    HW214010   1.991   0.915  10.528
 4375SOL     OW14011   3.390   0.996   9.511
 4375SOL    HW114012   3.321   0.939   9.544
 4375SOL    HW214013   3.432   1.031   9.589
 4376SOL     OW14014   3.047   1.809  10.933
 4376SOL    HW114015   3.057   1.868  10.859
 4376SOL    HW214016   3.064   1.722  10.897
 4377SOL     OW14017   2.219   0.253  11.149
 4377SOL    HW114018   2.263   0.338  11.149
 4377SOL    HW214019   2.126   0.274  11.154
 4378SOL     OW14020   3.328   1.420  10.259
 4378SOL    HW114021   3.261   1.435  10.326
 4378SOL    HW214022   3.317   1.328  10.234
 4379SOL     OW14023   3.515   1.746   9.889
 4379SOL    HW114024   3.500   1.713   9.800
 4379SOL    HW214025   3.495   1.671   9.946
 4380SOL     OW14026   2.457   0.720   9.578
 4380SOL    HW114027   2.461   0.803   9.531
 4380SOL    HW214028   2.392   0.735   9.647
 4381SOL     OW14029   3.137   0.369  10.251
 4381SOL    HW114030   3.049   0.330  10.258
 4381SOL    HW214031   3.194   0.307  10.296
 4382SOL     OW14032   3.439   1.671   9.620
 4382SOL    HW114033   3.530   1.701   9.613
 4382SOL    HW214034   3.413   1.655   9.529
 4383SOL     OW14035   2.658   0.616  10.762
 4383SOL    HW114036   2.629   0.590  10.850
 4383SOL    HW214037   2.619   0.550  10.704
 4384SOL     OW14038   3.254   0.476  10.987
 4384SOL    HW114039   3.260   0.521  11.071
 4384SOL    HW214040   3.311   0.400  10.997
 4385SOL     OW14041   2.814   0.887  10.894
 4385SOL    HW114042   2.869   0.818  10.857
 4385SOL    HW214043   2.766   0.922  10.819
 4386SOL     OW14044   2.854   0.402  10.548
 4386SOL    HW114045   2.770   0.423  10.587
 4386SOL    HW214046   2.834   0.375  10.459
 4387SOL     OW14047   2.914   0.699   9.735
 4387SOL    HW114048   2.931   0.693   9.829
 4387SOL    HW214049   2.831   0.653   9.722
 4388SOL     OW14050   1.949   0.822  10.086
 4388SOL    HW114051   2.029   0.815  10.138
 4388SOL    HW214052   1.904   0.899  10.122
 4389SOL     OW14053   2.757   0.352   9.509
 4389SOL    HW114054   2.799   0.411   9.447
 4389SOL    HW214055   2.750   0.269   9.463
 4390SOL     OW14056   3.569   0.573  11.139
 4390SOL    HW114057   3.532   0.648  11.092
 4390SOL    HW214058   3.595   0.512  11.071
 4391SOL     OW14059   3.239   1.141   9.850
 4391SOL    HW114060   3.319   1.130   9.799
 4391SOL    HW214061   3.187   1.204   9.800
 4392SOL     OW14062   2.420   0.199  10.191
 4392SOL    HW114063   2.423   0.218  10.284
 4392SOL    HW214064   2.416   0.284  10.149
 4393SOL     OW14065   2.865   1.443   9.781
 4393SOL    HW114066   2.831   1.517   9.730
 4393SOL    HW214067   2.844   1.464   9.872
 4394SOL     OW14068   2.241   1.811  10.123
 4394SOL    HW114069   2.255   1.719  10.144
 4394SOL    HW214070   2.302   1.858  10.180
 4395SOL     OW14071   3.667   1.062  10.178
 4395SOL    HW114072   3.613   1.037  10.102
 4395SOL    HW214073   3.605   1.065  10.251
 4396SOL     OW14074   3.089   1.539  10.823
 4396SOL    HW114075   3.076   1.467  10.885
 4396SOL    HW214076   3.024   1.524  10.755
 4397SOL     OW14077   2.181   0.960   9.563
 4397SOL    HW114078   2.263   0.979   9.518
 4397SOL    HW214079   2.151   0.877   9.525
 4398SOL     OW14080   3.342   0.746  10.038
 4398SOL    HW114081   3.336   0.706  10.125
 4398SOL    HW214082   3.419   0.803  10.043
 4399SOL     OW14083   2.331   1.266  11.053
 4399SOL    HW114084   2.304   1.269  10.961
 4399SOL    HW214085   2.248   1.263  11.102
 4400SOL     OW14086   2.986   1.777   9.541
 4400SOL    HW114087   2.911   1.737   9.584
 4400SOL    HW214088   3.010   1.715   9.472
 4401SOL     OW14089   2.031   0.274  10.809
 4401SOL    HW114090   1.977   0.352  10.798
 4401SOL    HW214091   2.037   0.262  10.904
 4402SOL     OW14092   3.487   1.383   9.397
 4402SOL    HW114093   3.444   1.468   9.382
 4402SOL    HW214094   3.420   1.318   9.378
 4403SOL     OW14095   2.334   1.719   9.640
 4403SOL    HW114096   2.378   1.788   9.689
 4403SOL    HW214097   2.393   1.698   9.568
 4404SOL     OW14098   3.297   0.170   9.712
 4404SOL    HW114099   3.252   0.096   9.670
 4404SOL    HW214100   3.372   0.131   9.756
 4405SOL     OW14101   2.128   1.744  10.527
 4405SOL    HW114102   2.185   1.680  10.570
 4405SOL    HW214103   2.146   1.733  10.434
 4406SOL     OW14104   2.799   1.698  10.208
 4406SOL    HW114105   2.878   1.648  10.229
 4406SOL    HW214106   2.758   1.649  10.138
 4407SOL     OW14107   2.257   0.695   9.784
 4407SOL    HW114108   2.275   0.602   9.797
 4407SOL    HW214109   2.164   0.704   9.802
 4408SOL     OW14110   3.392   0.229  11.037
 4408SOL    HW114111   3.385   0.255  11.129
 4408SOL    HW214112   3.373   0.136  11.036
 4409SOL     OW14113   2.506   0.130   9.418
 4409SOL    HW114114   2.529   0.046   9.458
 4409SOL    HW214115   2.443   0.108   9.349
 4410SOL     OW14116   2.637   0.282  11.078
 4410SOL    HW114117   2.709   0.219  11.082
 4410SOL    HW214118   2.580   0.256  11.150
 4411SOL     OW14119   2.739   1.522  10.503
 4411SOL    HW114120   2.723   1.485  10.416
 4411SOL    HW214121   2.809   1.468  10.540
 4412SOL     OW14122   3.202   0.587  10.740
 4412SOL    HW114123   3.232   0.559  10.827
 4412SOL    HW214124   3.236   0.676  10.731
 4413SOL     OW14125   2.678   1.392  10.253
 4413SOL    HW114126   2.763   1.381  10.209
 4413SOL    HW214127   2.615   1.396  10.181
 4414SOL     OW14128   2.792   0.511  10.210
 4414SOL    HW114129   2.767   0.503  10.118
 4414SOL    HW214130   2.818   0.423  10.236
 4415SOL     OW14131   2.407   0.057   9.801
 4415SOL    HW114132   2.332   0.062   9.861
 4415SOL    HW214133   2.402   0.138   9.750
 4416SOL     OW14134   3.289   1.199   9.350
 4416SOL    HW114135   3.319   1.124   9.401
 4416SOL    HW214136   3.204   1.221   9.388
 4417SOL     OW14137   2.192   0.043   9.521
 4417SOL    HW114138   2.200   0.110   9.453
 4417SOL    HW214139   2.274   0.049   9.570
 4418SOL     OW14140   2.804   0.250   9.770
 4418SOL    HW114141   2.779   0.290   9.686
 4418SOL    HW214142   2.900   0.254   9.771
 4419SOL     OW14143   2.942   0.684  10.769
 4419SOL    HW114144   2.872   0.619  10.775
 4419SOL    HW214145   3.022   0.632  10.763
 4420SOL     OW14146   3.083   1.572  10.105
 4420SOL    HW114147   3.099   1.637  10.037
 4420SOL    HW214148   3.153   1.586  10.168
 4421SOL     OW14149   2.334   1.151  10.041
 4421SOL    HW114150   2.266   1.131  10.105
 4421SOL    HW214151   2.292   1.137   9.956
 4422SOL     OW14152   3.129   1.793   9.920
 4422SOL    HW114153   3.177   1.854   9.864
 4422SOL    HW214154   3.062   1.846   9.962
 4423SOL     OW14155   2.884   0.543   9.338
 4423SOL    HW114156   2.840   0.625   9.319
 4423SOL    HW214157   2.947   0.565   9.406
 4424SOL     OW14158   1.944   0.550  10.707
 4424SOL    HW114159   2.035   0.552  10.677
 4424SOL    HW214160   1.937   0.623  10.768
 4425SOL     OW14161   2.425   0.231  10.471
 4425SOL    HW114162   2.449   0.139  10.481
 4425SOL    HW214163   2.336   0.236  10.503
 4426SOL     OW14164   2.732   0.461   9.948
 4426SOL    HW114165   2.684   0.515   9.885
 4426SOL    HW214166   2.753   0.381   9.900
 4427SOL     OW14167   2.858   0.039  10.090
 4427SOL    HW114168   2.822   0.068  10.007
 4427SOL    HW214169   2.869   3.945  10.080
 4428SOL     OW14170   3.302   1.161  10.168
 4428SOL    HW114171   3.230   1.098  10.166
 4428SOL    HW214172   3.327   1.171  10.076
 4429SOL     OW14173   3.326   0.608  10.284
 4429SOL    HW114174   3.272   0.529  10.289
 4429SOL    HW214175   3.386   0.601  10.358
 4430SOL     OW14176   3.722   0.824   9.685
 4430SOL    HW114177   3.763   0.767   9.749
 4430SOL    HW214178   3.683   0.764   9.621
 4431SOL     OW14179   2.354   1.420   9.465
 4431SOL    HW114180   2.278   1.394   9.518
 4431SOL    HW214181   2.341   1.374   9.381
 4432SOL     OW14182   3.529   1.265   9.954
 4432SOL    HW114183   3.624   1.268   9.964
 4432SOL    HW214184   3.500   1.354   9.975
 4433SOL     OW14185   3.257   0.575   9.379
 4433SOL    HW114186   3.193   0.557   9.448
 4433SOL    HW214187   3.342   0.560   9.420
 4434SOL     OW14188   2.388   0.266   9.626
 4434SOL    HW114189   2.443   0.228   9.558
 4434SOL    HW214190   2.360   0.350   9.589
 4435SOL     OW14191   3.613   1.234  10.876
 4435SOL    HW114192   3.701   1.199  10.859
 4435SOL    HW214193   3.629   1.323  10.906
 4436SOL     OW14194   2.919   1.354  10.643
 4436SOL    HW114195   2.844   1.322  10.694
 4436SOL    HW214196   2.995   1.312  10.684
 4437SOL     OW14197   3.468   1.628  10.966
 4437SOL    HW114198   3.460   1.663  10.877
 4437SOL    HW214199   3.548   1.577  10.965
 4438SOL     OW14200   2.994   1.207  10.414
 4438SOL    HW114201   2.934   1.244  10.478
 4438SOL    HW214202   2.963   1.240  10.330
 4439SOL     OW14203   3.490   1.096  10.385
 4439SOL    HW114204   3.481   1.157  10.457
 4439SOL    HW214205   3.413   1.112  10.330
 4440SOL     OW14206   2.774   0.116  10.711
 4440SOL    HW114207   2.794   0.089  10.622
 4440SOL    HW214208   2.855   0.158  10.742
 4441SOL     OW14209   2.846   1.115  11.034
 4441SOL    HW114210   2.755   1.132  11.056
 4441SOL    HW214211   2.844   1.037  10.978
 4442SOL     OW14212   2.571   1.062   9.680
 4442SOL    HW114213   2.556   1.044   9.773
 4442SOL    HW214214   2.647   1.008   9.657
 4443SOL     OW14215   2.283   0.816  10.561
 4443SOL    HW114216   2.351   0.824  10.628
 4443SOL    HW214217   2.247   0.728  10.574
 4444SOL     OW14218   3.128   0.375  10.586
 4444SOL    HW114219   3.162   0.453  10.630
 4444SOL    HW214220   3.041   0.400  10.556
 4445SOL     OW14221   1.949   1.555  10.671
 4445SOL    HW114222   1.923   1.621  10.606
 4445SOL    HW214223   2.045   1.551  10.664
 4446SOL     OW14224   2.209   1.112   9.800
 4446SOL    HW114225   2.209   1.188   9.742
 4446SOL    HW214226   2.205   1.036   9.741
 4447SOL     OW14227   2.416   0.532  10.166
 4447SOL    HW114228   2.430   0.592  10.093
 4447SOL    HW214229   2.481   0.559  10.232
 4448SOL     OW14230   3.110   1.349   9.699
 4448SOL    HW114231   3.166   1.420   9.731
 4448SOL    HW214232   3.023   1.370   9.733
 4449SOL     OW14233   3.147   1.459  10.458
 4449SOL    HW114234   3.202   1.463  10.535
 4449SOL    HW214235   3.092   1.382  10.471
 4450SOL     OW14236   3.434   0.632   9.795
 4450SOL    HW114237   3.392   0.688   9.861
 4450SOL    HW214238   3.481   0.694   9.739
 4451SOL     OW14239   2.221   1.508  10.631
 4451SOL    HW114240   2.205   1.471  10.544
 4451SOL    HW214241   2.316   1.522  10.633
 4452SOL     OW14242   2.280   0.745  10.912
 4452SOL    HW114243   2.341   0.789  10.854
 4452SOL    HW214244   2.321   0.660  10.929
 4453SOL     OW14245   3.466   0.778  10.993
 4453SOL    HW114246   3.381   0.821  10.987
 4453SOL    HW214247   3.519   0.821  10.926
 4454SOL     OW14248   2.876   0.132  11.090
 4454SOL    HW114249   2.925   0.205  11.052
 4454SOL    HW214250   2.859   0.073  11.016
 4455SOL     OW14251   2.350   0.034  11.072
 4455SOL    HW114252   2.352   0.047  10.977
 4455SOL    HW214253   2.291   0.102  11.104
 4456SOL     OW14254   2.447   0.873  10.342
 4456SOL    HW114255   2.475   0.964  10.342
 4456SOL    HW214256   2.389   0.866  10.418
 4457SOL     OW14257   3.215   0.859  10.336
 4457SOL    HW114258   3.130   0.847  10.293
 4457SOL    HW214259   3.258   0.774  10.329
 4458SOL     OW14260   3.063   0.537   9.568
 4458SOL    HW114261   3.070   0.458   9.621
 4458SOL    HW214262   3.020   0.600   9.625
 4459SOL     OW14263   2.161   0.209  10.553
 4459SOL    HW114264   2.120   0.238  10.634
 4459SOL    HW214265   2.150   0.114  10.553
 4460SOL     OW14266   1.902   1.302  10.589
 4460SOL    HW114267   1.938   1.245  10.657
 4460SOL    HW214268   1.916   1.391  10.622
 4461SOL     OW14269   2.584   0.632  10.363
 4461SOL    HW114270   2.660   0.619  10.305
 4461SOL    HW214271   2.555   0.721  10.344
 4462SOL     OW14272   3.594   0.957  11.172
 4462SOL    HW114273   3.551   0.895  11.113
 4462SOL    HW214274   3.530   0.972  11.242
 4463SOL     OW14275   2.185   0.056   9.961
 4463SOL    HW114276   2.165   0.148   9.973
 4463SOL    HW214277   2.150   0.014  10.040
 4464SOL     OW14278   3.474   0.392   9.689
 4464SOL    HW114279   3.436   0.323   9.744
 4464SOL    HW214280   3.452   0.474   9.735
 4465SOL     OW14281   2.892   0.759  10.269
 4465SOL    HW114282   2.885   0.776  10.363
 4465SOL    HW214283   2.864   0.668  10.259
 4466SOL     OW14284   2.843   1.566  11.029
 4466SOL    HW114285   2.828   1.610  10.946
 4466SOL    HW214286   2.887   1.484  11.006
 4467SOL     OW14287   3.705   1.499  10.908
 4467SOL    HW114288   3.728   1.528  10.820
 4467SOL    HW214289   3.785   1.509  10.959
 4468SOL     OW14290   2.215   0.915  11.119
 4468SOL    HW114291   2.296   0.935  11.166
 4468SOL    HW214292   2.241   0.853  11.051
 4469SOL     OW14293   3.364   0.274   9.444
 4469SOL    HW114294   3.290   0.214   9.455
 4469SOL    HW214295   3.376   0.313   9.531
 4470SOL     OW14296   3.150   0.826   9.338
 4470SOL    HW114297   3.193   0.741   9.342
 4470SOL    HW214298   3.183   0.866   9.258
 4471SOL     OW14299   2.929   1.337  10.166
 4471SOL    HW114300   2.933   1.265  10.103
 4471SOL    HW214301   2.989   1.403  10.130
 4472SOL     OW14302   2.169   0.809  10.256
 4472SOL    HW114303   2.262   0.830  10.249
 4472SOL    HW214304   2.167   0.719  10.288
 4473SOL     OW14305   2.199   0.536  10.324
 4473SOL    HW114306   2.157   0.451  10.308
 4473SOL    HW214307   2.275   0.537  10.266
 4474SOL     OW14308   2.995   0.381  11.007
 4474SOL    HW114309   2.946   0.435  11.068
 4474SOL    HW214310   3.081   0.421  11.002
 4475SOL     OW14311   3.013   0.226  10.791
 4475SOL    HW114312   3.004   0.280  10.870
 4475SOL    HW214313   3.038   0.288  10.722
 4476SOL     OW14314   1.867   1.315   9.501
 4476SOL    HW114315   1.778   1.330   9.467
 4476SOL    HW214316   1.864   1.227   9.537
 4477SOL     OW14317   2.358   1.573  10.220
 4477SOL    HW114318   2.425   1.639  10.238
 4477SOL    HW214319   2.401   1.511  10.160
 4478SOL     OW14320   2.841   0.788  10.534
 4478SOL    HW114321   2.897   0.769  10.609
 4478SOL    HW214322   2.755   0.753  10.559
 4479SOL     OW14323   1.895   0.547  10.427
 4479SOL    HW114324   1.970   0.523  10.373
 4479SOL    HW214325   1.929   0.547  10.517
 4480SOL     OW14326   2.065   0.526  11.022
 4480SOL    HW114327   2.136   0.506  10.961
 4480SOL    HW214328   2.021   0.602  10.983
 4481SOL     OW14329   3.242   0.936  10.967
 4481SOL    HW114330   3.263   1.030  10.965
 4481SOL    HW214331   3.237   0.910  10.875
 4482SOL     OW14332   2.679   0.572   9.674
 4482SOL    HW114333   2.685   0.497   9.615
 4482SOL    HW214334   2.604   0.623   9.641
 4483SOL     OW14335   3.501   0.602  10.493
 4483SOL    HW114336   3.491   0.541  10.566
 4483SOL    HW214337   3.588   0.581  10.457
 4484SOL     OW14338   2.091   1.558  11.048
 4484SOL    HW114339   2.084   1.609  11.129
 4484SOL    HW214340   2.103   1.468  11.077
 4485SOL     OW14341   2.570   0.453  10.566
 4485SOL    HW114342   2.519   0.376  10.541
 4485SOL    HW214343   2.561   0.513  10.492
 4486SOL     OW14344   2.787   1.678  10.779
 4486SOL    HW114345   2.762   1.642  10.695
 4486SOL    HW214346   2.783   1.773  10.767
 4487SOL     OW14347   2.325   0.494   9.493
 4487SOL    HW114348   2.383   0.566   9.517
 4487SOL    HW214349   2.239   0.534   9.480
 4488SOL     OW14350   2.006   1.139  10.784
 4488SOL    HW114351   2.007   1.090  10.866
 4488SOL    HW214352   2.023   1.073  10.716
 4489SOL     OW14353   3.184   1.045  10.532
 4489SOL    HW114354   3.207   0.982  10.464
 4489SOL    HW214355   3.116   1.100  10.492
 4490SOL     OW14356   3.176   0.854   9.615
 4490SOL    HW114357   3.100   0.827   9.667
 4490SOL    HW214358   3.148   0.843   9.524
 4491SOL     OW14359   3.642   1.741  10.467
 4491SOL    HW114360   3.697   1.769  10.394
 4491SOL    HW214361   3.613   1.654  10.443
 4492SOL     OW14362   3.103   1.733  10.420
 4492SOL    HW114363   3.185   1.756  10.376
 4492SOL    HW214364   3.110   1.640  10.439
 4493SOL     OW14365   1.954   1.258  10.328
 4493SOL    HW114366   1.932   1.270  10.420
 4493SOL    HW214367   1.876   1.217  10.290
 4494SOL     OW14368   2.539   1.667  11.041
 4494SOL    HW114369   2.489   1.749  11.041
 4494SOL    HW214370   2.607   1.682  10.975
 4495SOL     OW14371   3.551   0.120   9.797
 4495SOL    HW114372   3.632   0.135   9.749
 4495SOL    HW214373   3.553   0.026   9.819
 4496SOL     OW14374   3.253   1.567   9.798
 4496SOL    HW114375   3.312   1.600   9.731
 4496SOL    HW214376   3.203   1.644   9.826
 4497SOL     OW14377   3.139   0.927   9.981
 4497SOL    HW114378   3.214   0.867   9.991
 4497SOL    HW214379   3.173   0.999   9.928
 4498SOL     OW14380   2.672   1.274  10.737
 4498SOL    HW114381   2.644   1.314  10.819
 4498SOL    HW214382   2.603   1.296  10.674
 4499SOL     OW14383   2.535   1.622   9.462
 4499SOL    HW114384   2.545   1.634   9.367
 4499SOL    HW214385   2.479   1.544   9.470
 4500SOL     OW14386   3.482   1.727  10.701
 4500SOL    HW114387   3.537   1.732  10.623
 4500SOL    HW214388   3.469   1.818  10.727
 4501SOL     OW14389   3.703   0.182  10.281
 4501SOL    HW114390   3.728   0.097  10.242
 4501SOL    HW214391   3.617   0.201  10.244
 4502SOL     OW14392   2.126   0.316  10.025
 4502SOL    HW114393   2.039   0.351  10.003
 4502SOL    HW214394   2.124   0.308  10.120
 4503SOL     OW14395   3.070   1.604   9.342
 4503SOL    HW114396   3.059   1.513   9.369
 4503SOL    HW214397   3.004   1.617   9.274
 4504SOL     OW14398   2.686   1.006  10.683
 4504SOL    HW114399   2.728   1.002  10.597
 4504SOL    HW214400   2.684   1.099  10.704
 4505SOL     OW14401   2.778   0.910   9.600
 4505SOL    HW114402   2.839   0.943   9.534
 4505SOL    HW214403   2.827   0.842   9.646
 4506SOL     OW14404   3.351   1.628   9.353
 4506SOL    HW114405   3.257   1.619   9.338
 4506SOL    HW214406   3.389   1.634   9.265
 4507SOL     OW14407   2.229   1.299  10.810
 4507SOL    HW114408   2.224   1.371  10.747
 4507SOL    HW214409   2.152   1.244  10.790
 4508SOL     OW14410   3.463   1.280  10.587
 4508SOL    HW114411   3.531   1.272  10.654
 4508SOL    HW214412   3.406   1.349  10.620
 4509SOL     OW14413   2.918   1.109  10.019
 4509SOL    HW114414   2.846   1.058  10.056
 4509SOL    HW214415   2.981   1.043   9.989
 4510SOL     OW14416   2.877   0.249  10.279
 4510SOL    HW114417   2.867   0.198  10.199
 4510SOL    HW214418   2.872   0.183  10.349
 4511SOL     OW14419   2.466   1.491   9.790
 4511SOL    HW114420   2.509   1.441   9.721
 4511SOL    HW214421   2.398   1.541   9.745
 4512SOL     OW14422   3.582   0.394  10.682
 4512SOL    HW114423   3.654   0.457  10.682
 4512SOL    HW214424   3.614   0.321  10.628
 4513SOL     OW14425   2.122   1.342   9.599
 4513SOL    HW114426   2.029   1.338   9.576
 4513SOL    HW214427   2.124   1.377   9.687
 4514SOL     OW14428   1.976   1.028  11.032
 4514SOL    HW114429   1.899   1.002  11.083
 4514SOL    HW214430   2.049   0.987  11.077
 4515SOL     OW14431   2.555   0.254  10.811
 4515SOL    HW114432   2.622   0.200  10.770
 4515SOL    HW214433   2.582   0.261  10.903
 4516SOL     OW14434   1.962   0.317   9.302
 4516SOL    HW114435   1.894   0.337   9.366
 4516SOL    HW214436   1.970   0.398   9.250
 4517SOL     OW14437   3.287   0.856  10.708
 4517SOL    HW114438   3.238   0.919  10.655
 4517SOL    HW214439   3.376   0.859  10.672
 4518SOL     OW14440   1.943   0.152   9.650
 4518SOL    HW114441   1.912   0.211   9.582
 4518SOL    HW214442   2.029   0.124   9.620
 4519SOL     OW14443   3.040   1.337   9.428
 4519SOL    HW114444   2.950   1.307   9.430
 4519SOL    HW214445   3.068   1.338   9.519
 4520SOL     OW14446   2.483   0.829  10.744
 4520SOL    HW114447   2.540   0.905  10.729
 4520SOL    HW214448   2.544   0.755  10.753
 4521SOL     OW14449   3.344   1.781  10.290
 4521SOL    HW114450   3.367   1.843  10.221
 4521SOL    HW214451   3.428   1.754  10.327
 4522SOL     OW14452   2.580   0.561  11.014
 4522SOL    HW114453   2.622   0.623  11.073
 4522SOL    HW214454   2.606   0.475  11.048
 4523SOL     OW14455   3.335   1.197  10.940
 4523SOL    HW114456   3.323   1.212  11.034
 4523SOL    HW214457   3.428   1.213  10.924
 4524SOL     OW14458   2.234   1.742  10.883
 4524SOL    HW114459   2.164   1.753  10.818
 4524SOL    HW214460   2.210   1.662  10.930
 4525SOL     OW14461   3.526   0.881  10.569
 4525SOL    HW114462   3.525   0.796  10.525
 4525SOL    HW214463   3.520   0.944  10.498
 4526SOL     OW14464   3.082   0.337   9.753
 4526SOL    HW114465   3.151   0.271   9.744
 4526SOL    HW214466   3.103   0.381   9.835
 4527SOL     OW14467   2.451   0.736   9.981
 4527SOL    HW114468   2.490   0.822   9.966
 4527SOL    HW214469   2.385   0.728   9.913
 4528SOL     OW14470   3.616   0.381  10.952
 4528SOL    HW114471   3.595   0.390  10.859
 4528SOL    HW214472   3.556   0.314  10.984
 4529SOL     OW14473   3.616   0.930  10.823
 4529SOL    HW114474   3.607   1.024  10.841
 4529SOL    HW214475   3.592   0.920  10.731
 4530SOL     OW14476   2.723   1.366   9.347
 4530SOL    HW114477   2.687   1.392   9.432
 4530SOL    HW214478   2.741   1.449   9.302
 4531SOL     OW14479   2.525   1.793  10.247
 4531SOL    HW114480   2.518   1.888  10.241
 4531SOL    HW214481   2.620   1.776  10.246
 4532SOL     OW14482   2.730   0.969  10.165
 4532SOL    HW114483   2.781   0.897  10.203
 4532SOL    HW214484   2.694   1.016  10.240
 4533SOL     OW14485   2.940   0.989   9.399
 4533SOL    HW114486   2.918   1.040   9.322
 4533SOL    HW214487   3.014   0.935   9.372
 4534SOL     OW14488   3.714   1.557  10.151
 4534SOL    HW114489   3.635   1.540  10.100
 4534SOL    HW214490   3.713   1.489  10.219
 4535SOL     OW14491   2.084   1.303  11.161
 4535SOL    HW114492   2.023   1.237  11.128
 4535SOL    HW214493   2.056   1.318  11.251
 4536SOL     OW14494   1.943   1.214   9.971
 4536SOL    HW114495   1.963   1.178  10.058
 4536SOL    HW214496   2.020   1.192   9.919
 4537SOL     OW14497   2.542   1.405  10.937
 4537SOL    HW114498   2.465   1.362  10.974
 4537SOL    HW214499   2.541   1.493  10.975
 4538SOL     OW14500   3.676   0.181  10.554
 4538SOL    HW114501   3.678   0.086  10.563
 4538SOL    HW214502   3.694   0.198  10.462
 4539SOL     OW14503   2.290   0.434   9.835
 4539SOL    HW114504   2.324   0.363   9.782
 4539SOL    HW214505   2.243   0.391   9.906
 4540SOL     OW14506   3.558   1.491  10.407
 4540SOL    HW114507   3.480   1.468  10.357
 4540SOL    HW214508   3.568   1.419  10.469
 4541SOL     OW14509   2.193   0.556  10.604
 4541SOL    HW114510   2.246   0.497  10.658
 4541SOL    HW214511   2.212   0.530  10.514
 4542SOL     OW14512   2.691   1.577   9.987
 4542SOL    HW114513   2.675   1.635   9.912
 4542SOL    HW214514   2.616   1.518   9.989
 4543SOL     OW14515   3.323   0.253  10.420
 4543SOL    HW114516   3.337   0.165  10.456
 4543SOL    HW214517   3.267   0.296  10.485
 4544SOL     OW14518   2.866   0.027  10.456
 4544SOL    HW114519   2.785   3.991  10.420
 4544SOL    HW214520   2.925   3.952  10.465
 4545SOL     OW14521   2.636   1.333   9.626
 4545SOL    HW114522   2.606   1.243   9.634
 4545SOL    HW214523   2.716   1.336   9.678
 4546SOL     OW14524   2.485   1.555  10.594
 4546SOL    HW114525   2.486   1.636  10.645
 4546SOL    HW214526   2.573   1.548  10.558
 4547SOL     OW14527   3.173   0.071   9.470
 4547SOL    HW114528   3.179   3.989   9.420
 4547SOL    HW214529   3.088   0.066   9.514
 4548SOL     OW14530   3.143   0.457   9.995
 4548SOL    HW114531   3.097   0.540   9.990
 4548SOL    HW214532   3.146   0.437  10.089
 4549SOL     OW14533   3.452   0.210  10.177
 4549SOL    HW114534   3.404   0.234  10.256
 4549SOL    HW214535   3.451   0.290  10.124
 4550SOL     OW14536   1.905   1.069   9.615
 4550SOL    HW114537   2.000   1.062   9.600
 4550SOL    HW214538   1.878   0.980   9.640
 4551SOL     OW14539   2.750   1.654   9.649
 4551SOL    HW114540   2.676   1.639   9.590
 4551SOL    HW214541   2.723   1.729   9.703
 4552SOL     OW14542   2.089   0.619  11.293
 4552SOL    HW114543   1.999   0.629  11.325
 4552SOL    HW214544   2.080   0.599  11.200
 4553SOL     OW14545   2.079   0.300  12.163
 4553SOL    HW114546   2.116   0.257  12.240
 4553SOL    HW214547   1.994   0.258  12.150
 4554SOL     OW14548   1.871   0.397  11.806
 4554SOL    HW114549   1.784   0.413  11.843
 4554SOL    HW214550   1.856   0.329  11.740
 4555SOL     OW14551   2.429   1.290  12.349
 4555SOL    HW114552   2.343   1.294  12.308
 4555SOL    HW214553   2.447   1.381  12.377
 4556SOL     OW14554   3.426   1.513  11.880
 4556SOL    HW114555   3.383   1.491  11.963
 4556SOL    HW214556   3.354   1.518  11.816
 4557SOL     OW14557   2.995   0.698  11.869
 4557SOL    HW114558   3.042   0.780  11.856
 4557SOL    HW214559   2.947   0.711  11.951
 4558SOL     OW14560   3.624   0.623  11.398
 4558SOL    HW114561   3.605   0.612  11.305
 4558SOL    HW214562   3.606   0.538  11.437
 4559SOL     OW14563   2.615   1.140  12.217
 4559SOL    HW114564   2.547   1.176  12.273
 4559SOL    HW214565   2.651   1.217  12.172
 4560SOL     OW14566   2.733   0.770  12.995
 4560SOL    HW114567   2.718   0.841  13.057
 4560SOL    HW214568   2.755   0.813  12.913
 4561SOL     OW14569   2.548   1.000  11.817
 4561SOL    HW114570   2.613   0.990  11.886
 4561SOL    HW214571   2.479   1.053  11.856
 4562SOL     OW14572   2.575   1.150  12.987
 4562SOL    HW114573   2.622   1.227  13.016
 4562SOL    HW214574   2.493   1.184  12.951
 4563SOL     OW14575   2.190   1.425  12.241
 4563SOL    HW114576   2.117   1.385  12.193
 4563SOL    HW214577   2.238   1.474  12.174
 4564SOL     OW14578   3.321   1.501  12.530
 4564SOL    HW114579   3.375   1.580  12.539
 4564SOL    HW214580   3.256   1.508  12.599
 4565SOL     OW14581   2.307   0.393  12.665
 4565SOL    HW114582   2.397   0.362  12.664
 4565SOL    HW214583   2.254   0.314  12.673
 4566SOL     OW14584   3.473   0.450  11.907
 4566SOL    HW114585   3.403   0.483  11.850
 4566SOL    HW214586   3.494   0.524  11.964
 4567SOL     OW14587   2.115   1.694  11.660
 4567SOL    HW114588   2.079   1.782  11.667
 4567SOL    HW214589   2.182   1.700  11.592
 4568SOL     OW14590   2.999   1.342  12.866
 4568SOL    HW114591   3.040   1.337  12.952
 4568SOL    HW214592   2.947   1.262  12.859
 4569SOL     OW14593   2.093   1.429  11.714
 4569SOL    HW114594   2.095   1.525  11.711
 4569SOL    HW214595   2.028   1.409  11.781
 4570SOL     OW14596   2.126   1.090  12.063
 4570SOL    HW114597   2.119   1.002  12.100
 4570SOL    HW214598   2.068   1.143  12.117
 4571SOL     OW14599   2.471   1.785  12.604
 4571SOL    HW114600   2.392   1.773  12.656
 4571SOL    HW214601   2.497   1.875  12.619
 4572SOL     OW14602   2.445   0.983  11.308
 4572SOL    HW114603   2.493   1.030  11.240
 4572SOL    HW214604   2.483   1.015  11.390
 4573SOL     OW14605   3.444   0.141  12.628
 4573SOL    HW114606   3.470   0.214  12.572
 4573SOL    HW214607   3.407   0.183  12.706
 4574SOL     OW14608   1.980   0.656  11.733
 4574SOL    HW114609   1.952   0.567  11.757
 4574SOL    HW214610   1.971   0.706  11.814
 4575SOL     OW14611   3.702   1.757  11.508
 4575SOL    HW114612   3.772   1.733  11.569
 4575SOL    HW214613   3.721   1.849  11.486
 4576SOL     OW14614   3.550   0.918  11.818
 4576SOL    HW114615   3.634   0.875  11.801
 4576SOL    HW214616   3.532   0.968  11.738
 4577SOL     OW14617   3.504   1.104  11.604
 4577SOL    HW114618   3.589   1.110  11.559
 4577SOL    HW214619   3.510   1.167  11.675
 4578SOL     OW14620   1.985   0.749  12.753
 4578SOL    HW114621   2.075   0.781  12.757
 4578SOL    HW214622   1.931   0.829  12.758
 4579SOL     OW14623   2.476   1.389  11.907
 4579SOL    HW114624   2.431   1.306  11.916
 4579SOL    HW214625   2.459   1.417  11.817
 4580SOL     OW14626   3.149   1.237  12.595
 4580SOL    HW114627   3.181   1.170  12.534
 4580SOL    HW214628   3.208   1.232  12.670
 4581SOL     OW14629   2.682   0.004  11.689
 4581SOL    HW114630   2.727   0.084  11.664
 4581SOL    HW214631   2.589   0.028  11.689
 4582SOL     OW14632   2.051   0.961  12.449
 4582SOL    HW114633   2.136   0.921  12.432
 4582SOL    HW214634   1.991   0.916  12.390
 4583SOL     OW14635   3.390   0.996  11.373
 4583SOL    HW114636   3.321   0.939  11.406
 4583SOL    HW214637   3.432   1.031  11.451
 4584SOL     OW14638   3.047   1.808  12.795
 4584SOL    HW114639   3.056   1.868  12.721
 4584SOL    HW214640   3.065   1.722  12.759
 4585SOL     OW14641   2.219   0.253  13.012
 4585SOL    HW114642   2.263   0.337  13.010
 4585SOL    HW214643   2.126   0.274  13.016
 4586SOL     OW14644   3.329   1.420  12.121
 4586SOL    HW114645   3.261   1.435  12.188
 4586SOL    HW214646   3.317   1.328  12.096
 4587SOL     OW14647   3.515   1.746  11.751
 4587SOL    HW114648   3.500   1.713  11.662
 4587SOL    HW214649   3.495   1.671  11.808
 4588SOL     OW14650   2.457   0.720  11.440
 4588SOL    HW114651   2.461   0.803  11.393
 4588SOL    HW214652   2.392   0.735  11.509
 4589SOL     OW14653   3.137   0.369  12.113
 4589SOL    HW114654   3.049   0.330  12.120
 4589SOL    HW214655   3.194   0.307  12.158
 4590SOL     OW14656   3.439   1.671  11.482
 4590SOL    HW114657   3.530   1.701  11.475
 4590SOL    HW214658   3.413   1.655  11.391
 4591SOL     OW14659   2.658   0.616  12.624
 4591SOL    HW114660   2.629   0.590  12.712
 4591SOL    HW214661   2.619   0.550  12.566
 4592SOL     OW14662   3.254   0.476  12.849
 4592SOL    HW114663   3.260   0.521  12.933
 4592SOL    HW214664   3.311   0.400  12.859
 4593SOL     OW14665   2.814   0.887  12.756
 4593SOL    HW114666   2.869   0.818  12.719
 4593SOL    HW214667   2.766   0.922  12.681
 4594SOL     OW14668   2.854   0.402  12.410
 4594SOL    HW114669   2.770   0.423  12.449
 4594SOL    HW214670   2.834   0.375  12.321
 4595SOL     OW14671   2.914   0.699  11.597
 4595SOL    HW114672   2.931   0.692  11.691
 4595SOL    HW214673   2.831   0.653  11.584
 4596SOL     OW14674   1.949   0.822  11.948
 4596SOL    HW114675   2.029   0.815  12.000
 4596SOL    HW214676   1.904   0.899  11.984
 4597SOL     OW14677   2.757   0.352  11.371
 4597SOL    HW114678   2.799   0.411  11.309
 4597SOL    HW214679   2.750   0.269  11.325
 4598SOL     OW14680   3.569   0.574  13.002
 4598SOL    HW114681   3.532   0.649  12.954
 4598SOL    HW214682   3.595   0.512  12.933
 4599SOL     OW14683   3.239   1.141  11.712
 4599SOL    HW114684   3.319   1.130  11.661
 4599SOL    HW214685   3.187   1.204  11.662
 4600SOL     OW14686   2.420   0.199  12.053
 4600SOL    HW114687   2.423   0.218  12.146
 4600SOL    HW214688   2.416   0.284  12.011
 4601SOL     OW14689   2.865   1.443  11.643
 4601SOL    HW114690   2.831   1.517  11.592
 4601SOL    HW214691   2.844   1.464  11.733
 4602SOL     OW14692   2.238   1.810  11.988
 4602SOL    HW114693   2.255   1.718  12.009
 4602SOL    HW214694   2.302   1.858  12.041
 4603SOL     OW14695   3.667   1.062  12.040
 4603SOL    HW114696   3.614   1.037  11.964
 4603SOL    HW214697   3.605   1.065  12.113
 4604SOL     OW14698   3.089   1.539  12.685
 4604SOL    HW114699   3.076   1.467  12.747
 4604SOL    HW214700   3.024   1.524  12.617
 4605SOL     OW14701   2.181   0.960  11.425
 4605SOL    HW114702   2.263   0.978  11.379
 4605SOL    HW214703   2.151   0.877  11.387
 4606SOL     OW14704   3.342   0.746  11.900
 4606SOL    HW114705   3.336   0.706  11.987
 4606SOL    HW214706   3.419   0.803  11.905
 4607SOL     OW14707   2.330   1.266  12.915
 4607SOL    HW114708   2.304   1.269  12.823
 4607SOL    HW214709   2.248   1.263  12.964
 4608SOL     OW14710   2.986   1.777  11.403
 4608SOL    HW114711   2.911   1.737  11.446
 4608SOL    HW214712   3.010   1.715  11.333
 4609SOL     OW14713   2.032   0.275  12.671
 4609SOL    HW114714   1.976   0.352  12.660
 4609SOL    HW214715   2.037   0.262  12.766
 4610SOL     OW14716   3.487   1.383  11.259
 4610SOL    HW114717   3.444   1.468  11.244
 4610SOL    HW214718   3.420   1.318  11.240
 4611SOL     OW14719   2.332   1.723  11.495
 4611SOL    HW114720   2.377   1.788  11.548
 4611SOL    HW214721   2.395   1.699  11.427
 4612SOL     OW14722   3.297   0.170  11.574
 4612SOL    HW114723   3.252   0.096  11.533
 4612SOL    HW214724   3.372   0.131  11.618
 4613SOL     OW14725   2.132   1.745  12.388
 4613SOL    HW114726   2.188   1.680  12.431
 4613SOL    HW214727   2.149   1.733  12.295
 4614SOL     OW14728   2.799   1.698  12.070
 4614SOL    HW114729   2.879   1.648  12.091
 4614SOL    HW214730   2.758   1.648  12.000
 4615SOL     OW14731   2.257   0.695  11.646
 4615SOL    HW114732   2.275   0.602  11.659
 4615SOL    HW214733   2.164   0.704  11.664
 4616SOL     OW14734   3.392   0.229  12.898
 4616SOL    HW114735   3.385   0.255  12.990
 4616SOL    HW214736   3.374   0.135  12.898
 4617SOL     OW14737   2.506   0.130  11.280
 4617SOL    HW114738   2.529   0.046  11.320
 4617SOL    HW214739   2.443   0.108  11.211
 4618SOL     OW14740   2.637   0.282  12.940
 4618SOL    HW114741   2.709   0.219  12.943
 4618SOL    HW214742   2.579   0.256  13.012
 4619SOL     OW14743   2.739   1.522  12.365
 4619SOL    HW114744   2.723   1.485  12.278
 4619SOL    HW214745   2.809   1.468  12.402
 4620SOL     OW14746   3.202   0.587  12.602
 4620SOL    HW114747   3.232   0.559  12.689
 4620SOL    HW214748   3.236   0.676  12.593
 4621SOL     OW14749   2.678   1.392  12.115
 4621SOL    HW114750   2.763   1.381  12.071
 4621SOL    HW214751   2.615   1.396  12.043
 4622SOL     OW14752   2.792   0.511  12.072
 4622SOL    HW114753   2.767   0.503  11.980
 4622SOL    HW214754   2.818   0.423  12.098
 4623SOL     OW14755   2.407   0.057  11.663
 4623SOL    HW114756   2.332   0.062  11.723
 4623SOL    HW214757   2.402   0.138  11.612
 4624SOL     OW14758   3.289   1.199  11.212
 4624SOL    HW114759   3.319   1.124  11.263
 4624SOL    HW214760   3.204   1.221  11.250
 4625SOL     OW14761   2.192   0.043  11.383
 4625SOL    HW114762   2.200   0.110  11.315
 4625SOL    HW214763   2.274   0.049  11.432
 4626SOL     OW14764   2.804   0.250  11.632
 4626SOL    HW114765   2.779   0.290  11.548
 4626SOL    HW214766   2.900   0.254  11.633
 4627SOL     OW14767   2.942   0.684  12.631
 4627SOL    HW114768   2.871   0.619  12.637
 4627SOL    HW214769   3.022   0.632  12.625
 4628SOL     OW14770   3.083   1.572  11.967
 4628SOL    HW114771   3.099   1.637  11.899
 4628SOL    HW214772   3.153   1.586  12.030
 4629SOL     OW14773   2.334   1.151  11.903
 4629SOL    HW114774   2.266   1.131  11.967
 4629SOL    HW214775   2.293   1.137  11.818
 4630SOL     OW14776   3.129   1.793  11.782
 4630SOL    HW114777   3.177   1.854  11.726
 4630SOL    HW214778   3.062   1.846  11.824
 4631SOL     OW14779   2.884   0.543  11.200
 4631SOL    HW114780   2.840   0.625  11.181
 4631SOL    HW214781   2.947   0.565  11.268
 4632SOL     OW14782   1.944   0.550  12.569
 4632SOL    HW114783   2.035   0.552  12.539
 4632SOL    HW214784   1.937   0.623  12.630
 4633SOL     OW14785   2.425   0.231  12.333
 4633SOL    HW114786   2.449   0.139  12.343
 4633SOL    HW214787   2.336   0.236  12.365
 4634SOL     OW14788   2.732   0.461  11.810
 4634SOL    HW114789   2.684   0.515  11.747
 4634SOL    HW214790   2.753   0.381  11.762
 4635SOL     OW14791   2.858   0.039  11.952
 4635SOL    HW114792   2.822   0.068  11.869
 4635SOL    HW214793   2.869   3.945  11.942
 4636SOL     OW14794   3.302   1.161  12.030
 4636SOL    HW114795   3.230   1.098  12.028
 4636SOL    HW214796   3.327   1.171  11.938
 4637SOL     OW14797   3.326   0.608  12.146
 4637SOL    HW114798   3.272   0.529  12.151
 4637SOL    HW214799   3.386   0.601  12.220
 4638SOL     OW14800   3.722   0.824  11.547
 4638SOL    HW114801   3.763   0.767  11.611
 4638SOL    HW214802   3.684   0.764  11.483
 4639SOL     OW14803   2.353   1.421  11.324
 4639SOL    HW114804   2.278   1.395  11.378
 4639SOL    HW214805   2.345   1.368  11.244
 4640SOL     OW14806   3.529   1.265  11.816
 4640SOL    HW114807   3.624   1.268  11.826
 4640SOL    HW214808   3.500   1.354  11.837
 4641SOL     OW14809   3.257   0.575  11.241
 4641SOL    HW114810   3.193   0.557  11.310
 4641SOL    HW214811   3.342   0.560  11.282
 4642SOL     OW14812   2.388   0.266  11.488
 4642SOL    HW114813   2.443   0.228  11.420
 4642SOL    HW214814   2.360   0.350  11.451
 4643SOL     OW14815   3.613   1.234  12.738
 4643SOL    HW114816   3.701   1.199  12.721
 4643SOL    HW214817   3.629   1.323  12.768
 4644SOL     OW14818   2.919   1.354  12.505
 4644SOL    HW114819   2.844   1.322  12.556
 4644SOL    HW214820   2.995   1.312  12.546
 4645SOL     OW14821   3.468   1.628  12.828
 4645SOL    HW114822   3.460   1.663  12.739
 4645SOL    HW214823   3.548   1.576  12.827
 4646SOL     OW14824   2.994   1.206  12.276
 4646SOL    HW114825   2.934   1.244  12.340
 4646SOL    HW214826   2.963   1.240  12.192
 4647SOL     OW14827   3.490   1.096  12.247
 4647SOL    HW114828   3.481   1.157  12.319
 4647SOL    HW214829   3.413   1.112  12.192
 4648SOL     OW14830   2.774   0.116  12.573
 4648SOL    HW114831   2.794   0.089  12.484
 4648SOL    HW214832   2.855   0.158  12.604
 4649SOL     OW14833   2.846   1.115  12.896
 4649SOL    HW114834   2.755   1.132  12.918
 4649SOL    HW214835   2.844   1.037  12.840
 4650SOL     OW14836   2.571   1.063  11.542
 4650SOL    HW114837   2.556   1.044  11.635
 4650SOL    HW214838   2.647   1.009  11.519
 4651SOL     OW14839   2.283   0.816  12.423
 4651SOL    HW114840   2.351   0.824  12.490
 4651SOL    HW214841   2.247   0.728  12.436
 4652SOL     OW14842   3.128   0.375  12.448
 4652SOL    HW114843   3.162   0.453  12.492
 4652SOL    HW214844   3.041   0.400  12.418
 4653SOL     OW14845   1.950   1.555  12.530
 4653SOL    HW114846   1.925   1.623  12.467
 4653SOL    HW214847   2.046   1.550  12.523
 4654SOL     OW14848   2.210   1.112  11.662
 4654SOL    HW114849   2.209   1.188  11.604
 4654SOL    HW214850   2.206   1.037  11.603
 4655SOL     OW14851   2.416   0.532  12.029
 4655SOL    HW114852   2.430   0.592  11.955
 4655SOL    HW214853   2.481   0.559  12.094
 4656SOL     OW14854   3.110   1.349  11.562
 4656SOL    HW114855   3.165   1.420  11.593
 4656SOL    HW214856   3.023   1.370  11.595
 4657SOL     OW14857   3.147   1.459  12.320
 4657SOL    HW114858   3.202   1.463  12.397
 4657SOL    HW214859   3.092   1.382  12.333
 4658SOL     OW14860   3.434   0.632  11.657
 4658SOL    HW114861   3.392   0.688  11.723
 4658SOL    HW214862   3.481   0.694  11.601
 4659SOL     OW14863   2.221   1.507  12.492
 4659SOL    HW114864   2.205   1.471  12.405
 4659SOL    HW214865   2.316   1.522  12.495
 4660SOL     OW14866   2.279   0.745  12.774
 4660SOL    HW114867   2.341   0.790  12.716
 4660SOL    HW214868   2.320   0.660  12.791
 4661SOL     OW14869   3.466   0.779  12.855
 4661SOL    HW114870   3.380   0.821  12.849
 4661SOL    HW214871   3.519   0.821  12.788
 4662SOL     OW14872   2.876   0.132  12.952
 4662SOL    HW114873   2.925   0.205  12.914
 4662SOL    HW214874   2.860   0.073  12.879
 4663SOL     OW14875   2.350   0.034  12.934
 4663SOL    HW114876   2.352   0.047  12.839
 4663SOL    HW214877   2.291   0.102  12.966
 4664SOL     OW14878   2.447   0.873  12.204
 4664SOL    HW114879   2.475   0.964  12.204
 4664SOL    HW214880   2.389   0.866  12.280
 4665SOL     OW14881   3.215   0.859  12.198
 4665SOL    HW114882   3.130   0.847  12.155
 4665SOL    HW214883   3.258   0.774  12.190
 4666SOL     OW14884   3.063   0.537  11.430
 4666SOL    HW114885   3.070   0.458  11.483
 4666SOL    HW214886   3.020   0.600  11.487
 4667SOL     OW14887   2.161   0.209  12.415
 4667SOL    HW114888   2.120   0.238  12.496
 4667SOL    HW214889   2.150   0.114  12.415
 4668SOL     OW14890   1.901   1.302  12.451
 4668SOL    HW114891   1.937   1.246  12.519
 4668SOL    HW214892   1.916   1.391  12.483
 4669SOL     OW14893   2.584   0.632  12.225
 4669SOL    HW114894   2.660   0.619  12.167
 4669SOL    HW214895   2.555   0.721  12.206
 4670SOL     OW14896   3.595   0.955  13.036
 4670SOL    HW114897   3.551   0.895  12.975
 4670SOL    HW214898   3.530   0.971  13.104
 4671SOL     OW14899   2.185   0.056  11.823
 4671SOL    HW114900   2.165   0.148  11.835
 4671SOL    HW214901   2.150   0.014  11.902
 4672SOL     OW14902   3.474   0.392  11.551
 4672SOL    HW114903   3.436   0.323  11.606
 4672SOL    HW214904   3.452   0.473  11.597
 4673SOL     OW14905   2.892   0.759  12.131
 4673SOL    HW114906   2.885   0.776  12.225
 4673SOL    HW214907   2.864   0.668  12.121
 4674SOL     OW14908   2.843   1.566  12.891
 4674SOL    HW114909   2.828   1.610  12.808
 4674SOL    HW214910   2.887   1.484  12.868
 4675SOL     OW14911   3.705   1.499  12.770
 4675SOL    HW114912   3.729   1.528  12.682
 4675SOL    HW214913   3.785   1.510  12.821
 4676SOL     OW14914   2.215   0.915  12.982
 4676SOL    HW114915   2.297   0.935  13.028
 4676SOL    HW214916   2.240   0.853  12.913
 4677SOL     OW14917   3.364   0.274  11.306
 4677SOL    HW114918   3.290   0.214  11.317
 4677SOL    HW214919   3.376   0.313  11.393
 4678SOL     OW14920   3.150   0.826  11.200
 4678SOL    HW114921   3.193   0.741  11.204
 4678SOL    HW214922   3.183   0.866  11.120
 4679SOL     OW14923   2.929   1.337  12.028
 4679SOL    HW114924   2.933   1.265  11.965
 4679SOL    HW214925   2.989   1.403  11.992
 4680SOL     OW14926   2.169   0.809  12.118
 4680SOL    HW114927   2.262   0.830  12.111
 4680SOL    HW214928   2.167   0.719  12.150
 4681SOL     OW14929   2.199   0.536  12.186
 4681SOL    HW114930   2.157   0.451  12.170
 4681SOL    HW214931   2.275   0.537  12.128
 4682SOL     OW14932   2.995   0.380  12.869
 4682SOL    HW114933   2.946   0.435  12.930
 4682SOL    HW214934   3.081   0.421  12.864
 4683SOL     OW14935   3.013   0.226  12.653
 4683SOL    HW114936   3.004   0.280  12.732
 4683SOL    HW214937   3.038   0.288  12.584
 4684SOL     OW14938   1.877   1.318  11.360
 4684SOL    HW114939   1.791   1.343  11.326
 4684SOL    HW214940   1.863   1.231  11.397
 4685SOL     OW14941   2.359   1.573  12.082
 4685SOL    HW114942   2.426   1.639  12.100
 4685SOL    HW214943   2.401   1.511  12.022
 4686SOL     OW14944   2.841   0.788  12.396
 4686SOL    HW114945   2.897   0.769  12.471
 4686SOL    HW214946   2.755   0.753  12.421
 4687SOL     OW14947   1.895   0.547  12.289
 4687SOL    HW114948   1.970   0.523  12.235
 4687SOL    HW214949   1.929   0.547  12.378
 4688SOL     OW14950   2.066   0.527  12.885
 4688SOL    HW114951   2.136   0.506  12.823
 4688SOL    HW214952   2.021   0.602  12.846
 4689SOL     OW14953   3.242   0.936  12.829
 4689SOL    HW114954   3.263   1.030  12.827
 4689SOL    HW214955   3.237   0.910  12.737
 4690SOL     OW14956   2.679   0.572  11.536
 4690SOL    HW114957   2.685   0.497  11.477
 4690SOL    HW214958   2.604   0.623  11.503
 4691SOL     OW14959   3.501   0.602  12.355
 4691SOL    HW114960   3.491   0.541  12.428
 4691SOL    HW214961   3.587   0.581  12.319
 4692SOL     OW14962   2.092   1.559  12.908
 4692SOL    HW114963   2.084   1.610  12.989
 4692SOL    HW214964   2.103   1.469  12.938
 4693SOL     OW14965   2.570   0.453  12.428
 4693SOL    HW114966   2.519   0.376  12.403
 4693SOL    HW214967   2.561   0.513  12.354
 4694SOL     OW14968   2.787   1.678  12.641
 4694SOL    HW114969   2.762   1.642  12.556
 4694SOL    HW214970   2.783   1.773  12.629
 4695SOL     OW14971   2.325   0.494  11.355
 4695SOL    HW114972   2.383   0.566  11.379
 4695SOL    HW214973   2.239   0.534  11.342
 4696SOL     OW14974   2.006   1.139  12.646
 4696SOL    HW114975   2.007   1.090  12.728
 4696SOL    HW214976   2.023   1.073  12.579
 4697SOL     OW14977   3.184   1.045  12.394
 4697SOL    HW114978   3.207   0.982  12.326
 4697SOL    HW214979   3.116   1.099  12.354
 4698SOL     OW14980   3.176   0.854  11.477
 4698SOL    HW114981   3.100   0.827  11.529
 4698SOL    HW214982   3.148   0.843  11.386
 4699SOL     OW14983   3.642   1.741  12.329
 4699SOL    HW114984   3.697   1.769  12.256
 4699SOL    HW214985   3.613   1.654  12.305
 4700SOL     OW14986   3.103   1.733  12.282
 4700SOL    HW114987   3.185   1.756  12.238
 4700SOL    HW214988   3.110   1.640  12.301
 4701SOL     OW14989   1.954   1.257  12.191
 4701SOL    HW114990   1.932   1.270  12.283
 4701SOL    HW214991   1.876   1.217  12.152
 4702SOL     OW14992   2.538   1.668  12.903
 4702SOL    HW114993   2.488   1.749  12.902
 4702SOL    HW214994   2.607   1.681  12.837
 4703SOL     OW14995   3.551   0.120  11.660
 4703SOL    HW114996   3.632   0.135  11.611
 4703SOL    HW214997   3.553   0.026  11.681
 4704SOL     OW14998   3.253   1.567  11.660
 4704SOL    HW114999   3.312   1.600  11.593
 4704SOL    HW215000   3.203   1.644  11.688
 4705SOL     OW15001   3.139   0.927  11.843
 4705SOL    HW115002   3.214   0.867  11.853
 4705SOL    HW215003   3.173   0.999  11.790
 4706SOL     OW15004   2.672   1.274  12.599
 4706SOL    HW115005   2.643   1.314  12.681
 4706SOL    HW215006   2.603   1.296  12.536
 4707SOL     OW15007   2.535   1.622  11.323
 4707SOL    HW115008   2.546   1.634  11.229
 4707SOL    HW215009   2.479   1.545  11.331
 4708SOL     OW15010   3.482   1.727  12.563
 4708SOL    HW115011   3.537   1.732  12.485
 4708SOL    HW215012   3.469   1.818  12.589
 4709SOL     OW15013   3.703   0.182  12.143
 4709SOL    HW115014   3.728   0.097  12.105
 4709SOL    HW215015   3.617   0.201  12.106
 4710SOL     OW15016   2.126   0.316  11.887
 4710SOL    HW115017   2.039   0.351  11.865
 4710SOL    HW215018   2.124   0.308  11.982
 4711SOL     OW15019   3.070   1.604  11.204
 4711SOL    HW115020   3.059   1.513  11.231
 4711SOL    HW215021   3.004   1.617  11.136
 4712SOL     OW15022   2.686   1.006  12.545
 4712SOL    HW115023   2.728   1.002  12.459
 4712SOL    HW215024   2.684   1.099  12.566
 4713SOL     OW15025   2.778   0.910  11.462
 4713SOL    HW115026   2.839   0.943  11.396
 4713SOL    HW215027   2.827   0.842  11.508
 4714SOL     OW15028   3.351   1.628  11.215
 4714SOL    HW115029   3.257   1.619  11.200
 4714SOL    HW215030   3.389   1.634  11.127
 4715SOL     OW15031   2.229   1.299  12.672
 4715SOL    HW115032   2.224   1.371  12.609
 4715SOL    HW215033   2.152   1.244  12.652
 4716SOL     OW15034   3.463   1.280  12.449
 4716SOL    HW115035   3.531   1.272  12.516
 4716SOL    HW215036   3.406   1.349  12.482
 4717SOL     OW15037   2.918   1.109  11.881
 4717SOL    HW115038   2.846   1.058  11.918
 4717SOL    HW215039   2.981   1.043  11.851
 4718SOL     OW15040   2.877   0.249  12.142
 4718SOL    HW115041   2.867   0.198  12.061
 4718SOL    HW215042   2.872   0.183  12.211
 4719SOL     OW15043   2.467   1.491  11.653
 4719SOL    HW115044   2.510   1.441  11.584
 4719SOL    HW215045   2.396   1.537  11.608
 4720SOL     OW15046   3.582   0.394  12.544
 4720SOL    HW115047   3.654   0.457  12.544
 4720SOL    HW215048   3.614   0.321  12.490
 4721SOL     OW15049   2.126   1.347  11.463
 4721SOL    HW115050   2.034   1.343  11.436
 4721SOL    HW215051   2.123   1.380  11.553
 4722SOL     OW15052   1.976   1.028  12.895
 4722SOL    HW115053   1.899   1.002  12.946
 4722SOL    HW215054   2.049   0.986  12.940
 4723SOL     OW15055   2.555   0.255  12.673
 4723SOL    HW115056   2.622   0.200  12.632
 4723SOL    HW215057   2.582   0.261  12.765
 4724SOL     OW15058   1.962   0.317  11.164
 4724SOL    HW115059   1.894   0.337  11.228
 4724SOL    HW215060   1.970   0.398  11.112
 4725SOL     OW15061   3.287   0.857  12.570
 4725SOL    HW115062   3.238   0.919  12.517
 4725SOL    HW215063   3.376   0.859  12.534
 4726SOL     OW15064   1.943   0.152  11.512
 4726SOL    HW115065   1.912   0.211  11.444
 4726SOL    HW215066   2.029   0.124  11.482
 4727SOL     OW15067   3.040   1.337  11.290
 4727SOL    HW115068   2.950   1.306  11.292
 4727SOL    HW215069   3.068   1.339  11.381
 4728SOL     OW15070   2.483   0.829  12.606
 4728SOL    HW115071   2.540   0.905  12.591
 4728SOL    HW215072   2.544   0.755  12.615
 4729SOL     OW15073   3.344   1.781  12.152
 4729SOL    HW115074   3.367   1.843  12.083
 4729SOL    HW215075   3.428   1.754  12.189
 4730SOL     OW15076   2.580   0.561  12.876
 4730SOL    HW115077   2.622   0.623  12.935
 4730SOL    HW215078   2.605   0.475  12.910
 4731SOL     OW15079   3.335   1.197  12.803
 4731SOL    HW115080   3.323   1.212  12.896
 4731SOL    HW215081   3.428   1.214  12.787
 4732SOL     OW15082   2.234   1.744  12.744
 4732SOL    HW115083   2.165   1.755  12.680
 4732SOL    HW215084   2.210   1.664  12.791
 4733SOL     OW15085   3.526   0.881  12.431
 4733SOL    HW115086   3.525   0.796  12.387
 4733SOL    HW215087   3.520   0.944  12.360
 4734SOL     OW15088   3.082   0.337  11.615
 4734SOL    HW115089   3.151   0.271  11.606
 4734SOL    HW215090   3.103   0.381  11.697
 4735SOL     OW15091   2.451   0.736  11.843
 4735SOL    HW115092   2.490   0.822  11.828
 4735SOL    HW215093   2.385   0.728  11.775
 4736SOL     OW15094   3.616   0.381  12.814
 4736SOL    HW115095   3.595   0.390  12.721
 4736SOL    HW215096   3.556   0.314  12.846
 4737SOL     OW15097   3.616   0.930  12.685
 4737SOL    HW115098   3.607   1.024  12.703
 4737SOL    HW215099   3.592   0.920  12.593
 4738SOL     OW15100   2.722   1.366  11.209
 4738SOL    HW115101   2.687   1.393  11.294
 4738SOL    HW215102   2.742   1.449  11.164
 4739SOL     OW15103   2.526   1.792  12.107
 4739SOL    HW115104   2.519   1.888  12.102
 4739SOL    HW215105   2.620   1.775  12.108
 4740SOL     OW15106   2.730   0.969  12.027
 4740SOL    HW115107   2.781   0.897  12.065
 4740SOL    HW215108   2.694   1.016  12.102
 4741SOL     OW15109   2.941   0.989  11.261
 4741SOL    HW115110   2.918   1.040  11.184
 4741SOL    HW215111   3.014   0.935  11.234
 4742SOL     OW15112   3.714   1.556  12.013
 4742SOL    HW115113   3.635   1.540  11.962
 4742SOL    HW215114   3.713   1.489  12.081
 4743SOL     OW15115   2.084   1.303  13.022
 4743SOL    HW115116   2.023   1.237  12.990
 4743SOL    HW215117   2.058   1.318  13.113
 4744SOL     OW15118   1.943   1.214  11.834
 4744SOL    HW115119   1.964   1.177  11.920
 4744SOL    HW215120   2.020   1.192  11.780
 4745SOL     OW15121   2.542   1.405  12.799
 4745SOL    HW115122   2.465   1.362  12.835
 4745SOL    HW215123   2.541   1.493  12.837
 4746SOL     OW15124   3.676   0.181  12.416
 4746SOL    HW115125   3.678   0.086  12.425
 4746SOL    HW215126   3.694   0.198  12.324
 4747SOL     OW15127   2.290   0.434  11.697
 4747SOL    HW115128   2.324   0.363  11.644
 4747SOL    HW215129   2.243   0.391  11.768
 4748SOL     OW15130   3.558   1.491  12.269
 4748SOL    HW115131   3.480   1.468  12.219
 4748SOL    HW215132   3.568   1.419  12.331
 4749SOL     OW15133   2.193   0.556  12.466
 4749SOL    HW115134   2.246   0.497  12.520
 4749SOL    HW215135   2.212   0.530  12.376
 4750SOL     OW15136   2.691   1.577  11.849
 4750SOL    HW115137   2.675   1.635  11.774
 4750SOL    HW215138   2.616   1.518  11.851
 4751SOL     OW15139   3.323   0.253  12.282
 4751SOL    HW115140   3.337   0.165  12.318
 4751SOL    HW215141   3.267   0.296  12.347
 4752SOL     OW15142   2.866   0.027  12.318
 4752SOL    HW115143   2.785   3.991  12.282
 4752SOL    HW215144   2.924   3.952  12.327
 4753SOL     OW15145   2.636   1.333  11.488
 4753SOL    HW115146   2.606   1.243  11.496
 4753SOL    HW215147   2.716   1.336  11.540
 4754SOL     OW15148   2.485   1.555  12.456
 4754SOL    HW115149   2.486   1.636  12.507
 4754SOL    HW215150   2.573   1.548  12.420
 4755SOL     OW15151   3.173   0.071  11.332
 4755SOL    HW115152   3.179   3.989  11.282
 4755SOL    HW215153   3.088   0.066  11.376
 4756SOL     OW15154   3.143   0.457  11.857
 4756SOL    HW115155   3.097   0.540  11.852
 4756SOL    HW215156   3.146   0.437  11.951
 4757SOL     OW15157   3.452   0.210  12.039
 4757SOL    HW115158   3.404   0.234  12.118
 4757SOL    HW215159   3.451   0.290  11.986
 4758SOL     OW15160   1.902   1.069  11.478
 4758SOL    HW115161   1.996   1.064  11.461
 4758SOL    HW215162   1.877   0.980  11.503
 4759SOL     OW15163   2.750   1.654  11.511
 4759SOL    HW115164   2.676   1.639  11.452
 4759SOL    HW215165   2.724   1.728  11.565
 4760SOL     OW15166   2.089   0.620  13.155
 4760SOL    HW115167   1.998   0.627  13.187
 4760SOL    HW215168   2.080   0.599  13.062
 4761SOL     OW15169   2.114   0.264   0.129
 4761SOL    HW115170   2.157   0.328   0.185
 4761SOL    HW215171   2.021   0.287   0.132
 4762SOL     OW15172   1.870   0.389  13.645
 4762SOL    HW115173   1.777   0.400  13.663
 4762SOL    HW215174   1.878   0.300  13.610
 4763SOL     OW15175   3.387   1.498  13.727
 4763SOL    HW115176   3.330   1.432  13.767
 4763SOL    HW215177   3.343   1.521  13.645
 4764SOL     OW15178   2.993   0.699  13.732
 4764SOL    HW115179   3.047   0.775  13.709
 4764SOL    HW215180   2.936   0.730  13.802
 4765SOL     OW15181   3.632   0.620  13.259
 4765SOL    HW115182   3.610   0.612  13.166
 4765SOL    HW215183   3.605   0.537  13.298
 4766SOL     OW15184   2.546   1.011  13.671
 4766SOL    HW115185   2.600   0.991  13.747
 4766SOL    HW215186   2.472   1.060  13.707
 4767SOL     OW15187   3.477   0.460  13.763
 4767SOL    HW115188   3.391   0.470  13.722
 4767SOL    HW215189   3.498   0.548  13.795
 4768SOL     OW15190   2.113   1.689  13.523
 4768SOL    HW115191   2.089   1.780  13.542
 4768SOL    HW215192   2.179   1.696  13.454
 4769SOL     OW15193   2.100   1.425  13.572
 4769SOL    HW115194   2.098   1.521  13.569
 4769SOL    HW215195   2.035   1.402  13.638
 4770SOL     OW15196   2.101   1.108   0.027
 4770SOL    HW115197   2.121   1.045   0.096
 4770SOL    HW215198   2.036   1.166   0.066
 4771SOL     OW15199   2.444   0.983  13.169
 4771SOL    HW115200   2.492   1.030  13.100
 4771SOL    HW215201   2.483   1.015  13.250
 4772SOL     OW15202   1.981   0.657  13.589
 4772SOL    HW115203   1.951   0.567  13.602
 4772SOL    HW215204   1.965   0.701  13.672
 4773SOL     OW15205   3.702   1.758  13.369
 4773SOL    HW115206   3.773   1.732  13.428
 4773SOL    HW215207   3.721   1.849  13.348
 4774SOL     OW15208   3.546   0.915  13.667
 4774SOL    HW115209   3.634   0.883  13.648
 4774SOL    HW215210   3.525   0.972  13.594
 4775SOL     OW15211   3.504   1.104  13.463
 4775SOL    HW115212   3.588   1.109  13.417
 4775SOL    HW215213   3.511   1.168  13.534
 4776SOL     OW15214   2.467   1.383  13.759
 4776SOL    HW115215   2.423   1.299  13.766
 4776SOL    HW215216   2.444   1.415  13.671
 4777SOL     OW15217   2.683   0.004  13.551
 4777SOL    HW115218   2.727   0.085  13.524
 4777SOL    HW215219   2.590   0.026  13.548
 4778SOL     OW15220   3.389   0.995  13.235
 4778SOL    HW115221   3.321   0.937  13.269
 4778SOL    HW215222   3.430   1.032  13.313
 4779SOL     OW15223   3.515   1.744  13.613
 4779SOL    HW115224   3.496   1.713  13.525
 4779SOL    HW215225   3.510   1.666  13.668
 4780SOL     OW15226   2.455   0.721  13.300
 4780SOL    HW115227   2.459   0.804  13.252
 4780SOL    HW215228   2.390   0.736  13.369
 4781SOL     OW15229   3.102   0.340   0.051
 4781SOL    HW115230   3.013   0.329   0.085
 4781SOL    HW215231   3.158   0.296   0.116
 4782SOL     OW15232   3.439   1.675  13.342
 4782SOL    HW115233   3.531   1.703  13.337
 4782SOL    HW215234   3.414   1.657  13.252
 4783SOL     OW15235   2.911   0.696  13.459
 4783SOL    HW115236   2.926   0.684  13.552
 4783SOL    HW215237   2.829   0.651  13.441
 4784SOL     OW15238   1.941   0.817  13.812
 4784SOL    HW115239   2.023   0.818  13.861
 4784SOL    HW215240   1.893   0.894  13.844
 4785SOL     OW15241   2.757   0.351  13.232
 4785SOL    HW115242   2.798   0.411  13.170
 4785SOL    HW215243   2.751   0.268  13.186
 4786SOL     OW15244   3.224   1.134  13.551
 4786SOL    HW115245   3.314   1.135  13.519
 4786SOL    HW215246   3.182   1.207  13.505
 4787SOL     OW15247   2.861   1.438  13.502
 4787SOL    HW115248   2.831   1.515  13.453
 4787SOL    HW215249   2.831   1.454  13.592
 4788SOL     OW15250   2.252   1.826  13.819
 4788SOL    HW115251   2.249   1.740  13.861
 4788SOL    HW215252   2.240   1.888  13.891
 4789SOL     OW15253   3.653   1.053  13.898
 4789SOL    HW115254   3.594   1.047  13.823
 4789SOL    HW215255   3.595   1.049   0.075
 4790SOL     OW15256   2.181   0.959  13.288
 4790SOL    HW115257   2.263   0.979  13.241
 4790SOL    HW215258   2.151   0.877  13.249
 4791SOL     OW15259   3.355   0.731  13.752
 4791SOL    HW115260   3.341   0.696  13.840
 4791SOL    HW215261   3.422   0.799  13.764
 4792SOL     OW15262   2.986   1.778  13.264
 4792SOL    HW115263   2.911   1.738  13.308
 4792SOL    HW215264   3.009   1.715  13.195
 4793SOL     OW15265   3.487   1.383  13.120
 4793SOL    HW115266   3.444   1.467  13.106
 4793SOL    HW215267   3.420   1.318  13.101
 4794SOL     OW15268   2.330   1.719  13.357
 4794SOL    HW115269   2.373   1.784  13.411
 4794SOL    HW215270   2.393   1.699  13.288
 4795SOL     OW15271   3.284   0.167  13.440
 4795SOL    HW115272   3.248   0.107  13.374
 4795SOL    HW215273   3.373   0.134  13.457
 4796SOL     OW15274   2.793   1.687   0.008
 4796SOL    HW115275   2.808   1.620   0.076
 4796SOL    HW215276   2.748   1.639  13.838
 4797SOL     OW15277   2.256   0.698  13.506
 4797SOL    HW115278   2.276   0.605  13.517
 4797SOL    HW215279   2.162   0.705  13.523
 4798SOL     OW15280   2.506   0.130  13.142
 4798SOL    HW115281   2.529   0.046  13.181
 4798SOL    HW215282   2.443   0.108  13.073
 4799SOL     OW15283   2.411   0.056  13.526
 4799SOL    HW115284   2.336   0.059  13.585
 4799SOL    HW215285   2.404   0.136  13.474
 4800SOL     OW15286   3.289   1.199  13.074
 4800SOL    HW115287   3.319   1.124  13.126
 4800SOL    HW215288   3.204   1.221  13.112
 4801SOL     OW15289   2.194   0.044  13.242
 4801SOL    HW115290   2.203   0.111  13.174
 4801SOL    HW215291   2.277   0.047  13.290
 4802SOL     OW15292   2.803   0.248  13.492
 4802SOL    HW115293   2.777   0.289  13.410
 4802SOL    HW215294   2.899   0.257  13.494
 4803SOL     OW15295   2.325   1.143  13.770
 4803SOL    HW115296   2.252   1.131  13.831
 4803SOL    HW215297   2.286   1.131  13.683
 4804SOL     OW15298   3.131   1.796  13.634
 4804SOL    HW115299   3.174   1.863  13.581
 4804SOL    HW215300   3.062   1.843  13.681
 4805SOL     OW15301   2.884   0.543  13.062
 4805SOL    HW115302   2.839   0.625  13.042
 4805SOL    HW215303   2.947   0.565  13.130
 4806SOL     OW15304   2.761   0.474  13.668
 4806SOL    HW115305   2.691   0.520  13.622
 4806SOL    HW215306   2.767   0.389  13.626
 4807SOL     OW15307   2.863   0.039  13.795
 4807SOL    HW115308   2.830   0.064  13.709
 4807SOL    HW215309   2.886   3.946  13.786
 4808SOL     OW15310   3.728   0.822  13.410
 4808SOL    HW115311   3.774   0.765  13.472
 4808SOL    HW215312   3.690   0.762  13.346
 4809SOL     OW15313   2.354   1.421  13.185
 4809SOL    HW115314   2.279   1.394  13.238
 4809SOL    HW215315   2.346   1.368  13.105
 4810SOL     OW15316   3.540   1.269  13.667
 4810SOL    HW115317   3.634   1.273  13.683
 4810SOL    HW215318   3.506   1.352  13.700
 4811SOL     OW15319   3.256   0.576  13.103
 4811SOL    HW115320   3.193   0.556  13.173
 4811SOL    HW215321   3.341   0.557  13.142
 4812SOL     OW15322   2.390   0.266  13.349
 4812SOL    HW115323   2.445   0.227  13.281
 4812SOL    HW215324   2.361   0.349  13.312
 4813SOL     OW15325   2.571   1.064  13.400
 4813SOL    HW115326   2.556   1.048  13.493
 4813SOL    HW215327   2.647   1.010  13.378
 4814SOL     OW15328   2.211   1.111  13.525
 4814SOL    HW115329   2.211   1.188  13.469
 4814SOL    HW215330   2.206   1.037  13.464
 4815SOL     OW15331   2.433   0.539  13.863
 4815SOL    HW115332   2.443   0.608  13.797
 4815SOL    HW215333   2.487   0.568   0.036
 4816SOL     OW15334   3.107   1.352  13.419
 4816SOL    HW115335   3.162   1.426  13.447
 4816SOL    HW215336   3.021   1.372  13.454
 4817SOL     OW15337   3.445   0.634  13.511
 4817SOL    HW115338   3.406   0.680  13.585
 4817SOL    HW215339   3.480   0.703  13.455
 4818SOL     OW15340   3.063   0.533  13.294
 4818SOL    HW115341   3.068   0.454  13.347
 4818SOL    HW215342   3.020   0.597  13.350
 4819SOL     OW15343   2.194   0.052  13.686
 4819SOL    HW115344   2.175   0.145  13.698
 4819SOL    HW215345   2.117   0.006  13.718
 4820SOL     OW15346   3.463   0.392  13.406
 4820SOL    HW115347   3.436   0.324  13.469
 4820SOL    HW215348   3.447   0.474  13.452
 4821SOL     OW15349   3.362   0.278  13.166
 4821SOL    HW115350   3.290   0.216  13.179
 4821SOL    HW215351   3.377   0.317  13.252
 4822SOL     OW15352   3.150   0.826  13.062
 4822SOL    HW115353   3.193   0.741  13.065
 4822SOL    HW215354   3.183   0.866  12.981
 4823SOL     OW15355   1.876   1.319  13.224
 4823SOL    HW115356   1.790   1.344  13.188
 4823SOL    HW215357   1.863   1.231  13.259
 4824SOL     OW15358   2.679   0.575  13.389
 4824SOL    HW115359   2.682   0.497  13.334
 4824SOL    HW215360   2.602   0.623  13.358
 4825SOL     OW15361   2.325   0.493  13.216
 4825SOL    HW115362   2.382   0.566  13.240
 4825SOL    HW215363   2.239   0.533  13.204
 4826SOL     OW15364   3.178   0.848  13.338
 4826SOL    HW115365   3.099   0.829  13.389
 4826SOL    HW215366   3.150   0.840  13.247
 4827SOL     OW15367   3.540   0.111  13.469
 4827SOL    HW115368   3.632   0.126  13.445
 4827SOL    HW215369   3.545   0.044  13.538
 4828SOL     OW15370   3.244   1.574  13.508
 4828SOL    HW115371   3.304   1.611  13.444
 4828SOL    HW215372   3.198   1.649  13.545
 4829SOL     OW15373   3.152   0.912  13.684
 4829SOL    HW115374   3.230   0.858  13.668
 4829SOL    HW215375   3.173   0.996  13.643
 4830SOL     OW15376   2.534   1.623  13.185
 4830SOL    HW115377   2.546   1.635  13.091
 4830SOL    HW215378   2.479   1.545  13.193
 4831SOL     OW15379   3.672   0.164   0.061
 4831SOL    HW115380   3.707   0.075   0.063
 4831SOL    HW215381   3.582   0.154   0.030
 4832SOL     OW15382   2.139   0.311  13.745
 4832SOL    HW115383   2.048   0.331  13.722
 4832SOL    HW215384   2.139   0.305  13.841
 4833SOL     OW15385   3.070   1.604  13.066
 4833SOL    HW115386   3.059   1.512  13.092
 4833SOL    HW215387   3.004   1.617  12.997
 4834SOL     OW15388   2.781   0.913  13.329
 4834SOL    HW115389   2.840   0.943  13.260
 4834SOL    HW215390   2.826   0.839  13.369
 4835SOL     OW15391   3.351   1.628  13.077
 4835SOL    HW115392   3.257   1.619  13.062
 4835SOL    HW215393   3.389   1.634  12.989
 4836SOL     OW15394   2.913   1.090  13.756
 4836SOL    HW115395   2.825   1.054  13.742
 4836SOL    HW215396   2.965   1.055  13.683
 4837SOL     OW15397   2.461   1.492  13.506
 4837SOL    HW115398   2.506   1.442  13.438
 4837SOL    HW215399   2.394   1.542  13.459
 4838SOL     OW15400   2.126   1.346  13.321
 4838SOL    HW115401   2.034   1.343  13.296
 4838SOL    HW215402   2.126   1.379  13.410
 4839SOL     OW15403   1.962   0.318  13.026
 4839SOL    HW115404   1.893   0.336  13.090
 4839SOL    HW215405   1.970   0.398  12.975
 4840SOL     OW15406   1.952   0.152  13.365
 4840SOL    HW115407   1.922   0.214  13.298
 4840SOL    HW215408   2.038   0.123  13.335
 4841SOL     OW15409   3.040   1.337  13.150
 4841SOL    HW115410   2.949   1.307  13.153
 4841SOL    HW215411   3.067   1.339  13.241
 4842SOL     OW15412   3.078   0.333  13.485
 4842SOL    HW115413   3.148   0.269  13.471
 4842SOL    HW215414   3.106   0.384  13.561
 4843SOL     OW15415   2.455   0.749  13.691
 4843SOL    HW115416   2.489   0.837  13.672
 4843SOL    HW215417   2.385   0.736  13.627
 4844SOL     OW15418   2.723   1.366  13.070
 4844SOL    HW115419   2.687   1.393  13.155
 4844SOL    HW215420   2.742   1.449  13.026
 4845SOL     OW15421   2.524   1.836   0.080
 4845SOL    HW115422   2.505   1.929   0.068
 4845SOL    HW215423   2.619   1.830   0.081
 4846SOL     OW15424   2.689   0.966  13.896
 4846SOL    HW115425   2.717   0.884   0.037
 4846SOL    HW215426   2.716   1.035   0.056
 4847SOL     OW15427   2.939   0.987  13.124
 4847SOL    HW115428   2.917   1.040  13.046
 4847SOL    HW215429   3.014   0.934  13.096
 4848SOL     OW15430   1.949   1.227  13.704
 4848SOL    HW115431   1.955   1.169  13.780
 4848SOL    HW215432   2.019   1.197  13.646
 4849SOL     OW15433   2.291   0.437  13.551
 4849SOL    HW115434   2.327   0.366  13.500
 4849SOL    HW215435   2.252   0.395  13.628
 4850SOL     OW15436   3.543   1.456   0.350
 4850SOL    HW115437   3.512   1.435   0.262
 4850SOL    HW215438   3.632   1.421   0.352
 4851SOL     OW15439   2.681   1.548  13.708
 4851SOL    HW115440   2.654   1.604  13.635
 4851SOL    HW215441   2.604   1.494  13.725
 4852SOL     OW15442   2.635   1.334  13.346
 4852SOL    HW115443   2.606   1.243  13.355
 4852SOL    HW215444   2.715   1.339  13.399
 4853SOL     OW15445   3.173   0.073  13.202
 4853SOL    HW115446   3.190   3.994  13.150
 4853SOL    HW215447   3.084   0.062  13.235
 4854SOL     OW15448   3.156   0.461  13.715
 4854SOL    HW115449   3.106   0.542  13.715
 4854SOL    HW215450   3.147   0.427  13.805
 4855SOL     OW15451   1.904   1.069  13.340
 4855SOL    HW115452   1.998   1.064  13.322
 4855SOL    HW215453   1.879   0.980  13.363
 4856SOL     OW15454   2.750   1.653  13.372
 4856SOL    HW115455   2.676   1.640  13.314
 4856SOL    HW215456   2.725   1.726  13.429
 4857SOL     OW15457   2.094   2.515   0.123
 4857SOL    HW115458   2.007   2.486   0.150
 4857SOL    HW215459   2.112   2.466   0.042
 4858SOL     OW15460   1.871   2.270   0.642
 4858SOL    HW115461   1.780   2.263   0.669
 4858SOL    HW215462   1.887   2.190   0.591
 4859SOL     OW15463   2.429   3.154   1.178
 4859SOL    HW115464   2.342   3.160   1.138
 4859SOL    HW215465   2.446   3.242   1.212
 4860SOL     OW15466   3.426   3.374   0.708
 4860SOL    HW115467   3.381   3.350   0.790
 4860SOL    HW215468   3.356   3.377   0.643
 4861SOL     OW15469   2.992   2.561   0.699
 4861SOL    HW115470   3.041   2.641   0.686
 4861SOL    HW215471   2.946   2.575   0.782
 4862SOL     OW15472   3.625   2.462   0.229
 4862SOL    HW115473   3.641   2.421   0.144
 4862SOL    HW215474   3.586   2.393   0.282
 4863SOL     OW15475   2.612   3.001   1.043
 4863SOL    HW115476   2.544   3.038   1.100
 4863SOL    HW215477   2.650   3.078   0.999
 4864SOL     OW15478   2.731   2.631   1.822
 4864SOL    HW115479   2.720   2.701   1.887
 4864SOL    HW215480   2.755   2.676   1.741
 4865SOL     OW15481   2.546   2.859   0.647
 4865SOL    HW115482   2.613   2.851   0.715
 4865SOL    HW215483   2.478   2.914   0.685
 4866SOL     OW15484   2.574   3.013   1.814
 4866SOL    HW115485   2.622   3.090   1.843
 4866SOL    HW215486   2.493   3.047   1.778
 4867SOL     OW15487   2.194   3.283   1.067
 4867SOL    HW115488   2.119   3.247   1.019
 4867SOL    HW215489   2.241   3.336   1.002
 4868SOL     OW15490   3.321   3.363   1.357
 4868SOL    HW115491   3.375   3.442   1.367
 4868SOL    HW215492   3.256   3.370   1.426
 4869SOL     OW15493   3.472   2.307   0.743
 4869SOL    HW115494   3.399   2.330   0.686
 4869SOL    HW215495   3.485   2.385   0.797
 4870SOL     OW15496   2.082   3.573   0.483
 4870SOL    HW115497   2.109   3.643   0.543
 4870SOL    HW215498   2.145   3.578   0.411
 4871SOL     OW15499   2.999   3.204   1.694
 4871SOL    HW115500   3.040   3.197   1.780
 4871SOL    HW215501   2.947   3.124   1.686
 4872SOL     OW15502   2.081   3.303   0.530
 4872SOL    HW115503   2.074   3.398   0.533
 4872SOL    HW215504   2.027   3.272   0.602
 4873SOL     OW15505   2.123   2.955   0.890
 4873SOL    HW115506   2.118   2.868   0.930
 4873SOL    HW215507   2.065   3.010   0.944
 4874SOL     OW15508   2.470   3.648   1.428
 4874SOL    HW115509   2.389   3.633   1.476
 4874SOL    HW215510   2.497   3.736   1.453
 4875SOL     OW15511   2.427   2.848   0.159
 4875SOL    HW115512   2.458   2.891   0.079
 4875SOL    HW215513   2.479   2.887   0.229
 4876SOL     OW15514   3.457   1.988   1.466
 4876SOL    HW115515   3.471   2.070   1.418
 4876SOL    HW215516   3.442   2.015   1.556
 4877SOL     OW15517   1.984   2.513   0.562
 4877SOL    HW115518   1.951   2.426   0.584
 4877SOL    HW215519   1.971   2.564   0.642
 4878SOL     OW15520   3.697   3.614   0.340
 4878SOL    HW115521   3.765   3.580   0.399
 4878SOL    HW215522   3.721   3.706   0.327
 4879SOL     OW15523   1.883   3.464   0.104
 4879SOL    HW115524   1.890   3.374   0.133
 4879SOL    HW215525   1.868   3.514   0.184
 4880SOL     OW15526   3.549   2.780   0.648
 4880SOL    HW115527   3.632   2.738   0.631
 4880SOL    HW215528   3.530   2.830   0.568
 4881SOL     OW15529   3.505   2.966   0.433
 4881SOL    HW115530   3.591   2.971   0.392
 4881SOL    HW215531   3.509   3.029   0.505
 4882SOL     OW15532   1.978   2.629   1.561
 4882SOL    HW115533   2.068   2.657   1.576
 4882SOL    HW215534   1.925   2.708   1.573
 4883SOL     OW15535   2.477   3.251   0.735
 4883SOL    HW115536   2.431   3.167   0.744
 4883SOL    HW215537   2.460   3.278   0.644
 4884SOL     OW15538   3.149   3.099   1.423
 4884SOL    HW115539   3.181   3.032   1.362
 4884SOL    HW215540   3.208   3.094   1.498
 4885SOL     OW15541   2.682   1.863   0.510
 4885SOL    HW115542   2.721   1.947   0.488
 4885SOL    HW215543   2.588   1.881   0.515
 4886SOL     OW15544   2.051   2.829   1.275
 4886SOL    HW115545   2.136   2.790   1.257
 4886SOL    HW215546   1.989   2.775   1.226
 4887SOL     OW15547   3.391   2.859   0.205
 4887SOL    HW115548   3.323   2.801   0.238
 4887SOL    HW215549   3.431   2.896   0.284
 4888SOL     OW15550   3.080   3.666   1.627
 4888SOL    HW115551   3.056   3.727   1.557
 4888SOL    HW215552   3.081   3.580   1.585
 4889SOL     OW15553   3.326   3.282   0.949
 4889SOL    HW115554   3.260   3.296   1.016
 4889SOL    HW215555   3.316   3.191   0.924
 4890SOL     OW15556   3.515   3.606   0.588
 4890SOL    HW115557   3.506   3.578   0.497
 4890SOL    HW215558   3.496   3.527   0.639
 4891SOL     OW15559   2.481   2.599   0.269
 4891SOL    HW115560   2.475   2.675   0.211
 4891SOL    HW215561   2.419   2.618   0.339
 4892SOL     OW15562   3.139   2.220   0.933
 4892SOL    HW115563   3.051   2.185   0.942
 4892SOL    HW215564   3.192   2.167   0.992
 4893SOL     OW15565   3.421   3.595   0.314
 4893SOL    HW115566   3.517   3.596   0.313
 4893SOL    HW215567   3.397   3.559   0.228
 4894SOL     OW15568   2.656   2.479   1.450
 4894SOL    HW115569   2.632   2.456   1.540
 4894SOL    HW215570   2.609   2.415   1.395
 4895SOL     OW15571   3.256   2.336   1.678
 4895SOL    HW115572   3.259   2.380   1.763
 4895SOL    HW215573   3.314   2.260   1.688
 4896SOL     OW15574   2.814   2.748   1.584
 4896SOL    HW115575   2.870   2.680   1.547
 4896SOL    HW215576   2.767   2.784   1.508
 4897SOL     OW15577   2.860   2.277   1.236
 4897SOL    HW115578   2.776   2.295   1.278
 4897SOL    HW215579   2.836   2.229   1.157
 4898SOL     OW15580   2.914   2.564   0.429
 4898SOL    HW115581   2.932   2.556   0.523
 4898SOL    HW215582   2.832   2.517   0.416
 4899SOL     OW15583   1.950   2.684   0.777
 4899SOL    HW115584   2.032   2.682   0.826
 4899SOL    HW215585   1.903   2.760   0.810
 4900SOL     OW15586   1.983   3.708   1.576
 4900SOL    HW115587   1.986   3.687   1.670
 4900SOL    HW215588   1.890   3.705   1.554
 4901SOL     OW15589   2.734   2.222   0.217
 4901SOL    HW115590   2.773   2.282   0.153
 4901SOL    HW215591   2.744   2.135   0.177
 4902SOL     OW15592   3.571   2.435   1.829
 4902SOL    HW115593   3.533   2.509   1.780
 4902SOL    HW215594   3.596   2.372   1.761
 4903SOL     OW15595   3.239   3.003   0.543
 4903SOL    HW115596   3.318   2.991   0.490
 4903SOL    HW215597   3.187   3.067   0.493
 4904SOL     OW15598   2.436   2.057   0.910
 4904SOL    HW115599   2.346   2.070   0.941
 4904SOL    HW215600   2.459   2.140   0.867
 4905SOL     OW15601   2.865   3.304   0.474
 4905SOL    HW115602   2.833   3.379   0.424
 4905SOL    HW215603   2.844   3.325   0.565
 4906SOL     OW15604   2.213   3.674   0.841
 4906SOL    HW115605   2.264   3.594   0.859
 4906SOL    HW215606   2.273   3.745   0.863
 4907SOL     OW15607   3.667   2.921   0.869
 4907SOL    HW115608   3.613   2.898   0.793
 4907SOL    HW215609   3.605   2.926   0.942
 4908SOL     OW15610   3.089   3.399   1.512
 4908SOL    HW115611   3.076   3.327   1.573
 4908SOL    HW215612   3.022   3.387   1.445
 4909SOL     OW15613   2.171   2.800   0.232
 4909SOL    HW115614   2.263   2.812   0.206
 4909SOL    HW215615   2.157   2.706   0.223
 4910SOL     OW15616   3.341   2.607   0.726
 4910SOL    HW115617   3.336   2.566   0.812
 4910SOL    HW215618   3.418   2.663   0.731
 4911SOL     OW15619   2.330   3.127   1.737
 4911SOL    HW115620   2.303   3.133   1.645
 4911SOL    HW215621   2.247   3.125   1.786
 4912SOL     OW15622   2.989   3.640   0.231
 4912SOL    HW115623   2.925   3.595   0.286
 4912SOL    HW215624   3.015   3.574   0.166
 4913SOL     OW15625   3.493   3.240   0.087
 4913SOL    HW115626   3.456   3.322   0.055
 4913SOL    HW215627   3.426   3.174   0.068
 4914SOL     OW15628   2.337   3.596   0.325
 4914SOL    HW115629   2.371   3.659   0.388
 4914SOL    HW215630   2.414   3.570   0.274
 4915SOL     OW15631   3.265   1.972   0.439
 4915SOL    HW115632   3.261   1.939   0.349
 4915SOL    HW215633   3.359   1.970   0.460
 4916SOL     OW15634   2.122   3.653   1.223
 4916SOL    HW115635   2.169   3.583   1.268
 4916SOL    HW215636   2.106   3.619   1.135
 4917SOL     OW15637   2.800   3.563   0.899
 4917SOL    HW115638   2.878   3.512   0.921
 4917SOL    HW215639   2.757   3.513   0.831
 4918SOL     OW15640   2.252   2.557   0.480
 4918SOL    HW115641   2.269   2.478   0.428
 4918SOL    HW215642   2.161   2.549   0.507
 4919SOL     OW15643   3.395   2.087   1.725
 4919SOL    HW115644   3.404   2.107   1.818
 4919SOL    HW215645   3.327   2.019   1.722
 4920SOL     OW15646   2.627   2.145   1.755
 4920SOL    HW115647   2.705   2.089   1.749
 4920SOL    HW215648   2.579   2.112   1.831
 4921SOL     OW15649   2.738   3.382   1.195
 4921SOL    HW115650   2.721   3.347   1.107
 4921SOL    HW215651   2.808   3.328   1.230
 4922SOL     OW15652   3.202   2.452   1.433
 4922SOL    HW115653   3.233   2.420   1.518
 4922SOL    HW215654   3.239   2.540   1.425
 4923SOL     OW15655   2.679   3.254   0.943
 4923SOL    HW115656   2.763   3.242   0.899
 4923SOL    HW215657   2.615   3.258   0.871
 4924SOL     OW15658   2.788   2.369   0.902
 4924SOL    HW115659   2.765   2.361   0.809
 4924SOL    HW215660   2.823   2.283   0.925
 4925SOL     OW15661   2.415   1.926   0.511
 4925SOL    HW115662   2.357   1.904   0.584
 4925SOL    HW215663   2.398   2.018   0.493
 4926SOL     OW15664   3.292   3.068   0.045
 4926SOL    HW115665   3.311   2.988   0.093
 4926SOL    HW215666   3.201   3.087   0.065
 4927SOL     OW15667   2.803   2.110   0.462
 4927SOL    HW115668   2.774   2.149   0.379
 4927SOL    HW215669   2.898   2.125   0.463
 4928SOL     OW15670   2.944   2.545   1.459
 4928SOL    HW115671   2.878   2.476   1.466
 4928SOL    HW215672   3.027   2.499   1.453
 4929SOL     OW15673   3.082   3.433   0.795
 4929SOL    HW115674   3.099   3.499   0.727
 4929SOL    HW215675   3.153   3.445   0.858
 4930SOL     OW15676   2.332   3.013   0.729
 4930SOL    HW115677   2.264   2.995   0.793
 4930SOL    HW215678   2.290   3.001   0.644
 4931SOL     OW15679   3.128   3.657   0.608
 4931SOL    HW115680   3.175   3.722   0.555
 4931SOL    HW215681   3.055   3.706   0.647
 4932SOL     OW15682   2.859   2.406   0.056
 4932SOL    HW115683   2.859   2.393  13.861
 4932SOL    HW215684   2.951   2.400   0.082
 4933SOL     OW15685   1.939   2.429   1.381
 4933SOL    HW115686   2.033   2.418   1.368
 4933SOL    HW215687   1.931   2.501   1.443
 4934SOL     OW15688   2.724   2.319   0.639
 4934SOL    HW115689   2.690   2.376   0.570
 4934SOL    HW215690   2.751   2.239   0.593
 4935SOL     OW15691   2.875   1.916   0.750
 4935SOL    HW115692   2.819   1.907   0.673
 4935SOL    HW215693   2.854   1.841   0.805
 4936SOL     OW15694   3.301   3.024   0.857
 4936SOL    HW115695   3.231   2.959   0.856
 4936SOL    HW215696   3.326   3.034   0.766
 4937SOL     OW15697   3.327   2.470   0.973
 4937SOL    HW115698   3.275   2.390   0.976
 4937SOL    HW215699   3.386   2.463   1.048
 4938SOL     OW15700   3.724   2.676   0.370
 4938SOL    HW115701   3.765   2.622   0.438
 4938SOL    HW215702   3.682   2.614   0.311
 4939SOL     OW15703   2.351   3.267   0.157
 4939SOL    HW115704   2.277   3.235   0.207
 4939SOL    HW215705   2.333   3.241   0.066
 4940SOL     OW15706   3.528   3.126   0.646
 4940SOL    HW115707   3.624   3.128   0.655
 4940SOL    HW215708   3.500   3.216   0.661
 4941SOL     OW15709   3.284   2.447   0.087
 4941SOL    HW115710   3.217   2.439   0.154
 4941SOL    HW215711   3.321   2.359   0.079
 4942SOL     OW15712   3.613   3.096   1.566
 4942SOL    HW115713   3.700   3.061   1.548
 4942SOL    HW215714   3.629   3.186   1.595
 4943SOL     OW15715   2.919   3.213   1.331
 4943SOL    HW115716   2.844   3.183   1.383
 4943SOL    HW215717   2.995   3.173   1.373
 4944SOL     OW15718   3.469   3.491   1.657
 4944SOL    HW115719   3.459   3.524   1.567
 4944SOL    HW215720   3.549   3.440   1.655
 4945SOL     OW15721   2.992   3.067   1.103
 4945SOL    HW115722   2.935   3.106   1.168
 4945SOL    HW215723   2.962   3.102   1.019
 4946SOL     OW15724   3.490   2.958   1.075
 4946SOL    HW115725   3.482   3.019   1.148
 4946SOL    HW215726   3.413   2.975   1.020
 4947SOL     OW15727   2.787   1.956   1.394
 4947SOL    HW115728   2.809   1.936   1.303
 4947SOL    HW215729   2.866   1.995   1.430
 4948SOL     OW15730   2.846   2.977   1.723
 4948SOL    HW115731   2.755   2.993   1.746
 4948SOL    HW215732   2.843   2.899   1.668
 4949SOL     OW15733   2.577   2.921   0.377
 4949SOL    HW115734   2.562   2.902   0.469
 4949SOL    HW215735   2.652   2.866   0.353
 4950SOL     OW15736   2.284   2.685   1.253
 4950SOL    HW115737   2.353   2.697   1.318
 4950SOL    HW215738   2.247   2.599   1.274
 4951SOL     OW15739   3.129   2.239   1.278
 4951SOL    HW115740   3.161   2.316   1.324
 4951SOL    HW215741   3.039   2.260   1.255
 4952SOL     OW15742   1.934   3.435   1.353
 4952SOL    HW115743   1.906   3.510   1.301
 4952SOL    HW215744   2.030   3.437   1.349
 4953SOL     OW15745   2.206   2.977   0.486
 4953SOL    HW115746   2.204   3.048   0.423
 4953SOL    HW215747   2.212   2.897   0.433
 4954SOL     OW15748   2.427   2.391   0.848
 4954SOL    HW115749   2.437   2.454   0.777
 4954SOL    HW215750   2.492   2.418   0.913
 4955SOL     OW15751   3.110   3.209   0.398
 4955SOL    HW115752   3.166   3.282   0.425
 4955SOL    HW215753   3.023   3.232   0.430
 4956SOL     OW15754   3.146   3.322   1.148
 4956SOL    HW115755   3.203   3.326   1.225
 4956SOL    HW215756   3.091   3.245   1.164
 4957SOL     OW15757   3.441   2.485   0.485
 4957SOL    HW115758   3.392   2.534   0.551
 4957SOL    HW215759   3.470   2.551   0.422
 4958SOL     OW15760   2.208   3.391   1.312
 4958SOL    HW115761   2.196   3.347   1.228
 4958SOL    HW215762   2.302   3.402   1.320
 4959SOL     OW15763   2.282   2.608   1.605
 4959SOL    HW115764   2.342   2.651   1.544
 4959SOL    HW215765   2.333   2.534   1.640
 4960SOL     OW15766   3.466   2.641   1.683
 4960SOL    HW115767   3.381   2.683   1.678
 4960SOL    HW215768   3.519   2.684   1.616
 4961SOL     OW15769   2.856   1.990   1.748
 4961SOL    HW115770   2.916   2.062   1.728
 4961SOL    HW215771   2.905   1.911   1.726
 4962SOL     OW15772   2.361   1.886   1.776
 4962SOL    HW115773   2.316   1.841   1.705
 4962SOL    HW215774   2.293   1.939   1.818
 4963SOL     OW15775   2.447   2.734   1.032
 4963SOL    HW115776   2.481   2.824   1.031
 4963SOL    HW215777   2.391   2.731   1.109
 4964SOL     OW15778   3.216   2.721   1.026
 4964SOL    HW115779   3.132   2.709   0.981
 4964SOL    HW215780   3.260   2.636   1.019
 4965SOL     OW15781   3.081   2.405   0.272
 4965SOL    HW115782   3.084   2.324   0.323
 4965SOL    HW215783   3.025   2.463   0.323
 4966SOL     OW15784   1.907   3.173   1.275
 4966SOL    HW115785   1.941   3.119   1.347
 4966SOL    HW215786   1.914   3.263   1.308
 4967SOL     OW15787   2.582   2.486   1.054
 4967SOL    HW115788   2.662   2.474   1.003
 4967SOL    HW215789   2.557   2.577   1.038
 4968SOL     OW15790   3.592   2.822   1.861
 4968SOL    HW115791   3.552   2.756   1.803
 4968SOL    HW215792   3.529   2.835   1.931
 4969SOL     OW15793   3.484   2.239   0.371
 4969SOL    HW115794   3.506   2.172   0.435
 4969SOL    HW215795   3.458   2.315   0.423
 4970SOL     OW15796   2.889   2.620   0.959
 4970SOL    HW115797   2.884   2.637   1.053
 4970SOL    HW215798   2.864   2.527   0.951
 4971SOL     OW15799   2.847   3.430   1.720
 4971SOL    HW115800   2.828   3.471   1.636
 4971SOL    HW215801   2.889   3.347   1.698
 4972SOL     OW15802   3.705   3.361   1.598
 4972SOL    HW115803   3.729   3.390   1.510
 4972SOL    HW215804   3.785   3.371   1.649
 4973SOL     OW15805   2.214   2.780   1.809
 4973SOL    HW115806   2.295   2.799   1.855
 4973SOL    HW215807   2.239   2.718   1.741
 4974SOL     OW15808   3.410   2.123   0.137
 4974SOL    HW115809   3.352   2.051   0.161
 4974SOL    HW215810   3.434   2.163   0.220
 4975SOL     OW15811   3.152   2.690   0.055
 4975SOL    HW115812   3.200   2.608   0.060
 4975SOL    HW215813   3.170   2.724  13.867
 4976SOL     OW15814   2.929   3.198   0.855
 4976SOL    HW115815   2.933   3.126   0.792
 4976SOL    HW215816   2.989   3.265   0.820
 4977SOL     OW15817   2.171   2.680   0.946
 4977SOL    HW115818   2.263   2.706   0.939
 4977SOL    HW215819   2.174   2.589   0.975
 4978SOL     OW15820   2.216   2.417   1.007
 4978SOL    HW115821   2.183   2.328   0.992
 4978SOL    HW215822   2.293   2.424   0.951
 4979SOL     OW15823   2.996   2.238   1.682
 4979SOL    HW115824   2.948   2.291   1.745
 4979SOL    HW215825   3.083   2.277   1.680
 4980SOL     OW15826   3.025   2.064   1.470
 4980SOL    HW115827   3.013   2.126   1.542
 4980SOL    HW215828   3.068   2.115   1.401
 4981SOL     OW15829   1.883   3.173   0.180
 4981SOL    HW115830   1.801   3.187   0.132
 4981SOL    HW215831   1.873   3.086   0.219
 4982SOL     OW15832   1.959   3.640   0.939
 4982SOL    HW115833   1.928   3.562   0.893
 4982SOL    HW215834   2.044   3.659   0.899
 4983SOL     OW15835   2.356   3.438   0.906
 4983SOL    HW115836   2.423   3.501   0.930
 4983SOL    HW215837   2.401   3.375   0.849
 4984SOL     OW15838   2.841   2.650   1.225
 4984SOL    HW115839   2.902   2.631   1.296
 4984SOL    HW215840   2.756   2.618   1.256
 4985SOL     OW15841   1.894   2.399   1.114
 4985SOL    HW115842   1.971   2.427   1.064
 4985SOL    HW215843   1.918   2.415   1.206
 4986SOL     OW15844   2.013   2.428   1.736
 4986SOL    HW115845   2.072   2.385   1.675
 4986SOL    HW215846   1.976   2.501   1.687
 4987SOL     OW15847   3.241   2.799   1.658
 4987SOL    HW115848   3.262   2.892   1.655
 4987SOL    HW215849   3.238   2.772   1.566
 4988SOL     OW15850   2.678   2.437   0.380
 4988SOL    HW115851   2.687   2.363   0.320
 4988SOL    HW215852   2.613   2.493   0.338
 4989SOL     OW15853   3.502   2.464   1.183
 4989SOL    HW115854   3.491   2.403   1.257
 4989SOL    HW215855   3.588   2.442   1.148
 4990SOL     OW15856   2.104   3.411   1.725
 4990SOL    HW115857   2.081   3.478   1.789
 4990SOL    HW215858   2.108   3.329   1.775
 4991SOL     OW15859   2.537   2.322   1.266
 4991SOL    HW115860   2.521   2.234   1.231
 4991SOL    HW215861   2.547   2.377   1.188
 4992SOL     OW15862   2.789   3.534   1.469
 4992SOL    HW115863   2.762   3.496   1.385
 4992SOL    HW215864   2.781   3.628   1.456
 4993SOL     OW15865   2.323   2.383   0.281
 4993SOL    HW115866   2.398   2.438   0.259
 4993SOL    HW215867   2.260   2.399   0.211
 4994SOL     OW15868   2.006   3.005   1.474
 4994SOL    HW115869   2.007   2.955   1.555
 4994SOL    HW215870   2.023   2.941   1.406
 4995SOL     OW15871   3.184   2.907   1.222
 4995SOL    HW115872   3.208   2.844   1.154
 4995SOL    HW215873   3.116   2.961   1.182
 4996SOL     OW15874   3.176   2.720   0.326
 4996SOL    HW115875   3.103   2.686   0.377
 4996SOL    HW215876   3.151   2.705   0.235
 4997SOL     OW15877   3.639   3.602   1.155
 4997SOL    HW115878   3.697   3.629   1.083
 4997SOL    HW215879   3.612   3.513   1.132
 4998SOL     OW15880   3.106   3.595   1.109
 4998SOL    HW115881   3.189   3.617   1.066
 4998SOL    HW215882   3.112   3.502   1.129
 4999SOL     OW15883   1.948   3.127   1.012
 4999SOL    HW115884   1.932   3.142   1.105
 4999SOL    HW215885   1.873   3.075   0.984
 5000SOL     OW15886   2.540   3.527   1.733
 5000SOL    HW115887   2.484   3.603   1.737
 5000SOL    HW215888   2.601   3.546   1.661
 5001SOL     OW15889   2.790   1.970   0.129
 5001SOL    HW115890   2.822   1.959   0.039
 5001SOL    HW215891   2.841   1.907   0.180
 5002SOL     OW15892   3.568   2.010   0.514
 5002SOL    HW115893   3.647   2.003   0.460
 5002SOL    HW215894   3.559   1.924   0.555
 5003SOL     OW15895   3.251   3.434   0.486
 5003SOL    HW115896   3.314   3.468   0.423
 5003SOL    HW215897   3.204   3.511   0.518
 5004SOL     OW15898   1.996   3.652   1.839
 5004SOL    HW115899   1.945   3.588   1.888
 5004SOL    HW215900   2.045   3.700   1.906
 5005SOL     OW15901   3.138   2.788   0.671
 5005SOL    HW115902   3.212   2.728   0.680
 5005SOL    HW215903   3.172   2.860   0.618
 5006SOL     OW15904   2.672   3.136   1.428
 5006SOL    HW115905   2.644   3.176   1.510
 5006SOL    HW215906   2.603   3.160   1.366
 5007SOL     OW15907   2.544   3.453   0.183
 5007SOL    HW115908   2.524   3.501   0.103
 5007SOL    HW215909   2.487   3.376   0.179
 5008SOL     OW15910   3.481   3.589   1.390
 5008SOL    HW115911   3.537   3.592   1.312
 5008SOL    HW215912   3.469   3.680   1.414
 5009SOL     OW15913   3.700   2.043   0.967
 5009SOL    HW115914   3.731   1.956   0.942
 5009SOL    HW215915   3.614   2.050   0.926
 5010SOL     OW15916   3.085   3.460   0.034
 5010SOL    HW115917   3.072   3.369   0.061
 5010SOL    HW215918   3.039   3.467  13.850
 5011SOL     OW15919   2.687   2.869   1.372
 5011SOL    HW115920   2.731   2.866   1.288
 5011SOL    HW215921   2.684   2.962   1.394
 5012SOL     OW15922   2.785   2.774   0.289
 5012SOL    HW115923   2.854   2.813   0.236
 5012SOL    HW215924   2.828   2.703   0.337
 5013SOL     OW15925   3.349   3.509   0.065
 5013SOL    HW115926   3.256   3.487   0.057
 5013SOL    HW215927   3.383   3.501  13.876
 5014SOL     OW15928   2.231   3.166   1.491
 5014SOL    HW115929   2.218   3.243   1.436
 5014SOL    HW215930   2.153   3.112   1.476
 5015SOL     OW15931   3.463   3.142   1.277
 5015SOL    HW115932   3.531   3.134   1.343
 5015SOL    HW215933   3.406   3.211   1.310
 5016SOL     OW15934   2.917   2.970   0.708
 5016SOL    HW115935   2.846   2.918   0.746
 5016SOL    HW215936   2.982   2.905   0.680
 5017SOL     OW15937   2.882   2.102   0.966
 5017SOL    HW115938   2.879   2.055   0.883
 5017SOL    HW215939   2.880   2.034   1.033
 5018SOL     OW15940   2.467   3.351   0.480
 5018SOL    HW115941   2.512   3.299   0.413
 5018SOL    HW215942   2.399   3.399   0.432
 5019SOL     OW15943   3.586   2.252   1.378
 5019SOL    HW115944   3.658   2.315   1.375
 5019SOL    HW215945   3.615   2.180   1.322
 5020SOL     OW15946   2.132   3.184   0.297
 5020SOL    HW115947   2.048   3.192   0.252
 5020SOL    HW215948   2.120   3.231   0.379
 5021SOL     OW15949   1.974   2.887   1.720
 5021SOL    HW115950   1.897   2.863   1.772
 5021SOL    HW215951   2.048   2.849   1.767
 5022SOL     OW15952   2.546   2.046   1.494
 5022SOL    HW115953   2.633   2.023   1.461
 5022SOL    HW215954   2.562   2.088   1.578
 5023SOL     OW15955   1.858   2.287   0.037
 5023SOL    HW115956   1.813   2.204   0.053
 5023SOL    HW215957   1.891   2.279  13.847
 5024SOL     OW15958   3.288   2.720   1.399
 5024SOL    HW115959   3.239   2.782   1.345
 5024SOL    HW215960   3.377   2.722   1.362
 5025SOL     OW15961   3.048   3.207   0.122
 5025SOL    HW115962   2.954   3.196   0.111
 5025SOL    HW215963   3.063   3.195   0.216
 5026SOL     OW15964   2.484   2.693   1.434
 5026SOL    HW115965   2.540   2.770   1.420
 5026SOL    HW215966   2.546   2.620   1.443
 5027SOL     OW15967   3.347   3.644   0.983
 5027SOL    HW115968   3.371   3.696   0.906
 5027SOL    HW215969   3.431   3.613   1.017
 5028SOL     OW15970   2.574   2.424   1.702
 5028SOL    HW115971   2.620   2.483   1.762
 5028SOL    HW215972   2.596   2.337   1.733
 5029SOL     OW15973   3.335   3.060   1.630
 5029SOL    HW115974   3.324   3.074   1.724
 5029SOL    HW215975   3.428   3.075   1.614
 5030SOL     OW15976   2.237   3.602   1.565
 5030SOL    HW115977   2.153   3.644   1.549
 5030SOL    HW215978   2.215   3.519   1.606
 5031SOL     OW15979   3.527   2.742   1.259
 5031SOL    HW115980   3.525   2.657   1.215
 5031SOL    HW215981   3.520   2.806   1.187
 5032SOL     OW15982   3.080   2.182   0.455
 5032SOL    HW115983   3.143   2.111   0.448
 5032SOL    HW215984   3.107   2.231   0.532
 5033SOL     OW15985   2.448   2.596   0.670
 5033SOL    HW115986   2.487   2.683   0.655
 5033SOL    HW215987   2.380   2.590   0.603
 5034SOL     OW15988   3.621   2.228   1.650
 5034SOL    HW115989   3.604   2.241   1.556
 5034SOL    HW215990   3.551   2.169   1.679
 5035SOL     OW15991   3.618   2.790   1.513
 5035SOL    HW115992   3.609   2.884   1.531
 5035SOL    HW215993   3.594   2.781   1.421
 5036SOL     OW15994   2.770   3.260   0.066
 5036SOL    HW115995   2.702   3.246   0.131
 5036SOL    HW215996   2.724   3.265  13.882
 5037SOL     OW15997   2.523   3.651   0.939
 5037SOL    HW115998   2.501   3.742   0.918
 5037SOL    HW215999   2.618   3.647   0.934
 5038SOL     OW16000   2.730   2.830   0.854
 5038SOL    HW116001   2.780   2.759   0.893
 5038SOL    HW216002   2.694   2.878   0.929
 5039SOL     OW16003   2.960   2.873   0.109
 5039SOL    HW116004   2.950   2.920   0.026
 5039SOL    HW216005   3.033   2.814   0.095
 5040SOL     OW16006   3.713   3.415   0.840
 5040SOL    HW116007   3.633   3.399   0.789
 5040SOL    HW216008   3.710   3.350   0.910
 5041SOL     OW16009   2.088   3.163   1.856
 5041SOL    HW116010   2.020   3.103   1.826
 5041SOL    HW216011   2.070   3.176   1.949
 5042SOL     OW16012   1.946   3.091   0.666
 5042SOL    HW116013   1.956   3.044   0.749
 5042SOL    HW216014   2.018   3.058   0.612
 5043SOL     OW16015   2.545   3.266   1.630
 5043SOL    HW116016   2.465   3.224   1.661
 5043SOL    HW216017   2.542   3.355   1.667
 5044SOL     OW16018   3.675   2.040   1.238
 5044SOL    HW116019   3.666   1.945   1.241
 5044SOL    HW216020   3.689   2.060   1.146
 5045SOL     OW16021   3.558   3.351   1.095
 5045SOL    HW116022   3.479   3.328   1.047
 5045SOL    HW216023   3.570   3.281   1.159
 5046SOL     OW16024   2.203   2.427   1.298
 5046SOL    HW116025   2.256   2.363   1.345
 5046SOL    HW216026   2.228   2.416   1.206
 5047SOL     OW16027   2.691   3.441   0.677
 5047SOL    HW116028   2.674   3.496   0.600
 5047SOL    HW216029   2.616   3.382   0.680
 5048SOL     OW16030   3.293   2.090   1.116
 5048SOL    HW116031   3.313   2.006   1.158
 5048SOL    HW216032   3.243   2.138   1.182
 5049SOL     OW16033   2.872   1.880   1.139
 5049SOL    HW116034   2.817   1.813   1.100
 5049SOL    HW216035   2.960   1.841   1.141
 5050SOL     OW16036   2.637   3.185   0.320
 5050SOL    HW116037   2.608   3.095   0.338
 5050SOL    HW216038   2.719   3.193   0.368
 5051SOL     OW16039   2.482   3.415   1.285
 5051SOL    HW116040   2.483   3.496   1.335
 5051SOL    HW216041   2.570   3.409   1.248
 5052SOL     OW16042   3.211   1.926   0.164
 5052SOL    HW116043   3.246   1.863   0.101
 5052SOL    HW216044   3.128   1.888   0.193
 5053SOL     OW16045   3.156   2.324   0.679
 5053SOL    HW116046   3.104   2.404   0.686
 5053SOL    HW216047   3.153   2.285   0.766
 5054SOL     OW16048   3.444   2.060   0.878
 5054SOL    HW116049   3.388   2.084   0.952
 5054SOL    HW216050   3.445   2.139   0.823
 5055SOL     OW16051   1.901   2.929   0.310
 5055SOL    HW116052   1.997   2.926   0.308
 5055SOL    HW216053   1.874   2.839   0.329
 5056SOL     OW16054   2.757   3.520   0.345
 5056SOL    HW116055   2.684   3.491   0.291
 5056SOL    HW216056   2.723   3.595   0.393
 5057SOL     OW16057   2.096   2.493   1.992
 5057SOL    HW116058   2.012   2.481   2.035
 5057SOL    HW216059   2.078   2.480   1.899
 5058SOL     OW16060   1.872   2.266   2.500
 5058SOL    HW116061   1.781   2.265   2.531
 5058SOL    HW216062   1.882   2.185   2.451
 5059SOL     OW16063   2.429   3.154   3.040
 5059SOL    HW116064   2.342   3.159   3.000
 5059SOL    HW216065   2.445   3.242   3.074
 5060SOL     OW16066   3.425   3.374   2.571
 5060SOL    HW116067   3.383   3.352   2.654
 5060SOL    HW216068   3.354   3.377   2.507
 5061SOL     OW16069   2.992   2.561   2.560
 5061SOL    HW116070   3.041   2.641   2.546
 5061SOL    HW216071   2.946   2.575   2.643
 5062SOL     OW16072   3.629   2.468   2.091
 5062SOL    HW116073   3.609   2.460   1.998
 5062SOL    HW216074   3.595   2.388   2.130
 5063SOL     OW16075   2.613   3.002   2.905
 5063SOL    HW116076   2.545   3.038   2.963
 5063SOL    HW216077   2.650   3.078   2.862
 5064SOL     OW16078   2.731   2.631   3.684
 5064SOL    HW116079   2.721   2.702   3.748
 5064SOL    HW216080   2.755   2.675   3.603
 5065SOL     OW16081   2.549   2.863   2.507
 5065SOL    HW116082   2.614   2.854   2.577
 5065SOL    HW216083   2.480   2.916   2.547
 5066SOL     OW16084   2.575   3.013   3.676
 5066SOL    HW116085   2.622   3.091   3.705
 5066SOL    HW216086   2.493   3.047   3.639
 5067SOL     OW16087   2.193   3.283   2.929
 5067SOL    HW116088   2.119   3.246   2.880
 5067SOL    HW216089   2.240   3.336   2.864
 5068SOL     OW16090   3.321   3.363   3.219
 5068SOL    HW116091   3.375   3.441   3.229
 5068SOL    HW216092   3.255   3.370   3.288
 5069SOL     OW16093   3.472   2.308   2.606
 5069SOL    HW116094   3.399   2.329   2.547
 5069SOL    HW216095   3.484   2.386   2.659
 5070SOL     OW16096   2.083   3.578   2.341
 5070SOL    HW116097   2.114   3.638   2.409
 5070SOL    HW216098   2.155   3.575   2.277
 5071SOL     OW16099   2.999   3.204   3.556
 5071SOL    HW116100   3.040   3.197   3.642
 5071SOL    HW216101   2.947   3.124   3.548
 5072SOL     OW16102   2.091   3.304   2.397
 5072SOL    HW116103   2.074   3.398   2.401
 5072SOL    HW216104   2.033   3.266   2.463
 5073SOL     OW16105   2.123   2.956   2.753
 5073SOL    HW116106   2.118   2.868   2.792
 5073SOL    HW216107   2.065   3.009   2.807
 5074SOL     OW16108   2.470   3.648   3.290
 5074SOL    HW116109   2.389   3.633   3.338
 5074SOL    HW216110   2.497   3.736   3.315
 5075SOL     OW16111   2.445   2.847   1.997
 5075SOL    HW116112   2.492   2.894   1.929
 5075SOL    HW216113   2.483   2.879   2.079
 5076SOL     OW16114   3.457   1.988   3.328
 5076SOL    HW116115   3.470   2.069   3.280
 5076SOL    HW216116   3.442   2.015   3.418
 5077SOL     OW16117   1.984   2.513   2.424
 5077SOL    HW116118   1.951   2.426   2.445
 5077SOL    HW216119   1.972   2.564   2.505
 5078SOL     OW16120   3.700   3.613   2.203
 5078SOL    HW116121   3.771   3.588   2.263
 5078SOL    HW216122   3.719   3.704   2.180
 5079SOL     OW16123   1.892   3.453   1.984
 5079SOL    HW116124   1.876   3.361   2.005
 5079SOL    HW216125   1.871   3.500   2.064
 5080SOL     OW16126   3.550   2.782   2.508
 5080SOL    HW116127   3.633   2.738   2.490
 5080SOL    HW216128   3.531   2.830   2.428
 5081SOL     OW16129   3.503   2.966   2.293
 5081SOL    HW116130   3.588   2.971   2.250
 5081SOL    HW216131   3.510   3.029   2.365
 5082SOL     OW16132   1.978   2.628   3.424
 5082SOL    HW116133   2.068   2.657   3.438
 5082SOL    HW216134   1.925   2.707   3.434
 5083SOL     OW16135   2.477   3.251   2.597
 5083SOL    HW116136   2.432   3.167   2.606
 5083SOL    HW216137   2.460   3.278   2.506
 5084SOL     OW16138   3.149   3.099   3.285
 5084SOL    HW116139   3.181   3.032   3.224
 5084SOL    HW216140   3.208   3.094   3.360
 5085SOL     OW16141   2.688   1.862   2.373
 5085SOL    HW116142   2.726   1.947   2.350
 5085SOL    HW216143   2.594   1.879   2.378
 5086SOL     OW16144   2.051   2.829   3.137
 5086SOL    HW116145   2.136   2.789   3.120
 5086SOL    HW216146   1.989   2.776   3.087
 5087SOL     OW16147   3.390   2.858   2.062
 5087SOL    HW116148   3.321   2.801   2.096
 5087SOL    HW216149   3.432   2.893   2.141
 5088SOL     OW16150   3.080   3.666   3.489
 5088SOL    HW116151   3.056   3.727   3.419
 5088SOL    HW216152   3.081   3.580   3.447
 5089SOL     OW16153   3.327   3.282   2.811
 5089SOL    HW116154   3.261   3.297   2.878
 5089SOL    HW216155   3.316   3.191   2.785
 5090SOL     OW16156   3.509   3.606   2.442
 5090SOL    HW116157   3.501   3.572   2.353
 5090SOL    HW216158   3.492   3.531   2.499
 5091SOL     OW16159   2.465   2.598   2.135
 5091SOL    HW116160   2.468   2.677   2.081
 5091SOL    HW216161   2.398   2.616   2.200
 5092SOL     OW16162   3.139   2.220   2.796
 5092SOL    HW116163   3.051   2.185   2.804
 5092SOL    HW216164   3.192   2.167   2.854
 5093SOL     OW16165   3.436   3.538   2.170
 5093SOL    HW116166   3.528   3.562   2.166
 5093SOL    HW216167   3.412   3.518   2.080
 5094SOL     OW16168   2.656   2.479   3.312
 5094SOL    HW116169   2.632   2.456   3.402
 5094SOL    HW216170   2.610   2.415   3.257
 5095SOL     OW16171   3.256   2.336   3.540
 5095SOL    HW116172   3.259   2.380   3.625
 5095SOL    HW216173   3.314   2.260   3.550
 5096SOL     OW16174   2.814   2.748   3.446
 5096SOL    HW116175   2.870   2.680   3.409
 5096SOL    HW216176   2.767   2.784   3.370
 5097SOL     OW16177   2.860   2.277   3.098
 5097SOL    HW116178   2.776   2.295   3.140
 5097SOL    HW216179   2.837   2.229   3.018
 5098SOL     OW16180   2.914   2.561   2.287
 5098SOL    HW116181   2.931   2.554   2.381
 5098SOL    HW216182   2.831   2.514   2.275
 5099SOL     OW16183   1.950   2.682   2.640
 5099SOL    HW116184   2.032   2.682   2.689
 5099SOL    HW216185   1.904   2.760   2.672
 5100SOL     OW16186   1.983   3.707   3.438
 5100SOL    HW116187   1.986   3.687   3.532
 5100SOL    HW216188   1.890   3.706   3.416
 5101SOL     OW16189   2.759   2.215   2.063
 5101SOL    HW116190   2.803   2.268   1.997
 5101SOL    HW216191   2.734   2.135   2.016
 5102SOL     OW16192   3.571   2.436   3.691
 5102SOL    HW116193   3.533   2.509   3.642
 5102SOL    HW216194   3.596   2.372   3.623
 5103SOL     OW16195   3.239   3.003   2.402
 5103SOL    HW116196   3.319   2.991   2.351
 5103SOL    HW216197   3.187   3.066   2.351
 5104SOL     OW16198   2.439   2.059   2.768
 5104SOL    HW116199   2.350   2.070   2.800
 5104SOL    HW216200   2.461   2.142   2.727
 5105SOL     OW16201   2.865   3.307   2.332
 5105SOL    HW116202   2.829   3.381   2.284
 5105SOL    HW216203   2.845   3.326   2.424
 5106SOL     OW16204   2.213   3.673   2.701
 5106SOL    HW116205   2.263   3.594   2.720
 5106SOL    HW216206   2.272   3.745   2.724
 5107SOL     OW16207   3.667   2.923   2.729
 5107SOL    HW116208   3.614   2.897   2.654
 5107SOL    HW216209   3.605   2.926   2.802
 5108SOL     OW16210   3.089   3.399   3.374
 5108SOL    HW116211   3.076   3.327   3.435
 5108SOL    HW216212   3.022   3.386   3.307
 5109SOL     OW16213   2.179   2.821   2.114
 5109SOL    HW116214   2.260   2.840   2.067
 5109SOL    HW216215   2.150   2.737   2.077
 5110SOL     OW16216   3.341   2.608   2.588
 5110SOL    HW116217   3.336   2.566   2.673
 5110SOL    HW216218   3.420   2.663   2.593
 5111SOL     OW16219   2.330   3.127   3.599
 5111SOL    HW116220   2.303   3.133   3.507
 5111SOL    HW216221   2.247   3.125   3.648
 5112SOL     OW16222   2.976   3.643   2.084
 5112SOL    HW116223   2.912   3.597   2.138
 5112SOL    HW216224   3.006   3.577   2.021
 5113SOL     OW16225   3.486   3.247   1.951
 5113SOL    HW116226   3.443   3.330   1.933
 5113SOL    HW216227   3.420   3.181   1.931
 5114SOL     OW16228   2.329   3.597   2.187
 5114SOL    HW116229   2.367   3.662   2.246
 5114SOL    HW216230   2.402   3.572   2.130
 5115SOL     OW16231   3.263   1.969   2.298
 5115SOL    HW116232   3.255   1.944   2.206
 5115SOL    HW216233   3.357   1.975   2.314
 5116SOL     OW16234   2.122   3.653   3.085
 5116SOL    HW116235   2.169   3.584   3.131
 5116SOL    HW216236   2.107   3.619   2.997
 5117SOL     OW16237   2.800   3.563   2.761
 5117SOL    HW116238   2.877   3.511   2.783
 5117SOL    HW216239   2.756   3.513   2.692
 5118SOL     OW16240   2.255   2.573   2.340
 5118SOL    HW116241   2.284   2.483   2.352
 5118SOL    HW216242   2.160   2.570   2.356
 5119SOL     OW16243   3.395   2.087   3.587
 5119SOL    HW116244   3.404   2.107   3.680
 5119SOL    HW216245   3.327   2.019   3.584
 5120SOL     OW16246   2.535   1.989   1.965
 5120SOL    HW116247   2.579   1.910   1.996
 5120SOL    HW216248   2.467   1.957   1.906
 5121SOL     OW16249   2.628   2.145   3.616
 5121SOL    HW116250   2.705   2.089   3.611
 5121SOL    HW216251   2.579   2.112   3.692
 5122SOL     OW16252   2.738   3.382   3.057
 5122SOL    HW116253   2.721   3.347   2.969
 5122SOL    HW216254   2.808   3.328   3.092
 5123SOL     OW16255   3.202   2.452   3.295
 5123SOL    HW116256   3.233   2.420   3.380
 5123SOL    HW216257   3.239   2.539   3.287
 5124SOL     OW16258   2.679   3.254   2.805
 5124SOL    HW116259   2.763   3.242   2.761
 5124SOL    HW216260   2.615   3.258   2.733
 5125SOL     OW16261   2.789   2.369   2.764
 5125SOL    HW116262   2.766   2.362   2.672
 5125SOL    HW216263   2.823   2.283   2.788
 5126SOL     OW16264   2.423   1.920   2.371
 5126SOL    HW116265   2.367   1.905   2.447
 5126SOL    HW216266   2.413   2.013   2.352
 5127SOL     OW16267   3.290   3.062   1.902
 5127SOL    HW116268   3.320   2.986   1.952
 5127SOL    HW216269   3.204   3.082   1.940
 5128SOL     OW16270   2.802   2.112   2.320
 5128SOL    HW116271   2.780   2.149   2.235
 5128SOL    HW216272   2.897   2.124   2.327
 5129SOL     OW16273   2.944   2.545   3.321
 5129SOL    HW116274   2.878   2.476   3.328
 5129SOL    HW216275   3.027   2.498   3.315
 5130SOL     OW16276   3.083   3.433   2.656
 5130SOL    HW116277   3.099   3.500   2.590
 5130SOL    HW216278   3.153   3.445   2.720
 5131SOL     OW16279   2.333   3.013   2.592
 5131SOL    HW116280   2.264   2.995   2.656
 5131SOL    HW216281   2.291   2.998   2.507
 5132SOL     OW16282   3.128   3.657   2.470
 5132SOL    HW116283   3.174   3.721   2.417
 5132SOL    HW216284   3.055   3.705   2.509
 5133SOL     OW16285   2.887   2.401   1.885
 5133SOL    HW116286   2.843   2.484   1.867
 5133SOL    HW216287   2.950   2.422   1.953
 5134SOL     OW16288   1.938   2.428   3.243
 5134SOL    HW116289   2.032   2.417   3.230
 5134SOL    HW216290   1.931   2.500   3.306
 5135SOL     OW16291   2.726   2.320   2.501
 5135SOL    HW116292   2.684   2.376   2.436
 5135SOL    HW216293   2.752   2.241   2.452
 5136SOL     OW16294   2.875   1.916   2.612
 5136SOL    HW116295   2.820   1.906   2.535
 5136SOL    HW216296   2.854   1.841   2.667
 5137SOL     OW16297   3.301   3.024   2.719
 5137SOL    HW116298   3.231   2.959   2.718
 5137SOL    HW216299   3.327   3.033   2.627
 5138SOL     OW16300   3.327   2.470   2.835
 5138SOL    HW116301   3.275   2.390   2.838
 5138SOL    HW216302   3.386   2.463   2.910
 5139SOL     OW16303   3.723   2.678   2.237
 5139SOL    HW116304   3.767   2.623   2.301
 5139SOL    HW216305   3.686   2.617   2.173
 5140SOL     OW16306   2.352   3.281   2.016
 5140SOL    HW116307   2.277   3.253   2.068
 5140SOL    HW216308   2.340   3.237   1.931
 5141SOL     OW16309   3.529   3.127   2.506
 5141SOL    HW116310   3.624   3.129   2.515
 5141SOL    HW216311   3.501   3.216   2.527
 5142SOL     OW16312   3.256   2.434   1.934
 5142SOL    HW116313   3.194   2.414   2.004
 5142SOL    HW216314   3.340   2.401   1.967
 5143SOL     OW16315   3.613   3.097   3.428
 5143SOL    HW116316   3.700   3.061   3.410
 5143SOL    HW216317   3.629   3.186   3.457
 5144SOL     OW16318   2.919   3.214   3.194
 5144SOL    HW116319   2.844   3.184   3.245
 5144SOL    HW216320   2.995   3.173   3.236
 5145SOL     OW16321   3.469   3.491   3.519
 5145SOL    HW116322   3.459   3.524   3.429
 5145SOL    HW216323   3.549   3.440   3.517
 5146SOL     OW16324   2.993   3.068   2.965
 5146SOL    HW116325   2.934   3.106   3.030
 5146SOL    HW216326   2.962   3.102   2.882
 5147SOL     OW16327   3.490   2.958   2.937
 5147SOL    HW116328   3.482   3.019   3.010
 5147SOL    HW216329   3.413   2.974   2.882
 5148SOL     OW16330   2.787   1.955   3.256
 5148SOL    HW116331   2.809   1.936   3.165
 5148SOL    HW216332   2.867   1.994   3.292
 5149SOL     OW16333   2.846   2.977   3.585
 5149SOL    HW116334   2.755   2.993   3.607
 5149SOL    HW216335   2.844   2.899   3.530
 5150SOL     OW16336   2.571   2.924   2.232
 5150SOL    HW116337   2.557   2.905   2.325
 5150SOL    HW216338   2.646   2.870   2.209
 5151SOL     OW16339   2.283   2.683   3.116
 5151SOL    HW116340   2.353   2.694   3.180
 5151SOL    HW216341   2.246   2.597   3.135
 5152SOL     OW16342   3.129   2.238   3.140
 5152SOL    HW116343   3.161   2.316   3.186
 5152SOL    HW216344   3.039   2.260   3.117
 5153SOL     OW16345   1.934   3.435   3.215
 5153SOL    HW116346   1.906   3.510   3.164
 5153SOL    HW216347   2.030   3.437   3.211
 5154SOL     OW16348   2.206   2.975   2.352
 5154SOL    HW116349   2.211   3.048   2.290
 5154SOL    HW216350   2.203   2.897   2.296
 5155SOL     OW16351   2.427   2.390   2.711
 5155SOL    HW116352   2.438   2.449   2.637
 5155SOL    HW216353   2.493   2.419   2.774
 5156SOL     OW16354   3.109   3.211   2.251
 5156SOL    HW116355   3.166   3.282   2.283
 5156SOL    HW216356   3.023   3.232   2.285
 5157SOL     OW16357   3.146   3.322   3.010
 5157SOL    HW116358   3.203   3.326   3.087
 5157SOL    HW216359   3.091   3.245   3.024
 5158SOL     OW16360   3.440   2.482   2.344
 5158SOL    HW116361   3.392   2.534   2.408
 5158SOL    HW216362   3.483   2.546   2.287
 5159SOL     OW16363   2.208   3.391   3.174
 5159SOL    HW116364   2.196   3.347   3.090
 5159SOL    HW216365   2.302   3.402   3.182
 5160SOL     OW16366   2.283   2.607   3.468
 5160SOL    HW116367   2.341   2.651   3.406
 5160SOL    HW216368   2.334   2.534   3.502
 5161SOL     OW16369   3.466   2.641   3.545
 5161SOL    HW116370   3.381   2.683   3.540
 5161SOL    HW216371   3.519   2.684   3.478
 5162SOL     OW16372   2.856   1.990   3.609
 5162SOL    HW116373   2.916   2.062   3.590
 5162SOL    HW216374   2.905   1.911   3.588
 5163SOL     OW16375   2.361   1.889   3.637
 5163SOL    HW116376   2.314   1.842   3.567
 5163SOL    HW216377   2.294   1.945   3.677
 5164SOL     OW16378   2.448   2.734   2.895
 5164SOL    HW116379   2.480   2.824   2.893
 5164SOL    HW216380   2.390   2.730   2.972
 5165SOL     OW16381   3.216   2.721   2.888
 5165SOL    HW116382   3.132   2.709   2.843
 5165SOL    HW216383   3.260   2.636   2.881
 5166SOL     OW16384   3.064   2.390   2.126
 5166SOL    HW116385   3.072   2.311   2.180
 5166SOL    HW216386   3.021   2.454   2.183
 5167SOL     OW16387   1.907   3.173   3.137
 5167SOL    HW116388   1.941   3.119   3.209
 5167SOL    HW216389   1.914   3.263   3.170
 5168SOL     OW16390   2.583   2.487   2.917
 5168SOL    HW116391   2.663   2.475   2.865
 5168SOL    HW216392   2.557   2.578   2.900
 5169SOL     OW16393   3.592   2.822   3.723
 5169SOL    HW116394   3.552   2.757   3.665
 5169SOL    HW216395   3.529   2.835   3.793
 5170SOL     OW16396   3.482   2.238   2.226
 5170SOL    HW116397   3.508   2.173   2.291
 5170SOL    HW216398   3.458   2.315   2.278
 5171SOL     OW16399   2.889   2.620   2.821
 5171SOL    HW116400   2.884   2.637   2.915
 5171SOL    HW216401   2.864   2.528   2.812
 5172SOL     OW16402   2.847   3.430   3.582
 5172SOL    HW116403   2.828   3.471   3.498
 5172SOL    HW216404   2.889   3.347   3.560
 5173SOL     OW16405   3.705   3.361   3.460
 5173SOL    HW116406   3.729   3.390   3.372
 5173SOL    HW216407   3.785   3.371   3.511
 5174SOL     OW16408   2.214   2.779   3.672
 5174SOL    HW116409   2.296   2.800   3.716
 5174SOL    HW216410   2.239   2.717   3.603
 5175SOL     OW16411   3.391   2.134   1.989
 5175SOL    HW116412   3.326   2.069   2.015
 5175SOL    HW216413   3.424   2.170   2.072
 5176SOL     OW16414   3.151   2.687   1.891
 5176SOL    HW116415   3.194   2.602   1.896
 5176SOL    HW216416   3.184   2.726   1.811
 5177SOL     OW16417   2.929   3.199   2.717
 5177SOL    HW116418   2.933   3.126   2.655
 5177SOL    HW216419   2.989   3.264   2.682
 5178SOL     OW16420   2.171   2.682   2.807
 5178SOL    HW116421   2.264   2.707   2.800
 5178SOL    HW216422   2.174   2.590   2.835
 5179SOL     OW16423   2.211   2.417   2.862
 5179SOL    HW116424   2.175   2.330   2.843
 5179SOL    HW216425   2.290   2.423   2.809
 5180SOL     OW16426   2.996   2.238   3.544
 5180SOL    HW116427   2.948   2.291   3.607
 5180SOL    HW216428   3.083   2.277   3.541
 5181SOL     OW16429   3.026   2.064   3.332
 5181SOL    HW116430   3.013   2.126   3.404
 5181SOL    HW216431   3.068   2.115   3.263
 5182SOL     OW16432   1.867   3.181   2.057
 5182SOL    HW116433   1.780   3.196   2.020
 5182SOL    HW216434   1.864   3.091   2.091
 5183SOL     OW16435   1.959   3.641   2.800
 5183SOL    HW116436   1.928   3.562   2.755
 5183SOL    HW216437   2.044   3.659   2.760
 5184SOL     OW16438   2.356   3.438   2.767
 5184SOL    HW116439   2.423   3.501   2.792
 5184SOL    HW216440   2.401   3.375   2.710
 5185SOL     OW16441   2.841   2.651   3.087
 5185SOL    HW116442   2.901   2.631   3.159
 5185SOL    HW216443   2.756   2.617   3.117
 5186SOL     OW16444   1.896   2.399   2.976
 5186SOL    HW116445   1.972   2.428   2.927
 5186SOL    HW216446   1.918   2.414   3.068
 5187SOL     OW16447   2.016   2.432   3.604
 5187SOL    HW116448   2.081   2.392   3.545
 5187SOL    HW216449   1.977   2.502   3.552
 5188SOL     OW16450   3.241   2.799   3.520
 5188SOL    HW116451   3.262   2.892   3.517
 5188SOL    HW216452   3.237   2.772   3.428
 5189SOL     OW16453   2.678   2.432   2.229
 5189SOL    HW116454   2.686   2.360   2.168
 5189SOL    HW216455   2.607   2.486   2.195
 5190SOL     OW16456   3.502   2.464   3.046
 5190SOL    HW116457   3.491   2.403   3.119
 5190SOL    HW216458   3.588   2.442   3.010
 5191SOL     OW16459   2.104   3.411   3.587
 5191SOL    HW116460   2.081   3.478   3.651
 5191SOL    HW216461   2.108   3.329   3.637
 5192SOL     OW16462   2.539   2.322   3.127
 5192SOL    HW116463   2.521   2.234   3.092
 5192SOL    HW216464   2.548   2.377   3.050
 5193SOL     OW16465   2.789   3.534   3.331
 5193SOL    HW116466   2.763   3.496   3.247
 5193SOL    HW216467   2.781   3.628   3.318
 5194SOL     OW16468   2.338   2.367   2.090
 5194SOL    HW116469   2.397   2.443   2.091
 5194SOL    HW216470   2.258   2.399   2.050
 5195SOL     OW16471   2.006   3.005   3.336
 5195SOL    HW116472   2.007   2.955   3.417
 5195SOL    HW216473   2.023   2.940   3.268
 5196SOL     OW16474   3.184   2.907   3.084
 5196SOL    HW116475   3.207   2.844   3.016
 5196SOL    HW216476   3.116   2.961   3.044
 5197SOL     OW16477   3.174   2.718   2.167
 5197SOL    HW116478   3.100   2.687   2.218
 5197SOL    HW216479   3.149   2.704   2.076
 5198SOL     OW16480   3.639   3.603   3.017
 5198SOL    HW116481   3.697   3.629   2.945
 5198SOL    HW216482   3.612   3.514   2.994
 5199SOL     OW16483   3.106   3.595   2.971
 5199SOL    HW116484   3.189   3.616   2.928
 5199SOL    HW216485   3.112   3.502   2.991
 5200SOL     OW16486   1.947   3.128   2.874
 5200SOL    HW116487   1.931   3.142   2.967
 5200SOL    HW216488   1.873   3.074   2.845
 5201SOL     OW16489   2.540   3.526   3.595
 5201SOL    HW116490   2.484   3.604   3.599
 5201SOL    HW216491   2.601   3.545   3.523
 5202SOL     OW16492   3.572   2.012   2.374
 5202SOL    HW116493   3.640   2.000   2.308
 5202SOL    HW216494   3.561   1.926   2.413
 5203SOL     OW16495   3.252   3.430   2.349
 5203SOL    HW116496   3.311   3.464   2.282
 5203SOL    HW216497   3.204   3.508   2.380
 5204SOL     OW16498   1.997   3.652   3.700
 5204SOL    HW116499   1.945   3.588   3.750
 5204SOL    HW216500   2.045   3.700   3.767
 5205SOL     OW16501   3.139   2.788   2.533
 5205SOL    HW116502   3.213   2.728   2.542
 5205SOL    HW216503   3.173   2.860   2.480
 5206SOL     OW16504   2.672   3.136   3.290
 5206SOL    HW116505   2.644   3.176   3.372
 5206SOL    HW216506   2.603   3.159   3.227
 5207SOL     OW16507   2.537   3.480   2.020
 5207SOL    HW116508   2.546   3.497   1.926
 5207SOL    HW216509   2.478   3.404   2.024
 5208SOL     OW16510   3.481   3.589   3.252
 5208SOL    HW116511   3.537   3.592   3.174
 5208SOL    HW216512   3.469   3.680   3.276
 5209SOL     OW16513   3.700   2.043   2.829
 5209SOL    HW116514   3.731   1.956   2.804
 5209SOL    HW216515   3.614   2.051   2.788
 5210SOL     OW16516   3.070   3.466   1.898
 5210SOL    HW116517   3.059   3.374   1.922
 5210SOL    HW216518   3.008   3.479   1.825
 5211SOL     OW16519   2.686   2.869   3.234
 5211SOL    HW116520   2.731   2.865   3.150
 5211SOL    HW216521   2.684   2.962   3.256
 5212SOL     OW16522   2.779   2.773   2.152
 5212SOL    HW116523   2.839   2.805   2.086
 5212SOL    HW216524   2.827   2.704   2.198
 5213SOL     OW16525   3.350   3.494   1.904
 5213SOL    HW116526   3.256   3.481   1.888
 5213SOL    HW216527   3.389   3.498   1.817
 5214SOL     OW16528   2.231   3.166   3.353
 5214SOL    HW116529   2.218   3.243   3.298
 5214SOL    HW216530   2.153   3.112   3.338
 5215SOL     OW16531   3.463   3.142   3.139
 5215SOL    HW116532   3.531   3.133   3.206
 5215SOL    HW216533   3.406   3.211   3.172
 5216SOL     OW16534   2.918   2.970   2.570
 5216SOL    HW116535   2.846   2.919   2.608
 5216SOL    HW216536   2.981   2.905   2.541
 5217SOL     OW16537   2.883   2.103   2.828
 5217SOL    HW116538   2.878   2.055   2.745
 5217SOL    HW216539   2.880   2.034   2.895
 5218SOL     OW16540   2.466   3.352   2.342
 5218SOL    HW116541   2.512   3.301   2.275
 5218SOL    HW216542   2.397   3.398   2.294
 5219SOL     OW16543   3.586   2.252   3.240
 5219SOL    HW116544   3.658   2.315   3.237
 5219SOL    HW216545   3.615   2.180   3.184
 5220SOL     OW16546   2.122   3.205   2.151
 5220SOL    HW116547   2.029   3.202   2.129
 5220SOL    HW216548   2.124   3.244   2.239
 5221SOL     OW16549   1.974   2.887   3.582
 5221SOL    HW116550   1.898   2.863   3.634
 5221SOL    HW216551   2.048   2.849   3.629
 5222SOL     OW16552   2.547   2.045   3.356
 5222SOL    HW116553   2.634   2.022   3.323
 5222SOL    HW216554   2.563   2.088   3.440
 5223SOL     OW16555   1.881   2.255   1.915
 5223SOL    HW116556   1.819   2.215   1.854
 5223SOL    HW216557   1.930   2.318   1.862
 5224SOL     OW16558   3.288   2.720   3.261
 5224SOL    HW116559   3.239   2.782   3.207
 5224SOL    HW216560   3.377   2.722   3.224
 5225SOL     OW16561   3.040   3.199   1.979
 5225SOL    HW116562   2.949   3.169   1.981
 5225SOL    HW216563   3.067   3.199   2.071
 5226SOL     OW16564   2.484   2.693   3.296
 5226SOL    HW116565   2.540   2.769   3.281
 5226SOL    HW216566   2.545   2.620   3.305
 5227SOL     OW16567   3.347   3.643   2.844
 5227SOL    HW116568   3.371   3.697   2.769
 5227SOL    HW216569   3.431   3.612   2.879
 5228SOL     OW16570   2.574   2.425   3.564
 5228SOL    HW116571   2.620   2.483   3.624
 5228SOL    HW216572   2.595   2.337   3.595
 5229SOL     OW16573   3.335   3.060   3.492
 5229SOL    HW116574   3.324   3.074   3.586
 5229SOL    HW216575   3.428   3.075   3.476
 5230SOL     OW16576   2.237   3.602   3.427
 5230SOL    HW116577   2.152   3.644   3.411
 5230SOL    HW216578   2.215   3.519   3.468
 5231SOL     OW16579   3.527   2.742   3.121
 5231SOL    HW116580   3.525   2.657   3.078
 5231SOL    HW216581   3.520   2.805   3.049
 5232SOL     OW16582   3.078   2.181   2.320
 5232SOL    HW116583   3.141   2.109   2.312
 5232SOL    HW216584   3.108   2.230   2.396
 5233SOL     OW16585   2.450   2.602   2.535
 5233SOL    HW116586   2.493   2.686   2.522
 5233SOL    HW216587   2.382   2.599   2.467
 5234SOL     OW16588   3.620   2.228   3.512
 5234SOL    HW116589   3.604   2.241   3.419
 5234SOL    HW216590   3.550   2.169   3.541
 5235SOL     OW16591   3.618   2.790   3.375
 5235SOL    HW116592   3.609   2.884   3.393
 5235SOL    HW216593   3.594   2.781   3.283
 5236SOL     OW16594   2.725   3.229   1.900
 5236SOL    HW116595   2.685   3.257   1.983
 5236SOL    HW216596   2.741   3.310   1.853
 5237SOL     OW16597   2.522   3.651   2.801
 5237SOL    HW116598   2.501   3.742   2.780
 5237SOL    HW216599   2.618   3.646   2.796
 5238SOL     OW16600   2.730   2.831   2.717
 5238SOL    HW116601   2.780   2.759   2.755
 5238SOL    HW216602   2.694   2.878   2.792
 5239SOL     OW16603   2.940   2.850   1.950
 5239SOL    HW116604   2.919   2.902   1.872
 5239SOL    HW216605   3.015   2.796   1.924
 5240SOL     OW16606   3.712   3.416   2.702
 5240SOL    HW116607   3.633   3.397   2.653
 5240SOL    HW216608   3.715   3.349   2.770
 5241SOL     OW16609   2.088   3.163   3.718
 5241SOL    HW116610   2.020   3.103   3.687
 5241SOL    HW216611   2.069   3.176   3.811
 5242SOL     OW16612   1.948   3.093   2.527
 5242SOL    HW116613   1.957   3.047   2.611
 5242SOL    HW216614   2.015   3.054   2.471
 5243SOL     OW16615   2.545   3.266   3.491
 5243SOL    HW116616   2.465   3.224   3.523
 5243SOL    HW216617   2.542   3.355   3.529
 5244SOL     OW16618   3.675   2.040   3.100
 5244SOL    HW116619   3.666   1.945   3.103
 5244SOL    HW216620   3.689   2.060   3.008
 5245SOL     OW16621   2.329   2.317   2.369
 5245SOL    HW116622   2.351   2.314   2.276
 5245SOL    HW216623   2.251   2.263   2.377
 5246SOL     OW16624   3.558   3.352   2.958
 5246SOL    HW116625   3.479   3.327   2.909
 5246SOL    HW216626   3.570   3.281   3.021
 5247SOL     OW16627   2.200   2.424   3.156
 5247SOL    HW116628   2.250   2.356   3.203
 5247SOL    HW216629   2.226   2.413   3.064
 5248SOL     OW16630   2.690   3.440   2.539
 5248SOL    HW116631   2.673   3.493   2.461
 5248SOL    HW216632   2.616   3.380   2.545
 5249SOL     OW16633   3.293   2.090   2.979
 5249SOL    HW116634   3.313   2.006   3.021
 5249SOL    HW216635   3.243   2.138   3.044
 5250SOL     OW16636   2.872   1.880   3.001
 5250SOL    HW116637   2.817   1.813   2.962
 5250SOL    HW216638   2.960   1.841   3.003
 5251SOL     OW16639   2.635   3.195   2.181
 5251SOL    HW116640   2.605   3.104   2.187
 5251SOL    HW216641   2.717   3.196   2.229
 5252SOL     OW16642   2.482   3.415   3.147
 5252SOL    HW116643   2.483   3.497   3.197
 5252SOL    HW216644   2.570   3.409   3.110
 5253SOL     OW16645   3.217   1.915   2.029
 5253SOL    HW116646   3.247   1.847   1.969
 5253SOL    HW216647   3.128   1.888   2.054
 5254SOL     OW16648   3.158   2.324   2.542
 5254SOL    HW116649   3.105   2.404   2.548
 5254SOL    HW216650   3.154   2.286   2.629
 5255SOL     OW16651   3.444   2.060   2.740
 5255SOL    HW116652   3.388   2.084   2.814
 5255SOL    HW216653   3.445   2.138   2.685
 5256SOL     OW16654   1.905   2.930   2.169
 5256SOL    HW116655   1.999   2.922   2.151
 5256SOL    HW216656   1.878   2.841   2.193
 5257SOL     OW16657   2.748   3.521   2.205
 5257SOL    HW116658   2.677   3.502   2.144
 5257SOL    HW216659   2.717   3.596   2.255
 5258SOL     OW16660   2.093   2.501   3.859
 5258SOL    HW116661   2.009   2.484   3.902
 5258SOL    HW216662   2.077   2.485   3.766
 5259SOL     OW16663   1.870   2.269   4.358
 5259SOL    HW116664   1.780   2.265   4.390
 5259SOL    HW216665   1.882   2.189   4.307
 5260SOL     OW16666   2.429   3.154   4.902
 5260SOL    HW116667   2.342   3.160   4.862
 5260SOL    HW216668   2.446   3.242   4.936
 5261SOL     OW16669   3.425   3.374   4.433
 5261SOL    HW116670   3.383   3.352   4.516
 5261SOL    HW216671   3.354   3.378   4.369
 5262SOL     OW16672   2.991   2.561   4.422
 5262SOL    HW116673   3.041   2.641   4.408
 5262SOL    HW216674   2.945   2.575   4.505
 5263SOL     OW16675   3.629   2.468   3.953
 5263SOL    HW116676   3.609   2.460   3.860
 5263SOL    HW216677   3.594   2.387   3.992
 5264SOL     OW16678   2.612   3.002   4.767
 5264SOL    HW116679   2.545   3.038   4.825
 5264SOL    HW216680   2.650   3.078   4.724
 5265SOL     OW16681   2.729   2.632   5.545
 5265SOL    HW116682   2.723   2.702   5.609
 5265SOL    HW216683   2.754   2.675   5.463
 5266SOL     OW16684   2.547   2.861   4.369
 5266SOL    HW116685   2.613   2.852   4.438
 5266SOL    HW216686   2.479   2.915   4.408
 5267SOL     OW16687   2.575   3.014   5.537
 5267SOL    HW116688   2.623   3.091   5.567
 5267SOL    HW216689   2.493   3.048   5.501
 5268SOL     OW16690   2.193   3.283   4.791
 5268SOL    HW116691   2.119   3.246   4.742
 5268SOL    HW216692   2.240   3.336   4.726
 5269SOL     OW16693   3.321   3.363   5.081
 5269SOL    HW116694   3.375   3.441   5.091
 5269SOL    HW216695   3.256   3.370   5.151
 5270SOL     OW16696   3.472   2.308   4.468
 5270SOL    HW116697   3.399   2.330   4.409
 5270SOL    HW216698   3.484   2.386   4.521
 5271SOL     OW16699   2.084   3.578   4.203
 5271SOL    HW116700   2.114   3.638   4.271
 5271SOL    HW216701   2.155   3.575   4.139
 5272SOL     OW16702   2.999   3.204   5.418
 5272SOL    HW116703   3.041   3.197   5.503
 5272SOL    HW216704   2.947   3.124   5.410
 5273SOL     OW16705   2.091   3.304   4.260
 5273SOL    HW116706   2.074   3.398   4.263
 5273SOL    HW216707   2.033   3.266   4.325
 5274SOL     OW16708   2.123   2.956   4.614
 5274SOL    HW116709   2.119   2.869   4.653
 5274SOL    HW216710   2.065   3.009   4.669
 5275SOL     OW16711   2.470   3.648   5.152
 5275SOL    HW116712   2.389   3.633   5.200
 5275SOL    HW216713   2.497   3.736   5.176
 5276SOL     OW16714   2.445   2.848   3.859
 5276SOL    HW116715   2.493   2.895   3.790
 5276SOL    HW216716   2.484   2.880   3.940
 5277SOL     OW16717   3.457   1.988   5.190
 5277SOL    HW116718   3.470   2.070   5.142
 5277SOL    HW216719   3.442   2.014   5.280
 5278SOL     OW16720   1.985   2.514   4.287
 5278SOL    HW116721   1.950   2.427   4.306
 5278SOL    HW216722   1.971   2.564   4.367
 5279SOL     OW16723   3.700   3.613   4.065
 5279SOL    HW116724   3.771   3.588   4.125
 5279SOL    HW216725   3.719   3.704   4.042
 5280SOL     OW16726   1.892   3.453   3.846
 5280SOL    HW116727   1.876   3.361   3.867
 5280SOL    HW216728   1.871   3.500   3.926
 5281SOL     OW16729   3.550   2.782   4.370
 5281SOL    HW116730   3.633   2.738   4.352
 5281SOL    HW216731   3.531   2.830   4.290
 5282SOL     OW16732   3.503   2.966   4.155
 5282SOL    HW116733   3.588   2.971   4.112
 5282SOL    HW216734   3.510   3.029   4.227
 5283SOL     OW16735   1.978   2.626   5.288
 5283SOL    HW116736   2.068   2.656   5.300
 5283SOL    HW216737   1.925   2.706   5.296
 5284SOL     OW16738   2.477   3.251   4.459
 5284SOL    HW116739   2.432   3.167   4.468
 5284SOL    HW216740   2.460   3.278   4.368
 5285SOL     OW16741   3.149   3.099   5.147
 5285SOL    HW116742   3.181   3.032   5.086
 5285SOL    HW216743   3.208   3.094   5.222
 5286SOL     OW16744   2.687   1.863   4.235
 5286SOL    HW116745   2.726   1.948   4.212
 5286SOL    HW216746   2.593   1.880   4.239
 5287SOL     OW16747   2.051   2.828   5.000
 5287SOL    HW116748   2.136   2.788   4.982
 5287SOL    HW216749   1.989   2.776   4.948
 5288SOL     OW16750   3.390   2.858   3.924
 5288SOL    HW116751   3.321   2.801   3.958
 5288SOL    HW216752   3.432   2.893   4.003
 5289SOL     OW16753   3.080   3.666   5.351
 5289SOL    HW116754   3.056   3.727   5.281
 5289SOL    HW216755   3.081   3.580   5.309
 5290SOL     OW16756   3.327   3.282   4.673
 5290SOL    HW116757   3.261   3.297   4.740
 5290SOL    HW216758   3.316   3.191   4.647
 5291SOL     OW16759   3.509   3.606   4.304
 5291SOL    HW116760   3.501   3.572   4.215
 5291SOL    HW216761   3.492   3.531   4.361
 5292SOL     OW16762   2.467   2.600   3.997
 5292SOL    HW116763   2.470   2.678   3.941
 5292SOL    HW216764   2.401   2.620   4.063
 5293SOL     OW16765   3.139   2.220   4.658
 5293SOL    HW116766   3.051   2.184   4.666
 5293SOL    HW216767   3.192   2.167   4.716
 5294SOL     OW16768   3.436   3.538   4.032
 5294SOL    HW116769   3.528   3.562   4.028
 5294SOL    HW216770   3.412   3.518   3.942
 5295SOL     OW16771   2.655   2.479   5.176
 5295SOL    HW116772   2.630   2.455   5.265
 5295SOL    HW216773   2.610   2.415   5.121
 5296SOL     OW16774   3.257   2.336   5.401
 5296SOL    HW116775   3.260   2.381   5.486
 5296SOL    HW216776   3.314   2.260   5.412
 5297SOL     OW16777   2.814   2.748   5.307
 5297SOL    HW116778   2.870   2.680   5.271
 5297SOL    HW216779   2.767   2.784   5.232
 5298SOL     OW16780   2.860   2.277   4.960
 5298SOL    HW116781   2.776   2.294   5.003
 5298SOL    HW216782   2.837   2.228   4.881
 5299SOL     OW16783   2.914   2.561   4.149
 5299SOL    HW116784   2.931   2.554   4.243
 5299SOL    HW216785   2.831   2.514   4.137
 5300SOL     OW16786   1.949   2.683   4.502
 5300SOL    HW116787   2.032   2.682   4.551
 5300SOL    HW216788   1.903   2.760   4.534
 5301SOL     OW16789   1.983   3.706   5.300
 5301SOL    HW116790   1.985   3.686   5.394
 5301SOL    HW216791   1.889   3.707   5.278
 5302SOL     OW16792   2.759   2.215   3.925
 5302SOL    HW116793   2.803   2.268   3.859
 5302SOL    HW216794   2.729   2.137   3.878
 5303SOL     OW16795   3.574   2.437   5.553
 5303SOL    HW116796   3.534   2.509   5.505
 5303SOL    HW216797   3.596   2.372   5.485
 5304SOL     OW16798   3.239   3.003   4.264
 5304SOL    HW116799   3.319   2.991   4.213
 5304SOL    HW216800   3.187   3.066   4.213
 5305SOL     OW16801   2.442   2.058   4.630
 5305SOL    HW116802   2.351   2.070   4.656
 5305SOL    HW216803   2.467   2.141   4.588
 5306SOL     OW16804   2.865   3.307   4.194
 5306SOL    HW116805   2.829   3.381   4.146
 5306SOL    HW216806   2.845   3.326   4.286
 5307SOL     OW16807   2.213   3.673   4.563
 5307SOL    HW116808   2.263   3.594   4.582
 5307SOL    HW216809   2.272   3.745   4.586
 5308SOL     OW16810   3.667   2.923   4.591
 5308SOL    HW116811   3.614   2.897   4.516
 5308SOL    HW216812   3.605   2.926   4.664
 5309SOL     OW16813   3.089   3.399   5.236
 5309SOL    HW116814   3.076   3.327   5.297
 5309SOL    HW216815   3.022   3.386   5.169
 5310SOL     OW16816   2.181   2.817   3.977
 5310SOL    HW116817   2.261   2.838   3.929
 5310SOL    HW216818   2.149   2.736   3.937
 5311SOL     OW16819   3.341   2.608   4.450
 5311SOL    HW116820   3.336   2.566   4.536
 5311SOL    HW216821   3.420   2.663   4.455
 5312SOL     OW16822   2.330   3.127   5.461
 5312SOL    HW116823   2.303   3.133   5.369
 5312SOL    HW216824   2.247   3.125   5.510
 5313SOL     OW16825   2.976   3.643   3.946
 5313SOL    HW116826   2.912   3.597   4.000
 5313SOL    HW216827   3.006   3.577   3.883
 5314SOL     OW16828   3.486   3.247   3.813
 5314SOL    HW116829   3.443   3.330   3.795
 5314SOL    HW216830   3.420   3.181   3.793
 5315SOL     OW16831   2.329   3.597   4.049
 5315SOL    HW116832   2.367   3.662   4.108
 5315SOL    HW216833   2.402   3.572   3.992
 5316SOL     OW16834   3.263   1.969   4.160
 5316SOL    HW116835   3.255   1.944   4.068
 5316SOL    HW216836   3.357   1.975   4.176
 5317SOL     OW16837   2.122   3.653   4.947
 5317SOL    HW116838   2.169   3.584   4.993
 5317SOL    HW216839   2.107   3.619   4.859
 5318SOL     OW16840   2.800   3.563   4.623
 5318SOL    HW116841   2.878   3.511   4.645
 5318SOL    HW216842   2.756   3.513   4.554
 5319SOL     OW16843   2.254   2.549   4.202
 5319SOL    HW116844   2.266   2.461   4.166
 5319SOL    HW216845   2.162   2.552   4.227
 5320SOL     OW16846   3.395   2.087   5.449
 5320SOL    HW116847   3.405   2.108   5.542
 5320SOL    HW216848   3.326   2.020   5.447
 5321SOL     OW16849   2.535   1.989   3.826
 5321SOL    HW116850   2.578   1.909   3.856
 5321SOL    HW216851   2.466   1.959   3.767
 5322SOL     OW16852   2.631   2.145   5.477
 5322SOL    HW116853   2.710   2.091   5.469
 5322SOL    HW216854   2.583   2.108   5.551
 5323SOL     OW16855   2.738   3.382   4.919
 5323SOL    HW116856   2.721   3.347   4.831
 5323SOL    HW216857   2.808   3.328   4.954
 5324SOL     OW16858   3.202   2.452   5.157
 5324SOL    HW116859   3.233   2.420   5.242
 5324SOL    HW216860   3.239   2.540   5.149
 5325SOL     OW16861   2.679   3.254   4.667
 5325SOL    HW116862   2.763   3.242   4.623
 5325SOL    HW216863   2.615   3.258   4.595
 5326SOL     OW16864   2.789   2.369   4.626
 5326SOL    HW116865   2.765   2.361   4.533
 5326SOL    HW216866   2.823   2.283   4.649
 5327SOL     OW16867   2.422   1.922   4.228
 5327SOL    HW116868   2.364   1.905   4.302
 5327SOL    HW216869   2.404   2.012   4.203
 5328SOL     OW16870   3.290   3.062   3.764
 5328SOL    HW116871   3.320   2.986   3.814
 5328SOL    HW216872   3.204   3.082   3.802
 5329SOL     OW16873   2.803   2.112   4.182
 5329SOL    HW116874   2.780   2.148   4.096
 5329SOL    HW216875   2.898   2.124   4.189
 5330SOL     OW16876   2.944   2.545   5.182
 5330SOL    HW116877   2.878   2.476   5.191
 5330SOL    HW216878   3.027   2.499   5.177
 5331SOL     OW16879   3.083   3.433   4.518
 5331SOL    HW116880   3.099   3.500   4.452
 5331SOL    HW216881   3.153   3.445   4.582
 5332SOL     OW16882   2.333   3.013   4.454
 5332SOL    HW116883   2.264   2.995   4.518
 5332SOL    HW216884   2.291   2.998   4.369
 5333SOL     OW16885   3.128   3.657   4.332
 5333SOL    HW116886   3.174   3.721   4.279
 5333SOL    HW216887   3.055   3.705   4.371
 5334SOL     OW16888   2.887   2.401   3.747
 5334SOL    HW116889   2.843   2.484   3.729
 5334SOL    HW216890   2.951   2.422   3.815
 5335SOL     OW16891   1.937   2.427   5.106
 5335SOL    HW116892   2.031   2.416   5.090
 5335SOL    HW216893   1.932   2.498   5.169
 5336SOL     OW16894   2.724   2.319   4.362
 5336SOL    HW116895   2.689   2.376   4.293
 5336SOL    HW216896   2.752   2.240   4.315
 5337SOL     OW16897   2.875   1.916   4.474
 5337SOL    HW116898   2.819   1.906   4.397
 5337SOL    HW216899   2.854   1.841   4.529
 5338SOL     OW16900   3.301   3.024   4.581
 5338SOL    HW116901   3.231   2.959   4.580
 5338SOL    HW216902   3.327   3.033   4.489
 5339SOL     OW16903   3.327   2.470   4.697
 5339SOL    HW116904   3.275   2.390   4.700
 5339SOL    HW216905   3.386   2.463   4.772
 5340SOL     OW16906   3.723   2.678   4.099
 5340SOL    HW116907   3.767   2.623   4.163
 5340SOL    HW216908   3.686   2.617   4.035
 5341SOL     OW16909   2.352   3.280   3.878
 5341SOL    HW116910   2.277   3.253   3.930
 5341SOL    HW216911   2.340   3.237   3.793
 5342SOL     OW16912   3.529   3.127   4.368
 5342SOL    HW116913   3.624   3.129   4.378
 5342SOL    HW216914   3.501   3.216   4.389
 5343SOL     OW16915   3.256   2.434   3.796
 5343SOL    HW116916   3.194   2.414   3.865
 5343SOL    HW216917   3.340   2.401   3.828
 5344SOL     OW16918   3.613   3.097   5.290
 5344SOL    HW116919   3.700   3.061   5.272
 5344SOL    HW216920   3.629   3.186   5.319
 5345SOL     OW16921   2.919   3.214   5.056
 5345SOL    HW116922   2.844   3.183   5.107
 5345SOL    HW216923   2.995   3.173   5.098
 5346SOL     OW16924   3.469   3.491   5.381
 5346SOL    HW116925   3.459   3.524   5.291
 5346SOL    HW216926   3.549   3.440   5.379
 5347SOL     OW16927   2.993   3.068   4.827
 5347SOL    HW116928   2.934   3.106   4.892
 5347SOL    HW216929   2.962   3.102   4.743
 5348SOL     OW16930   3.490   2.958   4.799
 5348SOL    HW116931   3.482   3.019   4.872
 5348SOL    HW216932   3.413   2.974   4.744
 5349SOL     OW16933   2.788   1.955   5.118
 5349SOL    HW116934   2.810   1.936   5.027
 5349SOL    HW216935   2.867   1.994   5.154
 5350SOL     OW16936   2.846   2.977   5.446
 5350SOL    HW116937   2.754   2.993   5.469
 5350SOL    HW216938   2.844   2.899   5.391
 5351SOL     OW16939   2.571   2.923   4.095
 5351SOL    HW116940   2.557   2.905   4.188
 5351SOL    HW216941   2.646   2.870   4.071
 5352SOL     OW16942   2.283   2.681   4.978
 5352SOL    HW116943   2.352   2.692   5.042
 5352SOL    HW216944   2.246   2.594   4.996
 5353SOL     OW16945   3.129   2.239   5.002
 5353SOL    HW116946   3.161   2.316   5.048
 5353SOL    HW216947   3.039   2.261   4.979
 5354SOL     OW16948   1.934   3.435   5.077
 5354SOL    HW116949   1.906   3.510   5.026
 5354SOL    HW216950   2.030   3.437   5.073
 5355SOL     OW16951   2.206   2.974   4.213
 5355SOL    HW116952   2.211   3.049   4.153
 5355SOL    HW216953   2.203   2.898   4.156
 5356SOL     OW16954   2.431   2.391   4.569
 5356SOL    HW116955   2.442   2.455   4.499
 5356SOL    HW216956   2.495   2.417   4.636
 5357SOL     OW16957   3.109   3.211   4.113
 5357SOL    HW116958   3.165   3.282   4.145
 5357SOL    HW216959   3.022   3.232   4.147
 5358SOL     OW16960   3.146   3.322   4.872
 5358SOL    HW116961   3.203   3.326   4.949
 5358SOL    HW216962   3.091   3.245   4.886
 5359SOL     OW16963   3.440   2.482   4.206
 5359SOL    HW116964   3.392   2.535   4.270
 5359SOL    HW216965   3.483   2.546   4.149
 5360SOL     OW16966   2.208   3.391   5.036
 5360SOL    HW116967   2.196   3.347   4.952
 5360SOL    HW216968   2.302   3.402   5.044
 5361SOL     OW16969   2.283   2.607   5.330
 5361SOL    HW116970   2.340   2.651   5.268
 5361SOL    HW216971   2.336   2.534   5.364
 5362SOL     OW16972   3.467   2.641   5.407
 5362SOL    HW116973   3.381   2.683   5.402
 5362SOL    HW216974   3.519   2.684   5.340
 5363SOL     OW16975   2.858   1.990   5.468
 5363SOL    HW116976   2.920   2.062   5.451
 5363SOL    HW216977   2.908   1.911   5.448
 5364SOL     OW16978   2.359   1.888   5.490
 5364SOL    HW116979   2.311   1.839   5.423
 5364SOL    HW216980   2.291   1.941   5.533
 5365SOL     OW16981   2.447   2.734   4.757
 5365SOL    HW116982   2.480   2.824   4.756
 5365SOL    HW216983   2.390   2.730   4.834
 5366SOL     OW16984   3.216   2.721   4.750
 5366SOL    HW116985   3.132   2.708   4.705
 5366SOL    HW216986   3.260   2.636   4.743
 5367SOL     OW16987   3.064   2.390   3.988
 5367SOL    HW116988   3.072   2.311   4.042
 5367SOL    HW216989   3.022   2.454   4.045
 5368SOL     OW16990   1.907   3.173   5.000
 5368SOL    HW116991   1.941   3.119   5.071
 5368SOL    HW216992   1.914   3.263   5.032
 5369SOL     OW16993   2.583   2.487   4.778
 5369SOL    HW116994   2.663   2.475   4.727
 5369SOL    HW216995   2.557   2.577   4.762
 5370SOL     OW16996   3.592   2.822   5.585
 5370SOL    HW116997   3.552   2.756   5.528
 5370SOL    HW216998   3.528   2.835   5.655
 5371SOL     OW16999   3.482   2.238   4.088
 5371SOL    HW117000   3.508   2.173   4.153
 5371SOL    HW217001   3.458   2.315   4.140
 5372SOL     OW17002   2.889   2.620   4.683
 5372SOL    HW117003   2.884   2.637   4.777
 5372SOL    HW217004   2.865   2.528   4.674
 5373SOL     OW17005   2.847   3.429   5.444
 5373SOL    HW117006   2.828   3.471   5.360
 5373SOL    HW217007   2.889   3.347   5.422
 5374SOL     OW17008   3.705   3.361   5.322
 5374SOL    HW117009   3.729   3.390   5.234
 5374SOL    HW217010   3.785   3.371   5.373
 5375SOL     OW17011   2.215   2.782   5.532
 5375SOL    HW117012   2.297   2.801   5.578
 5375SOL    HW217013   2.240   2.719   5.465
 5376SOL     OW17014   3.391   2.135   3.851
 5376SOL    HW117015   3.326   2.069   3.877
 5376SOL    HW217016   3.424   2.170   3.934
 5377SOL     OW17017   3.151   2.687   3.754
 5377SOL    HW117018   3.194   2.602   3.758
 5377SOL    HW217019   3.183   2.726   3.673
 5378SOL     OW17020   2.929   3.199   4.579
 5378SOL    HW117021   2.933   3.126   4.517
 5378SOL    HW217022   2.989   3.264   4.544
 5379SOL     OW17023   2.171   2.683   4.670
 5379SOL    HW117024   2.263   2.709   4.664
 5379SOL    HW217025   2.174   2.590   4.694
 5380SOL     OW17026   2.212   2.418   4.717
 5380SOL    HW117027   2.175   2.333   4.695
 5380SOL    HW217028   2.293   2.424   4.666
 5381SOL     OW17029   2.998   2.238   5.404
 5381SOL    HW117030   2.950   2.292   5.467
 5381SOL    HW217031   3.085   2.276   5.402
 5382SOL     OW17032   3.026   2.063   5.193
 5382SOL    HW117033   3.013   2.125   5.265
 5382SOL    HW217034   3.068   2.115   5.125
 5383SOL     OW17035   1.867   3.180   3.919
 5383SOL    HW117036   1.780   3.196   3.882
 5383SOL    HW217037   1.863   3.091   3.953
 5384SOL     OW17038   1.959   3.640   4.662
 5384SOL    HW117039   1.928   3.562   4.617
 5384SOL    HW217040   2.044   3.659   4.622
 5385SOL     OW17041   2.356   3.438   4.629
 5385SOL    HW117042   2.423   3.501   4.654
 5385SOL    HW217043   2.401   3.375   4.572
 5386SOL     OW17044   2.840   2.651   4.949
 5386SOL    HW117045   2.901   2.631   5.020
 5386SOL    HW217046   2.756   2.617   4.979
 5387SOL     OW17047   1.894   2.401   4.838
 5387SOL    HW117048   1.972   2.428   4.789
 5387SOL    HW217049   1.918   2.414   4.930
 5388SOL     OW17050   2.026   2.431   5.468
 5388SOL    HW117051   2.090   2.395   5.408
 5388SOL    HW217052   1.982   2.500   5.417
 5389SOL     OW17053   3.241   2.799   5.382
 5389SOL    HW117054   3.262   2.892   5.379
 5389SOL    HW217055   3.237   2.772   5.290
 5390SOL     OW17056   2.678   2.432   4.093
 5390SOL    HW117057   2.686   2.359   4.031
 5390SOL    HW217058   2.607   2.485   4.057
 5391SOL     OW17059   3.502   2.464   4.908
 5391SOL    HW117060   3.491   2.403   4.981
 5391SOL    HW217061   3.588   2.443   4.872
 5392SOL     OW17062   2.104   3.411   5.448
 5392SOL    HW117063   2.082   3.478   5.513
 5392SOL    HW217064   2.108   3.330   5.499
 5393SOL     OW17065   2.541   2.322   4.990
 5393SOL    HW117066   2.521   2.234   4.956
 5393SOL    HW217067   2.549   2.376   4.912
 5394SOL     OW17068   2.789   3.534   5.193
 5394SOL    HW117069   2.762   3.496   5.109
 5394SOL    HW217070   2.781   3.628   5.180
 5395SOL     OW17071   2.337   2.374   3.936
 5395SOL    HW117072   2.395   2.449   3.945
 5395SOL    HW217073   2.255   2.411   3.904
 5396SOL     OW17074   2.006   3.005   5.198
 5396SOL    HW117075   2.007   2.955   5.279
 5396SOL    HW217076   2.023   2.940   5.130
 5397SOL     OW17077   3.184   2.907   4.946
 5397SOL    HW117078   3.207   2.844   4.878
 5397SOL    HW217079   3.116   2.961   4.906
 5398SOL     OW17080   3.174   2.719   4.029
 5398SOL    HW117081   3.100   2.687   4.080
 5398SOL    HW217082   3.149   2.704   3.938
 5399SOL     OW17083   3.639   3.603   4.879
 5399SOL    HW117084   3.697   3.629   4.807
 5399SOL    HW217085   3.612   3.514   4.856
 5400SOL     OW17086   3.106   3.595   4.833
 5400SOL    HW117087   3.189   3.616   4.790
 5400SOL    HW217088   3.112   3.502   4.853
 5401SOL     OW17089   1.947   3.128   4.736
 5401SOL    HW117090   1.931   3.142   4.829
 5401SOL    HW217091   1.873   3.074   4.707
 5402SOL     OW17092   2.540   3.526   5.456
 5402SOL    HW117093   2.484   3.604   5.461
 5402SOL    HW217094   2.601   3.546   5.385
 5403SOL     OW17095   3.572   2.012   4.236
 5403SOL    HW117096   3.640   2.000   4.170
 5403SOL    HW217097   3.561   1.926   4.275
 5404SOL     OW17098   3.252   3.430   4.211
 5404SOL    HW117099   3.311   3.464   4.144
 5404SOL    HW217100   3.204   3.508   4.242
 5405SOL     OW17101   1.997   3.652   5.563
 5405SOL    HW117102   1.945   3.588   5.612
 5405SOL    HW217103   2.045   3.700   5.629
 5406SOL     OW17104   3.139   2.788   4.395
 5406SOL    HW117105   3.213   2.728   4.404
 5406SOL    HW217106   3.173   2.860   4.342
 5407SOL     OW17107   2.672   3.136   5.152
 5407SOL    HW117108   2.644   3.176   5.234
 5407SOL    HW217109   2.603   3.159   5.089
 5408SOL     OW17110   2.537   3.479   3.882
 5408SOL    HW117111   2.546   3.497   3.788
 5408SOL    HW217112   2.478   3.404   3.886
 5409SOL     OW17113   3.481   3.589   5.114
 5409SOL    HW117114   3.537   3.592   5.036
 5409SOL    HW217115   3.469   3.680   5.138
 5410SOL     OW17116   3.700   2.043   4.691
 5410SOL    HW117117   3.731   1.956   4.666
 5410SOL    HW217118   3.614   2.051   4.650
 5411SOL     OW17119   3.069   3.466   3.760
 5411SOL    HW117120   3.059   3.374   3.784
 5411SOL    HW217121   3.008   3.479   3.687
 5412SOL     OW17122   2.686   2.868   5.096
 5412SOL    HW117123   2.731   2.864   5.012
 5412SOL    HW217124   2.684   2.962   5.118
 5413SOL     OW17125   2.779   2.773   4.015
 5413SOL    HW117126   2.839   2.805   3.948
 5413SOL    HW217127   2.827   2.704   4.060
 5414SOL     OW17128   3.350   3.494   3.766
 5414SOL    HW117129   3.256   3.481   3.750
 5414SOL    HW217130   3.389   3.498   3.679
 5415SOL     OW17131   2.231   3.166   5.215
 5415SOL    HW117132   2.218   3.243   5.160
 5415SOL    HW217133   2.153   3.112   5.200
 5416SOL     OW17134   3.463   3.142   5.001
 5416SOL    HW117135   3.531   3.133   5.068
 5416SOL    HW217136   3.406   3.211   5.034
 5417SOL     OW17137   2.918   2.970   4.432
 5417SOL    HW117138   2.846   2.919   4.470
 5417SOL    HW217139   2.981   2.905   4.403
 5418SOL     OW17140   2.882   2.102   4.690
 5418SOL    HW117141   2.878   2.055   4.607
 5418SOL    HW217142   2.880   2.034   4.757
 5419SOL     OW17143   2.466   3.352   4.204
 5419SOL    HW117144   2.512   3.302   4.137
 5419SOL    HW217145   2.398   3.398   4.156
 5420SOL     OW17146   3.586   2.252   5.102
 5420SOL    HW117147   3.658   2.315   5.099
 5420SOL    HW217148   3.615   2.179   5.046
 5421SOL     OW17149   2.122   3.205   4.014
 5421SOL    HW117150   2.029   3.202   3.991
 5421SOL    HW217151   2.124   3.244   4.101
 5422SOL     OW17152   1.975   2.888   5.445
 5422SOL    HW117153   1.898   2.862   5.497
 5422SOL    HW217154   2.049   2.849   5.491
 5423SOL     OW17155   2.548   2.046   5.217
 5423SOL    HW117156   2.635   2.022   5.185
 5423SOL    HW217157   2.564   2.087   5.302
 5424SOL     OW17158   1.882   2.252   3.769
 5424SOL    HW117159   1.822   2.216   3.703
 5424SOL    HW217160   1.932   2.319   3.721
 5425SOL     OW17161   3.289   2.721   5.123
 5425SOL    HW117162   3.239   2.782   5.069
 5425SOL    HW217163   3.377   2.722   5.086
 5426SOL     OW17164   3.040   3.199   3.841
 5426SOL    HW117165   2.949   3.169   3.843
 5426SOL    HW217166   3.067   3.199   3.933
 5427SOL     OW17167   2.483   2.693   5.158
 5427SOL    HW117168   2.539   2.769   5.143
 5427SOL    HW217169   2.544   2.620   5.167
 5428SOL     OW17170   3.347   3.643   4.706
 5428SOL    HW117171   3.371   3.698   4.631
 5428SOL    HW217172   3.431   3.613   4.741
 5429SOL     OW17173   2.572   2.423   5.429
 5429SOL    HW117174   2.621   2.482   5.487
 5429SOL    HW217175   2.597   2.336   5.458
 5430SOL     OW17176   3.335   3.060   5.354
 5430SOL    HW117177   3.324   3.074   5.448
 5430SOL    HW217178   3.428   3.075   5.338
 5431SOL     OW17179   2.237   3.602   5.289
 5431SOL    HW117180   2.153   3.644   5.273
 5431SOL    HW217181   2.215   3.519   5.330
 5432SOL     OW17182   3.527   2.742   4.983
 5432SOL    HW117183   3.525   2.657   4.940
 5432SOL    HW217184   3.520   2.805   4.911
 5433SOL     OW17185   3.079   2.181   4.182
 5433SOL    HW117186   3.141   2.109   4.174
 5433SOL    HW217187   3.109   2.230   4.258
 5434SOL     OW17188   2.449   2.598   4.393
 5434SOL    HW117189   2.489   2.684   4.378
 5434SOL    HW217190   2.382   2.591   4.325
 5435SOL     OW17191   3.620   2.228   5.374
 5435SOL    HW117192   3.604   2.241   5.281
 5435SOL    HW217193   3.551   2.169   5.403
 5436SOL     OW17194   3.618   2.790   5.237
 5436SOL    HW117195   3.609   2.884   5.255
 5436SOL    HW217196   3.594   2.781   5.145
 5437SOL     OW17197   2.725   3.229   3.763
 5437SOL    HW117198   2.685   3.257   3.845
 5437SOL    HW217199   2.741   3.310   3.714
 5438SOL     OW17200   2.522   3.651   4.663
 5438SOL    HW117201   2.501   3.742   4.642
 5438SOL    HW217202   2.618   3.646   4.658
 5439SOL     OW17203   2.730   2.830   4.578
 5439SOL    HW117204   2.781   2.759   4.617
 5439SOL    HW217205   2.694   2.878   4.654
 5440SOL     OW17206   2.940   2.850   3.812
 5440SOL    HW117207   2.919   2.902   3.734
 5440SOL    HW217208   3.014   2.796   3.786
 5441SOL     OW17209   3.712   3.416   4.564
 5441SOL    HW117210   3.633   3.397   4.515
 5441SOL    HW217211   3.715   3.349   4.632
 5442SOL     OW17212   2.088   3.163   5.580
 5442SOL    HW117213   2.020   3.104   5.547
 5442SOL    HW217214   2.066   3.177   5.672
 5443SOL     OW17215   1.947   3.093   4.389
 5443SOL    HW117216   1.956   3.047   4.473
 5443SOL    HW217217   2.015   3.054   4.333
 5444SOL     OW17218   2.545   3.267   5.353
 5444SOL    HW117219   2.465   3.225   5.385
 5444SOL    HW217220   2.542   3.355   5.391
 5445SOL     OW17221   3.675   2.040   4.962
 5445SOL    HW117222   3.666   1.945   4.965
 5445SOL    HW217223   3.690   2.060   4.870
 5446SOL     OW17224   3.558   3.352   4.820
 5446SOL    HW117225   3.479   3.327   4.771
 5446SOL    HW217226   3.570   3.281   4.883
 5447SOL     OW17227   2.198   2.421   5.013
 5447SOL    HW117228   2.241   2.349   5.060
 5447SOL    HW217229   2.225   2.410   4.922
 5448SOL     OW17230   2.690   3.441   4.401
 5448SOL    HW117231   2.673   3.493   4.323
 5448SOL    HW217232   2.616   3.381   4.406
 5449SOL     OW17233   3.293   2.090   4.841
 5449SOL    HW117234   3.312   2.006   4.883
 5449SOL    HW217235   3.243   2.138   4.906
 5450SOL     OW17236   2.873   1.881   4.863
 5450SOL    HW117237   2.816   1.813   4.824
 5450SOL    HW217238   2.960   1.841   4.864
 5451SOL     OW17239   2.635   3.195   4.043
 5451SOL    HW117240   2.605   3.104   4.049
 5451SOL    HW217241   2.717   3.196   4.091
 5452SOL     OW17242   2.482   3.415   5.009
 5452SOL    HW117243   2.483   3.497   5.059
 5452SOL    HW217244   2.570   3.409   4.972
 5453SOL     OW17245   3.217   1.915   3.891
 5453SOL    HW117246   3.247   1.847   3.831
 5453SOL    HW217247   3.128   1.888   3.916
 5454SOL     OW17248   3.158   2.324   4.404
 5454SOL    HW117249   3.105   2.404   4.410
 5454SOL    HW217250   3.154   2.286   4.491
 5455SOL     OW17251   3.444   2.060   4.602
 5455SOL    HW117252   3.388   2.084   4.676
 5455SOL    HW217253   3.445   2.138   4.547
 5456SOL     OW17254   1.905   2.930   4.032
 5456SOL    HW117255   1.998   2.923   4.014
 5456SOL    HW217256   1.878   2.841   4.054
 5457SOL     OW17257   2.748   3.521   4.067
 5457SOL    HW117258   2.677   3.502   4.006
 5457SOL    HW217259   2.717   3.596   4.117
 5458SOL     OW17260   2.087   2.533   5.721
 5458SOL    HW117261   2.013   2.487   5.760
 5458SOL    HW217262   2.088   2.505   5.629
 5459SOL     OW17263   2.425   3.154   6.760
 5459SOL    HW117264   2.342   3.168   6.715
 5459SOL    HW217265   2.448   3.239   6.796
 5460SOL     OW17266   3.425   3.374   6.295
 5460SOL    HW117267   3.383   3.352   6.378
 5460SOL    HW217268   3.353   3.378   6.232
 5461SOL     OW17269   2.992   2.549   6.287
 5461SOL    HW117270   3.035   2.634   6.284
 5461SOL    HW217271   2.933   2.555   6.363
 5462SOL     OW17272   3.624   2.468   5.817
 5462SOL    HW117273   3.607   2.461   5.723
 5462SOL    HW217274   3.594   2.385   5.853
 5463SOL     OW17275   2.638   3.013   6.648
 5463SOL    HW117276   2.555   3.036   6.689
 5463SOL    HW217277   2.661   3.089   6.594
 5464SOL     OW17278   2.760   2.663   7.419
 5464SOL    HW117279   2.723   2.737   7.468
 5464SOL    HW217280   2.778   2.698   7.332
 5465SOL     OW17281   2.589   3.014   7.381
 5465SOL    HW117282   2.627   3.094   7.418
 5465SOL    HW217283   2.497   3.035   7.365
 5466SOL     OW17284   2.195   3.283   6.652
 5466SOL    HW117285   2.118   3.251   6.605
 5466SOL    HW217286   2.242   3.336   6.588
 5467SOL     OW17287   3.321   3.363   6.943
 5467SOL    HW117288   3.374   3.441   6.954
 5467SOL    HW217289   3.255   3.369   7.012
 5468SOL     OW17290   3.473   2.308   6.331
 5468SOL    HW117291   3.414   2.339   6.262
 5468SOL    HW217292   3.489   2.385   6.385
 5469SOL     OW17293   2.084   3.577   6.065
 5469SOL    HW117294   2.114   3.638   6.132
 5469SOL    HW217295   2.156   3.575   6.001
 5470SOL     OW17296   2.999   3.205   7.281
 5470SOL    HW117297   3.041   3.199   7.367
 5470SOL    HW217298   2.947   3.125   7.273
 5471SOL     OW17299   2.089   3.303   6.121
 5471SOL    HW117300   2.075   3.398   6.124
 5471SOL    HW217301   2.029   3.268   6.187
 5472SOL     OW17302   2.115   2.982   6.460
 5472SOL    HW117303   2.147   2.908   6.512
 5472SOL    HW217304   2.063   3.034   6.521
 5473SOL     OW17305   2.469   3.649   7.012
 5473SOL    HW117306   2.388   3.634   7.062
 5473SOL    HW217307   2.496   3.737   7.038
 5474SOL     OW17308   2.442   2.845   5.713
 5474SOL    HW117309   2.490   2.892   5.645
 5474SOL    HW217310   2.480   2.876   5.795
 5475SOL     OW17311   3.463   1.985   7.055
 5475SOL    HW117312   3.457   2.064   7.002
 5475SOL    HW217313   3.444   2.014   7.144
 5476SOL     OW17314   3.700   3.613   5.928
 5476SOL    HW117315   3.771   3.588   5.987
 5476SOL    HW217316   3.719   3.704   5.904
 5477SOL     OW17317   1.893   3.452   5.708
 5477SOL    HW117318   1.876   3.361   5.729
 5477SOL    HW217319   1.871   3.500   5.788
 5478SOL     OW17320   3.547   2.778   6.231
 5478SOL    HW117321   3.632   2.736   6.215
 5478SOL    HW217322   3.530   2.828   6.152
 5479SOL     OW17323   3.503   2.965   6.018
 5479SOL    HW117324   3.588   2.970   5.974
 5479SOL    HW217325   3.509   3.029   6.090
 5480SOL     OW17326   2.481   3.254   6.319
 5480SOL    HW117327   2.438   3.169   6.327
 5480SOL    HW217328   2.462   3.282   6.229
 5481SOL     OW17329   3.150   3.101   7.008
 5481SOL    HW117330   3.181   3.033   6.948
 5481SOL    HW217331   3.208   3.094   7.084
 5482SOL     OW17332   3.389   2.858   5.787
 5482SOL    HW117333   3.320   2.801   5.820
 5482SOL    HW217334   3.431   2.893   5.865
 5483SOL     OW17335   3.081   3.666   7.213
 5483SOL    HW117336   3.056   3.726   7.142
 5483SOL    HW217337   3.080   3.579   7.172
 5484SOL     OW17338   3.327   3.283   6.535
 5484SOL    HW117339   3.261   3.298   6.602
 5484SOL    HW217340   3.316   3.191   6.510
 5485SOL     OW17341   3.509   3.606   6.166
 5485SOL    HW117342   3.501   3.571   6.077
 5485SOL    HW217343   3.492   3.531   6.223
 5486SOL     OW17344   2.469   2.602   5.871
 5486SOL    HW117345   2.467   2.669   5.801
 5486SOL    HW217346   2.378   2.594   5.899
 5487SOL     OW17347   3.436   3.538   5.894
 5487SOL    HW117348   3.529   3.562   5.890
 5487SOL    HW217349   3.412   3.518   5.804
 5488SOL     OW17350   3.266   2.343   7.262
 5488SOL    HW117351   3.264   2.385   7.348
 5488SOL    HW217352   3.319   2.264   7.274
 5489SOL     OW17353   2.835   2.757   7.159
 5489SOL    HW117354   2.881   2.680   7.127
 5489SOL    HW217355   2.785   2.789   7.084
 5490SOL     OW17356   2.854   2.259   6.836
 5490SOL    HW117357   2.769   2.290   6.867
 5490SOL    HW217358   2.834   2.215   6.753
 5491SOL     OW17359   2.935   2.571   6.013
 5491SOL    HW117360   2.947   2.553   6.106
 5491SOL    HW217361   2.853   2.527   5.990
 5492SOL     OW17362   1.982   3.702   7.161
 5492SOL    HW117363   1.984   3.684   7.255
 5492SOL    HW217364   1.889   3.712   7.141
 5493SOL     OW17365   2.764   2.226   5.780
 5493SOL    HW117366   2.806   2.271   5.707
 5493SOL    HW217367   2.749   2.137   5.747
 5494SOL     OW17368   3.577   2.437   7.414
 5494SOL    HW117369   3.535   2.509   7.367
 5494SOL    HW217370   3.596   2.372   7.346
 5495SOL     OW17371   3.236   3.000   6.128
 5495SOL    HW117372   3.316   2.987   6.078
 5495SOL    HW217373   3.185   3.064   6.076
 5496SOL     OW17374   2.406   2.046   6.535
 5496SOL    HW117375   2.358   2.075   6.612
 5496SOL    HW217376   2.403   2.120   6.475
 5497SOL     OW17377   2.864   3.306   6.057
 5497SOL    HW117378   2.829   3.380   6.008
 5497SOL    HW217379   2.846   3.327   6.149
 5498SOL     OW17380   2.213   3.673   6.426
 5498SOL    HW117381   2.264   3.594   6.444
 5498SOL    HW217382   2.273   3.745   6.448
 5499SOL     OW17383   3.667   2.922   6.453
 5499SOL    HW117384   3.612   2.898   6.378
 5499SOL    HW217385   3.606   2.926   6.527
 5500SOL     OW17386   3.088   3.399   7.098
 5500SOL    HW117387   3.076   3.328   7.160
 5500SOL    HW217388   3.023   3.383   7.030
 5501SOL     OW17389   2.179   2.803   5.838
 5501SOL    HW117390   2.255   2.829   5.787
 5501SOL    HW217391   2.148   2.723   5.796
 5502SOL     OW17392   3.338   2.608   6.317
 5502SOL    HW117393   3.337   2.567   6.404
 5502SOL    HW217394   3.416   2.663   6.317
 5503SOL     OW17395   2.331   3.131   7.331
 5503SOL    HW117396   2.306   3.140   7.238
 5503SOL    HW217397   2.247   3.127   7.377
 5504SOL     OW17398   2.976   3.643   5.808
 5504SOL    HW117399   2.912   3.598   5.862
 5504SOL    HW217400   3.006   3.578   5.745
 5505SOL     OW17401   3.486   3.247   5.675
 5505SOL    HW117402   3.443   3.330   5.657
 5505SOL    HW217403   3.420   3.181   5.655
 5506SOL     OW17404   2.329   3.597   5.911
 5506SOL    HW117405   2.367   3.662   5.970
 5506SOL    HW217406   2.402   3.572   5.854
 5507SOL     OW17407   3.267   1.969   6.020
 5507SOL    HW117408   3.260   1.946   5.928
 5507SOL    HW217409   3.362   1.973   6.036
 5508SOL     OW17410   2.121   3.653   6.810
 5508SOL    HW117411   2.171   3.585   6.854
 5508SOL    HW217412   2.108   3.619   6.721
 5509SOL     OW17413   2.799   3.564   6.486
 5509SOL    HW117414   2.873   3.510   6.512
 5509SOL    HW217415   2.756   3.514   6.416
 5510SOL     OW17416   3.394   2.088   7.310
 5510SOL    HW117417   3.403   2.107   7.404
 5510SOL    HW217418   3.319   2.029   7.305
 5511SOL     OW17419   2.533   1.986   5.676
 5511SOL    HW117420   2.562   1.912   5.728
 5511SOL    HW217421   2.468   1.950   5.616
 5512SOL     OW17422   2.738   3.383   6.781
 5512SOL    HW117423   2.722   3.346   6.695
 5512SOL    HW217424   2.807   3.328   6.818
 5513SOL     OW17425   3.200   2.457   7.019
 5513SOL    HW117426   3.232   2.422   7.103
 5513SOL    HW217427   3.240   2.543   7.013
 5514SOL     OW17428   2.678   3.261   6.528
 5514SOL    HW117429   2.762   3.247   6.485
 5514SOL    HW217430   2.614   3.260   6.457
 5515SOL     OW17431   3.290   3.062   5.626
 5515SOL    HW117432   3.321   2.986   5.676
 5515SOL    HW217433   3.204   3.082   5.664
 5516SOL     OW17434   2.864   2.070   6.008
 5516SOL    HW117435   2.798   2.128   5.969
 5516SOL    HW217436   2.945   2.123   6.009
 5517SOL     OW17437   2.935   2.524   7.045
 5517SOL    HW117438   2.895   2.446   7.081
 5517SOL    HW217439   3.028   2.502   7.035
 5518SOL     OW17440   3.085   3.431   6.378
 5518SOL    HW117441   3.101   3.500   6.313
 5518SOL    HW217442   3.153   3.445   6.444
 5519SOL     OW17443   2.337   3.024   6.305
 5519SOL    HW117444   2.267   3.006   6.368
 5519SOL    HW217445   2.301   2.996   6.221
 5520SOL     OW17446   3.128   3.657   6.194
 5520SOL    HW117447   3.174   3.721   6.141
 5520SOL    HW217448   3.055   3.705   6.233
 5521SOL     OW17449   2.893   2.404   5.601
 5521SOL    HW117450   2.845   2.487   5.590
 5521SOL    HW217451   2.950   2.420   5.677
 5522SOL     OW17452   3.302   3.025   6.443
 5522SOL    HW117453   3.234   2.958   6.443
 5522SOL    HW217454   3.327   3.033   6.351
 5523SOL     OW17455   3.329   2.464   6.570
 5523SOL    HW117456   3.288   2.379   6.587
 5523SOL    HW217457   3.395   2.472   6.639
 5524SOL     OW17458   3.724   2.678   5.960
 5524SOL    HW117459   3.767   2.623   6.024
 5524SOL    HW217460   3.685   2.617   5.897
 5525SOL     OW17461   2.352   3.280   5.740
 5525SOL    HW117462   2.277   3.252   5.792
 5525SOL    HW217463   2.340   3.237   5.655
 5526SOL     OW17464   3.529   3.127   6.230
 5526SOL    HW117465   3.624   3.129   6.240
 5526SOL    HW217466   3.500   3.216   6.251
 5527SOL     OW17467   3.259   2.435   5.655
 5527SOL    HW117468   3.194   2.416   5.723
 5527SOL    HW217469   3.340   2.398   5.689
 5528SOL     OW17470   3.613   3.097   7.151
 5528SOL    HW117471   3.700   3.061   7.134
 5528SOL    HW217472   3.629   3.186   7.181
 5529SOL     OW17473   2.918   3.218   6.923
 5529SOL    HW117474   2.843   3.182   6.972
 5529SOL    HW217475   2.994   3.175   6.962
 5530SOL     OW17476   3.469   3.492   7.243
 5530SOL    HW117477   3.459   3.525   7.154
 5530SOL    HW217478   3.550   3.440   7.241
 5531SOL     OW17479   2.997   3.072   6.689
 5531SOL    HW117480   2.931   3.095   6.755
 5531SOL    HW217481   2.959   3.100   6.606
 5532SOL     OW17482   3.492   2.959   6.661
 5532SOL    HW117483   3.483   3.020   6.734
 5532SOL    HW217484   3.414   2.975   6.607
 5533SOL     OW17485   2.852   2.977   7.312
 5533SOL    HW117486   2.759   2.991   7.330
 5533SOL    HW217487   2.854   2.902   7.252
 5534SOL     OW17488   2.568   2.930   5.944
 5534SOL    HW117489   2.546   2.912   6.035
 5534SOL    HW217490   2.645   2.876   5.926
 5535SOL     OW17491   3.127   2.249   6.851
 5535SOL    HW117492   3.156   2.321   6.907
 5535SOL    HW217493   3.032   2.261   6.845
 5536SOL     OW17494   1.934   3.434   6.935
 5536SOL    HW117495   1.906   3.511   6.887
 5536SOL    HW217496   2.030   3.438   6.934
 5537SOL     OW17497   2.215   2.965   6.066
 5537SOL    HW117498   2.214   3.044   6.013
 5537SOL    HW217499   2.206   2.894   6.002
 5538SOL     OW17500   3.109   3.211   5.976
 5538SOL    HW117501   3.165   3.282   6.007
 5538SOL    HW217502   3.022   3.233   6.010
 5539SOL     OW17503   3.145   3.322   6.733
 5539SOL    HW117504   3.199   3.323   6.811
 5539SOL    HW217505   3.090   3.244   6.742
 5540SOL     OW17506   3.442   2.480   6.074
 5540SOL    HW117507   3.392   2.539   6.131
 5540SOL    HW217508   3.485   2.537   6.011
 5541SOL     OW17509   2.209   3.389   6.898
 5541SOL    HW117510   2.198   3.346   6.813
 5541SOL    HW217511   2.304   3.402   6.906
 5542SOL     OW17512   3.468   2.642   7.271
 5542SOL    HW117513   3.382   2.682   7.266
 5542SOL    HW217514   3.519   2.685   7.202
 5543SOL     OW17515   2.378   1.911   7.317
 5543SOL    HW117516   2.322   1.840   7.286
 5543SOL    HW217517   2.322   1.961   7.377
 5544SOL     OW17518   3.226   2.724   6.613
 5544SOL    HW117519   3.135   2.711   6.586
 5544SOL    HW217520   3.263   2.635   6.612
 5545SOL     OW17521   3.066   2.396   5.843
 5545SOL    HW117522   3.080   2.318   5.897
 5545SOL    HW217523   3.026   2.460   5.902
 5546SOL     OW17524   1.902   3.171   6.870
 5546SOL    HW117525   1.949   3.125   6.940
 5546SOL    HW217526   1.911   3.264   6.892
 5547SOL     OW17527   3.593   2.823   7.447
 5547SOL    HW117528   3.553   2.757   7.390
 5547SOL    HW217529   3.529   2.836   7.517
 5548SOL     OW17530   3.484   2.239   5.950
 5548SOL    HW117531   3.509   2.172   6.014
 5548SOL    HW217532   3.459   2.314   6.004
 5549SOL     OW17533   2.848   3.432   7.307
 5549SOL    HW117534   2.829   3.472   7.222
 5549SOL    HW217535   2.888   3.348   7.285
 5550SOL     OW17536   3.705   3.361   7.184
 5550SOL    HW117537   3.729   3.390   7.096
 5550SOL    HW217538   3.785   3.371   7.235
 5551SOL     OW17539   3.394   2.141   5.712
 5551SOL    HW117540   3.331   2.073   5.735
 5551SOL    HW217541   3.426   2.174   5.795
 5552SOL     OW17542   3.152   2.688   5.617
 5552SOL    HW117543   3.194   2.603   5.620
 5552SOL    HW217544   3.184   2.727   5.535
 5553SOL     OW17545   2.925   3.203   6.437
 5553SOL    HW117546   2.932   3.130   6.376
 5553SOL    HW217547   2.988   3.267   6.404
 5554SOL     OW17548   2.322   2.333   6.587
 5554SOL    HW117549   2.228   2.349   6.597
 5554SOL    HW217550   2.344   2.373   6.503
 5555SOL     OW17551   3.003   2.264   7.236
 5555SOL    HW117552   2.953   2.302   7.309
 5555SOL    HW217553   3.092   2.297   7.248
 5556SOL     OW17554   3.042   2.047   7.069
 5556SOL    HW117555   3.015   2.115   7.131
 5556SOL    HW217556   3.060   2.095   6.988
 5557SOL     OW17557   1.868   3.180   5.779
 5557SOL    HW117558   1.781   3.196   5.744
 5557SOL    HW217559   1.864   3.090   5.812
 5558SOL     OW17560   1.959   3.641   6.524
 5558SOL    HW117561   1.928   3.562   6.479
 5558SOL    HW217562   2.044   3.659   6.485
 5559SOL     OW17563   2.356   3.437   6.491
 5559SOL    HW117564   2.424   3.500   6.516
 5559SOL    HW217565   2.402   3.375   6.434
 5560SOL     OW17566   2.860   2.642   6.800
 5560SOL    HW117567   2.904   2.605   6.877
 5560SOL    HW217568   2.773   2.666   6.830
 5561SOL     OW17569   3.241   2.798   7.245
 5561SOL    HW117570   3.261   2.892   7.242
 5561SOL    HW217571   3.237   2.772   7.153
 5562SOL     OW17572   2.708   2.466   5.929
 5562SOL    HW117573   2.703   2.378   5.893
 5562SOL    HW217574   2.623   2.505   5.907
 5563SOL     OW17575   3.507   2.470   6.772
 5563SOL    HW117576   3.493   2.408   6.843
 5563SOL    HW217577   3.593   2.446   6.736
 5564SOL     OW17578   2.102   3.412   7.310
 5564SOL    HW117579   2.082   3.480   7.374
 5564SOL    HW217580   2.111   3.332   7.362
 5565SOL     OW17581   2.571   2.312   6.836
 5565SOL    HW117582   2.500   2.250   6.855
 5565SOL    HW217583   2.530   2.377   6.779
 5566SOL     OW17584   2.787   3.536   7.057
 5566SOL    HW117585   2.764   3.495   6.973
 5566SOL    HW217586   2.778   3.630   7.041
 5567SOL     OW17587   2.025   2.994   7.048
 5567SOL    HW117588   2.040   2.942   7.127
 5567SOL    HW217589   1.976   2.936   6.990
 5568SOL     OW17590   3.188   2.910   6.809
 5568SOL    HW117591   3.213   2.848   6.740
 5568SOL    HW217592   3.119   2.963   6.768
 5569SOL     OW17593   3.172   2.718   5.893
 5569SOL    HW117594   3.098   2.683   5.943
 5569SOL    HW217595   3.149   2.704   5.802
 5570SOL     OW17596   3.639   3.602   6.741
 5570SOL    HW117597   3.697   3.629   6.669
 5570SOL    HW217598   3.612   3.514   6.718
 5571SOL     OW17599   3.106   3.595   6.695
 5571SOL    HW117600   3.189   3.616   6.653
 5571SOL    HW217601   3.112   3.502   6.716
 5572SOL     OW17602   1.948   3.140   6.603
 5572SOL    HW117603   1.924   3.149   6.695
 5572SOL    HW217604   1.880   3.084   6.565
 5573SOL     OW17605   2.541   3.527   7.321
 5573SOL    HW117606   2.486   3.605   7.322
 5573SOL    HW217607   2.603   3.544   7.249
 5574SOL     OW17608   3.571   2.012   6.097
 5574SOL    HW117609   3.640   1.999   6.032
 5574SOL    HW217610   3.561   1.926   6.138
 5575SOL     OW17611   3.252   3.430   6.073
 5575SOL    HW117612   3.311   3.464   6.006
 5575SOL    HW217613   3.204   3.507   6.104
 5576SOL     OW17614   1.996   3.652   7.424
 5576SOL    HW117615   1.945   3.589   7.474
 5576SOL    HW217616   2.045   3.701   7.491
 5577SOL     OW17617   3.132   2.786   6.261
 5577SOL    HW117618   3.206   2.726   6.271
 5577SOL    HW217619   3.166   2.856   6.207
 5578SOL     OW17620   2.672   3.131   7.015
 5578SOL    HW117621   2.643   3.173   7.096
 5578SOL    HW217622   2.603   3.150   6.951
 5579SOL     OW17623   2.536   3.480   5.743
 5579SOL    HW117624   2.546   3.497   5.650
 5579SOL    HW217625   2.478   3.404   5.748
 5580SOL     OW17626   3.481   3.589   6.976
 5580SOL    HW117627   3.537   3.592   6.898
 5580SOL    HW217628   3.469   3.680   7.001
 5581SOL     OW17629   3.699   2.043   6.552
 5581SOL    HW117630   3.730   1.956   6.528
 5581SOL    HW217631   3.612   2.049   6.512
 5582SOL     OW17632   3.069   3.466   5.622
 5582SOL    HW117633   3.059   3.374   5.646
 5582SOL    HW217634   3.009   3.479   5.549
 5583SOL     OW17635   2.703   2.863   6.944
 5583SOL    HW117636   2.714   2.880   6.850
 5583SOL    HW217637   2.687   2.950   6.981
 5584SOL     OW17638   2.783   2.782   5.886
 5584SOL    HW117639   2.840   2.811   5.814
 5584SOL    HW217640   2.827   2.705   5.922
 5585SOL     OW17641   3.350   3.494   5.628
 5585SOL    HW117642   3.256   3.481   5.612
 5585SOL    HW217643   3.389   3.498   5.541
 5586SOL     OW17644   2.231   3.172   7.085
 5586SOL    HW117645   2.223   3.247   7.026
 5586SOL    HW217646   2.161   3.113   7.059
 5587SOL     OW17647   3.464   3.142   6.863
 5587SOL    HW117648   3.529   3.132   6.933
 5587SOL    HW217649   3.406   3.211   6.896
 5588SOL     OW17650   2.914   2.969   6.297
 5588SOL    HW117651   2.840   2.916   6.324
 5588SOL    HW217652   2.980   2.906   6.268
 5589SOL     OW17653   2.465   3.354   6.064
 5589SOL    HW117654   2.512   3.304   5.997
 5589SOL    HW217655   2.397   3.401   6.016
 5590SOL     OW17656   3.586   2.255   6.963
 5590SOL    HW117657   3.660   2.316   6.959
 5590SOL    HW217658   3.614   2.181   6.909
 5591SOL     OW17659   2.122   3.202   5.877
 5591SOL    HW117660   2.030   3.201   5.853
 5591SOL    HW217661   2.124   3.242   5.964
 5592SOL     OW17662   1.877   2.269   5.631
 5592SOL    HW117663   1.822   2.224   5.568
 5592SOL    HW217664   1.931   2.328   5.579
 5593SOL     OW17665   3.289   2.722   6.986
 5593SOL    HW117666   3.239   2.784   6.932
 5593SOL    HW217667   3.378   2.724   6.949
 5594SOL     OW17668   3.040   3.199   5.703
 5594SOL    HW117669   2.949   3.170   5.705
 5594SOL    HW217670   3.067   3.199   5.795
 5595SOL     OW17671   3.347   3.644   6.569
 5595SOL    HW117672   3.372   3.697   6.493
 5595SOL    HW217673   3.430   3.612   6.603
 5596SOL     OW17674   3.335   3.060   7.217
 5596SOL    HW117675   3.324   3.074   7.311
 5596SOL    HW217676   3.428   3.075   7.201
 5597SOL     OW17677   2.237   3.603   7.151
 5597SOL    HW117678   2.152   3.643   7.135
 5597SOL    HW217679   2.217   3.518   7.190
 5598SOL     OW17680   3.528   2.744   6.846
 5598SOL    HW117681   3.527   2.658   6.805
 5598SOL    HW217682   3.521   2.806   6.773
 5599SOL     OW17683   3.106   2.198   6.032
 5599SOL    HW117684   3.160   2.118   6.030
 5599SOL    HW217685   3.125   2.238   6.116
 5600SOL     OW17686   3.620   2.227   7.235
 5600SOL    HW117687   3.603   2.241   7.142
 5600SOL    HW217688   3.550   2.169   7.264
 5601SOL     OW17689   3.620   2.791   7.099
 5601SOL    HW117690   3.608   2.884   7.117
 5601SOL    HW217691   3.594   2.781   7.007
 5602SOL     OW17692   2.726   3.230   5.624
 5602SOL    HW117693   2.685   3.259   5.706
 5602SOL    HW217694   2.742   3.310   5.575
 5603SOL     OW17695   2.522   3.651   6.526
 5603SOL    HW117696   2.502   3.742   6.504
 5603SOL    HW217697   2.617   3.645   6.521
 5604SOL     OW17698   2.936   2.848   5.674
 5604SOL    HW117699   2.918   2.900   5.596
 5604SOL    HW217700   3.012   2.795   5.650
 5605SOL     OW17701   3.712   3.416   6.427
 5605SOL    HW117702   3.632   3.397   6.377
 5605SOL    HW217703   3.715   3.349   6.495
 5606SOL     OW17704   2.088   3.164   7.449
 5606SOL    HW117705   1.999   3.132   7.434
 5606SOL    HW217706   2.092   3.180   7.543
 5607SOL     OW17707   1.939   3.092   6.247
 5607SOL    HW117708   1.951   3.051   6.333
 5607SOL    HW217709   2.011   3.058   6.194
 5608SOL     OW17710   2.541   3.271   7.208
 5608SOL    HW117711   2.471   3.222   7.250
 5608SOL    HW217712   2.540   3.356   7.251
 5609SOL     OW17713   3.680   2.043   6.825
 5609SOL    HW117714   3.664   1.949   6.829
 5609SOL    HW217715   3.691   2.061   6.731
 5610SOL     OW17716   3.558   3.352   6.682
 5610SOL    HW117717   3.479   3.328   6.634
 5610SOL    HW217718   3.569   3.281   6.746
 5611SOL     OW17719   2.691   3.442   6.262
 5611SOL    HW117720   2.670   3.492   6.183
 5611SOL    HW217721   2.618   3.381   6.272
 5612SOL     OW17722   3.294   2.103   6.691
 5612SOL    HW117723   3.290   2.014   6.727
 5612SOL    HW217724   3.236   2.155   6.747
 5613SOL     OW17725   2.635   3.200   5.902
 5613SOL    HW117726   2.606   3.108   5.903
 5613SOL    HW217727   2.717   3.199   5.951
 5614SOL     OW17728   2.482   3.416   6.869
 5614SOL    HW117729   2.483   3.498   6.920
 5614SOL    HW217730   2.570   3.409   6.834
 5615SOL     OW17731   3.232   1.922   5.747
 5615SOL    HW117732   3.265   1.852   5.691
 5615SOL    HW217733   3.142   1.895   5.769
 5616SOL     OW17734   3.150   2.318   6.272
 5616SOL    HW117735   3.099   2.399   6.273
 5616SOL    HW217736   3.156   2.294   6.365
 5617SOL     OW17737   3.441   2.060   6.463
 5617SOL    HW117738   3.387   2.084   6.539
 5617SOL    HW217739   3.445   2.139   6.410
 5618SOL     OW17740   1.905   2.926   5.890
 5618SOL    HW117741   2.000   2.916   5.881
 5618SOL    HW217742   1.871   2.837   5.885
 5619SOL     OW17743   2.749   3.521   5.929
 5619SOL    HW117744   2.677   3.502   5.868
 5619SOL    HW217745   2.718   3.596   5.979
 5620SOL     OW17746   1.870   2.236   8.088
 5620SOL    HW117747   1.801   2.301   8.080
 5620SOL    HW217748   1.865   2.185   8.007
 5621SOL     OW17749   2.428   3.153   8.625
 5621SOL    HW117750   2.342   3.160   8.586
 5621SOL    HW217751   2.446   3.241   8.660
 5622SOL     OW17752   3.426   3.374   8.156
 5622SOL    HW117753   3.383   3.352   8.239
 5622SOL    HW217754   3.354   3.378   8.093
 5623SOL     OW17755   2.984   2.563   8.149
 5623SOL    HW117756   3.038   2.639   8.130
 5623SOL    HW217757   2.946   2.581   8.235
 5624SOL     OW17758   3.626   2.468   7.678
 5624SOL    HW117759   3.608   2.462   7.584
 5624SOL    HW217760   3.594   2.386   7.715
 5625SOL     OW17761   2.611   3.001   8.490
 5625SOL    HW117762   2.544   3.038   8.548
 5625SOL    HW217763   2.650   3.078   8.447
 5626SOL     OW17764   2.731   2.631   9.271
 5626SOL    HW117765   2.721   2.702   9.335
 5626SOL    HW217766   2.755   2.676   9.189
 5627SOL     OW17767   2.541   2.848   8.110
 5627SOL    HW117768   2.609   2.846   8.178
 5627SOL    HW217769   2.476   2.910   8.144
 5628SOL     OW17770   2.575   3.013   9.262
 5628SOL    HW117771   2.622   3.091   9.291
 5628SOL    HW217772   2.493   3.047   9.225
 5629SOL     OW17773   2.194   3.282   8.515
 5629SOL    HW117774   2.119   3.246   8.468
 5629SOL    HW217775   2.240   3.336   8.450
 5630SOL     OW17776   3.321   3.363   8.805
 5630SOL    HW117777   3.375   3.441   8.815
 5630SOL    HW217778   3.256   3.370   8.875
 5631SOL     OW17779   3.472   2.307   8.192
 5631SOL    HW117780   3.403   2.331   8.130
 5631SOL    HW217781   3.489   2.387   8.242
 5632SOL     OW17782   2.084   3.577   7.927
 5632SOL    HW117783   2.113   3.637   7.995
 5632SOL    HW217784   2.157   3.576   7.864
 5633SOL     OW17785   2.999   3.204   9.142
 5633SOL    HW117786   3.041   3.197   9.228
 5633SOL    HW217787   2.947   3.124   9.134
 5634SOL     OW17788   2.091   3.302   7.980
 5634SOL    HW117789   2.076   3.396   7.985
 5634SOL    HW217790   2.033   3.264   8.046
 5635SOL     OW17791   2.127   2.958   8.342
 5635SOL    HW117792   2.116   2.870   8.377
 5635SOL    HW217793   2.066   3.012   8.392
 5636SOL     OW17794   2.470   3.648   8.876
 5636SOL    HW117795   2.389   3.633   8.924
 5636SOL    HW217796   2.496   3.736   8.900
 5637SOL     OW17797   3.456   1.988   8.914
 5637SOL    HW117798   3.472   2.069   8.866
 5637SOL    HW217799   3.442   2.015   9.004
 5638SOL     OW17800   3.700   3.613   7.790
 5638SOL    HW117801   3.771   3.588   7.849
 5638SOL    HW217802   3.719   3.704   7.766
 5639SOL     OW17803   1.893   3.452   7.570
 5639SOL    HW117804   1.875   3.361   7.593
 5639SOL    HW217805   1.872   3.501   7.649
 5640SOL     OW17806   3.549   2.780   8.094
 5640SOL    HW117807   3.632   2.736   8.075
 5640SOL    HW217808   3.529   2.829   8.015
 5641SOL     OW17809   3.503   2.966   7.881
 5641SOL    HW117810   3.588   2.970   7.836
 5641SOL    HW217811   3.510   3.029   7.952
 5642SOL     OW17812   1.987   2.595   9.039
 5642SOL    HW117813   2.079   2.616   9.052
 5642SOL    HW217814   1.941   2.678   9.049
 5643SOL     OW17815   2.478   3.252   8.182
 5643SOL    HW117816   2.432   3.168   8.192
 5643SOL    HW217817   2.461   3.278   8.092
 5644SOL     OW17818   3.149   3.099   8.871
 5644SOL    HW117819   3.181   3.032   8.810
 5644SOL    HW217820   3.208   3.094   8.946
 5645SOL     OW17821   2.705   1.880   7.990
 5645SOL    HW117822   2.725   1.938   7.917
 5645SOL    HW217823   2.619   1.844   7.971
 5646SOL     OW17824   2.052   2.828   8.724
 5646SOL    HW117825   2.135   2.785   8.704
 5646SOL    HW217826   1.986   2.777   8.676
 5647SOL     OW17827   3.392   2.858   7.648
 5647SOL    HW117828   3.323   2.800   7.679
 5647SOL    HW217829   3.432   2.893   7.728
 5648SOL     OW17830   3.080   3.666   9.075
 5648SOL    HW117831   3.056   3.727   9.005
 5648SOL    HW217832   3.081   3.580   9.033
 5649SOL     OW17833   3.327   3.283   8.396
 5649SOL    HW117834   3.260   3.297   8.464
 5649SOL    HW217835   3.316   3.191   8.371
 5650SOL     OW17836   3.509   3.606   8.028
 5650SOL    HW117837   3.501   3.572   7.939
 5650SOL    HW217838   3.492   3.531   8.085
 5651SOL     OW17839   3.137   2.220   8.383
 5651SOL    HW117840   3.050   2.182   8.392
 5651SOL    HW217841   3.192   2.168   8.441
 5652SOL     OW17842   3.436   3.539   7.756
 5652SOL    HW117843   3.528   3.562   7.751
 5652SOL    HW217844   3.411   3.519   7.666
 5653SOL     OW17845   2.655   2.479   8.896
 5653SOL    HW117846   2.632   2.456   8.987
 5653SOL    HW217847   2.607   2.415   8.843
 5654SOL     OW17848   3.256   2.336   9.126
 5654SOL    HW117849   3.259   2.380   9.211
 5654SOL    HW217850   3.314   2.260   9.136
 5655SOL     OW17851   2.813   2.748   9.032
 5655SOL    HW117852   2.870   2.680   8.995
 5655SOL    HW217853   2.767   2.784   8.956
 5656SOL     OW17854   2.859   2.278   8.684
 5656SOL    HW117855   2.777   2.297   8.730
 5656SOL    HW217856   2.833   2.226   8.608
 5657SOL     OW17857   2.913   2.558   7.876
 5657SOL    HW117858   2.933   2.557   7.969
 5657SOL    HW217859   2.833   2.506   7.868
 5658SOL     OW17860   1.952   2.695   8.219
 5658SOL    HW117861   2.034   2.686   8.269
 5658SOL    HW217862   1.909   2.772   8.256
 5659SOL     OW17863   1.983   3.708   9.024
 5659SOL    HW117864   1.986   3.687   9.118
 5659SOL    HW217865   1.890   3.705   9.002
 5660SOL     OW17866   3.571   2.435   9.277
 5660SOL    HW117867   3.533   2.509   9.228
 5660SOL    HW217868   3.596   2.372   9.210
 5661SOL     OW17869   3.238   3.002   7.989
 5661SOL    HW117870   3.317   2.989   7.938
 5661SOL    HW217871   3.186   3.064   7.938
 5662SOL     OW17872   2.452   2.063   8.357
 5662SOL    HW117873   2.358   2.066   8.372
 5662SOL    HW217874   2.473   2.147   8.316
 5663SOL     OW17875   2.867   3.311   7.917
 5663SOL    HW117876   2.833   3.387   7.871
 5663SOL    HW217877   2.845   3.326   8.009
 5664SOL     OW17878   2.213   3.673   8.286
 5664SOL    HW117879   2.263   3.594   8.305
 5664SOL    HW217880   2.272   3.745   8.310
 5665SOL     OW17881   3.667   2.922   8.316
 5665SOL    HW117882   3.614   2.897   8.240
 5665SOL    HW217883   3.606   2.926   8.388
 5666SOL     OW17884   3.089   3.399   8.960
 5666SOL    HW117885   3.076   3.327   9.021
 5666SOL    HW217886   3.022   3.387   8.893
 5667SOL     OW17887   3.339   2.609   8.177
 5667SOL    HW117888   3.338   2.566   8.262
 5667SOL    HW217889   3.419   2.663   8.178
 5668SOL     OW17890   2.329   3.127   9.185
 5668SOL    HW117891   2.303   3.132   9.093
 5668SOL    HW217892   2.247   3.125   9.234
 5669SOL     OW17893   2.976   3.643   7.670
 5669SOL    HW117894   2.912   3.597   7.723
 5669SOL    HW217895   3.006   3.578   7.607
 5670SOL     OW17896   3.486   3.247   7.537
 5670SOL    HW117897   3.443   3.331   7.519
 5670SOL    HW217898   3.420   3.181   7.518
 5671SOL     OW17899   2.329   3.596   7.773
 5671SOL    HW117900   2.367   3.662   7.832
 5671SOL    HW217901   2.401   3.572   7.715
 5672SOL     OW17902   3.266   1.967   7.888
 5672SOL    HW117903   3.262   1.946   7.795
 5672SOL    HW217904   3.359   1.977   7.906
 5673SOL     OW17905   2.122   3.654   8.671
 5673SOL    HW117906   2.169   3.583   8.717
 5673SOL    HW217907   2.106   3.619   8.584
 5674SOL     OW17908   2.801   3.563   8.348
 5674SOL    HW117909   2.879   3.511   8.368
 5674SOL    HW217910   2.757   3.513   8.278
 5675SOL     OW17911   3.395   2.087   9.173
 5675SOL    HW117912   3.405   2.107   9.266
 5675SOL    HW217913   3.327   2.019   9.171
 5676SOL     OW17914   2.627   2.145   9.203
 5676SOL    HW117915   2.705   2.089   9.199
 5676SOL    HW217916   2.577   2.113   9.277
 5677SOL     OW17917   2.738   3.382   8.643
 5677SOL    HW117918   2.722   3.347   8.555
 5677SOL    HW217919   2.809   3.328   8.678
 5678SOL     OW17920   3.202   2.452   8.881
 5678SOL    HW117921   3.233   2.420   8.966
 5678SOL    HW217922   3.239   2.539   8.873
 5679SOL     OW17923   2.679   3.253   8.391
 5679SOL    HW117924   2.764   3.243   8.347
 5679SOL    HW217925   2.616   3.259   8.319
 5680SOL     OW17926   2.790   2.367   8.357
 5680SOL    HW117927   2.772   2.361   8.263
 5680SOL    HW217928   2.823   2.280   8.380
 5681SOL     OW17929   3.290   3.062   7.489
 5681SOL    HW117930   3.322   2.985   7.537
 5681SOL    HW217931   3.203   3.079   7.524
 5682SOL     OW17932   2.944   2.545   8.907
 5682SOL    HW117933   2.879   2.476   8.915
 5682SOL    HW217934   3.028   2.499   8.902
 5683SOL     OW17935   3.082   3.434   8.243
 5683SOL    HW117936   3.098   3.500   8.176
 5683SOL    HW217937   3.153   3.445   8.306
 5684SOL     OW17938   2.332   3.015   8.179
 5684SOL    HW117939   2.266   2.998   8.245
 5684SOL    HW217940   2.286   3.004   8.095
 5685SOL     OW17941   3.128   3.657   8.056
 5685SOL    HW117942   3.174   3.721   8.003
 5685SOL    HW217943   3.055   3.706   8.095
 5686SOL     OW17944   2.923   2.424   7.454
 5686SOL    HW117945   2.870   2.504   7.452
 5686SOL    HW217946   2.961   2.423   7.542
 5687SOL     OW17947   1.938   2.425   8.833
 5687SOL    HW117948   2.032   2.418   8.814
 5687SOL    HW217949   1.933   2.483   8.908
 5688SOL     OW17950   2.874   1.920   8.204
 5688SOL    HW117951   2.817   1.912   8.127
 5688SOL    HW217952   2.856   1.843   8.256
 5689SOL     OW17953   3.302   3.024   8.305
 5689SOL    HW117954   3.230   2.961   8.302
 5689SOL    HW217955   3.329   3.033   8.214
 5690SOL     OW17956   3.326   2.471   8.423
 5690SOL    HW117957   3.276   2.389   8.425
 5690SOL    HW217958   3.386   2.464   8.497
 5691SOL     OW17959   3.723   2.679   7.823
 5691SOL    HW117960   3.767   2.622   7.887
 5691SOL    HW217961   3.685   2.618   7.760
 5692SOL     OW17962   2.353   3.282   7.603
 5692SOL    HW117963   2.277   3.252   7.652
 5692SOL    HW217964   2.351   3.231   7.522
 5693SOL     OW17965   3.529   3.127   8.093
 5693SOL    HW117966   3.624   3.129   8.102
 5693SOL    HW217967   3.501   3.216   8.113
 5694SOL     OW17968   3.259   2.434   7.520
 5694SOL    HW117969   3.192   2.415   7.585
 5694SOL    HW217970   3.339   2.396   7.555
 5695SOL     OW17971   3.613   3.096   9.014
 5695SOL    HW117972   3.700   3.061   8.996
 5695SOL    HW217973   3.629   3.186   9.043
 5696SOL     OW17974   2.919   3.213   8.779
 5696SOL    HW117975   2.844   3.183   8.831
 5696SOL    HW217976   2.995   3.173   8.821
 5697SOL     OW17977   3.469   3.491   9.105
 5697SOL    HW117978   3.459   3.524   9.015
 5697SOL    HW217979   3.549   3.440   9.102
 5698SOL     OW17980   2.991   3.066   8.551
 5698SOL    HW117981   2.935   3.107   8.616
 5698SOL    HW217982   2.962   3.103   8.468
 5699SOL     OW17983   3.490   2.958   8.523
 5699SOL    HW117984   3.481   3.019   8.596
 5699SOL    HW217985   3.413   2.974   8.468
 5700SOL     OW17986   2.789   1.955   8.842
 5700SOL    HW117987   2.811   1.936   8.751
 5700SOL    HW217988   2.868   1.994   8.878
 5701SOL     OW17989   2.846   2.977   9.171
 5701SOL    HW117990   2.755   2.993   9.193
 5701SOL    HW217991   2.843   2.898   9.116
 5702SOL     OW17992   2.624   2.966   7.874
 5702SOL    HW117993   2.599   2.922   7.955
 5702SOL    HW217994   2.681   2.903   7.829
 5703SOL     OW17995   2.280   2.672   8.698
 5703SOL    HW117996   2.348   2.688   8.763
 5703SOL    HW217997   2.242   2.588   8.723
 5704SOL     OW17998   3.129   2.239   8.726
 5704SOL    HW117999   3.162   2.316   8.772
 5704SOL    HW218000   3.039   2.261   8.703
 5705SOL     OW18001   1.934   3.435   8.802
 5705SOL    HW118002   1.906   3.510   8.749
 5705SOL    HW218003   2.030   3.437   8.797
 5706SOL     OW18004   2.205   2.978   7.935
 5706SOL    HW118005   2.211   3.055   7.879
 5706SOL    HW218006   2.251   2.909   7.886
 5707SOL     OW18007   2.423   2.382   8.300
 5707SOL    HW118008   2.427   2.450   8.233
 5707SOL    HW218009   2.470   2.419   8.375
 5708SOL     OW18010   3.110   3.210   7.839
 5708SOL    HW118011   3.166   3.282   7.870
 5708SOL    HW218012   3.023   3.232   7.871
 5709SOL     OW18013   3.147   3.322   8.597
 5709SOL    HW118014   3.204   3.326   8.673
 5709SOL    HW218015   3.091   3.245   8.613
 5710SOL     OW18016   3.442   2.481   7.933
 5710SOL    HW118017   3.393   2.538   7.991
 5710SOL    HW218018   3.483   2.540   7.870
 5711SOL     OW18019   2.207   3.391   8.760
 5711SOL    HW118020   2.196   3.347   8.676
 5711SOL    HW218021   2.302   3.402   8.768
 5712SOL     OW18022   2.284   2.605   9.057
 5712SOL    HW118023   2.342   2.649   8.995
 5712SOL    HW218024   2.333   2.529   9.086
 5713SOL     OW18025   3.466   2.641   9.131
 5713SOL    HW118026   3.381   2.684   9.125
 5713SOL    HW218027   3.519   2.684   9.064
 5714SOL     OW18028   2.855   1.990   9.196
 5714SOL    HW118029   2.916   2.062   9.177
 5714SOL    HW218030   2.905   1.911   9.174
 5715SOL     OW18031   2.360   1.899   9.210
 5715SOL    HW118032   2.312   1.849   9.145
 5715SOL    HW218033   2.299   1.967   9.238
 5716SOL     OW18034   2.447   2.737   8.479
 5716SOL    HW118035   2.482   2.826   8.478
 5716SOL    HW218036   2.391   2.733   8.557
 5717SOL     OW18037   3.216   2.721   8.475
 5717SOL    HW118038   3.135   2.710   8.427
 5717SOL    HW218039   3.260   2.636   8.468
 5718SOL     OW18040   3.065   2.392   7.710
 5718SOL    HW118041   3.077   2.315   7.765
 5718SOL    HW218042   3.024   2.457   7.768
 5719SOL     OW18043   1.909   3.173   8.724
 5719SOL    HW118044   1.941   3.119   8.796
 5719SOL    HW218045   1.914   3.262   8.757
 5720SOL     OW18046   2.577   2.488   8.503
 5720SOL    HW118047   2.658   2.474   8.453
 5720SOL    HW218048   2.555   2.580   8.487
 5721SOL     OW18049   3.592   2.822   9.309
 5721SOL    HW118050   3.552   2.757   9.251
 5721SOL    HW218051   3.529   2.835   9.379
 5722SOL     OW18052   3.483   2.238   7.813
 5722SOL    HW118053   3.509   2.173   7.877
 5722SOL    HW218054   3.459   2.315   7.865
 5723SOL     OW18055   2.890   2.619   8.410
 5723SOL    HW118056   2.886   2.639   8.503
 5723SOL    HW218057   2.867   2.526   8.404
 5724SOL     OW18058   2.847   3.430   9.169
 5724SOL    HW118059   2.828   3.471   9.084
 5724SOL    HW218060   2.889   3.347   9.146
 5725SOL     OW18061   3.705   3.361   9.046
 5725SOL    HW118062   3.729   3.390   8.958
 5725SOL    HW218063   3.785   3.371   9.097
 5726SOL     OW18064   2.215   2.777   9.260
 5726SOL    HW118065   2.297   2.800   9.304
 5726SOL    HW218066   2.241   2.718   9.190
 5727SOL     OW18067   3.394   2.138   7.574
 5727SOL    HW118068   3.331   2.071   7.600
 5727SOL    HW218069   3.426   2.173   7.657
 5728SOL     OW18070   3.153   2.690   7.481
 5728SOL    HW118071   3.190   2.601   7.482
 5728SOL    HW218072   3.182   2.728   7.398
 5729SOL     OW18073   2.930   3.200   8.305
 5729SOL    HW118074   2.934   3.127   8.242
 5729SOL    HW218075   2.989   3.265   8.269
 5730SOL     OW18076   2.174   2.681   8.390
 5730SOL    HW118077   2.267   2.706   8.383
 5730SOL    HW218078   2.175   2.598   8.436
 5731SOL     OW18079   2.996   2.238   9.130
 5731SOL    HW118080   2.948   2.291   9.193
 5731SOL    HW218081   3.083   2.276   9.128
 5732SOL     OW18082   3.026   2.064   8.918
 5732SOL    HW118083   3.014   2.126   8.990
 5732SOL    HW218084   3.069   2.115   8.850
 5733SOL     OW18085   1.864   3.180   7.640
 5733SOL    HW118086   1.777   3.198   7.604
 5733SOL    HW218087   1.857   3.092   7.676
 5734SOL     OW18088   1.959   3.640   8.386
 5734SOL    HW118089   1.928   3.562   8.341
 5734SOL    HW218090   2.044   3.659   8.346
 5735SOL     OW18091   2.356   3.438   8.353
 5735SOL    HW118092   2.423   3.501   8.378
 5735SOL    HW218093   2.401   3.376   8.296
 5736SOL     OW18094   2.840   2.651   8.674
 5736SOL    HW118095   2.902   2.632   8.744
 5736SOL    HW218096   2.756   2.618   8.707
 5737SOL     OW18097   1.885   2.394   8.566
 5737SOL    HW118098   1.964   2.395   8.512
 5737SOL    HW218099   1.917   2.411   8.655
 5738SOL     OW18100   3.241   2.799   9.106
 5738SOL    HW118101   3.262   2.892   9.103
 5738SOL    HW218102   3.238   2.772   9.014
 5739SOL     OW18103   3.502   2.463   8.632
 5739SOL    HW118104   3.492   2.403   8.705
 5739SOL    HW218105   3.588   2.443   8.596
 5740SOL     OW18106   2.105   3.411   9.173
 5740SOL    HW118107   2.081   3.478   9.237
 5740SOL    HW218108   2.107   3.329   9.223
 5741SOL     OW18109   2.537   2.321   8.712
 5741SOL    HW118110   2.522   2.233   8.677
 5741SOL    HW218111   2.548   2.376   8.634
 5742SOL     OW18112   2.789   3.534   8.917
 5742SOL    HW118113   2.762   3.496   8.833
 5742SOL    HW218114   2.781   3.628   8.905
 5743SOL     OW18115   2.006   3.004   8.923
 5743SOL    HW118116   2.006   2.953   9.004
 5743SOL    HW218117   2.023   2.940   8.854
 5744SOL     OW18118   3.183   2.907   8.670
 5744SOL    HW118119   3.208   2.844   8.602
 5744SOL    HW218120   3.115   2.961   8.630
 5745SOL     OW18121   3.177   2.717   7.754
 5745SOL    HW118122   3.098   2.691   7.801
 5745SOL    HW218123   3.155   2.705   7.662
 5746SOL     OW18124   3.639   3.603   8.603
 5746SOL    HW118125   3.697   3.629   8.531
 5746SOL    HW218126   3.612   3.514   8.580
 5747SOL     OW18127   3.106   3.595   8.557
 5747SOL    HW118128   3.189   3.617   8.514
 5747SOL    HW218129   3.112   3.502   8.577
 5748SOL     OW18130   1.949   3.132   8.459
 5748SOL    HW118131   1.931   3.144   8.553
 5748SOL    HW218132   1.879   3.075   8.428
 5749SOL     OW18133   2.540   3.526   9.181
 5749SOL    HW118134   2.484   3.603   9.185
 5749SOL    HW218135   2.601   3.546   9.109
 5750SOL     OW18136   3.572   2.012   7.960
 5750SOL    HW118137   3.639   2.000   7.894
 5750SOL    HW218138   3.562   1.925   8.000
 5751SOL     OW18139   3.252   3.431   7.936
 5751SOL    HW118140   3.311   3.463   7.868
 5751SOL    HW218141   3.204   3.508   7.966
 5752SOL     OW18142   1.997   3.652   9.286
 5752SOL    HW118143   1.945   3.588   9.335
 5752SOL    HW218144   2.045   3.700   9.353
 5753SOL     OW18145   3.137   2.785   8.116
 5753SOL    HW118146   3.212   2.727   8.128
 5753SOL    HW218147   3.171   2.858   8.064
 5754SOL     OW18148   2.672   3.136   8.876
 5754SOL    HW118149   2.644   3.176   8.959
 5754SOL    HW218150   2.604   3.160   8.814
 5755SOL     OW18151   2.535   3.484   7.606
 5755SOL    HW118152   2.547   3.500   7.512
 5755SOL    HW218153   2.479   3.406   7.611
 5756SOL     OW18154   3.481   3.589   8.838
 5756SOL    HW118155   3.537   3.592   8.760
 5756SOL    HW218156   3.469   3.680   8.862
 5757SOL     OW18157   3.699   2.043   8.415
 5757SOL    HW118158   3.731   1.956   8.390
 5757SOL    HW218159   3.614   2.050   8.374
 5758SOL     OW18160   3.069   3.466   7.484
 5758SOL    HW118161   3.059   3.374   7.509
 5758SOL    HW218162   3.008   3.478   7.411
 5759SOL     OW18163   2.686   2.868   8.820
 5759SOL    HW118164   2.732   2.865   8.737
 5759SOL    HW218165   2.683   2.961   8.843
 5760SOL     OW18166   2.791   2.786   7.752
 5760SOL    HW118167   2.845   2.817   7.680
 5760SOL    HW218168   2.836   2.707   7.784
 5761SOL     OW18169   3.349   3.495   7.490
 5761SOL    HW118170   3.256   3.481   7.474
 5761SOL    HW218171   3.389   3.499   7.403
 5762SOL     OW18172   2.231   3.165   8.939
 5762SOL    HW118173   2.217   3.243   8.884
 5762SOL    HW218174   2.153   3.111   8.925
 5763SOL     OW18175   3.462   3.141   8.725
 5763SOL    HW118176   3.532   3.134   8.790
 5763SOL    HW218177   3.406   3.211   8.759
 5764SOL     OW18178   2.919   2.971   8.160
 5764SOL    HW118179   2.847   2.918   8.196
 5764SOL    HW218180   2.980   2.907   8.124
 5765SOL     OW18181   2.881   2.103   8.413
 5765SOL    HW118182   2.879   2.053   8.331
 5765SOL    HW218183   2.879   2.036   8.482
 5766SOL     OW18184   2.464   3.351   7.927
 5766SOL    HW118185   2.515   3.304   7.861
 5766SOL    HW218186   2.399   3.400   7.878
 5767SOL     OW18187   3.586   2.252   8.826
 5767SOL    HW118188   3.658   2.315   8.823
 5767SOL    HW218189   3.614   2.180   8.770
 5768SOL     OW18190   2.118   3.201   7.734
 5768SOL    HW118191   2.025   3.202   7.712
 5768SOL    HW218192   2.123   3.242   7.821
 5769SOL     OW18193   1.975   2.886   9.169
 5769SOL    HW118194   1.898   2.862   9.220
 5769SOL    HW218195   2.049   2.847   9.216
 5770SOL     OW18196   2.550   2.043   8.942
 5770SOL    HW118197   2.637   2.021   8.910
 5770SOL    HW218198   2.565   2.087   9.026
 5771SOL     OW18199   1.893   2.249   7.427
 5771SOL    HW118200   1.832   2.238   7.355
 5771SOL    HW218201   1.914   2.343   7.427
 5772SOL     OW18202   3.288   2.720   8.847
 5772SOL    HW118203   3.239   2.782   8.793
 5772SOL    HW218204   3.377   2.722   8.810
 5773SOL     OW18205   3.040   3.200   7.566
 5773SOL    HW118206   2.953   3.160   7.567
 5773SOL    HW218207   3.068   3.198   7.658
 5774SOL     OW18208   2.481   2.692   8.879
 5774SOL    HW118209   2.537   2.769   8.866
 5774SOL    HW218210   2.543   2.620   8.890
 5775SOL     OW18211   3.347   3.643   8.431
 5775SOL    HW118212   3.371   3.697   8.355
 5775SOL    HW218213   3.431   3.612   8.465
 5776SOL     OW18214   2.575   2.425   9.149
 5776SOL    HW118215   2.620   2.483   9.210
 5776SOL    HW218216   2.595   2.337   9.181
 5777SOL     OW18217   3.335   3.060   9.078
 5777SOL    HW118218   3.324   3.074   9.172
 5777SOL    HW218219   3.428   3.075   9.062
 5778SOL     OW18220   2.237   3.602   9.013
 5778SOL    HW118221   2.153   3.644   8.997
 5778SOL    HW218222   2.215   3.519   9.054
 5779SOL     OW18223   3.526   2.742   8.707
 5779SOL    HW118224   3.526   2.657   8.663
 5779SOL    HW218225   3.520   2.806   8.635
 5780SOL     OW18226   3.095   2.192   7.899
 5780SOL    HW118227   3.149   2.113   7.896
 5780SOL    HW218228   3.121   2.236   7.981
 5781SOL     OW18229   2.448   2.589   8.118
 5781SOL    HW118230   2.493   2.673   8.115
 5781SOL    HW218231   2.377   2.598   8.054
 5782SOL     OW18232   3.621   2.228   9.098
 5782SOL    HW118233   3.604   2.241   9.005
 5782SOL    HW218234   3.550   2.169   9.127
 5783SOL     OW18235   3.618   2.790   8.961
 5783SOL    HW118236   3.609   2.884   8.979
 5783SOL    HW218237   3.594   2.781   8.869
 5784SOL     OW18238   2.718   3.233   7.483
 5784SOL    HW118239   2.686   3.257   7.570
 5784SOL    HW218240   2.740   3.316   7.441
 5785SOL     OW18241   2.523   3.651   8.387
 5785SOL    HW118242   2.501   3.742   8.366
 5785SOL    HW218243   2.618   3.647   8.382
 5786SOL     OW18244   2.731   2.828   8.307
 5786SOL    HW118245   2.784   2.759   8.346
 5786SOL    HW218246   2.697   2.878   8.381
 5787SOL     OW18247   2.951   2.867   7.545
 5787SOL    HW118248   2.921   2.907   7.464
 5787SOL    HW218249   3.017   2.803   7.517
 5788SOL     OW18250   3.712   3.417   8.289
 5788SOL    HW118251   3.633   3.397   8.238
 5788SOL    HW218252   3.716   3.348   8.355
 5789SOL     OW18253   2.088   3.163   9.304
 5789SOL    HW118254   2.021   3.102   9.272
 5789SOL    HW218255   2.067   3.176   9.396
 5790SOL     OW18256   1.948   3.095   8.115
 5790SOL    HW118257   1.941   3.046   8.197
 5790SOL    HW218258   2.016   3.051   8.065
 5791SOL     OW18259   2.545   3.266   9.078
 5791SOL    HW118260   2.465   3.224   9.109
 5791SOL    HW218261   2.542   3.355   9.115
 5792SOL     OW18262   3.673   2.040   8.686
 5792SOL    HW118263   3.667   1.944   8.689
 5792SOL    HW218264   3.688   2.060   8.594
 5793SOL     OW18265   3.557   3.352   8.545
 5793SOL    HW118266   3.479   3.328   8.496
 5793SOL    HW218267   3.570   3.281   8.607
 5794SOL     OW18268   2.200   2.407   8.734
 5794SOL    HW118269   2.198   2.327   8.787
 5794SOL    HW218270   2.272   2.393   8.673
 5795SOL     OW18271   2.691   3.441   8.125
 5795SOL    HW118272   2.674   3.494   8.047
 5795SOL    HW218273   2.616   3.381   8.130
 5796SOL     OW18274   3.293   2.090   8.564
 5796SOL    HW118275   3.316   2.008   8.607
 5796SOL    HW218276   3.243   2.138   8.630
 5797SOL     OW18277   2.873   1.882   8.587
 5797SOL    HW118278   2.817   1.814   8.548
 5797SOL    HW218279   2.960   1.842   8.588
 5798SOL     OW18280   2.645   3.213   7.763
 5798SOL    HW118281   2.620   3.122   7.783
 5798SOL    HW218282   2.728   3.226   7.809
 5799SOL     OW18283   2.482   3.415   8.733
 5799SOL    HW118284   2.482   3.496   8.783
 5799SOL    HW218285   2.570   3.409   8.696
 5800SOL     OW18286   3.233   1.916   7.616
 5800SOL    HW118287   3.262   1.857   7.547
 5800SOL    HW218288   3.154   1.876   7.651
 5801SOL     OW18289   3.158   2.325   8.131
 5801SOL    HW118290   3.109   2.407   8.140
 5801SOL    HW218291   3.155   2.286   8.219
 5802SOL     OW18292   3.443   2.060   8.326
 5802SOL    HW118293   3.388   2.084   8.400
 5802SOL    HW218294   3.445   2.138   8.271
 5803SOL     OW18295   1.892   2.930   7.750
 5803SOL    HW118296   1.988   2.931   7.754
 5803SOL    HW218297   1.869   2.838   7.765
 5804SOL     OW18298   2.748   3.523   7.791
 5804SOL    HW118299   2.677   3.503   7.730
 5804SOL    HW218300   2.716   3.598   7.841
 5805SOL     OW18301   2.088   2.505   9.443
 5805SOL    HW118302   2.002   2.482   9.479
 5805SOL    HW218303   2.079   2.490   9.348
 5806SOL     OW18304   1.857   2.278   9.928
 5806SOL    HW118305   1.770   2.276   9.968
 5806SOL    HW218306   1.863   2.198   9.877
 5807SOL     OW18307   2.429   3.154  10.488
 5807SOL    HW118308   2.342   3.160  10.448
 5807SOL    HW218309   2.445   3.242  10.522
 5808SOL     OW18310   3.425   3.374  10.019
 5808SOL    HW118311   3.383   3.352  10.102
 5808SOL    HW218312   3.354   3.378   9.955
 5809SOL     OW18313   2.991   2.561  10.008
 5809SOL    HW118314   3.041   2.641   9.994
 5809SOL    HW218315   2.946   2.575  10.091
 5810SOL     OW18316   3.628   2.468   9.539
 5810SOL    HW118317   3.608   2.460   9.446
 5810SOL    HW218318   3.595   2.387   9.578
 5811SOL     OW18319   2.611   3.001  10.353
 5811SOL    HW118320   2.544   3.038  10.410
 5811SOL    HW218321   2.650   3.077  10.309
 5812SOL     OW18322   2.731   2.631  11.133
 5812SOL    HW118323   2.721   2.702  11.196
 5812SOL    HW218324   2.755   2.676  11.051
 5813SOL     OW18325   2.547   2.860   9.955
 5813SOL    HW118326   2.613   2.851  10.024
 5813SOL    HW218327   2.479   2.914   9.994
 5814SOL     OW18328   2.574   3.013  11.124
 5814SOL    HW118329   2.622   3.091  11.153
 5814SOL    HW218330   2.493   3.047  11.087
 5815SOL     OW18331   2.194   3.283  10.377
 5815SOL    HW118332   2.119   3.247  10.329
 5815SOL    HW218333   2.241   3.336  10.312
 5816SOL     OW18334   3.321   3.363  10.667
 5816SOL    HW118335   3.375   3.441  10.677
 5816SOL    HW218336   3.256   3.370  10.737
 5817SOL     OW18337   3.472   2.308  10.054
 5817SOL    HW118338   3.400   2.330   9.995
 5817SOL    HW218339   3.484   2.386  10.107
 5818SOL     OW18340   2.084   3.578   9.789
 5818SOL    HW118341   2.114   3.638   9.857
 5818SOL    HW218342   2.155   3.575   9.725
 5819SOL     OW18343   2.999   3.204  11.004
 5819SOL    HW118344   3.040   3.197  11.090
 5819SOL    HW218345   2.947   3.124  10.996
 5820SOL     OW18346   2.091   3.304   9.846
 5820SOL    HW118347   2.074   3.398   9.849
 5820SOL    HW218348   2.032   3.266   9.911
 5821SOL     OW18349   2.122   2.957  10.200
 5821SOL    HW118350   2.118   2.870  10.239
 5821SOL    HW218351   2.064   3.011  10.254
 5822SOL     OW18352   2.470   3.648  10.738
 5822SOL    HW118353   2.389   3.633  10.786
 5822SOL    HW218354   2.497   3.736  10.762
 5823SOL     OW18355   2.446   2.848   9.445
 5823SOL    HW118356   2.493   2.895   9.376
 5823SOL    HW218357   2.484   2.880   9.526
 5824SOL     OW18358   3.457   1.988  10.776
 5824SOL    HW118359   3.471   2.069  10.728
 5824SOL    HW218360   3.442   2.015  10.866
 5825SOL     OW18361   1.986   2.517   9.871
 5825SOL    HW118362   1.946   2.431   9.886
 5825SOL    HW218363   1.972   2.565   9.952
 5826SOL     OW18364   3.700   3.613   9.652
 5826SOL    HW118365   3.771   3.588   9.711
 5826SOL    HW218366   3.719   3.704   9.628
 5827SOL     OW18367   1.892   3.453   9.432
 5827SOL    HW118368   1.876   3.361   9.453
 5827SOL    HW218369   1.871   3.500   9.512
 5828SOL     OW18370   3.550   2.782   9.956
 5828SOL    HW118371   3.633   2.738   9.938
 5828SOL    HW218372   3.531   2.830   9.876
 5829SOL     OW18373   3.503   2.966   9.741
 5829SOL    HW118374   3.588   2.971   9.698
 5829SOL    HW218375   3.510   3.029   9.813
 5830SOL     OW18376   1.987   2.595  10.900
 5830SOL    HW118377   2.079   2.615  10.914
 5830SOL    HW218378   1.941   2.678  10.912
 5831SOL     OW18379   2.477   3.251  10.044
 5831SOL    HW118380   2.432   3.167  10.054
 5831SOL    HW218381   2.460   3.278   9.954
 5832SOL     OW18382   3.149   3.099  10.733
 5832SOL    HW118383   3.181   3.032  10.672
 5832SOL    HW218384   3.208   3.094  10.808
 5833SOL     OW18385   2.691   1.863   9.822
 5833SOL    HW118386   2.730   1.948   9.799
 5833SOL    HW218387   2.597   1.879   9.821
 5834SOL     OW18388   2.052   2.829  10.584
 5834SOL    HW118389   2.135   2.786  10.567
 5834SOL    HW218390   1.987   2.776  10.538
 5835SOL     OW18391   3.390   2.858   9.510
 5835SOL    HW118392   3.321   2.801   9.544
 5835SOL    HW218393   3.432   2.893   9.589
 5836SOL     OW18394   3.080   3.666  10.937
 5836SOL    HW118395   3.056   3.727  10.867
 5836SOL    HW218396   3.081   3.580  10.895
 5837SOL     OW18397   3.327   3.282  10.259
 5837SOL    HW118398   3.261   3.297  10.326
 5837SOL    HW218399   3.316   3.191  10.233
 5838SOL     OW18400   3.509   3.606   9.890
 5838SOL    HW118401   3.501   3.572   9.801
 5838SOL    HW218402   3.492   3.531   9.947
 5839SOL     OW18403   2.467   2.599   9.583
 5839SOL    HW118404   2.470   2.677   9.528
 5839SOL    HW218405   2.401   2.619   9.649
 5840SOL     OW18406   3.139   2.220  10.244
 5840SOL    HW118407   3.051   2.185  10.252
 5840SOL    HW218408   3.192   2.167  10.302
 5841SOL     OW18409   3.436   3.538   9.618
 5841SOL    HW118410   3.528   3.562   9.614
 5841SOL    HW218411   3.412   3.518   9.528
 5842SOL     OW18412   2.655   2.478  10.758
 5842SOL    HW118413   2.631   2.456  10.848
 5842SOL    HW218414   2.606   2.415  10.705
 5843SOL     OW18415   3.256   2.336  10.988
 5843SOL    HW118416   3.259   2.380  11.073
 5843SOL    HW218417   3.314   2.261  10.998
 5844SOL     OW18418   2.813   2.748  10.894
 5844SOL    HW118419   2.869   2.680  10.857
 5844SOL    HW218420   2.767   2.784  10.818
 5845SOL     OW18421   2.861   2.277  10.546
 5845SOL    HW118422   2.777   2.296  10.588
 5845SOL    HW218423   2.837   2.230  10.466
 5846SOL     OW18424   2.914   2.561   9.735
 5846SOL    HW118425   2.931   2.554   9.829
 5846SOL    HW218426   2.831   2.514   9.723
 5847SOL     OW18427   1.950   2.682  10.088
 5847SOL    HW118428   2.033   2.682  10.136
 5847SOL    HW218429   1.904   2.760  10.121
 5848SOL     OW18430   1.983   3.707  10.886
 5848SOL    HW118431   1.986   3.687  10.980
 5848SOL    HW218432   1.890   3.706  10.864
 5849SOL     OW18433   2.759   2.215   9.511
 5849SOL    HW118434   2.803   2.269   9.445
 5849SOL    HW218435   2.735   2.135   9.464
 5850SOL     OW18436   3.571   2.435  11.139
 5850SOL    HW118437   3.533   2.509  11.090
 5850SOL    HW218438   3.596   2.372  11.071
 5851SOL     OW18439   3.239   3.003   9.850
 5851SOL    HW118440   3.319   2.991   9.799
 5851SOL    HW218441   3.187   3.066   9.799
 5852SOL     OW18442   2.446   2.063  10.218
 5852SOL    HW118443   2.351   2.072  10.228
 5852SOL    HW218444   2.474   2.143  10.174
 5853SOL     OW18445   2.865   3.307   9.780
 5853SOL    HW118446   2.829   3.381   9.732
 5853SOL    HW218447   2.845   3.326   9.872
 5854SOL     OW18448   2.213   3.673  10.149
 5854SOL    HW118449   2.263   3.594  10.168
 5854SOL    HW218450   2.272   3.745  10.172
 5855SOL     OW18451   3.667   2.923  10.178
 5855SOL    HW118452   3.614   2.897  10.102
 5855SOL    HW218453   3.605   2.926  10.250
 5856SOL     OW18454   3.089   3.399  10.822
 5856SOL    HW118455   3.076   3.327  10.883
 5856SOL    HW218456   3.022   3.386  10.755
 5857SOL     OW18457   2.181   2.818   9.563
 5857SOL    HW118458   2.261   2.838   9.515
 5857SOL    HW218459   2.148   2.738   9.523
 5858SOL     OW18460   3.341   2.608  10.036
 5858SOL    HW118461   3.336   2.566  10.122
 5858SOL    HW218462   3.420   2.663  10.041
 5859SOL     OW18463   2.329   3.127  11.047
 5859SOL    HW118464   2.303   3.132  10.955
 5859SOL    HW218465   2.247   3.125  11.096
 5860SOL     OW18466   2.976   3.643   9.532
 5860SOL    HW118467   2.912   3.597   9.586
 5860SOL    HW218468   3.006   3.578   9.469
 5861SOL     OW18469   3.486   3.247   9.399
 5861SOL    HW118470   3.443   3.330   9.381
 5861SOL    HW218471   3.420   3.181   9.379
 5862SOL     OW18472   2.329   3.597   9.635
 5862SOL    HW118473   2.367   3.662   9.694
 5862SOL    HW218474   2.402   3.572   9.578
 5863SOL     OW18475   3.263   1.969   9.746
 5863SOL    HW118476   3.255   1.944   9.654
 5863SOL    HW218477   3.357   1.975   9.762
 5864SOL     OW18478   2.122   3.653  10.533
 5864SOL    HW118479   2.169   3.584  10.579
 5864SOL    HW218480   2.107   3.619  10.445
 5865SOL     OW18481   2.800   3.563  10.209
 5865SOL    HW118482   2.878   3.511  10.231
 5865SOL    HW218483   2.756   3.513  10.140
 5866SOL     OW18484   2.255   2.548   9.787
 5866SOL    HW118485   2.266   2.459   9.753
 5866SOL    HW218486   2.163   2.554   9.812
 5867SOL     OW18487   3.395   2.087  11.035
 5867SOL    HW118488   3.405   2.107  11.128
 5867SOL    HW218489   3.327   2.019  11.032
 5868SOL     OW18490   2.526   1.989   9.409
 5868SOL    HW118491   2.569   1.909   9.439
 5868SOL    HW218492   2.460   1.959   9.347
 5869SOL     OW18493   2.628   2.145  11.065
 5869SOL    HW118494   2.705   2.089  11.061
 5869SOL    HW218495   2.577   2.113  11.139
 5870SOL     OW18496   2.738   3.382  10.505
 5870SOL    HW118497   2.721   3.347  10.417
 5870SOL    HW218498   2.808   3.328  10.540
 5871SOL     OW18499   3.202   2.452  10.743
 5871SOL    HW118500   3.233   2.420  10.828
 5871SOL    HW218501   3.239   2.540  10.735
 5872SOL     OW18502   2.679   3.254  10.253
 5872SOL    HW118503   2.763   3.242  10.209
 5872SOL    HW218504   2.615   3.258  10.181
 5873SOL     OW18505   2.787   2.369  10.212
 5873SOL    HW118506   2.764   2.362  10.120
 5873SOL    HW218507   2.822   2.283  10.235
 5874SOL     OW18508   2.427   1.917   9.803
 5874SOL    HW118509   2.372   1.903   9.881
 5874SOL    HW218510   2.405   2.006   9.774
 5875SOL     OW18511   3.290   3.062   9.350
 5875SOL    HW118512   3.320   2.986   9.400
 5875SOL    HW218513   3.204   3.082   9.388
 5876SOL     OW18514   2.804   2.112   9.768
 5876SOL    HW118515   2.781   2.149   9.682
 5876SOL    HW218516   2.898   2.125   9.774
 5877SOL     OW18517   2.944   2.545  10.769
 5877SOL    HW118518   2.878   2.476  10.776
 5877SOL    HW218519   3.027   2.499  10.763
 5878SOL     OW18520   3.083   3.433  10.104
 5878SOL    HW118521   3.099   3.500  10.038
 5878SOL    HW218522   3.153   3.445  10.168
 5879SOL     OW18523   2.333   3.013  10.040
 5879SOL    HW118524   2.264   2.996  10.104
 5879SOL    HW218525   2.291   2.998   9.955
 5880SOL     OW18526   3.128   3.657   9.918
 5880SOL    HW118527   3.174   3.721   9.865
 5880SOL    HW218528   3.055   3.705   9.957
 5881SOL     OW18529   2.887   2.401   9.333
 5881SOL    HW118530   2.843   2.484   9.315
 5881SOL    HW218531   2.951   2.422   9.401
 5882SOL     OW18532   1.938   2.425  10.694
 5882SOL    HW118533   2.032   2.419  10.674
 5882SOL    HW218534   1.933   2.483  10.769
 5883SOL     OW18535   2.725   2.319   9.948
 5883SOL    HW118536   2.689   2.376   9.880
 5883SOL    HW218537   2.752   2.240   9.901
 5884SOL     OW18538   2.875   1.916  10.060
 5884SOL    HW118539   2.819   1.906   9.983
 5884SOL    HW218540   2.854   1.841  10.115
 5885SOL     OW18541   3.301   3.024  10.167
 5885SOL    HW118542   3.231   2.959  10.166
 5885SOL    HW218543   3.327   3.033  10.075
 5886SOL     OW18544   3.327   2.470  10.283
 5886SOL    HW118545   3.275   2.390  10.285
 5886SOL    HW218546   3.386   2.463  10.358
 5887SOL     OW18547   3.723   2.678   9.685
 5887SOL    HW118548   3.767   2.623   9.749
 5887SOL    HW218549   3.686   2.617   9.621
 5888SOL     OW18550   2.352   3.280   9.464
 5888SOL    HW118551   2.277   3.253   9.516
 5888SOL    HW218552   2.339   3.238   9.379
 5889SOL     OW18553   3.529   3.127   9.954
 5889SOL    HW118554   3.624   3.129   9.964
 5889SOL    HW218555   3.501   3.216   9.975
 5890SOL     OW18556   3.256   2.434   9.381
 5890SOL    HW118557   3.194   2.414   9.452
 5890SOL    HW218558   3.340   2.402   9.414
 5891SOL     OW18559   3.613   3.096  10.876
 5891SOL    HW118560   3.700   3.061  10.858
 5891SOL    HW218561   3.629   3.186  10.905
 5892SOL     OW18562   2.919   3.214  10.642
 5892SOL    HW118563   2.844   3.183  10.693
 5892SOL    HW218564   2.995   3.173  10.684
 5893SOL     OW18565   3.469   3.491  10.967
 5893SOL    HW118566   3.459   3.524  10.877
 5893SOL    HW218567   3.549   3.440  10.965
 5894SOL     OW18568   2.993   3.067  10.413
 5894SOL    HW118569   2.935   3.106  10.478
 5894SOL    HW218570   2.962   3.102  10.330
 5895SOL     OW18571   3.490   2.958  10.385
 5895SOL    HW118572   3.482   3.019  10.458
 5895SOL    HW218573   3.413   2.974  10.330
 5896SOL     OW18574   2.789   1.954  10.704
 5896SOL    HW118575   2.810   1.936  10.613
 5896SOL    HW218576   2.868   1.994  10.740
 5897SOL     OW18577   2.846   2.977  11.033
 5897SOL    HW118578   2.755   2.993  11.055
 5897SOL    HW218579   2.843   2.898  10.978
 5898SOL     OW18580   2.571   2.923   9.681
 5898SOL    HW118581   2.557   2.905   9.774
 5898SOL    HW218582   2.646   2.870   9.657
 5899SOL     OW18583   2.279   2.674  10.561
 5899SOL    HW118584   2.348   2.689  10.626
 5899SOL    HW218585   2.242   2.589  10.584
 5900SOL     OW18586   3.130   2.238  10.589
 5900SOL    HW118587   3.162   2.316  10.634
 5900SOL    HW218588   3.039   2.260  10.565
 5901SOL     OW18589   1.934   3.435  10.663
 5901SOL    HW118590   1.906   3.510  10.612
 5901SOL    HW218591   2.030   3.437  10.659
 5902SOL     OW18592   2.207   2.975   9.799
 5902SOL    HW118593   2.211   3.049   9.739
 5902SOL    HW218594   2.203   2.898   9.742
 5903SOL     OW18595   2.406   2.393  10.171
 5903SOL    HW118596   2.418   2.456  10.100
 5903SOL    HW218597   2.467   2.421  10.239
 5904SOL     OW18598   3.109   3.211   9.699
 5904SOL    HW118599   3.165   3.282   9.731
 5904SOL    HW218600   3.022   3.232   9.733
 5905SOL     OW18601   3.146   3.322  10.458
 5905SOL    HW118602   3.203   3.326  10.535
 5905SOL    HW218603   3.091   3.245  10.473
 5906SOL     OW18604   3.440   2.482   9.792
 5906SOL    HW118605   3.393   2.535   9.856
 5906SOL    HW218606   3.483   2.545   9.735
 5907SOL     OW18607   2.207   3.391  10.622
 5907SOL    HW118608   2.196   3.347  10.538
 5907SOL    HW218609   2.302   3.402  10.630
 5908SOL     OW18610   2.284   2.605  10.919
 5908SOL    HW118611   2.342   2.649  10.857
 5908SOL    HW218612   2.334   2.529  10.949
 5909SOL     OW18613   3.466   2.641  10.993
 5909SOL    HW118614   3.381   2.683  10.987
 5909SOL    HW218615   3.519   2.684  10.926
 5910SOL     OW18616   2.856   1.990  11.058
 5910SOL    HW118617   2.916   2.062  11.039
 5910SOL    HW218618   2.905   1.911  11.036
 5911SOL     OW18619   2.361   1.898  11.070
 5911SOL    HW118620   2.313   1.849  11.003
 5911SOL    HW218621   2.302   1.970  11.093
 5912SOL     OW18622   2.451   2.736  10.343
 5912SOL    HW118623   2.484   2.825  10.341
 5912SOL    HW218624   2.392   2.734  10.419
 5913SOL     OW18625   3.216   2.721  10.336
 5913SOL    HW118626   3.132   2.708  10.291
 5913SOL    HW218627   3.260   2.636  10.329
 5914SOL     OW18628   3.064   2.390   9.574
 5914SOL    HW118629   3.072   2.311   9.628
 5914SOL    HW218630   3.022   2.454   9.631
 5915SOL     OW18631   1.908   3.173  10.586
 5915SOL    HW118632   1.941   3.119  10.657
 5915SOL    HW218633   1.914   3.263  10.619
 5916SOL     OW18634   2.581   2.486  10.365
 5916SOL    HW118635   2.657   2.470  10.309
 5916SOL    HW218636   2.557   2.577  10.346
 5917SOL     OW18637   3.592   2.822  11.171
 5917SOL    HW118638   3.552   2.757  11.113
 5917SOL    HW218639   3.529   2.835  11.241
 5918SOL     OW18640   3.481   2.238   9.674
 5918SOL    HW118641   3.508   2.173   9.739
 5918SOL    HW218642   3.458   2.315   9.726
 5919SOL     OW18643   2.889   2.620  10.269
 5919SOL    HW118644   2.884   2.637  10.363
 5919SOL    HW218645   2.863   2.528  10.260
 5920SOL     OW18646   2.847   3.430  11.030
 5920SOL    HW118647   2.828   3.471  10.946
 5920SOL    HW218648   2.889   3.347  11.008
 5921SOL     OW18649   3.705   3.361  10.908
 5921SOL    HW118650   3.729   3.390  10.820
 5921SOL    HW218651   3.785   3.371  10.959
 5922SOL     OW18652   2.215   2.777  11.122
 5922SOL    HW118653   2.297   2.800  11.166
 5922SOL    HW218654   2.241   2.717  11.051
 5923SOL     OW18655   3.391   2.135   9.437
 5923SOL    HW118656   3.326   2.069   9.464
 5923SOL    HW218657   3.424   2.170   9.519
 5924SOL     OW18658   3.151   2.687   9.339
 5924SOL    HW118659   3.194   2.602   9.344
 5924SOL    HW218660   3.184   2.726   9.259
 5925SOL     OW18661   2.929   3.199  10.165
 5925SOL    HW118662   2.933   3.126  10.103
 5925SOL    HW218663   2.989   3.264  10.130
 5926SOL     OW18664   2.175   2.681  10.253
 5926SOL    HW118665   2.266   2.705  10.235
 5926SOL    HW218666   2.182   2.597  10.299
 5927SOL     OW18667   2.996   2.238  10.992
 5927SOL    HW118668   2.948   2.291  11.056
 5927SOL    HW218669   3.083   2.276  10.990
 5928SOL     OW18670   3.026   2.064  10.780
 5928SOL    HW118671   3.014   2.126  10.852
 5928SOL    HW218672   3.068   2.115  10.711
 5929SOL     OW18673   1.868   3.180   9.504
 5929SOL    HW118674   1.781   3.196   9.468
 5929SOL    HW218675   1.864   3.091   9.539
 5930SOL     OW18676   1.959   3.640  10.248
 5930SOL    HW118677   1.928   3.562  10.203
 5930SOL    HW218678   2.044   3.659  10.208
 5931SOL     OW18679   2.356   3.438  10.215
 5931SOL    HW118680   2.423   3.501  10.240
 5931SOL    HW218681   2.401   3.375  10.158
 5932SOL     OW18682   2.841   2.651  10.535
 5932SOL    HW118683   2.901   2.631  10.607
 5932SOL    HW218684   2.756   2.617  10.564
 5933SOL     OW18685   1.887   2.397  10.428
 5933SOL    HW118686   1.968   2.399  10.376
 5933SOL    HW218687   1.915   2.412  10.518
 5934SOL     OW18688   3.241   2.799  10.968
 5934SOL    HW118689   3.262   2.892  10.965
 5934SOL    HW218690   3.238   2.772  10.876
 5935SOL     OW18691   2.678   2.431   9.679
 5935SOL    HW118692   2.686   2.359   9.617
 5935SOL    HW218693   2.607   2.485   9.643
 5936SOL     OW18694   3.502   2.464  10.494
 5936SOL    HW118695   3.491   2.403  10.567
 5936SOL    HW218696   3.588   2.442  10.458
 5937SOL     OW18697   2.104   3.411  11.035
 5937SOL    HW118698   2.081   3.478  11.099
 5937SOL    HW218699   2.107   3.329  11.085
 5938SOL     OW18700   2.532   2.323  10.573
 5938SOL    HW118701   2.523   2.234  10.539
 5938SOL    HW218702   2.548   2.377  10.496
 5939SOL     OW18703   2.789   3.534  10.779
 5939SOL    HW118704   2.762   3.496  10.695
 5939SOL    HW218705   2.781   3.628  10.766
 5940SOL     OW18706   2.331   2.376   9.521
 5940SOL    HW118707   2.392   2.449   9.531
 5940SOL    HW218708   2.249   2.417   9.493
 5941SOL     OW18709   2.006   3.004  10.785
 5941SOL    HW118710   2.006   2.953  10.866
 5941SOL    HW218711   2.023   2.940  10.716
 5942SOL     OW18712   3.184   2.907  10.532
 5942SOL    HW118713   3.207   2.844  10.464
 5942SOL    HW218714   3.116   2.961  10.492
 5943SOL     OW18715   3.174   2.718   9.615
 5943SOL    HW118716   3.100   2.687   9.666
 5943SOL    HW218717   3.149   2.704   9.524
 5944SOL     OW18718   3.639   3.603  10.465
 5944SOL    HW118719   3.697   3.629  10.393
 5944SOL    HW218720   3.612   3.514  10.442
 5945SOL     OW18721   3.106   3.595  10.419
 5945SOL    HW118722   3.189   3.617  10.376
 5945SOL    HW218723   3.112   3.502  10.439
 5946SOL     OW18724   1.947   3.128  10.322
 5946SOL    HW118725   1.932   3.143  10.415
 5946SOL    HW218726   1.873   3.074  10.294
 5947SOL     OW18727   2.540   3.526  11.043
 5947SOL    HW118728   2.484   3.603  11.047
 5947SOL    HW218729   2.601   3.545  10.971
 5948SOL     OW18730   3.572   2.012   9.821
 5948SOL    HW118731   3.640   2.000   9.755
 5948SOL    HW218732   3.561   1.926   9.861
 5949SOL     OW18733   3.252   3.430   9.797
 5949SOL    HW118734   3.311   3.464   9.730
 5949SOL    HW218735   3.204   3.508   9.828
 5950SOL     OW18736   1.997   3.652  11.148
 5950SOL    HW118737   1.945   3.588  11.198
 5950SOL    HW218738   2.045   3.700  11.215
 5951SOL     OW18739   3.139   2.788   9.981
 5951SOL    HW118740   3.213   2.728   9.990
 5951SOL    HW218741   3.173   2.860   9.928
 5952SOL     OW18742   2.672   3.136  10.738
 5952SOL    HW118743   2.644   3.176  10.820
 5952SOL    HW218744   2.603   3.160  10.676
 5953SOL     OW18745   2.537   3.479   9.468
 5953SOL    HW118746   2.546   3.497   9.374
 5953SOL    HW218747   2.478   3.404   9.472
 5954SOL     OW18748   3.481   3.589  10.700
 5954SOL    HW118749   3.537   3.592  10.622
 5954SOL    HW218750   3.469   3.680  10.724
 5955SOL     OW18751   3.700   2.043  10.277
 5955SOL    HW118752   3.731   1.956  10.252
 5955SOL    HW218753   3.614   2.051  10.236
 5956SOL     OW18754   3.069   3.466   9.346
 5956SOL    HW118755   3.059   3.374   9.370
 5956SOL    HW218756   3.008   3.479   9.273
 5957SOL     OW18757   2.686   2.868  10.683
 5957SOL    HW118758   2.731   2.864  10.598
 5957SOL    HW218759   2.683   2.961  10.704
 5958SOL     OW18760   2.778   2.773   9.601
 5958SOL    HW118761   2.839   2.805   9.534
 5958SOL    HW218762   2.827   2.704   9.646
 5959SOL     OW18763   3.350   3.494   9.352
 5959SOL    HW118764   3.256   3.481   9.336
 5959SOL    HW218765   3.389   3.498   9.265
 5960SOL     OW18766   2.231   3.165  10.801
 5960SOL    HW118767   2.217   3.243  10.746
 5960SOL    HW218768   2.153   3.111  10.787
 5961SOL     OW18769   3.462   3.141  10.588
 5961SOL    HW118770   3.531   3.133  10.653
 5961SOL    HW218771   3.406   3.211  10.620
 5962SOL     OW18772   2.918   2.970  10.018
 5962SOL    HW118773   2.846   2.919  10.056
 5962SOL    HW218774   2.982   2.905   9.989
 5963SOL     OW18775   2.883   2.103  10.276
 5963SOL    HW118776   2.878   2.055  10.193
 5963SOL    HW218777   2.880   2.034  10.343
 5964SOL     OW18778   2.466   3.352   9.790
 5964SOL    HW118779   2.512   3.302   9.723
 5964SOL    HW218780   2.397   3.398   9.742
 5965SOL     OW18781   3.586   2.252  10.688
 5965SOL    HW118782   3.658   2.315  10.685
 5965SOL    HW218783   3.615   2.180  10.632
 5966SOL     OW18784   2.122   3.205   9.600
 5966SOL    HW118785   2.030   3.202   9.577
 5966SOL    HW218786   2.124   3.244   9.688
 5967SOL     OW18787   1.975   2.885  11.030
 5967SOL    HW118788   1.898   2.862  11.082
 5967SOL    HW218789   2.049   2.847  11.078
 5968SOL     OW18790   2.550   2.043  10.806
 5968SOL    HW118791   2.637   2.021  10.773
 5968SOL    HW218792   2.566   2.087  10.889
 5969SOL     OW18793   1.889   2.266   9.331
 5969SOL    HW118794   1.812   2.215   9.307
 5969SOL    HW218795   1.917   2.308   9.250
 5970SOL     OW18796   3.288   2.720  10.709
 5970SOL    HW118797   3.239   2.782  10.655
 5970SOL    HW218798   3.377   2.722  10.672
 5971SOL     OW18799   3.040   3.199   9.427
 5971SOL    HW118800   2.949   3.170   9.429
 5971SOL    HW218801   3.067   3.199   9.519
 5972SOL     OW18802   2.482   2.692  10.742
 5972SOL    HW118803   2.537   2.769  10.728
 5972SOL    HW218804   2.543   2.619  10.751
 5973SOL     OW18805   3.347   3.643  10.292
 5973SOL    HW118806   3.371   3.697  10.217
 5973SOL    HW218807   3.431   3.612  10.327
 5974SOL     OW18808   2.575   2.425  11.011
 5974SOL    HW118809   2.620   2.484  11.072
 5974SOL    HW218810   2.595   2.337  11.043
 5975SOL     OW18811   3.335   3.060  10.940
 5975SOL    HW118812   3.324   3.074  11.034
 5975SOL    HW218813   3.428   3.075  10.924
 5976SOL     OW18814   2.237   3.602  10.875
 5976SOL    HW118815   2.152   3.644  10.859
 5976SOL    HW218816   2.215   3.519  10.916
 5977SOL     OW18817   3.527   2.742  10.569
 5977SOL    HW118818   3.525   2.657  10.526
 5977SOL    HW218819   3.520   2.805  10.497
 5978SOL     OW18820   3.079   2.181   9.768
 5978SOL    HW118821   3.141   2.109   9.760
 5978SOL    HW218822   3.108   2.230   9.844
 5979SOL     OW18823   2.444   2.597   9.985
 5979SOL    HW118824   2.488   2.681   9.968
 5979SOL    HW218825   2.380   2.589   9.915
 5980SOL     OW18826   3.621   2.228  10.960
 5980SOL    HW118827   3.604   2.241  10.867
 5980SOL    HW218828   3.550   2.169  10.989
 5981SOL     OW18829   3.618   2.790  10.823
 5981SOL    HW118830   3.609   2.884  10.841
 5981SOL    HW218831   3.594   2.781  10.731
 5982SOL     OW18832   2.725   3.229   9.349
 5982SOL    HW118833   2.685   3.257   9.431
 5982SOL    HW218834   2.741   3.310   9.300
 5983SOL     OW18835   2.522   3.651  10.249
 5983SOL    HW118836   2.501   3.742  10.228
 5983SOL    HW218837   2.618   3.646  10.244
 5984SOL     OW18838   2.730   2.830  10.164
 5984SOL    HW118839   2.780   2.758  10.203
 5984SOL    HW218840   2.695   2.878  10.240
 5985SOL     OW18841   2.939   2.850   9.398
 5985SOL    HW118842   2.919   2.902   9.320
 5985SOL    HW218843   3.014   2.796   9.372
 5986SOL     OW18844   3.712   3.416  10.150
 5986SOL    HW118845   3.633   3.397  10.101
 5986SOL    HW218846   3.715   3.349  10.218
 5987SOL     OW18847   2.088   3.163  11.166
 5987SOL    HW118848   2.021   3.103  11.135
 5987SOL    HW218849   2.068   3.176  11.258
 5988SOL     OW18850   1.947   3.093   9.975
 5988SOL    HW118851   1.956   3.047  10.059
 5988SOL    HW218852   2.015   3.054   9.919
 5989SOL     OW18853   2.545   3.266  10.940
 5989SOL    HW118854   2.465   3.224  10.971
 5989SOL    HW218855   2.542   3.355  10.977
 5990SOL     OW18856   3.674   2.040  10.548
 5990SOL    HW118857   3.667   1.945  10.551
 5990SOL    HW218858   3.689   2.060  10.456
 5991SOL     OW18859   3.558   3.352  10.406
 5991SOL    HW118860   3.479   3.327  10.357
 5991SOL    HW218861   3.570   3.281  10.469
 5992SOL     OW18862   2.200   2.408  10.591
 5992SOL    HW118863   2.195   2.326  10.640
 5992SOL    HW218864   2.275   2.397  10.533
 5993SOL     OW18865   2.690   3.441   9.987
 5993SOL    HW118866   2.673   3.493   9.909
 5993SOL    HW218867   2.616   3.381   9.992
 5994SOL     OW18868   3.293   2.089  10.426
 5994SOL    HW118869   3.314   2.006  10.469
 5994SOL    HW218870   3.243   2.138  10.492
 5995SOL     OW18871   2.872   1.880  10.449
 5995SOL    HW118872   2.817   1.813  10.408
 5995SOL    HW218873   2.960   1.841  10.450
 5996SOL     OW18874   2.635   3.194   9.629
 5996SOL    HW118875   2.605   3.104   9.635
 5996SOL    HW218876   2.717   3.196   9.677
 5997SOL     OW18877   2.482   3.415  10.595
 5997SOL    HW118878   2.482   3.496  10.645
 5997SOL    HW218879   2.570   3.409  10.558
 5998SOL     OW18880   3.217   1.915   9.477
 5998SOL    HW118881   3.247   1.847   9.418
 5998SOL    HW218882   3.128   1.888   9.502
 5999SOL     OW18883   3.157   2.324   9.990
 5999SOL    HW118884   3.105   2.404   9.996
 5999SOL    HW218885   3.154   2.286  10.077
 6000SOL     OW18886   3.444   2.060  10.188
 6000SOL    HW118887   3.388   2.084  10.262
 6000SOL    HW218888   3.445   2.138  10.132
 6001SOL     OW18889   1.905   2.930   9.618
 6001SOL    HW118890   1.998   2.923   9.600
 6001SOL    HW218891   1.877   2.841   9.640
 6002SOL     OW18892   2.748   3.521   9.653
 6002SOL    HW118893   2.677   3.502   9.592
 6002SOL    HW218894   2.717   3.596   9.703
 6003SOL     OW18895   2.087   2.505  11.305
 6003SOL    HW118896   2.001   2.482  11.341
 6003SOL    HW218897   2.077   2.494  11.211
 6004SOL     OW18898   1.853   2.282  11.788
 6004SOL    HW118899   1.767   2.281  11.829
 6004SOL    HW218900   1.856   2.200  11.738
 6005SOL     OW18901   2.429   3.154  12.350
 6005SOL    HW118902   2.342   3.160  12.310
 6005SOL    HW218903   2.445   3.242  12.384
 6006SOL     OW18904   3.425   3.374  11.881
 6006SOL    HW118905   3.383   3.352  11.964
 6006SOL    HW218906   3.354   3.378  11.817
 6007SOL     OW18907   2.991   2.561  11.870
 6007SOL    HW118908   3.041   2.641  11.856
 6007SOL    HW218909   2.946   2.575  11.953
 6008SOL     OW18910   3.629   2.468  11.401
 6008SOL    HW118911   3.609   2.460  11.308
 6008SOL    HW218912   3.595   2.387  11.440
 6009SOL     OW18913   2.612   3.001  12.215
 6009SOL    HW118914   2.544   3.038  12.272
 6009SOL    HW218915   2.650   3.077  12.171
 6010SOL     OW18916   2.731   2.631  12.994
 6010SOL    HW118917   2.721   2.703  13.058
 6010SOL    HW218918   2.755   2.675  12.913
 6011SOL     OW18919   2.547   2.860  11.817
 6011SOL    HW118920   2.613   2.851  11.886
 6011SOL    HW218921   2.479   2.914  11.856
 6012SOL     OW18922   2.574   3.013  12.986
 6012SOL    HW118923   2.622   3.091  13.015
 6012SOL    HW218924   2.493   3.047  12.949
 6013SOL     OW18925   2.194   3.283  12.239
 6013SOL    HW118926   2.119   3.247  12.191
 6013SOL    HW218927   2.240   3.336  12.174
 6014SOL     OW18928   3.321   3.363  12.529
 6014SOL    HW118929   3.375   3.441  12.539
 6014SOL    HW218930   3.255   3.370  12.598
 6015SOL     OW18931   3.472   2.308  11.916
 6015SOL    HW118932   3.399   2.330  11.857
 6015SOL    HW218933   3.484   2.386  11.969
 6016SOL     OW18934   2.083   3.578  11.651
 6016SOL    HW118935   2.114   3.638  11.719
 6016SOL    HW218936   2.155   3.575  11.588
 6017SOL     OW18937   2.999   3.204  12.865
 6017SOL    HW118938   3.040   3.198  12.952
 6017SOL    HW218939   2.947   3.124  12.858
 6018SOL     OW18940   2.091   3.304  11.708
 6018SOL    HW118941   2.074   3.398  11.711
 6018SOL    HW218942   2.033   3.266  11.773
 6019SOL     OW18943   2.123   2.957  12.062
 6019SOL    HW118944   2.118   2.870  12.101
 6019SOL    HW218945   2.065   3.011  12.116
 6020SOL     OW18946   2.470   3.648  12.600
 6020SOL    HW118947   2.389   3.633  12.648
 6020SOL    HW218948   2.496   3.736  12.625
 6021SOL     OW18949   2.446   2.847  11.307
 6021SOL    HW118950   2.493   2.894  11.238
 6021SOL    HW218951   2.484   2.880  11.389
 6022SOL     OW18952   3.457   1.988  12.638
 6022SOL    HW118953   3.471   2.069  12.590
 6022SOL    HW218954   3.442   2.015  12.728
 6023SOL     OW18955   1.986   2.517  11.733
 6023SOL    HW118956   1.945   2.433  11.747
 6023SOL    HW218957   1.972   2.566  11.814
 6024SOL     OW18958   3.700   3.613  11.514
 6024SOL    HW118959   3.771   3.588  11.573
 6024SOL    HW218960   3.719   3.704  11.490
 6025SOL     OW18961   1.892   3.453  11.294
 6025SOL    HW118962   1.876   3.361  11.315
 6025SOL    HW218963   1.871   3.500  11.374
 6026SOL     OW18964   3.550   2.782  11.818
 6026SOL    HW118965   3.633   2.738  11.800
 6026SOL    HW218966   3.531   2.830  11.738
 6027SOL     OW18967   3.503   2.966  11.603
 6027SOL    HW118968   3.588   2.971  11.560
 6027SOL    HW218969   3.510   3.029  11.675
 6028SOL     OW18970   1.987   2.598  12.757
 6028SOL    HW118971   2.080   2.617  12.775
 6028SOL    HW218972   1.943   2.681  12.773
 6029SOL     OW18973   2.477   3.251  11.907
 6029SOL    HW118974   2.432   3.167  11.916
 6029SOL    HW218975   2.460   3.278  11.816
 6030SOL     OW18976   3.149   3.099  12.595
 6030SOL    HW118977   3.181   3.032  12.534
 6030SOL    HW218978   3.208   3.094  12.670
 6031SOL     OW18979   2.693   1.863  11.685
 6031SOL    HW118980   2.731   1.947  11.661
 6031SOL    HW218981   2.599   1.878  11.683
 6032SOL     OW18982   2.052   2.830  12.446
 6032SOL    HW118983   2.135   2.786  12.429
 6032SOL    HW218984   1.987   2.774  12.402
 6033SOL     OW18985   3.390   2.858  11.372
 6033SOL    HW118986   3.321   2.801  11.406
 6033SOL    HW218987   3.432   2.893  11.451
 6034SOL     OW18988   3.080   3.666  12.799
 6034SOL    HW118989   3.056   3.726  12.729
 6034SOL    HW218990   3.081   3.580  12.757
 6035SOL     OW18991   3.327   3.282  12.121
 6035SOL    HW118992   3.261   3.297  12.188
 6035SOL    HW218993   3.316   3.191  12.095
 6036SOL     OW18994   3.509   3.606  11.752
 6036SOL    HW118995   3.501   3.572  11.663
 6036SOL    HW218996   3.492   3.531  11.809
 6037SOL     OW18997   2.466   2.597  11.444
 6037SOL    HW118998   2.470   2.676  11.390
 6037SOL    HW218999   2.401   2.618  11.511
 6038SOL     OW19000   3.139   2.220  12.106
 6038SOL    HW119001   3.051   2.185  12.114
 6038SOL    HW219002   3.192   2.167  12.164
 6039SOL     OW19003   3.436   3.538  11.480
 6039SOL    HW119004   3.528   3.562  11.476
 6039SOL    HW219005   3.412   3.518  11.390
 6040SOL     OW19006   2.655   2.479  12.621
 6040SOL    HW119007   2.632   2.456  12.711
 6040SOL    HW219008   2.608   2.415  12.567
 6041SOL     OW19009   3.256   2.336  12.850
 6041SOL    HW119010   3.259   2.380  12.935
 6041SOL    HW219011   3.314   2.260  12.860
 6042SOL     OW19012   2.814   2.748  12.756
 6042SOL    HW119013   2.870   2.680  12.719
 6042SOL    HW219014   2.767   2.784  12.680
 6043SOL     OW19015   2.860   2.277  12.408
 6043SOL    HW119016   2.776   2.296  12.450
 6043SOL    HW219017   2.837   2.230  12.328
 6044SOL     OW19018   2.914   2.561  11.597
 6044SOL    HW119019   2.931   2.554  11.691
 6044SOL    HW219020   2.831   2.514  11.585
 6045SOL     OW19021   1.950   2.683  11.950
 6045SOL    HW119022   2.033   2.682  11.998
 6045SOL    HW219023   1.904   2.760  11.983
 6046SOL     OW19024   1.983   3.708  12.748
 6046SOL    HW119025   1.986   3.687  12.842
 6046SOL    HW219026   1.890   3.705  12.726
 6047SOL     OW19027   2.760   2.215  11.372
 6047SOL    HW119028   2.803   2.270  11.307
 6047SOL    HW219029   2.737   2.135  11.325
 6048SOL     OW19030   3.571   2.436  13.001
 6048SOL    HW119031   3.533   2.509  12.952
 6048SOL    HW219032   3.595   2.372  12.934
 6049SOL     OW19033   3.239   3.003  11.712
 6049SOL    HW119034   3.319   2.991  11.661
 6049SOL    HW219035   3.187   3.066  11.661
 6050SOL     OW19036   2.448   2.062  12.082
 6050SOL    HW119037   2.353   2.070  12.094
 6050SOL    HW219038   2.472   2.141  12.034
 6051SOL     OW19039   2.865   3.307  11.642
 6051SOL    HW119040   2.829   3.381  11.594
 6051SOL    HW219041   2.845   3.326  11.734
 6052SOL     OW19042   2.213   3.673  12.011
 6052SOL    HW119043   2.263   3.594  12.029
 6052SOL    HW219044   2.272   3.745  12.034
 6053SOL     OW19045   3.667   2.923  12.040
 6053SOL    HW119046   3.614   2.897  11.964
 6053SOL    HW219047   3.605   2.926  12.112
 6054SOL     OW19048   3.089   3.399  12.684
 6054SOL    HW119049   3.076   3.327  12.745
 6054SOL    HW219050   3.022   3.386  12.617
 6055SOL     OW19051   2.181   2.818  11.425
 6055SOL    HW119052   2.261   2.838  11.377
 6055SOL    HW219053   2.148   2.737  11.385
 6056SOL     OW19054   3.341   2.608  11.898
 6056SOL    HW119055   3.336   2.566  11.984
 6056SOL    HW219056   3.420   2.663  11.903
 6057SOL     OW19057   2.329   3.127  12.909
 6057SOL    HW119058   2.303   3.132  12.817
 6057SOL    HW219059   2.247   3.125  12.958
 6058SOL     OW19060   2.976   3.643  11.394
 6058SOL    HW119061   2.912   3.597  11.448
 6058SOL    HW219062   3.006   3.578  11.331
 6059SOL     OW19063   3.486   3.247  11.261
 6059SOL    HW119064   3.443   3.330  11.243
 6059SOL    HW219065   3.420   3.181  11.241
 6060SOL     OW19066   2.329   3.597  11.497
 6060SOL    HW119067   2.367   3.662  11.556
 6060SOL    HW219068   2.402   3.572  11.440
 6061SOL     OW19069   3.263   1.969  11.608
 6061SOL    HW119070   3.255   1.944  11.516
 6061SOL    HW219071   3.357   1.975  11.624
 6062SOL     OW19072   2.122   3.653  12.395
 6062SOL    HW119073   2.169   3.584  12.441
 6062SOL    HW219074   2.107   3.619  12.307
 6063SOL     OW19075   2.800   3.563  12.071
 6063SOL    HW119076   2.877   3.511  12.093
 6063SOL    HW219077   2.756   3.513  12.002
 6064SOL     OW19078   2.255   2.548  11.649
 6064SOL    HW119079   2.265   2.459  11.615
 6064SOL    HW219080   2.163   2.554  11.674
 6065SOL     OW19081   3.395   2.087  12.897
 6065SOL    HW119082   3.405   2.107  12.990
 6065SOL    HW219083   3.327   2.020  12.894
 6066SOL     OW19084   2.524   1.989  11.271
 6066SOL    HW119085   2.569   1.909  11.301
 6066SOL    HW219086   2.460   1.957  11.207
 6067SOL     OW19087   2.628   2.146  12.927
 6067SOL    HW119088   2.705   2.089  12.923
 6067SOL    HW219089   2.578   2.113  13.001
 6068SOL     OW19090   2.738   3.382  12.367
 6068SOL    HW119091   2.721   3.347  12.279
 6068SOL    HW219092   2.808   3.328  12.402
 6069SOL     OW19093   3.202   2.452  12.605
 6069SOL    HW119094   3.233   2.420  12.690
 6069SOL    HW219095   3.239   2.540  12.597
 6070SOL     OW19096   2.679   3.254  12.115
 6070SOL    HW119097   2.763   3.242  12.071
 6070SOL    HW219098   2.615   3.258  12.043
 6071SOL     OW19099   2.787   2.369  12.074
 6071SOL    HW119100   2.764   2.362  11.982
 6071SOL    HW219101   2.822   2.283  12.097
 6072SOL     OW19102   2.429   1.914  11.665
 6072SOL    HW119103   2.374   1.901  11.743
 6072SOL    HW219104   2.407   2.002  11.635
 6073SOL     OW19105   3.290   3.062  11.212
 6073SOL    HW119106   3.320   2.986  11.262
 6073SOL    HW219107   3.204   3.082  11.250
 6074SOL     OW19108   2.804   2.112  11.629
 6074SOL    HW119109   2.781   2.149  11.544
 6074SOL    HW219110   2.898   2.125  11.636
 6075SOL     OW19111   2.944   2.545  12.631
 6075SOL    HW119112   2.878   2.476  12.638
 6075SOL    HW219113   3.027   2.499  12.625
 6076SOL     OW19114   3.083   3.433  11.966
 6076SOL    HW119115   3.099   3.500  11.900
 6076SOL    HW219116   3.153   3.445  12.030
 6077SOL     OW19117   2.333   3.013  11.902
 6077SOL    HW119118   2.264   2.996  11.966
 6077SOL    HW219119   2.291   2.998  11.817
 6078SOL     OW19120   3.128   3.656  11.780
 6078SOL    HW119121   3.174   3.721  11.727
 6078SOL    HW219122   3.055   3.705  11.819
 6079SOL     OW19123   2.887   2.401  11.195
 6079SOL    HW119124   2.843   2.484  11.177
 6079SOL    HW219125   2.951   2.422  11.263
 6080SOL     OW19126   1.938   2.425  12.555
 6080SOL    HW119127   2.031   2.420  12.536
 6080SOL    HW219128   1.932   2.483  12.631
 6081SOL     OW19129   2.725   2.319  11.810
 6081SOL    HW119130   2.689   2.377  11.742
 6081SOL    HW219131   2.752   2.240  11.763
 6082SOL     OW19132   2.875   1.916  11.922
 6082SOL    HW119133   2.820   1.905  11.845
 6082SOL    HW219134   2.854   1.841  11.977
 6083SOL     OW19135   3.301   3.024  12.029
 6083SOL    HW119136   3.231   2.959  12.028
 6083SOL    HW219137   3.327   3.033  11.937
 6084SOL     OW19138   3.327   2.470  12.145
 6084SOL    HW119139   3.275   2.390  12.147
 6084SOL    HW219140   3.386   2.463  12.220
 6085SOL     OW19141   3.723   2.678  11.547
 6085SOL    HW119142   3.767   2.623  11.611
 6085SOL    HW219143   3.686   2.617  11.483
 6086SOL     OW19144   2.352   3.280  11.326
 6086SOL    HW119145   2.277   3.253  11.378
 6086SOL    HW219146   2.340   3.237  11.241
 6087SOL     OW19147   3.529   3.127  11.816
 6087SOL    HW119148   3.624   3.129  11.826
 6087SOL    HW219149   3.501   3.216  11.837
 6088SOL     OW19150   3.256   2.434  11.244
 6088SOL    HW119151   3.194   2.414  11.314
 6088SOL    HW219152   3.340   2.401  11.276
 6089SOL     OW19153   3.613   3.096  12.738
 6089SOL    HW119154   3.700   3.061  12.720
 6089SOL    HW219155   3.629   3.186  12.767
 6090SOL     OW19156   2.919   3.214  12.504
 6090SOL    HW119157   2.844   3.183  12.555
 6090SOL    HW219158   2.995   3.173  12.546
 6091SOL     OW19159   3.469   3.491  12.828
 6091SOL    HW119160   3.460   3.524  12.739
 6091SOL    HW219161   3.549   3.440  12.827
 6092SOL     OW19162   2.993   3.067  12.275
 6092SOL    HW119163   2.935   3.106  12.340
 6092SOL    HW219164   2.962   3.102  12.192
 6093SOL     OW19165   3.490   2.958  12.247
 6093SOL    HW119166   3.482   3.019  12.320
 6093SOL    HW219167   3.413   2.974  12.192
 6094SOL     OW19168   2.788   1.955  12.566
 6094SOL    HW119169   2.809   1.936  12.475
 6094SOL    HW219170   2.867   1.994  12.602
 6095SOL     OW19171   2.846   2.977  12.895
 6095SOL    HW119172   2.755   2.993  12.917
 6095SOL    HW219173   2.844   2.898  12.840
 6096SOL     OW19174   2.571   2.923  11.543
 6096SOL    HW119175   2.557   2.905  11.636
 6096SOL    HW219176   2.646   2.870  11.519
 6097SOL     OW19177   2.279   2.674  12.423
 6097SOL    HW119178   2.348   2.689  12.488
 6097SOL    HW219179   2.242   2.589  12.446
 6098SOL     OW19180   3.129   2.238  12.451
 6098SOL    HW119181   3.161   2.316  12.496
 6098SOL    HW219182   3.039   2.260  12.427
 6099SOL     OW19183   1.934   3.435  12.526
 6099SOL    HW119184   1.906   3.510  12.474
 6099SOL    HW219185   2.030   3.437  12.521
 6100SOL     OW19186   2.207   2.975  11.661
 6100SOL    HW119187   2.211   3.049  11.601
 6100SOL    HW219188   2.203   2.898  11.604
 6101SOL     OW19189   2.405   2.394  12.033
 6101SOL    HW119190   2.417   2.457  11.963
 6101SOL    HW219191   2.466   2.422  12.101
 6102SOL     OW19192   3.109   3.211  11.561
 6102SOL    HW119193   3.165   3.282  11.593
 6102SOL    HW219194   3.022   3.232  11.595
 6103SOL     OW19195   3.146   3.322  12.320
 6103SOL    HW119196   3.203   3.326  12.397
 6103SOL    HW219197   3.091   3.245  12.335
 6104SOL     OW19198   3.440   2.482  11.654
 6104SOL    HW119199   3.392   2.535  11.718
 6104SOL    HW219200   3.483   2.546  11.597
 6105SOL     OW19201   2.207   3.391  12.484
 6105SOL    HW119202   2.196   3.347  12.400
 6105SOL    HW219203   2.302   3.402  12.492
 6106SOL     OW19204   2.283   2.606  12.781
 6106SOL    HW119205   2.342   2.649  12.719
 6106SOL    HW219206   2.332   2.529  12.810
 6107SOL     OW19207   3.466   2.641  12.855
 6107SOL    HW119208   3.381   2.684  12.849
 6107SOL    HW219209   3.519   2.684  12.788
 6108SOL     OW19210   2.856   1.990  12.920
 6108SOL    HW119211   2.916   2.062  12.900
 6108SOL    HW219212   2.905   1.911  12.898
 6109SOL     OW19213   2.355   1.904  12.933
 6109SOL    HW119214   2.310   1.854  12.864
 6109SOL    HW219215   2.294   1.976  12.953
 6110SOL     OW19216   2.451   2.736  12.205
 6110SOL    HW119217   2.483   2.825  12.203
 6110SOL    HW219218   2.392   2.734  12.281
 6111SOL     OW19219   3.216   2.721  12.198
 6111SOL    HW119220   3.132   2.708  12.153
 6111SOL    HW219221   3.260   2.636  12.191
 6112SOL     OW19222   3.064   2.390  11.436
 6112SOL    HW119223   3.072   2.311  11.490
 6112SOL    HW219224   3.022   2.454  11.493
 6113SOL     OW19225   1.909   3.173  12.447
 6113SOL    HW119226   1.941   3.119  12.519
 6113SOL    HW219227   1.914   3.263  12.481
 6114SOL     OW19228   2.581   2.486  12.227
 6114SOL    HW119229   2.657   2.470  12.171
 6114SOL    HW219230   2.557   2.577  12.208
 6115SOL     OW19231   3.593   2.820  13.034
 6115SOL    HW119232   3.552   2.756  12.976
 6115SOL    HW219233   3.529   2.834  13.104
 6116SOL     OW19234   3.481   2.238  11.536
 6116SOL    HW119235   3.508   2.173  11.601
 6116SOL    HW219236   3.458   2.315  11.588
 6117SOL     OW19237   2.889   2.620  12.131
 6117SOL    HW119238   2.884   2.637  12.225
 6117SOL    HW219239   2.863   2.528  12.122
 6118SOL     OW19240   2.847   3.430  12.892
 6118SOL    HW119241   2.828   3.471  12.808
 6118SOL    HW219242   2.889   3.347  12.870
 6119SOL     OW19243   3.705   3.361  12.770
 6119SOL    HW119244   3.729   3.390  12.682
 6119SOL    HW219245   3.785   3.371  12.821
 6120SOL     OW19246   2.214   2.777  12.985
 6120SOL    HW119247   2.297   2.800  13.028
 6120SOL    HW219248   2.240   2.718  12.914
 6121SOL     OW19249   3.391   2.135  11.299
 6121SOL    HW119250   3.326   2.069  11.326
 6121SOL    HW219251   3.424   2.170  11.382
 6122SOL     OW19252   3.151   2.687  11.202
 6122SOL    HW119253   3.194   2.602  11.206
 6122SOL    HW219254   3.183   2.726  11.121
 6123SOL     OW19255   2.929   3.199  12.027
 6123SOL    HW119256   2.933   3.126  11.964
 6123SOL    HW219257   2.989   3.264  11.992
 6124SOL     OW19258   2.175   2.681  12.114
 6124SOL    HW119259   2.266   2.705  12.096
 6124SOL    HW219260   2.181   2.598  12.162
 6125SOL     OW19261   2.996   2.238  12.854
 6125SOL    HW119262   2.948   2.291  12.917
 6125SOL    HW219263   3.083   2.276  12.852
 6126SOL     OW19264   3.026   2.063  12.642
 6126SOL    HW119265   3.013   2.126  12.714
 6126SOL    HW219266   3.068   2.115  12.573
 6127SOL     OW19267   1.868   3.180  11.366
 6127SOL    HW119268   1.780   3.196  11.330
 6127SOL    HW219269   1.864   3.091  11.401
 6128SOL     OW19270   1.959   3.640  12.110
 6128SOL    HW119271   1.928   3.562  12.065
 6128SOL    HW219272   2.044   3.659  12.070
 6129SOL     OW19273   2.356   3.438  12.077
 6129SOL    HW119274   2.423   3.501  12.102
 6129SOL    HW219275   2.401   3.375  12.020
 6130SOL     OW19276   2.841   2.651  12.397
 6130SOL    HW119277   2.901   2.631  12.469
 6130SOL    HW219278   2.756   2.617  12.427
 6131SOL     OW19279   1.887   2.397  12.289
 6131SOL    HW119280   1.969   2.399  12.240
 6131SOL    HW219281   1.914   2.411  12.380
 6132SOL     OW19282   3.241   2.799  12.830
 6132SOL    HW119283   3.262   2.892  12.827
 6132SOL    HW219284   3.238   2.772  12.738
 6133SOL     OW19285   2.677   2.431  11.540
 6133SOL    HW119286   2.686   2.359  11.479
 6133SOL    HW219287   2.607   2.485  11.505
 6134SOL     OW19288   3.502   2.464  12.356
 6134SOL    HW119289   3.491   2.403  12.429
 6134SOL    HW219290   3.588   2.442  12.320
 6135SOL     OW19291   2.104   3.411  12.897
 6135SOL    HW119292   2.081   3.478  12.961
 6135SOL    HW219293   2.108   3.330  12.947
 6136SOL     OW19294   2.538   2.322  12.436
 6136SOL    HW119295   2.523   2.234  12.401
 6136SOL    HW219296   2.550   2.376  12.358
 6137SOL     OW19297   2.789   3.534  12.641
 6137SOL    HW119298   2.762   3.496  12.557
 6137SOL    HW219299   2.781   3.628  12.628
 6138SOL     OW19300   2.329   2.376  11.379
 6138SOL    HW119301   2.390   2.448  11.390
 6138SOL    HW219302   2.246   2.418  11.354
 6139SOL     OW19303   2.006   3.004  12.646
 6139SOL    HW119304   2.006   2.953  12.727
 6139SOL    HW219305   2.023   2.940  12.577
 6140SOL     OW19306   3.184   2.907  12.394
 6140SOL    HW119307   3.207   2.844  12.326
 6140SOL    HW219308   3.116   2.961  12.354
 6141SOL     OW19309   3.174   2.718  11.477
 6141SOL    HW119310   3.100   2.687  11.528
 6141SOL    HW219311   3.149   2.704  11.386
 6142SOL     OW19312   3.639   3.603  12.327
 6142SOL    HW119313   3.697   3.629  12.255
 6142SOL    HW219314   3.612   3.514  12.304
 6143SOL     OW19315   3.106   3.595  12.281
 6143SOL    HW119316   3.189   3.617  12.238
 6143SOL    HW219317   3.112   3.502  12.301
 6144SOL     OW19318   1.947   3.128  12.184
 6144SOL    HW119319   1.932   3.143  12.277
 6144SOL    HW219320   1.873   3.074  12.156
 6145SOL     OW19321   2.540   3.526  12.904
 6145SOL    HW119322   2.484   3.603  12.909
 6145SOL    HW219323   2.602   3.545  12.833
 6146SOL     OW19324   3.572   2.012  11.684
 6146SOL    HW119325   3.640   2.000  11.617
 6146SOL    HW219326   3.561   1.926  11.723
 6147SOL     OW19327   3.252   3.430  11.659
 6147SOL    HW119328   3.311   3.464  11.592
 6147SOL    HW219329   3.204   3.508  11.690
 6148SOL     OW19330   1.996   3.652  13.010
 6148SOL    HW119331   1.944   3.588  13.060
 6148SOL    HW219332   2.045   3.700  13.077
 6149SOL     OW19333   3.139   2.788  11.843
 6149SOL    HW119334   3.213   2.728  11.852
 6149SOL    HW219335   3.173   2.860  11.790
 6150SOL     OW19336   2.672   3.136  12.600
 6150SOL    HW119337   2.644   3.176  12.682
 6150SOL    HW219338   2.603   3.159  12.538
 6151SOL     OW19339   2.537   3.479  11.330
 6151SOL    HW119340   2.546   3.497  11.236
 6151SOL    HW219341   2.478   3.404  11.334
 6152SOL     OW19342   3.481   3.589  12.562
 6152SOL    HW119343   3.537   3.592  12.484
 6152SOL    HW219344   3.469   3.680  12.586
 6153SOL     OW19345   3.700   2.043  12.139
 6153SOL    HW119346   3.731   1.956  12.114
 6153SOL    HW219347   3.614   2.051  12.098
 6154SOL     OW19348   3.069   3.466  11.208
 6154SOL    HW119349   3.059   3.374  11.232
 6154SOL    HW219350   3.008   3.479  11.135
 6155SOL     OW19351   2.686   2.868  12.545
 6155SOL    HW119352   2.731   2.864  12.460
 6155SOL    HW219353   2.684   2.961  12.566
 6156SOL     OW19354   2.778   2.773  11.463
 6156SOL    HW119355   2.839   2.805  11.396
 6156SOL    HW219356   2.827   2.704  11.508
 6157SOL     OW19357   3.350   3.494  11.214
 6157SOL    HW119358   3.256   3.481  11.198
 6157SOL    HW219359   3.389   3.498  11.127
 6158SOL     OW19360   2.231   3.165  12.663
 6158SOL    HW119361   2.217   3.243  12.608
 6158SOL    HW219362   2.153   3.111  12.648
 6159SOL     OW19363   3.463   3.141  12.450
 6159SOL    HW119364   3.531   3.133  12.516
 6159SOL    HW219365   3.406   3.211  12.482
 6160SOL     OW19366   2.918   2.970  11.880
 6160SOL    HW119367   2.846   2.919  11.918
 6160SOL    HW219368   2.982   2.905  11.851
 6161SOL     OW19369   2.883   2.103  12.138
 6161SOL    HW119370   2.878   2.056  12.055
 6161SOL    HW219371   2.880   2.034  12.205
 6162SOL     OW19372   2.466   3.352  11.652
 6162SOL    HW119373   2.512   3.302  11.585
 6162SOL    HW219374   2.397   3.398  11.604
 6163SOL     OW19375   3.586   2.252  12.551
 6163SOL    HW119376   3.658   2.315  12.547
 6163SOL    HW219377   3.615   2.179  12.494
 6164SOL     OW19378   2.122   3.205  11.462
 6164SOL    HW119379   2.029   3.202  11.439
 6164SOL    HW219380   2.124   3.244  11.550
 6165SOL     OW19381   1.975   2.884  12.892
 6165SOL    HW119382   1.898   2.862  12.944
 6165SOL    HW219383   2.049   2.847  12.940
 6166SOL     OW19384   2.548   2.043  12.668
 6166SOL    HW119385   2.635   2.022  12.635
 6166SOL    HW219386   2.564   2.088  12.751
 6167SOL     OW19387   1.885   2.268  11.194
 6167SOL    HW119388   1.808   2.219  11.166
 6167SOL    HW219389   1.921   2.304  11.113
 6168SOL     OW19390   3.288   2.720  12.571
 6168SOL    HW119391   3.239   2.782  12.517
 6168SOL    HW219392   3.377   2.722  12.534
 6169SOL     OW19393   3.040   3.199  11.289
 6169SOL    HW119394   2.949   3.170  11.291
 6169SOL    HW219395   3.067   3.199  11.381
 6170SOL     OW19396   2.482   2.692  12.604
 6170SOL    HW119397   2.537   2.769  12.590
 6170SOL    HW219398   2.543   2.619  12.614
 6171SOL     OW19399   3.347   3.643  12.154
 6171SOL    HW119400   3.371   3.697  12.079
 6171SOL    HW219401   3.431   3.612  12.189
 6172SOL     OW19402   2.575   2.425  12.873
 6172SOL    HW119403   2.620   2.483  12.934
 6172SOL    HW219404   2.596   2.337  12.905
 6173SOL     OW19405   3.335   3.060  12.803
 6173SOL    HW119406   3.324   3.074  12.897
 6173SOL    HW219407   3.428   3.075  12.786
 6174SOL     OW19408   2.237   3.602  12.737
 6174SOL    HW119409   2.152   3.644  12.721
 6174SOL    HW219410   2.215   3.519  12.778
 6175SOL     OW19411   3.527   2.742  12.431
 6175SOL    HW119412   3.525   2.657  12.388
 6175SOL    HW219413   3.520   2.805  12.359
 6176SOL     OW19414   3.078   2.181  11.630
 6176SOL    HW119415   3.141   2.109  11.622
 6176SOL    HW219416   3.108   2.230  11.706
 6177SOL     OW19417   2.444   2.597  11.847
 6177SOL    HW119418   2.488   2.681  11.830
 6177SOL    HW219419   2.380   2.589  11.777
 6178SOL     OW19420   3.620   2.228  12.822
 6178SOL    HW119421   3.604   2.241  12.729
 6178SOL    HW219422   3.550   2.170  12.851
 6179SOL     OW19423   3.618   2.790  12.685
 6179SOL    HW119424   3.609   2.884  12.703
 6179SOL    HW219425   3.594   2.781  12.593
 6180SOL     OW19426   2.725   3.229  11.211
 6180SOL    HW119427   2.685   3.257  11.293
 6180SOL    HW219428   2.741   3.310  11.162
 6181SOL     OW19429   2.522   3.651  12.111
 6181SOL    HW119430   2.501   3.742  12.090
 6181SOL    HW219431   2.618   3.646  12.106
 6182SOL     OW19432   2.730   2.830  12.026
 6182SOL    HW119433   2.780   2.758  12.065
 6182SOL    HW219434   2.695   2.878  12.102
 6183SOL     OW19435   2.939   2.850  11.260
 6183SOL    HW119436   2.919   2.902  11.182
 6183SOL    HW219437   3.014   2.796  11.234
 6184SOL     OW19438   3.712   3.416  12.012
 6184SOL    HW119439   3.633   3.397  11.963
 6184SOL    HW219440   3.715   3.349  12.080
 6185SOL     OW19441   2.088   3.163  13.028
 6185SOL    HW119442   2.021   3.103  12.996
 6185SOL    HW219443   2.066   3.177  13.120
 6186SOL     OW19444   1.947   3.093  11.837
 6186SOL    HW119445   1.956   3.047  11.921
 6186SOL    HW219446   2.015   3.054  11.781
 6187SOL     OW19447   2.545   3.266  12.802
 6187SOL    HW119448   2.465   3.224  12.833
 6187SOL    HW219449   2.542   3.354  12.839
 6188SOL     OW19450   3.674   2.040  12.410
 6188SOL    HW119451   3.666   1.945  12.413
 6188SOL    HW219452   3.689   2.060  12.318
 6189SOL     OW19453   3.558   3.352  12.268
 6189SOL    HW119454   3.479   3.327  12.219
 6189SOL    HW219455   3.570   3.281  12.331
 6190SOL     OW19456   2.198   2.409  12.448
 6190SOL    HW119457   2.191   2.326  12.495
 6190SOL    HW219458   2.274   2.397  12.391
 6191SOL     OW19459   2.690   3.440  11.849
 6191SOL    HW119460   2.673   3.493  11.771
 6191SOL    HW219461   2.616   3.381  11.855
 6192SOL     OW19462   3.293   2.089  12.288
 6192SOL    HW119463   3.313   2.006  12.331
 6192SOL    HW219464   3.243   2.138  12.354
 6193SOL     OW19465   2.872   1.880  12.311
 6193SOL    HW119466   2.817   1.813  12.270
 6193SOL    HW219467   2.960   1.841  12.312
 6194SOL     OW19468   2.635   3.194  11.491
 6194SOL    HW119469   2.605   3.104  11.497
 6194SOL    HW219470   2.717   3.196  11.539
 6195SOL     OW19471   2.482   3.415  12.457
 6195SOL    HW119472   2.482   3.497  12.507
 6195SOL    HW219473   2.570   3.409  12.420
 6196SOL     OW19474   3.217   1.915  11.339
 6196SOL    HW119475   3.247   1.847  11.279
 6196SOL    HW219476   3.128   1.888  11.364
 6197SOL     OW19477   3.157   2.324  11.852
 6197SOL    HW119478   3.105   2.404  11.858
 6197SOL    HW219479   3.154   2.286  11.939
 6198SOL     OW19480   3.444   2.060  12.050
 6198SOL    HW119481   3.388   2.084  12.124
 6198SOL    HW219482   3.445   2.138  11.994
 6199SOL     OW19483   1.905   2.930  11.480
 6199SOL    HW119484   1.998   2.923  11.462
 6199SOL    HW219485   1.877   2.841  11.502
 6200SOL     OW19486   2.748   3.521  11.515
 6200SOL    HW119487   2.677   3.502  11.454
 6200SOL    HW219488   2.717   3.596  11.565
 6201SOL     OW19489   2.081   2.507  13.163
 6201SOL    HW119490   1.993   2.497  13.200
 6201SOL    HW219491   2.069   2.495  13.069
 6202SOL     OW19492   1.866   2.260  13.654
 6202SOL    HW119493   1.772   2.271  13.672
 6202SOL    HW219494   1.869   2.199  13.580
 6203SOL     OW19495   3.385   3.358  13.728
 6203SOL    HW119496   3.330   3.290  13.766
 6203SOL    HW219497   3.341   3.381  13.646
 6204SOL     OW19498   2.990   2.561  13.730
 6204SOL    HW119499   3.043   2.638  13.708
 6204SOL    HW219500   2.945   2.585  13.811
 6205SOL     OW19501   3.639   2.466  13.261
 6205SOL    HW119502   3.614   2.459  13.169
 6205SOL    HW219503   3.596   2.391  13.303
 6206SOL     OW19504   2.545   2.871  13.672
 6206SOL    HW119505   2.600   2.852  13.748
 6206SOL    HW219506   2.471   2.921  13.707
 6207SOL     OW19507   3.484   2.322  13.755
 6207SOL    HW119508   3.397   2.313  13.717
 6207SOL    HW219509   3.477   2.397  13.814
 6208SOL     OW19510   2.085   3.578  13.519
 6208SOL    HW119511   2.121   3.627  13.593
 6208SOL    HW219512   2.156   3.578  13.454
 6209SOL     OW19513   2.093   3.303  13.570
 6209SOL    HW119514   2.074   3.397  13.573
 6209SOL    HW219515   2.033   3.264  13.633
 6210SOL     OW19516   2.103   2.970   0.028
 6210SOL    HW119517   2.122   2.907   0.097
 6210SOL    HW219518   2.033   3.025   0.063
 6211SOL     OW19519   2.445   2.847  13.167
 6211SOL    HW119520   2.492   2.894  13.098
 6211SOL    HW219521   2.483   2.880  13.249
 6212SOL     OW19522   1.985   2.513  13.595
 6212SOL    HW119523   1.948   2.426  13.612
 6212SOL    HW219524   1.965   2.563  13.675
 6213SOL     OW19525   3.699   3.613  13.374
 6213SOL    HW119526   3.771   3.587  13.431
 6213SOL    HW219527   3.716   3.705  13.354
 6214SOL     OW19528   1.891   3.453  13.156
 6214SOL    HW119529   1.876   3.361  13.178
 6214SOL    HW219530   1.872   3.500  13.237
 6215SOL     OW19531   3.548   2.778  13.670
 6215SOL    HW119532   3.635   2.744  13.649
 6215SOL    HW219533   3.525   2.834  13.595
 6216SOL     OW19534   3.504   2.966  13.463
 6216SOL    HW119535   3.588   2.969  13.418
 6216SOL    HW219536   3.511   3.030  13.533
 6217SOL     OW19537   2.467   3.245  13.759
 6217SOL    HW119538   2.423   3.161  13.766
 6217SOL    HW219539   2.445   3.277  13.672
 6218SOL     OW19540   2.695   1.862  13.545
 6218SOL    HW119541   2.730   1.948  13.522
 6218SOL    HW219542   2.600   1.874  13.545
 6219SOL     OW19543   3.389   2.857  13.234
 6219SOL    HW119544   3.320   2.800  13.268
 6219SOL    HW219545   3.430   2.894  13.313
 6220SOL     OW19546   3.512   3.599  13.615
 6220SOL    HW119547   3.497   3.569  13.525
 6220SOL    HW219548   3.506   3.519  13.667
 6221SOL     OW19549   2.465   2.598  13.304
 6221SOL    HW119550   2.468   2.676  13.249
 6221SOL    HW219551   2.399   2.618  13.371
 6222SOL     OW19552   3.118   2.190   0.045
 6222SOL    HW119553   3.040   2.140   0.070
 6222SOL    HW219554   3.191   2.143   0.086
 6223SOL     OW19555   3.436   3.540  13.340
 6223SOL    HW119556   3.529   3.564  13.337
 6223SOL    HW219557   3.413   3.519  13.250
 6224SOL     OW19558   2.911   2.559  13.458
 6224SOL    HW119559   2.927   2.549  13.552
 6224SOL    HW219560   2.829   2.512  13.443
 6225SOL     OW19561   1.946   2.684  13.808
 6225SOL    HW119562   2.025   2.685  13.860
 6225SOL    HW219563   1.894   2.757  13.842
 6226SOL     OW19564   2.760   2.214  13.234
 6226SOL    HW119565   2.803   2.269  13.169
 6226SOL    HW219566   2.738   2.134  13.187
 6227SOL     OW19567   3.225   2.997  13.552
 6227SOL    HW119568   3.314   2.995  13.519
 6227SOL    HW219569   3.183   3.068  13.504
 6228SOL     OW19570   2.862   3.303  13.502
 6228SOL    HW119571   2.829   3.379  13.455
 6228SOL    HW219572   2.831   3.316  13.592
 6229SOL     OW19573   2.255   3.666  13.799
 6229SOL    HW119574   2.213   3.596  13.849
 6229SOL    HW219575   2.314   3.709  13.861
 6230SOL     OW19576   3.651   2.916  13.899
 6230SOL    HW119577   3.595   2.904  13.823
 6230SOL    HW219578   3.592   2.909   0.074
 6231SOL     OW19579   2.182   2.818  13.288
 6231SOL    HW119580   2.261   2.840  13.240
 6231SOL    HW219581   2.149   2.739  13.246
 6232SOL     OW19582   3.351   2.596  13.745
 6232SOL    HW119583   3.342   2.556  13.832
 6232SOL    HW219584   3.424   2.657  13.754
 6233SOL     OW19585   2.976   3.644  13.255
 6233SOL    HW119586   2.913   3.598  13.310
 6233SOL    HW219587   3.006   3.578  13.193
 6234SOL     OW19588   3.487   3.246  13.122
 6234SOL    HW119589   3.444   3.330  13.105
 6234SOL    HW219590   3.420   3.181  13.102
 6235SOL     OW19591   2.329   3.596  13.358
 6235SOL    HW119592   2.366   3.660  13.418
 6235SOL    HW219593   2.402   3.572  13.301
 6236SOL     OW19594   3.264   1.975  13.466
 6236SOL    HW119595   3.255   1.947  13.375
 6236SOL    HW219596   3.359   1.975  13.483
 6237SOL     OW19597   2.794   3.547   0.009
 6237SOL    HW119598   2.809   3.480   0.075
 6237SOL    HW219599   2.749   3.500  13.838
 6238SOL     OW19600   2.254   2.549  13.509
 6238SOL    HW119601   2.268   2.460  13.479
 6238SOL    HW219602   2.161   2.553  13.534
 6239SOL     OW19603   2.522   1.990  13.131
 6239SOL    HW119604   2.565   1.910  13.163
 6239SOL    HW219605   2.457   1.959  13.068
 6240SOL     OW19606   2.429   1.904  13.528
 6240SOL    HW119607   2.382   1.890  13.610
 6240SOL    HW219608   2.407   1.994  13.503
 6241SOL     OW19609   3.290   3.061  13.074
 6241SOL    HW119610   3.320   2.986  13.125
 6241SOL    HW219611   3.204   3.082  13.112
 6242SOL     OW19612   2.803   2.111  13.491
 6242SOL    HW119613   2.780   2.149  13.407
 6242SOL    HW219614   2.898   2.124  13.498
 6243SOL     OW19615   2.325   3.006  13.769
 6243SOL    HW119616   2.253   2.993  13.831
 6243SOL    HW219617   2.286   2.994  13.683
 6244SOL     OW19618   3.130   3.660  13.629
 6244SOL    HW119619   3.175   3.728  13.579
 6244SOL    HW219620   3.061   3.707  13.677
 6245SOL     OW19621   2.887   2.401  13.057
 6245SOL    HW119622   2.843   2.484  13.039
 6245SOL    HW219623   2.951   2.422  13.125
 6246SOL     OW19624   2.747   2.330  13.669
 6246SOL    HW119625   2.697   2.381  13.605
 6246SOL    HW219626   2.763   2.246  13.626
 6247SOL     OW19627   2.886   1.900  13.774
 6247SOL    HW119628   2.828   1.903  13.698
 6247SOL    HW219629   2.861   1.820  13.819
 6248SOL     OW19630   3.728   2.677  13.410
 6248SOL    HW119631   3.776   2.622  13.472
 6248SOL    HW219632   3.692   2.615  13.346
 6249SOL     OW19633   2.352   3.280  13.188
 6249SOL    HW119634   2.277   3.253  13.240
 6249SOL    HW219635   2.339   3.238  13.103
 6250SOL     OW19636   3.540   3.132  13.665
 6250SOL    HW119637   3.634   3.134  13.682
 6250SOL    HW219638   3.507   3.215  13.701
 6251SOL     OW19639   3.256   2.434  13.105
 6251SOL    HW119640   3.194   2.414  13.175
 6251SOL    HW219641   3.340   2.401  13.138
 6252SOL     OW19642   2.571   2.925  13.400
 6252SOL    HW119643   2.556   2.909  13.493
 6252SOL    HW219644   2.647   2.871  13.378
 6253SOL     OW19645   2.209   2.974  13.524
 6253SOL    HW119646   2.211   3.050  13.465
 6253SOL    HW219647   2.205   2.899  13.465
 6254SOL     OW19648   2.412   2.419  13.882
 6254SOL    HW119649   2.428   2.481  13.811
 6254SOL    HW219650   2.497   2.411   0.026
 6255SOL     OW19651   3.107   3.214  13.418
 6255SOL    HW119652   3.162   3.287  13.446
 6255SOL    HW219653   3.021   3.234  13.454
 6256SOL     OW19654   3.443   2.486  13.501
 6256SOL    HW119655   3.400   2.526  13.577
 6256SOL    HW219656   3.477   2.561  13.451
 6257SOL     OW19657   3.064   2.390  13.298
 6257SOL    HW119658   3.071   2.311  13.351
 6257SOL    HW219659   3.021   2.454  13.355
 6258SOL     OW19660   3.482   2.238  13.397
 6258SOL    HW119661   3.506   2.174  13.465
 6258SOL    HW219662   3.459   2.317  13.446
 6259SOL     OW19663   3.391   2.134  13.161
 6259SOL    HW119664   3.326   2.070  13.187
 6259SOL    HW219665   3.424   2.170  13.243
 6260SOL     OW19666   3.150   2.686  13.063
 6260SOL    HW119667   3.194   2.602  13.067
 6260SOL    HW219668   3.183   2.726  12.982
 6261SOL     OW19669   1.868   3.180  13.228
 6261SOL    HW119670   1.781   3.196  13.191
 6261SOL    HW219671   1.864   3.091  13.263
 6262SOL     OW19672   2.676   2.432  13.398
 6262SOL    HW119673   2.684   2.358  13.337
 6262SOL    HW219674   2.604   2.484  13.363
 6263SOL     OW19675   2.326   2.377  13.243
 6263SOL    HW119676   2.389   2.448  13.252
 6263SOL    HW219677   2.245   2.419  13.215
 6264SOL     OW19678   3.176   2.714  13.338
 6264SOL    HW119679   3.099   2.688  13.388
 6264SOL    HW219680   3.150   2.701  13.246
 6265SOL     OW19681   3.576   2.011  13.548
 6265SOL    HW119682   3.642   1.999  13.479
 6265SOL    HW219683   3.564   1.923  13.585
 6266SOL     OW19684   3.244   3.436  13.508
 6266SOL    HW119685   3.304   3.473  13.444
 6266SOL    HW219686   3.199   3.512  13.545
 6267SOL     OW19687   3.149   2.775  13.684
 6267SOL    HW119688   3.226   2.720  13.671
 6267SOL    HW219689   3.172   2.858  13.642
 6268SOL     OW19690   2.537   3.479  13.191
 6268SOL    HW119691   2.546   3.497  13.098
 6268SOL    HW219692   2.478   3.404  13.196
 6269SOL     OW19693   3.681   2.022   0.087
 6269SOL    HW119694   3.694   1.936   0.048
 6269SOL    HW219695   3.587   2.037   0.080
 6270SOL     OW19696   3.070   3.466  13.070
 6270SOL    HW119697   3.059   3.374  13.093
 6270SOL    HW219698   3.008   3.479  12.997
 6271SOL     OW19699   2.781   2.775  13.329
 6271SOL    HW119700   2.840   2.805  13.259
 6271SOL    HW219701   2.828   2.702  13.370
 6272SOL     OW19702   3.350   3.494  13.076
 6272SOL    HW119703   3.256   3.481  13.060
 6272SOL    HW219704   3.389   3.498  12.989
 6273SOL     OW19705   2.912   2.953  13.754
 6273SOL    HW119706   2.826   2.913  13.740
 6273SOL    HW219707   2.969   2.914  13.687
 6274SOL     OW19708   2.461   3.353  13.506
 6274SOL    HW119709   2.508   3.303  13.439
 6274SOL    HW219710   2.395   3.402  13.457
 6275SOL     OW19711   2.123   3.204  13.324
 6275SOL    HW119712   2.030   3.202  13.301
 6275SOL    HW219713   2.125   3.244  13.411
 6276SOL     OW19714   3.039   3.199  13.149
 6276SOL    HW119715   2.948   3.170  13.151
 6276SOL    HW219716   3.066   3.200  13.241
 6277SOL     OW19717   3.079   2.182  13.491
 6277SOL    HW119718   3.141   2.110  13.481
 6277SOL    HW219719   3.110   2.230  13.568
 6278SOL     OW19720   2.454   2.607  13.690
 6278SOL    HW119721   2.490   2.694  13.672
 6278SOL    HW219722   2.383   2.597  13.626
 6279SOL     OW19723   2.726   3.229  13.072
 6279SOL    HW119724   2.685   3.256  13.154
 6279SOL    HW219725   2.741   3.310  13.024
 6280SOL     OW19726   2.513   3.714   0.067
 6280SOL    HW119727   2.508   3.808   0.084
 6280SOL    HW219728   2.605   3.692   0.079
 6281SOL     OW19729   2.688   2.828  13.896
 6281SOL    HW119730   2.718   2.744   0.032
 6281SOL    HW219731   2.721   2.893   0.058
 6282SOL     OW19732   2.938   2.848  13.122
 6282SOL    HW119733   2.918   2.901  13.045
 6282SOL    HW219734   3.013   2.795  13.096
 6283SOL     OW19735   1.953   3.092  13.700
 6283SOL    HW119736   1.948   3.036  13.777
 6283SOL    HW219737   2.020   3.052  13.645
 6284SOL     OW19738   3.542   3.322   0.347
 6284SOL    HW119739   3.511   3.294   0.261
 6284SOL    HW219740   3.629   3.284   0.355
 6285SOL     OW19741   2.679   3.411  13.708
 6285SOL    HW119742   2.653   3.463  13.631
 6285SOL    HW219743   2.603   3.356  13.726
 6286SOL     OW19744   2.634   3.195  13.349
 6286SOL    HW119745   2.605   3.104  13.356
 6286SOL    HW219746   2.716   3.198  13.399
 6287SOL     OW19747   3.216   1.915  13.200
 6287SOL    HW119748   3.247   1.846  13.141
 6287SOL    HW219749   3.128   1.888  13.225
 6288SOL     OW19750   3.166   2.322  13.712
 6288SOL    HW119751   3.112   2.401  13.718
 6288SOL    HW219752   3.151   2.276  13.795
 6289SOL     OW19753   1.906   2.930  13.341
 6289SOL    HW119754   1.999   2.922  13.323
 6289SOL    HW219755   1.878   2.841  13.363
 6290SOL     OW19756   2.748   3.520  13.377
 6290SOL    HW119757   2.677   3.503  13.316
 6290SOL    HW219758   2.718   3.594  13.429
 6291SOL     OW19759   2.094   3.982   0.984
 6291SOL    HW119760   2.117   3.962   1.074
 6291SOL    HW219761   2.003   3.953   0.975
 6292SOL     OW19762   1.877   0.063   0.712
 6292SOL    HW119763   1.799   0.107   0.677
 6292SOL    HW219764   1.912   0.013   0.638
 6293SOL     OW19765   3.660   0.360   0.255
 6293SOL    HW119766   3.637   0.305   0.180
 6293SOL    HW219767   3.580   0.364   0.307
 6294SOL     OW19768   2.301   0.095   1.506
 6294SOL    HW119769   2.374   0.053   1.459
 6294SOL    HW219770   2.225   0.042   1.485
 6295SOL     OW19771   3.458   3.850   1.460
 6295SOL    HW119772   3.462   3.937   1.420
 6295SOL    HW219773   3.444   3.868   1.553
 6296SOL     OW19774   2.668   3.727   0.506
 6296SOL    HW119775   2.696   3.818   0.497
 6296SOL    HW219776   2.573   3.732   0.516
 6297SOL     OW19777   3.130   0.062   0.936
 6297SOL    HW119778   3.057   0.008   0.905
 6297SOL    HW219779   3.185   0.002   0.986
 6298SOL     OW19780   2.416   3.904   0.892
 6298SOL    HW119781   2.410   3.924   0.985
 6298SOL    HW219782   2.411   3.989   0.848
 6299SOL     OW19783   2.053   3.983   1.489
 6299SOL    HW119784   2.001   0.063   1.499
 6299SOL    HW219785   2.014   3.922   1.551
 6300SOL     OW19786   3.270   3.839   0.429
 6300SOL    HW119787   3.263   3.798   0.343
 6300SOL    HW219788   3.360   3.822   0.457
 6301SOL     OW19789   3.398   3.938   1.724
 6301SOL    HW119790   3.423   3.941   1.816
 6301SOL    HW219791   3.329   3.872   1.719
 6302SOL     OW19792   2.635   3.958   1.743
 6302SOL    HW119793   2.687   3.928   1.818
 6302SOL    HW219794   2.548   3.975   1.780
 6303SOL     OW19795   2.397   3.782   0.515
 6303SOL    HW119796   2.347   3.782   0.597
 6303SOL    HW219797   2.406   3.875   0.493
 6304SOL     OW19798   2.134   3.744   0.209
 6304SOL    HW119799   2.166   3.831   0.186
 6304SOL    HW219800   2.213   3.695   0.234
 6305SOL     OW19801   2.419   3.944   1.169
 6305SOL    HW119802   2.462   3.872   1.216
 6305SOL    HW219803   2.328   3.939   1.196
 6306SOL     OW19804   2.882   3.767   0.734
 6306SOL    HW119805   2.817   3.756   0.666
 6306SOL    HW219806   2.859   3.702   0.801
 6307SOL     OW19807   2.785   3.803   1.398
 6307SOL    HW119808   2.814   3.782   1.309
 6307SOL    HW219809   2.858   3.851   1.436
 6308SOL     OW19810   3.129   0.075   1.265
 6308SOL    HW119811   3.140   0.143   1.331
 6308SOL    HW219812   3.061   0.108   1.207
 6309SOL     OW19813   2.371   3.749   1.756
 6309SOL    HW119814   2.315   3.704   1.693
 6309SOL    HW219815   2.341   3.840   1.754
 6310SOL     OW19816   2.157   3.920   1.251
 6310SOL    HW119817   2.112   3.939   1.334
 6310SOL    HW219818   2.145   3.826   1.238
 6311SOL     OW19819   3.461   3.936   0.156
 6311SOL    HW119820   3.381   3.885   0.156
 6311SOL    HW219821   3.436   0.021   0.192
 6312SOL     OW19822   3.025   3.922   1.473
 6312SOL    HW119823   3.028   3.996   1.534
 6312SOL    HW219824   3.067   3.954   1.393
 6313SOL     OW19825   2.782   3.823   0.150
 6313SOL    HW119826   2.812   3.816   0.059
 6313SOL    HW219827   2.842   3.769   0.200
 6314SOL     OW19828   3.588   3.862   0.532
 6314SOL    HW119829   3.656   3.849   0.466
 6314SOL    HW219830   3.568   3.775   0.564
 6315SOL     OW19831   3.697   3.895   0.963
 6315SOL    HW119832   3.730   3.808   0.939
 6315SOL    HW219833   3.611   3.900   0.921
 6316SOL     OW19834   2.538   3.910   1.490
 6316SOL    HW119835   2.621   3.901   1.443
 6316SOL    HW219836   2.564   3.932   1.580
 6317SOL     OW19837   1.925   3.857   0.341
 6317SOL    HW119838   1.910   3.939   0.294
 6317SOL    HW219839   2.006   3.822   0.302
 6318SOL     OW19840   3.052   0.009   0.466
 6318SOL    HW119841   3.117   3.939   0.468
 6318SOL    HW219842   3.074   0.064   0.542
 6319SOL     OW19843   3.647   0.048   1.629
 6319SOL    HW119844   3.604   0.081   1.550
 6319SOL    HW219845   3.577   0.003   1.677
 6320SOL     OW19846   3.677   3.910   1.235
 6320SOL    HW119847   3.666   3.818   1.259
 6320SOL    HW219848   3.687   3.909   1.140
 6321SOL     OW19849   3.301   3.932   1.117
 6321SOL    HW119850   3.329   3.851   1.159
 6321SOL    HW219851   3.243   3.973   1.181
 6322SOL     OW19852   2.877   3.736   1.148
 6322SOL    HW119853   2.820   3.681   1.095
 6322SOL    HW219854   2.963   3.693   1.143
 6323SOL     OW19855   3.215   3.783   0.151
 6323SOL    HW119856   3.254   3.711   0.101
 6323SOL    HW219857   3.131   3.747   0.182
 6324SOL     OW19858   3.146   0.163   0.679
 6324SOL    HW119859   3.143   0.258   0.687
 6324SOL    HW219860   3.149   0.132   0.770
 6325SOL     OW19861   3.441   3.930   0.880
 6325SOL    HW119862   3.389   3.932   0.961
 6325SOL    HW219863   3.437   0.020   0.847
 6326SOL     OW19864   2.094   3.980   2.844
 6326SOL    HW119865   2.118   3.962   2.936
 6326SOL    HW219866   2.003   3.953   2.837
 6327SOL     OW19867   1.875   0.061   2.577
 6327SOL    HW119868   1.803   0.112   2.540
 6327SOL    HW219869   1.910   0.012   2.502
 6328SOL     OW19870   3.634   0.319   2.044
 6328SOL    HW119871   3.557   0.303   1.989
 6328SOL    HW219872   3.597   0.342   2.130
 6329SOL     OW19873   2.301   0.095   3.368
 6329SOL    HW119874   2.374   0.053   3.322
 6329SOL    HW219875   2.225   0.042   3.347
 6330SOL     OW19876   3.458   3.850   3.322
 6330SOL    HW119877   3.461   3.937   3.282
 6330SOL    HW219878   3.444   3.868   3.415
 6331SOL     OW19879   2.668   3.729   2.367
 6331SOL    HW119880   2.695   3.821   2.361
 6331SOL    HW219881   2.573   3.732   2.376
 6332SOL     OW19882   3.129   0.062   2.800
 6332SOL    HW119883   3.057   0.008   2.767
 6332SOL    HW219884   3.185   0.001   2.849
 6333SOL     OW19885   2.416   3.904   2.753
 6333SOL    HW119886   2.410   3.924   2.847
 6333SOL    HW219887   2.411   3.990   2.711
 6334SOL     OW19888   2.053   3.983   3.351
 6334SOL    HW119889   2.001   0.063   3.361
 6334SOL    HW219890   2.014   3.922   3.413
 6335SOL     OW19891   3.268   3.833   2.292
 6335SOL    HW119892   3.259   3.799   2.203
 6335SOL    HW219893   3.360   3.819   2.314
 6336SOL     OW19894   3.398   3.938   3.586
 6336SOL    HW119895   3.423   3.941   3.678
 6336SOL    HW219896   3.329   3.872   3.581
 6337SOL     OW19897   2.490   3.848   1.990
 6337SOL    HW119898   2.581   3.819   1.989
 6337SOL    HW219899   2.449   3.801   1.917
 6338SOL     OW19900   2.635   3.958   3.605
 6338SOL    HW119901   2.687   3.928   3.680
 6338SOL    HW219902   2.548   3.975   3.642
 6339SOL     OW19903   2.397   3.785   2.377
 6339SOL    HW119904   2.349   3.787   2.460
 6339SOL    HW219905   2.405   3.877   2.351
 6340SOL     OW19906   2.148   3.759   2.041
 6340SOL    HW119907   2.188   3.845   2.033
 6340SOL    HW219908   2.216   3.704   2.080
 6341SOL     OW19909   2.419   3.943   3.031
 6341SOL    HW119910   2.462   3.872   3.079
 6341SOL    HW219911   2.328   3.939   3.058
 6342SOL     OW19912   2.882   3.767   2.597
 6342SOL    HW119913   2.817   3.754   2.527
 6342SOL    HW219914   2.859   3.702   2.663
 6343SOL     OW19915   2.785   3.803   3.260
 6343SOL    HW119916   2.814   3.782   3.171
 6343SOL    HW219917   2.858   3.851   3.298
 6344SOL     OW19918   3.129   0.075   3.127
 6344SOL    HW119919   3.140   0.143   3.193
 6344SOL    HW219920   3.061   0.108   3.068
 6345SOL     OW19921   2.371   3.749   3.618
 6345SOL    HW119922   2.315   3.704   3.555
 6345SOL    HW219923   2.341   3.840   3.616
 6346SOL     OW19924   2.156   3.920   3.113
 6346SOL    HW119925   2.112   3.939   3.195
 6346SOL    HW219926   2.144   3.826   3.100
 6347SOL     OW19927   3.444   3.954   1.985
 6347SOL    HW119928   3.379   3.898   2.027
 6347SOL    HW219929   3.457   0.026   2.047
 6348SOL     OW19930   3.025   3.922   3.335
 6348SOL    HW119931   3.028   3.995   3.396
 6348SOL    HW219932   3.067   3.954   3.255
 6349SOL     OW19933   2.763   3.811   1.964
 6349SOL    HW119934   2.823   3.772   1.901
 6349SOL    HW219935   2.803   3.795   2.049
 6350SOL     OW19936   3.590   3.859   2.387
 6350SOL    HW119937   3.659   3.845   2.321
 6350SOL    HW219938   3.570   3.772   2.419
 6351SOL     OW19939   3.697   3.896   2.825
 6351SOL    HW119940   3.730   3.809   2.802
 6351SOL    HW219941   3.611   3.900   2.783
 6352SOL     OW19942   2.538   3.910   3.352
 6352SOL    HW119943   2.621   3.901   3.305
 6352SOL    HW219944   2.563   3.932   3.442
 6353SOL     OW19945   1.907   0.053   1.896
 6353SOL    HW119946   1.868   0.029   1.812
 6353SOL    HW219947   1.937   0.143   1.885
 6354SOL     OW19948   1.924   3.865   2.171
 6354SOL    HW119949   1.913   3.954   2.140
 6354SOL    HW219950   2.005   3.835   2.130
 6355SOL     OW19951   3.055   0.012   2.328
 6355SOL    HW119952   3.123   3.944   2.327
 6355SOL    HW219953   3.077   0.066   2.404
 6356SOL     OW19954   3.647   0.048   3.491
 6356SOL    HW119955   3.604   0.081   3.412
 6356SOL    HW219956   3.577   0.003   3.539
 6357SOL     OW19957   3.677   3.910   3.098
 6357SOL    HW119958   3.666   3.818   3.121
 6357SOL    HW219959   3.687   3.910   3.002
 6358SOL     OW19960   3.301   3.932   2.979
 6358SOL    HW119961   3.329   3.851   3.022
 6358SOL    HW219962   3.243   3.973   3.043
 6359SOL     OW19963   2.877   3.736   3.010
 6359SOL    HW119964   2.820   3.681   2.957
 6359SOL    HW219965   2.963   3.693   3.005
 6360SOL     OW19966   3.217   3.770   2.021
 6360SOL    HW119967   3.250   3.700   1.966
 6360SOL    HW219968   3.129   3.742   2.047
 6361SOL     OW19969   3.144   0.162   2.544
 6361SOL    HW119970   3.145   0.257   2.549
 6361SOL    HW219971   3.148   0.133   2.636
 6362SOL     OW19972   3.440   3.930   2.742
 6362SOL    HW119973   3.390   3.932   2.823
 6362SOL    HW219974   3.437   0.020   2.709
 6363SOL     OW19975   2.095   3.980   4.706
 6363SOL    HW119976   2.118   3.962   4.797
 6363SOL    HW219977   2.003   3.953   4.699
 6364SOL     OW19978   1.875   0.060   4.439
 6364SOL    HW119979   1.803   0.112   4.402
 6364SOL    HW219980   1.910   0.012   4.364
 6365SOL     OW19981   3.634   0.319   3.906
 6365SOL    HW119982   3.558   0.303   3.851
 6365SOL    HW219983   3.597   0.342   3.992
 6366SOL     OW19984   2.301   0.095   5.230
 6366SOL    HW119985   2.374   0.053   5.184
 6366SOL    HW219986   2.225   0.041   5.209
 6367SOL     OW19987   3.458   3.850   5.184
 6367SOL    HW119988   3.462   3.937   5.144
 6367SOL    HW219989   3.444   3.868   5.277
 6368SOL     OW19990   2.668   3.729   4.229
 6368SOL    HW119991   2.695   3.821   4.223
 6368SOL    HW219992   2.573   3.732   4.238
 6369SOL     OW19993   3.129   0.062   4.663
 6369SOL    HW119994   3.057   0.008   4.629
 6369SOL    HW219995   3.185   0.001   4.711
 6370SOL     OW19996   2.416   3.904   4.615
 6370SOL    HW119997   2.410   3.924   4.709
 6370SOL    HW219998   2.411   3.990   4.573
 6371SOL     OW19999   2.052   3.984   5.212
 6371SOL    HW120000   2.003   0.065   5.222
 6371SOL    HW220001   2.013   3.924   5.276
 6372SOL     OW20002   3.268   3.833   4.154
 6372SOL    HW120003   3.259   3.799   4.065
 6372SOL    HW220004   3.360   3.819   4.176
 6373SOL     OW20005   3.398   3.938   5.448
 6373SOL    HW120006   3.423   3.941   5.540
 6373SOL    HW220007   3.329   3.872   5.443
 6374SOL     OW20008   2.490   3.848   3.852
 6374SOL    HW120009   2.581   3.819   3.851
 6374SOL    HW220010   2.449   3.801   3.779
 6375SOL     OW20011   2.635   3.958   5.467
 6375SOL    HW120012   2.687   3.928   5.542
 6375SOL    HW220013   2.548   3.976   5.504
 6376SOL     OW20014   2.397   3.785   4.239
 6376SOL    HW120015   2.349   3.787   4.322
 6376SOL    HW220016   2.405   3.877   4.213
 6377SOL     OW20017   2.148   3.759   3.903
 6377SOL    HW120018   2.188   3.846   3.895
 6377SOL    HW220019   2.216   3.704   3.942
 6378SOL     OW20020   2.419   3.943   4.893
 6378SOL    HW120021   2.462   3.872   4.941
 6378SOL    HW220022   2.328   3.939   4.920
 6379SOL     OW20023   2.882   3.767   4.459
 6379SOL    HW120024   2.817   3.754   4.389
 6379SOL    HW220025   2.859   3.702   4.525
 6380SOL     OW20026   2.785   3.803   5.122
 6380SOL    HW120027   2.814   3.782   5.033
 6380SOL    HW220028   2.858   3.851   5.160
 6381SOL     OW20029   3.129   0.075   4.989
 6381SOL    HW120030   3.140   0.143   5.055
 6381SOL    HW220031   3.061   0.108   4.930
 6382SOL     OW20032   2.371   3.750   5.480
 6382SOL    HW120033   2.315   3.704   5.417
 6382SOL    HW220034   2.341   3.841   5.478
 6383SOL     OW20035   2.156   3.920   4.975
 6383SOL    HW120036   2.111   3.939   5.057
 6383SOL    HW220037   2.144   3.826   4.962
 6384SOL     OW20038   3.444   3.954   3.847
 6384SOL    HW120039   3.379   3.898   3.889
 6384SOL    HW220040   3.457   0.026   3.909
 6385SOL     OW20041   3.025   3.922   5.197
 6385SOL    HW120042   3.028   3.996   5.258
 6385SOL    HW220043   3.067   3.954   5.117
 6386SOL     OW20044   2.763   3.811   3.826
 6386SOL    HW120045   2.823   3.772   3.763
 6386SOL    HW220046   2.803   3.795   3.911
 6387SOL     OW20047   3.590   3.859   4.249
 6387SOL    HW120048   3.659   3.845   4.183
 6387SOL    HW220049   3.570   3.772   4.281
 6388SOL     OW20050   3.697   3.895   4.687
 6388SOL    HW120051   3.730   3.809   4.664
 6388SOL    HW220052   3.611   3.901   4.645
 6389SOL     OW20053   2.538   3.910   5.214
 6389SOL    HW120054   2.621   3.901   5.167
 6389SOL    HW220055   2.563   3.932   5.304
 6390SOL     OW20056   1.907   0.052   3.758
 6390SOL    HW120057   1.868   0.029   3.673
 6390SOL    HW220058   1.937   0.143   3.746
 6391SOL     OW20059   1.924   3.865   4.033
 6391SOL    HW120060   1.913   3.955   4.002
 6391SOL    HW220061   2.005   3.835   3.992
 6392SOL     OW20062   3.055   0.011   4.190
 6392SOL    HW120063   3.123   3.944   4.189
 6392SOL    HW220064   3.077   0.066   4.266
 6393SOL     OW20065   3.647   0.048   5.353
 6393SOL    HW120066   3.604   0.081   5.274
 6393SOL    HW220067   3.577   0.003   5.401
 6394SOL     OW20068   3.677   3.910   4.960
 6394SOL    HW120069   3.666   3.818   4.983
 6394SOL    HW220070   3.687   3.910   4.864
 6395SOL     OW20071   3.301   3.932   4.841
 6395SOL    HW120072   3.329   3.851   4.884
 6395SOL    HW220073   3.243   3.973   4.905
 6396SOL     OW20074   2.877   3.736   4.872
 6396SOL    HW120075   2.820   3.681   4.819
 6396SOL    HW220076   2.963   3.693   4.867
 6397SOL     OW20077   3.217   3.770   3.883
 6397SOL    HW120078   3.250   3.700   3.828
 6397SOL    HW220079   3.129   3.742   3.909
 6398SOL     OW20080   3.144   0.162   4.406
 6398SOL    HW120081   3.145   0.257   4.411
 6398SOL    HW220082   3.148   0.133   4.498
 6399SOL     OW20083   3.440   3.930   4.604
 6399SOL    HW120084   3.390   3.932   4.685
 6399SOL    HW220085   3.437   0.020   4.571
 6400SOL     OW20086   2.094   3.980   6.569
 6400SOL    HW120087   2.118   3.962   6.660
 6400SOL    HW220088   2.003   3.953   6.561
 6401SOL     OW20089   1.875   0.060   6.301
 6401SOL    HW120090   1.804   0.113   6.264
 6401SOL    HW220091   1.911   0.012   6.226
 6402SOL     OW20092   3.634   0.319   5.768
 6402SOL    HW120093   3.558   0.303   5.713
 6402SOL    HW220094   3.597   0.341   5.854
 6403SOL     OW20095   2.302   0.095   7.092
 6403SOL    HW120096   2.374   0.052   7.046
 6403SOL    HW220097   2.225   0.041   7.071
 6404SOL     OW20098   3.458   3.850   7.046
 6404SOL    HW120099   3.461   3.937   7.005
 6404SOL    HW220100   3.444   3.868   7.139
 6405SOL     OW20101   2.668   3.730   6.090
 6405SOL    HW120102   2.694   3.821   6.084
 6405SOL    HW220103   2.573   3.733   6.100
 6406SOL     OW20104   3.128   0.062   6.525
 6406SOL    HW120105   3.058   0.008   6.491
 6406SOL    HW220106   3.185   0.001   6.573
 6407SOL     OW20107   2.415   3.905   6.477
 6407SOL    HW120108   2.410   3.924   6.571
 6407SOL    HW220109   2.411   3.991   6.435
 6408SOL     OW20110   2.052   3.984   7.075
 6408SOL    HW120111   2.002   0.065   7.082
 6408SOL    HW220112   2.014   3.927   7.141
 6409SOL     OW20113   3.268   3.833   6.016
 6409SOL    HW120114   3.259   3.799   5.927
 6409SOL    HW220115   3.360   3.819   6.038
 6410SOL     OW20116   3.397   3.939   7.310
 6410SOL    HW120117   3.422   3.941   7.402
 6410SOL    HW220118   3.329   3.872   7.305
 6411SOL     OW20119   2.490   3.848   5.714
 6411SOL    HW120120   2.581   3.819   5.713
 6411SOL    HW220121   2.449   3.801   5.641
 6412SOL     OW20122   2.634   3.958   7.330
 6412SOL    HW120123   2.687   3.928   7.404
 6412SOL    HW220124   2.548   3.974   7.367
 6413SOL     OW20125   2.396   3.785   6.100
 6413SOL    HW120126   2.349   3.787   6.184
 6413SOL    HW220127   2.405   3.877   6.075
 6414SOL     OW20128   2.147   3.759   5.766
 6414SOL    HW120129   2.187   3.846   5.757
 6414SOL    HW220130   2.216   3.704   5.804
 6415SOL     OW20131   2.419   3.943   6.755
 6415SOL    HW120132   2.462   3.872   6.801
 6415SOL    HW220133   2.328   3.939   6.782
 6416SOL     OW20134   2.883   3.767   6.321
 6416SOL    HW120135   2.818   3.754   6.251
 6416SOL    HW220136   2.859   3.702   6.387
 6417SOL     OW20137   2.784   3.805   6.983
 6417SOL    HW120138   2.813   3.783   6.894
 6417SOL    HW220139   2.858   3.851   7.022
 6418SOL     OW20140   3.129   0.074   6.851
 6418SOL    HW120141   3.140   0.143   6.917
 6418SOL    HW220142   3.062   0.108   6.792
 6419SOL     OW20143   2.371   3.750   7.342
 6419SOL    HW120144   2.315   3.705   7.279
 6419SOL    HW220145   2.341   3.841   7.340
 6420SOL     OW20146   2.156   3.920   6.837
 6420SOL    HW120147   2.111   3.938   6.920
 6420SOL    HW220148   2.144   3.826   6.824
 6421SOL     OW20149   3.444   3.954   5.709
 6421SOL    HW120150   3.379   3.898   5.751
 6421SOL    HW220151   3.457   0.026   5.771
 6422SOL     OW20152   3.024   3.922   7.059
 6422SOL    HW120153   3.029   3.996   7.120
 6422SOL    HW220154   3.067   3.954   6.979
 6423SOL     OW20155   2.763   3.811   5.688
 6423SOL    HW120156   2.823   3.772   5.625
 6423SOL    HW220157   2.803   3.795   5.773
 6424SOL     OW20158   3.590   3.859   6.111
 6424SOL    HW120159   3.659   3.845   6.045
 6424SOL    HW220160   3.570   3.772   6.143
 6425SOL     OW20161   3.697   3.895   6.549
 6425SOL    HW120162   3.730   3.809   6.526
 6425SOL    HW220163   3.611   3.900   6.507
 6426SOL     OW20164   2.538   3.910   7.076
 6426SOL    HW120165   2.621   3.900   7.029
 6426SOL    HW220166   2.564   3.933   7.166
 6427SOL     OW20167   1.907   0.053   5.620
 6427SOL    HW120168   1.868   0.029   5.535
 6427SOL    HW220169   1.937   0.143   5.608
 6428SOL     OW20170   1.924   3.865   5.895
 6428SOL    HW120171   1.913   3.954   5.864
 6428SOL    HW220172   2.005   3.835   5.854
 6429SOL     OW20173   3.055   0.011   6.052
 6429SOL    HW120174   3.123   3.944   6.050
 6429SOL    HW220175   3.077   0.066   6.128
 6430SOL     OW20176   3.646   0.048   7.215
 6430SOL    HW120177   3.604   0.081   7.136
 6430SOL    HW220178   3.577   0.003   7.263
 6431SOL     OW20179   3.678   3.910   6.822
 6431SOL    HW120180   3.666   3.818   6.845
 6431SOL    HW220181   3.687   3.909   6.727
 6432SOL     OW20182   3.302   3.932   6.703
 6432SOL    HW120183   3.329   3.850   6.744
 6432SOL    HW220184   3.243   3.973   6.767
 6433SOL     OW20185   2.877   3.736   6.734
 6433SOL    HW120186   2.819   3.681   6.682
 6433SOL    HW220187   2.963   3.693   6.729
 6434SOL     OW20188   3.217   3.770   5.745
 6434SOL    HW120189   3.250   3.700   5.690
 6434SOL    HW220190   3.129   3.742   5.771
 6435SOL     OW20191   3.144   0.162   6.269
 6435SOL    HW120192   3.145   0.257   6.273
 6435SOL    HW220193   3.148   0.134   6.360
 6436SOL     OW20194   3.441   3.930   6.465
 6436SOL    HW120195   3.390   3.932   6.546
 6436SOL    HW220196   3.437   0.020   6.433
 6437SOL     OW20197   2.095   3.980   8.430
 6437SOL    HW120198   2.118   3.962   8.522
 6437SOL    HW220199   2.003   3.953   8.423
 6438SOL     OW20200   1.875   0.061   8.163
 6438SOL    HW120201   1.803   0.112   8.127
 6438SOL    HW220202   1.909   0.012   8.088
 6439SOL     OW20203   3.633   0.320   7.630
 6439SOL    HW120204   3.558   0.304   7.574
 6439SOL    HW220205   3.596   0.341   7.716
 6440SOL     OW20206   2.302   0.095   8.954
 6440SOL    HW120207   2.373   0.052   8.907
 6440SOL    HW220208   2.225   0.042   8.933
 6441SOL     OW20209   3.458   3.850   8.908
 6441SOL    HW120210   3.462   3.936   8.867
 6441SOL    HW220211   3.444   3.868   9.001
 6442SOL     OW20212   2.668   3.730   7.954
 6442SOL    HW120213   2.694   3.822   7.948
 6442SOL    HW220214   2.573   3.733   7.963
 6443SOL     OW20215   3.129   0.062   8.387
 6443SOL    HW120216   3.058   0.007   8.353
 6443SOL    HW220217   3.185   0.002   8.435
 6444SOL     OW20218   2.416   3.904   8.339
 6444SOL    HW120219   2.410   3.924   8.433
 6444SOL    HW220220   2.411   3.990   8.297
 6445SOL     OW20221   2.053   3.983   8.937
 6445SOL    HW120222   2.000   0.063   8.947
 6445SOL    HW220223   2.014   3.922   8.999
 6446SOL     OW20224   3.267   3.833   7.878
 6446SOL    HW120225   3.259   3.799   7.789
 6446SOL    HW220226   3.359   3.819   7.900
 6447SOL     OW20227   3.398   3.938   9.172
 6447SOL    HW120228   3.423   3.941   9.264
 6447SOL    HW220229   3.329   3.872   9.167
 6448SOL     OW20230   2.490   3.849   7.575
 6448SOL    HW120231   2.581   3.819   7.575
 6448SOL    HW220232   2.449   3.801   7.503
 6449SOL     OW20233   2.635   3.958   9.191
 6449SOL    HW120234   2.687   3.928   9.266
 6449SOL    HW220235   2.548   3.975   9.228
 6450SOL     OW20236   2.397   3.785   7.962
 6450SOL    HW120237   2.349   3.787   8.045
 6450SOL    HW220238   2.405   3.877   7.937
 6451SOL     OW20239   2.148   3.759   7.627
 6451SOL    HW120240   2.188   3.846   7.619
 6451SOL    HW220241   2.216   3.704   7.665
 6452SOL     OW20242   2.419   3.943   8.617
 6452SOL    HW120243   2.462   3.872   8.665
 6452SOL    HW220244   2.328   3.939   8.644
 6453SOL     OW20245   2.882   3.767   8.183
 6453SOL    HW120246   2.817   3.754   8.114
 6453SOL    HW220247   2.859   3.702   8.250
 6454SOL     OW20248   2.785   3.803   8.846
 6454SOL    HW120249   2.814   3.782   8.757
 6454SOL    HW220250   2.858   3.851   8.884
 6455SOL     OW20251   3.129   0.075   8.713
 6455SOL    HW120252   3.140   0.143   8.779
 6455SOL    HW220253   3.062   0.108   8.654
 6456SOL     OW20254   2.371   3.749   9.204
 6456SOL    HW120255   2.315   3.704   9.141
 6456SOL    HW220256   2.341   3.840   9.202
 6457SOL     OW20257   2.156   3.920   8.699
 6457SOL    HW120258   2.112   3.939   8.781
 6457SOL    HW220259   2.145   3.826   8.686
 6458SOL     OW20260   3.444   3.954   7.571
 6458SOL    HW120261   3.380   3.896   7.613
 6458SOL    HW220262   3.458   0.024   7.634
 6459SOL     OW20263   3.025   3.922   8.921
 6459SOL    HW120264   3.028   3.996   8.982
 6459SOL    HW220265   3.067   3.954   8.842
 6460SOL     OW20266   2.763   3.811   7.550
 6460SOL    HW120267   2.822   3.770   7.486
 6460SOL    HW220268   2.804   3.794   7.635
 6461SOL     OW20269   3.590   3.860   7.972
 6461SOL    HW120270   3.659   3.845   7.907
 6461SOL    HW220271   3.570   3.772   8.005
 6462SOL     OW20272   3.697   3.895   8.411
 6462SOL    HW120273   3.730   3.809   8.388
 6462SOL    HW220274   3.611   3.900   8.369
 6463SOL     OW20275   2.538   3.910   8.938
 6463SOL    HW120276   2.621   3.901   8.891
 6463SOL    HW220277   2.563   3.932   9.028
 6464SOL     OW20278   1.908   0.053   7.481
 6464SOL    HW120279   1.869   0.030   7.397
 6464SOL    HW220280   1.937   0.143   7.470
 6465SOL     OW20281   1.924   3.865   7.757
 6465SOL    HW120282   1.913   3.955   7.727
 6465SOL    HW220283   2.005   3.835   7.716
 6466SOL     OW20284   3.055   0.012   7.914
 6466SOL    HW120285   3.123   3.944   7.912
 6466SOL    HW220286   3.077   0.066   7.990
 6467SOL     OW20287   3.647   0.048   9.077
 6467SOL    HW120288   3.604   0.081   8.998
 6467SOL    HW220289   3.577   0.003   9.125
 6468SOL     OW20290   3.677   3.910   8.684
 6468SOL    HW120291   3.667   3.818   8.707
 6468SOL    HW220292   3.687   3.910   8.588
 6469SOL     OW20293   3.301   3.932   8.565
 6469SOL    HW120294   3.329   3.851   8.607
 6469SOL    HW220295   3.243   3.973   8.629
 6470SOL     OW20296   2.877   3.736   8.596
 6470SOL    HW120297   2.820   3.681   8.543
 6470SOL    HW220298   2.963   3.693   8.591
 6471SOL     OW20299   3.217   3.770   7.607
 6471SOL    HW120300   3.251   3.699   7.552
 6471SOL    HW220301   3.129   3.741   7.632
 6472SOL     OW20302   3.144   0.162   8.130
 6472SOL    HW120303   3.145   0.258   8.136
 6472SOL    HW220304   3.148   0.133   8.222
 6473SOL     OW20305   3.440   3.930   8.327
 6473SOL    HW120306   3.390   3.932   8.408
 6473SOL    HW220307   3.437   0.020   8.295
 6474SOL     OW20308   2.095   3.980  10.292
 6474SOL    HW120309   2.118   3.962  10.384
 6474SOL    HW220310   2.003   3.953  10.285
 6475SOL     OW20311   1.875   0.061  10.025
 6475SOL    HW120312   1.803   0.112   9.988
 6475SOL    HW220313   1.910   0.012   9.950
 6476SOL     OW20314   3.634   0.319   9.492
 6476SOL    HW120315   3.558   0.303   9.437
 6476SOL    HW220316   3.597   0.342   9.578
 6477SOL     OW20317   2.301   0.095  10.816
 6477SOL    HW120318   2.374   0.053  10.769
 6477SOL    HW220319   2.225   0.042  10.795
 6478SOL     OW20320   3.458   3.850  10.770
 6478SOL    HW120321   3.462   3.937  10.730
 6478SOL    HW220322   3.444   3.868  10.863
 6479SOL     OW20323   2.668   3.729   9.815
 6479SOL    HW120324   2.695   3.821   9.809
 6479SOL    HW220325   2.573   3.732   9.824
 6480SOL     OW20326   3.129   0.062  10.249
 6480SOL    HW120327   3.058   0.008  10.215
 6480SOL    HW220328   3.185   0.001  10.297
 6481SOL     OW20329   2.416   3.904  10.201
 6481SOL    HW120330   2.410   3.924  10.295
 6481SOL    HW220331   2.411   3.990  10.159
 6482SOL     OW20332   2.053   3.983  10.799
 6482SOL    HW120333   2.001   0.063  10.808
 6482SOL    HW220334   2.014   3.922  10.862
 6483SOL     OW20335   3.268   3.833   9.740
 6483SOL    HW120336   3.259   3.799   9.651
 6483SOL    HW220337   3.360   3.819   9.762
 6484SOL     OW20338   3.398   3.938  11.034
 6484SOL    HW120339   3.423   3.941  11.126
 6484SOL    HW220340   3.329   3.872  11.029
 6485SOL     OW20341   2.490   3.848   9.438
 6485SOL    HW120342   2.581   3.819   9.437
 6485SOL    HW220343   2.449   3.801   9.365
 6486SOL     OW20344   2.635   3.958  11.053
 6486SOL    HW120345   2.687   3.928  11.128
 6486SOL    HW220346   2.548   3.975  11.090
 6487SOL     OW20347   2.397   3.785   9.825
 6487SOL    HW120348   2.349   3.787   9.908
 6487SOL    HW220349   2.405   3.877   9.799
 6488SOL     OW20350   2.148   3.759   9.489
 6488SOL    HW120351   2.188   3.846   9.481
 6488SOL    HW220352   2.216   3.704   9.528
 6489SOL     OW20353   2.419   3.943  10.479
 6489SOL    HW120354   2.462   3.872  10.527
 6489SOL    HW220355   2.328   3.939  10.506
 6490SOL     OW20356   2.882   3.767  10.045
 6490SOL    HW120357   2.817   3.754   9.975
 6490SOL    HW220358   2.859   3.702  10.111
 6491SOL     OW20359   2.785   3.803  10.708
 6491SOL    HW120360   2.814   3.782  10.619
 6491SOL    HW220361   2.858   3.851  10.746
 6492SOL     OW20362   3.129   0.075  10.575
 6492SOL    HW120363   3.140   0.143  10.641
 6492SOL    HW220364   3.062   0.108  10.516
 6493SOL     OW20365   2.371   3.749  11.066
 6493SOL    HW120366   2.315   3.704  11.003
 6493SOL    HW220367   2.341   3.840  11.064
 6494SOL     OW20368   2.156   3.920  10.561
 6494SOL    HW120369   2.112   3.939  10.643
 6494SOL    HW220370   2.144   3.826  10.548
 6495SOL     OW20371   3.444   3.954   9.433
 6495SOL    HW120372   3.379   3.897   9.475
 6495SOL    HW220373   3.458   0.026   9.495
 6496SOL     OW20374   3.025   3.922  10.783
 6496SOL    HW120375   3.028   3.996  10.844
 6496SOL    HW220376   3.067   3.954  10.704
 6497SOL     OW20377   2.763   3.811   9.412
 6497SOL    HW120378   2.823   3.772   9.349
 6497SOL    HW220379   2.803   3.795   9.497
 6498SOL     OW20380   3.590   3.860   9.834
 6498SOL    HW120381   3.659   3.845   9.769
 6498SOL    HW220382   3.570   3.772   9.867
 6499SOL     OW20383   3.697   3.895  10.273
 6499SOL    HW120384   3.730   3.809  10.250
 6499SOL    HW220385   3.611   3.900  10.231
 6500SOL     OW20386   2.538   3.910  10.800
 6500SOL    HW120387   2.621   3.901  10.753
 6500SOL    HW220388   2.563   3.932  10.890
 6501SOL     OW20389   1.907   0.053   9.344
 6501SOL    HW120390   1.869   0.029   9.260
 6501SOL    HW220391   1.937   0.143   9.332
 6502SOL     OW20392   1.924   3.865   9.619
 6502SOL    HW120393   1.913   3.954   9.588
 6502SOL    HW220394   2.005   3.835   9.578
 6503SOL     OW20395   3.055   0.011   9.776
 6503SOL    HW120396   3.123   3.944   9.775
 6503SOL    HW220397   3.077   0.066   9.852
 6504SOL     OW20398   3.647   0.048  10.939
 6504SOL    HW120399   3.604   0.081  10.860
 6504SOL    HW220400   3.577   0.003  10.987
 6505SOL     OW20401   3.677   3.910  10.546
 6505SOL    HW120402   3.666   3.818  10.569
 6505SOL    HW220403   3.687   3.910  10.450
 6506SOL     OW20404   3.301   3.932  10.427
 6506SOL    HW120405   3.329   3.851  10.470
 6506SOL    HW220406   3.243   3.973  10.491
 6507SOL     OW20407   2.877   3.736  10.458
 6507SOL    HW120408   2.820   3.681  10.405
 6507SOL    HW220409   2.963   3.693  10.453
 6508SOL     OW20410   3.217   3.770   9.469
 6508SOL    HW120411   3.250   3.700   9.414
 6508SOL    HW220412   3.129   3.742   9.495
 6509SOL     OW20413   3.144   0.162   9.992
 6509SOL    HW120414   3.145   0.257   9.997
 6509SOL    HW220415   3.148   0.133  10.084
 6510SOL     OW20416   3.440   3.930  10.189
 6510SOL    HW120417   3.390   3.932  10.271
 6510SOL    HW220418   3.437   0.020  10.157
 6511SOL     OW20419   2.095   3.980  12.154
 6511SOL    HW120420   2.118   3.962  12.246
 6511SOL    HW220421   2.003   3.953  12.147
 6512SOL     OW20422   1.875   0.061  11.887
 6512SOL    HW120423   1.803   0.112  11.850
 6512SOL    HW220424   1.910   0.012  11.812
 6513SOL     OW20425   3.634   0.319  11.354
 6513SOL    HW120426   3.558   0.303  11.299
 6513SOL    HW220427   3.597   0.341  11.440
 6514SOL     OW20428   2.302   0.095  12.678
 6514SOL    HW120429   2.373   0.052  12.631
 6514SOL    HW220430   2.225   0.042  12.657
 6515SOL     OW20431   3.458   3.850  12.632
 6515SOL    HW120432   3.461   3.937  12.592
 6515SOL    HW220433   3.444   3.868  12.725
 6516SOL     OW20434   2.668   3.729  11.677
 6516SOL    HW120435   2.695   3.821  11.671
 6516SOL    HW220436   2.573   3.732  11.686
 6517SOL     OW20437   3.129   0.062  12.111
 6517SOL    HW120438   3.057   0.008  12.077
 6517SOL    HW220439   3.185   0.001  12.159
 6518SOL     OW20440   2.416   3.904  12.063
 6518SOL    HW120441   2.410   3.924  12.157
 6518SOL    HW220442   2.411   3.990  12.021
 6519SOL     OW20443   2.053   3.983  12.661
 6519SOL    HW120444   2.000   0.063  12.671
 6519SOL    HW220445   2.015   3.921  12.723
 6520SOL     OW20446   3.268   3.833  11.602
 6520SOL    HW120447   3.259   3.799  11.513
 6520SOL    HW220448   3.360   3.819  11.624
 6521SOL     OW20449   3.398   3.939  12.896
 6521SOL    HW120450   3.421   3.943  12.989
 6521SOL    HW220451   3.329   3.872  12.892
 6522SOL     OW20452   2.490   3.848  11.300
 6522SOL    HW120453   2.581   3.819  11.299
 6522SOL    HW220454   2.449   3.801  11.227
 6523SOL     OW20455   2.635   3.958  12.915
 6523SOL    HW120456   2.687   3.928  12.990
 6523SOL    HW220457   2.548   3.974  12.952
 6524SOL     OW20458   2.397   3.785  11.687
 6524SOL    HW120459   2.349   3.787  11.770
 6524SOL    HW220460   2.405   3.877  11.661
 6525SOL     OW20461   2.148   3.759  11.351
 6525SOL    HW120462   2.188   3.846  11.343
 6525SOL    HW220463   2.216   3.704  11.390
 6526SOL     OW20464   2.419   3.943  12.341
 6526SOL    HW120465   2.462   3.872  12.389
 6526SOL    HW220466   2.328   3.939  12.368
 6527SOL     OW20467   2.882   3.767  11.907
 6527SOL    HW120468   2.817   3.754  11.837
 6527SOL    HW220469   2.859   3.702  11.973
 6528SOL     OW20470   2.785   3.803  12.570
 6528SOL    HW120471   2.814   3.782  12.481
 6528SOL    HW220472   2.858   3.851  12.608
 6529SOL     OW20473   3.129   0.075  12.437
 6529SOL    HW120474   3.140   0.144  12.503
 6529SOL    HW220475   3.061   0.108  12.378
 6530SOL     OW20476   2.371   3.749  12.928
 6530SOL    HW120477   2.315   3.704  12.865
 6530SOL    HW220478   2.340   3.840  12.926
 6531SOL     OW20479   2.156   3.920  12.423
 6531SOL    HW120480   2.112   3.939  12.505
 6531SOL    HW220481   2.144   3.826  12.410
 6532SOL     OW20482   3.444   3.954  11.295
 6532SOL    HW120483   3.379   3.898  11.337
 6532SOL    HW220484   3.457   0.026  11.357
 6533SOL     OW20485   3.025   3.922  12.645
 6533SOL    HW120486   3.028   3.995  12.706
 6533SOL    HW220487   3.067   3.955  12.565
 6534SOL     OW20488   2.763   3.811  11.274
 6534SOL    HW120489   2.823   3.772  11.211
 6534SOL    HW220490   2.803   3.795  11.359
 6535SOL     OW20491   3.590   3.859  11.697
 6535SOL    HW120492   3.659   3.845  11.631
 6535SOL    HW220493   3.570   3.772  11.729
 6536SOL     OW20494   3.697   3.895  12.135
 6536SOL    HW120495   3.730   3.809  12.112
 6536SOL    HW220496   3.611   3.900  12.093
 6537SOL     OW20497   2.538   3.910  12.662
 6537SOL    HW120498   2.621   3.901  12.615
 6537SOL    HW220499   2.563   3.932  12.751
 6538SOL     OW20500   1.907   0.052  11.206
 6538SOL    HW120501   1.869   0.029  11.121
 6538SOL    HW220502   1.937   0.143  11.194
 6539SOL     OW20503   1.924   3.865  11.481
 6539SOL    HW120504   1.913   3.954  11.450
 6539SOL    HW220505   2.005   3.835  11.440
 6540SOL     OW20506   3.055   0.012  11.638
 6540SOL    HW120507   3.123   3.944  11.637
 6540SOL    HW220508   3.077   0.066  11.714
 6541SOL     OW20509   3.647   0.048  12.800
 6541SOL    HW120510   3.603   0.081  12.721
 6541SOL    HW220511   3.577   0.003  12.849
 6542SOL     OW20512   3.678   3.910  12.408
 6542SOL    HW120513   3.666   3.818  12.431
 6542SOL    HW220514   3.687   3.910  12.312
 6543SOL     OW20515   3.301   3.932  12.289
 6543SOL    HW120516   3.329   3.850  12.331
 6543SOL    HW220517   3.243   3.973  12.353
 6544SOL     OW20518   2.877   3.736  12.320
 6544SOL    HW120519   2.820   3.681  12.267
 6544SOL    HW220520   2.963   3.693  12.315
 6545SOL     OW20521   3.217   3.770  11.331
 6545SOL    HW120522   3.250   3.700  11.276
 6545SOL    HW220523   3.129   3.742  11.357
 6546SOL     OW20524   3.144   0.162  11.854
 6546SOL    HW120525   3.145   0.257  11.859
 6546SOL    HW220526   3.148   0.133  11.946
 6547SOL     OW20527   3.440   3.930  12.051
 6547SOL    HW120528   3.390   3.932  12.133
 6547SOL    HW220529   3.437   0.020  12.019
 6548SOL     OW20530   1.880   0.089  13.687
 6548SOL    HW120531   1.799   0.110  13.733
 6548SOL    HW220532   1.868   3.999  13.657
 6549SOL     OW20533   3.633   0.317  13.216
 6549SOL    HW120534   3.557   0.302  13.160
 6549SOL    HW220535   3.597   0.335  13.303
 6550SOL     OW20536   3.465   0.174  13.766
 6550SOL    HW120537   3.376   0.152  13.738
 6550SOL    HW220538   3.457   0.262  13.802
 6551SOL     OW20539   2.670   3.730  13.540
 6551SOL    HW120540   2.694   3.823  13.533
 6551SOL    HW220541   2.575   3.731  13.549
 6552SOL     OW20542   3.268   3.836  13.462
 6552SOL    HW120543   3.263   3.800  13.373
 6552SOL    HW220544   3.361   3.828  13.486
 6553SOL     OW20545   2.490   3.849  13.161
 6553SOL    HW120546   2.581   3.819  13.161
 6553SOL    HW220547   2.449   3.801  13.089
 6554SOL     OW20548   2.398   3.780  13.548
 6554SOL    HW120549   2.345   3.770  13.627
 6554SOL    HW220550   2.401   3.874  13.533
 6555SOL     OW20551   2.147   3.759  13.213
 6555SOL    HW120552   2.188   3.845  13.205
 6555SOL    HW220553   2.215   3.704  13.253
 6556SOL     OW20554   2.874   3.763  13.771
 6556SOL    HW120555   2.817   3.757  13.694
 6556SOL    HW220556   2.854   3.684  13.821
 6557SOL     OW20557   3.443   3.958  13.158
 6557SOL    HW120558   3.385   3.896  13.201
 6557SOL    HW220559   3.477   0.013  13.228
 6558SOL     OW20560   2.763   3.811  13.136
 6558SOL    HW120561   2.823   3.772  13.072
 6558SOL    HW220562   2.803   3.793  13.221
 6559SOL     OW20563   3.590   3.858  13.566
 6559SOL    HW120564   3.659   3.847  13.500
 6559SOL    HW220565   3.573   3.769  13.597
 6560SOL     OW20566   3.712   3.894   0.046
 6560SOL    HW120567   3.746   3.805   0.056
 6560SOL    HW220568   3.624   3.891   0.082
 6561SOL     OW20569   1.907   0.052  13.065
 6561SOL    HW120570   1.869   0.030  12.980
 6561SOL    HW220571   1.937   0.143  13.055
 6562SOL     OW20572   1.921   3.866  13.343
 6562SOL    HW120573   1.914   3.959  13.321
 6562SOL    HW220574   2.002   3.837  13.300
 6563SOL     OW20575   3.050   0.002  13.516
 6563SOL    HW120576   3.123   3.943  13.497
 6563SOL    HW220577   3.083   0.060  13.584
 6564SOL     OW20578   3.218   3.770  13.192
 6564SOL    HW120579   3.250   3.699  13.137
 6564SOL    HW220580   3.130   3.743  13.219
 6565SOL     OW20581   3.174   0.156  13.735
 6565SOL    HW120582   3.139   0.243  13.717
 6565SOL    HW220583   3.155   0.141  13.827
 6566SOL     OW20584   3.954   0.630   0.127
 6566SOL    HW120585   3.892   0.631   0.199
 6566SOL    HW220586   3.913   0.575   0.060
 6567SOL     OW20587   3.954   0.298   0.993
 6567SOL    HW120588   3.964   0.273   1.085
 6567SOL    HW220589   3.868   0.263   0.968
 6568SOL     OW20590   3.731   0.394   0.638
 6568SOL    HW120591   3.644   0.408   0.674
 6568SOL    HW220592   3.722   0.317   0.581
 6569SOL     OW20593   0.012   1.525   1.050
 6569SOL    HW120594   3.960   1.446   1.037
 6569SOL    HW220595   0.080   1.521   0.982
 6570SOL     OW20596   3.947   1.717   0.474
 6570SOL    HW120597   3.945   1.791   0.534
 6570SOL    HW220598   0.040   1.706   0.454
 6571SOL     OW20599   3.937   1.438   0.507
 6571SOL    HW120600   3.926   1.533   0.510
 6571SOL    HW220601   3.883   1.405   0.580
 6572SOL     OW20602   3.807   0.649   0.557
 6572SOL    HW120603   3.791   0.558   0.582
 6572SOL    HW220604   3.811   0.696   0.640
 6573SOL     OW20605   3.695   1.617   0.099
 6573SOL    HW120606   3.730   1.530   0.117
 6573SOL    HW220607   3.699   1.662   0.184
 6574SOL     OW20608   3.825   0.751   1.577
 6574SOL    HW120609   3.906   0.795   1.599
 6574SOL    HW220610   3.760   0.821   1.570
 6575SOL     OW20611   3.804   0.818   0.771
 6575SOL    HW120612   3.898   0.814   0.791
 6575SOL    HW220613   3.772   0.891   0.825
 6576SOL     OW20614   3.847   1.873   1.569
 6576SOL    HW120615   3.848   1.844   1.660
 6576SOL    HW220616   3.767   1.836   1.532
 6577SOL     OW20617   3.924   0.310   1.520
 6577SOL    HW120618   3.850   0.359   1.484
 6577SOL    HW220619   3.884   0.247   1.580
 6578SOL     OW20620   3.808   0.548   1.391
 6578SOL    HW120621   3.903   0.546   1.379
 6578SOL    HW220622   3.793   0.624   1.448
 6579SOL     OW20623   3.791   1.573   1.350
 6579SOL    HW120624   3.764   1.636   1.282
 6579SOL    HW220625   3.887   1.580   1.352
 6580SOL     OW20626   0.070   1.096   0.536
 6580SOL    HW120627   0.081   1.151   0.459
 6580SOL    HW220628   0.144   1.035   0.532
 6581SOL     OW20629   0.005   0.215   1.247
 6581SOL    HW120630   3.977   0.239   1.335
 6581SOL    HW220631   0.004   0.119   1.247
 6582SOL     OW20632   3.752   1.312   1.277
 6582SOL    HW120633   3.794   1.262   1.347
 6582SOL    HW220634   3.765   1.404   1.302
 6583SOL     OW20635   3.743   1.318   0.171
 6583SOL    HW120636   3.659   1.333   0.127
 6583SOL    HW220637   3.731   1.235   0.218
 6584SOL     OW20638   3.801   1.794   0.938
 6584SOL    HW120639   3.778   1.713   0.892
 6584SOL    HW220640   3.895   1.804   0.924
 6585SOL     OW20641   0.212   1.551   0.867
 6585SOL    HW120642   0.291   1.604   0.867
 6585SOL    HW220643   0.226   1.488   0.796
 6586SOL     OW20644   3.752   0.535   1.117
 6586SOL    HW120645   3.832   0.529   1.064
 6586SOL    HW220646   3.784   0.545   1.207
 6587SOL     OW20647   3.904   0.531   1.713
 6587SOL    HW120648   3.941   0.477   1.643
 6587SOL    HW220649   3.862   0.604   1.668
 6588SOL     OW20650   3.942   1.532   1.726
 6588SOL    HW120651   3.931   1.615   1.773
 6588SOL    HW220652   3.989   1.476   1.788
 6589SOL     OW20653   3.860   1.134   1.473
 6589SOL    HW120654   3.933   1.130   1.534
 6589SOL    HW220655   3.892   1.092   1.393
 6590SOL     OW20656   3.811   1.268   1.012
 6590SOL    HW120657   3.783   1.279   1.103
 6590SOL    HW220658   3.751   1.202   0.977
 6591SOL     OW20659   3.843   1.790   1.825
 6591SOL    HW120660   3.791   1.726   1.873
 6591SOL    HW220661   3.893   1.835   1.893
 6592SOL     OW20662   3.802   0.405   0.003
 6592SOL    HW120663   3.764   0.324   0.038
 6592SOL    HW220664   3.775   0.406  13.811
 6593SOL     OW20665   3.793   0.145   0.350
 6593SOL    HW120666   3.757   0.222   0.306
 6593SOL    HW220667   3.888   0.159   0.348
 6594SOL     OW20668   3.800   1.235   0.665
 6594SOL    HW120669   3.792   1.187   0.747
 6594SOL    HW220670   3.884   1.205   0.628
 6595SOL     OW20671   3.753   1.080   0.306
 6595SOL    HW120672   3.848   1.086   0.310
 6595SOL    HW220673   3.734   0.989   0.327
 6596SOL     OW20674   3.956   0.631   1.970
 6596SOL    HW120675   3.875   0.635   2.020
 6596SOL    HW220676   3.930   0.599   1.884
 6597SOL     OW20677   3.954   0.295   2.854
 6597SOL    HW120678   3.964   0.273   2.947
 6597SOL    HW220679   3.868   0.262   2.830
 6598SOL     OW20680   3.731   0.393   2.500
 6598SOL    HW120681   3.644   0.408   2.536
 6598SOL    HW220682   3.721   0.317   2.443
 6599SOL     OW20683   0.012   1.525   2.912
 6599SOL    HW120684   3.960   1.446   2.899
 6599SOL    HW220685   0.079   1.521   2.844
 6600SOL     OW20686   3.942   1.720   2.337
 6600SOL    HW120687   3.945   1.792   2.400
 6600SOL    HW220688   0.033   1.704   2.313
 6601SOL     OW20689   3.944   1.439   2.370
 6601SOL    HW120690   3.923   1.532   2.371
 6601SOL    HW220691   3.887   1.401   2.437
 6602SOL     OW20692   3.806   0.649   2.421
 6602SOL    HW120693   3.791   0.558   2.446
 6602SOL    HW220694   3.810   0.696   2.504
 6603SOL     OW20695   3.757   1.596   1.991
 6603SOL    HW120696   3.736   1.504   2.008
 6603SOL    HW220697   3.726   1.643   2.068
 6604SOL     OW20698   3.825   0.751   3.439
 6604SOL    HW120699   3.906   0.795   3.461
 6604SOL    HW220700   3.760   0.821   3.432
 6605SOL     OW20701   3.804   0.818   2.635
 6605SOL    HW120702   3.898   0.814   2.653
 6605SOL    HW220703   3.772   0.891   2.687
 6606SOL     OW20704   3.847   1.873   3.431
 6606SOL    HW120705   3.847   1.844   3.522
 6606SOL    HW220706   3.767   1.836   3.394
 6607SOL     OW20707   3.924   0.310   3.382
 6607SOL    HW120708   3.850   0.359   3.346
 6607SOL    HW220709   3.884   0.248   3.443
 6608SOL     OW20710   3.808   0.548   3.254
 6608SOL    HW120711   3.903   0.546   3.241
 6608SOL    HW220712   3.793   0.624   3.310
 6609SOL     OW20713   0.267   0.291   2.195
 6609SOL    HW120714   0.316   0.226   2.146
 6609SOL    HW220715   0.304   0.375   2.167
 6610SOL     OW20716   3.791   1.573   3.212
 6610SOL    HW120717   3.764   1.636   3.144
 6610SOL    HW220718   3.887   1.580   3.214
 6611SOL     OW20719   0.065   1.095   2.392
 6611SOL    HW120720   0.062   1.136   2.306
 6611SOL    HW220721   0.130   1.024   2.382
 6612SOL     OW20722   0.005   0.215   3.109
 6612SOL    HW120723   3.977   0.240   3.197
 6612SOL    HW220724   0.004   0.119   3.109
 6613SOL     OW20725   3.752   1.312   3.139
 6613SOL    HW120726   3.794   1.262   3.209
 6613SOL    HW220727   3.765   1.403   3.164
 6614SOL     OW20728   3.728   1.326   2.049
 6614SOL    HW120729   3.642   1.340   2.009
 6614SOL    HW220730   3.720   1.243   2.095
 6615SOL     OW20731   3.801   1.794   2.800
 6615SOL    HW120732   3.778   1.714   2.754
 6615SOL    HW220733   3.895   1.804   2.787
 6616SOL     OW20734   0.212   1.551   2.729
 6616SOL    HW120735   0.292   1.603   2.729
 6616SOL    HW220736   0.226   1.487   2.658
 6617SOL     OW20737   3.753   0.535   2.979
 6617SOL    HW120738   3.832   0.529   2.926
 6617SOL    HW220739   3.784   0.545   3.069
 6618SOL     OW20740   3.904   0.531   3.575
 6618SOL    HW120741   3.942   0.478   3.505
 6618SOL    HW220742   3.861   0.604   3.530
 6619SOL     OW20743   3.942   1.532   3.588
 6619SOL    HW120744   3.931   1.615   3.635
 6619SOL    HW220745   3.989   1.476   3.650
 6620SOL     OW20746   3.860   1.134   3.335
 6620SOL    HW120747   3.934   1.130   3.396
 6620SOL    HW220748   3.892   1.092   3.255
 6621SOL     OW20749   3.810   1.268   2.874
 6621SOL    HW120750   3.782   1.279   2.965
 6621SOL    HW220751   3.751   1.202   2.839
 6622SOL     OW20752   3.843   1.790   3.687
 6622SOL    HW120753   3.791   1.726   3.735
 6622SOL    HW220754   3.893   1.835   3.755
 6623SOL     OW20755   3.823   0.316   1.857
 6623SOL    HW120756   3.755   0.333   1.922
 6623SOL    HW220757   3.822   0.393   1.800
 6624SOL     OW20758   3.777   0.151   2.206
 6624SOL    HW120759   3.744   0.207   2.136
 6624SOL    HW220760   3.872   0.154   2.198
 6625SOL     OW20761   3.801   1.237   2.527
 6625SOL    HW120762   3.794   1.188   2.609
 6625SOL    HW220763   3.879   1.201   2.485
 6626SOL     OW20764   3.752   1.082   2.173
 6626SOL    HW120765   3.843   1.083   2.141
 6626SOL    HW220766   3.735   0.990   2.193
 6627SOL     OW20767   3.956   0.631   3.832
 6627SOL    HW120768   3.875   0.635   3.882
 6627SOL    HW220769   3.929   0.599   3.746
 6628SOL     OW20770   3.954   0.295   4.716
 6628SOL    HW120771   3.964   0.273   4.809
 6628SOL    HW220772   3.868   0.262   4.692
 6629SOL     OW20773   3.731   0.393   4.362
 6629SOL    HW120774   3.644   0.408   4.398
 6629SOL    HW220775   3.720   0.317   4.304
 6630SOL     OW20776   0.012   1.525   4.774
 6630SOL    HW120777   3.960   1.446   4.761
 6630SOL    HW220778   0.080   1.521   4.706
 6631SOL     OW20779   3.942   1.720   4.199
 6631SOL    HW120780   3.945   1.792   4.262
 6631SOL    HW220781   0.033   1.704   4.175
 6632SOL     OW20782   3.944   1.439   4.232
 6632SOL    HW120783   3.923   1.532   4.233
 6632SOL    HW220784   3.887   1.401   4.299
 6633SOL     OW20785   3.806   0.649   4.283
 6633SOL    HW120786   3.791   0.558   4.308
 6633SOL    HW220787   3.810   0.697   4.366
 6634SOL     OW20788   3.757   1.596   3.853
 6634SOL    HW120789   3.736   1.504   3.870
 6634SOL    HW220790   3.726   1.643   3.930
 6635SOL     OW20791   3.825   0.751   5.301
 6635SOL    HW120792   3.906   0.795   5.323
 6635SOL    HW220793   3.760   0.821   5.294
 6636SOL     OW20794   3.804   0.818   4.497
 6636SOL    HW120795   3.898   0.814   4.515
 6636SOL    HW220796   3.772   0.891   4.549
 6637SOL     OW20797   3.847   1.874   5.293
 6637SOL    HW120798   3.847   1.844   5.384
 6637SOL    HW220799   3.767   1.837   5.256
 6638SOL     OW20800   3.924   0.310   5.244
 6638SOL    HW120801   3.850   0.359   5.208
 6638SOL    HW220802   3.884   0.248   5.305
 6639SOL     OW20803   3.808   0.548   5.116
 6639SOL    HW120804   3.903   0.546   5.103
 6639SOL    HW220805   3.793   0.624   5.172
 6640SOL     OW20806   0.267   0.291   4.057
 6640SOL    HW120807   0.316   0.226   4.008
 6640SOL    HW220808   0.304   0.375   4.029
 6641SOL     OW20809   3.791   1.573   5.074
 6641SOL    HW120810   3.764   1.636   5.006
 6641SOL    HW220811   3.887   1.580   5.076
 6642SOL     OW20812   0.065   1.095   4.254
 6642SOL    HW120813   0.062   1.137   4.168
 6642SOL    HW220814   0.130   1.025   4.244
 6643SOL     OW20815   0.005   0.215   4.971
 6643SOL    HW120816   3.977   0.240   5.059
 6643SOL    HW220817   0.004   0.119   4.971
 6644SOL     OW20818   3.752   1.312   5.001
 6644SOL    HW120819   3.794   1.262   5.072
 6644SOL    HW220820   3.765   1.403   5.026
 6645SOL     OW20821   3.728   1.326   3.911
 6645SOL    HW120822   3.642   1.340   3.871
 6645SOL    HW220823   3.720   1.243   3.957
 6646SOL     OW20824   3.801   1.794   4.662
 6646SOL    HW120825   3.778   1.714   4.616
 6646SOL    HW220826   3.895   1.804   4.649
 6647SOL     OW20827   0.212   1.551   4.591
 6647SOL    HW120828   0.292   1.603   4.591
 6647SOL    HW220829   0.226   1.487   4.520
 6648SOL     OW20830   3.753   0.535   4.841
 6648SOL    HW120831   3.832   0.529   4.788
 6648SOL    HW220832   3.784   0.545   4.931
 6649SOL     OW20833   3.904   0.531   5.437
 6649SOL    HW120834   3.942   0.478   5.367
 6649SOL    HW220835   3.861   0.604   5.393
 6650SOL     OW20836   3.942   1.532   5.450
 6650SOL    HW120837   3.931   1.615   5.497
 6650SOL    HW220838   3.989   1.476   5.512
 6651SOL     OW20839   3.860   1.134   5.197
 6651SOL    HW120840   3.934   1.130   5.257
 6651SOL    HW220841   3.892   1.092   5.117
 6652SOL     OW20842   3.810   1.268   4.736
 6652SOL    HW120843   3.782   1.279   4.827
 6652SOL    HW220844   3.751   1.202   4.701
 6653SOL     OW20845   3.843   1.790   5.549
 6653SOL    HW120846   3.791   1.726   5.597
 6653SOL    HW220847   3.893   1.835   5.617
 6654SOL     OW20848   3.823   0.316   3.719
 6654SOL    HW120849   3.755   0.333   3.784
 6654SOL    HW220850   3.822   0.393   3.662
 6655SOL     OW20851   3.777   0.151   4.068
 6655SOL    HW120852   3.744   0.207   3.998
 6655SOL    HW220853   3.872   0.154   4.060
 6656SOL     OW20854   3.801   1.237   4.389
 6656SOL    HW120855   3.794   1.188   4.471
 6656SOL    HW220856   3.879   1.201   4.347
 6657SOL     OW20857   3.752   1.082   4.035
 6657SOL    HW120858   3.843   1.083   4.003
 6657SOL    HW220859   3.735   0.990   4.055
 6658SOL     OW20860   3.956   0.631   5.694
 6658SOL    HW120861   3.875   0.635   5.744
 6658SOL    HW220862   3.930   0.599   5.608
 6659SOL     OW20863   3.954   0.295   6.578
 6659SOL    HW120864   3.964   0.273   6.671
 6659SOL    HW220865   3.868   0.262   6.554
 6660SOL     OW20866   3.731   0.393   6.224
 6660SOL    HW120867   3.644   0.407   6.260
 6660SOL    HW220868   3.721   0.317   6.166
 6661SOL     OW20869   0.012   1.525   6.636
 6661SOL    HW120870   3.960   1.446   6.622
 6661SOL    HW220871   0.080   1.521   6.568
 6662SOL     OW20872   3.942   1.720   6.061
 6662SOL    HW120873   3.945   1.792   6.123
 6662SOL    HW220874   0.033   1.705   6.037
 6663SOL     OW20875   3.944   1.439   6.094
 6663SOL    HW120876   3.922   1.532   6.095
 6663SOL    HW220877   3.886   1.401   6.161
 6664SOL     OW20878   3.806   0.649   6.145
 6664SOL    HW120879   3.792   0.558   6.170
 6664SOL    HW220880   3.810   0.697   6.228
 6665SOL     OW20881   3.757   1.596   5.715
 6665SOL    HW120882   3.736   1.504   5.732
 6665SOL    HW220883   3.726   1.643   5.792
 6666SOL     OW20884   3.825   0.751   7.163
 6666SOL    HW120885   3.907   0.795   7.184
 6666SOL    HW220886   3.761   0.822   7.156
 6667SOL     OW20887   3.804   0.818   6.359
 6667SOL    HW120888   3.898   0.814   6.378
 6667SOL    HW220889   3.772   0.891   6.411
 6668SOL     OW20890   3.847   1.873   7.155
 6668SOL    HW120891   3.847   1.843   7.246
 6668SOL    HW220892   3.765   1.841   7.118
 6669SOL     OW20893   3.924   0.310   7.106
 6669SOL    HW120894   3.850   0.359   7.070
 6669SOL    HW220895   3.884   0.248   7.166
 6670SOL     OW20896   3.808   0.548   6.978
 6670SOL    HW120897   3.903   0.546   6.965
 6670SOL    HW220898   3.793   0.624   7.034
 6671SOL     OW20899   0.266   0.291   5.919
 6671SOL    HW120900   0.317   0.226   5.870
 6671SOL    HW220901   0.304   0.375   5.892
 6672SOL     OW20902   3.791   1.573   6.935
 6672SOL    HW120903   3.763   1.636   6.870
 6672SOL    HW220904   3.886   1.580   6.937
 6673SOL     OW20905   0.065   1.094   6.116
 6673SOL    HW120906   0.062   1.137   6.030
 6673SOL    HW220907   0.130   1.025   6.106
 6674SOL     OW20908   0.004   0.215   6.833
 6674SOL    HW120909   3.978   0.240   6.921
 6674SOL    HW220910   0.004   0.119   6.833
 6675SOL     OW20911   3.750   1.312   6.864
 6675SOL    HW120912   3.795   1.263   6.933
 6675SOL    HW220913   3.764   1.404   6.887
 6676SOL     OW20914   3.728   1.326   5.772
 6676SOL    HW120915   3.642   1.340   5.733
 6676SOL    HW220916   3.720   1.243   5.819
 6677SOL     OW20917   3.801   1.794   6.524
 6677SOL    HW120918   3.778   1.713   6.478
 6677SOL    HW220919   3.895   1.804   6.510
 6678SOL     OW20920   0.212   1.551   6.453
 6678SOL    HW120921   0.293   1.603   6.454
 6678SOL    HW220922   0.226   1.487   6.382
 6679SOL     OW20923   3.753   0.535   6.703
 6679SOL    HW120924   3.832   0.529   6.650
 6679SOL    HW220925   3.784   0.545   6.793
 6680SOL     OW20926   3.904   0.531   7.299
 6680SOL    HW120927   3.942   0.479   7.229
 6680SOL    HW220928   3.862   0.604   7.255
 6681SOL     OW20929   3.942   1.532   7.312
 6681SOL    HW120930   3.931   1.616   7.357
 6681SOL    HW220931   3.991   1.478   7.374
 6682SOL     OW20932   3.860   1.133   7.059
 6682SOL    HW120933   3.935   1.131   7.119
 6682SOL    HW220934   3.892   1.092   6.979
 6683SOL     OW20935   3.811   1.267   6.599
 6683SOL    HW120936   3.782   1.279   6.690
 6683SOL    HW220937   3.750   1.203   6.563
 6684SOL     OW20938   3.844   1.789   7.411
 6684SOL    HW120939   3.792   1.725   7.459
 6684SOL    HW220940   3.894   1.835   7.479
 6685SOL     OW20941   3.823   0.316   5.581
 6685SOL    HW120942   3.755   0.334   5.646
 6685SOL    HW220943   3.822   0.393   5.524
 6686SOL     OW20944   3.777   0.151   5.931
 6686SOL    HW120945   3.744   0.207   5.860
 6686SOL    HW220946   3.872   0.154   5.922
 6687SOL     OW20947   3.801   1.237   6.250
 6687SOL    HW120948   3.794   1.189   6.333
 6687SOL    HW220949   3.879   1.201   6.209
 6688SOL     OW20950   3.752   1.082   5.897
 6688SOL    HW120951   3.842   1.083   5.865
 6688SOL    HW220952   3.735   0.990   5.917
 6689SOL     OW20953   3.956   0.631   7.556
 6689SOL    HW120954   3.875   0.635   7.606
 6689SOL    HW220955   3.930   0.599   7.469
 6690SOL     OW20956   3.954   0.296   8.440
 6690SOL    HW120957   3.964   0.273   8.533
 6690SOL    HW220958   3.868   0.262   8.416
 6691SOL     OW20959   3.731   0.393   8.086
 6691SOL    HW120960   3.644   0.407   8.122
 6691SOL    HW220961   3.722   0.316   8.029
 6692SOL     OW20962   0.012   1.524   8.498
 6692SOL    HW120963   3.960   1.445   8.484
 6692SOL    HW220964   0.080   1.521   8.431
 6693SOL     OW20965   3.941   1.719   7.923
 6693SOL    HW120966   3.945   1.791   7.986
 6693SOL    HW220967   0.033   1.704   7.898
 6694SOL     OW20968   3.944   1.438   7.957
 6694SOL    HW120969   3.924   1.532   7.956
 6694SOL    HW220970   3.886   1.402   8.024
 6695SOL     OW20971   3.805   0.649   8.007
 6695SOL    HW120972   3.792   0.558   8.032
 6695SOL    HW220973   3.810   0.696   8.090
 6696SOL     OW20974   3.757   1.596   7.578
 6696SOL    HW120975   3.736   1.504   7.595
 6696SOL    HW220976   3.726   1.643   7.655
 6697SOL     OW20977   3.825   0.751   9.025
 6697SOL    HW120978   3.907   0.795   9.047
 6697SOL    HW220979   3.760   0.821   9.019
 6698SOL     OW20980   3.804   0.818   8.221
 6698SOL    HW120981   3.898   0.814   8.239
 6698SOL    HW220982   3.773   0.892   8.274
 6699SOL     OW20983   3.847   1.874   9.017
 6699SOL    HW120984   3.847   1.844   9.108
 6699SOL    HW220985   3.767   1.836   8.980
 6700SOL     OW20986   3.924   0.310   8.968
 6700SOL    HW120987   3.850   0.359   8.932
 6700SOL    HW220988   3.884   0.247   9.028
 6701SOL     OW20989   3.808   0.548   8.840
 6701SOL    HW120990   3.903   0.546   8.827
 6701SOL    HW220991   3.793   0.624   8.896
 6702SOL     OW20992   0.266   0.292   7.781
 6702SOL    HW120993   0.316   0.226   7.732
 6702SOL    HW220994   0.304   0.375   7.753
 6703SOL     OW20995   3.792   1.573   8.798
 6703SOL    HW120996   3.765   1.636   8.730
 6703SOL    HW220997   3.887   1.580   8.800
 6704SOL     OW20998   0.066   1.094   7.977
 6704SOL    HW120999   0.064   1.138   7.892
 6704SOL    HW221000   0.133   1.027   7.968
 6705SOL     OW21001   0.004   0.215   8.695
 6705SOL    HW121002   3.977   0.239   8.783
 6705SOL    HW221003   0.004   0.119   8.695
 6706SOL     OW21004   3.750   1.312   8.726
 6706SOL    HW121005   3.795   1.262   8.794
 6706SOL    HW221006   3.765   1.404   8.749
 6707SOL     OW21007   3.728   1.327   7.636
 6707SOL    HW121008   3.642   1.340   7.596
 6707SOL    HW221009   3.721   1.243   7.682
 6708SOL     OW21010   3.801   1.795   8.387
 6708SOL    HW121011   3.779   1.714   8.341
 6708SOL    HW221012   3.896   1.804   8.373
 6709SOL     OW21013   0.212   1.551   8.315
 6709SOL    HW121014   0.292   1.605   8.315
 6709SOL    HW221015   0.226   1.488   8.244
 6710SOL     OW21016   3.752   0.535   8.565
 6710SOL    HW121017   3.832   0.529   8.512
 6710SOL    HW221018   3.784   0.545   8.655
 6711SOL     OW21019   3.904   0.531   9.161
 6711SOL    HW121020   3.942   0.478   9.091
 6711SOL    HW221021   3.861   0.604   9.116
 6712SOL     OW21022   3.942   1.532   9.174
 6712SOL    HW121023   3.932   1.615   9.221
 6712SOL    HW221024   3.990   1.476   9.235
 6713SOL     OW21025   3.860   1.134   8.921
 6713SOL    HW121026   3.933   1.130   8.982
 6713SOL    HW221027   3.893   1.092   8.841
 6714SOL     OW21028   3.810   1.269   8.460
 6714SOL    HW121029   3.782   1.279   8.551
 6714SOL    HW221030   3.751   1.202   8.425
 6715SOL     OW21031   3.843   1.790   9.273
 6715SOL    HW121032   3.791   1.726   9.321
 6715SOL    HW221033   3.893   1.835   9.341
 6716SOL     OW21034   3.823   0.316   7.443
 6716SOL    HW121035   3.755   0.334   7.508
 6716SOL    HW221036   3.822   0.393   7.386
 6717SOL     OW21037   3.777   0.152   7.793
 6717SOL    HW121038   3.745   0.208   7.722
 6717SOL    HW221039   3.872   0.154   7.784
 6718SOL     OW21040   3.800   1.237   8.113
 6718SOL    HW121041   3.795   1.189   8.195
 6718SOL    HW221042   3.879   1.203   8.070
 6719SOL     OW21043   3.752   1.082   7.759
 6719SOL    HW121044   3.842   1.083   7.727
 6719SOL    HW221045   3.735   0.990   7.779
 6720SOL     OW21046   3.956   0.631   9.418
 6720SOL    HW121047   3.875   0.635   9.468
 6720SOL    HW221048   3.930   0.599   9.332
 6721SOL     OW21049   3.954   0.295  10.302
 6721SOL    HW121050   3.964   0.273  10.395
 6721SOL    HW221051   3.868   0.262  10.278
 6722SOL     OW21052   3.731   0.393   9.948
 6722SOL    HW121053   3.644   0.408   9.984
 6722SOL    HW221054   3.721   0.317   9.890
 6723SOL     OW21055   0.012   1.525  10.360
 6723SOL    HW121056   3.960   1.445  10.347
 6723SOL    HW221057   0.080   1.521  10.292
 6724SOL     OW21058   3.942   1.720   9.785
 6724SOL    HW121059   3.945   1.792   9.848
 6724SOL    HW221060   0.033   1.704   9.761
 6725SOL     OW21061   3.944   1.439   9.819
 6725SOL    HW121062   3.923   1.532   9.819
 6725SOL    HW221063   3.887   1.401   9.885
 6726SOL     OW21064   3.806   0.649   9.869
 6726SOL    HW121065   3.791   0.558   9.894
 6726SOL    HW221066   3.810   0.696   9.952
 6727SOL     OW21067   3.757   1.596   9.439
 6727SOL    HW121068   3.736   1.504   9.456
 6727SOL    HW221069   3.726   1.643   9.516
 6728SOL     OW21070   3.825   0.751  10.887
 6728SOL    HW121071   3.906   0.795  10.909
 6728SOL    HW221072   3.760   0.821  10.880
 6729SOL     OW21073   3.804   0.818  10.083
 6729SOL    HW121074   3.898   0.814  10.101
 6729SOL    HW221075   3.772   0.891  10.135
 6730SOL     OW21076   3.847   1.874  10.879
 6730SOL    HW121077   3.847   1.844  10.970
 6730SOL    HW221078   3.767   1.836  10.842
 6731SOL     OW21079   3.924   0.310  10.830
 6731SOL    HW121080   3.850   0.359  10.794
 6731SOL    HW221081   3.884   0.248  10.891
 6732SOL     OW21082   3.808   0.548  10.702
 6732SOL    HW121083   3.903   0.546  10.689
 6732SOL    HW221084   3.793   0.624  10.758
 6733SOL     OW21085   0.267   0.292   9.643
 6733SOL    HW121086   0.316   0.226   9.594
 6733SOL    HW221087   0.304   0.375   9.615
 6734SOL     OW21088   3.791   1.573  10.660
 6734SOL    HW121089   3.764   1.636  10.592
 6734SOL    HW221090   3.887   1.580  10.662
 6735SOL     OW21091   0.065   1.095   9.840
 6735SOL    HW121092   0.063   1.137   9.754
 6735SOL    HW221093   0.130   1.025   9.831
 6736SOL     OW21094   0.005   0.215  10.557
 6736SOL    HW121095   3.977   0.240  10.645
 6736SOL    HW221096   0.004   0.119  10.557
 6737SOL     OW21097   3.751   1.312  10.588
 6737SOL    HW121098   3.794   1.262  10.657
 6737SOL    HW221099   3.765   1.404  10.611
 6738SOL     OW21100   3.728   1.327   9.497
 6738SOL    HW121101   3.642   1.340   9.457
 6738SOL    HW221102   3.720   1.243   9.543
 6739SOL     OW21103   3.801   1.794  10.248
 6739SOL    HW121104   3.778   1.714  10.202
 6739SOL    HW221105   3.895   1.804  10.235
 6740SOL     OW21106   0.212   1.551  10.177
 6740SOL    HW121107   0.292   1.603  10.177
 6740SOL    HW221108   0.226   1.487  10.106
 6741SOL     OW21109   3.753   0.535  10.427
 6741SOL    HW121110   3.832   0.529  10.374
 6741SOL    HW221111   3.784   0.545  10.517
 6742SOL     OW21112   3.904   0.531  11.023
 6742SOL    HW121113   3.942   0.478  10.953
 6742SOL    HW221114   3.861   0.604  10.978
 6743SOL     OW21115   3.942   1.532  11.036
 6743SOL    HW121116   3.932   1.615  11.083
 6743SOL    HW221117   3.990   1.476  11.097
 6744SOL     OW21118   3.860   1.134  10.783
 6744SOL    HW121119   3.934   1.130  10.843
 6744SOL    HW221120   3.892   1.092  10.703
 6745SOL     OW21121   3.810   1.268  10.322
 6745SOL    HW121122   3.782   1.279  10.413
 6745SOL    HW221123   3.751   1.202  10.287
 6746SOL     OW21124   3.843   1.790  11.135
 6746SOL    HW121125   3.791   1.726  11.183
 6746SOL    HW221126   3.893   1.835  11.203
 6747SOL     OW21127   3.823   0.316   9.305
 6747SOL    HW121128   3.755   0.333   9.370
 6747SOL    HW221129   3.822   0.393   9.248
 6748SOL     OW21130   3.777   0.151   9.655
 6748SOL    HW121131   3.744   0.207   9.584
 6748SOL    HW221132   3.872   0.154   9.646
 6749SOL     OW21133   3.801   1.237   9.975
 6749SOL    HW121134   3.794   1.188  10.057
 6749SOL    HW221135   3.879   1.202   9.932
 6750SOL     OW21136   3.752   1.082   9.621
 6750SOL    HW121137   3.843   1.083   9.589
 6750SOL    HW221138   3.735   0.990   9.641
 6751SOL     OW21139   3.956   0.631  11.280
 6751SOL    HW121140   3.875   0.635  11.330
 6751SOL    HW221141   3.930   0.599  11.194
 6752SOL     OW21142   3.954   0.296  12.164
 6752SOL    HW121143   3.964   0.273  12.257
 6752SOL    HW221144   3.868   0.262  12.141
 6753SOL     OW21145   3.731   0.393  11.810
 6753SOL    HW121146   3.644   0.408  11.846
 6753SOL    HW221147   3.720   0.317  11.752
 6754SOL     OW21148   0.012   1.525  12.222
 6754SOL    HW121149   3.960   1.445  12.209
 6754SOL    HW221150   0.080   1.521  12.154
 6755SOL     OW21151   3.942   1.720  11.647
 6755SOL    HW121152   3.945   1.792  11.710
 6755SOL    HW221153   0.033   1.704  11.623
 6756SOL     OW21154   3.944   1.439  11.681
 6756SOL    HW121155   3.923   1.532  11.681
 6756SOL    HW221156   3.886   1.401  11.747
 6757SOL     OW21157   3.806   0.649  11.731
 6757SOL    HW121158   3.791   0.558  11.756
 6757SOL    HW221159   3.810   0.696  11.814
 6758SOL     OW21160   3.757   1.596  11.301
 6758SOL    HW121161   3.736   1.504  11.318
 6758SOL    HW221162   3.726   1.643  11.378
 6759SOL     OW21163   3.825   0.751  12.749
 6759SOL    HW121164   3.906   0.795  12.770
 6759SOL    HW221165   3.760   0.821  12.742
 6760SOL     OW21166   3.804   0.818  11.945
 6760SOL    HW121167   3.898   0.814  11.963
 6760SOL    HW221168   3.772   0.891  11.997
 6761SOL     OW21169   3.847   1.873  12.742
 6761SOL    HW121170   3.848   1.844  12.833
 6761SOL    HW221171   3.767   1.836  12.705
 6762SOL     OW21172   3.924   0.310  12.692
 6762SOL    HW121173   3.850   0.359  12.656
 6762SOL    HW221174   3.884   0.247  12.752
 6763SOL     OW21175   3.808   0.548  12.564
 6763SOL    HW121176   3.903   0.546  12.551
 6763SOL    HW221177   3.793   0.624  12.620
 6764SOL     OW21178   0.267   0.292  11.504
 6764SOL    HW121179   0.316   0.226  11.456
 6764SOL    HW221180   0.304   0.375  11.477
 6765SOL     OW21181   3.791   1.573  12.522
 6765SOL    HW121182   3.764   1.636  12.454
 6765SOL    HW221183   3.887   1.580  12.524
 6766SOL     OW21184   0.065   1.095  11.702
 6766SOL    HW121185   0.062   1.137  11.616
 6766SOL    HW221186   0.131   1.025  11.693
 6767SOL     OW21187   0.005   0.215  12.419
 6767SOL    HW121188   3.977   0.239  12.507
 6767SOL    HW221189   0.004   0.119  12.419
 6768SOL     OW21190   3.751   1.312  12.450
 6768SOL    HW121191   3.795   1.262  12.519
 6768SOL    HW221192   3.765   1.404  12.473
 6769SOL     OW21193   3.728   1.327  11.359
 6769SOL    HW121194   3.642   1.340  11.319
 6769SOL    HW221195   3.720   1.243  11.405
 6770SOL     OW21196   3.801   1.794  12.110
 6770SOL    HW121197   3.778   1.714  12.064
 6770SOL    HW221198   3.895   1.804  12.097
 6771SOL     OW21199   0.212   1.551  12.039
 6771SOL    HW121200   0.292   1.603  12.039
 6771SOL    HW221201   0.226   1.488  11.968
 6772SOL     OW21202   3.752   0.535  12.289
 6772SOL    HW121203   3.832   0.529  12.236
 6772SOL    HW221204   3.784   0.545  12.379
 6773SOL     OW21205   3.905   0.531  12.885
 6773SOL    HW121206   3.941   0.477  12.815
 6773SOL    HW221207   3.862   0.604  12.841
 6774SOL     OW21208   3.942   1.532  12.899
 6774SOL    HW121209   3.932   1.615  12.946
 6774SOL    HW221210   3.988   1.476  12.960
 6775SOL     OW21211   3.860   1.134  12.645
 6775SOL    HW121212   3.934   1.131  12.705
 6775SOL    HW221213   3.892   1.092  12.565
 6776SOL     OW21214   3.810   1.268  12.184
 6776SOL    HW121215   3.782   1.279  12.275
 6776SOL    HW221216   3.751   1.202  12.148
 6777SOL     OW21217   3.844   1.791  12.999
 6777SOL    HW121218   3.792   1.726  13.046
 6777SOL    HW221219   3.893   1.836  13.067
 6778SOL     OW21220   3.823   0.316  11.167
 6778SOL    HW121221   3.755   0.333  11.232
 6778SOL    HW221222   3.822   0.393  11.110
 6779SOL     OW21223   3.777   0.151  11.517
 6779SOL    HW121224   3.744   0.207  11.446
 6779SOL    HW221225   3.872   0.154  11.508
 6780SOL     OW21226   3.801   1.237  11.837
 6780SOL    HW121227   3.794   1.188  11.919
 6780SOL    HW221228   3.879   1.202  11.794
 6781SOL     OW21229   3.752   1.082  11.483
 6781SOL    HW121230   3.843   1.083  11.451
 6781SOL    HW221231   3.735   0.990  11.503
 6782SOL     OW21232   3.954   0.630  13.143
 6782SOL    HW121233   3.871   0.634  13.190
 6782SOL    HW221234   3.931   0.598  13.056
 6783SOL     OW21235   3.721   0.388  13.646
 6783SOL    HW121236   3.630   0.406  13.671
 6783SOL    HW221237   3.720   0.297  13.616
 6784SOL     OW21238   3.941   1.715  13.503
 6784SOL    HW121239   3.941   1.790  13.563
 6784SOL    HW221240   0.033   1.701  13.483
 6785SOL     OW21241   3.943   1.435  13.539
 6785SOL    HW121242   3.924   1.529  13.540
 6785SOL    HW221243   3.885   1.399  13.606
 6786SOL     OW21244   3.946   1.096   0.005
 6786SOL    HW121245   3.983   1.051   0.081
 6786SOL    HW221246   3.860   1.126   0.033
 6787SOL     OW21247   3.824   0.647  13.594
 6787SOL    HW121248   3.781   0.564  13.610
 6787SOL    HW221249   3.813   0.696  13.676
 6788SOL     OW21250   3.755   1.596  13.162
 6788SOL    HW121251   3.735   1.504  13.180
 6788SOL    HW221252   3.725   1.643  13.240
 6789SOL     OW21253   3.797   0.809  13.812
 6789SOL    HW121254   3.891   0.816  13.827
 6789SOL    HW221255   3.760   0.888  13.851
 6790SOL     OW21256   0.098   1.810  13.884
 6790SOL    HW121257   0.057   1.735   0.028
 6790SOL    HW221258   0.168   1.837   0.044
 6791SOL     OW21259   0.267   0.294  13.368
 6791SOL    HW121260   0.315   0.223  13.325
 6791SOL    HW221261   0.310   0.374  13.338
 6792SOL     OW21262   0.068   1.095  13.557
 6792SOL    HW121263   0.066   1.140  13.472
 6792SOL    HW221264   0.137   1.028  13.547
 6793SOL     OW21265   3.728   1.327  13.220
 6793SOL    HW121266   3.642   1.340  13.180
 6793SOL    HW221267   3.720   1.244  13.268
 6794SOL     OW21268   0.313   1.534   0.014
 6794SOL    HW121269   0.257   1.606   0.044
 6794SOL    HW221270   0.255   1.481  13.860
 6795SOL     OW21271   3.823   0.317  13.029
 6795SOL    HW121272   3.754   0.333  13.093
 6795SOL    HW221273   3.821   0.393  12.972
 6796SOL     OW21274   3.787   0.152  13.372
 6796SOL    HW121275   3.751   0.208  13.303
 6796SOL    HW221276   3.881   0.154  13.358
 6797SOL     OW21277   3.808   1.232  13.690
 6797SOL    HW121278   3.798   1.170  13.762
 6797SOL    HW221279   3.886   1.202  13.643
 6798SOL     OW21280   3.752   1.081  13.343
 6798SOL    HW121281   3.842   1.083  13.309
 6798SOL    HW221282   3.737   0.989  13.364
 6799SOL     OW21283   3.954   2.496   0.130
 6799SOL    HW121284   3.885   2.498   0.195
 6799SOL    HW221285   3.918   2.446   0.057
 6800SOL     OW21286   3.961   2.126   0.986
 6800SOL    HW121287   3.966   2.121   1.082
 6800SOL    HW221288   3.869   2.112   0.967
 6801SOL     OW21289   3.724   2.245   0.636
 6801SOL    HW121290   3.644   2.267   0.683
 6801SOL    HW221291   3.706   2.161   0.594
 6802SOL     OW21292   0.013   3.383   1.052
 6802SOL    HW121293   3.961   3.305   1.033
 6802SOL    HW221294   0.079   3.385   0.983
 6803SOL     OW21295   3.939   3.575   0.479
 6803SOL    HW121296   3.951   3.649   0.539
 6803SOL    HW221297   0.026   3.561   0.441
 6804SOL     OW21298   3.934   3.297   0.508
 6804SOL    HW121299   3.926   3.393   0.507
 6804SOL    HW221300   3.882   3.269   0.583
 6805SOL     OW21301   3.814   2.503   0.559
 6805SOL    HW121302   3.784   2.415   0.584
 6805SOL    HW221303   3.811   2.553   0.640
 6806SOL     OW21304   3.746   3.468   0.116
 6806SOL    HW121305   3.726   3.376   0.135
 6806SOL    HW221306   3.713   3.516   0.192
 6807SOL     OW21307   3.825   2.604   1.583
 6807SOL    HW121308   3.908   2.646   1.606
 6807SOL    HW221309   3.762   2.676   1.576
 6808SOL     OW21310   3.804   2.679   0.769
 6808SOL    HW121311   3.897   2.676   0.790
 6808SOL    HW221312   3.770   2.751   0.822
 6809SOL     OW21313   3.849   3.723   1.568
 6809SOL    HW121314   3.848   3.695   1.660
 6809SOL    HW221315   3.762   3.700   1.535
 6810SOL     OW21316   3.923   2.153   1.515
 6810SOL    HW121317   3.841   2.196   1.489
 6810SOL    HW221318   3.895   2.069   1.552
 6811SOL     OW21319   3.809   2.410   1.390
 6811SOL    HW121320   3.904   2.405   1.380
 6811SOL    HW221321   3.794   2.483   1.450
 6812SOL     OW21322   3.792   3.435   1.349
 6812SOL    HW121323   3.766   3.499   1.283
 6812SOL    HW221324   3.887   3.442   1.353
 6813SOL     OW21325   0.073   2.954   0.535
 6813SOL    HW121326   0.080   3.014   0.460
 6813SOL    HW221327   0.152   2.901   0.530
 6814SOL     OW21328   0.006   2.074   1.251
 6814SOL    HW121329   3.976   2.105   1.337
 6814SOL    HW221330   0.011   1.979   1.260
 6815SOL     OW21331   3.751   3.174   1.277
 6815SOL    HW121332   3.794   3.124   1.346
 6815SOL    HW221333   3.765   3.266   1.300
 6816SOL     OW21334   3.994   1.921   0.654
 6816SOL    HW121335   0.014   2.014   0.667
 6816SOL    HW221336   0.017   1.880   0.737
 6817SOL     OW21337   3.740   3.177   0.174
 6817SOL    HW121338   3.657   3.188   0.127
 6817SOL    HW221339   3.729   3.093   0.220
 6818SOL     OW21340   3.803   3.651   0.938
 6818SOL    HW121341   3.781   3.571   0.892
 6818SOL    HW221342   3.897   3.661   0.926
 6819SOL     OW21343   0.212   3.419   0.868
 6819SOL    HW121344   0.279   3.488   0.864
 6819SOL    HW221345   0.236   3.358   0.798
 6820SOL     OW21346   3.756   2.402   1.118
 6820SOL    HW121347   3.839   2.398   1.071
 6820SOL    HW221348   3.781   2.407   1.211
 6821SOL     OW21349   3.900   2.377   1.722
 6821SOL    HW121350   3.927   2.316   1.654
 6821SOL    HW221351   3.858   2.450   1.676
 6822SOL     OW21352   3.941   3.392   1.727
 6822SOL    HW121353   3.931   3.478   1.769
 6822SOL    HW221354   3.990   3.340   1.791
 6823SOL     OW21355   3.859   2.996   1.473
 6823SOL    HW121356   3.932   2.992   1.535
 6823SOL    HW221357   3.894   2.956   1.393
 6824SOL     OW21358   3.810   3.129   1.012
 6824SOL    HW121359   3.783   3.142   1.103
 6824SOL    HW221360   3.750   3.063   0.977
 6825SOL     OW21361   3.840   3.648   1.824
 6825SOL    HW121362   3.790   3.583   1.874
 6825SOL    HW221363   3.888   3.698   1.891
 6826SOL     OW21364   3.777   2.271   0.030
 6826SOL    HW121365   3.742   2.187   0.061
 6826SOL    HW221366   3.759   2.271  13.836
 6827SOL     OW21367   3.785   2.020   0.347
 6827SOL    HW121368   3.760   2.044   0.258
 6827SOL    HW221369   3.881   2.022   0.347
 6828SOL     OW21370   3.798   3.095   0.666
 6828SOL    HW121371   3.793   3.049   0.749
 6828SOL    HW221372   3.884   3.072   0.630
 6829SOL     OW21373   3.751   2.937   0.308
 6829SOL    HW121374   3.847   2.944   0.310
 6829SOL    HW221375   3.733   2.845   0.326
 6830SOL     OW21376   3.954   2.495   1.972
 6830SOL    HW121377   3.873   2.491   2.023
 6830SOL    HW221378   3.930   2.458   1.887
 6831SOL     OW21379   3.961   2.125   2.849
 6831SOL    HW121380   3.966   2.121   2.944
 6831SOL    HW221381   3.869   2.112   2.829
 6832SOL     OW21382   3.724   2.242   2.498
 6832SOL    HW121383   3.644   2.268   2.545
 6832SOL    HW221384   3.702   2.159   2.457
 6833SOL     OW21385   0.012   3.384   2.913
 6833SOL    HW121386   3.962   3.304   2.896
 6833SOL    HW221387   0.079   3.385   2.845
 6834SOL     OW21388   3.941   3.582   2.338
 6834SOL    HW121389   3.951   3.655   2.398
 6834SOL    HW221390   0.031   3.563   2.310
 6835SOL     OW21391   3.941   3.301   2.369
 6835SOL    HW121392   3.924   3.395   2.373
 6835SOL    HW221393   3.886   3.264   2.438
 6836SOL     OW21394   3.816   2.502   2.422
 6836SOL    HW121395   3.785   2.415   2.446
 6836SOL    HW221396   3.811   2.552   2.504
 6837SOL     OW21397   3.754   3.457   1.992
 6837SOL    HW121398   3.735   3.365   2.009
 6837SOL    HW221399   3.724   3.503   2.071
 6838SOL     OW21400   3.825   2.604   3.445
 6838SOL    HW121401   3.908   2.646   3.468
 6838SOL    HW221402   3.762   2.676   3.438
 6839SOL     OW21403   3.804   2.678   2.633
 6839SOL    HW121404   3.898   2.675   2.652
 6839SOL    HW221405   3.771   2.751   2.685
 6840SOL     OW21406   3.849   3.723   3.430
 6840SOL    HW121407   3.848   3.695   3.522
 6840SOL    HW221408   3.762   3.700   3.398
 6841SOL     OW21409   3.922   2.153   3.378
 6841SOL    HW121410   3.841   2.196   3.351
 6841SOL    HW221411   3.894   2.070   3.414
 6842SOL     OW21412   0.001   1.887   2.024
 6842SOL    HW121413   0.035   1.976   2.010
 6842SOL    HW221414   0.062   1.847   2.086
 6843SOL     OW21415   3.809   2.409   3.252
 6843SOL    HW121416   3.904   2.405   3.242
 6843SOL    HW221417   3.794   2.483   3.312
 6844SOL     OW21418   0.280   2.150   2.184
 6844SOL    HW121419   0.298   2.076   2.126
 6844SOL    HW221420   0.318   2.225   2.138
 6845SOL     OW21421   3.792   3.435   3.211
 6845SOL    HW121422   3.766   3.499   3.145
 6845SOL    HW221423   3.887   3.442   3.215
 6846SOL     OW21424   0.067   2.955   2.391
 6846SOL    HW121425   0.062   3.000   2.307
 6846SOL    HW221426   0.135   2.889   2.380
 6847SOL     OW21427   0.006   2.074   3.114
 6847SOL    HW121428   3.976   2.105   3.200
 6847SOL    HW221429   0.011   1.979   3.122
 6848SOL     OW21430   3.751   3.174   3.139
 6848SOL    HW121431   3.794   3.124   3.209
 6848SOL    HW221432   3.766   3.265   3.163
 6849SOL     OW21433   3.998   1.920   2.515
 6849SOL    HW121434   0.010   2.015   2.529
 6849SOL    HW221435   0.019   1.881   2.600
 6850SOL     OW21436   3.728   3.188   2.050
 6850SOL    HW121437   3.642   3.201   2.010
 6850SOL    HW221438   3.720   3.104   2.096
 6851SOL     OW21439   3.803   3.652   2.800
 6851SOL    HW121440   3.780   3.571   2.754
 6851SOL    HW221441   3.897   3.661   2.788
 6852SOL     OW21442   0.212   3.419   2.730
 6852SOL    HW121443   0.280   3.486   2.725
 6852SOL    HW221444   0.235   3.356   2.661
 6853SOL     OW21445   3.756   2.402   2.980
 6853SOL    HW121446   3.839   2.398   2.933
 6853SOL    HW221447   3.781   2.407   3.073
 6854SOL     OW21448   3.901   2.377   3.584
 6854SOL    HW121449   3.927   2.316   3.516
 6854SOL    HW221450   3.858   2.449   3.538
 6855SOL     OW21451   3.941   3.392   3.589
 6855SOL    HW121452   3.932   3.478   3.632
 6855SOL    HW221453   3.990   3.340   3.652
 6856SOL     OW21454   3.859   2.996   3.335
 6856SOL    HW121455   3.932   2.992   3.397
 6856SOL    HW221456   3.893   2.955   3.255
 6857SOL     OW21457   3.810   3.131   2.874
 6857SOL    HW121458   3.782   3.142   2.965
 6857SOL    HW221459   3.750   3.064   2.839
 6858SOL     OW21460   3.840   3.648   3.686
 6858SOL    HW121461   3.790   3.583   3.736
 6858SOL    HW221462   3.888   3.698   3.753
 6859SOL     OW21463   3.801   2.196   1.905
 6859SOL    HW121464   3.717   2.161   1.875
 6859SOL    HW221465   3.820   2.267   1.844
 6860SOL     OW21466   3.763   2.023   2.175
 6860SOL    HW121467   3.755   2.086   2.104
 6860SOL    HW221468   3.855   2.029   2.202
 6861SOL     OW21469   3.800   3.100   2.528
 6861SOL    HW121470   3.794   3.051   2.610
 6861SOL    HW221471   3.879   3.066   2.486
 6862SOL     OW21472   3.751   2.940   2.173
 6862SOL    HW121473   3.841   2.943   2.141
 6862SOL    HW221474   3.735   2.848   2.192
 6863SOL     OW21475   3.954   2.495   3.834
 6863SOL    HW121476   3.873   2.491   3.885
 6863SOL    HW221477   3.931   2.458   3.749
 6864SOL     OW21478   3.961   2.125   4.711
 6864SOL    HW121479   3.966   2.121   4.806
 6864SOL    HW221480   3.869   2.112   4.691
 6865SOL     OW21481   3.724   2.242   4.360
 6865SOL    HW121482   3.644   2.268   4.407
 6865SOL    HW221483   3.702   2.159   4.319
 6866SOL     OW21484   0.012   3.384   4.775
 6866SOL    HW121485   3.961   3.304   4.758
 6866SOL    HW221486   0.079   3.385   4.707
 6867SOL     OW21487   3.941   3.582   4.200
 6867SOL    HW121488   3.951   3.655   4.260
 6867SOL    HW221489   0.031   3.563   4.172
 6868SOL     OW21490   3.941   3.301   4.231
 6868SOL    HW121491   3.924   3.395   4.235
 6868SOL    HW221492   3.886   3.264   4.300
 6869SOL     OW21493   3.816   2.502   4.284
 6869SOL    HW121494   3.785   2.414   4.308
 6869SOL    HW221495   3.811   2.552   4.366
 6870SOL     OW21496   3.754   3.457   3.854
 6870SOL    HW121497   3.735   3.365   3.871
 6870SOL    HW221498   3.724   3.503   3.933
 6871SOL     OW21499   3.825   2.604   5.307
 6871SOL    HW121500   3.908   2.646   5.330
 6871SOL    HW221501   3.762   2.675   5.300
 6872SOL     OW21502   3.804   2.678   4.495
 6872SOL    HW121503   3.898   2.675   4.514
 6872SOL    HW221504   3.771   2.751   4.547
 6873SOL     OW21505   3.849   3.723   5.292
 6873SOL    HW121506   3.848   3.695   5.384
 6873SOL    HW221507   3.762   3.700   5.259
 6874SOL     OW21508   3.922   2.153   5.240
 6874SOL    HW121509   3.841   2.196   5.212
 6874SOL    HW221510   3.894   2.069   5.276
 6875SOL     OW21511   0.001   1.888   3.886
 6875SOL    HW121512   0.035   1.976   3.872
 6875SOL    HW221513   0.062   1.848   3.948
 6876SOL     OW21514   3.809   2.409   5.114
 6876SOL    HW121515   3.904   2.405   5.104
 6876SOL    HW221516   3.794   2.483   5.174
 6877SOL     OW21517   0.280   2.150   4.046
 6877SOL    HW121518   0.298   2.076   3.989
 6877SOL    HW221519   0.318   2.225   4.000
 6878SOL     OW21520   3.792   3.435   5.073
 6878SOL    HW121521   3.766   3.499   5.007
 6878SOL    HW221522   3.887   3.442   5.077
 6879SOL     OW21523   0.067   2.955   4.253
 6879SOL    HW121524   0.062   3.000   4.169
 6879SOL    HW221525   0.135   2.889   4.242
 6880SOL     OW21526   0.006   2.074   4.976
 6880SOL    HW121527   3.975   2.104   5.062
 6880SOL    HW221528   0.010   1.979   4.984
 6881SOL     OW21529   3.751   3.174   5.001
 6881SOL    HW121530   3.794   3.124   5.071
 6881SOL    HW221531   3.765   3.266   5.025
 6882SOL     OW21532   3.998   1.920   4.377
 6882SOL    HW121533   0.010   2.014   4.391
 6882SOL    HW221534   0.020   1.881   4.462
 6883SOL     OW21535   3.728   3.188   3.912
 6883SOL    HW121536   3.642   3.201   3.872
 6883SOL    HW221537   3.720   3.104   3.958
 6884SOL     OW21538   3.803   3.652   4.662
 6884SOL    HW121539   3.780   3.571   4.616
 6884SOL    HW221540   3.897   3.661   4.650
 6885SOL     OW21541   0.212   3.419   4.592
 6885SOL    HW121542   0.280   3.486   4.587
 6885SOL    HW221543   0.235   3.356   4.523
 6886SOL     OW21544   3.756   2.402   4.842
 6886SOL    HW121545   3.839   2.398   4.795
 6886SOL    HW221546   3.781   2.407   4.935
 6887SOL     OW21547   3.901   2.377   5.446
 6887SOL    HW121548   3.926   2.316   5.377
 6887SOL    HW221549   3.858   2.449   5.400
 6888SOL     OW21550   3.941   3.392   5.451
 6888SOL    HW121551   3.932   3.478   5.493
 6888SOL    HW221552   3.990   3.340   5.515
 6889SOL     OW21553   3.859   2.997   5.197
 6889SOL    HW121554   3.932   2.992   5.259
 6889SOL    HW221555   3.893   2.955   5.117
 6890SOL     OW21556   3.810   3.131   4.736
 6890SOL    HW121557   3.782   3.142   4.827
 6890SOL    HW221558   3.751   3.064   4.701
 6891SOL     OW21559   3.840   3.648   5.548
 6891SOL    HW121560   3.790   3.583   5.598
 6891SOL    HW221561   3.888   3.698   5.615
 6892SOL     OW21562   3.801   2.196   3.767
 6892SOL    HW121563   3.717   2.161   3.737
 6892SOL    HW221564   3.820   2.267   3.706
 6893SOL     OW21565   3.763   2.023   4.037
 6893SOL    HW121566   3.755   2.086   3.966
 6893SOL    HW221567   3.855   2.029   4.064
 6894SOL     OW21568   3.800   3.100   4.390
 6894SOL    HW121569   3.794   3.051   4.472
 6894SOL    HW221570   3.879   3.066   4.348
 6895SOL     OW21571   3.751   2.940   4.035
 6895SOL    HW121572   3.841   2.943   4.003
 6895SOL    HW221573   3.735   2.848   4.054
 6896SOL     OW21574   3.955   2.495   5.695
 6896SOL    HW121575   3.874   2.491   5.747
 6896SOL    HW221576   3.931   2.458   5.611
 6897SOL     OW21577   3.960   2.125   6.573
 6897SOL    HW121578   3.966   2.121   6.668
 6897SOL    HW221579   3.868   2.112   6.553
 6898SOL     OW21580   3.724   2.242   6.222
 6898SOL    HW121581   3.646   2.265   6.271
 6898SOL    HW221582   3.703   2.158   6.180
 6899SOL     OW21583   0.012   3.385   6.637
 6899SOL    HW121584   3.962   3.305   6.621
 6899SOL    HW221585   0.079   3.385   6.569
 6900SOL     OW21586   3.941   3.582   6.062
 6900SOL    HW121587   3.951   3.655   6.122
 6900SOL    HW221588   0.031   3.563   6.034
 6901SOL     OW21589   3.941   3.301   6.093
 6901SOL    HW121590   3.924   3.395   6.097
 6901SOL    HW221591   3.886   3.264   6.162
 6902SOL     OW21592   3.815   2.502   6.146
 6902SOL    HW121593   3.785   2.414   6.170
 6902SOL    HW221594   3.811   2.552   6.228
 6903SOL     OW21595   3.754   3.457   5.716
 6903SOL    HW121596   3.735   3.365   5.733
 6903SOL    HW221597   3.724   3.503   5.795
 6904SOL     OW21598   3.825   2.603   7.168
 6904SOL    HW121599   3.907   2.646   7.193
 6904SOL    HW221600   3.761   2.675   7.162
 6905SOL     OW21601   3.803   2.678   6.357
 6905SOL    HW121602   3.897   2.675   6.376
 6905SOL    HW221603   3.770   2.751   6.409
 6906SOL     OW21604   3.849   3.723   7.155
 6906SOL    HW121605   3.848   3.696   7.246
 6906SOL    HW221606   3.763   3.698   7.121
 6907SOL     OW21607   3.921   2.154   7.102
 6907SOL    HW121608   3.840   2.196   7.074
 6907SOL    HW221609   3.894   2.070   7.138
 6908SOL     OW21610   0.000   1.888   5.749
 6908SOL    HW121611   0.035   1.975   5.734
 6908SOL    HW221612   0.062   1.847   5.810
 6909SOL     OW21613   3.810   2.410   6.974
 6909SOL    HW121614   3.905   2.406   6.966
 6909SOL    HW221615   3.794   2.483   7.035
 6910SOL     OW21616   0.281   2.150   5.909
 6910SOL    HW121617   0.297   2.075   5.851
 6910SOL    HW221618   0.316   2.225   5.861
 6911SOL     OW21619   3.791   3.435   6.936
 6911SOL    HW121620   3.766   3.499   6.869
 6911SOL    HW221621   3.887   3.442   6.940
 6912SOL     OW21622   0.067   2.955   6.115
 6912SOL    HW121623   0.062   3.000   6.031
 6912SOL    HW221624   0.135   2.888   6.104
 6913SOL     OW21625   0.008   2.075   6.838
 6913SOL    HW121626   3.975   2.106   6.922
 6913SOL    HW221627   0.008   1.980   6.845
 6914SOL     OW21628   3.753   3.174   6.862
 6914SOL    HW121629   3.794   3.124   6.933
 6914SOL    HW221630   3.766   3.265   6.887
 6915SOL     OW21631   3.997   1.921   6.239
 6915SOL    HW121632   0.010   2.014   6.253
 6915SOL    HW221633   0.019   1.880   6.323
 6916SOL     OW21634   3.728   3.188   5.774
 6916SOL    HW121635   3.642   3.201   5.734
 6916SOL    HW221636   3.720   3.104   5.820
 6917SOL     OW21637   3.803   3.652   6.524
 6917SOL    HW121638   3.780   3.571   6.478
 6917SOL    HW221639   3.897   3.661   6.512
 6918SOL     OW21640   0.212   3.419   6.454
 6918SOL    HW121641   0.280   3.486   6.449
 6918SOL    HW221642   0.235   3.356   6.385
 6919SOL     OW21643   3.758   2.402   6.703
 6919SOL    HW121644   3.841   2.398   6.657
 6919SOL    HW221645   3.782   2.406   6.796
 6920SOL     OW21646   3.901   2.377   7.308
 6920SOL    HW121647   3.925   2.315   7.239
 6920SOL    HW221648   3.858   2.448   7.262
 6921SOL     OW21649   3.941   3.393   7.313
 6921SOL    HW121650   3.932   3.477   7.357
 6921SOL    HW221651   3.990   3.339   7.376
 6922SOL     OW21652   3.859   2.998   7.058
 6922SOL    HW121653   3.932   2.991   7.121
 6922SOL    HW221654   3.892   2.955   6.980
 6923SOL     OW21655   3.810   3.130   6.597
 6923SOL    HW121656   3.783   3.142   6.689
 6923SOL    HW221657   3.750   3.064   6.563
 6924SOL     OW21658   3.840   3.649   7.411
 6924SOL    HW121659   3.790   3.584   7.460
 6924SOL    HW221660   3.887   3.698   7.478
 6925SOL     OW21661   3.801   2.196   5.629
 6925SOL    HW121662   3.717   2.161   5.600
 6925SOL    HW221663   3.820   2.267   5.568
 6926SOL     OW21664   3.764   2.023   5.899
 6926SOL    HW121665   3.755   2.086   5.828
 6926SOL    HW221666   3.855   2.029   5.926
 6927SOL     OW21667   3.800   3.099   6.251
 6927SOL    HW121668   3.795   3.052   6.334
 6927SOL    HW221669   3.879   3.066   6.209
 6928SOL     OW21670   3.751   2.941   5.897
 6928SOL    HW121671   3.841   2.943   5.865
 6928SOL    HW221672   3.734   2.848   5.916
 6929SOL     OW21673   3.954   2.495   7.557
 6929SOL    HW121674   3.873   2.491   7.608
 6929SOL    HW221675   3.931   2.458   7.472
 6930SOL     OW21676   3.961   2.125   8.435
 6930SOL    HW121677   3.966   2.121   8.530
 6930SOL    HW221678   3.868   2.113   8.415
 6931SOL     OW21679   3.724   2.242   8.084
 6931SOL    HW121680   3.644   2.266   8.131
 6931SOL    HW221681   3.703   2.159   8.043
 6932SOL     OW21682   0.012   3.384   8.499
 6932SOL    HW121683   3.962   3.304   8.482
 6932SOL    HW221684   0.079   3.385   8.431
 6933SOL     OW21685   3.941   3.582   7.924
 6933SOL    HW121686   3.951   3.655   7.984
 6933SOL    HW221687   0.030   3.563   7.895
 6934SOL     OW21688   3.942   3.301   7.955
 6934SOL    HW121689   3.924   3.395   7.959
 6934SOL    HW221690   3.887   3.264   8.024
 6935SOL     OW21691   3.815   2.502   8.009
 6935SOL    HW121692   3.785   2.415   8.032
 6935SOL    HW221693   3.811   2.552   8.091
 6936SOL     OW21694   3.755   3.457   7.579
 6936SOL    HW121695   3.735   3.365   7.594
 6936SOL    HW221696   3.724   3.502   7.657
 6937SOL     OW21697   3.826   2.604   9.031
 6937SOL    HW121698   3.909   2.646   9.053
 6937SOL    HW221699   3.763   2.676   9.025
 6938SOL     OW21700   3.804   2.677   8.220
 6938SOL    HW121701   3.898   2.675   8.238
 6938SOL    HW221702   3.771   2.751   8.271
 6939SOL     OW21703   3.849   3.723   9.016
 6939SOL    HW121704   3.848   3.695   9.108
 6939SOL    HW221705   3.762   3.699   8.983
 6940SOL     OW21706   3.923   2.153   8.964
 6940SOL    HW121707   3.842   2.197   8.937
 6940SOL    HW221708   3.894   2.069   9.000
 6941SOL     OW21709   0.001   1.888   7.611
 6941SOL    HW121710   0.035   1.976   7.594
 6941SOL    HW221711   0.065   1.848   7.670
 6942SOL     OW21712   3.809   2.409   8.839
 6942SOL    HW121713   3.904   2.405   8.828
 6942SOL    HW221714   3.795   2.483   8.898
 6943SOL     OW21715   0.276   2.151   7.767
 6943SOL    HW121716   0.298   2.077   7.712
 6943SOL    HW221717   0.321   2.226   7.726
 6944SOL     OW21718   3.792   3.435   8.797
 6944SOL    HW121719   3.766   3.499   8.731
 6944SOL    HW221720   3.887   3.442   8.801
 6945SOL     OW21721   0.066   2.955   7.977
 6945SOL    HW121722   0.062   2.999   7.892
 6945SOL    HW221723   0.134   2.888   7.966
 6946SOL     OW21724   0.005   2.074   8.700
 6946SOL    HW121725   3.976   2.104   8.786
 6946SOL    HW221726   0.012   1.979   8.709
 6947SOL     OW21727   3.750   3.174   8.725
 6947SOL    HW121728   3.794   3.124   8.794
 6947SOL    HW221729   3.765   3.266   8.748
 6948SOL     OW21730   3.997   1.920   8.101
 6948SOL    HW121731   0.010   2.014   8.113
 6948SOL    HW221732   0.019   1.882   8.186
 6949SOL     OW21733   3.728   3.188   7.636
 6949SOL    HW121734   3.642   3.201   7.596
 6949SOL    HW221735   3.720   3.104   7.682
 6950SOL     OW21736   3.803   3.652   8.386
 6950SOL    HW121737   3.780   3.571   8.340
 6950SOL    HW221738   3.898   3.661   8.374
 6951SOL     OW21739   0.212   3.419   8.316
 6951SOL    HW121740   0.280   3.485   8.311
 6951SOL    HW221741   0.234   3.356   8.247
 6952SOL     OW21742   3.756   2.401   8.567
 6952SOL    HW121743   3.838   2.397   8.518
 6952SOL    HW221744   3.782   2.407   8.659
 6953SOL     OW21745   3.900   2.377   9.171
 6953SOL    HW121746   3.927   2.317   9.102
 6953SOL    HW221747   3.859   2.450   9.124
 6954SOL     OW21748   3.941   3.392   9.175
 6954SOL    HW121749   3.932   3.477   9.218
 6954SOL    HW221750   3.991   3.339   9.238
 6955SOL     OW21751   3.859   2.996   8.921
 6955SOL    HW121752   3.932   2.992   8.983
 6955SOL    HW221753   3.894   2.955   8.841
 6956SOL     OW21754   3.809   3.131   8.460
 6956SOL    HW121755   3.782   3.142   8.551
 6956SOL    HW221756   3.751   3.064   8.425
 6957SOL     OW21757   3.840   3.648   9.273
 6957SOL    HW121758   3.790   3.584   9.322
 6957SOL    HW221759   3.888   3.698   9.340
 6958SOL     OW21760   3.800   2.196   7.491
 6958SOL    HW121761   3.717   2.161   7.460
 6958SOL    HW221762   3.820   2.268   7.431
 6959SOL     OW21763   3.762   2.023   7.761
 6959SOL    HW121764   3.754   2.085   7.689
 6959SOL    HW221765   3.854   2.030   7.788
 6960SOL     OW21766   3.800   3.100   8.113
 6960SOL    HW121767   3.795   3.051   8.195
 6960SOL    HW221768   3.879   3.066   8.070
 6961SOL     OW21769   3.751   2.941   7.760
 6961SOL    HW121770   3.841   2.943   7.726
 6961SOL    HW221771   3.734   2.848   7.779
 6962SOL     OW21772   3.954   2.495   9.420
 6962SOL    HW121773   3.873   2.491   9.471
 6962SOL    HW221774   3.931   2.458   9.335
 6963SOL     OW21775   3.961   2.125  10.297
 6963SOL    HW121776   3.966   2.121  10.392
 6963SOL    HW221777   3.869   2.112  10.277
 6964SOL     OW21778   3.724   2.242   9.946
 6964SOL    HW121779   3.644   2.268   9.993
 6964SOL    HW221780   3.702   2.159   9.905
 6965SOL     OW21781   0.012   3.384  10.361
 6965SOL    HW121782   3.962   3.304  10.344
 6965SOL    HW221783   0.079   3.385  10.293
 6966SOL     OW21784   3.941   3.582   9.786
 6966SOL    HW121785   3.951   3.655   9.846
 6966SOL    HW221786   0.031   3.563   9.757
 6967SOL     OW21787   3.941   3.301   9.817
 6967SOL    HW121788   3.924   3.395   9.821
 6967SOL    HW221789   3.886   3.264   9.886
 6968SOL     OW21790   3.815   2.502   9.870
 6968SOL    HW121791   3.785   2.414   9.894
 6968SOL    HW221792   3.811   2.552   9.952
 6969SOL     OW21793   3.754   3.457   9.440
 6969SOL    HW121794   3.735   3.365   9.457
 6969SOL    HW221795   3.724   3.503   9.519
 6970SOL     OW21796   3.825   2.604  10.893
 6970SOL    HW121797   3.908   2.646  10.916
 6970SOL    HW221798   3.763   2.676  10.887
 6971SOL     OW21799   3.804   2.678  10.081
 6971SOL    HW121800   3.898   2.675  10.100
 6971SOL    HW221801   3.771   2.751  10.133
 6972SOL     OW21802   3.849   3.723  10.878
 6972SOL    HW121803   3.848   3.695  10.970
 6972SOL    HW221804   3.762   3.700  10.846
 6973SOL     OW21805   3.923   2.153  10.826
 6973SOL    HW121806   3.841   2.196  10.799
 6973SOL    HW221807   3.894   2.069  10.862
 6974SOL     OW21808   0.001   1.888   9.473
 6974SOL    HW121809   0.035   1.976   9.457
 6974SOL    HW221810   0.063   1.848   9.533
 6975SOL     OW21811   3.809   2.409  10.700
 6975SOL    HW121812   3.904   2.405  10.690
 6975SOL    HW221813   3.794   2.483  10.760
 6976SOL     OW21814   0.280   2.150   9.632
 6976SOL    HW121815   0.298   2.076   9.574
 6976SOL    HW221816   0.318   2.225   9.587
 6977SOL     OW21817   3.792   3.435  10.659
 6977SOL    HW121818   3.766   3.499  10.593
 6977SOL    HW221819   3.887   3.442  10.663
 6978SOL     OW21820   0.067   2.955   9.839
 6978SOL    HW121821   0.062   3.000   9.755
 6978SOL    HW221822   0.135   2.889   9.828
 6979SOL     OW21823   0.006   2.074  10.562
 6979SOL    HW121824   3.976   2.104  10.648
 6979SOL    HW221825   0.011   1.979  10.570
 6980SOL     OW21826   3.751   3.174  10.587
 6980SOL    HW121827   3.794   3.124  10.656
 6980SOL    HW221828   3.765   3.266  10.611
 6981SOL     OW21829   3.998   1.920   9.963
 6981SOL    HW121830   0.010   2.014   9.976
 6981SOL    HW221831   0.019   1.881  10.048
 6982SOL     OW21832   3.728   3.188   9.498
 6982SOL    HW121833   3.642   3.201   9.458
 6982SOL    HW221834   3.720   3.104   9.544
 6983SOL     OW21835   3.803   3.652  10.248
 6983SOL    HW121836   3.780   3.571  10.202
 6983SOL    HW221837   3.897   3.661  10.236
 6984SOL     OW21838   0.212   3.419  10.178
 6984SOL    HW121839   0.280   3.486  10.173
 6984SOL    HW221840   0.235   3.356  10.109
 6985SOL     OW21841   3.756   2.401  10.429
 6985SOL    HW121842   3.839   2.398  10.381
 6985SOL    HW221843   3.781   2.407  10.521
 6986SOL     OW21844   3.900   2.377  11.032
 6986SOL    HW121845   3.927   2.316  10.964
 6986SOL    HW221846   3.859   2.450  10.986
 6987SOL     OW21847   3.941   3.392  11.037
 6987SOL    HW121848   3.932   3.478  11.080
 6987SOL    HW221849   3.990   3.340  11.100
 6988SOL     OW21850   3.859   2.996  10.783
 6988SOL    HW121851   3.932   2.992  10.845
 6988SOL    HW221852   3.893   2.955  10.703
 6989SOL     OW21853   3.810   3.131  10.322
 6989SOL    HW121854   3.782   3.142  10.413
 6989SOL    HW221855   3.751   3.064  10.287
 6990SOL     OW21856   3.840   3.648  11.135
 6990SOL    HW121857   3.790   3.583  11.184
 6990SOL    HW221858   3.888   3.698  11.201
 6991SOL     OW21859   3.801   2.196   9.353
 6991SOL    HW121860   3.717   2.161   9.323
 6991SOL    HW221861   3.821   2.267   9.292
 6992SOL     OW21862   3.763   2.023   9.623
 6992SOL    HW121863   3.755   2.086   9.551
 6992SOL    HW221864   3.855   2.029   9.650
 6993SOL     OW21865   3.800   3.100   9.976
 6993SOL    HW121866   3.794   3.051  10.058
 6993SOL    HW221867   3.879   3.066   9.934
 6994SOL     OW21868   3.751   2.940   9.621
 6994SOL    HW121869   3.841   2.943   9.589
 6994SOL    HW221870   3.735   2.848   9.640
 6995SOL     OW21871   3.954   2.495  11.282
 6995SOL    HW121872   3.873   2.491  11.333
 6995SOL    HW221873   3.931   2.458  11.197
 6996SOL     OW21874   3.961   2.125  12.159
 6996SOL    HW121875   3.966   2.121  12.254
 6996SOL    HW221876   3.869   2.112  12.139
 6997SOL     OW21877   3.724   2.242  11.808
 6997SOL    HW121878   3.644   2.268  11.855
 6997SOL    HW221879   3.702   2.159  11.767
 6998SOL     OW21880   0.012   3.384  12.223
 6998SOL    HW121881   3.962   3.304  12.206
 6998SOL    HW221882   0.079   3.385  12.155
 6999SOL     OW21883   3.941   3.582  11.648
 6999SOL    HW121884   3.951   3.655  11.708
 6999SOL    HW221885   0.031   3.563  11.620
 7000SOL     OW21886   3.941   3.301  11.679
 7000SOL    HW121887   3.924   3.395  11.683
 7000SOL    HW221888   3.886   3.264  11.748
 7001SOL     OW21889   3.815   2.502  11.732
 7001SOL    HW121890   3.785   2.415  11.756
 7001SOL    HW221891   3.811   2.552  11.814
 7002SOL     OW21892   3.754   3.457  11.302
 7002SOL    HW121893   3.735   3.365  11.319
 7002SOL    HW221894   3.724   3.503  11.381
 7003SOL     OW21895   3.825   2.604  12.755
 7003SOL    HW121896   3.908   2.646  12.777
 7003SOL    HW221897   3.763   2.676  12.749
 7004SOL     OW21898   3.804   2.678  11.943
 7004SOL    HW121899   3.898   2.675  11.962
 7004SOL    HW221900   3.771   2.751  11.995
 7005SOL     OW21901   3.849   3.723  12.742
 7005SOL    HW121902   3.848   3.696  12.833
 7005SOL    HW221903   3.762   3.699  12.709
 7006SOL     OW21904   3.923   2.153  12.688
 7006SOL    HW121905   3.841   2.196  12.661
 7006SOL    HW221906   3.894   2.069  12.724
 7007SOL     OW21907   0.001   1.888  11.335
 7007SOL    HW121908   0.035   1.976  11.320
 7007SOL    HW221909   0.063   1.848  11.395
 7008SOL     OW21910   3.809   2.409  12.562
 7008SOL    HW121911   3.904   2.405  12.552
 7008SOL    HW221912   3.794   2.483  12.622
 7009SOL     OW21913   0.280   2.150  11.494
 7009SOL    HW121914   0.298   2.076  11.436
 7009SOL    HW221915   0.318   2.225  11.449
 7010SOL     OW21916   3.792   3.435  12.521
 7010SOL    HW121917   3.766   3.499  12.455
 7010SOL    HW221918   3.887   3.442  12.525
 7011SOL     OW21919   0.067   2.955  11.701
 7011SOL    HW121920   0.062   3.000  11.617
 7011SOL    HW221921   0.135   2.889  11.690
 7012SOL     OW21922   0.006   2.074  12.424
 7012SOL    HW121923   3.976   2.104  12.510
 7012SOL    HW221924   0.011   1.979  12.432
 7013SOL     OW21925   3.751   3.174  12.449
 7013SOL    HW121926   3.794   3.124  12.519
 7013SOL    HW221927   3.765   3.266  12.473
 7014SOL     OW21928   3.998   1.920  11.825
 7014SOL    HW121929   0.010   2.014  11.838
 7014SOL    HW221930   0.019   1.881  11.910
 7015SOL     OW21931   3.728   3.188  11.360
 7015SOL    HW121932   3.642   3.201  11.320
 7015SOL    HW221933   3.720   3.104  11.406
 7016SOL     OW21934   3.803   3.652  12.110
 7016SOL    HW121935   3.780   3.571  12.064
 7016SOL    HW221936   3.897   3.661  12.098
 7017SOL     OW21937   0.212   3.419  12.040
 7017SOL    HW121938   0.280   3.486  12.035
 7017SOL    HW221939   0.235   3.356  11.971
 7018SOL     OW21940   3.756   2.401  12.291
 7018SOL    HW121941   3.839   2.398  12.243
 7018SOL    HW221942   3.781   2.407  12.383
 7019SOL     OW21943   3.901   2.378  12.895
 7019SOL    HW121944   3.927   2.316  12.826
 7019SOL    HW221945   3.859   2.450  12.848
 7020SOL     OW21946   3.941   3.393  12.900
 7020SOL    HW121947   3.931   3.478  12.943
 7020SOL    HW221948   3.988   3.339  12.963
 7021SOL     OW21949   3.859   2.996  12.644
 7021SOL    HW121950   3.932   2.992  12.706
 7021SOL    HW221951   3.893   2.955  12.565
 7022SOL     OW21952   3.810   3.131  12.184
 7022SOL    HW121953   3.782   3.142  12.275
 7022SOL    HW221954   3.751   3.064  12.149
 7023SOL     OW21955   3.842   3.650  12.999
 7023SOL    HW121956   3.791   3.585  13.047
 7023SOL    HW221957   3.888   3.700  13.066
 7024SOL     OW21958   3.801   2.196  11.215
 7024SOL    HW121959   3.717   2.161  11.185
 7024SOL    HW221960   3.821   2.267  11.154
 7025SOL     OW21961   3.763   2.023  11.485
 7025SOL    HW121962   3.755   2.086  11.414
 7025SOL    HW221963   3.855   2.029  11.512
 7026SOL     OW21964   3.800   3.100  11.838
 7026SOL    HW121965   3.794   3.051  11.920
 7026SOL    HW221966   3.879   3.066  11.796
 7027SOL     OW21967   3.751   2.940  11.483
 7027SOL    HW121968   3.841   2.943  11.451
 7027SOL    HW221969   3.735   2.848  11.502
 7028SOL     OW21970   3.952   2.494  13.145
 7028SOL    HW121971   3.870   2.490  13.194
 7028SOL    HW221972   3.931   2.457  13.059
 7029SOL     OW21973   3.722   2.244  13.661
 7029SOL    HW121974   3.635   2.274  13.687
 7029SOL    HW221975   3.707   2.159  13.619
 7030SOL     OW21976   3.942   3.578  13.502
 7030SOL    HW121977   3.939   3.656  13.558
 7030SOL    HW221978   0.035   3.565  13.484
 7031SOL     OW21979   3.941   3.297  13.538
 7031SOL    HW121980   3.927   3.392  13.540
 7031SOL    HW221981   3.884   3.263  13.607
 7032SOL     OW21982   3.946   2.956   0.004
 7032SOL    HW121983   3.983   2.914   0.082
 7032SOL    HW221984   3.861   2.988   0.032
 7033SOL     OW21985   3.832   2.503  13.597
 7033SOL    HW121986   3.782   2.423  13.612
 7033SOL    HW221987   3.816   2.556  13.675
 7034SOL     OW21988   3.751   3.458  13.162
 7034SOL    HW121989   3.734   3.365  13.180
 7034SOL    HW221990   3.722   3.503  13.242
 7035SOL     OW21991   3.800   2.673  13.807
 7035SOL    HW121992   3.894   2.682  13.824
 7035SOL    HW221993   3.761   2.749  13.850
 7036SOL     OW21994   0.115   3.637  13.843
 7036SOL    HW121995   0.072   3.578   0.005
 7036SOL    HW221996   0.187   3.676  13.892
 7037SOL     OW21997   0.001   1.890  13.198
 7037SOL    HW121998   0.042   1.974  13.176
 7037SOL    HW221999   0.063   1.849  13.258
 7038SOL     OW22000   0.278   2.151  13.349
 7038SOL    HW122001   0.300   2.075  13.295
 7038SOL    HW222002   0.324   2.224  13.307
 7039SOL     OW22003   0.068   2.956  13.557
 7039SOL    HW122004   0.066   3.004  13.474
 7039SOL    HW222005   0.139   2.893  13.546
 7040SOL     OW22006   3.982   1.925  13.670
 7040SOL    HW122007   0.007   2.017  13.682
 7040SOL    HW222008   0.023   1.880  13.745
 7041SOL     OW22009   3.728   3.188  13.221
 7041SOL    HW122010   3.642   3.202  13.181
 7041SOL    HW222011   3.719   3.105  13.268
 7042SOL     OW22012   0.321   3.404   0.010
 7042SOL    HW122013   0.262   3.473   0.042
 7042SOL    HW222014   0.266   3.347  13.857
 7043SOL     OW22015   3.801   2.195  13.077
 7043SOL    HW122016   3.717   2.161  13.047
 7043SOL    HW222017   3.821   2.267  13.016
 7044SOL     OW22018   3.764   2.024  13.347
 7044SOL    HW122019   3.756   2.085  13.274
 7044SOL    HW222020   3.856   2.031  13.374
 7045SOL     OW22021   3.807   3.094  13.691
 7045SOL    HW122022   3.797   3.030  13.762
 7045SOL    HW222023   3.884   3.065  13.643
 7046SOL     OW22024   3.751   2.940  13.344
 7046SOL    HW122025   3.841   2.943  13.310
 7046SOL    HW222026   3.736   2.847  13.363
 7047SOL     OW22027   3.963   3.975   0.989
 7047SOL    HW122028   3.966   3.968   1.085
 7047SOL    HW222029   3.873   3.952   0.967
 7048SOL     OW22030   3.749   0.059   0.689
 7048SOL    HW122031   3.672   0.116   0.691
 7048SOL    HW222032   3.719   3.979   0.645
 7049SOL     OW22033   3.913   0.001   1.509
 7049SOL    HW122034   3.823   0.034   1.506
 7049SOL    HW222035   3.909   3.925   1.567
 7050SOL     OW22036   3.979   3.771   0.180
 7050SOL    HW122037   0.015   3.837   0.120
 7050SOL    HW222038   0.049   3.706   0.189
 7051SOL     OW22039   3.999   3.934   1.256
 7051SOL    HW122040   3.962   3.943   1.344
 7051SOL    HW222041   0.028   3.843   1.252
 7052SOL     OW22042   0.023   3.776   0.648
 7052SOL    HW122043   0.044   3.870   0.651
 7052SOL    HW222044   0.032   3.747   0.739
 7053SOL     OW22045   3.786   3.868   0.343
 7053SOL    HW122046   3.788   3.963   0.330
 7053SOL    HW222047   3.862   3.836   0.294
 7054SOL     OW22048   3.964   3.973   2.850
 7054SOL    HW122049   3.967   3.968   2.946
 7054SOL    HW222050   3.873   3.951   2.828
 7055SOL     OW22051   3.747   0.057   2.555
 7055SOL    HW122052   3.672   0.116   2.555
 7055SOL    HW222053   3.716   3.979   2.509
 7056SOL     OW22054   3.913   0.001   3.371
 7056SOL    HW122055   3.824   0.035   3.369
 7056SOL    HW222056   3.909   3.925   3.428
 7057SOL     OW22057   3.989   3.760   2.022
 7057SOL    HW122058   0.028   3.835   1.979
 7057SOL    HW222059   0.058   3.726   2.079
 7058SOL     OW22060   3.999   3.935   3.118
 7058SOL    HW122061   3.962   3.944   3.206
 7058SOL    HW222062   0.028   3.844   3.114
 7059SOL     OW22063   0.017   3.778   2.514
 7059SOL    HW122064   0.047   3.868   2.518
 7059SOL    HW222065   0.029   3.744   2.603
 7060SOL     OW22066   3.805   0.050   1.891
 7060SOL    HW122067   3.740   0.018   1.828
 7060SOL    HW222068   3.806   0.145   1.879
 7061SOL     OW22069   3.782   3.869   2.187
 7061SOL    HW122070   3.778   3.962   2.166
 7061SOL    HW222071   3.869   3.842   2.156
 7062SOL     OW22072   3.964   3.973   4.712
 7062SOL    HW122073   3.967   3.968   4.808
 7062SOL    HW222074   3.873   3.951   4.690
 7063SOL     OW22075   3.747   0.057   4.417
 7063SOL    HW122076   3.672   0.116   4.417
 7063SOL    HW222077   3.716   3.979   4.371
 7064SOL     OW22078   3.913   0.001   5.233
 7064SOL    HW122079   3.824   0.035   5.231
 7064SOL    HW222080   3.908   3.924   5.290
 7065SOL     OW22081   3.989   3.759   3.884
 7065SOL    HW122082   0.028   3.835   3.841
 7065SOL    HW222083   0.058   3.726   3.941
 7066SOL     OW22084   3.999   3.935   4.980
 7066SOL    HW122085   3.962   3.944   5.068
 7066SOL    HW222086   0.028   3.844   4.975
 7067SOL     OW22087   0.017   3.778   4.376
 7067SOL    HW122088   0.047   3.868   4.380
 7067SOL    HW222089   0.029   3.744   4.465
 7068SOL     OW22090   3.805   0.050   3.753
 7068SOL    HW122091   3.740   0.018   3.690
 7068SOL    HW222092   3.806   0.145   3.741
 7069SOL     OW22093   3.782   3.869   4.049
 7069SOL    HW122094   3.778   3.962   4.028
 7069SOL    HW222095   3.869   3.842   4.018
 7070SOL     OW22096   3.964   3.973   6.574
 7070SOL    HW122097   3.967   3.968   6.670
 7070SOL    HW222098   3.873   3.951   6.552
 7071SOL     OW22099   3.747   0.057   6.279
 7071SOL    HW122100   3.672   0.116   6.279
 7071SOL    HW222101   3.716   3.979   6.233
 7072SOL     OW22102   3.913   0.001   7.095
 7072SOL    HW122103   3.824   0.035   7.092
 7072SOL    HW222104   3.908   3.923   7.151
 7073SOL     OW22105   3.989   3.760   5.746
 7073SOL    HW122106   0.028   3.835   5.703
 7073SOL    HW222107   0.058   3.726   5.803
 7074SOL     OW22108   3.999   3.935   6.842
 7074SOL    HW122109   3.962   3.944   6.930
 7074SOL    HW222110   0.028   3.844   6.837
 7075SOL     OW22111   0.017   3.778   6.238
 7075SOL    HW122112   0.047   3.868   6.242
 7075SOL    HW222113   0.029   3.744   6.327
 7076SOL     OW22114   3.805   0.050   5.615
 7076SOL    HW122115   3.740   0.018   5.552
 7076SOL    HW222116   3.806   0.145   5.603
 7077SOL     OW22117   3.782   3.869   5.911
 7077SOL    HW122118   3.778   3.962   5.889
 7077SOL    HW222119   3.869   3.842   5.880
 7078SOL     OW22120   3.964   3.973   8.436
 7078SOL    HW122121   3.967   3.968   8.532
 7078SOL    HW222122   3.873   3.951   8.414
 7079SOL     OW22123   3.747   0.057   8.141
 7079SOL    HW122124   3.671   0.116   8.141
 7079SOL    HW222125   3.717   3.979   8.095
 7080SOL     OW22126   3.913   0.001   8.957
 7080SOL    HW122127   3.824   0.035   8.955
 7080SOL    HW222128   3.909   3.924   9.014
 7081SOL     OW22129   3.988   3.760   7.609
 7081SOL    HW122130   0.029   3.835   7.565
 7081SOL    HW222131   0.058   3.725   7.665
 7082SOL     OW22132   3.999   3.935   8.704
 7082SOL    HW122133   3.962   3.944   8.792
 7082SOL    HW222134   0.028   3.844   8.699
 7083SOL     OW22135   0.016   3.778   8.101
 7083SOL    HW122136   0.047   3.868   8.104
 7083SOL    HW222137   0.029   3.744   8.189
 7084SOL     OW22138   3.804   0.050   7.478
 7084SOL    HW122139   3.741   0.018   7.413
 7084SOL    HW222140   3.806   0.145   7.465
 7085SOL     OW22141   3.782   3.869   7.772
 7085SOL    HW122142   3.778   3.962   7.750
 7085SOL    HW222143   3.868   3.841   7.741
 7086SOL     OW22144   3.964   3.973  10.298
 7086SOL    HW122145   3.967   3.968  10.394
 7086SOL    HW222146   3.873   3.951  10.276
 7087SOL     OW22147   3.747   0.057  10.003
 7087SOL    HW122148   3.672   0.116  10.003
 7087SOL    HW222149   3.717   3.979   9.957
 7088SOL     OW22150   3.913   0.001  10.819
 7088SOL    HW122151   3.824   0.035  10.817
 7088SOL    HW222152   3.909   3.924  10.876
 7089SOL     OW22153   3.989   3.760   9.471
 7089SOL    HW122154   0.028   3.835   9.427
 7089SOL    HW222155   0.058   3.726   9.527
 7090SOL     OW22156   3.999   3.935  10.566
 7090SOL    HW122157   3.962   3.944  10.654
 7090SOL    HW222158   0.028   3.844  10.561
 7091SOL     OW22159   0.017   3.778   9.962
 7091SOL    HW122160   0.047   3.868   9.966
 7091SOL    HW222161   0.029   3.744  10.051
 7092SOL     OW22162   3.805   0.050   9.340
 7092SOL    HW122163   3.740   0.018   9.276
 7092SOL    HW222164   3.806   0.145   9.327
 7093SOL     OW22165   3.782   3.869   9.635
 7093SOL    HW122166   3.778   3.962   9.613
 7093SOL    HW222167   3.869   3.842   9.604
 7094SOL     OW22168   3.964   3.973  12.160
 7094SOL    HW122169   3.967   3.968  12.256
 7094SOL    HW222170   3.873   3.951  12.138
 7095SOL     OW22171   3.747   0.057  11.865
 7095SOL    HW122172   3.672   0.116  11.865
 7095SOL    HW222173   3.717   3.979  11.819
 7096SOL     OW22174   3.913   0.001  12.681
 7096SOL    HW122175   3.823   0.034  12.679
 7096SOL    HW222176   3.908   3.924  12.738
 7097SOL     OW22177   3.989   3.760  11.332
 7097SOL    HW122178   0.028   3.835  11.289
 7097SOL    HW222179   0.058   3.726  11.389
 7098SOL     OW22180   3.999   3.935  12.428
 7098SOL    HW122181   3.961   3.944  12.516
 7098SOL    HW222182   0.028   3.844  12.423
 7099SOL     OW22183   0.017   3.778  11.824
 7099SOL    HW122184   0.047   3.868  11.828
 7099SOL    HW222185   0.029   3.744  11.913
 7100SOL     OW22186   3.805   0.050  11.202
 7100SOL    HW122187   3.740   0.018  11.138
 7100SOL    HW222188   3.806   0.145  11.189
 7101SOL     OW22189   3.782   3.869  11.497
 7101SOL    HW122190   3.778   3.962  11.475
 7101SOL    HW222191   3.869   3.842  11.466
 7102SOL     OW22192   3.741   0.081  13.685
 7102SOL    HW122193   3.670   0.110  13.743
 7102SOL    HW222194   3.719   3.990  13.665
 7103SOL     OW22195   3.990   3.764  13.199
 7103SOL    HW122196   0.033   3.835  13.151
 7103SOL    HW222197   0.058   3.727  13.255
 7104SOL     OW22198   3.979   3.791  13.670
 7104SOL    HW122199   0.025   3.874  13.676
 7104SOL    HW222200   0.023   3.734  13.733
 7105SOL     OW22201   3.806   0.050  13.062
 7105SOL    HW122202   3.740   0.018  13.000
 7105SOL    HW222203   3.807   0.145  13.050
 7106SOL     OW22204   3.779   3.870  13.357
 7106SOL    HW122205   3.777   3.965  13.342
 7106SOL    HW222206   3.863   3.842  13.323
   4.00000   4.00000  13.90000
