2gCDOH_1PEG_l11
21933
    1LIG      O    1   2.212   2.276   0.025
    1LIG      C    2   2.294   2.293   0.148
    1LIG     C1    3   2.222   2.239   0.280
    1LIG     O1    4   2.282   2.290   0.405
    1LIG     C2    5   2.222   2.235   0.527
    1LIG     C3    6   2.295   2.281   0.660
    1LIG     O2    7   2.234   2.222   0.779
    1LIG     C4    8   2.289   2.274   0.905
    1LIG     C5    9   2.209   2.220   1.031
    1LIG     O3   10   2.269   2.270   1.155
    1LIG     C6   11   2.210   2.219   1.279
    1LIG     C7   12   2.286   2.279   1.404
    1LIG     O4   13   2.216   2.244   1.527
    1LIG     C8   14   2.293   2.275   1.647
    1LIG     C9   15   2.216   2.225   1.773
    1LIG     O5   16   2.281   2.273   1.894
    1LIG    C10   17   2.223   2.221   2.017
    1LIG    C11   18   2.299   2.275   2.142
    1LIG     O6   19   2.246   2.213   2.263
    1LIG    C12   20   2.294   2.280   2.384
    1LIG    C13   21   2.216   2.228   2.510
    1LIG     O7   22   2.285   2.270   2.630
    1LIG    C14   23   2.214   2.245   2.754
    1LIG    C15   24   2.296   2.301   2.877
    1LIG     O8   25   2.248   2.247   3.003
    1LIG    C16   26   2.307   2.302   3.123
    1LIG    C17   27   2.236   2.240   3.247
    1LIG     O9   28   2.282   2.302   3.370
    1LIG    C18   29   2.224   2.241   3.489
    1LIG    C19   30   2.298   2.289   3.618
    1LIG    O10   31   2.231   2.242   3.737
    1LIG    C20   32   2.295   2.288   3.859
    1LIG    C21   33   2.216   2.239   3.985
    1LIG    O11   34   2.275   2.291   4.108
    1LIG    C22   35   2.213   2.235   4.226
    1LIG    C23   36   2.291   2.279   4.355
    1LIG    O12   37   2.234   2.217   4.473
    1LIG    C24   38   2.289   2.272   4.596
    1LIG    C25   39   2.214   2.214   4.720
    1LIG    O13   40   2.267   2.272   4.844
    1LIG    C26   41   2.206   2.222   4.966
    1LIG    C27   42   2.281   2.278   5.092
    1LIG    O14   43   2.208   2.252   5.214
    1LIG    C28   44   2.285   2.292   5.332
    1LIG    C29   45   2.215   2.237   5.461
    1LIG    O15   46   2.275   2.294   5.581
    1LIG    C30   47   2.223   2.236   5.703
    1LIG    C31   48   2.302   2.287   5.828
    1LIG    O16   49   2.239   2.233   5.948
    1LIG    C32   50   2.293   2.280   6.073
    1LIG    C33   51   2.217   2.213   6.193
    1LIG    O17   52   2.272   2.262   6.319
    1LIG    C34   53   2.194   2.226   6.437
    1LIG    C35   54   2.263   2.289   6.563
    1LIG    O18   55   2.198   2.248   6.686
    1LIG    C36   56   2.265   2.297   6.805
    1LIG    C37   57   2.207   2.226   6.931
    1LIG    O19   58   2.256   2.290   7.051
    1LIG    C38   59   2.208   2.226   7.173
    1LIG    C39   60   2.289   2.278   7.296
    1LIG    O20   61   2.228   2.232   7.419
    1LIG    C40   62   2.295   2.282   7.538
    1LIG    C41   63   2.219   2.232   7.665
    1LIG    O21   64   2.286   2.272   7.787
    1LIG    C42   65   2.214   2.230   7.906
    1LIG    C43   66   2.287   2.281   8.034
    1LIG    O22   67   2.232   2.218   8.152
    1LIG    C44   68   2.286   2.276   8.274
    1LIG    C45   69   2.210   2.221   8.400
    1LIG    O23   70   2.268   2.276   8.521
    1LIG    C46   71   2.215   2.220   8.643
    1LIG    C47   72   2.290   2.280   8.767
    1LIG    O24   73   2.218   2.251   8.890
    1LIG    C48   74   2.295   2.282   9.010
    1LIG    C49   75   2.224   2.228   9.138
    1LIG    O25   76   2.293   2.273   9.257
    1LIG    C50   77   2.231   2.227   9.381
    1LIG    C51   78   2.308   2.279   9.508
    1LIG    O26   79   2.248   2.224   9.629
    1LIG    C52   80   2.293   2.288   9.752
    1LIG    C53   81   2.210   2.233   9.875
    1LIG    O27   82   2.271   2.269  10.002
    1LIG    C54   83   2.205   2.220  10.123
    1LIG    C55   84   2.279   2.274  10.253
    1LIG    O28   85   2.214   2.234  10.379
    1LIG    C56   86   2.276   2.289  10.501
    1LIG    C57   87   2.212   2.222  10.630
    1LIG    O29   88   2.261   2.277  10.757
    1LIG    C58   89   2.196   2.215  10.875
    1LIG    C59   90   2.283   2.217  11.009
    1LIG      H   91   2.315   2.400   0.161
    1LIG     H1   92   2.390   2.242   0.137
    1LIG     H2   93   2.229   2.130   0.280
    1LIG     H3   94   2.116   2.266   0.278
    1LIG     H4   95   2.226   2.126   0.522
    1LIG     H5   96   2.116   2.264   0.532
    1LIG     H6   97   2.290   2.391   0.668
    1LIG     H7   98   2.401   2.252   0.655
    1LIG     H8   99   2.283   2.384   0.905
    1LIG     H9  100   2.394   2.245   0.914
    1LIG    H10  101   2.211   2.111   1.031
    1LIG    H11  102   2.104   2.253   1.026
    1LIG    H12  103   2.218   2.110   1.281
    1LIG    H13  104   2.105   2.247   1.283
    1LIG    H14  105   2.291   2.388   1.395
    1LIG    H15  106   2.388   2.239   1.407
    1LIG    H16  107   2.307   2.383   1.654
    1LIG    H17  108   2.391   2.227   1.642
    1LIG    H18  109   2.214   2.116   1.773
    1LIG    H19  110   2.113   2.263   1.770
    1LIG    H20  111   2.225   2.111   2.016
    1LIG    H21  112   2.118   2.254   2.023
    1LIG    H22  113   2.286   2.384   2.147
    1LIG    H23  114   2.406   2.252   2.133
    1LIG    H24  115   2.280   2.388   2.375
    1LIG    H25  116   2.401   2.259   2.395
    1LIG    H26  117   2.212   2.118   2.508
    1LIG    H27  118   2.114   2.267   2.509
    1LIG    H28  119   2.199   2.137   2.765
    1LIG    H29  120   2.115   2.294   2.750
    1LIG    H30  121   2.290   2.410   2.878
    1LIG    H31  122   2.402   2.272   2.865
    1LIG    H32  123   2.294   2.411   3.124
    1LIG    H33  124   2.415   2.279   3.126
    1LIG    H34  125   2.253   2.132   3.250
    1LIG    H35  126   2.128   2.257   3.237
    1LIG    H36  127   2.231   2.131   3.482
    1LIG    H37  128   2.118   2.268   3.496
    1LIG    H38  129   2.301   2.398   3.619
    1LIG    H39  130   2.401   2.250   3.616
    1LIG    H40  131   2.300   2.397   3.859
    1LIG    H41  132   2.398   2.250   3.863
    1LIG    H42  133   2.220   2.129   3.988
    1LIG    H43  134   2.111   2.270   3.978
    1LIG    H44  135   2.215   2.126   4.219
    1LIG    H45  136   2.108   2.267   4.232
    1LIG    H46  137   2.285   2.388   4.365
    1LIG    H47  138   2.396   2.250   4.346
    1LIG    H48  139   2.278   2.382   4.595
    1LIG    H49  140   2.396   2.249   4.602
    1LIG    H50  141   2.225   2.105   4.723
    1LIG    H51  142   2.108   2.238   4.711
    1LIG    H52  143   2.210   2.112   4.968
    1LIG    H53  144   2.101   2.252   4.971
    1LIG    H54  145   2.296   2.387   5.081
    1LIG    H55  146   2.379   2.229   5.099
    1LIG    H56  147   2.292   2.401   5.337
    1LIG    H57  148   2.386   2.250   5.326
    1LIG    H58  149   2.224   2.128   5.463
    1LIG    H59  150   2.109   2.263   5.458
    1LIG    H60  151   2.231   2.128   5.697
    1LIG    H61  152   2.118   2.264   5.714
    1LIG    H62  153   2.298   2.397   5.832
    1LIG    H63  154   2.406   2.255   5.823
    1LIG    H64  155   2.281   2.389   6.079
    1LIG    H65  156   2.400   2.256   6.079
    1LIG    H66  157   2.228   2.104   6.189
    1LIG    H67  158   2.110   2.236   6.187
    1LIG    H68  159   2.191   2.117   6.447
    1LIG    H69  160   2.092   2.264   6.428
    1LIG    H70  161   2.260   2.399   6.555
    1LIG    H71  162   2.368   2.258   6.566
    1LIG    H72  163   2.251   2.405   6.813
    1LIG    H73  164   2.373   2.276   6.799
    1LIG    H74  165   2.235   2.120   6.930
    1LIG    H75  166   2.097   2.232   6.929
    1LIG    H76  167   2.220   2.117   7.165
    1LIG    H77  168   2.102   2.249   7.185
    1LIG    H78  169   2.290   2.387   7.296
    1LIG    H79  170   2.392   2.241   7.290
    1LIG    H80  171   2.296   2.392   7.537
    1LIG    H81  172   2.398   2.246   7.540
    1LIG    H82  173   2.215   2.123   7.663
    1LIG    H83  174   2.116   2.270   7.665
    1LIG    H84  175   2.209   2.121   7.907
    1LIG    H85  176   2.111   2.269   7.903
    1LIG    H86  177   2.276   2.390   8.040
    1LIG    H87  178   2.394   2.257   8.026
    1LIG    H88  179   2.275   2.385   8.271
    1LIG    H89  180   2.393   2.251   8.282
    1LIG    H90  181   2.218   2.111   8.402
    1LIG    H91  182   2.104   2.248   8.394
    1LIG    H92  183   2.226   2.111   8.643
    1LIG    H93  184   2.108   2.243   8.650
    1LIG    H94  185   2.297   2.389   8.755
    1LIG    H95  186   2.391   2.239   8.771
    1LIG    H96  187   2.307   2.390   9.017
    1LIG    H97  188   2.395   2.238   9.003
    1LIG    H98  189   2.222   2.118   9.135
    1LIG    H99  190   2.120   2.264   9.139
    1LIG   H100  191   2.228   2.118   9.381
    1LIG   H101  192   2.128   2.265   9.385
    1LIG   H102  193   2.302   2.389   9.510
    1LIG   H103  194   2.414   2.249   9.502
    1LIG   H104  195   2.282   2.397   9.745
    1LIG   H105  196   2.400   2.265   9.767
    1LIG   H106  197   2.207   2.124   9.866
    1LIG   H107  198   2.108   2.271   9.869
    1LIG   H108  199   2.207   2.110  10.124
    1LIG   H109  200   2.100   2.252  10.124
    1LIG   H110  201   2.281   2.384  10.248
    1LIG   H111  202   2.382   2.237  10.253
    1LIG   H112  203   2.260   2.398  10.503
    1LIG   H113  204   2.384   2.270  10.499
    1LIG   H114  205   2.233   2.114  10.627
    1LIG   H115  206   2.104   2.235  10.625
    1LIG   H116  207   2.175   2.110  10.852
    1LIG   H117  208   2.099   2.264  10.892
    1LIG   H118  209   2.378   2.269  10.992
    1LIG   H119  210   2.306   2.113  11.034
    2MOL     C1  211   1.575   2.448   5.022
    2MOL     H1  212   1.471   2.414   5.019
    2MOL     O1  213   1.604   2.511   5.149
    2MOL     C2  214   1.738   2.566   5.163
    2MOL     H2  215   1.812   2.485   5.156
    2MOL     C3  216   1.748   2.631   5.303
    2MOL     H3  217   1.853   2.652   5.327
    2MOL     H4  218   1.711   2.558   5.376
    2MOL     O2  219   1.670   2.751   5.312
    2MOL     H5  220   1.679   2.786   5.402
    2MOL     C4  221   1.593   2.552   4.907
    2MOL     H6  222   1.522   2.634   4.927
    2MOL     O3  223   1.565   2.496   4.779
    2MOL     H7  224   1.584   2.399   4.788
    2MOL     C5  225   1.734   2.612   4.911
    2MOL     H8  226   1.805   2.531   4.894
    2MOL     O4  227   1.752   2.712   4.809
    2MOL     H9  228   1.702   2.679   4.731
    2MOL     C6  229   1.762   2.669   5.050
    2MOL    H10  230   1.696   2.756   5.064
    2MOL     O5  231   1.901   2.709   5.051
    2MOL     C7  232   1.927   2.836   5.115
    2MOL    H11  233   1.835   2.879   5.156
    2MOL     O6  234   2.023   2.814   5.221
    2MOL     C8  235   2.150   2.758   5.179
    2MOL    H12  236   2.135   2.661   5.131
    2MOL     C9  237   2.238   2.737   5.306
    2MOL    H13  238   2.323   2.672   5.281
    2MOL    H14  239   2.178   2.685   5.381
    2MOL     O7  240   2.287   2.860   5.359
    2MOL    H15  241   2.372   2.878   5.314
    2MOL    C10  242   1.984   2.933   5.009
    2MOL    H16  243   1.996   3.032   5.056
    2MOL     O8  244   1.895   2.943   4.900
    2MOL    H17  245   1.854   2.853   4.888
    2MOL    C11  246   2.122   2.887   4.958
    2MOL    H18  247   2.108   2.793   4.903
    2MOL     O9  248   2.181   2.987   4.873
    2MOL    H19  249   2.113   3.019   4.811
    2MOL    C12  250   2.213   2.858   5.078
    2MOL    H20  251   2.229   2.953   5.131
    2MOL    O10  252   2.337   2.807   5.028
    2MOL    C13  253   2.448   2.898   5.044
    2MOL    H21  254   2.412   3.000   5.064
    2MOL    O11  255   2.527   2.851   5.155
    2MOL    C14  256   2.586   2.719   5.135
    2MOL    H22  257   2.506   2.647   5.111
    2MOL    C15  258   2.652   2.671   5.265
    2MOL    H23  259   2.659   2.562   5.263
    2MOL    H24  260   2.584   2.698   5.348
    2MOL    O12  261   2.783   2.725   5.288
    2MOL    H25  262   2.843   2.664   5.239
    2MOL    C16  263   2.532   2.902   4.913
    2MOL    H26  264   2.607   2.981   4.923
    2MOL    O13  265   2.449   2.926   4.800
    2MOL    H27  266   2.363   2.955   4.839
    2MOL    C17  267   2.601   2.767   4.890
    2MOL    H28  268   2.521   2.693   4.879
    2MOL    O14  269   2.681   2.772   4.771
    2MOL    H29  270   2.640   2.847   4.722
    2MOL    C18  271   2.682   2.729   5.014
    2MOL    H30  272   2.759   2.805   5.034
    2MOL    O15  273   2.740   2.601   4.986
    2MOL    C19  274   2.883   2.588   5.001
    2MOL    H31  275   2.933   2.686   5.006
    2MOL    O16  276   2.907   2.513   5.123
    2MOL    C20  277   2.848   2.379   5.125
    2MOL    H32  278   2.740   2.388   5.112
    2MOL    C21  279   2.869   2.311   5.264
    2MOL    H33  280   2.786   2.241   5.281
    2MOL    H34  281   2.865   2.387   5.342
    2MOL    O17  282   2.992   2.237   5.274
    2MOL    H35  283   2.974   2.152   5.228
    2MOL    C22  284   2.936   2.512   4.877
    2MOL    H36  285   3.046   2.504   4.884
    2MOL    O18  286   2.899   2.584   4.759
    2MOL    H37  287   2.823   2.639   4.788
    2MOL    C23  288   2.875   2.370   4.872
    2MOL    H38  289   2.767   2.381   4.866
    2MOL    O19  290   2.921   2.297   4.757
    2MOL    H39  291   2.916   2.359   4.682
    2MOL    C24  292   2.906   2.298   5.006
    2MOL    H40  293   3.015   2.290   5.017
    2MOL    O20  294   2.844   2.168   5.001
    2MOL    C25  295   2.931   2.053   5.013
    2MOL    H41  296   3.037   2.082   5.003
    2MOL    O21  297   2.907   1.991   5.142
    2MOL    C26  298   2.770   1.946   5.164
    2MOL    H42  299   2.702   2.032   5.157
    2MOL    C27  300   2.756   1.888   5.308
    2MOL    H43  301   2.650   1.889   5.335
    2MOL    H44  302   2.808   1.956   5.378
    2MOL    O22  303   2.807   1.755   5.324
    2MOL    H45  304   2.891   1.761   5.375
    2MOL    C28  305   2.898   1.954   4.898
    2MOL    H46  306   2.964   1.868   4.906
    2MOL    O23  307   2.915   2.019   4.773
    2MOL    H47  308   2.891   2.113   4.790
    2MOL    C29  309   2.752   1.904   4.912
    2MOL    H48  310   2.686   1.991   4.903
    2MOL    O24  311   2.718   1.806   4.812
    2MOL    H49  312   2.791   1.797   4.747
    2MOL    C30  313   2.734   1.844   5.052
    2MOL    H50  314   2.799   1.756   5.061
    2MOL    O25  315   2.595   1.806   5.062
    2MOL    C31  316   2.569   1.680   5.127
    2MOL    H51  317   2.660   1.640   5.173
    2MOL    O26  318   2.469   1.705   5.228
    2MOL    C32  319   2.343   1.755   5.178
    2MOL    H52  320   2.360   1.849   5.124
    2MOL    C33  321   2.251   1.786   5.299
    2MOL    H53  322   2.170   1.852   5.266
    2MOL    H54  323   2.308   1.840   5.375
    2MOL    O27  324   2.194   1.668   5.356
    2MOL    H55  325   2.098   1.687   5.365
    2MOL    C34  326   2.518   1.576   5.024
    2MOL    H56  327   2.506   1.480   5.077
    2MOL    O28  328   2.613   1.561   4.921
    2MOL    H57  329   2.641   1.653   4.896
    2MOL    C35  330   2.382   1.617   4.965
    2MOL    H58  331   2.397   1.710   4.907
    2MOL    O29  332   2.326   1.514   4.881
    2MOL    H59  333   2.359   1.528   4.787
    2MOL    C36  334   2.286   1.650   5.081
    2MOL    H60  335   2.267   1.558   5.138
    2MOL    O30  336   2.166   1.699   5.021
    2MOL    C37  337   2.059   1.603   5.015
    2MOL    H61  338   2.099   1.501   5.022
    2MOL    O31  339   1.969   1.631   5.125
    2MOL    C38  340   1.915   1.766   5.121
    2MOL    H62  341   1.995   1.841   5.116
    2MOL    C39  342   1.836   1.793   5.252
    2MOL    H63  343   1.751   1.725   5.254
    2MOL    H64  344   1.798   1.895   5.252
    2MOL    O32  345   1.920   1.771   5.367
    2MOL    H65  346   1.878   1.822   5.440
    2MOL    C40  347   1.986   1.616   4.879
    2MOL    H66  348   1.910   1.538   4.874
    2MOL    O33  349   2.079   1.599   4.773
    2MOL    H67  350   2.166   1.579   4.817
    2MOL    C41  351   1.917   1.754   4.868
    2MOL    H68  352   1.995   1.831   4.867
    2MOL    O34  353   1.839   1.764   4.747
    2MOL    H69  354   1.866   1.691   4.687
    2MOL    C42  355   1.829   1.776   4.993
    2MOL    H70  356   1.750   1.700   4.996
    2MOL    O35  357   1.774   1.909   4.982
    2MOL    C43  358   1.630   1.918   4.985
    2MOL    H71  359   1.584   1.818   4.980
    2MOL    O36  360   1.593   1.984   5.108
    2MOL    C44  361   1.647   2.118   5.125
    2MOL    H72  362   1.756   2.116   5.128
    2MOL    C45  363   1.591   2.176   5.258
    2MOL    H73  364   1.483   2.154   5.261
    2MOL    H74  365   1.603   2.284   5.257
    2MOL    O37  366   1.652   2.124   5.378
    2MOL    H75  367   1.603   2.043   5.404
    2MOL    C46  368   1.583   1.999   4.861
    2MOL    H76  369   1.473   2.002   4.862
    2MOL    O38  370   1.629   1.940   4.740
    2MOL    H77  371   1.708   1.883   4.765
    2MOL    C47  372   1.635   2.144   4.868
    2MOL    H78  373   1.744   2.142   4.858
    2MOL    O39  374   1.577   2.222   4.762
    2MOL    H79  375   1.598   2.178   4.677
    2MOL    C48  376   1.600   2.206   5.004
    2MOL    H80  377   1.491   2.215   5.010
    2MOL    O40  378   1.664   2.336   5.007
    3MOL     C1  379   1.569   2.447   6.030
    3MOL     H1  380   1.463   2.417   6.029
    3MOL     O1  381   1.600   2.509   6.157
    3MOL     C2  382   1.737   2.555   6.170
    3MOL     H2  383   1.804   2.470   6.156
    3MOL     C3  384   1.757   2.611   6.314
    3MOL     H3  385   1.862   2.639   6.328
    3MOL     H4  386   1.734   2.532   6.387
    3MOL     O2  387   1.675   2.725   6.338
    3MOL     H5  388   1.728   2.785   6.396
    3MOL     C4  389   1.595   2.548   5.915
    3MOL     H6  390   1.526   2.632   5.928
    3MOL     O3  391   1.576   2.487   5.788
    3MOL     H7  392   1.607   2.394   5.799
    3MOL     C5  393   1.739   2.601   5.920
    3MOL     H8  394   1.807   2.516   5.907
    3MOL     O4  395   1.762   2.698   5.815
    3MOL     H9  396   1.680   2.700   5.761
    3MOL     C6  397   1.764   2.661   6.059
    3MOL    H10  398   1.697   2.746   6.074
    3MOL     O5  399   1.903   2.702   6.061
    3MOL     C7  400   1.930   2.835   6.109
    3MOL    H11  401   1.840   2.880   6.153
    3MOL     O6  402   2.030   2.823   6.212
    3MOL     C8  403   2.158   2.770   6.166
    3MOL    H12  404   2.143   2.675   6.114
    3MOL     C9  405   2.248   2.741   6.288
    3MOL    H13  406   2.317   2.660   6.264
    3MOL    H14  407   2.181   2.706   6.366
    3MOL     O7  408   2.323   2.855   6.333
    3MOL    H15  409   2.401   2.861   6.274
    3MOL    C10  410   1.982   2.925   5.993
    3MOL    H16  411   1.996   3.027   6.031
    3MOL     O8  412   1.886   2.929   5.887
    3MOL    H17  413   1.864   2.834   5.869
    3MOL    C11  414   2.119   2.874   5.941
    3MOL    H18  415   2.106   2.772   5.903
    3MOL     O9  416   2.175   2.957   5.838
    3MOL    H19  417   2.104   3.013   5.801
    3MOL    C12  418   2.214   2.870   6.063
    3MOL    H20  419   2.221   2.969   6.109
    3MOL    O10  420   2.343   2.824   6.019
    3MOL    C13  421   2.454   2.911   6.050
    3MOL    H21  422   2.420   3.011   6.078
    3MOL    O11  423   2.530   2.850   6.157
    3MOL    C14  424   2.581   2.717   6.128
    3MOL    H22  425   2.498   2.649   6.105
    3MOL    C15  426   2.652   2.659   6.255
    3MOL    H23  427   2.648   2.550   6.249
    3MOL    H24  428   2.596   2.691   6.344
    3MOL    O12  429   2.788   2.699   6.265
    3MOL    H25  430   2.838   2.629   6.216
    3MOL    C16  431   2.540   2.923   5.923
    3MOL    H26  432   2.624   2.991   5.944
    3MOL    O13  433   2.461   2.975   5.818
    3MOL    H27  434   2.369   2.944   5.836
    3MOL    C17  435   2.597   2.785   5.883
    3MOL    H28  436   2.512   2.717   5.862
    3MOL    O14  437   2.679   2.798   5.766
    3MOL    H29  438   2.639   2.873   5.716
    3MOL    C18  439   2.675   2.728   6.004
    3MOL    H30  440   2.756   2.797   6.028
    3MOL    O15  441   2.727   2.597   5.969
    3MOL    C19  442   2.868   2.578   5.994
    3MOL    H31  443   2.919   2.675   6.003
    3MOL    O16  444   2.884   2.501   6.115
    3MOL    C20  445   2.826   2.368   6.113
    3MOL    H32  446   2.719   2.376   6.092
    3MOL    C21  447   2.838   2.301   6.255
    3MOL    H33  448   2.752   2.236   6.270
    3MOL    H34  449   2.834   2.380   6.331
    3MOL    O17  450   2.957   2.223   6.273
    3MOL    H35  451   2.951   2.147   6.211
    3MOL    C22  452   2.930   2.503   5.874
    3MOL    H36  453   3.038   2.494   5.890
    3MOL    O18  454   2.903   2.575   5.756
    3MOL    H37  455   2.822   2.627   5.776
    3MOL    C23  456   2.870   2.361   5.863
    3MOL    H38  457   2.761   2.371   5.849
    3MOL    O19  458   2.927   2.290   5.752
    3MOL    H39  459   2.933   2.358   5.680
    3MOL    C24  460   2.895   2.290   5.998
    3MOL    H40  461   3.003   2.286   6.017
    3MOL    O20  462   2.839   2.159   5.989
    3MOL    C25  463   2.931   2.049   6.003
    3MOL    H41  464   3.036   2.082   5.993
    3MOL    O21  465   2.908   1.991   6.134
    3MOL    C26  466   2.773   1.943   6.159
    3MOL    H42  467   2.702   2.027   6.156
    3MOL    C27  468   2.769   1.881   6.301
    3MOL    H43  469   2.666   1.851   6.324
    3MOL    H44  470   2.797   1.958   6.374
    3MOL    O22  471   2.857   1.768   6.312
    3MOL    H45  472   2.843   1.725   6.398
    3MOL    C28  473   2.900   1.946   5.893
    3MOL    H46  474   2.966   1.860   5.906
    3MOL    O23  475   2.919   2.004   5.764
    3MOL    H47  476   2.914   2.102   5.778
    3MOL    C29  477   2.753   1.900   5.907
    3MOL    H48  478   2.688   1.989   5.899
    3MOL    O24  479   2.718   1.807   5.802
    3MOL    H49  480   2.784   1.821   5.731
    3MOL    C30  481   2.734   1.841   6.048
    3MOL    H50  482   2.798   1.752   6.057
    3MOL    O25  483   2.596   1.807   6.063
    3MOL    C31  484   2.569   1.680   6.127
    3MOL    H51  485   2.659   1.640   6.176
    3MOL    O26  486   2.467   1.699   6.227
    3MOL    C32  487   2.341   1.750   6.177
    3MOL    H52  488   2.358   1.846   6.126
    3MOL    C33  489   2.245   1.778   6.297
    3MOL    H53  490   2.167   1.847   6.265
    3MOL    H54  491   2.302   1.827   6.377
    3MOL    O27  492   2.185   1.658   6.346
    3MOL    H55  493   2.091   1.662   6.320
    3MOL    C34  494   2.522   1.581   6.018
    3MOL    H56  495   2.510   1.481   6.064
    3MOL    O28  496   2.621   1.575   5.917
    3MOL    H57  497   2.631   1.669   5.884
    3MOL    C35  498   2.385   1.624   5.959
    3MOL    H58  499   2.400   1.720   5.909
    3MOL    O29  500   2.335   1.526   5.865
    3MOL    H59  501   2.412   1.486   5.819
    3MOL    C36  502   2.286   1.647   6.076
    3MOL    H60  503   2.271   1.552   6.129
    3MOL    O30  504   2.163   1.695   6.019
    3MOL    C37  505   2.054   1.601   6.026
    3MOL    H61  506   2.091   1.498   6.039
    3MOL    O31  507   1.969   1.637   6.138
    3MOL    C38  508   1.905   1.768   6.128
    3MOL    H62  509   1.980   1.847   6.118
    3MOL    C39  510   1.823   1.795   6.257
    3MOL    H63  511   1.749   1.715   6.270
    3MOL    H64  512   1.768   1.889   6.246
    3MOL    O32  513   1.908   1.802   6.372
    3MOL    H65  514   1.900   1.712   6.412
    3MOL    C40  515   1.975   1.605   5.893
    3MOL    H66  516   1.901   1.525   5.895
    3MOL    O33  517   2.065   1.587   5.782
    3MOL    H67  518   2.154   1.569   5.821
    3MOL    C41  519   1.902   1.740   5.877
    3MOL    H68  520   1.978   1.818   5.873
    3MOL    O34  521   1.826   1.739   5.756
    3MOL    H69  522   1.882   1.684   5.697
    3MOL    C42  523   1.816   1.768   6.002
    3MOL    H70  524   1.737   1.692   6.011
    3MOL    O35  525   1.762   1.901   5.986
    3MOL    C43  526   1.620   1.914   5.982
    3MOL    H71  527   1.572   1.816   5.974
    3MOL    O36  528   1.577   1.981   6.104
    3MOL    C44  529   1.634   2.114   6.125
    3MOL    H72  530   1.744   2.109   6.129
    3MOL    C45  531   1.582   2.169   6.262
    3MOL    H73  532   1.473   2.160   6.263
    3MOL    H74  533   1.607   2.276   6.270
    3MOL    O37  534   1.636   2.100   6.376
    3MOL    H75  535   1.582   2.129   6.451
    3MOL    C46  536   1.582   1.999   5.859
    3MOL    H76  537   1.473   2.006   5.858
    3MOL    O38  538   1.630   1.942   5.737
    3MOL    H77  539   1.701   1.877   5.761
    3MOL    C47  540   1.636   2.142   5.871
    3MOL    H78  541   1.745   2.138   5.870
    3MOL    O39  542   1.588   2.217   5.760
    3MOL    H79  543   1.574   2.147   5.692
    3MOL    C48  544   1.591   2.204   6.005
    3MOL    H80  545   1.482   2.214   6.005
    3MOL    O40  546   1.656   2.333   6.014
    4SOL     OW  547   0.242   0.599   0.110
    4SOL    HW1  548   0.168   0.593   0.169
    4SOL    HW2  549   0.206   0.637   0.030
    5SOL     OW  550   0.194   0.293   0.989
    5SOL    HW1  551   0.230   0.269   1.075
    5SOL    HW2  552   0.130   0.226   0.971
    6SOL     OW  553   0.003   0.381   0.640
    6SOL    HW1  554   4.427   0.419   0.684
    6SOL    HW2  555   4.467   0.309   0.588
    7SOL     OW  556   0.567   1.287   1.175
    7SOL    HW1  557   0.480   1.292   1.136
    7SOL    HW2  558   0.583   1.374   1.210
    8SOL     OW  559   1.560   1.512   0.707
    8SOL    HW1  560   1.517   1.492   0.790
    8SOL    HW2  561   1.489   1.516   0.643
    9SOL     OW  562   1.134   0.699   0.698
    9SOL    HW1  563   1.181   0.782   0.689
    9SOL    HW2  564   1.084   0.709   0.779
   10SOL     OW  565   1.776   0.602   0.217
   10SOL    HW1  566   1.721   0.607   0.139
   10SOL    HW2  567   1.737   0.532   0.270
   11SOL     OW  568   0.755   1.142   1.040
   11SOL    HW1  569   0.686   1.177   1.097
   11SOL    HW2  570   0.791   1.219   0.996
   12SOL     OW  571   0.865   0.774   1.821
   12SOL    HW1  572   0.852   0.844   1.884
   12SOL    HW2  573   0.889   0.819   1.739
   13SOL     OW  574   0.685   1.004   0.647
   13SOL    HW1  575   0.751   0.991   0.716
   13SOL    HW2  576   0.616   1.055   0.690
   14SOL     OW  577   0.710   1.150   1.812
   14SOL    HW1  578   0.758   1.229   1.839
   14SOL    HW2  579   0.628   1.182   1.776
   15SOL     OW  580   0.335   1.421   1.069
   15SOL    HW1  581   0.254   1.403   1.023
   15SOL    HW2  582   0.386   1.475   1.009
   16SOL     OW  583   1.461   1.499   1.353
   16SOL    HW1  584   1.511   1.580   1.362
   16SOL    HW2  585   1.400   1.501   1.427
   17SOL     OW  586   0.439   0.395   1.490
   17SOL    HW1  587   0.528   0.360   1.491
   17SOL    HW2  588   0.383   0.320   1.512
   18SOL     OW  589   1.611   0.447   0.739
   18SOL    HW1  590   1.529   0.466   0.693
   18SOL    HW2  591   1.628   0.525   0.791
   19SOL     OW  592   0.245   1.691   0.482
   19SOL    HW1  593   0.232   1.778   0.521
   19SOL    HW2  594   0.306   1.706   0.410
   20SOL     OW  595   1.136   1.341   1.692
   20SOL    HW1  596   1.176   1.337   1.779
   20SOL    HW2  597   1.084   1.261   1.686
   21SOL     OW  598   0.244   1.427   0.528
   21SOL    HW1  599   0.240   1.522   0.528
   21SOL    HW2  600   0.179   1.399   0.593
   22SOL     OW  601   0.246   1.082   0.883
   22SOL    HW1  602   0.264   0.993   0.912
   22SOL    HW2  603   0.187   1.118   0.949
   23SOL     OW  604   0.613   1.791   1.431
   23SOL    HW1  605   0.530   1.773   1.475
   23SOL    HW2  606   0.634   1.881   1.455
   24SOL     OW  607   0.572   0.995   0.148
   24SOL    HW1  608   0.620   1.034   0.075
   24SOL    HW2  609   0.621   1.020   0.226
   25SOL     OW  610   1.582   0.116   1.471
   25SOL    HW1  611   1.603   0.185   1.408
   25SOL    HW2  612   1.572   0.162   1.554
   26SOL     OW  613   0.136   0.644   0.574
   26SOL    HW1  614   0.084   0.566   0.593
   26SOL    HW2  615   0.110   0.707   0.641
   27SOL     OW  616   1.841   1.761   0.332
   27SOL    HW1  617   1.903   1.730   0.398
   27SOL    HW2  618   1.868   1.852   0.314
   28SOL     OW  619   0.073   1.591   0.150
   28SOL    HW1  620   0.038   1.502   0.157
   28SOL    HW2  621   0.025   1.640   0.217
   29SOL     OW  622   1.690   0.919   0.641
   29SOL    HW1  623   1.774   0.878   0.619
   29SOL    HW2  624   1.667   0.971   0.563
   30SOL     OW  625   1.646   1.105   0.432
   30SOL    HW1  626   1.729   1.117   0.384
   30SOL    HW2  627   1.651   1.168   0.504
   31SOL     OW  628   0.105   0.764   1.582
   31SOL    HW1  629   0.197   0.761   1.553
   31SOL    HW2  630   0.090   0.857   1.602
   32SOL     OW  631   0.614   1.385   0.736
   32SOL    HW1  632   0.567   1.302   0.746
   32SOL    HW2  633   0.597   1.412   0.646
   33SOL     OW  634   1.289   1.238   1.424
   33SOL    HW1  635   1.321   1.171   1.364
   33SOL    HW2  636   1.346   1.232   1.500
   34SOL     OW  637   0.821   0.011   0.552
   34SOL    HW1  638   0.859   0.089   0.512
   34SOL    HW2  639   0.727   0.021   0.542
   35SOL     OW  640   0.179   0.941   1.279
   35SOL    HW1  641   0.271   0.924   1.259
   35SOL    HW2  642   0.133   0.927   1.197
   36SOL     OW  643   1.518   1.000   0.203
   36SOL    HW1  644   1.453   0.940   0.239
   36SOL    HW2  645   1.567   1.031   0.279
   37SOL     OW  646   1.185   1.806   1.622
   37SOL    HW1  647   1.198   1.864   1.547
   37SOL    HW2  648   1.201   1.718   1.587
   38SOL     OW  649   0.318   0.260   1.769
   38SOL    HW1  650   0.386   0.311   1.813
   38SOL    HW2  651   0.241   0.267   1.826
   39SOL     OW  652   1.466   1.419   0.952
   39SOL    HW1  653   1.398   1.434   1.017
   39SOL    HW2  654   1.454   1.328   0.925
   40SOL     OW  655   1.661   1.738   0.578
   40SOL    HW1  656   1.638   1.709   0.489
   40SOL    HW2  657   1.634   1.665   0.634
   41SOL     OW  658   0.594   0.719   0.263
   41SOL    HW1  659   0.599   0.801   0.214
   41SOL    HW2  660   0.532   0.737   0.334
   42SOL     OW  661   1.289   0.362   0.934
   42SOL    HW1  662   1.199   0.331   0.923
   42SOL    HW2  663   1.328   0.300   0.995
   43SOL     OW  664   1.582   1.670   0.312
   43SOL    HW1  665   1.672   1.702   0.304
   43SOL    HW2  666   1.555   1.652   0.222
   44SOL     OW  667   0.797   0.618   1.454
   44SOL    HW1  668   0.769   0.593   1.542
   44SOL    HW2  669   0.754   0.555   1.396
   45SOL     OW  670   1.388   0.479   1.676
   45SOL    HW1  671   1.392   0.523   1.761
   45SOL    HW2  672   1.455   0.411   1.682
   46SOL     OW  673   0.955   0.888   1.582
   46SOL    HW1  674   1.009   0.817   1.547
   46SOL    HW2  675   0.908   0.922   1.506
   47SOL     OW  676   0.997   0.417   1.236
   47SOL    HW1  677   0.911   0.427   1.276
   47SOL    HW2  678   0.981   0.367   1.156
   48SOL     OW  679   1.049   0.701   0.428
   48SOL    HW1  680   1.067   0.692   0.521
   48SOL    HW2  681   0.967   0.654   0.414
   49SOL     OW  682   0.098   0.823   0.784
   49SOL    HW1  683   0.185   0.810   0.824
   49SOL    HW2  684   0.044   0.857   0.855
   50SOL     OW  685   0.122   1.858   1.577
   50SOL    HW1  686   0.117   1.833   1.669
   50SOL    HW2  687   0.046   1.817   1.536
   51SOL     OW  688   0.879   0.361   0.203
   51SOL    HW1  689   0.931   0.414   0.143
   51SOL    HW2  690   0.906   0.271   0.185
   52SOL     OW  691   1.704   0.573   1.828
   52SOL    HW1  692   1.668   0.648   1.781
   52SOL    HW2  693   1.740   0.517   1.760
   53SOL     OW  694   1.377   1.142   0.541
   53SOL    HW1  695   1.455   1.129   0.487
   53SOL    HW2  696   1.324   1.204   0.492
   54SOL     OW  697   0.541   0.204   0.900
   54SOL    HW1  698   0.562   0.223   0.991
   54SOL    HW2  699   0.536   0.291   0.858
   55SOL     OW  700   1.005   1.444   0.474
   55SOL    HW1  701   0.968   1.517   0.424
   55SOL    HW2  702   0.987   1.465   0.565
   56SOL     OW  703   0.355   1.810   0.859
   56SOL    HW1  704   0.398   1.725   0.868
   56SOL    HW2  705   0.426   1.874   0.874
   57SOL     OW  706   1.799   1.057   0.868
   57SOL    HW1  707   1.744   1.040   0.792
   57SOL    HW2  708   1.738   1.063   0.941
   58SOL     OW  709   1.228   1.539   1.513
   58SOL    HW1  710   1.214   1.466   1.573
   58SOL    HW2  711   1.165   1.524   1.442
   59SOL     OW  712   0.313   0.955   0.278
   59SOL    HW1  713   0.396   0.983   0.240
   59SOL    HW2  714   0.308   0.862   0.260
   60SOL     OW  715   1.480   0.740   0.723
   60SOL    HW1  716   1.467   0.698   0.808
   60SOL    HW2  717   1.555   0.798   0.736
   61SOL     OW  718   0.467   1.262   1.735
   61SOL    HW1  719   0.440   1.269   1.644
   61SOL    HW2  720   0.386   1.267   1.785
   62SOL     OW  721   1.108   1.779   0.227
   62SOL    HW1  722   1.048   1.728   0.281
   62SOL    HW2  723   1.149   1.715   0.169
   63SOL     OW  724   0.163   0.265   1.510
   63SOL    HW1  725   0.135   0.353   1.482
   63SOL    HW2  726   0.197   0.278   1.598
   64SOL     OW  727   1.628   1.374   0.089
   64SOL    HW1  728   1.585   1.459   0.077
   64SOL    HW2  729   1.563   1.311   0.061
   65SOL     OW  730   0.469   1.741   0.318
   65SOL    HW1  731   0.507   1.798   0.384
   65SOL    HW2  732   0.543   1.713   0.264
   66SOL     OW  733   1.419   0.136   0.425
   66SOL    HW1  734   1.398   0.100   0.338
   66SOL    HW2  735   1.515   0.134   0.428
   67SOL     OW  736   0.256   1.789   1.234
   67SOL    HW1  737   0.304   1.714   1.270
   67SOL    HW2  738   0.226   1.759   1.148
   68SOL     OW  739   0.938   1.699   0.899
   68SOL    HW1  740   1.015   1.647   0.921
   68SOL    HW2  741   0.894   1.649   0.830
   69SOL     OW  742   0.393   0.693   0.470
   69SOL    HW1  743   0.419   0.602   0.484
   69SOL    HW2  744   0.302   0.697   0.500
   70SOL     OW  745   1.525   0.233   1.723
   70SOL    HW1  746   1.525   0.255   1.816
   70SOL    HW2  747   1.448   0.178   1.711
   71SOL     OW  748   0.601   0.104   0.120
   71SOL    HW1  749   0.694   0.082   0.119
   71SOL    HW2  750   0.568   0.072   0.037
   72SOL     OW  751   0.768   0.270   1.754
   72SOL    HW1  752   0.835   0.202   1.762
   72SOL    HW2  753   0.728   0.275   1.841
   73SOL     OW  754   0.877   1.522   1.193
   73SOL    HW1  755   0.861   1.486   1.106
   73SOL    HW2  756   0.946   1.467   1.230
   74SOL     OW  757   1.341   0.589   1.429
   74SOL    HW1  758   1.369   0.560   1.516
   74SOL    HW2  759   1.376   0.678   1.421
   75SOL     OW  760   0.815   1.395   0.939
   75SOL    HW1  761   0.899   1.384   0.895
   75SOL    HW2  762   0.750   1.396   0.869
   76SOL     OW  763   0.924   0.517   0.900
   76SOL    HW1  764   0.907   0.517   0.806
   76SOL    HW2  765   0.962   0.430   0.917
   77SOL     OW  766   0.562   0.068   0.512
   77SOL    HW1  767   0.474   0.056   0.549
   77SOL    HW2  768   0.551   0.137   0.447
   78SOL     OW  769   1.425   1.196   0.030
   78SOL    HW1  770   1.457   1.124   0.085
   78SOL    HW2  771   1.342   1.222   0.070
   79SOL     OW  772   0.297   0.055   0.191
   79SOL    HW1  773   0.376   0.090   0.150
   79SOL    HW2  774   0.329   4.500   0.263
   80SOL     OW  775   0.951   0.227   0.445
   80SOL    HW1  776   0.905   0.290   0.391
   80SOL    HW2  777   1.040   0.261   0.452
   81SOL     OW  778   1.080   0.681   1.461
   81SOL    HW1  779   1.010   0.616   1.461
   81SOL    HW2  780   1.160   0.629   1.449
   82SOL     OW  781   1.224   1.569   0.794
   82SOL    HW1  782   1.240   1.636   0.727
   82SOL    HW2  783   1.292   1.584   0.860
   83SOL     OW  784   0.468   1.149   0.739
   83SOL    HW1  785   0.397   1.130   0.800
   83SOL    HW2  786   0.429   1.136   0.652
   84SOL     OW  787   1.269   1.794   0.606
   84SOL    HW1  788   1.315   1.856   0.550
   84SOL    HW2  789   1.204   1.847   0.651
   85SOL     OW  790   1.020   0.532   0.036
   85SOL    HW1  791   0.983   0.617   0.013
   85SOL    HW2  792   1.094   0.552   0.094
   86SOL     OW  793   0.093   0.518   1.413
   86SOL    HW1  794   0.152   0.526   1.338
   86SOL    HW2  795   0.060   0.606   1.427
   87SOL     OW  796   0.562   0.244   1.166
   87SOL    HW1  797   0.592   0.161   1.202
   87SOL    HW2  798   0.468   0.245   1.185
   88SOL     OW  799   0.861   0.510   0.629
   88SOL    HW1  800   0.821   0.544   0.549
   88SOL    HW2  801   0.834   0.418   0.632
   89SOL     OW  802   0.960   0.031   0.784
   89SOL    HW1  803   0.913   0.026   0.701
   89SOL    HW2  804   0.982   4.440   0.804
   90SOL     OW  805   1.437   1.162   0.857
   90SOL    HW1  806   1.368   1.096   0.856
   90SOL    HW2  807   1.461   1.174   0.765
   91SOL     OW  808   1.466   0.605   0.975
   91SOL    HW1  809   1.412   0.525   0.977
   91SOL    HW2  810   1.524   0.597   1.051
   92SOL     OW  811   1.850   0.814   0.378
   92SOL    HW1  812   1.902   0.763   0.440
   92SOL    HW2  813   1.821   0.750   0.313
   93SOL     OW  814   0.494   1.423   0.174
   93SOL    HW1  815   0.415   1.397   0.221
   93SOL    HW2  816   0.490   1.373   0.092
   94SOL     OW  817   1.670   1.265   0.647
   94SOL    HW1  818   1.765   1.269   0.660
   94SOL    HW2  819   1.639   1.353   0.668
   95SOL     OW  820   1.391   0.574   0.077
   95SOL    HW1  821   1.328   0.556   0.147
   95SOL    HW2  822   1.460   0.509   0.089
   96SOL     OW  823   0.524   0.262   0.325
   96SOL    HW1  824   0.557   0.204   0.256
   96SOL    HW2  825   0.510   0.346   0.281
   97SOL     OW  826   1.753   1.238   1.574
   97SOL    HW1  827   1.841   1.200   1.569
   97SOL    HW2  828   1.768   1.329   1.601
   98SOL     OW  829   1.059   1.353   1.334
   98SOL    HW1  830   0.984   1.323   1.385
   98SOL    HW2  831   1.135   1.312   1.375
   99SOL     OW  832   1.608   1.624   1.653
   99SOL    HW1  833   1.603   1.661   1.565
   99SOL    HW2  834   1.692   1.578   1.655
  100SOL     OW  835   1.128   1.203   1.106
  100SOL    HW1  836   1.069   1.241   1.171
  100SOL    HW2  837   1.096   1.235   1.022
  101SOL     OW  838   1.629   1.098   1.077
  101SOL    HW1  839   1.624   1.161   1.150
  101SOL    HW2  840   1.550   1.115   1.026
  102SOL     OW  841   0.901   0.134   1.387
  102SOL    HW1  842   0.924   0.088   1.306
  102SOL    HW2  843   0.986   0.148   1.431
  103SOL     OW  844   0.984   1.114   1.723
  103SOL    HW1  845   0.892   1.131   1.744
  103SOL    HW2  846   0.983   1.037   1.667
  104SOL     OW  847   0.710   1.059   0.374
  104SOL    HW1  848   0.697   1.044   0.468
  104SOL    HW2  849   0.786   1.005   0.351
  105SOL     OW  850   0.430   0.826   1.241
  105SOL    HW1  851   0.499   0.836   1.307
  105SOL    HW2  852   0.371   0.760   1.278
  106SOL     OW  853   1.269   0.375   1.274
  106SOL    HW1  854   1.301   0.454   1.318
  106SOL    HW2  855   1.180   0.398   1.247
  107SOL     OW  856   0.062   1.576   1.344
  107SOL    HW1  857   0.036   1.665   1.319
  107SOL    HW2  858   0.158   1.580   1.348
  108SOL     OW  859   0.347   1.117   0.499
  108SOL    HW1  860   0.351   1.191   0.439
  108SOL    HW2  861   0.341   1.040   0.443
  109SOL     OW  862   0.563   0.526   0.853
  109SOL    HW1  863   0.575   0.587   0.780
  109SOL    HW2  864   0.624   0.557   0.920
  110SOL     OW  865   1.247   1.346   0.395
  110SOL    HW1  866   1.303   1.419   0.422
  110SOL    HW2  867   1.160   1.369   0.426
  111SOL     OW  868   1.280   1.457   1.147
  111SOL    HW1  869   1.336   1.460   1.224
  111SOL    HW2  870   1.225   1.380   1.160
  112SOL     OW  871   1.585   0.627   0.475
  112SOL    HW1  872   1.535   0.669   0.545
  112SOL    HW2  873   1.620   0.700   0.424
  113SOL     OW  874   0.347   1.531   1.315
  113SOL    HW1  875   0.333   1.484   1.233
  113SOL    HW2  876   0.442   1.541   1.321
  114SOL     OW  877   0.484   0.759   1.669
  114SOL    HW1  878   0.509   0.797   1.586
  114SOL    HW2  879   0.529   0.674   1.672
  115SOL     OW  880   1.601   0.778   1.681
  115SOL    HW1  881   1.515   0.820   1.674
  115SOL    HW2  882   1.653   0.820   1.613
  116SOL     OW  883   1.004   0.086   1.720
  116SOL    HW1  884   1.035   0.168   1.682
  116SOL    HW2  885   1.029   0.019   1.655
  117SOL     OW  886   0.495   0.044   1.751
  117SOL    HW1  887   0.480   4.497   1.669
  117SOL    HW2  888   0.429   0.113   1.752
  118SOL     OW  889   0.589   0.874   1.023
  118SOL    HW1  890   0.620   0.965   1.026
  118SOL    HW2  891   0.533   0.866   1.101
  119SOL     OW  892   1.358   0.858   1.030
  119SOL    HW1  893   1.275   0.850   0.984
  119SOL    HW2  894   1.398   0.771   1.024
  120SOL     OW  895   1.200   0.532   0.266
  120SOL    HW1  896   1.209   0.453   0.320
  120SOL    HW2  897   1.158   0.596   0.323
  121SOL     OW  898   0.284   0.216   1.234
  121SOL    HW1  899   0.246   0.233   1.320
  121SOL    HW2  900   0.325   0.130   1.243
  122SOL     OW  901   0.039   1.313   1.286
  122SOL    HW1  902   0.076   1.265   1.360
  122SOL    HW2  903   0.045   1.405   1.311
  123SOL     OW  904   0.724   0.631   1.057
  123SOL    HW1  905   0.798   0.611   1.001
  123SOL    HW2  906   0.698   0.720   1.033
  124SOL     OW  907   1.734   0.959   1.852
  124SOL    HW1  908   1.687   0.900   1.794
  124SOL    HW2  909   1.675   0.972   1.926
  125SOL     OW  910   0.317   0.073   0.629
  125SOL    HW1  911   0.302   0.162   0.662
  125SOL    HW2  912   0.307   0.017   0.705
  126SOL     OW  913   1.618   0.377   0.363
  126SOL    HW1  914   1.645   0.312   0.428
  126SOL    HW2  915   1.593   0.454   0.415
  127SOL     OW  916   1.029   0.761   0.961
  127SOL    HW1  917   1.025   0.777   1.055
  127SOL    HW2  918   1.000   0.670   0.951
  128SOL     OW  919   0.983   1.566   1.717
  128SOL    HW1  920   0.967   1.610   1.633
  128SOL    HW2  921   1.025   1.484   1.693
  129SOL     OW  922   1.856   1.504   1.605
  129SOL    HW1  923   1.870   1.534   1.515
  129SOL    HW2  924   1.937   1.528   1.650
  130SOL     OW  925   0.347   0.933   1.818
  130SOL    HW1  926   0.419   0.963   1.873
  130SOL    HW2  927   0.386   0.866   1.762
  131SOL     OW  928   1.534   0.295   0.111
  131SOL    HW1  929   1.475   0.221   0.125
  131SOL    HW2  930   1.567   0.318   0.198
  132SOL     OW  931   1.287   0.822   0.032
  132SOL    HW1  932   1.331   0.738   0.042
  132SOL    HW2  933   1.321   0.857  11.050
  133SOL     OW  934   1.066   1.335   0.853
  133SOL    HW1  935   1.069   1.263   0.791
  133SOL    HW2  936   1.127   1.400   0.819
  134SOL     OW  937   0.318   0.813   0.947
  134SOL    HW1  938   0.413   0.830   0.945
  134SOL    HW2  939   0.312   0.722   0.977
  135SOL     OW  940   0.335   0.530   0.990
  135SOL    HW1  941   0.291   0.447   0.971
  135SOL    HW2  942   0.413   0.529   0.934
  136SOL     OW  943   1.135   0.374   1.696
  136SOL    HW1  944   1.086   0.438   1.747
  136SOL    HW2  945   1.221   0.414   1.683
  137SOL     OW  946   1.157   0.213   1.473
  137SOL    HW1  947   1.151   0.277   1.544
  137SOL    HW2  948   1.197   0.261   1.401
  138SOL     OW  949   4.496   1.324   0.201
  138SOL    HW1  950   4.403   1.343   0.193
  138SOL    HW2  951   0.000   1.232   0.228
  139SOL     OW  952   0.097   1.776   0.940
  139SOL    HW1  953   0.058   1.724   0.869
  139SOL    HW2  954   0.185   1.797   0.909
  140SOL     OW  955   0.497   1.573   0.907
  140SOL    HW1  956   0.565   1.637   0.931
  140SOL    HW2  957   0.541   1.511   0.850
  141SOL     OW  958   0.985   0.793   1.227
  141SOL    HW1  959   1.040   0.770   1.302
  141SOL    HW2  960   0.899   0.755   1.248
  142SOL     OW  961   0.036   0.566   1.109
  142SOL    HW1  962   0.114   0.526   1.070
  142SOL    HW2  963   0.016   0.511   1.185
  143SOL     OW  964   0.179   0.524   1.712
  143SOL    HW1  965   0.267   0.506   1.677
  143SOL    HW2  966   0.151   0.604   1.668
  144SOL     OW  967   1.377   0.939   1.659
  144SOL    HW1  968   1.398   1.032   1.657
  144SOL    HW2  969   1.374   0.914   1.566
  145SOL     OW  970   0.811   0.576   0.360
  145SOL    HW1  971   0.820   0.501   0.302
  145SOL    HW2  972   0.738   0.626   0.324
  146SOL     OW  973   1.640   0.601   1.186
  146SOL    HW1  974   1.630   0.542   1.261
  146SOL    HW2  975   1.728   0.582   1.152
  147SOL     OW  976   0.272   1.562   1.740
  147SOL    HW1  977   0.216   1.614   1.798
  147SOL    HW2  978   0.253   1.471   1.764
  148SOL     OW  979   0.686   0.464   1.266
  148SOL    HW1  980   0.647   0.384   1.231
  148SOL    HW2  981   0.693   0.522   1.191
  149SOL     OW  982   0.928   1.679   1.467
  149SOL    HW1  983   0.902   1.645   1.382
  149SOL    HW2  984   0.924   1.774   1.458
  150SOL     OW  985   0.475   0.484   0.181
  150SOL    HW1  986   0.532   0.558   0.204
  150SOL    HW2  987   0.391   0.523   0.161
  151SOL     OW  988   0.162   1.140   1.461
  151SOL    HW1  989   0.145   1.095   1.544
  151SOL    HW2  990   0.169   1.070   1.397
  152SOL     OW  991   1.326   1.047   1.223
  152SOL    HW1  992   1.350   0.984   1.155
  152SOL    HW2  993   1.256   1.099   1.185
  153SOL     OW  994   1.309   0.852   0.310
  153SOL    HW1  995   1.232   0.822   0.359
  153SOL    HW2  996   1.285   0.839   0.218
  154SOL     OW  997   1.764   1.743   1.146
  154SOL    HW1  998   1.827   1.772   1.080
  154SOL    HW2  999   1.746   1.652   1.125
  155SOL     OW 1000   1.241   1.733   1.112
  155SOL    HW1 1001   1.323   1.754   1.069
  155SOL    HW2 1002   1.247   1.639   1.131
  156SOL     OW 1003   0.066   1.185   1.050
  156SOL    HW1 1004   0.065   1.217   1.140
  156SOL    HW2 1005   0.024   1.254   0.999
  157SOL     OW 1006   0.679   1.666   1.729
  157SOL    HW1 1007   0.623   1.743   1.723
  157SOL    HW2 1008   0.743   1.676   1.658
  158SOL     OW 1009   0.878   0.065   0.124
  158SOL    HW1 1010   0.964   0.094   0.093
  158SOL    HW2 1011   0.897   0.013   0.202
  159SOL     OW 1012   1.720   0.134   0.496
  159SOL    HW1 1013   1.792   0.139   0.434
  159SOL    HW2 1014   1.739   0.056   0.549
  160SOL     OW 1015   1.390   1.568   0.485
  160SOL    HW1 1016   1.451   1.600   0.418
  160SOL    HW2 1017   1.342   1.646   0.514
  161SOL     OW 1018   0.118   1.808   1.848
  161SOL    HW1 1019   0.079   1.735   1.896
  161SOL    HW2 1020   0.182   1.845   1.909
  162SOL     OW 1021   1.279   0.927   0.673
  162SOL    HW1 1022   1.351   0.865   0.677
  162SOL    HW2 1023   1.312   1.000   0.620
  163SOL     OW 1024   0.815   1.273   1.430
  163SOL    HW1 1025   0.787   1.312   1.513
  163SOL    HW2 1026   0.745   1.295   1.369
  164SOL     OW 1027   0.675   1.620   0.168
  164SOL    HW1 1028   0.686   1.629   0.073
  164SOL    HW2 1029   0.617   1.545   0.178
  165SOL     OW 1030   1.625   1.726   1.390
  165SOL    HW1 1031   1.676   1.734   1.309
  165SOL    HW2 1032   1.612   1.816   1.419
  166SOL     OW 1033   1.839   0.154   0.966
  166SOL    HW1 1034   1.867   0.076   0.919
  166SOL    HW2 1035   1.752   0.174   0.930
  167SOL     OW 1036   0.264   0.324   0.722
  167SOL    HW1 1037   0.181   0.360   0.690
  167SOL    HW2 1038   0.251   0.316   0.817
  168SOL     OW 1039   1.223   1.602   0.052
  168SOL    HW1 1040   1.210   1.509   0.072
  168SOL    HW2 1041   1.158   1.622  11.085
  169SOL     OW 1042   0.825   1.007   1.372
  169SOL    HW1 1043   0.868   1.003   1.286
  169SOL    HW2 1044   0.824   1.100   1.395
  170SOL     OW 1045   0.914   0.906   0.281
  170SOL    HW1 1046   0.980   0.946   0.226
  170SOL    HW2 1047   0.961   0.842   0.334
  171SOL     OW 1048   1.499   1.622   0.047
  171SOL    HW1 1049   1.403   1.617   0.044
  171SOL    HW2 1050   1.525   1.637  11.056
  172SOL     OW 1051   0.373   1.307   1.491
  172SOL    HW1 1052   0.356   1.386   1.439
  172SOL    HW2 1053   0.298   1.250   1.474
  173SOL     OW 1054   1.611   1.283   1.280
  173SOL    HW1 1055   1.671   1.274   1.354
  173SOL    HW2 1056   1.551   1.352   1.308
  174SOL     OW 1057   1.051   1.107   0.705
  174SOL    HW1 1058   0.981   1.056   0.746
  174SOL    HW2 1059   1.115   1.041   0.676
  175SOL     OW 1060   1.011   0.241   0.998
  175SOL    HW1 1061   1.011   0.212   0.907
  175SOL    HW2 1062   1.001   0.161   1.049
  176SOL     OW 1063   0.603   1.490   0.483
  176SOL    HW1 1064   0.642   1.440   0.412
  176SOL    HW2 1065   0.530   1.537   0.442
  177SOL     OW 1066   1.721   0.393   1.377
  177SOL    HW1 1067   1.794   0.456   1.376
  177SOL    HW2 1068   1.751   0.322   1.320
  178SOL     OW 1069   0.263   1.329   0.283
  178SOL    HW1 1070   0.175   1.341   0.247
  178SOL    HW2 1071   0.258   1.369   0.370
  179SOL     OW 1072   0.115   1.007   1.695
  179SOL    HW1 1073   0.052   1.051   1.752
  179SOL    HW2 1074   0.194   0.997   1.749
  180SOL     OW 1075   0.658   0.209   1.497
  180SOL    HW1 1076   0.738   0.182   1.451
  180SOL    HW2 1077   0.687   0.225   1.587
  181SOL     OW 1078   0.051   0.339   0.014
  181SOL    HW1 1079   4.460   0.330   0.043
  181SOL    HW2 1080   0.070   0.433   0.024
  182SOL     OW 1081   1.430   0.858   1.400
  182SOL    HW1 1082   1.381   0.919   1.344
  182SOL    HW2 1083   1.519   0.861   1.366
  183SOL     OW 1084   0.081   0.183   0.295
  183SOL    HW1 1085   0.084   0.264   0.244
  183SOL    HW2 1086   0.158   0.134   0.268
  184SOL     OW 1087   1.182   1.340   0.122
  184SOL    HW1 1088   1.089   1.322   0.115
  184SOL    HW2 1089   1.202   1.332   0.215
  185SOL     OW 1090   0.623   0.830   1.430
  185SOL    HW1 1091   0.678   0.907   1.417
  185SOL    HW2 1092   0.686   0.758   1.439
  186SOL     OW 1093   1.485   1.776   0.978
  186SOL    HW1 1094   1.510   1.836   0.908
  186SOL    HW2 1095   1.567   1.761   1.026
  187SOL     OW 1096   0.713   0.562   1.705
  187SOL    HW1 1097   0.751   0.628   1.763
  187SOL    HW2 1098   0.748   0.479   1.737
  188SOL     OW 1099   1.471   1.200   1.632
  188SOL    HW1 1100   1.459   1.214   1.726
  188SOL    HW2 1101   1.564   1.215   1.618
  189SOL     OW 1102   0.380   1.744   1.564
  189SOL    HW1 1103   0.295   1.784   1.546
  189SOL    HW2 1104   0.358   1.664   1.612
  190SOL     OW 1105   1.670   0.881   1.255
  190SOL    HW1 1106   1.662   0.796   1.212
  190SOL    HW2 1107   1.660   0.945   1.185
  191SOL     OW 1108   1.218   0.327   0.447
  191SOL    HW1 1109   1.284   0.259   0.437
  191SOL    HW2 1110   1.243   0.374   0.527
  192SOL     OW 1111   0.585   0.738   0.671
  192SOL    HW1 1112   0.627   0.823   0.656
  192SOL    HW2 1113   0.519   0.732   0.602
  193SOL     OW 1114   1.763   0.365   1.644
  193SOL    HW1 1115   1.746   0.378   1.550
  193SOL    HW2 1116   1.684   0.320   1.675
  194SOL     OW 1117   1.745   0.933   1.512
  194SOL    HW1 1118   1.742   1.028   1.526
  194SOL    HW2 1119   1.730   0.922   1.418
  195SOL     OW 1120   0.904   1.357   0.068
  195SOL    HW1 1121   0.833   1.356   0.133
  195SOL    HW2 1122   0.891   1.438   0.020
  196SOL     OW 1123   0.660   1.792   0.946
  196SOL    HW1 1124   0.640   1.882   0.921
  196SOL    HW2 1125   0.755   1.786   0.937
  197SOL     OW 1126   0.868   0.967   0.854
  197SOL    HW1 1127   0.917   0.895   0.893
  197SOL    HW2 1128   0.833   1.016   0.929
  198SOL     OW 1129   1.079   0.990   0.085
  198SOL    HW1 1130   1.054   1.023  11.099
  198SOL    HW2 1131   1.155   0.934   0.068
  199SOL     OW 1132   1.856   1.554   0.844
  199SOL    HW1 1133   1.777   1.545   0.790
  199SOL    HW2 1134   1.843   1.492   0.916
  200SOL     OW 1135   0.230   1.306   1.858
  200SOL    HW1 1136   0.156   1.249   1.836
  200SOL    HW2 1137   0.225   1.316   1.953
  201SOL     OW 1138   0.103   1.231   0.668
  201SOL    HW1 1139   0.122   1.188   0.752
  201SOL    HW2 1140   0.169   1.196   0.608
  202SOL     OW 1141   0.682   1.402   1.628
  202SOL    HW1 1142   0.602   1.359   1.657
  202SOL    HW2 1143   0.676   1.491   1.665
  203SOL     OW 1144   1.809   0.181   1.238
  203SOL    HW1 1145   1.806   0.088   1.259
  203SOL    HW2 1146   1.824   0.185   1.144
  204SOL     OW 1147   0.439   0.431   0.530
  204SOL    HW1 1148   0.459   0.360   0.469
  204SOL    HW2 1149   0.382   0.391   0.595
  205SOL     OW 1150   1.703   1.486   1.092
  205SOL    HW1 1151   1.620   1.464   1.050
  205SOL    HW2 1152   1.714   1.420   1.161
  206SOL     OW 1153   0.310   0.503   1.253
  206SOL    HW1 1154   0.383   0.456   1.294
  206SOL    HW2 1155   0.337   0.515   1.162
  207SOL     OW 1156   0.827   1.577   0.678
  207SOL    HW1 1157   0.814   1.630   0.599
  207SOL    HW2 1158   0.750   1.521   0.682
  208SOL     OW 1159   1.432   0.216   1.117
  208SOL    HW1 1160   1.467   0.145   1.170
  208SOL    HW2 1161   1.381   0.269   1.179
  209SOL     OW 1162   0.996   0.009   1.150
  209SOL    HW1 1163   0.953   4.424   1.141
  209SOL    HW2 1164   1.088   4.488   1.162
  210SOL     OW 1165   0.768   1.328   0.316
  210SOL    HW1 1166   0.739   1.238   0.330
  210SOL    HW2 1167   0.852   1.334   0.361
  211SOL     OW 1168   0.621   1.556   1.285
  211SOL    HW1 1169   0.623   1.638   1.335
  211SOL    HW2 1170   0.708   1.549   1.247
  212SOL     OW 1171   1.350   0.058   0.169
  212SOL    HW1 1172   1.386   4.499   0.103
  212SOL    HW2 1173   1.270   0.016   0.199
  213SOL     OW 1174   1.316   0.463   0.678
  213SOL    HW1 1175   1.255   0.537   0.678
  213SOL    HW2 1176   1.302   0.421   0.763
  214SOL     OW 1177   1.586   0.200   0.868
  214SOL    HW1 1178   1.526   0.215   0.941
  214SOL    HW2 1179   1.588   0.284   0.821
  215SOL     OW 1180   0.038   1.050   0.284
  215SOL    HW1 1181   0.134   1.044   0.284
  215SOL    HW2 1182   0.012   1.019   0.370
  216SOL     OW 1183   0.885   1.653   0.347
  216SOL    HW1 1184   0.813   1.633   0.287
  216SOL    HW2 1185   0.854   1.727   0.399
  217SOL     OW 1186   0.246   0.627   1.983
  217SOL    HW1 1187   0.172   0.606   2.039
  217SOL    HW2 1188   0.214   0.614   1.894
  218SOL     OW 1189   0.194   0.293   2.851
  218SOL    HW1 1190   0.228   0.268   2.937
  218SOL    HW2 1191   0.131   0.224   2.829
  219SOL     OW 1192   0.004   0.381   2.502
  219SOL    HW1 1193   4.426   0.418   2.543
  219SOL    HW2 1194   4.471   0.310   2.448
  220SOL     OW 1195   0.567   1.287   3.037
  220SOL    HW1 1196   0.480   1.292   2.998
  220SOL    HW2 1197   0.583   1.374   3.072
  221SOL     OW 1198   1.561   1.512   2.569
  221SOL    HW1 1199   1.518   1.493   2.653
  221SOL    HW2 1200   1.489   1.516   2.506
  222SOL     OW 1201   1.134   0.698   2.561
  222SOL    HW1 1202   1.181   0.782   2.550
  222SOL    HW2 1203   1.084   0.709   2.642
  223SOL     OW 1204   1.767   0.607   2.090
  223SOL    HW1 1205   1.746   0.597   1.997
  223SOL    HW2 1206   1.734   0.527   2.130
  224SOL     OW 1207   0.755   1.142   2.902
  224SOL    HW1 1208   0.686   1.177   2.959
  224SOL    HW2 1209   0.791   1.219   2.858
  225SOL     OW 1210   0.865   0.774   3.683
  225SOL    HW1 1211   0.852   0.844   3.746
  225SOL    HW2 1212   0.889   0.818   3.601
  226SOL     OW 1213   0.685   1.004   2.509
  226SOL    HW1 1214   0.751   0.991   2.578
  226SOL    HW2 1215   0.616   1.055   2.552
  227SOL     OW 1216   0.710   1.150   3.674
  227SOL    HW1 1217   0.758   1.229   3.701
  227SOL    HW2 1218   0.628   1.182   3.638
  228SOL     OW 1219   0.335   1.421   2.931
  228SOL    HW1 1220   0.254   1.402   2.885
  228SOL    HW2 1221   0.386   1.475   2.870
  229SOL     OW 1222   1.461   1.500   3.215
  229SOL    HW1 1223   1.512   1.580   3.224
  229SOL    HW2 1224   1.401   1.501   3.290
  230SOL     OW 1225   0.439   0.395   3.353
  230SOL    HW1 1226   0.528   0.360   3.354
  230SOL    HW2 1227   0.383   0.320   3.374
  231SOL     OW 1228   1.611   0.446   2.600
  231SOL    HW1 1229   1.531   0.468   2.553
  231SOL    HW2 1230   1.629   0.524   2.653
  232SOL     OW 1231   0.245   1.691   2.339
  232SOL    HW1 1232   0.230   1.776   2.381
  232SOL    HW2 1233   0.313   1.708   2.274
  233SOL     OW 1234   1.136   1.341   3.554
  233SOL    HW1 1235   1.177   1.337   3.641
  233SOL    HW2 1236   1.084   1.261   3.548
  234SOL     OW 1237   0.248   1.427   2.389
  234SOL    HW1 1238   0.240   1.522   2.392
  234SOL    HW2 1239   0.185   1.395   2.453
  235SOL     OW 1240   0.247   1.082   2.746
  235SOL    HW1 1241   0.264   0.992   2.775
  235SOL    HW2 1242   0.187   1.117   2.812
  236SOL     OW 1243   0.613   1.791   3.293
  236SOL    HW1 1244   0.530   1.773   3.337
  236SOL    HW2 1245   0.634   1.881   3.317
  237SOL     OW 1246   0.579   0.987   2.000
  237SOL    HW1 1247   0.627   1.030   1.929
  237SOL    HW2 1248   0.624   1.015   2.080
  238SOL     OW 1249   1.581   0.116   3.333
  238SOL    HW1 1250   1.603   0.185   3.270
  238SOL    HW2 1251   1.572   0.161   3.416
  239SOL     OW 1252   0.136   0.643   2.436
  239SOL    HW1 1253   0.084   0.565   2.454
  239SOL    HW2 1254   0.108   0.706   2.502
  240SOL     OW 1255   1.842   1.760   2.195
  240SOL    HW1 1256   1.904   1.733   2.263
  240SOL    HW2 1257   1.867   1.851   2.176
  241SOL     OW 1258   0.032   1.602   2.002
  241SOL    HW1 1259   0.021   1.507   2.000
  241SOL    HW2 1260   0.022   1.625   2.095
  242SOL     OW 1261   1.691   0.920   2.502
  242SOL    HW1 1262   1.774   0.878   2.481
  242SOL    HW2 1263   1.668   0.970   2.424
  243SOL     OW 1264   1.646   1.107   2.291
  243SOL    HW1 1265   1.732   1.113   2.249
  243SOL    HW2 1266   1.651   1.168   2.364
  244SOL     OW 1267   0.105   0.764   3.444
  244SOL    HW1 1268   0.196   0.760   3.415
  244SOL    HW2 1269   0.090   0.857   3.464
  245SOL     OW 1270   0.613   1.385   2.598
  245SOL    HW1 1271   0.567   1.302   2.608
  245SOL    HW2 1272   0.597   1.411   2.508
  246SOL     OW 1273   1.289   1.238   3.286
  246SOL    HW1 1274   1.321   1.171   3.225
  246SOL    HW2 1275   1.346   1.232   3.362
  247SOL     OW 1276   0.820   0.013   2.413
  247SOL    HW1 1277   0.855   0.099   2.389
  247SOL    HW2 1278   0.726   0.021   2.402
  248SOL     OW 1279   0.179   0.941   3.141
  248SOL    HW1 1280   0.271   0.924   3.121
  248SOL    HW2 1281   0.133   0.926   3.059
  249SOL     OW 1282   1.532   0.992   2.060
  249SOL    HW1 1283   1.461   0.936   2.092
  249SOL    HW2 1284   1.572   1.027   2.140
  250SOL     OW 1285   1.184   1.806   3.484
  250SOL    HW1 1286   1.198   1.864   3.409
  250SOL    HW2 1287   1.201   1.718   3.449
  251SOL     OW 1288   0.318   0.260   3.631
  251SOL    HW1 1289   0.386   0.311   3.675
  251SOL    HW2 1290   0.241   0.268   3.689
  252SOL     OW 1291   1.466   1.419   2.813
  252SOL    HW1 1292   1.398   1.435   2.879
  252SOL    HW2 1293   1.453   1.328   2.787
  253SOL     OW 1294   1.660   1.737   2.439
  253SOL    HW1 1295   1.637   1.708   2.351
  253SOL    HW2 1296   1.635   1.665   2.496
  254SOL     OW 1297   0.596   0.723   2.127
  254SOL    HW1 1298   0.598   0.804   2.077
  254SOL    HW2 1299   0.530   0.739   2.195
  255SOL     OW 1300   1.291   0.363   2.795
  255SOL    HW1 1301   1.202   0.333   2.779
  255SOL    HW2 1302   1.327   0.300   2.857
  256SOL     OW 1303   1.580   1.670   2.171
  256SOL    HW1 1304   1.670   1.702   2.164
  256SOL    HW2 1305   1.553   1.653   2.081
  257SOL     OW 1306   0.797   0.618   3.316
  257SOL    HW1 1307   0.769   0.593   3.404
  257SOL    HW2 1308   0.754   0.555   3.258
  258SOL     OW 1309   1.388   0.479   3.538
  258SOL    HW1 1310   1.392   0.523   3.623
  258SOL    HW2 1311   1.455   0.411   3.544
  259SOL     OW 1312   0.955   0.888   3.444
  259SOL    HW1 1313   1.009   0.817   3.409
  259SOL    HW2 1314   0.908   0.922   3.368
  260SOL     OW 1315   0.997   0.417   3.098
  260SOL    HW1 1316   0.910   0.426   3.136
  260SOL    HW2 1317   0.983   0.365   3.019
  261SOL     OW 1318   1.050   0.698   2.289
  261SOL    HW1 1319   1.066   0.690   2.383
  261SOL    HW2 1320   0.967   0.651   2.275
  262SOL     OW 1321   0.098   0.825   2.646
  262SOL    HW1 1322   0.184   0.810   2.683
  262SOL    HW2 1323   0.044   0.855   2.719
  263SOL     OW 1324   0.122   1.858   3.439
  263SOL    HW1 1325   0.117   1.834   3.531
  263SOL    HW2 1326   0.046   1.817   3.398
  264SOL     OW 1327   0.853   0.369   2.041
  264SOL    HW1 1328   0.927   0.403   1.991
  264SOL    HW2 1329   0.870   0.275   2.048
  265SOL     OW 1330   1.704   0.573   3.690
  265SOL    HW1 1331   1.668   0.648   3.643
  265SOL    HW2 1332   1.740   0.517   3.622
  266SOL     OW 1333   1.377   1.142   2.403
  266SOL    HW1 1334   1.456   1.130   2.350
  266SOL    HW2 1335   1.324   1.205   2.353
  267SOL     OW 1336   0.542   0.204   2.763
  267SOL    HW1 1337   0.562   0.223   2.854
  267SOL    HW2 1338   0.533   0.290   2.721
  268SOL     OW 1339   1.006   1.444   2.334
  268SOL    HW1 1340   0.968   1.517   2.285
  268SOL    HW2 1341   0.988   1.466   2.426
  269SOL     OW 1342   0.356   1.810   2.720
  269SOL    HW1 1343   0.398   1.725   2.730
  269SOL    HW2 1344   0.426   1.873   2.736
  270SOL     OW 1345   1.799   1.057   2.729
  270SOL    HW1 1346   1.744   1.039   2.653
  270SOL    HW2 1347   1.738   1.063   2.803
  271SOL     OW 1348   1.228   1.539   3.375
  271SOL    HW1 1349   1.214   1.466   3.436
  271SOL    HW2 1350   1.165   1.524   3.304
  272SOL     OW 1351   0.316   0.954   2.115
  272SOL    HW1 1352   0.400   0.977   2.075
  272SOL    HW2 1353   0.300   0.864   2.087
  273SOL     OW 1354   1.479   0.742   2.587
  273SOL    HW1 1355   1.467   0.698   2.671
  273SOL    HW2 1356   1.556   0.798   2.599
  274SOL     OW 1357   0.467   1.262   3.597
  274SOL    HW1 1358   0.440   1.269   3.506
  274SOL    HW2 1359   0.385   1.267   3.647
  275SOL     OW 1360   1.122   1.778   2.093
  275SOL    HW1 1361   1.049   1.736   2.139
  275SOL    HW2 1362   1.144   1.716   2.023
  276SOL     OW 1363   0.163   0.265   3.372
  276SOL    HW1 1364   0.136   0.352   3.343
  276SOL    HW2 1365   0.198   0.278   3.460
  277SOL     OW 1366   1.628   1.380   1.950
  277SOL    HW1 1367   1.587   1.465   1.934
  277SOL    HW2 1368   1.560   1.316   1.931
  278SOL     OW 1369   0.469   1.743   2.176
  278SOL    HW1 1370   0.511   1.797   2.243
  278SOL    HW2 1371   0.542   1.709   2.124
  279SOL     OW 1372   1.420   0.138   2.280
  279SOL    HW1 1373   1.404   0.086   2.201
  279SOL    HW2 1374   1.515   0.131   2.293
  280SOL     OW 1375   0.256   1.789   3.096
  280SOL    HW1 1376   0.304   1.715   3.132
  280SOL    HW2 1377   0.226   1.758   3.011
  281SOL     OW 1378   0.938   1.699   2.761
  281SOL    HW1 1379   1.015   1.647   2.783
  281SOL    HW2 1380   0.894   1.649   2.692
  282SOL     OW 1381   0.394   0.693   2.335
  282SOL    HW1 1382   0.419   0.602   2.347
  282SOL    HW2 1383   0.302   0.697   2.361
  283SOL     OW 1384   1.525   0.233   3.584
  283SOL    HW1 1385   1.525   0.255   3.677
  283SOL    HW2 1386   1.448   0.178   3.573
  284SOL     OW 1387   0.624   0.121   1.980
  284SOL    HW1 1388   0.713   0.086   1.992
  284SOL    HW2 1389   0.595   0.084   1.897
  285SOL     OW 1390   0.768   0.270   3.616
  285SOL    HW1 1391   0.835   0.202   3.624
  285SOL    HW2 1392   0.728   0.275   3.703
  286SOL     OW 1393   0.877   1.522   3.056
  286SOL    HW1 1394   0.861   1.485   2.968
  286SOL    HW2 1395   0.946   1.467   3.092
  287SOL     OW 1396   1.341   0.589   3.291
  287SOL    HW1 1397   1.369   0.560   3.378
  287SOL    HW2 1398   1.376   0.678   3.283
  288SOL     OW 1399   0.815   1.395   2.801
  288SOL    HW1 1400   0.899   1.384   2.757
  288SOL    HW2 1401   0.750   1.396   2.731
  289SOL     OW 1402   0.923   0.518   2.762
  289SOL    HW1 1403   0.906   0.516   2.668
  289SOL    HW2 1404   0.961   0.432   2.781
  290SOL     OW 1405   0.561   0.068   2.370
  290SOL    HW1 1406   0.475   0.055   2.408
  290SOL    HW2 1407   0.549   0.139   2.306
  291SOL     OW 1408   1.428   1.198   1.903
  291SOL    HW1 1409   1.458   1.122   1.953
  291SOL    HW2 1410   1.343   1.219   1.940
  292SOL     OW 1411   0.304   0.074   2.050
  292SOL    HW1 1412   0.388   0.120   2.047
  292SOL    HW2 1413   0.320   4.499   2.107
  293SOL     OW 1414   0.953   0.240   2.331
  293SOL    HW1 1415   0.901   0.295   2.273
  293SOL    HW2 1416   1.042   0.276   2.325
  294SOL     OW 1417   1.080   0.681   3.323
  294SOL    HW1 1418   1.010   0.616   3.322
  294SOL    HW2 1419   1.160   0.629   3.311
  295SOL     OW 1420   1.224   1.569   2.655
  295SOL    HW1 1421   1.240   1.637   2.590
  295SOL    HW2 1422   1.292   1.584   2.722
  296SOL     OW 1423   0.466   1.149   2.598
  296SOL    HW1 1424   0.395   1.130   2.659
  296SOL    HW2 1425   0.427   1.133   2.512
  297SOL     OW 1426   1.269   1.794   2.469
  297SOL    HW1 1427   1.315   1.856   2.412
  297SOL    HW2 1428   1.203   1.847   2.514
  298SOL     OW 1429   1.029   0.548   1.879
  298SOL    HW1 1430   0.981   0.629   1.863
  298SOL    HW2 1431   1.088   0.568   1.951
  299SOL     OW 1432   0.094   0.518   3.275
  299SOL    HW1 1433   0.151   0.526   3.199
  299SOL    HW2 1434   0.059   0.606   3.289
  300SOL     OW 1435   0.561   0.244   3.029
  300SOL    HW1 1436   0.592   0.161   3.064
  300SOL    HW2 1437   0.467   0.245   3.047
  301SOL     OW 1438   0.865   0.503   2.489
  301SOL    HW1 1439   0.820   0.544   2.415
  301SOL    HW2 1440   0.833   0.413   2.490
  302SOL     OW 1441   0.963   0.025   2.646
  302SOL    HW1 1442   0.915   0.024   2.563
  302SOL    HW2 1443   0.977   4.432   2.666
  303SOL     OW 1444   1.437   1.162   2.719
  303SOL    HW1 1445   1.368   1.096   2.718
  303SOL    HW2 1446   1.460   1.174   2.627
  304SOL     OW 1447   1.466   0.605   2.837
  304SOL    HW1 1448   1.413   0.525   2.839
  304SOL    HW2 1449   1.524   0.597   2.913
  305SOL     OW 1450   1.846   0.817   2.245
  305SOL    HW1 1451   1.902   0.765   2.302
  305SOL    HW2 1452   1.817   0.755   2.177
  306SOL     OW 1453   0.492   1.417   2.021
  306SOL    HW1 1454   0.415   1.388   2.070
  306SOL    HW2 1455   0.474   1.390   1.931
  307SOL     OW 1456   1.671   1.265   2.507
  307SOL    HW1 1457   1.765   1.269   2.521
  307SOL    HW2 1458   1.639   1.353   2.530
  308SOL     OW 1459   1.394   0.571   1.932
  308SOL    HW1 1460   1.333   0.555   2.003
  308SOL    HW2 1461   1.480   0.552   1.969
  309SOL     OW 1462   0.522   0.264   2.183
  309SOL    HW1 1463   0.570   0.215   2.117
  309SOL    HW2 1464   0.506   0.349   2.142
  310SOL     OW 1465   1.753   1.238   3.436
  310SOL    HW1 1466   1.841   1.200   3.431
  310SOL    HW2 1467   1.768   1.329   3.463
  311SOL     OW 1468   1.059   1.353   3.196
  311SOL    HW1 1469   0.984   1.323   3.247
  311SOL    HW2 1470   1.135   1.312   3.237
  312SOL     OW 1471   1.608   1.624   3.515
  312SOL    HW1 1472   1.602   1.660   3.427
  312SOL    HW2 1473   1.692   1.578   3.517
  313SOL     OW 1474   1.129   1.203   2.968
  313SOL    HW1 1475   1.069   1.241   3.033
  313SOL    HW2 1476   1.095   1.235   2.884
  314SOL     OW 1477   1.629   1.098   2.939
  314SOL    HW1 1478   1.624   1.161   3.012
  314SOL    HW2 1479   1.550   1.115   2.889
  315SOL     OW 1480   0.902   0.133   3.249
  315SOL    HW1 1481   0.924   0.088   3.168
  315SOL    HW2 1482   0.986   0.148   3.292
  316SOL     OW 1483   0.984   1.114   3.585
  316SOL    HW1 1484   0.892   1.130   3.606
  316SOL    HW2 1485   0.983   1.037   3.529
  317SOL     OW 1486   0.708   1.061   2.234
  317SOL    HW1 1487   0.696   1.045   2.328
  317SOL    HW2 1488   0.784   1.007   2.211
  318SOL     OW 1489   0.430   0.826   3.103
  318SOL    HW1 1490   0.499   0.836   3.169
  318SOL    HW2 1491   0.372   0.759   3.139
  319SOL     OW 1492   1.269   0.375   3.135
  319SOL    HW1 1493   1.301   0.454   3.180
  319SOL    HW2 1494   1.180   0.398   3.108
  320SOL     OW 1495   0.062   1.576   3.206
  320SOL    HW1 1496   0.036   1.665   3.181
  320SOL    HW2 1497   0.158   1.580   3.210
  321SOL     OW 1498   0.346   1.108   2.355
  321SOL    HW1 1499   0.357   1.182   2.295
  321SOL    HW2 1500   0.347   1.031   2.299
  322SOL     OW 1501   0.564   0.526   2.715
  322SOL    HW1 1502   0.575   0.587   2.642
  322SOL    HW2 1503   0.623   0.558   2.783
  323SOL     OW 1504   1.248   1.348   2.251
  323SOL    HW1 1505   1.304   1.420   2.282
  323SOL    HW2 1506   1.161   1.369   2.285
  324SOL     OW 1507   1.280   1.457   3.009
  324SOL    HW1 1508   1.336   1.460   3.086
  324SOL    HW2 1509   1.225   1.380   3.022
  325SOL     OW 1510   1.582   0.623   2.339
  325SOL    HW1 1511   1.535   0.674   2.406
  325SOL    HW2 1512   1.626   0.689   2.286
  326SOL     OW 1513   0.347   1.531   3.177
  326SOL    HW1 1514   0.333   1.484   3.095
  326SOL    HW2 1515   0.442   1.541   3.184
  327SOL     OW 1516   0.484   0.759   3.532
  327SOL    HW1 1517   0.509   0.797   3.448
  327SOL    HW2 1518   0.528   0.674   3.533
  328SOL     OW 1519   1.600   0.778   3.543
  328SOL    HW1 1520   1.515   0.820   3.536
  328SOL    HW2 1521   1.653   0.820   3.475
  329SOL     OW 1522   1.004   0.086   3.582
  329SOL    HW1 1523   1.035   0.168   3.544
  329SOL    HW2 1524   1.029   0.019   3.517
  330SOL     OW 1525   0.495   0.044   3.613
  330SOL    HW1 1526   0.480   4.497   3.531
  330SOL    HW2 1527   0.429   0.113   3.614
  331SOL     OW 1528   0.589   0.874   2.885
  331SOL    HW1 1529   0.619   0.965   2.888
  331SOL    HW2 1530   0.533   0.866   2.963
  332SOL     OW 1531   1.358   0.858   2.892
  332SOL    HW1 1532   1.275   0.850   2.846
  332SOL    HW2 1533   1.398   0.772   2.886
  333SOL     OW 1534   1.204   0.535   2.125
  333SOL    HW1 1535   1.210   0.455   2.177
  333SOL    HW2 1536   1.161   0.598   2.183
  334SOL     OW 1537   0.284   0.216   3.096
  334SOL    HW1 1538   0.245   0.233   3.182
  334SOL    HW2 1539   0.325   0.130   3.105
  335SOL     OW 1540   0.040   1.313   3.148
  335SOL    HW1 1541   0.076   1.265   3.222
  335SOL    HW2 1542   0.045   1.405   3.173
  336SOL     OW 1543   0.724   0.631   2.920
  336SOL    HW1 1544   0.798   0.611   2.863
  336SOL    HW2 1545   0.698   0.720   2.895
  337SOL     OW 1546   1.735   0.959   3.714
  337SOL    HW1 1547   1.687   0.900   3.656
  337SOL    HW2 1548   1.675   0.972   3.788
  338SOL     OW 1549   0.320   0.074   2.493
  338SOL    HW1 1550   0.302   0.163   2.524
  338SOL    HW2 1551   0.308   0.018   2.570
  339SOL     OW 1552   1.615   0.378   2.225
  339SOL    HW1 1553   1.643   0.314   2.290
  339SOL    HW2 1554   1.592   0.456   2.275
  340SOL     OW 1555   1.029   0.761   2.823
  340SOL    HW1 1556   1.026   0.778   2.917
  340SOL    HW2 1557   1.000   0.671   2.813
  341SOL     OW 1558   0.982   1.566   3.579
  341SOL    HW1 1559   0.967   1.610   3.495
  341SOL    HW2 1560   1.025   1.484   3.555
  342SOL     OW 1561   1.856   1.505   3.466
  342SOL    HW1 1562   1.871   1.534   3.377
  342SOL    HW2 1563   1.936   1.528   3.513
  343SOL     OW 1564   0.347   0.933   3.680
  343SOL    HW1 1565   0.419   0.963   3.735
  343SOL    HW2 1566   0.385   0.866   3.624
  344SOL     OW 1567   1.531   0.265   1.990
  344SOL    HW1 1568   1.459   0.209   2.019
  344SOL    HW2 1569   1.560   0.310   2.069
  345SOL     OW 1570   1.292   0.826   1.893
  345SOL    HW1 1571   1.334   0.740   1.895
  345SOL    HW2 1572   1.323   0.866   1.811
  346SOL     OW 1573   1.066   1.335   2.715
  346SOL    HW1 1574   1.069   1.263   2.653
  346SOL    HW2 1575   1.127   1.400   2.681
  347SOL     OW 1576   0.318   0.812   2.809
  347SOL    HW1 1577   0.412   0.830   2.807
  347SOL    HW2 1578   0.312   0.722   2.839
  348SOL     OW 1579   0.335   0.530   2.852
  348SOL    HW1 1580   0.290   0.447   2.833
  348SOL    HW2 1581   0.413   0.528   2.796
  349SOL     OW 1582   1.135   0.373   3.558
  349SOL    HW1 1583   1.086   0.438   3.609
  349SOL    HW2 1584   1.221   0.414   3.545
  350SOL     OW 1585   1.157   0.213   3.335
  350SOL    HW1 1586   1.151   0.277   3.406
  350SOL    HW2 1587   1.197   0.261   3.263
  351SOL     OW 1588   4.491   1.322   2.067
  351SOL    HW1 1589   4.399   1.338   2.049
  351SOL    HW2 1590   4.496   1.229   2.089
  352SOL     OW 1591   0.097   1.777   2.802
  352SOL    HW1 1592   0.059   1.723   2.732
  352SOL    HW2 1593   0.185   1.798   2.770
  353SOL     OW 1594   0.497   1.574   2.769
  353SOL    HW1 1595   0.565   1.636   2.793
  353SOL    HW2 1596   0.541   1.510   2.712
  354SOL     OW 1597   0.984   0.793   3.089
  354SOL    HW1 1598   1.040   0.770   3.164
  354SOL    HW2 1599   0.899   0.755   3.109
  355SOL     OW 1600   0.038   0.568   2.973
  355SOL    HW1 1601   0.113   0.525   2.931
  355SOL    HW2 1602   0.015   0.510   3.046
  356SOL     OW 1603   0.180   0.524   3.574
  356SOL    HW1 1604   0.267   0.506   3.539
  356SOL    HW2 1605   0.152   0.604   3.530
  357SOL     OW 1606   1.377   0.939   3.521
  357SOL    HW1 1607   1.398   1.032   3.519
  357SOL    HW2 1608   1.374   0.914   3.428
  358SOL     OW 1609   0.811   0.574   2.217
  358SOL    HW1 1610   0.814   0.503   2.153
  358SOL    HW2 1611   0.739   0.629   2.188
  359SOL     OW 1612   1.640   0.601   3.048
  359SOL    HW1 1613   1.630   0.542   3.123
  359SOL    HW2 1614   1.728   0.582   3.014
  360SOL     OW 1615   0.272   1.562   3.602
  360SOL    HW1 1616   0.216   1.613   3.661
  360SOL    HW2 1617   0.253   1.471   3.625
  361SOL     OW 1618   0.687   0.464   3.129
  361SOL    HW1 1619   0.648   0.384   3.093
  361SOL    HW2 1620   0.693   0.523   3.053
  362SOL     OW 1621   0.928   1.679   3.330
  362SOL    HW1 1622   0.902   1.645   3.244
  362SOL    HW2 1623   0.924   1.774   3.320
  363SOL     OW 1624   0.473   0.491   2.045
  363SOL    HW1 1625   0.532   0.561   2.068
  363SOL    HW2 1626   0.389   0.534   2.029
  364SOL     OW 1627   0.162   1.141   3.323
  364SOL    HW1 1628   0.145   1.095   3.406
  364SOL    HW2 1629   0.169   1.070   3.258
  365SOL     OW 1630   1.326   1.047   3.085
  365SOL    HW1 1631   1.350   0.984   3.017
  365SOL    HW2 1632   1.256   1.099   3.047
  366SOL     OW 1633   1.312   0.856   2.168
  366SOL    HW1 1634   1.236   0.828   2.219
  366SOL    HW2 1635   1.285   0.843   2.077
  367SOL     OW 1636   1.766   1.741   3.010
  367SOL    HW1 1637   1.829   1.771   2.945
  367SOL    HW2 1638   1.748   1.650   2.986
  368SOL     OW 1639   1.241   1.733   2.974
  368SOL    HW1 1640   1.323   1.754   2.931
  368SOL    HW2 1641   1.246   1.639   2.993
  369SOL     OW 1642   0.067   1.185   2.912
  369SOL    HW1 1643   0.066   1.217   3.002
  369SOL    HW2 1644   0.022   1.253   2.861
  370SOL     OW 1645   0.679   1.666   3.591
  370SOL    HW1 1646   0.623   1.743   3.585
  370SOL    HW2 1647   0.743   1.676   3.521
  371SOL     OW 1648   1.719   0.130   2.355
  371SOL    HW1 1649   1.790   0.138   2.292
  371SOL    HW2 1650   1.745   0.057   2.412
  372SOL     OW 1651   1.390   1.568   2.347
  372SOL    HW1 1652   1.450   1.600   2.279
  372SOL    HW2 1653   1.342   1.645   2.375
  373SOL     OW 1654   0.118   1.808   3.710
  373SOL    HW1 1655   0.079   1.735   3.757
  373SOL    HW2 1656   0.182   1.845   3.771
  374SOL     OW 1657   1.278   0.927   2.534
  374SOL    HW1 1658   1.351   0.865   2.539
  374SOL    HW2 1659   1.312   1.000   2.482
  375SOL     OW 1660   0.815   1.273   3.292
  375SOL    HW1 1661   0.787   1.312   3.375
  375SOL    HW2 1662   0.745   1.295   3.231
  376SOL     OW 1663   0.672   1.619   2.017
  376SOL    HW1 1664   0.682   1.631   1.923
  376SOL    HW2 1665   0.618   1.541   2.026
  377SOL     OW 1666   1.625   1.726   3.252
  377SOL    HW1 1667   1.676   1.734   3.171
  377SOL    HW2 1668   1.611   1.816   3.281
  378SOL     OW 1669   1.839   0.154   2.828
  378SOL    HW1 1670   1.868   0.076   2.780
  378SOL    HW2 1671   1.752   0.173   2.792
  379SOL     OW 1672   0.263   0.325   2.585
  379SOL    HW1 1673   0.181   0.359   2.551
  379SOL    HW2 1674   0.249   0.315   2.679
  380SOL     OW 1675   1.207   1.606   1.893
  380SOL    HW1 1676   1.198   1.515   1.920
  380SOL    HW2 1677   1.142   1.618   1.824
  381SOL     OW 1678   0.825   1.007   3.234
  381SOL    HW1 1679   0.868   1.003   3.149
  381SOL    HW2 1680   0.824   1.100   3.256
  382SOL     OW 1681   0.915   0.910   2.152
  382SOL    HW1 1682   0.977   0.942   2.086
  382SOL    HW2 1683   0.962   0.840   2.197
  383SOL     OW 1684   1.492   1.625   1.904
  383SOL    HW1 1685   1.398   1.619   1.891
  383SOL    HW2 1686   1.529   1.631   1.816
  384SOL     OW 1687   0.373   1.307   3.353
  384SOL    HW1 1688   0.356   1.386   3.301
  384SOL    HW2 1689   0.298   1.250   3.336
  385SOL     OW 1690   1.610   1.283   3.142
  385SOL    HW1 1691   1.672   1.274   3.215
  385SOL    HW2 1692   1.550   1.352   3.170
  386SOL     OW 1693   1.052   1.107   2.568
  386SOL    HW1 1694   0.981   1.056   2.607
  386SOL    HW2 1695   1.114   1.041   2.537
  387SOL     OW 1696   1.004   0.244   2.867
  387SOL    HW1 1697   1.010   0.221   2.774
  387SOL    HW2 1698   0.998   0.159   2.912
  388SOL     OW 1699   0.604   1.489   2.344
  388SOL    HW1 1700   0.646   1.439   2.274
  388SOL    HW2 1701   0.531   1.533   2.302
  389SOL     OW 1702   1.721   0.394   3.239
  389SOL    HW1 1703   1.794   0.456   3.239
  389SOL    HW2 1704   1.751   0.322   3.182
  390SOL     OW 1705   0.252   1.344   2.138
  390SOL    HW1 1706   0.157   1.343   2.124
  390SOL    HW2 1707   0.263   1.376   2.228
  391SOL     OW 1708   0.115   1.007   3.557
  391SOL    HW1 1709   0.052   1.051   3.614
  391SOL    HW2 1710   0.194   0.997   3.611
  392SOL     OW 1711   0.658   0.209   3.359
  392SOL    HW1 1712   0.738   0.182   3.313
  392SOL    HW2 1713   0.687   0.225   3.449
  393SOL     OW 1714   0.072   0.320   1.888
  393SOL    HW1 1715   4.477   0.328   1.903
  393SOL    HW2 1716   0.098   0.406   1.857
  394SOL     OW 1717   1.430   0.858   3.262
  394SOL    HW1 1718   1.381   0.919   3.206
  394SOL    HW2 1719   1.519   0.861   3.228
  395SOL     OW 1720   0.085   0.188   2.164
  395SOL    HW1 1721   0.077   0.261   2.103
  395SOL    HW2 1722   0.164   0.142   2.137
  396SOL     OW 1723   1.179   1.340   1.979
  396SOL    HW1 1724   1.088   1.310   1.981
  396SOL    HW2 1725   1.207   1.340   2.070
  397SOL     OW 1726   0.623   0.830   3.292
  397SOL    HW1 1727   0.678   0.907   3.278
  397SOL    HW2 1728   0.685   0.758   3.301
  398SOL     OW 1729   1.484   1.775   2.840
  398SOL    HW1 1730   1.506   1.837   2.771
  398SOL    HW2 1731   1.567   1.762   2.887
  399SOL     OW 1732   0.713   0.562   3.567
  399SOL    HW1 1733   0.751   0.628   3.625
  399SOL    HW2 1734   0.748   0.479   3.599
  400SOL     OW 1735   1.471   1.200   3.494
  400SOL    HW1 1736   1.459   1.214   3.588
  400SOL    HW2 1737   1.565   1.215   3.479
  401SOL     OW 1738   0.380   1.744   3.426
  401SOL    HW1 1739   0.295   1.784   3.409
  401SOL    HW2 1740   0.358   1.664   3.474
  402SOL     OW 1741   1.670   0.881   3.117
  402SOL    HW1 1742   1.662   0.796   3.074
  402SOL    HW2 1743   1.660   0.945   3.047
  403SOL     OW 1744   1.218   0.330   2.309
  403SOL    HW1 1745   1.284   0.261   2.299
  403SOL    HW2 1746   1.246   0.377   2.388
  404SOL     OW 1747   0.587   0.738   2.532
  404SOL    HW1 1748   0.628   0.823   2.517
  404SOL    HW2 1749   0.520   0.731   2.465
  405SOL     OW 1750   1.762   0.365   3.506
  405SOL    HW1 1751   1.747   0.378   3.412
  405SOL    HW2 1752   1.684   0.320   3.537
  406SOL     OW 1753   1.745   0.933   3.374
  406SOL    HW1 1754   1.743   1.028   3.388
  406SOL    HW2 1755   1.730   0.922   3.281
  407SOL     OW 1756   0.863   1.367   1.896
  407SOL    HW1 1757   0.824   1.394   1.979
  407SOL    HW2 1758   0.881   1.449   1.849
  408SOL     OW 1759   0.660   1.792   2.808
  408SOL    HW1 1760   0.640   1.882   2.783
  408SOL    HW2 1761   0.755   1.786   2.799
  409SOL     OW 1762   0.868   0.967   2.717
  409SOL    HW1 1763   0.918   0.895   2.755
  409SOL    HW2 1764   0.833   1.016   2.791
  410SOL     OW 1765   1.079   0.988   1.951
  410SOL    HW1 1766   1.057   1.039   1.873
  410SOL    HW2 1767   1.154   0.935   1.924
  411SOL     OW 1768   1.855   1.551   2.704
  411SOL    HW1 1769   1.774   1.543   2.654
  411SOL    HW2 1770   1.844   1.491   2.777
  412SOL     OW 1771   0.230   1.306   3.720
  412SOL    HW1 1772   0.156   1.249   3.698
  412SOL    HW2 1773   0.225   1.316   3.815
  413SOL     OW 1774   0.106   1.235   2.530
  413SOL    HW1 1775   0.119   1.189   2.613
  413SOL    HW2 1776   0.166   1.192   2.469
  414SOL     OW 1777   0.682   1.402   3.490
  414SOL    HW1 1778   0.602   1.359   3.519
  414SOL    HW2 1779   0.676   1.491   3.527
  415SOL     OW 1780   1.809   0.181   3.100
  415SOL    HW1 1781   1.806   0.088   3.121
  415SOL    HW2 1782   1.824   0.185   3.006
  416SOL     OW 1783   0.440   0.431   2.393
  416SOL    HW1 1784   0.458   0.361   2.330
  416SOL    HW2 1785   0.381   0.392   2.457
  417SOL     OW 1786   1.704   1.485   2.953
  417SOL    HW1 1787   1.620   1.463   2.912
  417SOL    HW2 1788   1.714   1.420   3.022
  418SOL     OW 1789   0.311   0.504   3.116
  418SOL    HW1 1790   0.383   0.456   3.155
  418SOL    HW2 1791   0.336   0.515   3.024
  419SOL     OW 1792   0.827   1.578   2.540
  419SOL    HW1 1793   0.815   1.630   2.461
  419SOL    HW2 1794   0.750   1.521   2.543
  420SOL     OW 1795   1.432   0.216   2.980
  420SOL    HW1 1796   1.467   0.145   3.033
  420SOL    HW2 1797   1.381   0.269   3.041
  421SOL     OW 1798   0.996   0.007   3.013
  421SOL    HW1 1799   0.953   4.422   3.003
  421SOL    HW2 1800   1.089   4.487   3.024
  422SOL     OW 1801   0.772   1.332   2.175
  422SOL    HW1 1802   0.741   1.242   2.182
  422SOL    HW2 1803   0.854   1.333   2.225
  423SOL     OW 1804   0.621   1.556   3.147
  423SOL    HW1 1805   0.623   1.638   3.197
  423SOL    HW2 1806   0.708   1.549   3.109
  424SOL     OW 1807   1.340   0.053   2.016
  424SOL    HW1 1808   1.379   4.477   1.972
  424SOL    HW2 1809   1.265   0.017   2.062
  425SOL     OW 1810   1.314   0.463   2.539
  425SOL    HW1 1811   1.255   0.538   2.539
  425SOL    HW2 1812   1.303   0.422   2.624
  426SOL     OW 1813   1.585   0.200   2.730
  426SOL    HW1 1814   1.526   0.215   2.803
  426SOL    HW2 1815   1.588   0.284   2.683
  427SOL     OW 1816   0.041   1.051   2.150
  427SOL    HW1 1817   0.135   1.035   2.140
  427SOL    HW2 1818   0.020   1.019   2.238
  428SOL     OW 1819   0.884   1.652   2.204
  428SOL    HW1 1820   0.812   1.635   2.144
  428SOL    HW2 1821   0.855   1.727   2.256
  429SOL     OW 1822   0.247   0.627   3.845
  429SOL    HW1 1823   0.172   0.606   3.901
  429SOL    HW2 1824   0.214   0.614   3.756
  430SOL     OW 1825   0.194   0.293   4.713
  430SOL    HW1 1826   0.228   0.268   4.799
  430SOL    HW2 1827   0.132   0.224   4.691
  431SOL     OW 1828   0.004   0.381   4.364
  431SOL    HW1 1829   4.426   0.418   4.405
  431SOL    HW2 1830   4.471   0.310   4.310
  432SOL     OW 1831   0.568   1.287   4.899
  432SOL    HW1 1832   0.480   1.291   4.860
  432SOL    HW2 1833   0.583   1.375   4.934
  433SOL     OW 1834   1.561   1.510   4.430
  433SOL    HW1 1835   1.517   1.493   4.513
  433SOL    HW2 1836   1.491   1.517   4.366
  434SOL     OW 1837   1.134   0.699   4.423
  434SOL    HW1 1838   1.181   0.782   4.412
  434SOL    HW2 1839   1.084   0.709   4.504
  435SOL     OW 1840   1.767   0.607   3.952
  435SOL    HW1 1841   1.746   0.597   3.859
  435SOL    HW2 1842   1.734   0.526   3.992
  436SOL     OW 1843   0.756   1.143   4.765
  436SOL    HW1 1844   0.687   1.177   4.821
  436SOL    HW2 1845   0.791   1.220   4.720
  437SOL     OW 1846   0.866   0.774   5.545
  437SOL    HW1 1847   0.851   0.844   5.608
  437SOL    HW2 1848   0.889   0.818   5.463
  438SOL     OW 1849   0.685   1.004   4.371
  438SOL    HW1 1850   0.751   0.991   4.440
  438SOL    HW2 1851   0.616   1.055   4.413
  439SOL     OW 1852   0.711   1.150   5.536
  439SOL    HW1 1853   0.758   1.229   5.562
  439SOL    HW2 1854   0.628   1.182   5.500
  440SOL     OW 1855   0.335   1.421   4.793
  440SOL    HW1 1856   0.254   1.402   4.747
  440SOL    HW2 1857   0.385   1.475   4.732
  441SOL     OW 1858   1.468   1.501   5.094
  441SOL    HW1 1859   1.448   1.592   5.075
  441SOL    HW2 1860   1.403   1.475   5.159
  442SOL     OW 1861   0.439   0.395   5.215
  442SOL    HW1 1862   0.528   0.360   5.216
  442SOL    HW2 1863   0.383   0.320   5.235
  443SOL     OW 1864   1.611   0.446   4.462
  443SOL    HW1 1865   1.531   0.468   4.415
  443SOL    HW2 1866   1.630   0.524   4.514
  444SOL     OW 1867   0.245   1.692   4.201
  444SOL    HW1 1868   0.230   1.777   4.243
  444SOL    HW2 1869   0.313   1.708   4.136
  445SOL     OW 1870   1.137   1.342   5.415
  445SOL    HW1 1871   1.177   1.338   5.502
  445SOL    HW2 1872   1.084   1.262   5.409
  446SOL     OW 1873   0.249   1.427   4.251
  446SOL    HW1 1874   0.240   1.522   4.254
  446SOL    HW2 1875   0.185   1.394   4.315
  447SOL     OW 1876   0.247   1.082   4.608
  447SOL    HW1 1877   0.264   0.992   4.637
  447SOL    HW2 1878   0.188   1.117   4.674
  448SOL     OW 1879   0.614   1.790   5.156
  448SOL    HW1 1880   0.531   1.773   5.199
  448SOL    HW2 1881   0.634   1.881   5.179
  449SOL     OW 1882   0.579   0.987   3.862
  449SOL    HW1 1883   0.627   1.030   3.791
  449SOL    HW2 1884   0.624   1.015   3.942
  450SOL     OW 1885   1.581   0.116   5.195
  450SOL    HW1 1886   1.604   0.184   5.132
  450SOL    HW2 1887   1.572   0.162   5.278
  451SOL     OW 1888   0.136   0.643   4.298
  451SOL    HW1 1889   0.084   0.565   4.316
  451SOL    HW2 1890   0.108   0.706   4.365
  452SOL     OW 1891   1.842   1.759   4.059
  452SOL    HW1 1892   1.904   1.730   4.125
  452SOL    HW2 1893   1.865   1.850   4.042
  453SOL     OW 1894   0.032   1.602   3.864
  453SOL    HW1 1895   0.021   1.507   3.861
  453SOL    HW2 1896   0.021   1.625   3.957
  454SOL     OW 1897   1.689   0.919   4.363
  454SOL    HW1 1898   1.773   0.878   4.343
  454SOL    HW2 1899   1.667   0.969   4.285
  455SOL     OW 1900   1.646   1.107   4.153
  455SOL    HW1 1901   1.732   1.113   4.111
  455SOL    HW2 1902   1.651   1.168   4.227
  456SOL     OW 1903   0.105   0.764   5.306
  456SOL    HW1 1904   0.196   0.760   5.277
  456SOL    HW2 1905   0.090   0.857   5.325
  457SOL     OW 1906   0.613   1.385   4.460
  457SOL    HW1 1907   0.566   1.302   4.470
  457SOL    HW2 1908   0.597   1.411   4.370
  458SOL     OW 1909   1.295   1.244   5.144
  458SOL    HW1 1910   1.322   1.173   5.086
  458SOL    HW2 1911   1.348   1.232   5.223
  459SOL     OW 1912   0.820   0.013   4.275
  459SOL    HW1 1913   0.855   0.099   4.251
  459SOL    HW2 1914   0.726   0.021   4.264
  460SOL     OW 1915   0.179   0.941   5.003
  460SOL    HW1 1916   0.271   0.923   4.983
  460SOL    HW2 1917   0.133   0.926   4.921
  461SOL     OW 1918   1.532   0.993   3.922
  461SOL    HW1 1919   1.461   0.936   3.954
  461SOL    HW2 1920   1.572   1.028   4.002
  462SOL     OW 1921   1.181   1.804   5.345
  462SOL    HW1 1922   1.196   1.866   5.273
  462SOL    HW2 1923   1.198   1.718   5.306
  463SOL     OW 1924   0.318   0.260   5.493
  463SOL    HW1 1925   0.386   0.311   5.537
  463SOL    HW2 1926   0.241   0.267   5.551
  464SOL     OW 1927   1.462   1.415   4.673
  464SOL    HW1 1928   1.393   1.431   4.738
  464SOL    HW2 1929   1.450   1.324   4.647
  465SOL     OW 1930   1.655   1.740   4.301
  465SOL    HW1 1931   1.635   1.707   4.213
  465SOL    HW2 1932   1.638   1.666   4.359
  466SOL     OW 1933   0.596   0.723   3.990
  466SOL    HW1 1934   0.598   0.804   3.939
  466SOL    HW2 1935   0.530   0.739   4.057
  467SOL     OW 1936   1.291   0.363   4.657
  467SOL    HW1 1937   1.202   0.333   4.641
  467SOL    HW2 1938   1.327   0.300   4.719
  468SOL     OW 1939   1.580   1.669   4.033
  468SOL    HW1 1940   1.670   1.701   4.027
  468SOL    HW2 1941   1.554   1.652   3.942
  469SOL     OW 1942   0.797   0.618   5.178
  469SOL    HW1 1943   0.769   0.593   5.266
  469SOL    HW2 1944   0.754   0.555   5.120
  470SOL     OW 1945   1.388   0.479   5.400
  470SOL    HW1 1946   1.392   0.523   5.485
  470SOL    HW2 1947   1.455   0.411   5.406
  471SOL     OW 1948   0.956   0.888   5.306
  471SOL    HW1 1949   1.009   0.817   5.271
  471SOL    HW2 1950   0.908   0.922   5.231
  472SOL     OW 1951   0.997   0.418   4.960
  472SOL    HW1 1952   0.910   0.426   4.998
  472SOL    HW2 1953   0.984   0.365   4.881
  473SOL     OW 1954   1.050   0.698   4.151
  473SOL    HW1 1955   1.066   0.690   4.245
  473SOL    HW2 1956   0.967   0.651   4.137
  474SOL     OW 1957   0.097   0.826   4.508
  474SOL    HW1 1958   0.184   0.810   4.545
  474SOL    HW2 1959   0.044   0.855   4.582
  475SOL     OW 1960   0.122   1.858   5.301
  475SOL    HW1 1961   0.117   1.834   5.393
  475SOL    HW2 1962   0.046   1.818   5.260
  476SOL     OW 1963   0.853   0.369   3.904
  476SOL    HW1 1964   0.927   0.404   3.853
  476SOL    HW2 1965   0.871   0.275   3.909
  477SOL     OW 1966   1.704   0.573   5.552
  477SOL    HW1 1967   1.668   0.648   5.504
  477SOL    HW2 1968   1.740   0.516   5.484
  478SOL     OW 1969   1.377   1.142   4.265
  478SOL    HW1 1970   1.456   1.130   4.212
  478SOL    HW2 1971   1.324   1.205   4.214
  479SOL     OW 1972   0.542   0.204   4.625
  479SOL    HW1 1973   0.562   0.223   4.716
  479SOL    HW2 1974   0.533   0.290   4.583
  480SOL     OW 1975   1.006   1.445   4.197
  480SOL    HW1 1976   0.968   1.517   4.147
  480SOL    HW2 1977   0.988   1.466   4.288
  481SOL     OW 1978   0.356   1.810   4.582
  481SOL    HW1 1979   0.398   1.725   4.592
  481SOL    HW2 1980   0.426   1.873   4.598
  482SOL     OW 1981   1.797   1.052   4.591
  482SOL    HW1 1982   1.742   1.038   4.514
  482SOL    HW2 1983   1.734   1.059   4.663
  483SOL     OW 1984   1.227   1.538   5.232
  483SOL    HW1 1985   1.214   1.469   5.296
  483SOL    HW2 1986   1.158   1.525   5.167
  484SOL     OW 1987   0.316   0.954   3.977
  484SOL    HW1 1988   0.400   0.977   3.937
  484SOL    HW2 1989   0.300   0.864   3.949
  485SOL     OW 1990   1.479   0.742   4.449
  485SOL    HW1 1991   1.468   0.698   4.533
  485SOL    HW2 1992   1.556   0.797   4.460
  486SOL     OW 1993   0.468   1.262   5.459
  486SOL    HW1 1994   0.440   1.269   5.368
  486SOL    HW2 1995   0.386   1.267   5.509
  487SOL     OW 1996   1.121   1.778   3.955
  487SOL    HW1 1997   1.049   1.736   4.001
  487SOL    HW2 1998   1.144   1.717   3.885
  488SOL     OW 1999   0.163   0.265   5.233
  488SOL    HW1 2000   0.136   0.352   5.205
  488SOL    HW2 2001   0.198   0.278   5.322
  489SOL     OW 2002   1.628   1.380   3.812
  489SOL    HW1 2003   1.587   1.465   3.796
  489SOL    HW2 2004   1.560   1.316   3.792
  490SOL     OW 2005   0.469   1.743   4.038
  490SOL    HW1 2006   0.511   1.797   4.105
  490SOL    HW2 2007   0.542   1.709   3.986
  491SOL     OW 2008   1.420   0.138   4.142
  491SOL    HW1 2009   1.404   0.087   4.063
  491SOL    HW2 2010   1.515   0.132   4.155
  492SOL     OW 2011   0.256   1.789   4.958
  492SOL    HW1 2012   0.304   1.714   4.994
  492SOL    HW2 2013   0.225   1.759   4.873
  493SOL     OW 2014   0.939   1.698   4.623
  493SOL    HW1 2015   1.017   1.645   4.641
  493SOL    HW2 2016   0.893   1.649   4.554
  494SOL     OW 2017   0.394   0.693   4.197
  494SOL    HW1 2018   0.419   0.601   4.209
  494SOL    HW2 2019   0.302   0.697   4.223
  495SOL     OW 2020   1.525   0.233   5.446
  495SOL    HW1 2021   1.525   0.255   5.539
  495SOL    HW2 2022   1.448   0.178   5.435
  496SOL     OW 2023   0.624   0.121   3.842
  496SOL    HW1 2024   0.713   0.086   3.854
  496SOL    HW2 2025   0.595   0.084   3.759
  497SOL     OW 2026   0.768   0.270   5.478
  497SOL    HW1 2027   0.835   0.202   5.487
  497SOL    HW2 2028   0.728   0.275   5.565
  498SOL     OW 2029   0.877   1.523   4.917
  498SOL    HW1 2030   0.861   1.486   4.830
  498SOL    HW2 2031   0.946   1.467   4.954
  499SOL     OW 2032   1.341   0.589   5.153
  499SOL    HW1 2033   1.369   0.560   5.240
  499SOL    HW2 2034   1.376   0.678   5.145
  500SOL     OW 2035   0.815   1.395   4.663
  500SOL    HW1 2036   0.899   1.384   4.618
  500SOL    HW2 2037   0.750   1.396   4.593
  501SOL     OW 2038   0.923   0.518   4.624
  501SOL    HW1 2039   0.906   0.517   4.530
  501SOL    HW2 2040   0.961   0.432   4.643
  502SOL     OW 2041   0.561   0.069   4.232
  502SOL    HW1 2042   0.475   0.055   4.270
  502SOL    HW2 2043   0.549   0.139   4.168
  503SOL     OW 2044   1.428   1.198   3.765
  503SOL    HW1 2045   1.458   1.122   3.815
  503SOL    HW2 2046   1.342   1.219   3.802
  504SOL     OW 2047   0.304   0.074   3.912
  504SOL    HW1 2048   0.388   0.120   3.909
  504SOL    HW2 2049   0.320   4.499   3.969
  505SOL     OW 2050   0.953   0.240   4.193
  505SOL    HW1 2051   0.901   0.295   4.135
  505SOL    HW2 2052   1.042   0.276   4.187
  506SOL     OW 2053   1.080   0.681   5.184
  506SOL    HW1 2054   1.010   0.616   5.184
  506SOL    HW2 2055   1.160   0.629   5.173
  507SOL     OW 2056   1.227   1.573   4.522
  507SOL    HW1 2057   1.239   1.637   4.452
  507SOL    HW2 2058   1.299   1.591   4.583
  508SOL     OW 2059   0.466   1.149   4.460
  508SOL    HW1 2060   0.395   1.130   4.521
  508SOL    HW2 2061   0.428   1.134   4.374
  509SOL     OW 2062   1.269   1.794   4.332
  509SOL    HW1 2063   1.315   1.855   4.274
  509SOL    HW2 2064   1.203   1.848   4.375
  510SOL     OW 2065   1.029   0.547   3.741
  510SOL    HW1 2066   0.981   0.629   3.725
  510SOL    HW2 2067   1.088   0.568   3.813
  511SOL     OW 2068   0.094   0.518   5.137
  511SOL    HW1 2069   0.151   0.526   5.061
  511SOL    HW2 2070   0.059   0.606   5.151
  512SOL     OW 2071   0.561   0.244   4.891
  512SOL    HW1 2072   0.592   0.161   4.926
  512SOL    HW2 2073   0.467   0.245   4.909
  513SOL     OW 2074   0.865   0.503   4.351
  513SOL    HW1 2075   0.820   0.544   4.277
  513SOL    HW2 2076   0.833   0.413   4.352
  514SOL     OW 2077   0.963   0.024   4.508
  514SOL    HW1 2078   0.915   0.024   4.425
  514SOL    HW2 2079   0.977   4.432   4.528
  515SOL     OW 2080   1.436   1.159   4.581
  515SOL    HW1 2081   1.367   1.093   4.577
  515SOL    HW2 2082   1.462   1.173   4.490
  516SOL     OW 2083   1.466   0.605   4.700
  516SOL    HW1 2084   1.413   0.525   4.701
  516SOL    HW2 2085   1.524   0.597   4.775
  517SOL     OW 2086   1.846   0.817   4.107
  517SOL    HW1 2087   1.902   0.765   4.164
  517SOL    HW2 2088   1.817   0.755   4.039
  518SOL     OW 2089   0.492   1.417   3.883
  518SOL    HW1 2090   0.415   1.388   3.932
  518SOL    HW2 2091   0.475   1.389   3.793
  519SOL     OW 2092   1.669   1.263   4.371
  519SOL    HW1 2093   1.764   1.267   4.384
  519SOL    HW2 2094   1.639   1.351   4.391
  520SOL     OW 2095   1.394   0.571   3.794
  520SOL    HW1 2096   1.333   0.555   3.865
  520SOL    HW2 2097   1.480   0.552   3.831
  521SOL     OW 2098   0.522   0.264   4.045
  521SOL    HW1 2099   0.570   0.215   3.979
  521SOL    HW2 2100   0.506   0.349   4.004
  522SOL     OW 2101   1.751   1.228   5.296
  522SOL    HW1 2102   1.836   1.185   5.304
  522SOL    HW2 2103   1.767   1.318   5.322
  523SOL     OW 2104   1.058   1.355   5.060
  523SOL    HW1 2105   0.983   1.323   5.110
  523SOL    HW2 2106   1.134   1.313   5.100
  524SOL     OW 2107   1.586   1.609   5.385
  524SOL    HW1 2108   1.574   1.637   5.294
  524SOL    HW2 2109   1.665   1.554   5.384
  525SOL     OW 2110   1.131   1.208   4.830
  525SOL    HW1 2111   1.067   1.240   4.893
  525SOL    HW2 2112   1.096   1.234   4.745
  526SOL     OW 2113   1.628   1.098   4.801
  526SOL    HW1 2114   1.621   1.160   4.874
  526SOL    HW2 2115   1.549   1.115   4.749
  527SOL     OW 2116   0.902   0.133   5.111
  527SOL    HW1 2117   0.924   0.088   5.030
  527SOL    HW2 2118   0.986   0.148   5.154
  528SOL     OW 2119   0.984   1.115   5.446
  528SOL    HW1 2120   0.892   1.131   5.468
  528SOL    HW2 2121   0.983   1.037   5.391
  529SOL     OW 2122   0.708   1.061   4.096
  529SOL    HW1 2123   0.696   1.045   4.190
  529SOL    HW2 2124   0.784   1.007   4.073
  530SOL     OW 2125   0.430   0.826   4.965
  530SOL    HW1 2126   0.498   0.836   5.031
  530SOL    HW2 2127   0.372   0.759   5.000
  531SOL     OW 2128   1.269   0.375   4.998
  531SOL    HW1 2129   1.301   0.454   5.042
  531SOL    HW2 2130   1.180   0.398   4.970
  532SOL     OW 2131   0.062   1.576   5.068
  532SOL    HW1 2132   0.036   1.665   5.043
  532SOL    HW2 2133   0.158   1.580   5.072
  533SOL     OW 2134   0.347   1.108   4.217
  533SOL    HW1 2135   0.357   1.182   4.157
  533SOL    HW2 2136   0.347   1.031   4.161
  534SOL     OW 2137   0.564   0.526   4.577
  534SOL    HW1 2138   0.575   0.587   4.504
  534SOL    HW2 2139   0.624   0.558   4.645
  535SOL     OW 2140   1.248   1.348   4.113
  535SOL    HW1 2141   1.304   1.420   4.144
  535SOL    HW2 2142   1.161   1.369   4.147
  536SOL     OW 2143   1.280   1.454   4.874
  536SOL    HW1 2144   1.332   1.444   4.954
  536SOL    HW2 2145   1.222   1.377   4.874
  537SOL     OW 2146   1.582   0.623   4.201
  537SOL    HW1 2147   1.535   0.674   4.267
  537SOL    HW2 2148   1.627   0.689   4.148
  538SOL     OW 2149   0.347   1.531   5.039
  538SOL    HW1 2150   0.333   1.484   4.957
  538SOL    HW2 2151   0.442   1.541   5.045
  539SOL     OW 2152   0.485   0.760   5.394
  539SOL    HW1 2153   0.509   0.798   5.309
  539SOL    HW2 2154   0.527   0.674   5.395
  540SOL     OW 2155   1.600   0.777   5.405
  540SOL    HW1 2156   1.514   0.819   5.398
  540SOL    HW2 2157   1.653   0.820   5.337
  541SOL     OW 2158   1.005   0.086   5.444
  541SOL    HW1 2159   1.035   0.168   5.406
  541SOL    HW2 2160   1.029   0.019   5.379
  542SOL     OW 2161   0.495   0.044   5.475
  542SOL    HW1 2162   0.480   4.497   5.393
  542SOL    HW2 2163   0.429   0.113   5.476
  543SOL     OW 2164   0.589   0.874   4.748
  543SOL    HW1 2165   0.619   0.965   4.750
  543SOL    HW2 2166   0.533   0.865   4.825
  544SOL     OW 2167   1.358   0.858   4.755
  544SOL    HW1 2168   1.275   0.850   4.707
  544SOL    HW2 2169   1.398   0.772   4.748
  545SOL     OW 2170   1.204   0.535   3.987
  545SOL    HW1 2171   1.210   0.455   4.039
  545SOL    HW2 2172   1.161   0.598   4.045
  546SOL     OW 2173   0.285   0.217   4.958
  546SOL    HW1 2174   0.245   0.233   5.044
  546SOL    HW2 2175   0.325   0.130   4.967
  547SOL     OW 2176   0.040   1.313   5.010
  547SOL    HW1 2177   0.076   1.265   5.084
  547SOL    HW2 2178   0.045   1.405   5.035
  548SOL     OW 2179   0.724   0.631   4.782
  548SOL    HW1 2180   0.798   0.611   4.725
  548SOL    HW2 2181   0.698   0.720   4.757
  549SOL     OW 2182   1.734   0.959   5.575
  549SOL    HW1 2183   1.686   0.898   5.519
  549SOL    HW2 2184   1.676   0.973   5.650
  550SOL     OW 2185   0.320   0.074   4.355
  550SOL    HW1 2186   0.302   0.163   4.386
  550SOL    HW2 2187   0.308   0.018   4.432
  551SOL     OW 2188   1.614   0.377   4.087
  551SOL    HW1 2189   1.643   0.314   4.153
  551SOL    HW2 2190   1.592   0.456   4.137
  552SOL     OW 2191   1.029   0.762   4.685
  552SOL    HW1 2192   1.026   0.777   4.780
  552SOL    HW2 2193   1.000   0.671   4.675
  553SOL     OW 2194   0.982   1.566   5.440
  553SOL    HW1 2195   0.967   1.610   5.356
  553SOL    HW2 2196   1.024   1.483   5.416
  554SOL     OW 2197   1.851   1.482   5.335
  554SOL    HW1 2198   1.889   1.539   5.268
  554SOL    HW2 2199   1.909   1.490   5.410
  555SOL     OW 2200   0.347   0.933   5.542
  555SOL    HW1 2201   0.419   0.963   5.597
  555SOL    HW2 2202   0.386   0.866   5.486
  556SOL     OW 2203   1.531   0.265   3.852
  556SOL    HW1 2204   1.459   0.209   3.881
  556SOL    HW2 2205   1.560   0.310   3.931
  557SOL     OW 2206   1.292   0.826   3.755
  557SOL    HW1 2207   1.334   0.740   3.757
  557SOL    HW2 2208   1.323   0.866   3.673
  558SOL     OW 2209   1.066   1.336   4.578
  558SOL    HW1 2210   1.069   1.263   4.515
  558SOL    HW2 2211   1.129   1.400   4.543
  559SOL     OW 2212   0.318   0.812   4.671
  559SOL    HW1 2213   0.412   0.830   4.668
  559SOL    HW2 2214   0.311   0.722   4.701
  560SOL     OW 2215   0.335   0.530   4.714
  560SOL    HW1 2216   0.290   0.447   4.695
  560SOL    HW2 2217   0.413   0.528   4.658
  561SOL     OW 2218   1.135   0.374   5.420
  561SOL    HW1 2219   1.086   0.438   5.471
  561SOL    HW2 2220   1.221   0.414   5.407
  562SOL     OW 2221   1.157   0.213   5.197
  562SOL    HW1 2222   1.151   0.277   5.268
  562SOL    HW2 2223   1.197   0.261   5.125
  563SOL     OW 2224   4.491   1.322   3.929
  563SOL    HW1 2225   4.399   1.338   3.911
  563SOL    HW2 2226   4.496   1.229   3.951
  564SOL     OW 2227   0.097   1.776   4.664
  564SOL    HW1 2228   0.059   1.723   4.595
  564SOL    HW2 2229   0.185   1.798   4.632
  565SOL     OW 2230   0.497   1.574   4.631
  565SOL    HW1 2231   0.565   1.636   4.655
  565SOL    HW2 2232   0.541   1.511   4.574
  566SOL     OW 2233   0.984   0.794   4.952
  566SOL    HW1 2234   1.039   0.770   5.026
  566SOL    HW2 2235   0.899   0.754   4.970
  567SOL     OW 2236   0.039   0.568   4.836
  567SOL    HW1 2237   0.112   0.525   4.792
  567SOL    HW2 2238   0.015   0.509   4.907
  568SOL     OW 2239   0.180   0.524   5.437
  568SOL    HW1 2240   0.266   0.506   5.401
  568SOL    HW2 2241   0.152   0.604   5.392
  569SOL     OW 2242   1.377   0.939   5.383
  569SOL    HW1 2243   1.398   1.033   5.381
  569SOL    HW2 2244   1.375   0.914   5.290
  570SOL     OW 2245   0.811   0.574   4.079
  570SOL    HW1 2246   0.815   0.503   4.015
  570SOL    HW2 2247   0.739   0.629   4.050
  571SOL     OW 2248   1.641   0.602   4.911
  571SOL    HW1 2249   1.630   0.542   4.985
  571SOL    HW2 2250   1.728   0.582   4.876
  572SOL     OW 2251   0.273   1.562   5.465
  572SOL    HW1 2252   0.216   1.614   5.522
  572SOL    HW2 2253   0.253   1.471   5.488
  573SOL     OW 2254   0.687   0.464   4.991
  573SOL    HW1 2255   0.648   0.384   4.956
  573SOL    HW2 2256   0.693   0.522   4.915
  574SOL     OW 2257   0.931   1.678   5.189
  574SOL    HW1 2258   0.901   1.645   5.105
  574SOL    HW2 2259   0.925   1.773   5.182
  575SOL     OW 2260   0.473   0.491   3.907
  575SOL    HW1 2261   0.532   0.562   3.930
  575SOL    HW2 2262   0.389   0.534   3.891
  576SOL     OW 2263   0.162   1.141   5.185
  576SOL    HW1 2264   0.145   1.095   5.268
  576SOL    HW2 2265   0.169   1.070   5.121
  577SOL     OW 2266   1.326   1.048   4.948
  577SOL    HW1 2267   1.349   0.984   4.880
  577SOL    HW2 2268   1.256   1.100   4.908
  578SOL     OW 2269   1.312   0.856   4.030
  578SOL    HW1 2270   1.236   0.827   4.081
  578SOL    HW2 2271   1.286   0.843   3.939
  579SOL     OW 2272   1.242   1.730   4.848
  579SOL    HW1 2273   1.313   1.743   4.785
  579SOL    HW2 2274   1.239   1.635   4.862
  580SOL     OW 2275   0.067   1.185   4.774
  580SOL    HW1 2276   0.066   1.217   4.864
  580SOL    HW2 2277   0.022   1.253   4.723
  581SOL     OW 2278   0.679   1.666   5.454
  581SOL    HW1 2279   0.622   1.743   5.448
  581SOL    HW2 2280   0.742   1.677   5.383
  582SOL     OW 2281   1.719   0.130   4.217
  582SOL    HW1 2282   1.790   0.138   4.154
  582SOL    HW2 2283   1.746   0.057   4.274
  583SOL     OW 2284   1.390   1.568   4.209
  583SOL    HW1 2285   1.450   1.599   4.141
  583SOL    HW2 2286   1.342   1.646   4.237
  584SOL     OW 2287   0.119   1.808   5.572
  584SOL    HW1 2288   0.079   1.735   5.619
  584SOL    HW2 2289   0.182   1.845   5.633
  585SOL     OW 2290   1.279   0.928   4.397
  585SOL    HW1 2291   1.351   0.865   4.402
  585SOL    HW2 2292   1.312   0.999   4.343
  586SOL     OW 2293   0.814   1.273   5.154
  586SOL    HW1 2294   0.787   1.312   5.237
  586SOL    HW2 2295   0.744   1.295   5.093
  587SOL     OW 2296   0.672   1.619   3.879
  587SOL    HW1 2297   0.682   1.631   3.785
  587SOL    HW2 2298   0.618   1.541   3.888
  588SOL     OW 2299   1.839   0.154   4.690
  588SOL    HW1 2300   1.868   0.077   4.642
  588SOL    HW2 2301   1.752   0.173   4.654
  589SOL     OW 2302   0.263   0.325   4.447
  589SOL    HW1 2303   0.180   0.359   4.413
  589SOL    HW2 2304   0.249   0.315   4.541
  590SOL     OW 2305   1.207   1.606   3.756
  590SOL    HW1 2306   1.198   1.515   3.782
  590SOL    HW2 2307   1.142   1.618   3.686
  591SOL     OW 2308   0.825   1.007   5.096
  591SOL    HW1 2309   0.867   1.003   5.011
  591SOL    HW2 2310   0.824   1.100   5.118
  592SOL     OW 2311   0.915   0.910   4.014
  592SOL    HW1 2312   0.977   0.942   3.948
  592SOL    HW2 2313   0.963   0.840   4.059
  593SOL     OW 2314   1.492   1.625   3.766
  593SOL    HW1 2315   1.398   1.619   3.752
  593SOL    HW2 2316   1.529   1.631   3.678
  594SOL     OW 2317   0.373   1.307   5.215
  594SOL    HW1 2318   0.356   1.386   5.163
  594SOL    HW2 2319   0.298   1.250   5.198
  595SOL     OW 2320   1.609   1.280   5.008
  595SOL    HW1 2321   1.669   1.265   5.081
  595SOL    HW2 2322   1.554   1.353   5.037
  596SOL     OW 2323   1.052   1.107   4.431
  596SOL    HW1 2324   0.981   1.056   4.469
  596SOL    HW2 2325   1.114   1.042   4.399
  597SOL     OW 2326   1.004   0.244   4.729
  597SOL    HW1 2327   1.010   0.221   4.636
  597SOL    HW2 2328   0.998   0.159   4.774
  598SOL     OW 2329   0.604   1.489   4.207
  598SOL    HW1 2330   0.646   1.439   4.136
  598SOL    HW2 2331   0.530   1.533   4.164
  599SOL     OW 2332   1.721   0.394   5.101
  599SOL    HW1 2333   1.794   0.456   5.100
  599SOL    HW2 2334   1.751   0.322   5.045
  600SOL     OW 2335   0.252   1.344   4.000
  600SOL    HW1 2336   0.157   1.343   3.986
  600SOL    HW2 2337   0.263   1.376   4.090
  601SOL     OW 2338   0.116   1.007   5.419
  601SOL    HW1 2339   0.052   1.050   5.476
  601SOL    HW2 2340   0.194   0.997   5.473
  602SOL     OW 2341   0.658   0.209   5.222
  602SOL    HW1 2342   0.738   0.182   5.175
  602SOL    HW2 2343   0.687   0.225   5.311
  603SOL     OW 2344   0.072   0.320   3.750
  603SOL    HW1 2345   4.477   0.328   3.764
  603SOL    HW2 2346   0.099   0.407   3.719
  604SOL     OW 2347   1.430   0.859   5.125
  604SOL    HW1 2348   1.381   0.919   5.068
  604SOL    HW2 2349   1.519   0.861   5.090
  605SOL     OW 2350   0.085   0.188   4.026
  605SOL    HW1 2351   0.077   0.261   3.965
  605SOL    HW2 2352   0.164   0.142   3.999
  606SOL     OW 2353   1.179   1.340   3.841
  606SOL    HW1 2354   1.088   1.310   3.843
  606SOL    HW2 2355   1.207   1.340   3.932
  607SOL     OW 2356   0.623   0.830   5.154
  607SOL    HW1 2357   0.678   0.907   5.140
  607SOL    HW2 2358   0.685   0.758   5.162
  608SOL     OW 2359   1.454   1.725   4.674
  608SOL    HW1 2360   1.482   1.801   4.622
  608SOL    HW2 2361   1.534   1.694   4.716
  609SOL     OW 2362   0.713   0.562   5.429
  609SOL    HW1 2363   0.751   0.628   5.487
  609SOL    HW2 2364   0.748   0.479   5.461
  610SOL     OW 2365   1.470   1.202   5.356
  610SOL    HW1 2366   1.458   1.215   5.450
  610SOL    HW2 2367   1.564   1.211   5.343
  611SOL     OW 2368   0.380   1.744   5.288
  611SOL    HW1 2369   0.295   1.784   5.270
  611SOL    HW2 2370   0.358   1.664   5.337
  612SOL     OW 2371   1.670   0.881   4.979
  612SOL    HW1 2372   1.662   0.796   4.936
  612SOL    HW2 2373   1.660   0.944   4.907
  613SOL     OW 2374   1.218   0.330   4.171
  613SOL    HW1 2375   1.284   0.261   4.160
  613SOL    HW2 2376   1.246   0.377   4.250
  614SOL     OW 2377   0.587   0.738   4.394
  614SOL    HW1 2378   0.628   0.823   4.379
  614SOL    HW2 2379   0.519   0.731   4.327
  615SOL     OW 2380   1.762   0.365   5.368
  615SOL    HW1 2381   1.747   0.378   5.274
  615SOL    HW2 2382   1.684   0.320   5.399
  616SOL     OW 2383   1.743   0.933   5.235
  616SOL    HW1 2384   1.739   1.027   5.248
  616SOL    HW2 2385   1.729   0.920   5.142
  617SOL     OW 2386   0.863   1.367   3.758
  617SOL    HW1 2387   0.824   1.395   3.841
  617SOL    HW2 2388   0.881   1.449   3.711
  618SOL     OW 2389   0.661   1.792   4.670
  618SOL    HW1 2390   0.640   1.882   4.645
  618SOL    HW2 2391   0.756   1.786   4.661
  619SOL     OW 2392   0.867   0.967   4.579
  619SOL    HW1 2393   0.917   0.895   4.617
  619SOL    HW2 2394   0.833   1.015   4.654
  620SOL     OW 2395   1.079   0.988   3.813
  620SOL    HW1 2396   1.057   1.039   3.735
  620SOL    HW2 2397   1.154   0.935   3.786
  621SOL     OW 2398   1.848   1.565   4.564
  621SOL    HW1 2399   1.771   1.534   4.517
  621SOL    HW2 2400   1.881   1.488   4.611
  622SOL     OW 2401   0.230   1.305   5.582
  622SOL    HW1 2402   0.156   1.249   5.559
  622SOL    HW2 2403   0.225   1.316   5.677
  623SOL     OW 2404   0.106   1.236   4.392
  623SOL    HW1 2405   0.118   1.189   4.475
  623SOL    HW2 2406   0.166   1.192   4.331
  624SOL     OW 2407   0.682   1.403   5.352
  624SOL    HW1 2408   0.602   1.359   5.380
  624SOL    HW2 2409   0.676   1.491   5.389
  625SOL     OW 2410   1.808   0.181   4.962
  625SOL    HW1 2411   1.806   0.088   4.983
  625SOL    HW2 2412   1.824   0.185   4.868
  626SOL     OW 2413   0.441   0.431   4.256
  626SOL    HW1 2414   0.458   0.361   4.192
  626SOL    HW2 2415   0.381   0.392   4.319
  627SOL     OW 2416   1.671   1.493   4.833
  627SOL    HW1 2417   1.604   1.468   4.770
  627SOL    HW2 2418   1.683   1.416   4.888
  628SOL     OW 2419   0.311   0.505   4.978
  628SOL    HW1 2420   0.383   0.455   5.017
  628SOL    HW2 2421   0.336   0.515   4.886
  629SOL     OW 2422   0.827   1.578   4.402
  629SOL    HW1 2423   0.815   1.631   4.323
  629SOL    HW2 2424   0.750   1.521   4.405
  630SOL     OW 2425   1.432   0.216   4.842
  630SOL    HW1 2426   1.467   0.145   4.895
  630SOL    HW2 2427   1.381   0.269   4.903
  631SOL     OW 2428   0.996   0.007   4.875
  631SOL    HW1 2429   0.953   4.422   4.865
  631SOL    HW2 2430   1.089   4.487   4.885
  632SOL     OW 2431   0.772   1.333   4.038
  632SOL    HW1 2432   0.741   1.242   4.044
  632SOL    HW2 2433   0.854   1.333   4.087
  633SOL     OW 2434   0.621   1.556   5.009
  633SOL    HW1 2435   0.623   1.638   5.059
  633SOL    HW2 2436   0.708   1.550   4.970
  634SOL     OW 2437   1.340   0.053   3.878
  634SOL    HW1 2438   1.379   4.477   3.834
  634SOL    HW2 2439   1.265   0.017   3.924
  635SOL     OW 2440   1.314   0.463   4.400
  635SOL    HW1 2441   1.255   0.538   4.401
  635SOL    HW2 2442   1.303   0.422   4.486
  636SOL     OW 2443   1.585   0.200   4.592
  636SOL    HW1 2444   1.526   0.215   4.665
  636SOL    HW2 2445   1.588   0.284   4.545
  637SOL     OW 2446   0.041   1.051   4.012
  637SOL    HW1 2447   0.135   1.035   4.002
  637SOL    HW2 2448   0.020   1.019   4.099
  638SOL     OW 2449   0.884   1.652   4.067
  638SOL    HW1 2450   0.812   1.635   4.006
  638SOL    HW2 2451   0.855   1.727   4.118
  639SOL     OW 2452   0.247   0.627   5.707
  639SOL    HW1 2453   0.172   0.606   5.763
  639SOL    HW2 2454   0.214   0.613   5.618
  640SOL     OW 2455   0.194   0.293   6.575
  640SOL    HW1 2456   0.228   0.268   6.661
  640SOL    HW2 2457   0.132   0.224   6.553
  641SOL     OW 2458   0.004   0.381   6.226
  641SOL    HW1 2459   4.426   0.418   6.267
  641SOL    HW2 2460   4.471   0.310   6.172
  642SOL     OW 2461   0.568   1.287   6.761
  642SOL    HW1 2462   0.480   1.292   6.722
  642SOL    HW2 2463   0.583   1.374   6.796
  643SOL     OW 2464   1.568   1.513   6.292
  643SOL    HW1 2465   1.520   1.495   6.373
  643SOL    HW2 2466   1.501   1.526   6.226
  644SOL     OW 2467   1.134   0.698   6.285
  644SOL    HW1 2468   1.181   0.782   6.274
  644SOL    HW2 2469   1.084   0.709   6.366
  645SOL     OW 2470   1.767   0.606   5.814
  645SOL    HW1 2471   1.746   0.597   5.721
  645SOL    HW2 2472   1.734   0.526   5.854
  646SOL     OW 2473   0.755   1.142   6.626
  646SOL    HW1 2474   0.686   1.177   6.683
  646SOL    HW2 2475   0.791   1.219   6.582
  647SOL     OW 2476   0.865   0.774   7.407
  647SOL    HW1 2477   0.852   0.844   7.470
  647SOL    HW2 2478   0.889   0.818   7.325
  648SOL     OW 2479   0.685   1.004   6.233
  648SOL    HW1 2480   0.751   0.991   6.302
  648SOL    HW2 2481   0.616   1.055   6.276
  649SOL     OW 2482   0.711   1.150   7.398
  649SOL    HW1 2483   0.758   1.229   7.425
  649SOL    HW2 2484   0.628   1.182   7.362
  650SOL     OW 2485   0.335   1.421   6.655
  650SOL    HW1 2486   0.254   1.402   6.609
  650SOL    HW2 2487   0.385   1.475   6.594
  651SOL     OW 2488   1.461   1.499   6.940
  651SOL    HW1 2489   1.511   1.579   6.949
  651SOL    HW2 2490   1.400   1.499   7.014
  652SOL     OW 2491   0.439   0.395   7.077
  652SOL    HW1 2492   0.528   0.360   7.078
  652SOL    HW2 2493   0.383   0.320   7.098
  653SOL     OW 2494   1.611   0.446   6.324
  653SOL    HW1 2495   1.531   0.468   6.277
  653SOL    HW2 2496   1.630   0.524   6.377
  654SOL     OW 2497   0.245   1.691   6.064
  654SOL    HW1 2498   0.230   1.776   6.105
  654SOL    HW2 2499   0.313   1.709   5.998
  655SOL     OW 2500   1.136   1.341   7.278
  655SOL    HW1 2501   1.176   1.337   7.365
  655SOL    HW2 2502   1.084   1.262   7.272
  656SOL     OW 2503   0.249   1.427   6.113
  656SOL    HW1 2504   0.240   1.522   6.116
  656SOL    HW2 2505   0.185   1.394   6.177
  657SOL     OW 2506   0.247   1.082   6.470
  657SOL    HW1 2507   0.264   0.992   6.499
  657SOL    HW2 2508   0.188   1.117   6.536
  658SOL     OW 2509   0.613   1.791   7.017
  658SOL    HW1 2510   0.530   1.773   7.061
  658SOL    HW2 2511   0.634   1.881   7.041
  659SOL     OW 2512   0.579   0.987   5.724
  659SOL    HW1 2513   0.627   1.030   5.653
  659SOL    HW2 2514   0.624   1.015   5.804
  660SOL     OW 2515   1.582   0.116   7.057
  660SOL    HW1 2516   1.603   0.185   6.994
  660SOL    HW2 2517   1.572   0.161   7.140
  661SOL     OW 2518   0.136   0.643   6.160
  661SOL    HW1 2519   0.084   0.565   6.178
  661SOL    HW2 2520   0.108   0.706   6.227
  662SOL     OW 2521   0.033   1.602   5.726
  662SOL    HW1 2522   0.021   1.507   5.723
  662SOL    HW2 2523   0.020   1.625   5.818
  663SOL     OW 2524   1.690   0.919   6.226
  663SOL    HW1 2525   1.774   0.878   6.204
  663SOL    HW2 2526   1.667   0.970   6.148
  664SOL     OW 2527   1.645   1.108   6.015
  664SOL    HW1 2528   1.731   1.113   5.974
  664SOL    HW2 2529   1.651   1.169   6.089
  665SOL     OW 2530   0.105   0.765   7.168
  665SOL    HW1 2531   0.196   0.760   7.139
  665SOL    HW2 2532   0.091   0.857   7.188
  666SOL     OW 2533   0.614   1.385   6.322
  666SOL    HW1 2534   0.567   1.302   6.332
  666SOL    HW2 2535   0.597   1.412   6.232
  667SOL     OW 2536   1.289   1.238   7.009
  667SOL    HW1 2537   1.321   1.171   6.949
  667SOL    HW2 2538   1.346   1.232   7.086
  668SOL     OW 2539   0.820   0.013   6.137
  668SOL    HW1 2540   0.855   0.099   6.113
  668SOL    HW2 2541   0.726   0.021   6.126
  669SOL     OW 2542   0.179   0.941   6.865
  669SOL    HW1 2543   0.271   0.923   6.845
  669SOL    HW2 2544   0.133   0.925   6.783
  670SOL     OW 2545   1.532   0.993   5.784
  670SOL    HW1 2546   1.461   0.937   5.817
  670SOL    HW2 2547   1.573   1.028   5.863
  671SOL     OW 2548   1.185   1.806   7.208
  671SOL    HW1 2549   1.197   1.864   7.133
  671SOL    HW2 2550   1.201   1.718   7.173
  672SOL     OW 2551   0.318   0.260   7.355
  672SOL    HW1 2552   0.386   0.311   7.399
  672SOL    HW2 2553   0.241   0.267   7.413
  673SOL     OW 2554   1.464   1.421   6.536
  673SOL    HW1 2555   1.397   1.435   6.603
  673SOL    HW2 2556   1.454   1.330   6.509
  674SOL     OW 2557   0.596   0.723   5.852
  674SOL    HW1 2558   0.598   0.804   5.801
  674SOL    HW2 2559   0.530   0.738   5.919
  675SOL     OW 2560   1.291   0.363   6.519
  675SOL    HW1 2561   1.202   0.333   6.503
  675SOL    HW2 2562   1.327   0.300   6.581
  676SOL     OW 2563   0.797   0.618   7.040
  676SOL    HW1 2564   0.769   0.593   7.128
  676SOL    HW2 2565   0.754   0.555   6.982
  677SOL     OW 2566   1.388   0.479   7.262
  677SOL    HW1 2567   1.392   0.523   7.347
  677SOL    HW2 2568   1.455   0.411   7.268
  678SOL     OW 2569   0.955   0.888   7.168
  678SOL    HW1 2570   1.009   0.817   7.133
  678SOL    HW2 2571   0.908   0.922   7.092
  679SOL     OW 2572   0.997   0.417   6.822
  679SOL    HW1 2573   0.910   0.426   6.860
  679SOL    HW2 2574   0.983   0.365   6.743
  680SOL     OW 2575   1.050   0.698   6.013
  680SOL    HW1 2576   1.066   0.690   6.107
  680SOL    HW2 2577   0.967   0.651   5.999
  681SOL     OW 2578   0.097   0.826   6.370
  681SOL    HW1 2579   0.184   0.810   6.407
  681SOL    HW2 2580   0.044   0.855   6.444
  682SOL     OW 2581   0.123   1.858   7.163
  682SOL    HW1 2582   0.117   1.833   7.255
  682SOL    HW2 2583   0.046   1.818   7.122
  683SOL     OW 2584   0.853   0.369   5.766
  683SOL    HW1 2585   0.927   0.403   5.715
  683SOL    HW2 2586   0.870   0.275   5.772
  684SOL     OW 2587   1.704   0.573   7.414
  684SOL    HW1 2588   1.668   0.648   7.367
  684SOL    HW2 2589   1.740   0.517   7.346
  685SOL     OW 2590   1.377   1.142   6.126
  685SOL    HW1 2591   1.457   1.130   6.075
  685SOL    HW2 2592   1.324   1.203   6.075
  686SOL     OW 2593   0.542   0.204   6.487
  686SOL    HW1 2594   0.562   0.223   6.578
  686SOL    HW2 2595   0.533   0.290   6.445
  687SOL     OW 2596   1.008   1.446   6.060
  687SOL    HW1 2597   0.968   1.517   6.010
  687SOL    HW2 2598   0.986   1.465   6.151
  688SOL     OW 2599   0.356   1.810   6.444
  688SOL    HW1 2600   0.397   1.725   6.454
  688SOL    HW2 2601   0.426   1.873   6.460
  689SOL     OW 2602   1.799   1.053   6.456
  689SOL    HW1 2603   1.745   1.041   6.378
  689SOL    HW2 2604   1.737   1.061   6.528
  690SOL     OW 2605   1.228   1.539   7.099
  690SOL    HW1 2606   1.214   1.466   7.160
  690SOL    HW2 2607   1.165   1.524   7.029
  691SOL     OW 2608   0.316   0.954   5.839
  691SOL    HW1 2609   0.400   0.977   5.799
  691SOL    HW2 2610   0.300   0.864   5.811
  692SOL     OW 2611   1.479   0.742   6.311
  692SOL    HW1 2612   1.468   0.698   6.395
  692SOL    HW2 2613   1.556   0.798   6.323
  693SOL     OW 2614   0.467   1.262   7.321
  693SOL    HW1 2615   0.440   1.269   7.230
  693SOL    HW2 2616   0.386   1.267   7.371
  694SOL     OW 2617   1.118   1.762   5.829
  694SOL    HW1 2618   1.039   1.723   5.867
  694SOL    HW2 2619   1.139   1.706   5.754
  695SOL     OW 2620   0.163   0.265   7.096
  695SOL    HW1 2621   0.136   0.352   7.067
  695SOL    HW2 2622   0.198   0.278   7.184
  696SOL     OW 2623   1.632   1.382   5.674
  696SOL    HW1 2624   1.587   1.467   5.669
  696SOL    HW2 2625   1.563   1.318   5.656
  697SOL     OW 2626   0.469   1.743   5.900
  697SOL    HW1 2627   0.511   1.797   5.967
  697SOL    HW2 2628   0.542   1.709   5.848
  698SOL     OW 2629   1.420   0.138   6.004
  698SOL    HW1 2630   1.404   0.087   5.924
  698SOL    HW2 2631   1.515   0.132   6.017
  699SOL     OW 2632   0.256   1.789   6.820
  699SOL    HW1 2633   0.304   1.714   6.856
  699SOL    HW2 2634   0.225   1.758   6.735
  700SOL     OW 2635   0.938   1.700   6.484
  700SOL    HW1 2636   1.014   1.647   6.508
  700SOL    HW2 2637   0.894   1.649   6.416
  701SOL     OW 2638   0.394   0.693   6.059
  701SOL    HW1 2639   0.419   0.602   6.071
  701SOL    HW2 2640   0.302   0.697   6.085
  702SOL     OW 2641   1.525   0.233   7.308
  702SOL    HW1 2642   1.525   0.255   7.401
  702SOL    HW2 2643   1.447   0.178   7.297
  703SOL     OW 2644   0.625   0.121   5.704
  703SOL    HW1 2645   0.713   0.086   5.716
  703SOL    HW2 2646   0.595   0.084   5.621
  704SOL     OW 2647   0.768   0.270   7.340
  704SOL    HW1 2648   0.835   0.202   7.349
  704SOL    HW2 2649   0.728   0.275   7.427
  705SOL     OW 2650   0.877   1.522   6.779
  705SOL    HW1 2651   0.861   1.485   6.692
  705SOL    HW2 2652   0.946   1.467   6.816
  706SOL     OW 2653   1.341   0.589   7.015
  706SOL    HW1 2654   1.369   0.560   7.102
  706SOL    HW2 2655   1.376   0.678   7.007
  707SOL     OW 2656   0.815   1.396   6.525
  707SOL    HW1 2657   0.899   1.384   6.481
  707SOL    HW2 2658   0.750   1.396   6.455
  708SOL     OW 2659   0.923   0.518   6.486
  708SOL    HW1 2660   0.906   0.516   6.392
  708SOL    HW2 2661   0.961   0.432   6.505
  709SOL     OW 2662   0.561   0.069   6.094
  709SOL    HW1 2663   0.475   0.055   6.132
  709SOL    HW2 2664   0.549   0.139   6.030
  710SOL     OW 2665   1.429   1.199   5.627
  710SOL    HW1 2666   1.459   1.123   5.677
  710SOL    HW2 2667   1.344   1.220   5.664
  711SOL     OW 2668   0.304   0.074   5.774
  711SOL    HW1 2669   0.388   0.120   5.771
  711SOL    HW2 2670   0.320   4.499   5.831
  712SOL     OW 2671   0.953   0.240   6.055
  712SOL    HW1 2672   0.901   0.295   5.997
  712SOL    HW2 2673   1.042   0.276   6.049
  713SOL     OW 2674   1.080   0.681   7.046
  713SOL    HW1 2675   1.010   0.616   7.047
  713SOL    HW2 2676   1.160   0.629   7.035
  714SOL     OW 2677   1.223   1.568   6.381
  714SOL    HW1 2678   1.244   1.635   6.316
  714SOL    HW2 2679   1.292   1.577   6.447
  715SOL     OW 2680   0.466   1.150   6.322
  715SOL    HW1 2681   0.396   1.130   6.383
  715SOL    HW2 2682   0.427   1.134   6.235
  716SOL     OW 2683   1.270   1.794   6.193
  716SOL    HW1 2684   1.304   1.861   6.133
  716SOL    HW2 2685   1.199   1.838   6.240
  717SOL     OW 2686   1.029   0.547   5.603
  717SOL    HW1 2687   0.981   0.629   5.587
  717SOL    HW2 2688   1.088   0.568   5.676
  718SOL     OW 2689   0.094   0.518   6.999
  718SOL    HW1 2690   0.151   0.526   6.923
  718SOL    HW2 2691   0.059   0.606   7.013
  719SOL     OW 2692   0.561   0.244   6.753
  719SOL    HW1 2693   0.592   0.161   6.788
  719SOL    HW2 2694   0.467   0.245   6.771
  720SOL     OW 2695   0.865   0.503   6.213
  720SOL    HW1 2696   0.820   0.544   6.139
  720SOL    HW2 2697   0.833   0.413   6.214
  721SOL     OW 2698   0.963   0.025   6.370
  721SOL    HW1 2699   0.915   0.024   6.287
  721SOL    HW2 2700   0.977   4.432   6.390
  722SOL     OW 2701   1.437   1.163   6.444
  722SOL    HW1 2702   1.368   1.097   6.441
  722SOL    HW2 2703   1.463   1.175   6.352
  723SOL     OW 2704   1.466   0.605   6.561
  723SOL    HW1 2705   1.413   0.525   6.563
  723SOL    HW2 2706   1.524   0.597   6.637
  724SOL     OW 2707   1.846   0.814   5.970
  724SOL    HW1 2708   1.902   0.762   6.027
  724SOL    HW2 2709   1.817   0.753   5.902
  725SOL     OW 2710   0.492   1.417   5.745
  725SOL    HW1 2711   0.415   1.388   5.794
  725SOL    HW2 2712   0.474   1.390   5.655
  726SOL     OW 2713   1.669   1.266   6.233
  726SOL    HW1 2714   1.764   1.267   6.243
  726SOL    HW2 2715   1.641   1.355   6.253
  727SOL     OW 2716   1.394   0.571   5.656
  727SOL    HW1 2717   1.333   0.555   5.727
  727SOL    HW2 2718   1.480   0.552   5.693
  728SOL     OW 2719   0.522   0.264   5.907
  728SOL    HW1 2720   0.570   0.215   5.841
  728SOL    HW2 2721   0.506   0.349   5.866
  729SOL     OW 2722   1.753   1.238   7.160
  729SOL    HW1 2723   1.840   1.200   7.155
  729SOL    HW2 2724   1.768   1.329   7.189
  730SOL     OW 2725   1.059   1.354   6.920
  730SOL    HW1 2726   0.984   1.323   6.971
  730SOL    HW2 2727   1.134   1.312   6.961
  731SOL     OW 2728   1.608   1.625   7.240
  731SOL    HW1 2729   1.602   1.659   7.151
  731SOL    HW2 2730   1.691   1.578   7.242
  732SOL     OW 2731   1.129   1.204   6.692
  732SOL    HW1 2732   1.069   1.241   6.757
  732SOL    HW2 2733   1.095   1.234   6.608
  733SOL     OW 2734   1.628   1.098   6.664
  733SOL    HW1 2735   1.623   1.160   6.737
  733SOL    HW2 2736   1.549   1.115   6.613
  734SOL     OW 2737   0.902   0.133   6.973
  734SOL    HW1 2738   0.924   0.088   6.892
  734SOL    HW2 2739   0.986   0.148   7.016
  735SOL     OW 2740   0.984   1.115   7.309
  735SOL    HW1 2741   0.892   1.130   7.330
  735SOL    HW2 2742   0.983   1.037   7.253
  736SOL     OW 2743   0.709   1.061   5.958
  736SOL    HW1 2744   0.696   1.045   6.052
  736SOL    HW2 2745   0.784   1.007   5.935
  737SOL     OW 2746   0.430   0.826   6.827
  737SOL    HW1 2747   0.498   0.836   6.893
  737SOL    HW2 2748   0.372   0.759   6.863
  738SOL     OW 2749   1.269   0.375   6.859
  738SOL    HW1 2750   1.301   0.454   6.904
  738SOL    HW2 2751   1.180   0.398   6.832
  739SOL     OW 2752   0.062   1.576   6.929
  739SOL    HW1 2753   0.036   1.665   6.905
  739SOL    HW2 2754   0.158   1.580   6.934
  740SOL     OW 2755   0.347   1.108   6.079
  740SOL    HW1 2756   0.356   1.182   6.018
  740SOL    HW2 2757   0.347   1.031   6.023
  741SOL     OW 2758   0.564   0.526   6.439
  741SOL    HW1 2759   0.575   0.587   6.366
  741SOL    HW2 2760   0.624   0.558   6.507
  742SOL     OW 2761   1.248   1.348   5.975
  742SOL    HW1 2762   1.304   1.417   6.011
  742SOL    HW2 2763   1.161   1.369   6.009
  743SOL     OW 2764   1.280   1.457   6.733
  743SOL    HW1 2765   1.336   1.460   6.811
  743SOL    HW2 2766   1.225   1.380   6.745
  744SOL     OW 2767   1.582   0.624   6.063
  744SOL    HW1 2768   1.535   0.674   6.130
  744SOL    HW2 2769   1.627   0.689   6.010
  745SOL     OW 2770   0.347   1.531   6.901
  745SOL    HW1 2771   0.333   1.484   6.819
  745SOL    HW2 2772   0.442   1.541   6.908
  746SOL     OW 2773   0.484   0.759   7.256
  746SOL    HW1 2774   0.509   0.797   7.172
  746SOL    HW2 2775   0.528   0.674   7.257
  747SOL     OW 2776   1.601   0.778   7.267
  747SOL    HW1 2777   1.515   0.820   7.260
  747SOL    HW2 2778   1.653   0.820   7.199
  748SOL     OW 2779   1.005   0.086   7.306
  748SOL    HW1 2780   1.035   0.168   7.268
  748SOL    HW2 2781   1.029   0.019   7.241
  749SOL     OW 2782   0.495   0.044   7.337
  749SOL    HW1 2783   0.480   4.497   7.255
  749SOL    HW2 2784   0.429   0.113   7.338
  750SOL     OW 2785   0.589   0.874   6.610
  750SOL    HW1 2786   0.619   0.965   6.612
  750SOL    HW2 2787   0.533   0.865   6.687
  751SOL     OW 2788   1.358   0.858   6.616
  751SOL    HW1 2789   1.275   0.850   6.570
  751SOL    HW2 2790   1.398   0.772   6.610
  752SOL     OW 2791   1.204   0.535   5.849
  752SOL    HW1 2792   1.210   0.455   5.901
  752SOL    HW2 2793   1.161   0.598   5.907
  753SOL     OW 2794   0.284   0.216   6.820
  753SOL    HW1 2795   0.245   0.233   6.906
  753SOL    HW2 2796   0.325   0.130   6.829
  754SOL     OW 2797   0.039   1.313   6.871
  754SOL    HW1 2798   0.076   1.265   6.946
  754SOL    HW2 2799   0.045   1.405   6.897
  755SOL     OW 2800   0.724   0.631   6.644
  755SOL    HW1 2801   0.798   0.611   6.587
  755SOL    HW2 2802   0.698   0.720   6.619
  756SOL     OW 2803   1.734   0.959   7.438
  756SOL    HW1 2804   1.687   0.899   7.380
  756SOL    HW2 2805   1.675   0.972   7.512
  757SOL     OW 2806   0.320   0.074   6.217
  757SOL    HW1 2807   0.302   0.163   6.248
  757SOL    HW2 2808   0.308   0.018   6.294
  758SOL     OW 2809   1.614   0.378   5.949
  758SOL    HW1 2810   1.643   0.314   6.014
  758SOL    HW2 2811   1.592   0.456   5.999
  759SOL     OW 2812   1.029   0.761   6.547
  759SOL    HW1 2813   1.026   0.778   6.641
  759SOL    HW2 2814   1.000   0.671   6.537
  760SOL     OW 2815   0.983   1.567   7.303
  760SOL    HW1 2816   0.967   1.610   7.219
  760SOL    HW2 2817   1.025   1.484   7.279
  761SOL     OW 2818   1.856   1.506   7.192
  761SOL    HW1 2819   1.872   1.532   7.101
  761SOL    HW2 2820   1.937   1.526   7.238
  762SOL     OW 2821   0.347   0.933   7.404
  762SOL    HW1 2822   0.419   0.963   7.459
  762SOL    HW2 2823   0.386   0.866   7.348
  763SOL     OW 2824   1.531   0.265   5.714
  763SOL    HW1 2825   1.459   0.209   5.743
  763SOL    HW2 2826   1.560   0.310   5.793
  764SOL     OW 2827   1.291   0.826   5.617
  764SOL    HW1 2828   1.334   0.740   5.619
  764SOL    HW2 2829   1.323   0.866   5.535
  765SOL     OW 2830   1.065   1.335   6.439
  765SOL    HW1 2831   1.068   1.262   6.377
  765SOL    HW2 2832   1.127   1.399   6.405
  766SOL     OW 2833   0.318   0.812   6.533
  766SOL    HW1 2834   0.412   0.830   6.531
  766SOL    HW2 2835   0.311   0.722   6.563
  767SOL     OW 2836   0.335   0.530   6.576
  767SOL    HW1 2837   0.290   0.447   6.557
  767SOL    HW2 2838   0.413   0.528   6.520
  768SOL     OW 2839   1.135   0.374   7.282
  768SOL    HW1 2840   1.086   0.438   7.333
  768SOL    HW2 2841   1.221   0.414   7.269
  769SOL     OW 2842   1.157   0.213   7.059
  769SOL    HW1 2843   1.151   0.277   7.130
  769SOL    HW2 2844   1.197   0.261   6.987
  770SOL     OW 2845   4.491   1.322   5.791
  770SOL    HW1 2846   4.399   1.338   5.773
  770SOL    HW2 2847   4.496   1.229   5.812
  771SOL     OW 2848   0.097   1.776   6.526
  771SOL    HW1 2849   0.059   1.723   6.456
  771SOL    HW2 2850   0.185   1.798   6.494
  772SOL     OW 2851   0.496   1.574   6.493
  772SOL    HW1 2852   0.565   1.636   6.517
  772SOL    HW2 2853   0.541   1.510   6.436
  773SOL     OW 2854   0.984   0.794   6.813
  773SOL    HW1 2855   1.039   0.770   6.888
  773SOL    HW2 2856   0.899   0.755   6.833
  774SOL     OW 2857   0.038   0.568   6.697
  774SOL    HW1 2858   0.112   0.525   6.655
  774SOL    HW2 2859   0.015   0.509   6.770
  775SOL     OW 2860   0.180   0.524   7.299
  775SOL    HW1 2861   0.266   0.506   7.263
  775SOL    HW2 2862   0.152   0.604   7.254
  776SOL     OW 2863   1.377   0.939   7.245
  776SOL    HW1 2864   1.398   1.033   7.243
  776SOL    HW2 2865   1.374   0.914   7.152
  777SOL     OW 2866   0.811   0.574   5.941
  777SOL    HW1 2867   0.815   0.503   5.877
  777SOL    HW2 2868   0.739   0.629   5.912
  778SOL     OW 2869   1.640   0.601   6.772
  778SOL    HW1 2870   1.630   0.542   6.847
  778SOL    HW2 2871   1.728   0.582   6.738
  779SOL     OW 2872   0.272   1.562   7.326
  779SOL    HW1 2873   0.216   1.614   7.384
  779SOL    HW2 2874   0.253   1.471   7.350
  780SOL     OW 2875   0.687   0.464   6.853
  780SOL    HW1 2876   0.648   0.384   6.818
  780SOL    HW2 2877   0.693   0.522   6.777
  781SOL     OW 2878   0.928   1.679   7.053
  781SOL    HW1 2879   0.902   1.645   6.968
  781SOL    HW2 2880   0.924   1.774   7.044
  782SOL     OW 2881   0.472   0.491   5.769
  782SOL    HW1 2882   0.532   0.562   5.792
  782SOL    HW2 2883   0.389   0.534   5.753
  783SOL     OW 2884   0.162   1.141   7.047
  783SOL    HW1 2885   0.145   1.095   7.130
  783SOL    HW2 2886   0.169   1.070   6.982
  784SOL     OW 2887   1.326   1.047   6.809
  784SOL    HW1 2888   1.349   0.984   6.741
  784SOL    HW2 2889   1.256   1.099   6.771
  785SOL     OW 2890   1.312   0.856   5.892
  785SOL    HW1 2891   1.236   0.827   5.943
  785SOL    HW2 2892   1.285   0.843   5.801
  786SOL     OW 2893   1.757   1.744   6.737
  786SOL    HW1 2894   1.819   1.775   6.670
  786SOL    HW2 2895   1.743   1.652   6.715
  787SOL     OW 2896   1.240   1.733   6.700
  787SOL    HW1 2897   1.322   1.753   6.656
  787SOL    HW2 2898   1.245   1.639   6.718
  788SOL     OW 2899   0.067   1.185   6.635
  788SOL    HW1 2900   0.066   1.217   6.726
  788SOL    HW2 2901   0.022   1.253   6.585
  789SOL     OW 2902   0.679   1.666   7.315
  789SOL    HW1 2903   0.623   1.743   7.309
  789SOL    HW2 2904   0.743   1.676   7.245
  790SOL     OW 2905   1.719   0.130   6.079
  790SOL    HW1 2906   1.790   0.138   6.016
  790SOL    HW2 2907   1.745   0.057   6.136
  791SOL     OW 2908   1.395   1.568   6.071
  791SOL    HW1 2909   1.432   1.595   5.987
  791SOL    HW2 2910   1.343   1.644   6.099
  792SOL     OW 2911   0.118   1.808   7.434
  792SOL    HW1 2912   0.079   1.735   7.482
  792SOL    HW2 2913   0.182   1.845   7.495
  793SOL     OW 2914   1.278   0.927   6.259
  793SOL    HW1 2915   1.351   0.865   6.264
  793SOL    HW2 2916   1.312   0.999   6.206
  794SOL     OW 2917   0.815   1.273   7.016
  794SOL    HW1 2918   0.787   1.312   7.099
  794SOL    HW2 2919   0.744   1.295   6.955
  795SOL     OW 2920   0.672   1.619   5.741
  795SOL    HW1 2921   0.682   1.631   5.647
  795SOL    HW2 2922   0.617   1.541   5.750
  796SOL     OW 2923   1.625   1.726   6.980
  796SOL    HW1 2924   1.673   1.732   6.897
  796SOL    HW2 2925   1.613   1.817   7.007
  797SOL     OW 2926   1.839   0.154   6.552
  797SOL    HW1 2927   1.868   0.077   6.504
  797SOL    HW2 2928   1.752   0.173   6.516
  798SOL     OW 2929   0.263   0.325   6.309
  798SOL    HW1 2930   0.180   0.359   6.275
  798SOL    HW2 2931   0.249   0.315   6.403
  799SOL     OW 2932   1.202   1.606   5.620
  799SOL    HW1 2933   1.195   1.514   5.643
  799SOL    HW2 2934   1.139   1.618   5.549
  800SOL     OW 2935   0.825   1.007   6.958
  800SOL    HW1 2936   0.868   1.003   6.873
  800SOL    HW2 2937   0.824   1.100   6.980
  801SOL     OW 2938   0.915   0.910   5.876
  801SOL    HW1 2939   0.977   0.942   5.810
  801SOL    HW2 2940   0.962   0.841   5.921
  802SOL     OW 2941   1.482   1.616   5.635
  802SOL    HW1 2942   1.387   1.619   5.625
  802SOL    HW2 2943   1.516   1.624   5.546
  803SOL     OW 2944   0.373   1.307   7.077
  803SOL    HW1 2945   0.356   1.386   7.025
  803SOL    HW2 2946   0.298   1.250   7.060
  804SOL     OW 2947   1.609   1.280   6.869
  804SOL    HW1 2948   1.671   1.272   6.942
  804SOL    HW2 2949   1.550   1.350   6.896
  805SOL     OW 2950   1.052   1.107   6.291
  805SOL    HW1 2951   0.981   1.056   6.331
  805SOL    HW2 2952   1.114   1.041   6.261
  806SOL     OW 2953   1.004   0.244   6.591
  806SOL    HW1 2954   1.011   0.221   6.498
  806SOL    HW2 2955   0.998   0.159   6.636
  807SOL     OW 2956   0.604   1.490   6.068
  807SOL    HW1 2957   0.646   1.440   5.998
  807SOL    HW2 2958   0.530   1.533   6.027
  808SOL     OW 2959   1.721   0.394   6.963
  808SOL    HW1 2960   1.794   0.456   6.962
  808SOL    HW2 2961   1.751   0.322   6.906
  809SOL     OW 2962   0.252   1.344   5.862
  809SOL    HW1 2963   0.157   1.343   5.848
  809SOL    HW2 2964   0.263   1.376   5.952
  810SOL     OW 2965   0.116   1.007   7.281
  810SOL    HW1 2966   0.052   1.050   7.338
  810SOL    HW2 2967   0.194   0.997   7.335
  811SOL     OW 2968   0.658   0.209   7.083
  811SOL    HW1 2969   0.738   0.182   7.037
  811SOL    HW2 2970   0.687   0.225   7.173
  812SOL     OW 2971   0.072   0.320   5.612
  812SOL    HW1 2972   4.477   0.328   5.626
  812SOL    HW2 2973   0.099   0.407   5.581
  813SOL     OW 2974   1.430   0.858   6.986
  813SOL    HW1 2975   1.381   0.919   6.930
  813SOL    HW2 2976   1.519   0.861   6.952
  814SOL     OW 2977   0.085   0.188   5.889
  814SOL    HW1 2978   0.076   0.261   5.826
  814SOL    HW2 2979   0.164   0.142   5.861
  815SOL     OW 2980   1.178   1.339   5.702
  815SOL    HW1 2981   1.088   1.309   5.704
  815SOL    HW2 2982   1.206   1.339   5.794
  816SOL     OW 2983   0.623   0.830   7.016
  816SOL    HW1 2984   0.678   0.907   7.003
  816SOL    HW2 2985   0.685   0.758   7.025
  817SOL     OW 2986   1.483   1.774   6.569
  817SOL    HW1 2987   1.512   1.817   6.488
  817SOL    HW2 2988   1.563   1.755   6.616
  818SOL     OW 2989   0.713   0.562   7.291
  818SOL    HW1 2990   0.751   0.628   7.349
  818SOL    HW2 2991   0.748   0.479   7.323
  819SOL     OW 2992   1.471   1.200   7.218
  819SOL    HW1 2993   1.459   1.214   7.312
  819SOL    HW2 2994   1.564   1.215   7.204
  820SOL     OW 2995   0.380   1.744   7.150
  820SOL    HW1 2996   0.295   1.784   7.132
  820SOL    HW2 2997   0.359   1.664   7.198
  821SOL     OW 2998   1.670   0.881   6.841
  821SOL    HW1 2999   1.662   0.796   6.798
  821SOL    HW2 3000   1.660   0.945   6.771
  822SOL     OW 3001   1.218   0.330   6.033
  822SOL    HW1 3002   1.284   0.261   6.023
  822SOL    HW2 3003   1.246   0.377   6.112
  823SOL     OW 3004   0.587   0.738   6.256
  823SOL    HW1 3005   0.628   0.823   6.241
  823SOL    HW2 3006   0.520   0.731   6.189
  824SOL     OW 3007   1.762   0.365   7.230
  824SOL    HW1 3008   1.747   0.379   7.136
  824SOL    HW2 3009   1.684   0.320   7.261
  825SOL     OW 3010   1.745   0.933   7.098
  825SOL    HW1 3011   1.742   1.028   7.112
  825SOL    HW2 3012   1.730   0.922   7.004
  826SOL     OW 3013   0.864   1.367   5.620
  826SOL    HW1 3014   0.824   1.394   5.703
  826SOL    HW2 3015   0.880   1.450   5.574
  827SOL     OW 3016   0.660   1.792   6.531
  827SOL    HW1 3017   0.640   1.882   6.508
  827SOL    HW2 3018   0.755   1.786   6.524
  828SOL     OW 3019   0.868   0.967   6.441
  828SOL    HW1 3020   0.917   0.895   6.479
  828SOL    HW2 3021   0.833   1.015   6.516
  829SOL     OW 3022   1.079   0.989   5.675
  829SOL    HW1 3023   1.057   1.039   5.596
  829SOL    HW2 3024   1.154   0.935   5.648
  830SOL     OW 3025   1.858   1.556   6.456
  830SOL    HW1 3026   1.794   1.526   6.392
  830SOL    HW2 3027   1.859   1.487   6.523
  831SOL     OW 3028   0.230   1.306   7.444
  831SOL    HW1 3029   0.156   1.249   7.422
  831SOL    HW2 3030   0.225   1.316   7.539
  832SOL     OW 3031   0.106   1.236   6.254
  832SOL    HW1 3032   0.118   1.189   6.337
  832SOL    HW2 3033   0.166   1.191   6.193
  833SOL     OW 3034   0.682   1.403   7.214
  833SOL    HW1 3035   0.602   1.359   7.243
  833SOL    HW2 3036   0.676   1.491   7.251
  834SOL     OW 3037   1.809   0.181   6.824
  834SOL    HW1 3038   1.806   0.088   6.845
  834SOL    HW2 3039   1.824   0.185   6.730
  835SOL     OW 3040   0.441   0.431   6.117
  835SOL    HW1 3041   0.458   0.361   6.054
  835SOL    HW2 3042   0.381   0.392   6.181
  836SOL     OW 3043   1.696   1.487   6.690
  836SOL    HW1 3044   1.618   1.463   6.641
  836SOL    HW2 3045   1.707   1.416   6.754
  837SOL     OW 3046   0.311   0.504   6.840
  837SOL    HW1 3047   0.383   0.456   6.879
  837SOL    HW2 3048   0.336   0.515   6.748
  838SOL     OW 3049   0.828   1.577   6.263
  838SOL    HW1 3050   0.814   1.630   6.185
  838SOL    HW2 3051   0.751   1.520   6.268
  839SOL     OW 3052   1.432   0.216   6.704
  839SOL    HW1 3053   1.467   0.144   6.757
  839SOL    HW2 3054   1.381   0.269   6.765
  840SOL     OW 3055   0.996   0.007   6.737
  840SOL    HW1 3056   0.953   4.422   6.727
  840SOL    HW2 3057   1.089   4.487   6.748
  841SOL     OW 3058   0.772   1.332   5.899
  841SOL    HW1 3059   0.740   1.242   5.906
  841SOL    HW2 3060   0.854   1.332   5.949
  842SOL     OW 3061   0.621   1.556   6.871
  842SOL    HW1 3062   0.623   1.638   6.921
  842SOL    HW2 3063   0.708   1.550   6.833
  843SOL     OW 3064   1.340   0.053   5.740
  843SOL    HW1 3065   1.379   4.477   5.696
  843SOL    HW2 3066   1.265   0.017   5.786
  844SOL     OW 3067   1.314   0.463   6.262
  844SOL    HW1 3068   1.255   0.538   6.263
  844SOL    HW2 3069   1.303   0.422   6.348
  845SOL     OW 3070   1.585   0.200   6.454
  845SOL    HW1 3071   1.526   0.215   6.527
  845SOL    HW2 3072   1.588   0.284   6.407
  846SOL     OW 3073   0.041   1.052   5.874
  846SOL    HW1 3074   0.135   1.035   5.864
  846SOL    HW2 3075   0.020   1.019   5.961
  847SOL     OW 3076   0.881   1.651   5.929
  847SOL    HW1 3077   0.809   1.634   5.869
  847SOL    HW2 3078   0.852   1.726   5.981
  848SOL     OW 3079   0.246   0.627   7.569
  848SOL    HW1 3080   0.172   0.606   7.625
  848SOL    HW2 3081   0.214   0.613   7.480
  849SOL     OW 3082   0.194   0.293   8.437
  849SOL    HW1 3083   0.228   0.268   8.523
  849SOL    HW2 3084   0.131   0.224   8.415
  850SOL     OW 3085   0.004   0.381   8.088
  850SOL    HW1 3086   4.426   0.418   8.129
  850SOL    HW2 3087   4.471   0.310   8.034
  851SOL     OW 3088   0.567   1.287   8.623
  851SOL    HW1 3089   0.480   1.292   8.584
  851SOL    HW2 3090   0.583   1.374   8.658
  852SOL     OW 3091   1.560   1.512   8.155
  852SOL    HW1 3092   1.518   1.493   8.238
  852SOL    HW2 3093   1.489   1.516   8.092
  853SOL     OW 3094   1.134   0.698   8.147
  853SOL    HW1 3095   1.181   0.782   8.136
  853SOL    HW2 3096   1.084   0.709   8.228
  854SOL     OW 3097   1.767   0.607   7.676
  854SOL    HW1 3098   1.746   0.597   7.583
  854SOL    HW2 3099   1.734   0.527   7.716
  855SOL     OW 3100   0.755   1.142   8.488
  855SOL    HW1 3101   0.686   1.177   8.545
  855SOL    HW2 3102   0.791   1.219   8.444
  856SOL     OW 3103   0.865   0.774   9.269
  856SOL    HW1 3104   0.852   0.844   9.332
  856SOL    HW2 3105   0.889   0.818   9.187
  857SOL     OW 3106   0.685   1.004   8.095
  857SOL    HW1 3107   0.751   0.991   8.164
  857SOL    HW2 3108   0.616   1.055   8.138
  858SOL     OW 3109   0.710   1.150   9.260
  858SOL    HW1 3110   0.758   1.229   9.287
  858SOL    HW2 3111   0.628   1.182   9.224
  859SOL     OW 3112   0.335   1.421   8.517
  859SOL    HW1 3113   0.254   1.402   8.471
  859SOL    HW2 3114   0.386   1.475   8.456
  860SOL     OW 3115   1.461   1.500   8.801
  860SOL    HW1 3116   1.512   1.580   8.810
  860SOL    HW2 3117   1.401   1.501   8.875
  861SOL     OW 3118   0.439   0.395   8.939
  861SOL    HW1 3119   0.528   0.360   8.939
  861SOL    HW2 3120   0.383   0.320   8.960
  862SOL     OW 3121   1.611   0.446   8.186
  862SOL    HW1 3122   1.531   0.468   8.139
  862SOL    HW2 3123   1.629   0.524   8.239
  863SOL     OW 3124   0.245   1.692   7.925
  863SOL    HW1 3125   0.231   1.776   7.967
  863SOL    HW2 3126   0.313   1.708   7.860
  864SOL     OW 3127   1.136   1.341   9.140
  864SOL    HW1 3128   1.176   1.337   9.227
  864SOL    HW2 3129   1.084   1.261   9.134
  865SOL     OW 3130   0.248   1.427   7.975
  865SOL    HW1 3131   0.239   1.522   7.978
  865SOL    HW2 3132   0.185   1.395   8.040
  866SOL     OW 3133   0.247   1.082   8.332
  866SOL    HW1 3134   0.264   0.992   8.361
  866SOL    HW2 3135   0.187   1.117   8.398
  867SOL     OW 3136   0.613   1.791   8.879
  867SOL    HW1 3137   0.530   1.773   8.923
  867SOL    HW2 3138   0.634   1.881   8.903
  868SOL     OW 3139   0.579   0.987   7.586
  868SOL    HW1 3140   0.627   1.030   7.515
  868SOL    HW2 3141   0.624   1.015   7.666
  869SOL     OW 3142   1.582   0.116   8.919
  869SOL    HW1 3143   1.603   0.185   8.856
  869SOL    HW2 3144   1.572   0.161   9.002
  870SOL     OW 3145   0.136   0.643   8.022
  870SOL    HW1 3146   0.084   0.565   8.040
  870SOL    HW2 3147   0.108   0.706   8.088
  871SOL     OW 3148   1.842   1.759   7.782
  871SOL    HW1 3149   1.902   1.731   7.850
  871SOL    HW2 3150   1.867   1.850   7.765
  872SOL     OW 3151   0.032   1.602   7.588
  872SOL    HW1 3152   0.021   1.507   7.586
  872SOL    HW2 3153   0.022   1.625   7.681
  873SOL     OW 3154   1.691   0.920   8.089
  873SOL    HW1 3155   1.774   0.877   8.066
  873SOL    HW2 3156   1.668   0.970   8.010
  874SOL     OW 3157   1.646   1.107   7.877
  874SOL    HW1 3158   1.732   1.113   7.835
  874SOL    HW2 3159   1.650   1.168   7.950
  875SOL     OW 3160   0.105   0.764   9.030
  875SOL    HW1 3161   0.196   0.760   9.001
  875SOL    HW2 3162   0.091   0.857   9.050
  876SOL     OW 3163   0.613   1.385   8.184
  876SOL    HW1 3164   0.567   1.302   8.194
  876SOL    HW2 3165   0.597   1.411   8.094
  877SOL     OW 3166   1.289   1.238   8.872
  877SOL    HW1 3167   1.321   1.171   8.812
  877SOL    HW2 3168   1.346   1.232   8.948
  878SOL     OW 3169   0.820   0.013   7.999
  878SOL    HW1 3170   0.855   0.099   7.975
  878SOL    HW2 3171   0.726   0.021   7.988
  879SOL     OW 3172   0.180   0.941   8.727
  879SOL    HW1 3173   0.271   0.924   8.707
  879SOL    HW2 3174   0.133   0.925   8.645
  880SOL     OW 3175   1.532   0.992   7.646
  880SOL    HW1 3176   1.461   0.936   7.678
  880SOL    HW2 3177   1.572   1.027   7.726
  881SOL     OW 3178   1.185   1.806   9.070
  881SOL    HW1 3179   1.198   1.864   8.995
  881SOL    HW2 3180   1.201   1.718   9.035
  882SOL     OW 3181   0.318   0.260   9.217
  882SOL    HW1 3182   0.386   0.311   9.261
  882SOL    HW2 3183   0.242   0.267   9.274
  883SOL     OW 3184   1.466   1.419   8.400
  883SOL    HW1 3185   1.398   1.435   8.465
  883SOL    HW2 3186   1.454   1.328   8.373
  884SOL     OW 3187   1.661   1.737   8.025
  884SOL    HW1 3188   1.638   1.708   7.937
  884SOL    HW2 3189   1.635   1.664   8.082
  885SOL     OW 3190   0.596   0.723   7.714
  885SOL    HW1 3191   0.598   0.804   7.663
  885SOL    HW2 3192   0.530   0.739   7.781
  886SOL     OW 3193   1.291   0.363   8.381
  886SOL    HW1 3194   1.202   0.333   8.365
  886SOL    HW2 3195   1.327   0.300   8.443
  887SOL     OW 3196   1.580   1.670   7.757
  887SOL    HW1 3197   1.670   1.702   7.750
  887SOL    HW2 3198   1.554   1.653   7.667
  888SOL     OW 3199   0.797   0.618   8.902
  888SOL    HW1 3200   0.769   0.593   8.990
  888SOL    HW2 3201   0.754   0.555   8.844
  889SOL     OW 3202   1.388   0.479   9.124
  889SOL    HW1 3203   1.392   0.523   9.209
  889SOL    HW2 3204   1.455   0.411   9.130
  890SOL     OW 3205   0.955   0.888   9.030
  890SOL    HW1 3206   1.009   0.817   8.995
  890SOL    HW2 3207   0.908   0.922   8.954
  891SOL     OW 3208   0.997   0.417   8.684
  891SOL    HW1 3209   0.910   0.426   8.722
  891SOL    HW2 3210   0.983   0.365   8.605
  892SOL     OW 3211   1.050   0.698   7.875
  892SOL    HW1 3212   1.066   0.690   7.969
  892SOL    HW2 3213   0.967   0.651   7.861
  893SOL     OW 3214   0.098   0.825   8.232
  893SOL    HW1 3215   0.184   0.810   8.269
  893SOL    HW2 3216   0.044   0.855   8.305
  894SOL     OW 3217   0.122   1.858   9.025
  894SOL    HW1 3218   0.117   1.833   9.117
  894SOL    HW2 3219   0.046   1.817   8.984
  895SOL     OW 3220   0.853   0.369   7.628
  895SOL    HW1 3221   0.927   0.403   7.577
  895SOL    HW2 3222   0.870   0.275   7.634
  896SOL     OW 3223   1.704   0.573   9.276
  896SOL    HW1 3224   1.668   0.648   9.229
  896SOL    HW2 3225   1.740   0.517   9.208
  897SOL     OW 3226   1.377   1.142   7.989
  897SOL    HW1 3227   1.456   1.130   7.936
  897SOL    HW2 3228   1.324   1.205   7.939
  898SOL     OW 3229   0.542   0.204   8.349
  898SOL    HW1 3230   0.562   0.223   8.440
  898SOL    HW2 3231   0.533   0.290   8.307
  899SOL     OW 3232   1.006   1.444   7.920
  899SOL    HW1 3233   0.968   1.517   7.871
  899SOL    HW2 3234   0.989   1.466   8.012
  900SOL     OW 3235   0.356   1.810   8.306
  900SOL    HW1 3236   0.398   1.725   8.316
  900SOL    HW2 3237   0.426   1.874   8.322
  901SOL     OW 3238   1.799   1.057   8.315
  901SOL    HW1 3239   1.744   1.039   8.239
  901SOL    HW2 3240   1.738   1.063   8.389
  902SOL     OW 3241   1.228   1.539   8.961
  902SOL    HW1 3242   1.214   1.466   9.021
  902SOL    HW2 3243   1.165   1.524   8.890
  903SOL     OW 3244   0.316   0.954   7.701
  903SOL    HW1 3245   0.400   0.977   7.661
  903SOL    HW2 3246   0.300   0.864   7.673
  904SOL     OW 3247   1.479   0.742   8.172
  904SOL    HW1 3248   1.467   0.698   8.257
  904SOL    HW2 3249   1.556   0.798   8.185
  905SOL     OW 3250   0.467   1.262   9.183
  905SOL    HW1 3251   0.440   1.269   9.092
  905SOL    HW2 3252   0.385   1.267   9.233
  906SOL     OW 3253   1.121   1.778   7.679
  906SOL    HW1 3254   1.049   1.736   7.725
  906SOL    HW2 3255   1.144   1.716   7.609
  907SOL     OW 3256   0.163   0.265   8.958
  907SOL    HW1 3257   0.136   0.352   8.929
  907SOL    HW2 3258   0.198   0.278   9.046
  908SOL     OW 3259   1.629   1.380   7.535
  908SOL    HW1 3260   1.588   1.465   7.520
  908SOL    HW2 3261   1.560   1.316   7.517
  909SOL     OW 3262   0.469   1.743   7.762
  909SOL    HW1 3263   0.511   1.797   7.829
  909SOL    HW2 3264   0.542   1.709   7.710
  910SOL     OW 3265   1.420   0.138   7.866
  910SOL    HW1 3266   1.404   0.087   7.787
  910SOL    HW2 3267   1.515   0.131   7.879
  911SOL     OW 3268   0.256   1.789   8.682
  911SOL    HW1 3269   0.305   1.715   8.718
  911SOL    HW2 3270   0.226   1.758   8.597
  912SOL     OW 3271   0.938   1.699   8.347
  912SOL    HW1 3272   1.015   1.647   8.369
  912SOL    HW2 3273   0.894   1.649   8.278
  913SOL     OW 3274   0.394   0.693   7.921
  913SOL    HW1 3275   0.419   0.602   7.933
  913SOL    HW2 3276   0.302   0.697   7.947
  914SOL     OW 3277   1.525   0.233   9.171
  914SOL    HW1 3278   1.525   0.255   9.264
  914SOL    HW2 3279   1.447   0.178   9.159
  915SOL     OW 3280   0.624   0.121   7.566
  915SOL    HW1 3281   0.713   0.086   7.578
  915SOL    HW2 3282   0.595   0.084   7.483
  916SOL     OW 3283   0.768   0.270   9.202
  916SOL    HW1 3284   0.835   0.202   9.210
  916SOL    HW2 3285   0.728   0.275   9.289
  917SOL     OW 3286   0.877   1.522   8.642
  917SOL    HW1 3287   0.861   1.485   8.554
  917SOL    HW2 3288   0.946   1.467   8.678
  918SOL     OW 3289   1.341   0.589   8.877
  918SOL    HW1 3290   1.369   0.560   8.964
  918SOL    HW2 3291   1.376   0.678   8.869
  919SOL     OW 3292   0.815   1.395   8.387
  919SOL    HW1 3293   0.899   1.384   8.343
  919SOL    HW2 3294   0.750   1.396   8.317
  920SOL     OW 3295   0.923   0.518   8.348
  920SOL    HW1 3296   0.906   0.516   8.254
  920SOL    HW2 3297   0.961   0.432   8.367
  921SOL     OW 3298   0.561   0.069   7.956
  921SOL    HW1 3299   0.475   0.055   7.994
  921SOL    HW2 3300   0.549   0.139   7.892
  922SOL     OW 3301   1.428   1.198   7.489
  922SOL    HW1 3302   1.458   1.122   7.539
  922SOL    HW2 3303   1.343   1.219   7.526
  923SOL     OW 3304   0.304   0.074   7.636
  923SOL    HW1 3305   0.388   0.120   7.633
  923SOL    HW2 3306   0.320   4.499   7.693
  924SOL     OW 3307   0.953   0.240   7.917
  924SOL    HW1 3308   0.901   0.296   7.859
  924SOL    HW2 3309   1.042   0.276   7.911
  925SOL     OW 3310   1.080   0.681   8.909
  925SOL    HW1 3311   1.010   0.616   8.909
  925SOL    HW2 3312   1.160   0.629   8.897
  926SOL     OW 3313   1.224   1.569   8.241
  926SOL    HW1 3314   1.240   1.637   8.176
  926SOL    HW2 3315   1.291   1.584   8.308
  927SOL     OW 3316   0.466   1.149   8.184
  927SOL    HW1 3317   0.395   1.130   8.245
  927SOL    HW2 3318   0.427   1.133   8.097
  928SOL     OW 3319   1.269   1.794   8.055
  928SOL    HW1 3320   1.315   1.855   7.998
  928SOL    HW2 3321   1.203   1.847   8.100
  929SOL     OW 3322   1.029   0.547   7.465
  929SOL    HW1 3323   0.981   0.629   7.449
  929SOL    HW2 3324   1.088   0.568   7.538
  930SOL     OW 3325   0.094   0.518   8.861
  930SOL    HW1 3326   0.151   0.526   8.785
  930SOL    HW2 3327   0.060   0.606   8.875
  931SOL     OW 3328   0.561   0.244   8.615
  931SOL    HW1 3329   0.592   0.161   8.650
  931SOL    HW2 3330   0.467   0.245   8.633
  932SOL     OW 3331   0.865   0.503   8.075
  932SOL    HW1 3332   0.820   0.544   8.001
  932SOL    HW2 3333   0.833   0.413   8.076
  933SOL     OW 3334   0.963   0.025   8.232
  933SOL    HW1 3335   0.915   0.024   8.149
  933SOL    HW2 3336   0.977   4.432   8.252
  934SOL     OW 3337   1.437   1.162   8.305
  934SOL    HW1 3338   1.368   1.096   8.304
  934SOL    HW2 3339   1.460   1.174   8.213
  935SOL     OW 3340   1.466   0.604   8.423
  935SOL    HW1 3341   1.412   0.525   8.425
  935SOL    HW2 3342   1.523   0.597   8.499
  936SOL     OW 3343   1.846   0.817   7.831
  936SOL    HW1 3344   1.902   0.765   7.888
  936SOL    HW2 3345   1.817   0.755   7.764
  937SOL     OW 3346   0.492   1.417   7.607
  937SOL    HW1 3347   0.415   1.388   7.656
  937SOL    HW2 3348   0.474   1.389   7.517
  938SOL     OW 3349   1.670   1.265   8.093
  938SOL    HW1 3350   1.765   1.269   8.107
  938SOL    HW2 3351   1.639   1.353   8.116
  939SOL     OW 3352   1.394   0.571   7.518
  939SOL    HW1 3353   1.333   0.555   7.589
  939SOL    HW2 3354   1.480   0.552   7.555
  940SOL     OW 3355   0.522   0.264   7.769
  940SOL    HW1 3356   0.570   0.215   7.703
  940SOL    HW2 3357   0.506   0.349   7.728
  941SOL     OW 3358   1.753   1.238   9.022
  941SOL    HW1 3359   1.841   1.200   9.017
  941SOL    HW2 3360   1.768   1.329   9.049
  942SOL     OW 3361   1.059   1.353   8.782
  942SOL    HW1 3362   0.984   1.323   8.833
  942SOL    HW2 3363   1.135   1.312   8.823
  943SOL     OW 3364   1.608   1.624   9.101
  943SOL    HW1 3365   1.603   1.661   9.012
  943SOL    HW2 3366   1.692   1.578   9.103
  944SOL     OW 3367   1.129   1.203   8.554
  944SOL    HW1 3368   1.069   1.241   8.619
  944SOL    HW2 3369   1.095   1.235   8.470
  945SOL     OW 3370   1.629   1.098   8.525
  945SOL    HW1 3371   1.624   1.161   8.598
  945SOL    HW2 3372   1.550   1.115   8.474
  946SOL     OW 3373   0.902   0.133   8.835
  946SOL    HW1 3374   0.924   0.088   8.754
  946SOL    HW2 3375   0.986   0.148   8.878
  947SOL     OW 3376   0.984   1.114   9.171
  947SOL    HW1 3377   0.892   1.130   9.192
  947SOL    HW2 3378   0.983   1.037   9.115
  948SOL     OW 3379   0.708   1.061   7.820
  948SOL    HW1 3380   0.696   1.045   7.914
  948SOL    HW2 3381   0.784   1.007   7.797
  949SOL     OW 3382   0.430   0.826   8.689
  949SOL    HW1 3383   0.499   0.836   8.755
  949SOL    HW2 3384   0.372   0.759   8.725
  950SOL     OW 3385   1.269   0.375   8.721
  950SOL    HW1 3386   1.301   0.454   8.766
  950SOL    HW2 3387   1.180   0.398   8.694
  951SOL     OW 3388   0.062   1.576   8.791
  951SOL    HW1 3389   0.036   1.665   8.767
  951SOL    HW2 3390   0.158   1.580   8.796
  952SOL     OW 3391   0.346   1.108   7.941
  952SOL    HW1 3392   0.357   1.182   7.881
  952SOL    HW2 3393   0.347   1.031   7.885
  953SOL     OW 3394   0.564   0.526   8.301
  953SOL    HW1 3395   0.575   0.587   8.228
  953SOL    HW2 3396   0.623   0.558   8.369
  954SOL     OW 3397   1.248   1.348   7.837
  954SOL    HW1 3398   1.304   1.420   7.868
  954SOL    HW2 3399   1.161   1.369   7.871
  955SOL     OW 3400   1.280   1.457   8.595
  955SOL    HW1 3401   1.336   1.460   8.672
  955SOL    HW2 3402   1.225   1.380   8.608
  956SOL     OW 3403   1.582   0.623   7.925
  956SOL    HW1 3404   1.535   0.674   7.992
  956SOL    HW2 3405   1.626   0.689   7.872
  957SOL     OW 3406   0.347   1.531   8.763
  957SOL    HW1 3407   0.333   1.484   8.681
  957SOL    HW2 3408   0.442   1.541   8.770
  958SOL     OW 3409   0.484   0.759   9.118
  958SOL    HW1 3410   0.509   0.797   9.034
  958SOL    HW2 3411   0.528   0.674   9.120
  959SOL     OW 3412   1.601   0.778   9.129
  959SOL    HW1 3413   1.515   0.820   9.122
  959SOL    HW2 3414   1.653   0.820   9.061
  960SOL     OW 3415   1.004   0.086   9.168
  960SOL    HW1 3416   1.035   0.168   9.130
  960SOL    HW2 3417   1.029   0.019   9.103
  961SOL     OW 3418   0.495   0.044   9.199
  961SOL    HW1 3419   0.480   4.497   9.117
  961SOL    HW2 3420   0.429   0.113   9.200
  962SOL     OW 3421   0.589   0.874   8.471
  962SOL    HW1 3422   0.620   0.965   8.474
  962SOL    HW2 3423   0.533   0.866   8.549
  963SOL     OW 3424   1.358   0.858   8.478
  963SOL    HW1 3425   1.275   0.850   8.432
  963SOL    HW2 3426   1.398   0.772   8.472
  964SOL     OW 3427   1.204   0.535   7.711
  964SOL    HW1 3428   1.210   0.455   7.763
  964SOL    HW2 3429   1.161   0.598   7.769
  965SOL     OW 3430   0.284   0.216   8.682
  965SOL    HW1 3431   0.245   0.233   8.768
  965SOL    HW2 3432   0.325   0.130   8.691
  966SOL     OW 3433   0.039   1.313   8.734
  966SOL    HW1 3434   0.075   1.265   8.808
  966SOL    HW2 3435   0.045   1.405   8.759
  967SOL     OW 3436   0.724   0.631   8.506
  967SOL    HW1 3437   0.798   0.611   8.449
  967SOL    HW2 3438   0.698   0.720   8.481
  968SOL     OW 3439   1.735   0.959   9.301
  968SOL    HW1 3440   1.687   0.900   9.242
  968SOL    HW2 3441   1.675   0.972   9.374
  969SOL     OW 3442   0.320   0.074   8.079
  969SOL    HW1 3443   0.302   0.163   8.110
  969SOL    HW2 3444   0.308   0.018   8.156
  970SOL     OW 3445   1.615   0.378   7.811
  970SOL    HW1 3446   1.643   0.314   7.876
  970SOL    HW2 3447   1.592   0.456   7.861
  971SOL     OW 3448   1.029   0.761   8.409
  971SOL    HW1 3449   1.026   0.778   8.503
  971SOL    HW2 3450   1.000   0.671   8.399
  972SOL     OW 3451   0.982   1.566   9.165
  972SOL    HW1 3452   0.967   1.610   9.081
  972SOL    HW2 3453   1.025   1.484   9.141
  973SOL     OW 3454   1.856   1.505   9.053
  973SOL    HW1 3455   1.871   1.534   8.963
  973SOL    HW2 3456   1.937   1.528   9.099
  974SOL     OW 3457   0.347   0.933   9.266
  974SOL    HW1 3458   0.419   0.963   9.321
  974SOL    HW2 3459   0.386   0.866   9.210
  975SOL     OW 3460   1.531   0.265   7.576
  975SOL    HW1 3461   1.459   0.209   7.605
  975SOL    HW2 3462   1.560   0.310   7.655
  976SOL     OW 3463   1.292   0.826   7.479
  976SOL    HW1 3464   1.334   0.740   7.481
  976SOL    HW2 3465   1.323   0.866   7.397
  977SOL     OW 3466   1.066   1.335   8.301
  977SOL    HW1 3467   1.069   1.263   8.239
  977SOL    HW2 3468   1.127   1.400   8.267
  978SOL     OW 3469   0.318   0.812   8.395
  978SOL    HW1 3470   0.412   0.830   8.393
  978SOL    HW2 3471   0.312   0.722   8.425
  979SOL     OW 3472   0.335   0.530   8.438
  979SOL    HW1 3473   0.290   0.447   8.419
  979SOL    HW2 3474   0.413   0.528   8.382
  980SOL     OW 3475   1.135   0.374   9.144
  980SOL    HW1 3476   1.086   0.438   9.195
  980SOL    HW2 3477   1.221   0.414   9.131
  981SOL     OW 3478   1.157   0.213   8.921
  981SOL    HW1 3479   1.151   0.277   8.992
  981SOL    HW2 3480   1.197   0.261   8.849
  982SOL     OW 3481   4.491   1.322   7.653
  982SOL    HW1 3482   4.399   1.338   7.635
  982SOL    HW2 3483   4.496   1.229   7.675
  983SOL     OW 3484   0.097   1.777   8.388
  983SOL    HW1 3485   0.059   1.723   8.318
  983SOL    HW2 3486   0.185   1.798   8.356
  984SOL     OW 3487   0.497   1.574   8.355
  984SOL    HW1 3488   0.565   1.636   8.379
  984SOL    HW2 3489   0.541   1.510   8.298
  985SOL     OW 3490   0.984   0.793   8.675
  985SOL    HW1 3491   1.040   0.770   8.750
  985SOL    HW2 3492   0.899   0.755   8.695
  986SOL     OW 3493   0.038   0.568   8.559
  986SOL    HW1 3494   0.113   0.525   8.517
  986SOL    HW2 3495   0.015   0.510   8.632
  987SOL     OW 3496   0.180   0.524   9.161
  987SOL    HW1 3497   0.267   0.506   9.125
  987SOL    HW2 3498   0.152   0.604   9.116
  988SOL     OW 3499   1.377   0.939   9.107
  988SOL    HW1 3500   1.398   1.032   9.105
  988SOL    HW2 3501   1.374   0.914   9.014
  989SOL     OW 3502   0.811   0.574   7.803
  989SOL    HW1 3503   0.815   0.503   7.739
  989SOL    HW2 3504   0.739   0.629   7.774
  990SOL     OW 3505   1.640   0.601   8.634
  990SOL    HW1 3506   1.630   0.542   8.709
  990SOL    HW2 3507   1.728   0.582   8.600
  991SOL     OW 3508   0.272   1.562   9.188
  991SOL    HW1 3509   0.216   1.613   9.247
  991SOL    HW2 3510   0.253   1.471   9.211
  992SOL     OW 3511   0.687   0.464   8.715
  992SOL    HW1 3512   0.648   0.384   8.679
  992SOL    HW2 3513   0.693   0.523   8.639
  993SOL     OW 3514   0.928   1.679   8.916
  993SOL    HW1 3515   0.902   1.645   8.830
  993SOL    HW2 3516   0.924   1.774   8.906
  994SOL     OW 3517   0.472   0.491   7.631
  994SOL    HW1 3518   0.532   0.562   7.654
  994SOL    HW2 3519   0.389   0.534   7.615
  995SOL     OW 3520   0.162   1.141   8.909
  995SOL    HW1 3521   0.145   1.095   8.992
  995SOL    HW2 3522   0.169   1.070   8.844
  996SOL     OW 3523   1.326   1.047   8.671
  996SOL    HW1 3524   1.350   0.984   8.603
  996SOL    HW2 3525   1.256   1.099   8.633
  997SOL     OW 3526   1.312   0.856   7.754
  997SOL    HW1 3527   1.236   0.828   7.805
  997SOL    HW2 3528   1.285   0.843   7.663
  998SOL     OW 3529   1.762   1.743   8.593
  998SOL    HW1 3530   1.827   1.772   8.529
  998SOL    HW2 3531   1.746   1.651   8.571
  999SOL     OW 3532   1.241   1.733   8.560
  999SOL    HW1 3533   1.323   1.754   8.517
  999SOL    HW2 3534   1.247   1.639   8.579
 1000SOL     OW 3535   0.067   1.185   8.498
 1000SOL    HW1 3536   0.066   1.217   8.588
 1000SOL    HW2 3537   0.022   1.253   8.447
 1001SOL     OW 3538   0.679   1.666   9.177
 1001SOL    HW1 3539   0.624   1.743   9.171
 1001SOL    HW2 3540   0.743   1.676   9.107
 1002SOL     OW 3541   1.718   0.130   7.941
 1002SOL    HW1 3542   1.790   0.138   7.878
 1002SOL    HW2 3543   1.745   0.057   7.998
 1003SOL     OW 3544   1.390   1.568   7.932
 1003SOL    HW1 3545   1.450   1.600   7.865
 1003SOL    HW2 3546   1.342   1.645   7.961
 1004SOL     OW 3547   0.118   1.808   9.296
 1004SOL    HW1 3548   0.079   1.735   9.344
 1004SOL    HW2 3549   0.182   1.845   9.357
 1005SOL     OW 3550   1.278   0.927   8.120
 1005SOL    HW1 3551   1.351   0.865   8.125
 1005SOL    HW2 3552   1.312   1.000   8.068
 1006SOL     OW 3553   0.815   1.273   8.878
 1006SOL    HW1 3554   0.787   1.312   8.961
 1006SOL    HW2 3555   0.745   1.295   8.817
 1007SOL     OW 3556   0.672   1.619   7.603
 1007SOL    HW1 3557   0.682   1.631   7.509
 1007SOL    HW2 3558   0.618   1.541   7.612
 1008SOL     OW 3559   1.625   1.726   8.838
 1008SOL    HW1 3560   1.675   1.734   8.756
 1008SOL    HW2 3561   1.612   1.816   8.867
 1009SOL     OW 3562   1.839   0.154   8.414
 1009SOL    HW1 3563   1.868   0.076   8.366
 1009SOL    HW2 3564   1.752   0.173   8.378
 1010SOL     OW 3565   0.263   0.325   8.171
 1010SOL    HW1 3566   0.181   0.359   8.137
 1010SOL    HW2 3567   0.249   0.315   8.265
 1011SOL     OW 3568   1.207   1.606   7.479
 1011SOL    HW1 3569   1.198   1.515   7.506
 1011SOL    HW2 3570   1.142   1.618   7.410
 1012SOL     OW 3571   0.825   1.007   8.820
 1012SOL    HW1 3572   0.868   1.003   8.735
 1012SOL    HW2 3573   0.824   1.100   8.842
 1013SOL     OW 3574   0.915   0.910   7.737
 1013SOL    HW1 3575   0.977   0.942   7.672
 1013SOL    HW2 3576   0.962   0.841   7.783
 1014SOL     OW 3577   1.492   1.625   7.491
 1014SOL    HW1 3578   1.398   1.619   7.477
 1014SOL    HW2 3579   1.529   1.631   7.402
 1015SOL     OW 3580   0.373   1.307   8.939
 1015SOL    HW1 3581   0.356   1.386   8.887
 1015SOL    HW2 3582   0.298   1.250   8.922
 1016SOL     OW 3583   1.611   1.283   8.728
 1016SOL    HW1 3584   1.671   1.274   8.802
 1016SOL    HW2 3585   1.551   1.352   8.756
 1017SOL     OW 3586   1.052   1.107   8.154
 1017SOL    HW1 3587   0.981   1.056   8.193
 1017SOL    HW2 3588   1.114   1.041   8.123
 1018SOL     OW 3589   1.004   0.244   8.453
 1018SOL    HW1 3590   1.011   0.221   8.360
 1018SOL    HW2 3591   0.998   0.159   8.498
 1019SOL     OW 3592   0.604   1.489   7.930
 1019SOL    HW1 3593   0.646   1.439   7.860
 1019SOL    HW2 3594   0.531   1.533   7.888
 1020SOL     OW 3595   1.721   0.394   8.825
 1020SOL    HW1 3596   1.794   0.456   8.824
 1020SOL    HW2 3597   1.751   0.322   8.768
 1021SOL     OW 3598   0.252   1.344   7.724
 1021SOL    HW1 3599   0.157   1.343   7.710
 1021SOL    HW2 3600   0.263   1.376   7.814
 1022SOL     OW 3601   0.116   1.007   9.143
 1022SOL    HW1 3602   0.053   1.050   9.200
 1022SOL    HW2 3603   0.194   0.997   9.197
 1023SOL     OW 3604   0.658   0.209   8.945
 1023SOL    HW1 3605   0.738   0.182   8.899
 1023SOL    HW2 3606   0.687   0.225   9.035
 1024SOL     OW 3607   0.072   0.320   7.474
 1024SOL    HW1 3608   4.477   0.328   7.488
 1024SOL    HW2 3609   0.099   0.407   7.443
 1025SOL     OW 3610   1.430   0.858   8.848
 1025SOL    HW1 3611   1.381   0.919   8.792
 1025SOL    HW2 3612   1.519   0.861   8.814
 1026SOL     OW 3613   0.085   0.188   7.750
 1026SOL    HW1 3614   0.077   0.261   7.688
 1026SOL    HW2 3615   0.164   0.142   7.723
 1027SOL     OW 3616   1.179   1.340   7.565
 1027SOL    HW1 3617   1.088   1.310   7.567
 1027SOL    HW2 3618   1.207   1.340   7.656
 1028SOL     OW 3619   0.623   0.830   8.878
 1028SOL    HW1 3620   0.678   0.907   8.865
 1028SOL    HW2 3621   0.685   0.758   8.887
 1029SOL     OW 3622   1.486   1.775   8.426
 1029SOL    HW1 3623   1.510   1.837   8.357
 1029SOL    HW2 3624   1.567   1.761   8.475
 1030SOL     OW 3625   0.713   0.562   9.153
 1030SOL    HW1 3626   0.751   0.628   9.211
 1030SOL    HW2 3627   0.748   0.479   9.185
 1031SOL     OW 3628   1.471   1.200   9.080
 1031SOL    HW1 3629   1.459   1.214   9.174
 1031SOL    HW2 3630   1.564   1.216   9.066
 1032SOL     OW 3631   0.380   1.744   9.012
 1032SOL    HW1 3632   0.295   1.784   8.995
 1032SOL    HW2 3633   0.358   1.664   9.060
 1033SOL     OW 3634   1.670   0.881   8.703
 1033SOL    HW1 3635   1.662   0.796   8.660
 1033SOL    HW2 3636   1.660   0.945   8.633
 1034SOL     OW 3637   1.218   0.330   7.895
 1034SOL    HW1 3638   1.284   0.261   7.885
 1034SOL    HW2 3639   1.246   0.377   7.974
 1035SOL     OW 3640   0.587   0.738   8.118
 1035SOL    HW1 3641   0.628   0.823   8.103
 1035SOL    HW2 3642   0.520   0.731   8.051
 1036SOL     OW 3643   1.763   0.365   9.092
 1036SOL    HW1 3644   1.746   0.378   8.998
 1036SOL    HW2 3645   1.684   0.320   9.123
 1037SOL     OW 3646   1.745   0.933   8.960
 1037SOL    HW1 3647   1.742   1.028   8.974
 1037SOL    HW2 3648   1.730   0.922   8.867
 1038SOL     OW 3649   0.863   1.367   7.482
 1038SOL    HW1 3650   0.824   1.394   7.565
 1038SOL    HW2 3651   0.880   1.449   7.436
 1039SOL     OW 3652   0.660   1.792   8.393
 1039SOL    HW1 3653   0.640   1.882   8.369
 1039SOL    HW2 3654   0.755   1.786   8.385
 1040SOL     OW 3655   0.868   0.967   8.303
 1040SOL    HW1 3656   0.918   0.895   8.341
 1040SOL    HW2 3657   0.833   1.016   8.377
 1041SOL     OW 3658   1.080   0.988   7.537
 1041SOL    HW1 3659   1.057   1.039   7.459
 1041SOL    HW2 3660   1.154   0.935   7.510
 1042SOL     OW 3661   1.856   1.554   8.292
 1042SOL    HW1 3662   1.776   1.545   8.239
 1042SOL    HW2 3663   1.843   1.493   8.365
 1043SOL     OW 3664   0.230   1.306   9.306
 1043SOL    HW1 3665   0.156   1.249   9.284
 1043SOL    HW2 3666   0.225   1.316   9.401
 1044SOL     OW 3667   0.106   1.235   8.116
 1044SOL    HW1 3668   0.119   1.189   8.199
 1044SOL    HW2 3669   0.166   1.192   8.055
 1045SOL     OW 3670   0.682   1.402   9.076
 1045SOL    HW1 3671   0.602   1.359   9.105
 1045SOL    HW2 3672   0.676   1.491   9.113
 1046SOL     OW 3673   1.809   0.181   8.686
 1046SOL    HW1 3674   1.806   0.088   8.707
 1046SOL    HW2 3675   1.824   0.185   8.592
 1047SOL     OW 3676   0.440   0.431   7.979
 1047SOL    HW1 3677   0.458   0.361   7.916
 1047SOL    HW2 3678   0.381   0.392   8.043
 1048SOL     OW 3679   1.704   1.485   8.539
 1048SOL    HW1 3680   1.620   1.464   8.498
 1048SOL    HW2 3681   1.714   1.420   8.608
 1049SOL     OW 3682   0.311   0.504   8.702
 1049SOL    HW1 3683   0.383   0.456   8.741
 1049SOL    HW2 3684   0.336   0.515   8.610
 1050SOL     OW 3685   0.827   1.578   8.126
 1050SOL    HW1 3686   0.815   1.630   8.047
 1050SOL    HW2 3687   0.750   1.521   8.129
 1051SOL     OW 3688   1.432   0.216   8.566
 1051SOL    HW1 3689   1.467   0.144   8.619
 1051SOL    HW2 3690   1.381   0.269   8.627
 1052SOL     OW 3691   0.996   0.007   8.599
 1052SOL    HW1 3692   0.953   4.422   8.589
 1052SOL    HW2 3693   1.089   4.487   8.610
 1053SOL     OW 3694   0.772   1.332   7.761
 1053SOL    HW1 3695   0.741   1.242   7.768
 1053SOL    HW2 3696   0.854   1.333   7.811
 1054SOL     OW 3697   0.621   1.556   8.733
 1054SOL    HW1 3698   0.623   1.638   8.783
 1054SOL    HW2 3699   0.708   1.549   8.695
 1055SOL     OW 3700   1.340   0.053   7.602
 1055SOL    HW1 3701   1.379   4.477   7.558
 1055SOL    HW2 3702   1.265   0.017   7.648
 1056SOL     OW 3703   1.314   0.463   8.125
 1056SOL    HW1 3704   1.255   0.538   8.125
 1056SOL    HW2 3705   1.303   0.422   8.210
 1057SOL     OW 3706   1.585   0.200   8.316
 1057SOL    HW1 3707   1.526   0.215   8.389
 1057SOL    HW2 3708   1.588   0.284   8.269
 1058SOL     OW 3709   0.041   1.051   7.736
 1058SOL    HW1 3710   0.135   1.035   7.726
 1058SOL    HW2 3711   0.020   1.019   7.824
 1059SOL     OW 3712   0.884   1.652   7.790
 1059SOL    HW1 3713   0.812   1.635   7.730
 1059SOL    HW2 3714   0.855   1.727   7.842
 1060SOL     OW 3715   0.246   0.627   9.431
 1060SOL    HW1 3716   0.172   0.606   9.487
 1060SOL    HW2 3717   0.214   0.613   9.342
 1061SOL     OW 3718   0.196   0.293  10.300
 1061SOL    HW1 3719   0.230   0.268  10.386
 1061SOL    HW2 3720   0.133   0.224  10.279
 1062SOL     OW 3721   0.004   0.382   9.950
 1062SOL    HW1 3722   4.426   0.418   9.991
 1062SOL    HW2 3723   4.471   0.310   9.896
 1063SOL     OW 3724   0.568   1.287  10.486
 1063SOL    HW1 3725   0.481   1.291  10.446
 1063SOL    HW2 3726   0.583   1.375  10.520
 1064SOL     OW 3727   1.561   1.512  10.017
 1064SOL    HW1 3728   1.518   1.492  10.100
 1064SOL    HW2 3729   1.489   1.516   9.953
 1065SOL     OW 3730   1.134   0.699  10.009
 1065SOL    HW1 3731   1.181   0.782   9.998
 1065SOL    HW2 3732   1.084   0.709  10.089
 1066SOL     OW 3733   1.767   0.607   9.538
 1066SOL    HW1 3734   1.746   0.597   9.445
 1066SOL    HW2 3735   1.734   0.527   9.578
 1067SOL     OW 3736   0.756   1.143  10.351
 1067SOL    HW1 3737   0.687   1.178  10.407
 1067SOL    HW2 3738   0.791   1.220  10.306
 1068SOL     OW 3739   0.853   0.776   0.021
 1068SOL    HW1 3740   0.862   0.831   0.099
 1068SOL    HW2 3741   0.886   0.830  11.049
 1069SOL     OW 3742   0.685   1.004   9.957
 1069SOL    HW1 3743   0.751   0.991  10.026
 1069SOL    HW2 3744   0.616   1.055   9.999
 1070SOL     OW 3745   0.336   1.420  10.378
 1070SOL    HW1 3746   0.254   1.402  10.333
 1070SOL    HW2 3747   0.386   1.475  10.317
 1071SOL     OW 3748   1.464   1.500  10.660
 1071SOL    HW1 3749   1.519   1.577  10.668
 1071SOL    HW2 3750   1.409   1.501  10.738
 1072SOL     OW 3751   0.441   0.390  10.785
 1072SOL    HW1 3752   0.529   0.351  10.787
 1072SOL    HW2 3753   0.392   0.342  10.851
 1073SOL     OW 3754   1.611   0.446  10.048
 1073SOL    HW1 3755   1.531   0.468  10.001
 1073SOL    HW2 3756   1.630   0.524  10.101
 1074SOL     OW 3757   0.245   1.692   9.787
 1074SOL    HW1 3758   0.230   1.776   9.829
 1074SOL    HW2 3759   0.313   1.708   9.722
 1075SOL     OW 3760   0.248   1.427   9.837
 1075SOL    HW1 3761   0.239   1.522   9.840
 1075SOL    HW2 3762   0.185   1.395   9.901
 1076SOL     OW 3763   0.247   1.082  10.194
 1076SOL    HW1 3764   0.264   0.992  10.223
 1076SOL    HW2 3765   0.188   1.117  10.260
 1077SOL     OW 3766   0.612   1.790  10.739
 1077SOL    HW1 3767   0.531   1.771  10.787
 1077SOL    HW2 3768   0.634   1.880  10.763
 1078SOL     OW 3769   0.579   0.987   9.448
 1078SOL    HW1 3770   0.627   1.030   9.377
 1078SOL    HW2 3771   0.624   1.015   9.528
 1079SOL     OW 3772   1.554   0.137  10.784
 1079SOL    HW1 3773   1.600   0.193  10.722
 1079SOL    HW2 3774   1.614   0.126  10.857
 1080SOL     OW 3775   0.135   0.643   9.884
 1080SOL    HW1 3776   0.084   0.565   9.902
 1080SOL    HW2 3777   0.107   0.706   9.950
 1081SOL     OW 3778   1.840   1.760   9.643
 1081SOL    HW1 3779   1.904   1.729   9.707
 1081SOL    HW2 3780   1.866   1.851   9.625
 1082SOL     OW 3781   0.032   1.602   9.450
 1082SOL    HW1 3782   0.021   1.507   9.447
 1082SOL    HW2 3783   0.022   1.625   9.543
 1083SOL     OW 3784   1.691   0.920   9.951
 1083SOL    HW1 3785   1.774   0.877   9.929
 1083SOL    HW2 3786   1.668   0.970   9.872
 1084SOL     OW 3787   1.646   1.107   9.739
 1084SOL    HW1 3788   1.732   1.113   9.697
 1084SOL    HW2 3789   1.650   1.168   9.813
 1085SOL     OW 3790   0.097   0.761  10.911
 1085SOL    HW1 3791   0.186   0.744  10.881
 1085SOL    HW2 3792   0.089   0.856  10.910
 1086SOL     OW 3793   0.613   1.385  10.046
 1086SOL    HW1 3794   0.566   1.302  10.055
 1086SOL    HW2 3795   0.597   1.411   9.956
 1087SOL     OW 3796   1.294   1.237  10.752
 1087SOL    HW1 3797   1.319   1.176  10.682
 1087SOL    HW2 3798   1.351   1.213  10.825
 1088SOL     OW 3799   0.820   0.013   9.861
 1088SOL    HW1 3800   0.855   0.099   9.837
 1088SOL    HW2 3801   0.725   0.021   9.850
 1089SOL     OW 3802   0.178   0.940  10.589
 1089SOL    HW1 3803   0.270   0.922  10.570
 1089SOL    HW2 3804   0.133   0.924  10.506
 1090SOL     OW 3805   1.532   0.992   9.508
 1090SOL    HW1 3806   1.461   0.936   9.540
 1090SOL    HW2 3807   1.572   1.027   9.588
 1091SOL     OW 3808   1.196   1.806  10.927
 1091SOL    HW1 3809   1.195   1.869  10.856
 1091SOL    HW2 3810   1.205   1.721  10.884
 1092SOL     OW 3811   0.326   0.292  11.060
 1092SOL    HW1 3812   0.389   0.334   0.018
 1092SOL    HW2 3813   0.246   0.286   0.012
 1093SOL     OW 3814   1.467   1.419  10.261
 1093SOL    HW1 3815   1.398   1.435  10.326
 1093SOL    HW2 3816   1.454   1.328  10.235
 1094SOL     OW 3817   1.660   1.738   9.887
 1094SOL    HW1 3818   1.638   1.708   9.799
 1094SOL    HW2 3819   1.634   1.665   9.944
 1095SOL     OW 3820   0.596   0.723   9.576
 1095SOL    HW1 3821   0.598   0.804   9.525
 1095SOL    HW2 3822   0.530   0.739   9.643
 1096SOL     OW 3823   1.292   0.363  10.243
 1096SOL    HW1 3824   1.202   0.333  10.227
 1096SOL    HW2 3825   1.327   0.299  10.306
 1097SOL     OW 3826   1.580   1.670   9.619
 1097SOL    HW1 3827   1.670   1.702   9.612
 1097SOL    HW2 3828   1.553   1.653   9.529
 1098SOL     OW 3829   0.797   0.618  10.764
 1098SOL    HW1 3830   0.768   0.592  10.852
 1098SOL    HW2 3831   0.757   0.554  10.705
 1099SOL     OW 3832   0.966   0.899  10.902
 1099SOL    HW1 3833   1.014   0.826  10.862
 1099SOL    HW2 3834   0.915   0.937  10.830
 1100SOL     OW 3835   0.997   0.420  10.544
 1100SOL    HW1 3836   0.910   0.426  10.584
 1100SOL    HW2 3837   0.984   0.365  10.467
 1101SOL     OW 3838   1.050   0.698   9.737
 1101SOL    HW1 3839   1.066   0.690   9.831
 1101SOL    HW2 3840   0.967   0.651   9.723
 1102SOL     OW 3841   0.097   0.826  10.094
 1102SOL    HW1 3842   0.184   0.810  10.131
 1102SOL    HW2 3843   0.044   0.855  10.168
 1103SOL     OW 3844   0.118   1.850  10.900
 1103SOL    HW1 3845   0.114   1.789  10.974
 1103SOL    HW2 3846   0.051   1.818  10.839
 1104SOL     OW 3847   0.853   0.369   9.490
 1104SOL    HW1 3848   0.927   0.403   9.439
 1104SOL    HW2 3849   0.870   0.275   9.496
 1105SOL     OW 3850   1.377   1.143   9.851
 1105SOL    HW1 3851   1.456   1.130   9.798
 1105SOL    HW2 3852   1.324   1.205   9.801
 1106SOL     OW 3853   0.543   0.205  10.210
 1106SOL    HW1 3854   0.561   0.223  10.303
 1106SOL    HW2 3855   0.534   0.291  10.170
 1107SOL     OW 3856   1.006   1.445   9.782
 1107SOL    HW1 3857   0.968   1.517   9.733
 1107SOL    HW2 3858   0.988   1.466   9.874
 1108SOL     OW 3859   0.355   1.810  10.168
 1108SOL    HW1 3860   0.398   1.725  10.178
 1108SOL    HW2 3861   0.425   1.874  10.184
 1109SOL     OW 3862   1.799   1.057  10.177
 1109SOL    HW1 3863   1.744   1.039  10.101
 1109SOL    HW2 3864   1.738   1.063  10.251
 1110SOL     OW 3865   1.228   1.537  10.824
 1110SOL    HW1 3866   1.236   1.449  10.860
 1110SOL    HW2 3867   1.166   1.528  10.752
 1111SOL     OW 3868   0.316   0.954   9.563
 1111SOL    HW1 3869   0.400   0.977   9.523
 1111SOL    HW2 3870   0.300   0.864   9.536
 1112SOL     OW 3871   1.479   0.742  10.035
 1112SOL    HW1 3872   1.467   0.698  10.119
 1112SOL    HW2 3873   1.556   0.798  10.048
 1113SOL     OW 3874   0.455   1.268  11.052
 1113SOL    HW1 3875   0.426   1.280  10.962
 1113SOL    HW2 3876   0.388   1.211  11.091
 1114SOL     OW 3877   1.122   1.778   9.541
 1114SOL    HW1 3878   1.049   1.736   9.587
 1114SOL    HW2 3879   1.144   1.716   9.471
 1115SOL     OW 3880   0.163   0.260  10.821
 1115SOL    HW1 3881   0.139   0.349  10.795
 1115SOL    HW2 3882   0.205   0.270  10.906
 1116SOL     OW 3883   1.629   1.380   9.398
 1116SOL    HW1 3884   1.588   1.465   9.382
 1116SOL    HW2 3885   1.560   1.316   9.379
 1117SOL     OW 3886   0.469   1.743   9.624
 1117SOL    HW1 3887   0.511   1.797   9.691
 1117SOL    HW2 3888   0.542   1.709   9.572
 1118SOL     OW 3889   1.420   0.138   9.728
 1118SOL    HW1 3890   1.404   0.086   9.649
 1118SOL    HW2 3891   1.515   0.131   9.742
 1119SOL     OW 3892   0.254   1.789  10.546
 1119SOL    HW1 3893   0.304   1.717  10.584
 1119SOL    HW2 3894   0.228   1.757  10.459
 1120SOL     OW 3895   0.938   1.698  10.209
 1120SOL    HW1 3896   1.016   1.647  10.229
 1120SOL    HW2 3897   0.894   1.649  10.140
 1121SOL     OW 3898   0.394   0.693   9.783
 1121SOL    HW1 3899   0.419   0.602   9.795
 1121SOL    HW2 3900   0.302   0.697   9.809
 1122SOL     OW 3901   0.625   0.121   9.428
 1122SOL    HW1 3902   0.713   0.086   9.440
 1122SOL    HW2 3903   0.595   0.084   9.345
 1123SOL     OW 3904   0.767   0.273  11.043
 1123SOL    HW1 3905   0.829   0.205  11.071
 1123SOL    HW2 3906   0.711   0.288   0.019
 1124SOL     OW 3907   0.876   1.521  10.503
 1124SOL    HW1 3908   0.860   1.486  10.416
 1124SOL    HW2 3909   0.948   1.469  10.538
 1125SOL     OW 3910   1.344   0.590  10.753
 1125SOL    HW1 3911   1.394   0.573  10.833
 1125SOL    HW2 3912   1.370   0.679  10.728
 1126SOL     OW 3913   0.815   1.395  10.249
 1126SOL    HW1 3914   0.899   1.384  10.204
 1126SOL    HW2 3915   0.750   1.396  10.179
 1127SOL     OW 3916   0.923   0.518  10.210
 1127SOL    HW1 3917   0.907   0.516  10.116
 1127SOL    HW2 3918   0.960   0.432  10.230
 1128SOL     OW 3919   0.561   0.069   9.818
 1128SOL    HW1 3920   0.475   0.055   9.856
 1128SOL    HW2 3921   0.548   0.139   9.754
 1129SOL     OW 3922   1.428   1.198   9.351
 1129SOL    HW1 3923   1.458   1.122   9.401
 1129SOL    HW2 3924   1.343   1.219   9.388
 1130SOL     OW 3925   0.304   0.074   9.498
 1130SOL    HW1 3926   0.388   0.120   9.495
 1130SOL    HW2 3927   0.320   4.499   9.555
 1131SOL     OW 3928   0.953   0.240   9.779
 1131SOL    HW1 3929   0.901   0.296   9.721
 1131SOL    HW2 3930   1.042   0.276   9.773
 1132SOL     OW 3931   1.079   0.685  10.772
 1132SOL    HW1 3932   1.007   0.622  10.773
 1132SOL    HW2 3933   1.158   0.631  10.767
 1133SOL     OW 3934   1.224   1.570  10.104
 1133SOL    HW1 3935   1.240   1.637  10.037
 1133SOL    HW2 3936   1.292   1.584  10.170
 1134SOL     OW 3937   0.466   1.149  10.046
 1134SOL    HW1 3938   0.395   1.130  10.107
 1134SOL    HW2 3939   0.428   1.134   9.960
 1135SOL     OW 3940   1.269   1.794   9.918
 1135SOL    HW1 3941   1.315   1.855   9.860
 1135SOL    HW2 3942   1.203   1.847   9.962
 1136SOL     OW 3943   1.029   0.548   9.327
 1136SOL    HW1 3944   0.981   0.629   9.311
 1136SOL    HW2 3945   1.088   0.568   9.400
 1137SOL     OW 3946   0.087   0.518  10.724
 1137SOL    HW1 3947   0.151   0.527  10.653
 1137SOL    HW2 3948   0.064   0.608  10.747
 1138SOL     OW 3949   0.560   0.245  10.476
 1138SOL    HW1 3950   0.589   0.159  10.506
 1138SOL    HW2 3951   0.467   0.249  10.499
 1139SOL     OW 3952   0.865   0.503   9.937
 1139SOL    HW1 3953   0.820   0.544   9.863
 1139SOL    HW2 3954   0.833   0.413   9.938
 1140SOL     OW 3955   0.964   0.025  10.093
 1140SOL    HW1 3956   0.915   0.023  10.011
 1140SOL    HW2 3957   0.977   4.433  10.115
 1141SOL     OW 3958   1.436   1.163  10.167
 1141SOL    HW1 3959   1.368   1.095  10.166
 1141SOL    HW2 3960   1.460   1.174  10.075
 1142SOL     OW 3961   1.465   0.605  10.285
 1142SOL    HW1 3962   1.412   0.526  10.287
 1142SOL    HW2 3963   1.523   0.597  10.361
 1143SOL     OW 3964   1.846   0.817   9.693
 1143SOL    HW1 3965   1.902   0.765   9.750
 1143SOL    HW2 3966   1.817   0.755   9.626
 1144SOL     OW 3967   0.492   1.417   9.469
 1144SOL    HW1 3968   0.415   1.388   9.518
 1144SOL    HW2 3969   0.475   1.389   9.379
 1145SOL     OW 3970   1.670   1.265   9.956
 1145SOL    HW1 3971   1.764   1.268   9.970
 1145SOL    HW2 3972   1.639   1.353   9.977
 1146SOL     OW 3973   1.394   0.571   9.380
 1146SOL    HW1 3974   1.333   0.555   9.451
 1146SOL    HW2 3975   1.480   0.552   9.417
 1147SOL     OW 3976   0.522   0.264   9.631
 1147SOL    HW1 3977   0.570   0.215   9.565
 1147SOL    HW2 3978   0.506   0.349   9.590
 1148SOL     OW 3979   1.760   1.229  10.869
 1148SOL    HW1 3980   1.851   1.201  10.870
 1148SOL    HW2 3981   1.760   1.316  10.908
 1149SOL     OW 3982   1.063   1.354  10.649
 1149SOL    HW1 3983   0.985   1.321  10.694
 1149SOL    HW2 3984   1.136   1.306  10.689
 1150SOL     OW 3985   1.129   1.206  10.416
 1150SOL    HW1 3986   1.064   1.240  10.477
 1150SOL    HW2 3987   1.098   1.234  10.330
 1151SOL     OW 3988   1.630   1.099  10.388
 1151SOL    HW1 3989   1.626   1.160  10.461
 1151SOL    HW2 3990   1.550   1.116  10.337
 1152SOL     OW 3991   0.897   0.127  10.697
 1152SOL    HW1 3992   0.925   0.088  10.614
 1152SOL    HW2 3993   0.979   0.147  10.742
 1153SOL     OW 3994   0.708   1.061   9.682
 1153SOL    HW1 3995   0.696   1.045   9.776
 1153SOL    HW2 3996   0.784   1.007   9.659
 1154SOL     OW 3997   0.428   0.825  10.552
 1154SOL    HW1 3998   0.497   0.833  10.618
 1154SOL    HW2 3999   0.370   0.758  10.586
 1155SOL     OW 4000   1.271   0.382  10.581
 1155SOL    HW1 4001   1.301   0.459  10.629
 1155SOL    HW2 4002   1.181   0.404  10.554
 1156SOL     OW 4003   0.064   1.578  10.657
 1156SOL    HW1 4004   0.039   1.664  10.623
 1156SOL    HW2 4005   0.159   1.579  10.658
 1157SOL     OW 4006   0.347   1.108   9.803
 1157SOL    HW1 4007   0.357   1.182   9.743
 1157SOL    HW2 4008   0.347   1.031   9.747
 1158SOL     OW 4009   0.564   0.526  10.163
 1158SOL    HW1 4010   0.575   0.587  10.090
 1158SOL    HW2 4011   0.623   0.557  10.231
 1159SOL     OW 4012   1.248   1.348   9.699
 1159SOL    HW1 4013   1.304   1.420   9.730
 1159SOL    HW2 4014   1.161   1.369   9.733
 1160SOL     OW 4015   1.279   1.459  10.455
 1160SOL    HW1 4016   1.336   1.462  10.532
 1160SOL    HW2 4017   1.226   1.380  10.467
 1161SOL     OW 4018   1.582   0.623   9.787
 1161SOL    HW1 4019   1.535   0.674   9.854
 1161SOL    HW2 4020   1.626   0.689   9.733
 1162SOL     OW 4021   0.346   1.528  10.624
 1162SOL    HW1 4022   0.334   1.482  10.541
 1162SOL    HW2 4023   0.441   1.541  10.631
 1163SOL     OW 4024   0.489   0.747  10.972
 1163SOL    HW1 4025   0.522   0.784  10.890
 1163SOL    HW2 4026   0.530   0.661  10.978
 1164SOL     OW 4027   1.595   0.759  10.969
 1164SOL    HW1 4028   1.517   0.816  10.964
 1164SOL    HW2 4029   1.664   0.809  10.925
 1165SOL     OW 4030   0.589   0.874  10.334
 1165SOL    HW1 4031   0.618   0.965  10.337
 1165SOL    HW2 4032   0.533   0.865  10.411
 1166SOL     OW 4033   1.358   0.860  10.344
 1166SOL    HW1 4034   1.275   0.852  10.296
 1166SOL    HW2 4035   1.399   0.774  10.337
 1167SOL     OW 4036   1.204   0.535   9.573
 1167SOL    HW1 4037   1.210   0.455   9.625
 1167SOL    HW2 4038   1.161   0.598   9.631
 1168SOL     OW 4039   0.285   0.215  10.546
 1168SOL    HW1 4040   0.252   0.232  10.634
 1168SOL    HW2 4041   0.322   0.127  10.551
 1169SOL     OW 4042   0.041   1.315  10.595
 1169SOL    HW1 4043   0.075   1.266  10.669
 1169SOL    HW2 4044   0.044   1.407  10.623
 1170SOL     OW 4045   0.724   0.631  10.368
 1170SOL    HW1 4046   0.798   0.611  10.311
 1170SOL    HW2 4047   0.698   0.720  10.342
 1171SOL     OW 4048   0.320   0.074   9.941
 1171SOL    HW1 4049   0.303   0.163   9.973
 1171SOL    HW2 4050   0.308   0.018  10.018
 1172SOL     OW 4051   1.615   0.378   9.673
 1172SOL    HW1 4052   1.643   0.314   9.738
 1172SOL    HW2 4053   1.592   0.456   9.723
 1173SOL     OW 4054   1.029   0.762  10.271
 1173SOL    HW1 4055   1.025   0.778  10.365
 1173SOL    HW2 4056   1.000   0.671  10.261
 1174SOL     OW 4057   0.973   1.572  11.004
 1174SOL    HW1 4058   0.959   1.622  10.924
 1174SOL    HW2 4059   1.004   1.487  10.974
 1175SOL     OW 4060   1.858   1.493  10.911
 1175SOL    HW1 4061   1.872   1.528  10.823
 1175SOL    HW2 4062   1.923   1.538  10.965
 1176SOL     OW 4063   0.348   0.934  11.093
 1176SOL    HW1 4064   0.421   0.964   0.048
 1176SOL    HW2 4065   0.384   0.862  11.043
 1177SOL     OW 4066   1.531   0.265   9.438
 1177SOL    HW1 4067   1.459   0.209   9.467
 1177SOL    HW2 4068   1.560   0.310   9.517
 1178SOL     OW 4069   1.292   0.826   9.341
 1178SOL    HW1 4070   1.334   0.740   9.343
 1178SOL    HW2 4071   1.323   0.866   9.259
 1179SOL     OW 4072   1.066   1.335  10.164
 1179SOL    HW1 4073   1.069   1.263  10.101
 1179SOL    HW2 4074   1.127   1.399  10.129
 1180SOL     OW 4075   0.318   0.812  10.258
 1180SOL    HW1 4076   0.412   0.830  10.254
 1180SOL    HW2 4077   0.311   0.721  10.287
 1181SOL     OW 4078   0.335   0.530  10.300
 1181SOL    HW1 4079   0.290   0.447  10.283
 1181SOL    HW2 4080   0.413   0.528  10.244
 1182SOL     OW 4081   1.149   0.218  10.768
 1182SOL    HW1 4082   1.173   0.260  10.851
 1182SOL    HW2 4083   1.192   0.270  10.701
 1183SOL     OW 4084   4.491   1.322   9.515
 1183SOL    HW1 4085   4.399   1.338   9.497
 1183SOL    HW2 4086   4.496   1.229   9.537
 1184SOL     OW 4087   0.097   1.776  10.249
 1184SOL    HW1 4088   0.059   1.722  10.179
 1184SOL    HW2 4089   0.184   1.798  10.218
 1185SOL     OW 4090   0.497   1.574  10.217
 1185SOL    HW1 4091   0.565   1.637  10.240
 1185SOL    HW2 4092   0.541   1.511  10.160
 1186SOL     OW 4093   0.984   0.795  10.538
 1186SOL    HW1 4094   1.038   0.772  10.613
 1186SOL    HW2 4095   0.899   0.754  10.556
 1187SOL     OW 4096   0.034   0.565  10.416
 1187SOL    HW1 4097   0.114   0.526  10.380
 1187SOL    HW2 4098   0.020   0.517  10.498
 1188SOL     OW 4099   0.811   0.574   9.665
 1188SOL    HW1 4100   0.815   0.503   9.601
 1188SOL    HW2 4101   0.739   0.629   9.636
 1189SOL     OW 4102   1.640   0.601  10.496
 1189SOL    HW1 4103   1.631   0.543  10.571
 1189SOL    HW2 4104   1.728   0.582  10.462
 1190SOL     OW 4105   0.262   1.574  11.055
 1190SOL    HW1 4106   0.209   1.599   0.030
 1190SOL    HW2 4107   0.246   1.481  11.043
 1191SOL     OW 4108   0.694   0.461  10.576
 1191SOL    HW1 4109   0.649   0.383  10.543
 1191SOL    HW2 4110   0.696   0.521  10.501
 1192SOL     OW 4111   0.940   1.682  10.758
 1192SOL    HW1 4112   0.903   1.649  10.676
 1192SOL    HW2 4113   0.925   1.777  10.754
 1193SOL     OW 4114   0.472   0.491   9.493
 1193SOL    HW1 4115   0.532   0.561   9.516
 1193SOL    HW2 4116   0.389   0.534   9.477
 1194SOL     OW 4117   0.163   1.142  10.768
 1194SOL    HW1 4118   0.138   1.102  10.852
 1194SOL    HW2 4119   0.168   1.069  10.707
 1195SOL     OW 4120   1.325   1.053  10.538
 1195SOL    HW1 4121   1.351   0.987  10.473
 1195SOL    HW2 4122   1.254   1.102  10.495
 1196SOL     OW 4123   1.312   0.856   9.616
 1196SOL    HW1 4124   1.236   0.827   9.667
 1196SOL    HW2 4125   1.285   0.843   9.525
 1197SOL     OW 4126   1.767   1.746  10.459
 1197SOL    HW1 4127   1.829   1.773  10.391
 1197SOL    HW2 4128   1.747   1.655  10.438
 1198SOL     OW 4129   1.241   1.734  10.423
 1198SOL    HW1 4130   1.323   1.755  10.379
 1198SOL    HW2 4131   1.246   1.640  10.440
 1199SOL     OW 4132   0.067   1.185  10.360
 1199SOL    HW1 4133   0.067   1.218  10.450
 1199SOL    HW2 4134   0.021   1.253  10.310
 1200SOL     OW 4135   1.718   0.129   9.803
 1200SOL    HW1 4136   1.790   0.138   9.740
 1200SOL    HW2 4137   1.745   0.058   9.860
 1201SOL     OW 4138   1.390   1.568   9.795
 1201SOL    HW1 4139   1.450   1.600   9.727
 1201SOL    HW2 4140   1.342   1.645   9.823
 1202SOL     OW 4141   1.279   0.927   9.983
 1202SOL    HW1 4142   1.351   0.865   9.987
 1202SOL    HW2 4143   1.312   1.000   9.930
 1203SOL     OW 4144   0.818   1.274  10.738
 1203SOL    HW1 4145   0.788   1.308  10.822
 1203SOL    HW2 4146   0.748   1.295  10.676
 1204SOL     OW 4147   0.672   1.619   9.465
 1204SOL    HW1 4148   0.682   1.631   9.371
 1204SOL    HW2 4149   0.618   1.541   9.474
 1205SOL     OW 4150   1.622   1.720  10.696
 1205SOL    HW1 4151   1.676   1.735  10.619
 1205SOL    HW2 4152   1.607   1.808  10.732
 1206SOL     OW 4153   1.839   0.155  10.276
 1206SOL    HW1 4154   1.868   0.076  10.230
 1206SOL    HW2 4155   1.752   0.174  10.240
 1207SOL     OW 4156   0.263   0.325  10.033
 1207SOL    HW1 4157   0.180   0.359  10.000
 1207SOL    HW2 4158   0.250   0.316  10.127
 1208SOL     OW 4159   1.207   1.606   9.342
 1208SOL    HW1 4160   1.198   1.515   9.368
 1208SOL    HW2 4161   1.142   1.618   9.272
 1209SOL     OW 4162   0.826   1.006  10.686
 1209SOL    HW1 4163   0.869   0.999  10.601
 1209SOL    HW2 4164   0.826   1.100  10.705
 1210SOL     OW 4165   0.915   0.910   9.600
 1210SOL    HW1 4166   0.977   0.942   9.534
 1210SOL    HW2 4167   0.962   0.840   9.645
 1211SOL     OW 4168   1.493   1.625   9.352
 1211SOL    HW1 4169   1.398   1.619   9.339
 1211SOL    HW2 4170   1.529   1.631   9.264
 1212SOL     OW 4171   0.368   1.312  10.806
 1212SOL    HW1 4172   0.355   1.386  10.747
 1212SOL    HW2 4173   0.296   1.251  10.785
 1213SOL     OW 4174   1.613   1.282  10.593
 1213SOL    HW1 4175   1.669   1.269  10.669
 1213SOL    HW2 4176   1.556   1.355  10.617
 1214SOL     OW 4177   1.052   1.107  10.016
 1214SOL    HW1 4178   0.981   1.056  10.055
 1214SOL    HW2 4179   1.114   1.041   9.985
 1215SOL     OW 4180   1.005   0.244  10.314
 1215SOL    HW1 4181   1.011   0.221  10.222
 1215SOL    HW2 4182   0.998   0.160  10.360
 1216SOL     OW 4183   0.604   1.489   9.793
 1216SOL    HW1 4184   0.646   1.439   9.722
 1216SOL    HW2 4185   0.531   1.533   9.750
 1217SOL     OW 4186   1.719   0.394  10.689
 1217SOL    HW1 4187   1.792   0.456  10.691
 1217SOL    HW2 4188   1.748   0.324  10.631
 1218SOL     OW 4189   0.252   1.344   9.586
 1218SOL    HW1 4190   0.157   1.343   9.572
 1218SOL    HW2 4191   0.263   1.376   9.676
 1219SOL     OW 4192   0.110   1.020  11.003
 1219SOL    HW1 4193   0.053   1.024  11.080
 1219SOL    HW2 4194   0.197   1.000  11.039
 1220SOL     OW 4195   0.655   0.198  10.803
 1220SOL    HW1 4196   0.733   0.172  10.755
 1220SOL    HW2 4197   0.687   0.226  10.889
 1221SOL     OW 4198   0.072   0.320   9.336
 1221SOL    HW1 4199   4.477   0.328   9.351
 1221SOL    HW2 4200   0.099   0.406   9.305
 1222SOL     OW 4201   1.429   0.849  10.709
 1222SOL    HW1 4202   1.381   0.917  10.662
 1222SOL    HW2 4203   1.519   0.858  10.679
 1223SOL     OW 4204   0.085   0.188   9.612
 1223SOL    HW1 4205   0.077   0.261   9.550
 1223SOL    HW2 4206   0.164   0.142   9.585
 1224SOL     OW 4207   1.179   1.340   9.427
 1224SOL    HW1 4208   1.088   1.310   9.429
 1224SOL    HW2 4209   1.207   1.340   9.518
 1225SOL     OW 4210   0.624   0.828  10.739
 1225SOL    HW1 4211   0.678   0.906  10.726
 1225SOL    HW2 4212   0.686   0.756  10.747
 1226SOL     OW 4213   1.485   1.776  10.288
 1226SOL    HW1 4214   1.510   1.836  10.218
 1226SOL    HW2 4215   1.566   1.759  10.335
 1227SOL     OW 4216   0.712   0.563  11.014
 1227SOL    HW1 4217   0.749   0.634  11.067
 1227SOL    HW2 4218   0.760   0.485  11.042
 1228SOL     OW 4219   0.383   1.738  10.872
 1228SOL    HW1 4220   0.307   1.795  10.865
 1228SOL    HW2 4221   0.355   1.669  10.932
 1229SOL     OW 4222   1.671   0.882  10.567
 1229SOL    HW1 4223   1.662   0.797  10.524
 1229SOL    HW2 4224   1.661   0.946  10.496
 1230SOL     OW 4225   1.218   0.330   9.757
 1230SOL    HW1 4226   1.284   0.261   9.747
 1230SOL    HW2 4227   1.246   0.377   9.836
 1231SOL     OW 4228   0.587   0.738   9.980
 1231SOL    HW1 4229   0.628   0.823   9.965
 1231SOL    HW2 4230   0.519   0.731   9.913
 1232SOL     OW 4231   1.750   0.313  10.952
 1232SOL    HW1 4232   1.733   0.353  10.867
 1232SOL    HW2 4233   1.673   0.333  11.004
 1233SOL     OW 4234   1.749   0.936  10.825
 1233SOL    HW1 4235   1.741   1.030  10.839
 1233SOL    HW2 4236   1.731   0.924  10.732
 1234SOL     OW 4237   0.863   1.367   9.344
 1234SOL    HW1 4238   0.824   1.395   9.427
 1234SOL    HW2 4239   0.881   1.449   9.297
 1235SOL     OW 4240   0.660   1.792  10.256
 1235SOL    HW1 4241   0.639   1.882  10.232
 1235SOL    HW2 4242   0.756   1.786  10.247
 1236SOL     OW 4243   0.867   0.967  10.165
 1236SOL    HW1 4244   0.917   0.895  10.203
 1236SOL    HW2 4245   0.833   1.015  10.240
 1237SOL     OW 4246   1.079   0.988   9.399
 1237SOL    HW1 4247   1.057   1.039   9.321
 1237SOL    HW2 4248   1.154   0.935   9.372
 1238SOL     OW 4249   1.856   1.555  10.154
 1238SOL    HW1 4250   1.777   1.544  10.101
 1238SOL    HW2 4251   1.846   1.491  10.225
 1239SOL     OW 4252   0.106   1.235   9.978
 1239SOL    HW1 4253   0.118   1.189  10.061
 1239SOL    HW2 4254   0.166   1.192   9.917
 1240SOL     OW 4255   0.680   1.395  10.939
 1240SOL    HW1 4256   0.608   1.344  10.976
 1240SOL    HW2 4257   0.646   1.484  10.932
 1241SOL     OW 4258   1.802   0.180  10.549
 1241SOL    HW1 4259   1.815   0.087  10.569
 1241SOL    HW2 4260   1.820   0.186  10.455
 1242SOL     OW 4261   0.440   0.431   9.841
 1242SOL    HW1 4262   0.457   0.361   9.779
 1242SOL    HW2 4263   0.381   0.392   9.905
 1243SOL     OW 4264   1.703   1.488  10.404
 1243SOL    HW1 4265   1.621   1.464  10.362
 1243SOL    HW2 4266   1.716   1.421  10.471
 1244SOL     OW 4267   0.305   0.505  10.566
 1244SOL    HW1 4268   0.372   0.455  10.611
 1244SOL    HW2 4269   0.337   0.512  10.476
 1245SOL     OW 4270   0.827   1.578   9.988
 1245SOL    HW1 4271   0.815   1.631   9.909
 1245SOL    HW2 4272   0.750   1.521   9.991
 1246SOL     OW 4273   1.431   0.215  10.429
 1246SOL    HW1 4274   1.470   0.147  10.484
 1246SOL    HW2 4275   1.382   0.270  10.490
 1247SOL     OW 4276   0.995   0.008  10.460
 1247SOL    HW1 4277   0.953   4.423  10.450
 1247SOL    HW2 4278   1.088   4.488  10.473
 1248SOL     OW 4279   0.772   1.333   9.624
 1248SOL    HW1 4280   0.741   1.242   9.630
 1248SOL    HW2 4281   0.854   1.333   9.673
 1249SOL     OW 4282   0.620   1.555  10.597
 1249SOL    HW1 4283   0.621   1.639  10.644
 1249SOL    HW2 4284   0.707   1.549  10.557
 1250SOL     OW 4285   1.340   0.053   9.463
 1250SOL    HW1 4286   1.379   4.477   9.420
 1250SOL    HW2 4287   1.265   0.017   9.510
 1251SOL     OW 4288   1.315   0.463   9.987
 1251SOL    HW1 4289   1.255   0.538   9.988
 1251SOL    HW2 4290   1.303   0.422  10.072
 1252SOL     OW 4291   1.585   0.200  10.178
 1252SOL    HW1 4292   1.526   0.215  10.251
 1252SOL    HW2 4293   1.588   0.284  10.132
 1253SOL     OW 4294   0.041   1.052   9.598
 1253SOL    HW1 4295   0.135   1.035   9.588
 1253SOL    HW2 4296   0.020   1.019   9.686
 1254SOL     OW 4297   0.884   1.652   9.652
 1254SOL    HW1 4298   0.812   1.635   9.592
 1254SOL    HW2 4299   0.855   1.727   9.704
 1255SOL     OW 4300   0.241   2.458   0.107
 1255SOL    HW1 4301   0.168   2.453   0.169
 1255SOL    HW2 4302   0.205   2.501   0.030
 1256SOL     OW 4303   0.212   2.137   0.992
 1256SOL    HW1 4304   0.249   2.111   1.076
 1256SOL    HW2 4305   0.137   2.079   0.979
 1257SOL     OW 4306   0.009   2.253   0.638
 1257SOL    HW1 4307   4.428   2.283   0.680
 1257SOL    HW2 4308   4.484   2.170   0.597
 1258SOL     OW 4309   0.568   3.149   1.175
 1258SOL    HW1 4310   0.480   3.153   1.136
 1258SOL    HW2 4311   0.583   3.236   1.210
 1259SOL     OW 4312   1.560   3.374   0.707
 1259SOL    HW1 4313   1.517   3.353   0.789
 1259SOL    HW2 4314   1.489   3.377   0.643
 1260SOL     OW 4315   1.130   2.561   0.701
 1260SOL    HW1 4316   1.180   2.641   0.688
 1260SOL    HW2 4317   1.084   2.575   0.784
 1261SOL     OW 4318   1.771   2.466   0.225
 1261SOL    HW1 4319   1.733   2.462   0.136
 1261SOL    HW2 4320   1.735   2.390   0.269
 1262SOL     OW 4321   0.756   3.005   1.040
 1262SOL    HW1 4322   0.687   3.039   1.097
 1262SOL    HW2 4323   0.791   3.082   0.996
 1263SOL     OW 4324   0.866   2.636   1.821
 1263SOL    HW1 4325   0.852   2.707   1.884
 1263SOL    HW2 4326   0.889   2.680   1.739
 1264SOL     OW 4327   0.685   2.866   0.647
 1264SOL    HW1 4328   0.751   2.853   0.716
 1264SOL    HW2 4329   0.616   2.917   0.689
 1265SOL     OW 4330   0.711   3.012   1.812
 1265SOL    HW1 4331   0.758   3.091   1.838
 1265SOL    HW2 4332   0.628   3.044   1.776
 1266SOL     OW 4333   0.335   3.283   1.069
 1266SOL    HW1 4334   0.254   3.264   1.023
 1266SOL    HW2 4335   0.385   3.337   1.008
 1267SOL     OW 4336   1.461   3.361   1.354
 1267SOL    HW1 4337   1.510   3.442   1.364
 1267SOL    HW2 4338   1.399   3.361   1.427
 1268SOL     OW 4339   0.444   2.267   1.492
 1268SOL    HW1 4340   0.524   2.214   1.497
 1268SOL    HW2 4341   0.373   2.203   1.497
 1269SOL     OW 4342   1.610   2.309   0.743
 1269SOL    HW1 4343   1.536   2.331   0.687
 1269SOL    HW2 4344   1.628   2.389   0.792
 1270SOL     OW 4345   0.245   3.553   0.482
 1270SOL    HW1 4346   0.232   3.640   0.521
 1270SOL    HW2 4347   0.305   3.568   0.409
 1271SOL     OW 4348   1.136   3.203   1.692
 1271SOL    HW1 4349   1.176   3.199   1.779
 1271SOL    HW2 4350   1.084   3.124   1.686
 1272SOL     OW 4351   0.245   3.289   0.528
 1272SOL    HW1 4352   0.240   3.384   0.529
 1272SOL    HW2 4353   0.180   3.261   0.593
 1273SOL     OW 4354   0.247   2.944   0.884
 1273SOL    HW1 4355   0.264   2.854   0.913
 1273SOL    HW2 4356   0.187   2.980   0.950
 1274SOL     OW 4357   0.614   3.653   1.432
 1274SOL    HW1 4358   0.531   3.634   1.475
 1274SOL    HW2 4359   0.634   3.743   1.456
 1275SOL     OW 4360   0.572   2.856   0.148
 1275SOL    HW1 4361   0.620   2.896   0.075
 1275SOL    HW2 4362   0.621   2.882   0.226
 1276SOL     OW 4363   1.590   1.985   1.467
 1276SOL    HW1 4364   1.606   2.064   1.416
 1276SOL    HW2 4365   1.582   2.016   1.557
 1277SOL     OW 4366   0.135   2.508   0.573
 1277SOL    HW1 4367   0.089   2.427   0.592
 1277SOL    HW2 4368   0.107   2.569   0.641
 1278SOL     OW 4369   1.842   3.622   0.334
 1278SOL    HW1 4370   1.906   3.592   0.399
 1278SOL    HW2 4371   1.868   3.712   0.315
 1279SOL     OW 4372   0.074   3.452   0.151
 1279SOL    HW1 4373   0.039   3.364   0.157
 1279SOL    HW2 4374   0.023   3.503   0.214
 1280SOL     OW 4375   1.689   2.781   0.641
 1280SOL    HW1 4376   1.772   2.739   0.617
 1280SOL    HW2 4377   1.666   2.832   0.564
 1281SOL     OW 4378   1.646   2.967   0.432
 1281SOL    HW1 4379   1.729   2.978   0.385
 1281SOL    HW2 4380   1.651   3.030   0.504
 1282SOL     OW 4381   0.112   2.624   1.585
 1282SOL    HW1 4382   0.204   2.623   1.557
 1282SOL    HW2 4383   0.093   2.717   1.601
 1283SOL     OW 4384   0.614   3.247   0.736
 1283SOL    HW1 4385   0.567   3.164   0.746
 1283SOL    HW2 4386   0.597   3.274   0.646
 1284SOL     OW 4387   1.289   3.101   1.423
 1284SOL    HW1 4388   1.321   3.033   1.363
 1284SOL    HW2 4389   1.346   3.094   1.500
 1285SOL     OW 4390   0.816   1.862   0.508
 1285SOL    HW1 4391   0.855   1.948   0.491
 1285SOL    HW2 4392   0.722   1.880   0.517
 1286SOL     OW 4393   0.180   2.802   1.279
 1286SOL    HW1 4394   0.272   2.785   1.259
 1286SOL    HW2 4395   0.133   2.787   1.197
 1287SOL     OW 4396   1.517   2.864   0.202
 1287SOL    HW1 4397   1.453   2.802   0.238
 1287SOL    HW2 4398   1.567   2.893   0.279
 1288SOL     OW 4399   1.186   3.668   1.622
 1288SOL    HW1 4400   1.197   3.726   1.546
 1288SOL    HW2 4401   1.201   3.580   1.587
 1289SOL     OW 4402   0.331   2.118   1.798
 1289SOL    HW1 4403   0.380   2.191   1.834
 1289SOL    HW2 4404   0.244   2.126   1.837
 1290SOL     OW 4405   1.467   3.281   0.952
 1290SOL    HW1 4406   1.398   3.296   1.017
 1290SOL    HW2 4407   1.454   3.191   0.925
 1291SOL     OW 4408   1.659   3.601   0.579
 1291SOL    HW1 4409   1.639   3.573   0.490
 1291SOL    HW2 4410   1.633   3.527   0.634
 1292SOL     OW 4411   0.595   2.580   0.264
 1292SOL    HW1 4412   0.600   2.662   0.215
 1292SOL    HW2 4413   0.533   2.598   0.334
 1293SOL     OW 4414   1.279   2.214   0.932
 1293SOL    HW1 4415   1.190   2.181   0.941
 1293SOL    HW2 4416   1.330   2.161   0.993
 1294SOL     OW 4417   1.582   3.532   0.312
 1294SOL    HW1 4418   1.672   3.563   0.305
 1294SOL    HW2 4419   1.556   3.514   0.222
 1295SOL     OW 4420   0.794   2.478   1.451
 1295SOL    HW1 4421   0.767   2.455   1.540
 1295SOL    HW2 4422   0.751   2.413   1.395
 1296SOL     OW 4423   1.393   2.336   1.678
 1296SOL    HW1 4424   1.396   2.380   1.763
 1296SOL    HW2 4425   1.456   2.264   1.686
 1297SOL     OW 4426   0.955   2.749   1.582
 1297SOL    HW1 4427   1.010   2.679   1.547
 1297SOL    HW2 4428   0.908   2.784   1.506
 1298SOL     OW 4429   0.993   2.276   1.238
 1298SOL    HW1 4430   0.908   2.297   1.278
 1298SOL    HW2 4431   0.971   2.228   1.158
 1299SOL     OW 4432   1.050   2.564   0.427
 1299SOL    HW1 4433   1.067   2.555   0.521
 1299SOL    HW2 4434   0.968   2.517   0.413
 1300SOL     OW 4435   0.097   2.688   0.784
 1300SOL    HW1 4436   0.183   2.672   0.822
 1300SOL    HW2 4437   0.044   2.718   0.857
 1301SOL     OW 4438   0.125   3.715   1.576
 1301SOL    HW1 4439   0.117   3.694   1.669
 1301SOL    HW2 4440   0.044   3.681   1.537
 1302SOL     OW 4441   0.889   2.217   0.209
 1302SOL    HW1 4442   0.935   2.273   0.147
 1302SOL    HW2 4443   0.902   2.128   0.176
 1303SOL     OW 4444   1.711   2.443   1.830
 1303SOL    HW1 4445   1.673   2.516   1.782
 1303SOL    HW2 4446   1.729   2.376   1.763
 1304SOL     OW 4447   1.377   3.004   0.542
 1304SOL    HW1 4448   1.455   2.990   0.488
 1304SOL    HW2 4449   1.324   3.066   0.492
 1305SOL     OW 4450   0.552   2.044   0.893
 1305SOL    HW1 4451   0.554   2.075   0.984
 1305SOL    HW2 4452   0.552   2.124   0.841
 1306SOL     OW 4453   1.006   3.307   0.474
 1306SOL    HW1 4454   0.968   3.379   0.424
 1306SOL    HW2 4455   0.987   3.328   0.565
 1307SOL     OW 4456   0.355   3.672   0.859
 1307SOL    HW1 4457   0.397   3.586   0.869
 1307SOL    HW2 4458   0.426   3.735   0.873
 1308SOL     OW 4459   1.800   2.918   0.868
 1308SOL    HW1 4460   1.745   2.902   0.791
 1308SOL    HW2 4461   1.738   2.924   0.941
 1309SOL     OW 4462   1.228   3.401   1.513
 1309SOL    HW1 4463   1.214   3.328   1.574
 1309SOL    HW2 4464   1.165   3.386   1.443
 1310SOL     OW 4465   0.313   2.818   0.278
 1310SOL    HW1 4466   0.396   2.845   0.239
 1310SOL    HW2 4467   0.308   2.724   0.261
 1311SOL     OW 4468   1.478   2.603   0.727
 1311SOL    HW1 4469   1.469   2.560   0.812
 1311SOL    HW2 4470   1.555   2.659   0.736
 1312SOL     OW 4471   0.467   3.124   1.735
 1312SOL    HW1 4472   0.440   3.131   1.644
 1312SOL    HW2 4473   0.386   3.129   1.785
 1313SOL     OW 4474   1.108   3.641   0.227
 1313SOL    HW1 4475   1.048   3.589   0.281
 1313SOL    HW2 4476   1.149   3.576   0.169
 1314SOL     OW 4477   0.196   2.139   1.486
 1314SOL    HW1 4478   0.137   2.214   1.492
 1314SOL    HW2 4479   0.183   2.092   1.568
 1315SOL     OW 4480   1.628   3.236   0.089
 1315SOL    HW1 4481   1.585   3.321   0.077
 1315SOL    HW2 4482   1.562   3.173   0.060
 1316SOL     OW 4483   0.469   3.604   0.317
 1316SOL    HW1 4484   0.508   3.660   0.384
 1316SOL    HW2 4485   0.544   3.574   0.265
 1317SOL     OW 4486   1.401   1.970   0.431
 1317SOL    HW1 4487   1.393   1.947   0.339
 1317SOL    HW2 4488   1.496   1.978   0.445
 1318SOL     OW 4489   0.261   3.656   1.231
 1318SOL    HW1 4490   0.305   3.580   1.270
 1318SOL    HW2 4491   0.226   3.623   1.148
 1319SOL     OW 4492   0.938   3.561   0.899
 1319SOL    HW1 4493   1.015   3.508   0.920
 1319SOL    HW2 4494   0.894   3.511   0.830
 1320SOL     OW 4495   0.392   2.557   0.470
 1320SOL    HW1 4496   0.417   2.465   0.483
 1320SOL    HW2 4497   0.302   2.561   0.500
 1321SOL     OW 4498   1.534   2.086   1.726
 1321SOL    HW1 4499   1.541   2.106   1.820
 1321SOL    HW2 4500   1.466   2.018   1.722
 1322SOL     OW 4501   0.615   1.968   0.123
 1322SOL    HW1 4502   0.705   1.937   0.122
 1322SOL    HW2 4503   0.583   1.952   0.035
 1323SOL     OW 4504   0.767   2.139   1.754
 1323SOL    HW1 4505   0.843   2.081   1.755
 1323SOL    HW2 4506   0.718   2.117   1.834
 1324SOL     OW 4507   0.877   3.384   1.193
 1324SOL    HW1 4508   0.861   3.348   1.106
 1324SOL    HW2 4509   0.946   3.329   1.230
 1325SOL     OW 4510   1.340   2.451   1.432
 1325SOL    HW1 4511   1.371   2.419   1.517
 1325SOL    HW2 4512   1.377   2.539   1.425
 1326SOL     OW 4513   0.815   3.258   0.939
 1326SOL    HW1 4514   0.899   3.246   0.894
 1326SOL    HW2 4515   0.750   3.258   0.869
 1327SOL     OW 4516   0.927   2.371   0.904
 1327SOL    HW1 4517   0.904   2.363   0.811
 1327SOL    HW2 4518   0.959   2.284   0.928
 1328SOL     OW 4519   0.553   1.923   0.504
 1328SOL    HW1 4520   0.471   1.921   0.554
 1328SOL    HW2 4521   0.546   2.002   0.450
 1329SOL     OW 4522   1.425   3.058   0.029
 1329SOL    HW1 4523   1.457   2.987   0.084
 1329SOL    HW2 4524   1.342   3.084   0.070
 1330SOL     OW 4525   0.286   1.911   0.192
 1330SOL    HW1 4526   0.335   1.961   0.126
 1330SOL    HW2 4527   0.349   1.846   0.224
 1331SOL     OW 4528   0.940   2.108   0.463
 1331SOL    HW1 4529   0.911   2.153   0.383
 1331SOL    HW2 4530   1.034   2.123   0.466
 1332SOL     OW 4531   1.080   2.543   1.459
 1332SOL    HW1 4532   1.012   2.476   1.465
 1332SOL    HW2 4533   1.162   2.493   1.453
 1333SOL     OW 4534   1.223   3.432   0.794
 1333SOL    HW1 4535   1.240   3.498   0.727
 1333SOL    HW2 4536   1.292   3.446   0.859
 1334SOL     OW 4537   0.468   3.011   0.739
 1334SOL    HW1 4538   0.397   2.992   0.800
 1334SOL    HW2 4539   0.430   2.999   0.652
 1335SOL     OW 4540   1.269   3.656   0.606
 1335SOL    HW1 4541   1.316   3.718   0.550
 1335SOL    HW2 4542   1.204   3.710   0.651
 1336SOL     OW 4543   1.012   2.398   0.038
 1336SOL    HW1 4544   0.979   2.486   0.018
 1336SOL    HW2 4545   1.092   2.413   0.089
 1337SOL     OW 4546   0.083   2.390   1.410
 1337SOL    HW1 4547   0.148   2.387   1.339
 1337SOL    HW2 4548   0.068   2.484   1.425
 1338SOL     OW 4549   0.561   2.090   1.166
 1338SOL    HW1 4550   0.603   2.011   1.200
 1338SOL    HW2 4551   0.469   2.081   1.193
 1339SOL     OW 4552   0.868   2.322   0.640
 1339SOL    HW1 4553   0.823   2.376   0.575
 1339SOL    HW2 4554   0.888   2.240   0.594
 1340SOL     OW 4555   1.015   1.915   0.752
 1340SOL    HW1 4556   0.956   1.908   0.677
 1340SOL    HW2 4557   0.994   1.840   0.806
 1341SOL     OW 4558   1.437   3.025   0.857
 1341SOL    HW1 4559   1.368   2.959   0.856
 1341SOL    HW2 4560   1.461   3.036   0.765
 1342SOL     OW 4561   1.465   2.467   0.978
 1342SOL    HW1 4562   1.416   2.385   0.980
 1342SOL    HW2 4563   1.524   2.461   1.053
 1343SOL     OW 4564   1.849   2.676   0.383
 1343SOL    HW1 4565   1.905   2.623   0.441
 1343SOL    HW2 4566   1.820   2.614   0.316
 1344SOL     OW 4567   0.494   3.284   0.174
 1344SOL    HW1 4568   0.415   3.260   0.222
 1344SOL    HW2 4569   0.490   3.235   0.092
 1345SOL     OW 4570   1.670   3.126   0.648
 1345SOL    HW1 4571   1.765   3.131   0.660
 1345SOL    HW2 4572   1.639   3.215   0.667
 1346SOL     OW 4573   1.390   2.439   0.080
 1346SOL    HW1 4574   1.330   2.416   0.151
 1346SOL    HW2 4575   1.458   2.372   0.084
 1347SOL     OW 4576   0.529   2.125   0.328
 1347SOL    HW1 4577   0.556   2.065   0.258
 1347SOL    HW2 4578   0.511   2.208   0.283
 1348SOL     OW 4579   1.752   3.101   1.573
 1348SOL    HW1 4580   1.839   3.061   1.571
 1348SOL    HW2 4581   1.768   3.191   1.602
 1349SOL     OW 4582   1.059   3.216   1.334
 1349SOL    HW1 4583   0.984   3.185   1.385
 1349SOL    HW2 4584   1.135   3.174   1.375
 1350SOL     OW 4585   1.608   3.488   1.654
 1350SOL    HW1 4586   1.602   3.521   1.564
 1350SOL    HW2 4587   1.691   3.440   1.656
 1351SOL     OW 4588   1.129   3.066   1.106
 1351SOL    HW1 4589   1.069   3.103   1.171
 1351SOL    HW2 4590   1.095   3.097   1.022
 1352SOL     OW 4591   1.629   2.961   1.077
 1352SOL    HW1 4592   1.624   3.023   1.150
 1352SOL    HW2 4593   1.550   2.977   1.026
 1353SOL     OW 4594   0.917   1.960   1.397
 1353SOL    HW1 4595   0.940   1.940   1.306
 1353SOL    HW2 4596   0.997   1.999   1.433
 1354SOL     OW 4597   0.984   2.976   1.722
 1354SOL    HW1 4598   0.892   2.992   1.744
 1354SOL    HW2 4599   0.983   2.899   1.667
 1355SOL     OW 4600   0.710   2.922   0.374
 1355SOL    HW1 4601   0.697   2.906   0.467
 1355SOL    HW2 4602   0.786   2.868   0.351
 1356SOL     OW 4603   0.431   2.688   1.241
 1356SOL    HW1 4604   0.500   2.700   1.306
 1356SOL    HW2 4605   0.372   2.623   1.280
 1357SOL     OW 4606   1.266   2.239   1.275
 1357SOL    HW1 4607   1.299   2.316   1.321
 1357SOL    HW2 4608   1.176   2.261   1.252
 1358SOL     OW 4609   0.062   3.438   1.342
 1358SOL    HW1 4610   0.035   3.528   1.321
 1358SOL    HW2 4611   0.158   3.443   1.348
 1359SOL     OW 4612   0.348   2.979   0.499
 1359SOL    HW1 4613   0.351   3.053   0.438
 1359SOL    HW2 4614   0.341   2.902   0.443
 1360SOL     OW 4615   0.561   2.395   0.856
 1360SOL    HW1 4616   0.574   2.455   0.782
 1360SOL    HW2 4617   0.622   2.426   0.923
 1361SOL     OW 4618   1.247   3.208   0.395
 1361SOL    HW1 4619   1.303   3.281   0.422
 1361SOL    HW2 4620   1.160   3.232   0.427
 1362SOL     OW 4621   1.280   3.319   1.146
 1362SOL    HW1 4622   1.335   3.321   1.225
 1362SOL    HW2 4623   1.225   3.242   1.158
 1363SOL     OW 4624   1.584   2.487   0.479
 1363SOL    HW1 4625   1.535   2.537   0.544
 1363SOL    HW2 4626   1.621   2.553   0.420
 1364SOL     OW 4627   0.346   3.394   1.315
 1364SOL    HW1 4628   0.333   3.347   1.233
 1364SOL    HW2 4629   0.442   3.404   1.321
 1365SOL     OW 4630   0.478   2.619   1.665
 1365SOL    HW1 4631   0.508   2.658   1.583
 1365SOL    HW2 4632   0.524   2.535   1.670
 1366SOL     OW 4633   1.601   2.642   1.682
 1366SOL    HW1 4634   1.514   2.682   1.675
 1366SOL    HW2 4635   1.653   2.683   1.613
 1367SOL     OW 4636   0.996   1.985   1.755
 1367SOL    HW1 4637   1.052   2.057   1.726
 1367SOL    HW2 4638   1.044   1.906   1.729
 1368SOL     OW 4639   0.497   1.905   1.747
 1368SOL    HW1 4640   0.456   1.848   1.682
 1368SOL    HW2 4641   0.438   1.979   1.755
 1369SOL     OW 4642   0.590   2.735   1.024
 1369SOL    HW1 4643   0.618   2.827   1.026
 1369SOL    HW2 4644   0.533   2.726   1.101
 1370SOL     OW 4645   1.358   2.721   1.031
 1370SOL    HW1 4646   1.275   2.712   0.983
 1370SOL    HW2 4647   1.398   2.634   1.025
 1371SOL     OW 4648   1.202   2.388   0.271
 1371SOL    HW1 4649   1.211   2.310   0.326
 1371SOL    HW2 4650   1.160   2.453   0.327
 1372SOL     OW 4651   0.302   2.053   1.242
 1372SOL    HW1 4652   0.263   2.087   1.322
 1372SOL    HW2 4653   0.285   1.959   1.245
 1373SOL     OW 4654   0.039   3.175   1.285
 1373SOL    HW1 4655   0.076   3.127   1.360
 1373SOL    HW2 4656   0.045   3.267   1.310
 1374SOL     OW 4657   0.725   2.493   1.059
 1374SOL    HW1 4658   0.800   2.475   1.001
 1374SOL    HW2 4659   0.698   2.582   1.036
 1375SOL     OW 4660   1.734   2.823   1.852
 1375SOL    HW1 4661   1.688   2.761   1.795
 1375SOL    HW2 4662   1.674   2.835   1.926
 1376SOL     OW 4663   0.311   1.932   0.620
 1376SOL    HW1 4664   0.287   2.021   0.647
 1376SOL    HW2 4665   0.307   1.881   0.700
 1377SOL     OW 4666   1.615   2.235   0.367
 1377SOL    HW1 4667   1.645   2.172   0.433
 1377SOL    HW2 4668   1.594   2.314   0.417
 1378SOL     OW 4669   1.028   2.621   0.961
 1378SOL    HW1 4670   1.025   2.639   1.055
 1378SOL    HW2 4671   1.001   2.529   0.953
 1379SOL     OW 4672   0.983   3.429   1.716
 1379SOL    HW1 4673   0.967   3.472   1.633
 1379SOL    HW2 4674   1.025   3.346   1.693
 1380SOL     OW 4675   1.855   3.368   1.606
 1380SOL    HW1 4676   1.873   3.394   1.515
 1380SOL    HW2 4677   1.936   3.387   1.652
 1381SOL     OW 4678   0.347   2.795   1.818
 1381SOL    HW1 4679   0.420   2.824   1.872
 1381SOL    HW2 4680   0.385   2.728   1.761
 1382SOL     OW 4681   1.533   2.152   0.116
 1382SOL    HW1 4682   1.474   2.078   0.133
 1382SOL    HW2 4683   1.566   2.176   0.203
 1383SOL     OW 4684   1.287   2.685   0.032
 1383SOL    HW1 4685   1.331   2.601   0.044
 1383SOL    HW2 4686   1.323   2.719  11.051
 1384SOL     OW 4687   1.066   3.197   0.853
 1384SOL    HW1 4688   1.069   3.125   0.791
 1384SOL    HW2 4689   1.127   3.262   0.818
 1385SOL     OW 4690   0.318   2.673   0.947
 1385SOL    HW1 4691   0.412   2.690   0.945
 1385SOL    HW2 4692   0.311   2.582   0.976
 1386SOL     OW 4693   0.331   2.387   0.990
 1386SOL    HW1 4694   0.293   2.300   0.975
 1386SOL    HW2 4695   0.409   2.389   0.935
 1387SOL     OW 4696   1.134   2.239   1.681
 1387SOL    HW1 4697   1.087   2.293   1.744
 1387SOL    HW2 4698   1.222   2.276   1.678
 1388SOL     OW 4699   1.160   2.065   1.470
 1388SOL    HW1 4700   1.150   2.128   1.541
 1388SOL    HW2 4701   1.201   2.115   1.399
 1389SOL     OW 4702   4.496   3.186   0.200
 1389SOL    HW1 4703   4.403   3.205   0.193
 1389SOL    HW2 4704   0.000   3.094   0.228
 1390SOL     OW 4705   0.097   3.639   0.940
 1390SOL    HW1 4706   0.058   3.586   0.871
 1390SOL    HW2 4707   0.185   3.659   0.908
 1391SOL     OW 4708   0.497   3.436   0.907
 1391SOL    HW1 4709   0.565   3.498   0.931
 1391SOL    HW2 4710   0.541   3.373   0.850
 1392SOL     OW 4711   0.984   2.655   1.227
 1392SOL    HW1 4712   1.039   2.631   1.301
 1392SOL    HW2 4713   0.898   2.618   1.248
 1393SOL     OW 4714   0.034   2.424   1.103
 1393SOL    HW1 4715   0.119   2.391   1.073
 1393SOL    HW2 4716   0.020   2.380   1.187
 1394SOL     OW 4717   0.179   2.381   1.714
 1394SOL    HW1 4718   0.259   2.352   1.672
 1394SOL    HW2 4719   0.156   2.462   1.669
 1395SOL     OW 4720   1.376   2.801   1.659
 1395SOL    HW1 4721   1.397   2.895   1.657
 1395SOL    HW2 4722   1.374   2.775   1.567
 1396SOL     OW 4723   0.816   2.436   0.365
 1396SOL    HW1 4724   0.824   2.361   0.306
 1396SOL    HW2 4725   0.741   2.485   0.330
 1397SOL     OW 4726   1.640   2.465   1.188
 1397SOL    HW1 4727   1.632   2.402   1.260
 1397SOL    HW2 4728   1.729   2.451   1.153
 1398SOL     OW 4729   0.273   3.424   1.741
 1398SOL    HW1 4730   0.217   3.476   1.797
 1398SOL    HW2 4731   0.253   3.333   1.764
 1399SOL     OW 4732   0.691   2.316   1.262
 1399SOL    HW1 4733   0.646   2.239   1.229
 1399SOL    HW2 4734   0.692   2.377   1.189
 1400SOL     OW 4735   0.929   3.541   1.467
 1400SOL    HW1 4736   0.902   3.506   1.382
 1400SOL    HW2 4737   0.923   3.636   1.457
 1401SOL     OW 4738   0.475   2.346   0.181
 1401SOL    HW1 4739   0.531   2.419   0.205
 1401SOL    HW2 4740   0.390   2.385   0.162
 1402SOL     OW 4741   0.162   3.003   1.461
 1402SOL    HW1 4742   0.145   2.958   1.544
 1402SOL    HW2 4743   0.169   2.933   1.396
 1403SOL     OW 4744   1.327   2.910   1.223
 1403SOL    HW1 4745   1.350   2.846   1.155
 1403SOL    HW2 4746   1.256   2.961   1.185
 1404SOL     OW 4747   1.307   2.715   0.310
 1404SOL    HW1 4748   1.231   2.682   0.358
 1404SOL    HW2 4749   1.286   2.701   0.218
 1405SOL     OW 4750   1.772   3.606   1.150
 1405SOL    HW1 4751   1.831   3.632   1.080
 1405SOL    HW2 4752   1.747   3.516   1.129
 1406SOL     OW 4753   1.241   3.595   1.114
 1406SOL    HW1 4754   1.323   3.616   1.068
 1406SOL    HW2 4755   1.246   3.502   1.132
 1407SOL     OW 4756   0.066   3.047   1.049
 1407SOL    HW1 4757   0.066   3.079   1.140
 1407SOL    HW2 4758   0.023   3.116   0.999
 1408SOL     OW 4759   0.679   3.528   1.729
 1408SOL    HW1 4760   0.623   3.605   1.723
 1408SOL    HW2 4761   0.742   3.538   1.658
 1409SOL     OW 4762   0.917   1.954   0.108
 1409SOL    HW1 4763   0.968   1.918   0.035
 1409SOL    HW2 4764   0.954   1.912   0.186
 1410SOL     OW 4765   1.719   2.007   0.511
 1410SOL    HW1 4766   1.791   1.992   0.449
 1410SOL    HW2 4767   1.703   1.921   0.550
 1411SOL     OW 4768   1.390   3.430   0.485
 1411SOL    HW1 4769   1.451   3.461   0.419
 1411SOL    HW2 4770   1.343   3.508   0.513
 1412SOL     OW 4771   0.119   3.669   1.847
 1412SOL    HW1 4772   0.079   3.596   1.895
 1412SOL    HW2 4773   0.182   3.706   1.909
 1413SOL     OW 4774   1.277   2.788   0.671
 1413SOL    HW1 4775   1.351   2.726   0.677
 1413SOL    HW2 4776   1.311   2.860   0.619
 1414SOL     OW 4777   0.815   3.136   1.430
 1414SOL    HW1 4778   0.787   3.174   1.513
 1414SOL    HW2 4779   0.744   3.157   1.369
 1415SOL     OW 4780   0.674   3.483   0.167
 1415SOL    HW1 4781   0.686   3.490   0.073
 1415SOL    HW2 4782   0.617   3.407   0.178
 1416SOL     OW 4783   1.627   3.588   1.392
 1416SOL    HW1 4784   1.677   3.595   1.310
 1416SOL    HW2 4785   1.614   3.679   1.419
 1417SOL     OW 4786   1.847   2.044   0.966
 1417SOL    HW1 4787   1.881   1.958   0.941
 1417SOL    HW2 4788   1.761   2.049   0.925
 1418SOL     OW 4789   0.265   2.182   0.720
 1418SOL    HW1 4790   0.182   2.221   0.691
 1418SOL    HW2 4791   0.254   2.169   0.814
 1419SOL     OW 4792   1.223   3.464   0.052
 1419SOL    HW1 4793   1.210   3.371   0.073
 1419SOL    HW2 4794   1.157   3.483  11.085
 1420SOL     OW 4795   0.826   2.869   1.372
 1420SOL    HW1 4796   0.868   2.865   1.286
 1420SOL    HW2 4797   0.824   2.962   1.395
 1421SOL     OW 4798   0.914   2.769   0.281
 1421SOL    HW1 4799   0.981   2.809   0.225
 1421SOL    HW2 4800   0.962   2.704   0.333
 1422SOL     OW 4801   1.499   3.484   0.047
 1422SOL    HW1 4802   1.403   3.479   0.044
 1422SOL    HW2 4803   1.525   3.498  11.056
 1423SOL     OW 4804   0.373   3.169   1.490
 1423SOL    HW1 4805   0.355   3.248   1.439
 1423SOL    HW2 4806   0.298   3.112   1.474
 1424SOL     OW 4807   1.612   3.145   1.281
 1424SOL    HW1 4808   1.669   3.134   1.357
 1424SOL    HW2 4809   1.551   3.214   1.307
 1425SOL     OW 4810   1.051   2.969   0.705
 1425SOL    HW1 4811   0.981   2.918   0.746
 1425SOL    HW2 4812   1.114   2.903   0.675
 1426SOL     OW 4813   1.020   2.102   0.966
 1426SOL    HW1 4814   1.016   2.054   0.883
 1426SOL    HW2 4815   1.016   2.034   1.033
 1427SOL     OW 4816   0.603   3.353   0.483
 1427SOL    HW1 4817   0.642   3.302   0.412
 1427SOL    HW2 4818   0.529   3.398   0.442
 1428SOL     OW 4819   1.718   2.257   1.380
 1428SOL    HW1 4820   1.793   2.316   1.382
 1428SOL    HW2 4821   1.747   2.183   1.326
 1429SOL     OW 4822   0.263   3.191   0.283
 1429SOL    HW1 4823   0.175   3.203   0.247
 1429SOL    HW2 4824   0.258   3.231   0.370
 1430SOL     OW 4825   0.116   2.870   1.694
 1430SOL    HW1 4826   0.052   2.911   1.752
 1430SOL    HW2 4827   0.194   2.859   1.748
 1431SOL     OW 4828   0.674   2.061   1.499
 1431SOL    HW1 4829   0.757   2.039   1.458
 1431SOL    HW2 4830   0.697   2.089   1.587
 1432SOL     OW 4831   0.058   2.204   0.003
 1432SOL    HW1 4832   4.471   2.191   0.040
 1432SOL    HW2 4833   0.078   2.296   0.021
 1433SOL     OW 4834   1.431   2.721   1.401
 1433SOL    HW1 4835   1.382   2.781   1.345
 1433SOL    HW2 4836   1.520   2.723   1.367
 1434SOL     OW 4837   0.078   2.032   0.307
 1434SOL    HW1 4838   0.084   2.116   0.260
 1434SOL    HW2 4839   0.154   1.982   0.276
 1435SOL     OW 4840   1.182   3.202   0.122
 1435SOL    HW1 4841   1.089   3.183   0.115
 1435SOL    HW2 4842   1.202   3.194   0.215
 1436SOL     OW 4843   0.623   2.693   1.431
 1436SOL    HW1 4844   0.679   2.770   1.417
 1436SOL    HW2 4845   0.684   2.620   1.438
 1437SOL     OW 4846   1.484   3.639   0.978
 1437SOL    HW1 4847   1.508   3.697   0.906
 1437SOL    HW2 4848   1.567   3.620   1.022
 1438SOL     OW 4849   0.714   2.425   1.704
 1438SOL    HW1 4850   0.755   2.488   1.763
 1438SOL    HW2 4851   0.745   2.340   1.735
 1439SOL     OW 4852   1.471   3.063   1.632
 1439SOL    HW1 4853   1.458   3.076   1.726
 1439SOL    HW2 4854   1.564   3.077   1.618
 1440SOL     OW 4855   0.380   3.605   1.564
 1440SOL    HW1 4856   0.295   3.646   1.547
 1440SOL    HW2 4857   0.360   3.525   1.613
 1441SOL     OW 4858   1.671   2.744   1.255
 1441SOL    HW1 4859   1.661   2.658   1.213
 1441SOL    HW2 4860   1.660   2.807   1.184
 1442SOL     OW 4861   1.216   2.179   0.459
 1442SOL    HW1 4862   1.281   2.109   0.449
 1442SOL    HW2 4863   1.246   2.229   0.536
 1443SOL     OW 4864   0.590   2.600   0.668
 1443SOL    HW1 4865   0.628   2.687   0.654
 1443SOL    HW2 4866   0.521   2.592   0.602
 1444SOL     OW 4867   1.750   2.236   1.658
 1444SOL    HW1 4868   1.751   2.236   1.562
 1444SOL    HW2 4869   1.682   2.173   1.682
 1445SOL     OW 4870   1.744   2.796   1.512
 1445SOL    HW1 4871   1.741   2.891   1.525
 1445SOL    HW2 4872   1.729   2.784   1.418
 1446SOL     OW 4873   0.903   3.219   0.068
 1446SOL    HW1 4874   0.833   3.217   0.133
 1446SOL    HW2 4875   0.890   3.301   0.020
 1447SOL     OW 4876   0.661   3.654   0.946
 1447SOL    HW1 4877   0.640   3.743   0.922
 1447SOL    HW2 4878   0.756   3.648   0.937
 1448SOL     OW 4879   0.868   2.829   0.855
 1448SOL    HW1 4880   0.917   2.757   0.894
 1448SOL    HW2 4881   0.833   2.878   0.929
 1449SOL     OW 4882   1.079   2.852   0.085
 1449SOL    HW1 4883   1.055   2.885  11.098
 1449SOL    HW2 4884   1.155   2.797   0.069
 1450SOL     OW 4885   1.854   3.417   0.845
 1450SOL    HW1 4886   1.777   3.406   0.789
 1450SOL    HW2 4887   1.845   3.350   0.912
 1451SOL     OW 4888   0.230   3.168   1.858
 1451SOL    HW1 4889   0.157   3.110   1.835
 1451SOL    HW2 4890   0.224   3.178   1.953
 1452SOL     OW 4891   0.104   3.095   0.669
 1452SOL    HW1 4892   0.120   3.050   0.752
 1452SOL    HW2 4893   0.168   3.057   0.608
 1453SOL     OW 4894   0.682   3.265   1.628
 1453SOL    HW1 4895   0.602   3.221   1.656
 1453SOL    HW2 4896   0.676   3.353   1.665
 1454SOL     OW 4897   1.806   2.056   1.231
 1454SOL    HW1 4898   1.840   1.972   1.261
 1454SOL    HW2 4899   1.820   2.055   1.137
 1455SOL     OW 4900   0.433   2.297   0.526
 1455SOL    HW1 4901   0.463   2.224   0.471
 1455SOL    HW2 4902   0.384   2.255   0.597
 1456SOL     OW 4903   1.700   3.352   1.097
 1456SOL    HW1 4904   1.619   3.328   1.051
 1456SOL    HW2 4905   1.711   3.282   1.162
 1457SOL     OW 4906   0.300   2.349   1.253
 1457SOL    HW1 4907   0.375   2.309   1.297
 1457SOL    HW2 4908   0.331   2.365   1.164
 1458SOL     OW 4909   0.827   3.440   0.678
 1458SOL    HW1 4910   0.814   3.491   0.598
 1458SOL    HW2 4911   0.750   3.382   0.682
 1459SOL     OW 4912   1.432   2.087   1.117
 1459SOL    HW1 4913   1.464   2.010   1.165
 1459SOL    HW2 4914   1.380   2.135   1.181
 1460SOL     OW 4915   1.008   1.881   1.143
 1460SOL    HW1 4916   0.954   1.813   1.103
 1460SOL    HW2 4917   1.096   1.843   1.145
 1461SOL     OW 4918   0.768   3.190   0.315
 1461SOL    HW1 4919   0.739   3.100   0.329
 1461SOL    HW2 4920   0.852   3.195   0.361
 1462SOL     OW 4921   0.621   3.418   1.285
 1462SOL    HW1 4922   0.623   3.500   1.335
 1462SOL    HW2 4923   0.708   3.411   1.246
 1463SOL     OW 4924   1.351   1.916   0.164
 1463SOL    HW1 4925   1.372   1.866   0.086
 1463SOL    HW2 4926   1.264   1.884   0.190
 1464SOL     OW 4927   1.296   2.323   0.681
 1464SOL    HW1 4928   1.243   2.402   0.689
 1464SOL    HW2 4929   1.293   2.283   0.768
 1465SOL     OW 4930   1.588   2.063   0.878
 1465SOL    HW1 4931   1.527   2.082   0.949
 1465SOL    HW2 4932   1.587   2.141   0.823
 1466SOL     OW 4933   0.038   2.913   0.284
 1466SOL    HW1 4934   0.134   2.906   0.284
 1466SOL    HW2 4935   0.012   2.880   0.370
 1467SOL     OW 4936   0.885   3.515   0.347
 1467SOL    HW1 4937   0.813   3.495   0.287
 1467SOL    HW2 4938   0.854   3.589   0.399
 1468SOL     OW 4939   0.248   2.491   1.982
 1468SOL    HW1 4940   0.173   2.470   2.039
 1468SOL    HW2 4941   0.216   2.472   1.893
 1469SOL     OW 4942   0.213   2.137   2.854
 1469SOL    HW1 4943   0.249   2.111   2.938
 1469SOL    HW2 4944   0.137   2.080   2.841
 1470SOL     OW 4945   0.008   2.253   2.502
 1470SOL    HW1 4946   4.427   2.284   2.542
 1470SOL    HW2 4947   4.483   2.173   2.456
 1471SOL     OW 4948   0.568   3.149   3.037
 1471SOL    HW1 4949   0.480   3.153   2.999
 1471SOL    HW2 4950   0.583   3.236   3.072
 1472SOL     OW 4951   1.560   3.374   2.569
 1472SOL    HW1 4952   1.517   3.354   2.652
 1472SOL    HW2 4953   1.489   3.378   2.505
 1473SOL     OW 4954   1.130   2.560   2.563
 1473SOL    HW1 4955   1.179   2.641   2.549
 1473SOL    HW2 4956   1.083   2.575   2.646
 1474SOL     OW 4957   1.770   2.467   2.091
 1474SOL    HW1 4958   1.747   2.460   1.998
 1474SOL    HW2 4959   1.732   2.389   2.131
 1475SOL     OW 4960   0.756   3.005   2.902
 1475SOL    HW1 4961   0.687   3.039   2.959
 1475SOL    HW2 4962   0.791   3.082   2.858
 1476SOL     OW 4963   0.866   2.636   3.683
 1476SOL    HW1 4964   0.851   2.707   3.745
 1476SOL    HW2 4965   0.889   2.680   3.601
 1477SOL     OW 4966   0.685   2.866   2.509
 1477SOL    HW1 4967   0.750   2.853   2.579
 1477SOL    HW2 4968   0.616   2.917   2.551
 1478SOL     OW 4969   0.711   3.012   3.674
 1478SOL    HW1 4970   0.758   3.091   3.700
 1478SOL    HW2 4971   0.628   3.044   3.638
 1479SOL     OW 4972   0.335   3.283   2.932
 1479SOL    HW1 4973   0.254   3.264   2.885
 1479SOL    HW2 4974   0.385   3.337   2.870
 1480SOL     OW 4975   1.461   3.361   3.216
 1480SOL    HW1 4976   1.510   3.442   3.226
 1480SOL    HW2 4977   1.399   3.361   3.289
 1481SOL     OW 4978   0.444   2.267   3.354
 1481SOL    HW1 4979   0.524   2.214   3.359
 1481SOL    HW2 4980   0.373   2.203   3.359
 1482SOL     OW 4981   1.608   2.311   2.604
 1482SOL    HW1 4982   1.533   2.335   2.549
 1482SOL    HW2 4983   1.629   2.391   2.653
 1483SOL     OW 4984   0.246   3.553   2.339
 1483SOL    HW1 4985   0.231   3.638   2.381
 1483SOL    HW2 4986   0.313   3.571   2.273
 1484SOL     OW 4987   1.136   3.203   3.554
 1484SOL    HW1 4988   1.176   3.199   3.641
 1484SOL    HW2 4989   1.084   3.124   3.548
 1485SOL     OW 4990   0.249   3.288   2.390
 1485SOL    HW1 4991   0.240   3.384   2.392
 1485SOL    HW2 4992   0.185   3.256   2.453
 1486SOL     OW 4993   0.248   2.944   2.746
 1486SOL    HW1 4994   0.264   2.854   2.775
 1486SOL    HW2 4995   0.188   2.980   2.812
 1487SOL     OW 4996   0.614   3.653   3.294
 1487SOL    HW1 4997   0.531   3.634   3.337
 1487SOL    HW2 4998   0.634   3.743   3.318
 1488SOL     OW 4999   0.580   2.848   2.000
 1488SOL    HW1 5000   0.627   2.892   1.929
 1488SOL    HW2 5001   0.624   2.877   2.080
 1489SOL     OW 5002   1.588   1.982   3.333
 1489SOL    HW1 5003   1.607   2.057   3.276
 1489SOL    HW2 5004   1.581   2.020   3.420
 1490SOL     OW 5005   0.136   2.508   2.436
 1490SOL    HW1 5006   0.088   2.427   2.453
 1490SOL    HW2 5007   0.106   2.569   2.503
 1491SOL     OW 5008   1.842   3.621   2.197
 1491SOL    HW1 5009   1.905   3.593   2.263
 1491SOL    HW2 5010   1.867   3.712   2.178
 1492SOL     OW 5011   0.033   3.464   2.002
 1492SOL    HW1 5012   0.021   3.369   2.000
 1492SOL    HW2 5013   0.020   3.487   2.094
 1493SOL     OW 5014   1.691   2.782   2.503
 1493SOL    HW1 5015   1.772   2.736   2.480
 1493SOL    HW2 5016   1.668   2.831   2.424
 1494SOL     OW 5017   1.645   2.969   2.291
 1494SOL    HW1 5018   1.731   2.975   2.249
 1494SOL    HW2 5019   1.650   3.030   2.365
 1495SOL     OW 5020   0.112   2.625   3.447
 1495SOL    HW1 5021   0.203   2.623   3.418
 1495SOL    HW2 5022   0.093   2.717   3.463
 1496SOL     OW 5023   0.614   3.247   2.598
 1496SOL    HW1 5024   0.567   3.164   2.608
 1496SOL    HW2 5025   0.597   3.273   2.508
 1497SOL     OW 5026   1.289   3.101   3.285
 1497SOL    HW1 5027   1.321   3.033   3.225
 1497SOL    HW2 5028   1.346   3.094   3.362
 1498SOL     OW 5029   0.816   1.861   2.370
 1498SOL    HW1 5030   0.855   1.947   2.352
 1498SOL    HW2 5031   0.722   1.880   2.379
 1499SOL     OW 5032   0.180   2.802   3.141
 1499SOL    HW1 5033   0.272   2.785   3.121
 1499SOL    HW2 5034   0.133   2.787   3.059
 1500SOL     OW 5035   1.532   2.855   2.060
 1500SOL    HW1 5036   1.462   2.798   2.091
 1500SOL    HW2 5037   1.572   2.889   2.140
 1501SOL     OW 5038   1.186   3.668   3.484
 1501SOL    HW1 5039   1.196   3.726   3.408
 1501SOL    HW2 5040   1.201   3.580   3.449
 1502SOL     OW 5041   0.331   2.118   3.660
 1502SOL    HW1 5042   0.380   2.191   3.696
 1502SOL    HW2 5043   0.244   2.126   3.699
 1503SOL     OW 5044   1.467   3.281   2.814
 1503SOL    HW1 5045   1.398   3.296   2.879
 1503SOL    HW2 5046   1.454   3.190   2.787
 1504SOL     OW 5047   1.660   3.600   2.440
 1504SOL    HW1 5048   1.638   3.571   2.351
 1504SOL    HW2 5049   1.634   3.527   2.496
 1505SOL     OW 5050   0.598   2.583   2.128
 1505SOL    HW1 5051   0.600   2.664   2.077
 1505SOL    HW2 5052   0.532   2.599   2.196
 1506SOL     OW 5053   1.278   2.215   2.795
 1506SOL    HW1 5054   1.189   2.181   2.803
 1506SOL    HW2 5055   1.329   2.162   2.856
 1507SOL     OW 5056   1.581   3.532   2.171
 1507SOL    HW1 5057   1.671   3.564   2.164
 1507SOL    HW2 5058   1.554   3.515   2.081
 1508SOL     OW 5059   0.794   2.478   3.313
 1508SOL    HW1 5060   0.767   2.455   3.402
 1508SOL    HW2 5061   0.751   2.413   3.257
 1509SOL     OW 5062   1.394   2.336   3.540
 1509SOL    HW1 5063   1.396   2.380   3.625
 1509SOL    HW2 5064   1.454   2.263   3.549
 1510SOL     OW 5065   0.955   2.749   3.444
 1510SOL    HW1 5066   1.010   2.679   3.409
 1510SOL    HW2 5067   0.908   2.784   3.368
 1511SOL     OW 5068   0.993   2.276   3.100
 1511SOL    HW1 5069   0.908   2.297   3.139
 1511SOL    HW2 5070   0.971   2.228   3.020
 1512SOL     OW 5071   1.051   2.560   2.288
 1512SOL    HW1 5072   1.066   2.553   2.382
 1512SOL    HW2 5073   0.969   2.514   2.274
 1513SOL     OW 5074   0.096   2.690   2.646
 1513SOL    HW1 5075   0.183   2.672   2.683
 1513SOL    HW2 5076   0.044   2.718   2.721
 1514SOL     OW 5077   0.125   3.715   3.438
 1514SOL    HW1 5078   0.117   3.693   3.531
 1514SOL    HW2 5079   0.044   3.681   3.399
 1515SOL     OW 5080   0.892   2.210   2.056
 1515SOL    HW1 5081   0.933   2.271   1.995
 1515SOL    HW2 5082   0.908   2.124   2.018
 1516SOL     OW 5083   1.709   2.440   3.691
 1516SOL    HW1 5084   1.671   2.514   3.644
 1516SOL    HW2 5085   1.733   2.377   3.623
 1517SOL     OW 5086   1.377   3.004   2.404
 1517SOL    HW1 5087   1.455   2.991   2.350
 1517SOL    HW2 5088   1.324   3.066   2.354
 1518SOL     OW 5089   0.551   2.044   2.755
 1518SOL    HW1 5090   0.554   2.074   2.846
 1518SOL    HW2 5091   0.552   2.125   2.703
 1519SOL     OW 5092   1.006   3.307   2.335
 1519SOL    HW1 5093   0.969   3.379   2.285
 1519SOL    HW2 5094   0.988   3.328   2.426
 1520SOL     OW 5095   0.356   3.672   2.720
 1520SOL    HW1 5096   0.397   3.586   2.731
 1520SOL    HW2 5097   0.426   3.735   2.736
 1521SOL     OW 5098   1.800   2.919   2.729
 1521SOL    HW1 5099   1.745   2.900   2.653
 1521SOL    HW2 5100   1.738   2.925   2.802
 1522SOL     OW 5101   1.228   3.401   3.375
 1522SOL    HW1 5102   1.214   3.328   3.436
 1522SOL    HW2 5103   1.164   3.386   3.305
 1523SOL     OW 5104   0.316   2.816   2.115
 1523SOL    HW1 5105   0.400   2.839   2.075
 1523SOL    HW2 5106   0.300   2.726   2.088
 1524SOL     OW 5107   1.478   2.604   2.589
 1524SOL    HW1 5108   1.468   2.560   2.673
 1524SOL    HW2 5109   1.556   2.659   2.600
 1525SOL     OW 5110   0.467   3.124   3.597
 1525SOL    HW1 5111   0.440   3.131   3.506
 1525SOL    HW2 5112   0.386   3.129   3.647
 1526SOL     OW 5113   1.121   3.640   2.093
 1526SOL    HW1 5114   1.049   3.598   2.139
 1526SOL    HW2 5115   1.144   3.578   2.023
 1527SOL     OW 5116   0.196   2.139   3.348
 1527SOL    HW1 5117   0.136   2.214   3.354
 1527SOL    HW2 5118   0.183   2.091   3.430
 1528SOL     OW 5119   1.629   3.242   1.949
 1528SOL    HW1 5120   1.587   3.327   1.934
 1528SOL    HW2 5121   1.560   3.178   1.931
 1529SOL     OW 5122   0.469   3.606   2.175
 1529SOL    HW1 5123   0.511   3.659   2.243
 1529SOL    HW2 5124   0.542   3.570   2.124
 1530SOL     OW 5125   1.400   1.970   2.294
 1530SOL    HW1 5126   1.390   1.944   2.202
 1530SOL    HW2 5127   1.495   1.977   2.307
 1531SOL     OW 5128   0.261   3.656   3.093
 1531SOL    HW1 5129   0.305   3.580   3.132
 1531SOL    HW2 5130   0.225   3.623   3.010
 1532SOL     OW 5131   0.938   3.561   2.761
 1532SOL    HW1 5132   1.015   3.508   2.783
 1532SOL    HW2 5133   0.894   3.511   2.692
 1533SOL     OW 5134   0.394   2.557   2.335
 1533SOL    HW1 5135   0.418   2.465   2.346
 1533SOL    HW2 5136   0.302   2.561   2.361
 1534SOL     OW 5137   1.536   2.089   3.589
 1534SOL    HW1 5138   1.543   2.108   3.683
 1534SOL    HW2 5139   1.470   2.020   3.583
 1535SOL     OW 5140   0.634   1.987   1.965
 1535SOL    HW1 5141   0.703   1.922   1.981
 1535SOL    HW2 5142   0.586   1.953   1.890
 1536SOL     OW 5143   0.767   2.139   3.616
 1536SOL    HW1 5144   0.843   2.081   3.617
 1536SOL    HW2 5145   0.718   2.117   3.696
 1537SOL     OW 5146   0.877   3.384   3.055
 1537SOL    HW1 5147   0.861   3.348   2.968
 1537SOL    HW2 5148   0.946   3.329   3.092
 1538SOL     OW 5149   1.340   2.451   3.294
 1538SOL    HW1 5150   1.371   2.419   3.379
 1538SOL    HW2 5151   1.377   2.539   3.287
 1539SOL     OW 5152   0.815   3.258   2.801
 1539SOL    HW1 5153   0.899   3.246   2.757
 1539SOL    HW2 5154   0.750   3.258   2.731
 1540SOL     OW 5155   0.927   2.371   2.766
 1540SOL    HW1 5156   0.904   2.363   2.673
 1540SOL    HW2 5157   0.959   2.284   2.790
 1541SOL     OW 5158   0.552   1.924   2.363
 1541SOL    HW1 5159   0.471   1.922   2.415
 1541SOL    HW2 5160   0.544   2.002   2.309
 1542SOL     OW 5161   1.429   3.060   1.903
 1542SOL    HW1 5162   1.459   2.984   1.953
 1542SOL    HW2 5163   1.342   3.081   1.940
 1543SOL     OW 5164   0.295   1.908   2.040
 1543SOL    HW1 5165   0.358   1.975   2.013
 1543SOL    HW2 5166   0.348   1.842   2.085
 1544SOL     OW 5167   0.938   2.108   2.323
 1544SOL    HW1 5168   0.911   2.150   2.241
 1544SOL    HW2 5169   1.033   2.122   2.327
 1545SOL     OW 5170   1.080   2.543   3.321
 1545SOL    HW1 5171   1.011   2.476   3.326
 1545SOL    HW2 5172   1.161   2.493   3.315
 1546SOL     OW 5173   1.224   3.431   2.656
 1546SOL    HW1 5174   1.240   3.499   2.589
 1546SOL    HW2 5175   1.292   3.446   2.722
 1547SOL     OW 5176   0.466   3.011   2.598
 1547SOL    HW1 5177   0.396   2.992   2.659
 1547SOL    HW2 5178   0.428   2.996   2.511
 1548SOL     OW 5179   1.270   3.656   2.470
 1548SOL    HW1 5180   1.315   3.717   2.412
 1548SOL    HW2 5181   1.203   3.709   2.514
 1549SOL     OW 5182   1.023   2.404   1.884
 1549SOL    HW1 5183   0.981   2.488   1.864
 1549SOL    HW2 5184   1.088   2.426   1.951
 1550SOL     OW 5185   0.083   2.390   3.272
 1550SOL    HW1 5186   0.148   2.387   3.201
 1550SOL    HW2 5187   0.068   2.484   3.287
 1551SOL     OW 5188   0.561   2.090   3.028
 1551SOL    HW1 5189   0.603   2.011   3.062
 1551SOL    HW2 5190   0.469   2.081   3.054
 1552SOL     OW 5191   0.868   2.321   2.502
 1552SOL    HW1 5192   0.822   2.375   2.438
 1552SOL    HW2 5193   0.889   2.241   2.455
 1553SOL     OW 5194   1.015   1.915   2.614
 1553SOL    HW1 5195   0.957   1.908   2.538
 1553SOL    HW2 5196   0.994   1.840   2.668
 1554SOL     OW 5197   1.437   3.025   2.719
 1554SOL    HW1 5198   1.368   2.959   2.719
 1554SOL    HW2 5199   1.460   3.036   2.627
 1555SOL     OW 5200   1.465   2.468   2.841
 1555SOL    HW1 5201   1.416   2.386   2.843
 1555SOL    HW2 5202   1.526   2.461   2.915
 1556SOL     OW 5203   1.847   2.678   2.246
 1556SOL    HW1 5204   1.902   2.625   2.304
 1556SOL    HW2 5205   1.819   2.617   2.178
 1557SOL     OW 5206   0.492   3.279   2.021
 1557SOL    HW1 5207   0.415   3.250   2.070
 1557SOL    HW2 5208   0.474   3.252   1.931
 1558SOL     OW 5209   1.670   3.127   2.507
 1558SOL    HW1 5210   1.764   3.131   2.521
 1558SOL    HW2 5211   1.639   3.215   2.529
 1559SOL     OW 5212   1.394   2.434   1.934
 1559SOL    HW1 5213   1.333   2.415   2.005
 1559SOL    HW2 5214   1.478   2.401   1.965
 1560SOL     OW 5215   0.524   2.122   2.179
 1560SOL    HW1 5216   0.570   2.076   2.109
 1560SOL    HW2 5217   0.505   2.208   2.142
 1561SOL     OW 5218   1.752   3.101   3.435
 1561SOL    HW1 5219   1.839   3.061   3.433
 1561SOL    HW2 5220   1.767   3.191   3.464
 1562SOL     OW 5221   1.059   3.216   3.196
 1562SOL    HW1 5222   0.984   3.185   3.247
 1562SOL    HW2 5223   1.134   3.174   3.237
 1563SOL     OW 5224   1.608   3.488   3.516
 1563SOL    HW1 5225   1.602   3.521   3.426
 1563SOL    HW2 5226   1.691   3.440   3.518
 1564SOL     OW 5227   1.129   3.066   2.968
 1564SOL    HW1 5228   1.069   3.103   3.033
 1564SOL    HW2 5229   1.095   3.097   2.884
 1565SOL     OW 5230   1.629   2.961   2.939
 1565SOL    HW1 5231   1.625   3.023   3.012
 1565SOL    HW2 5232   1.550   2.977   2.889
 1566SOL     OW 5233   0.917   1.960   3.258
 1566SOL    HW1 5234   0.940   1.940   3.168
 1566SOL    HW2 5235   0.997   1.999   3.295
 1567SOL     OW 5236   0.984   2.976   3.585
 1567SOL    HW1 5237   0.892   2.992   3.606
 1567SOL    HW2 5238   0.983   2.899   3.529
 1568SOL     OW 5239   0.709   2.923   2.234
 1568SOL    HW1 5240   0.695   2.907   2.327
 1568SOL    HW2 5241   0.784   2.870   2.211
 1569SOL     OW 5242   0.431   2.688   3.103
 1569SOL    HW1 5243   0.500   2.700   3.168
 1569SOL    HW2 5244   0.372   2.623   3.142
 1570SOL     OW 5245   1.266   2.239   3.137
 1570SOL    HW1 5246   1.299   2.316   3.183
 1570SOL    HW2 5247   1.176   2.261   3.113
 1571SOL     OW 5248   0.062   3.438   3.203
 1571SOL    HW1 5249   0.035   3.528   3.184
 1571SOL    HW2 5250   0.158   3.443   3.210
 1572SOL     OW 5251   0.347   2.970   2.355
 1572SOL    HW1 5252   0.356   3.044   2.294
 1572SOL    HW2 5253   0.347   2.893   2.299
 1573SOL     OW 5254   0.561   2.395   2.718
 1573SOL    HW1 5255   0.574   2.455   2.644
 1573SOL    HW2 5256   0.622   2.426   2.785
 1574SOL     OW 5257   1.248   3.210   2.251
 1574SOL    HW1 5258   1.304   3.282   2.282
 1574SOL    HW2 5259   1.161   3.231   2.285
 1575SOL     OW 5260   1.280   3.319   3.008
 1575SOL    HW1 5261   1.335   3.321   3.087
 1575SOL    HW2 5262   1.225   3.242   3.020
 1576SOL     OW 5263   1.580   2.485   2.339
 1576SOL    HW1 5264   1.534   2.538   2.404
 1576SOL    HW2 5265   1.628   2.548   2.286
 1577SOL     OW 5266   0.347   3.394   3.177
 1577SOL    HW1 5267   0.333   3.347   3.095
 1577SOL    HW2 5268   0.442   3.404   3.183
 1578SOL     OW 5269   0.479   2.620   3.528
 1578SOL    HW1 5270   0.508   2.658   3.445
 1578SOL    HW2 5271   0.523   2.535   3.532
 1579SOL     OW 5272   1.601   2.642   3.544
 1579SOL    HW1 5273   1.514   2.682   3.537
 1579SOL    HW2 5274   1.653   2.683   3.475
 1580SOL     OW 5275   0.996   1.985   3.617
 1580SOL    HW1 5276   1.052   2.057   3.588
 1580SOL    HW2 5277   1.044   1.906   3.591
 1581SOL     OW 5278   0.497   1.905   3.609
 1581SOL    HW1 5279   0.456   1.848   3.544
 1581SOL    HW2 5280   0.438   1.979   3.617
 1582SOL     OW 5281   0.590   2.735   2.886
 1582SOL    HW1 5282   0.618   2.827   2.888
 1582SOL    HW2 5283   0.533   2.726   2.963
 1583SOL     OW 5284   1.358   2.721   2.892
 1583SOL    HW1 5285   1.275   2.712   2.846
 1583SOL    HW2 5286   1.398   2.634   2.887
 1584SOL     OW 5287   1.205   2.391   2.129
 1584SOL    HW1 5288   1.213   2.312   2.184
 1584SOL    HW2 5289   1.162   2.455   2.186
 1585SOL     OW 5290   0.302   2.053   3.104
 1585SOL    HW1 5291   0.263   2.087   3.184
 1585SOL    HW2 5292   0.285   1.959   3.107
 1586SOL     OW 5293   0.039   3.175   3.147
 1586SOL    HW1 5294   0.076   3.127   3.222
 1586SOL    HW2 5295   0.045   3.267   3.172
 1587SOL     OW 5296   0.725   2.493   2.921
 1587SOL    HW1 5297   0.800   2.475   2.863
 1587SOL    HW2 5298   0.698   2.582   2.898
 1588SOL     OW 5299   1.733   2.823   3.714
 1588SOL    HW1 5300   1.688   2.761   3.657
 1588SOL    HW2 5301   1.674   2.835   3.788
 1589SOL     OW 5302   0.310   1.932   2.481
 1589SOL    HW1 5303   0.287   2.021   2.508
 1589SOL    HW2 5304   0.308   1.881   2.562
 1590SOL     OW 5305   1.615   2.235   2.230
 1590SOL    HW1 5306   1.644   2.173   2.297
 1590SOL    HW2 5307   1.593   2.315   2.279
 1591SOL     OW 5308   1.028   2.621   2.823
 1591SOL    HW1 5309   1.025   2.639   2.917
 1591SOL    HW2 5310   1.001   2.529   2.815
 1592SOL     OW 5311   0.983   3.429   3.578
 1592SOL    HW1 5312   0.967   3.472   3.495
 1592SOL    HW2 5313   1.025   3.346   3.555
 1593SOL     OW 5314   1.855   3.368   3.468
 1593SOL    HW1 5315   1.873   3.394   3.377
 1593SOL    HW2 5316   1.936   3.387   3.515
 1594SOL     OW 5317   0.347   2.795   3.680
 1594SOL    HW1 5318   0.420   2.824   3.734
 1594SOL    HW2 5319   0.385   2.728   3.623
 1595SOL     OW 5320   1.530   2.134   1.990
 1595SOL    HW1 5321   1.464   2.070   2.016
 1595SOL    HW2 5322   1.562   2.171   2.073
 1596SOL     OW 5323   1.292   2.688   1.894
 1596SOL    HW1 5324   1.335   2.603   1.897
 1596SOL    HW2 5325   1.323   2.727   1.812
 1597SOL     OW 5326   1.066   3.197   2.715
 1597SOL    HW1 5327   1.069   3.125   2.653
 1597SOL    HW2 5328   1.127   3.262   2.680
 1598SOL     OW 5329   0.318   2.673   2.810
 1598SOL    HW1 5330   0.412   2.690   2.807
 1598SOL    HW2 5331   0.311   2.582   2.838
 1599SOL     OW 5332   0.331   2.387   2.852
 1599SOL    HW1 5333   0.293   2.300   2.836
 1599SOL    HW2 5334   0.409   2.389   2.797
 1600SOL     OW 5335   1.134   2.239   3.543
 1600SOL    HW1 5336   1.087   2.293   3.606
 1600SOL    HW2 5337   1.222   2.277   3.540
 1601SOL     OW 5338   1.159   2.065   3.332
 1601SOL    HW1 5339   1.150   2.128   3.403
 1601SOL    HW2 5340   1.201   2.115   3.261
 1602SOL     OW 5341   4.491   3.184   2.067
 1602SOL    HW1 5342   4.399   3.200   2.049
 1602SOL    HW2 5343   4.496   3.091   2.089
 1603SOL     OW 5344   0.097   3.639   2.802
 1603SOL    HW1 5345   0.059   3.585   2.733
 1603SOL    HW2 5346   0.185   3.660   2.770
 1604SOL     OW 5347   0.497   3.436   2.769
 1604SOL    HW1 5348   0.565   3.498   2.793
 1604SOL    HW2 5349   0.541   3.372   2.712
 1605SOL     OW 5350   0.984   2.655   3.089
 1605SOL    HW1 5351   1.039   2.631   3.163
 1605SOL    HW2 5352   0.898   2.618   3.110
 1606SOL     OW 5353   0.034   2.425   2.966
 1606SOL    HW1 5354   0.118   2.392   2.935
 1606SOL    HW2 5355   0.020   2.380   3.049
 1607SOL     OW 5356   0.179   2.381   3.577
 1607SOL    HW1 5357   0.259   2.351   3.534
 1607SOL    HW2 5358   0.156   2.462   3.531
 1608SOL     OW 5359   1.376   2.801   3.521
 1608SOL    HW1 5360   1.397   2.895   3.519
 1608SOL    HW2 5361   1.374   2.775   3.429
 1609SOL     OW 5362   0.817   2.431   2.221
 1609SOL    HW1 5363   0.820   2.356   2.161
 1609SOL    HW2 5364   0.743   2.484   2.190
 1610SOL     OW 5365   1.647   2.465   3.047
 1610SOL    HW1 5366   1.637   2.404   3.119
 1610SOL    HW2 5367   1.734   2.445   3.011
 1611SOL     OW 5368   0.274   3.423   3.603
 1611SOL    HW1 5369   0.217   3.476   3.659
 1611SOL    HW2 5370   0.253   3.333   3.626
 1612SOL     OW 5371   0.691   2.316   3.124
 1612SOL    HW1 5372   0.646   2.239   3.091
 1612SOL    HW2 5373   0.692   2.377   3.051
 1613SOL     OW 5374   0.929   3.541   3.329
 1613SOL    HW1 5375   0.902   3.506   3.244
 1613SOL    HW2 5376   0.923   3.636   3.319
 1614SOL     OW 5377   0.472   2.352   2.047
 1614SOL    HW1 5378   0.531   2.423   2.071
 1614SOL    HW2 5379   0.388   2.395   2.032
 1615SOL     OW 5380   0.162   3.003   3.323
 1615SOL    HW1 5381   0.145   2.958   3.406
 1615SOL    HW2 5382   0.169   2.933   3.258
 1616SOL     OW 5383   1.327   2.910   3.085
 1616SOL    HW1 5384   1.350   2.846   3.017
 1616SOL    HW2 5385   1.256   2.961   3.047
 1617SOL     OW 5386   1.311   2.719   2.168
 1617SOL    HW1 5387   1.235   2.688   2.218
 1617SOL    HW2 5388   1.286   2.705   2.077
 1618SOL     OW 5389   1.771   3.606   3.012
 1618SOL    HW1 5390   1.831   3.632   2.942
 1618SOL    HW2 5391   1.747   3.516   2.991
 1619SOL     OW 5392   1.241   3.595   2.976
 1619SOL    HW1 5393   1.323   3.615   2.930
 1619SOL    HW2 5394   1.246   3.501   2.994
 1620SOL     OW 5395   0.067   3.047   2.911
 1620SOL    HW1 5396   0.066   3.079   3.001
 1620SOL    HW2 5397   0.022   3.115   2.861
 1621SOL     OW 5398   0.679   3.528   3.591
 1621SOL    HW1 5399   0.622   3.605   3.585
 1621SOL    HW2 5400   0.742   3.539   3.520
 1622SOL     OW 5401   1.719   2.006   2.373
 1622SOL    HW1 5402   1.789   1.988   2.311
 1622SOL    HW2 5403   1.701   1.921   2.413
 1623SOL     OW 5404   1.391   3.430   2.347
 1623SOL    HW1 5405   1.451   3.462   2.279
 1623SOL    HW2 5406   1.342   3.507   2.375
 1624SOL     OW 5407   0.119   3.669   3.709
 1624SOL    HW1 5408   0.079   3.596   3.757
 1624SOL    HW2 5409   0.182   3.706   3.771
 1625SOL     OW 5410   1.277   2.787   2.533
 1625SOL    HW1 5411   1.351   2.726   2.539
 1625SOL    HW2 5412   1.311   2.860   2.481
 1626SOL     OW 5413   0.815   3.136   3.292
 1626SOL    HW1 5414   0.787   3.174   3.375
 1626SOL    HW2 5415   0.744   3.157   3.231
 1627SOL     OW 5416   0.672   3.481   2.017
 1627SOL    HW1 5417   0.682   3.493   1.923
 1627SOL    HW2 5418   0.618   3.403   2.026
 1628SOL     OW 5419   1.627   3.589   3.253
 1628SOL    HW1 5420   1.677   3.596   3.172
 1628SOL    HW2 5421   1.614   3.679   3.281
 1629SOL     OW 5422   1.805   2.003   2.831
 1629SOL    HW1 5423   1.844   1.927   2.790
 1629SOL    HW2 5424   1.725   2.019   2.781
 1630SOL     OW 5425   0.265   2.182   2.581
 1630SOL    HW1 5426   0.182   2.220   2.553
 1630SOL    HW2 5427   0.255   2.169   2.675
 1631SOL     OW 5428   1.207   3.468   1.893
 1631SOL    HW1 5429   1.198   3.377   1.921
 1631SOL    HW2 5430   1.142   3.480   1.824
 1632SOL     OW 5431   0.826   2.869   3.234
 1632SOL    HW1 5432   0.868   2.865   3.148
 1632SOL    HW2 5433   0.824   2.962   3.257
 1633SOL     OW 5434   0.916   2.773   2.152
 1633SOL    HW1 5435   0.977   2.805   2.085
 1633SOL    HW2 5436   0.963   2.703   2.197
 1634SOL     OW 5437   1.492   3.487   1.905
 1634SOL    HW1 5438   1.397   3.481   1.891
 1634SOL    HW2 5439   1.528   3.493   1.816
 1635SOL     OW 5440   0.373   3.169   3.352
 1635SOL    HW1 5441   0.355   3.248   3.301
 1635SOL    HW2 5442   0.298   3.112   3.336
 1636SOL     OW 5443   1.612   3.146   3.143
 1636SOL    HW1 5444   1.669   3.134   3.219
 1636SOL    HW2 5445   1.551   3.214   3.169
 1637SOL     OW 5446   1.052   2.969   2.568
 1637SOL    HW1 5447   0.981   2.918   2.608
 1637SOL    HW2 5448   1.114   2.903   2.536
 1638SOL     OW 5449   1.020   2.102   2.828
 1638SOL    HW1 5450   1.016   2.054   2.745
 1638SOL    HW2 5451   1.016   2.034   2.895
 1639SOL     OW 5452   0.604   3.352   2.344
 1639SOL    HW1 5453   0.646   3.302   2.274
 1639SOL    HW2 5454   0.529   3.394   2.303
 1640SOL     OW 5455   1.719   2.259   3.247
 1640SOL    HW1 5456   1.793   2.318   3.241
 1640SOL    HW2 5457   1.743   2.184   3.192
 1641SOL     OW 5458   0.252   3.206   2.139
 1641SOL    HW1 5459   0.157   3.205   2.124
 1641SOL    HW2 5460   0.263   3.238   2.228
 1642SOL     OW 5461   0.116   2.870   3.556
 1642SOL    HW1 5462   0.052   2.911   3.614
 1642SOL    HW2 5463   0.194   2.859   3.610
 1643SOL     OW 5464   0.674   2.061   3.361
 1643SOL    HW1 5465   0.757   2.039   3.320
 1643SOL    HW2 5466   0.698   2.089   3.449
 1644SOL     OW 5467   0.072   2.187   1.894
 1644SOL    HW1 5468   4.477   2.199   1.900
 1644SOL    HW2 5469   0.104   2.269   1.856
 1645SOL     OW 5470   1.430   2.721   3.263
 1645SOL    HW1 5471   1.382   2.781   3.207
 1645SOL    HW2 5472   1.520   2.723   3.229
 1646SOL     OW 5473   0.086   2.038   2.167
 1646SOL    HW1 5474   0.079   2.111   2.104
 1646SOL    HW2 5475   0.162   1.988   2.137
 1647SOL     OW 5476   1.179   3.202   1.979
 1647SOL    HW1 5477   1.088   3.172   1.981
 1647SOL    HW2 5478   1.207   3.201   2.070
 1648SOL     OW 5479   0.623   2.693   3.293
 1648SOL    HW1 5480   0.679   2.770   3.279
 1648SOL    HW2 5481   0.684   2.620   3.300
 1649SOL     OW 5482   1.484   3.638   2.840
 1649SOL    HW1 5483   1.507   3.697   2.769
 1649SOL    HW2 5484   1.567   3.620   2.885
 1650SOL     OW 5485   0.714   2.425   3.566
 1650SOL    HW1 5486   0.755   2.488   3.625
 1650SOL    HW2 5487   0.745   2.340   3.597
 1651SOL     OW 5488   1.471   3.063   3.494
 1651SOL    HW1 5489   1.458   3.076   3.588
 1651SOL    HW2 5490   1.564   3.077   3.480
 1652SOL     OW 5491   0.381   3.605   3.426
 1652SOL    HW1 5492   0.295   3.646   3.409
 1652SOL    HW2 5493   0.360   3.525   3.475
 1653SOL     OW 5494   1.671   2.744   3.117
 1653SOL    HW1 5495   1.663   2.658   3.075
 1653SOL    HW2 5496   1.660   2.806   3.045
 1654SOL     OW 5497   1.217   2.182   2.320
 1654SOL    HW1 5498   1.280   2.110   2.311
 1654SOL    HW2 5499   1.246   2.230   2.397
 1655SOL     OW 5500   0.590   2.600   2.531
 1655SOL    HW1 5501   0.628   2.686   2.515
 1655SOL    HW2 5502   0.522   2.592   2.465
 1656SOL     OW 5503   1.762   2.228   3.517
 1656SOL    HW1 5504   1.743   2.243   3.424
 1656SOL    HW2 5505   1.690   2.172   3.547
 1657SOL     OW 5506   1.744   2.796   3.374
 1657SOL    HW1 5507   1.741   2.891   3.387
 1657SOL    HW2 5508   1.729   2.784   3.280
 1658SOL     OW 5509   0.864   3.229   1.896
 1658SOL    HW1 5510   0.824   3.256   1.979
 1658SOL    HW2 5511   0.880   3.312   1.850
 1659SOL     OW 5512   0.661   3.654   2.808
 1659SOL    HW1 5513   0.640   3.744   2.784
 1659SOL    HW2 5514   0.756   3.648   2.799
 1660SOL     OW 5515   0.868   2.829   2.717
 1660SOL    HW1 5516   0.917   2.757   2.756
 1660SOL    HW2 5517   0.833   2.878   2.791
 1661SOL     OW 5518   1.080   2.851   1.951
 1661SOL    HW1 5519   1.057   2.901   1.872
 1661SOL    HW2 5520   1.154   2.797   1.925
 1662SOL     OW 5521   1.854   3.417   2.706
 1662SOL    HW1 5522   1.776   3.406   2.652
 1662SOL    HW2 5523   1.845   3.351   2.775
 1663SOL     OW 5524   0.230   3.168   3.720
 1663SOL    HW1 5525   0.157   3.110   3.697
 1663SOL    HW2 5526   0.224   3.178   3.815
 1664SOL     OW 5527   0.106   3.098   2.530
 1664SOL    HW1 5528   0.118   3.051   2.613
 1664SOL    HW2 5529   0.165   3.053   2.469
 1665SOL     OW 5530   0.682   3.265   3.490
 1665SOL    HW1 5531   0.602   3.221   3.518
 1665SOL    HW2 5532   0.676   3.353   3.527
 1666SOL     OW 5533   1.779   2.043   3.104
 1666SOL    HW1 5534   1.835   1.971   3.136
 1666SOL    HW2 5535   1.787   2.039   3.009
 1667SOL     OW 5536   0.435   2.295   2.387
 1667SOL    HW1 5537   0.460   2.222   2.331
 1667SOL    HW2 5538   0.384   2.256   2.458
 1668SOL     OW 5539   1.700   3.351   2.958
 1668SOL    HW1 5540   1.620   3.328   2.913
 1668SOL    HW2 5541   1.711   3.283   3.024
 1669SOL     OW 5542   0.301   2.349   3.115
 1669SOL    HW1 5543   0.375   2.309   3.159
 1669SOL    HW2 5544   0.331   2.365   3.026
 1670SOL     OW 5545   0.827   3.440   2.540
 1670SOL    HW1 5546   0.815   3.492   2.460
 1670SOL    HW2 5547   0.750   3.383   2.544
 1671SOL     OW 5548   1.433   2.088   2.979
 1671SOL    HW1 5549   1.466   2.011   3.026
 1671SOL    HW2 5550   1.381   2.135   3.043
 1672SOL     OW 5551   1.008   1.881   3.005
 1672SOL    HW1 5552   0.954   1.813   2.965
 1672SOL    HW2 5553   1.096   1.843   3.007
 1673SOL     OW 5554   0.772   3.195   2.175
 1673SOL    HW1 5555   0.740   3.104   2.182
 1673SOL    HW2 5556   0.854   3.195   2.225
 1674SOL     OW 5557   0.621   3.418   3.147
 1674SOL    HW1 5558   0.623   3.500   3.197
 1674SOL    HW2 5559   0.708   3.412   3.109
 1675SOL     OW 5560   1.352   1.915   2.027
 1675SOL    HW1 5561   1.380   1.853   1.960
 1675SOL    HW2 5562   1.265   1.886   2.054
 1676SOL     OW 5563   1.297   2.323   2.544
 1676SOL    HW1 5564   1.242   2.402   2.551
 1676SOL    HW2 5565   1.293   2.283   2.630
 1677SOL     OW 5566   1.566   2.062   2.726
 1677SOL    HW1 5567   1.514   2.085   2.803
 1677SOL    HW2 5568   1.574   2.144   2.677
 1678SOL     OW 5569   0.041   2.914   2.150
 1678SOL    HW1 5570   0.135   2.897   2.140
 1678SOL    HW2 5571   0.020   2.881   2.237
 1679SOL     OW 5572   0.884   3.515   2.204
 1679SOL    HW1 5573   0.812   3.497   2.145
 1679SOL    HW2 5574   0.855   3.589   2.256
 1680SOL     OW 5575   0.248   2.491   3.844
 1680SOL    HW1 5576   0.174   2.470   3.901
 1680SOL    HW2 5577   0.216   2.472   3.756
 1681SOL     OW 5578   0.213   2.137   4.716
 1681SOL    HW1 5579   0.249   2.111   4.800
 1681SOL    HW2 5580   0.137   2.080   4.703
 1682SOL     OW 5581   0.008   2.253   4.364
 1682SOL    HW1 5582   4.427   2.284   4.404
 1682SOL    HW2 5583   4.483   2.173   4.318
 1683SOL     OW 5584   0.568   3.149   4.899
 1683SOL    HW1 5585   0.480   3.153   4.860
 1683SOL    HW2 5586   0.583   3.236   4.934
 1684SOL     OW 5587   1.560   3.374   4.431
 1684SOL    HW1 5588   1.517   3.354   4.514
 1684SOL    HW2 5589   1.489   3.378   4.367
 1685SOL     OW 5590   1.131   2.560   4.426
 1685SOL    HW1 5591   1.178   2.642   4.411
 1685SOL    HW2 5592   1.084   2.575   4.508
 1686SOL     OW 5593   1.771   2.467   3.953
 1686SOL    HW1 5594   1.747   2.459   3.861
 1686SOL    HW2 5595   1.734   2.389   3.994
 1687SOL     OW 5596   0.756   3.005   4.764
 1687SOL    HW1 5597   0.687   3.039   4.821
 1687SOL    HW2 5598   0.791   3.082   4.720
 1688SOL     OW 5599   0.867   2.636   5.545
 1688SOL    HW1 5600   0.850   2.706   5.608
 1688SOL    HW2 5601   0.889   2.681   5.464
 1689SOL     OW 5602   0.686   2.866   4.372
 1689SOL    HW1 5603   0.750   2.853   4.441
 1689SOL    HW2 5604   0.616   2.917   4.413
 1690SOL     OW 5605   0.711   3.012   5.537
 1690SOL    HW1 5606   0.757   3.092   5.563
 1690SOL    HW2 5607   0.628   3.044   5.500
 1691SOL     OW 5608   0.335   3.283   4.794
 1691SOL    HW1 5609   0.254   3.264   4.748
 1691SOL    HW2 5610   0.385   3.337   4.732
 1692SOL     OW 5611   1.461   3.359   5.077
 1692SOL    HW1 5612   1.510   3.441   5.086
 1692SOL    HW2 5613   1.399   3.360   5.149
 1693SOL     OW 5614   0.445   2.267   5.216
 1693SOL    HW1 5615   0.524   2.213   5.220
 1693SOL    HW2 5616   0.373   2.203   5.221
 1694SOL     OW 5617   1.618   2.305   4.468
 1694SOL    HW1 5618   1.539   2.322   4.418
 1694SOL    HW2 5619   1.636   2.387   4.514
 1695SOL     OW 5620   0.246   3.553   4.201
 1695SOL    HW1 5621   0.231   3.638   4.243
 1695SOL    HW2 5622   0.313   3.571   4.135
 1696SOL     OW 5623   1.137   3.203   5.416
 1696SOL    HW1 5624   1.176   3.200   5.503
 1696SOL    HW2 5625   1.084   3.124   5.410
 1697SOL     OW 5626   0.249   3.288   4.252
 1697SOL    HW1 5627   0.240   3.384   4.254
 1697SOL    HW2 5628   0.185   3.256   4.315
 1698SOL     OW 5629   0.248   2.944   4.609
 1698SOL    HW1 5630   0.264   2.854   4.637
 1698SOL    HW2 5631   0.188   2.980   4.674
 1699SOL     OW 5632   0.614   3.652   5.156
 1699SOL    HW1 5633   0.531   3.634   5.199
 1699SOL    HW2 5634   0.634   3.743   5.180
 1700SOL     OW 5635   0.580   2.848   3.862
 1700SOL    HW1 5636   0.627   2.892   3.791
 1700SOL    HW2 5637   0.624   2.877   3.942
 1701SOL     OW 5638   0.137   2.508   4.298
 1701SOL    HW1 5639   0.088   2.427   4.315
 1701SOL    HW2 5640   0.106   2.569   4.365
 1702SOL     OW 5641   1.842   3.621   4.059
 1702SOL    HW1 5642   1.905   3.593   4.125
 1702SOL    HW2 5643   1.866   3.712   4.040
 1703SOL     OW 5644   0.033   3.464   3.864
 1703SOL    HW1 5645   0.021   3.369   3.862
 1703SOL    HW2 5646   0.020   3.487   3.956
 1704SOL     OW 5647   1.692   2.782   4.367
 1704SOL    HW1 5648   1.773   2.738   4.340
 1704SOL    HW2 5649   1.666   2.832   4.289
 1705SOL     OW 5650   1.645   2.968   4.154
 1705SOL    HW1 5651   1.731   2.974   4.112
 1705SOL    HW2 5652   1.650   3.030   4.227
 1706SOL     OW 5653   0.112   2.625   5.308
 1706SOL    HW1 5654   0.203   2.623   5.281
 1706SOL    HW2 5655   0.093   2.717   5.325
 1707SOL     OW 5656   0.614   3.247   4.460
 1707SOL    HW1 5657   0.567   3.164   4.470
 1707SOL    HW2 5658   0.597   3.273   4.370
 1708SOL     OW 5659   1.289   3.101   5.147
 1708SOL    HW1 5660   1.321   3.033   5.087
 1708SOL    HW2 5661   1.345   3.093   5.224
 1709SOL     OW 5662   0.816   1.862   4.232
 1709SOL    HW1 5663   0.856   1.947   4.214
 1709SOL    HW2 5664   0.722   1.880   4.242
 1710SOL     OW 5665   0.180   2.803   5.003
 1710SOL    HW1 5666   0.272   2.785   4.982
 1710SOL    HW2 5667   0.133   2.787   4.921
 1711SOL     OW 5668   1.532   2.855   3.922
 1711SOL    HW1 5669   1.462   2.798   3.953
 1711SOL    HW2 5670   1.572   2.889   4.002
 1712SOL     OW 5671   1.187   3.668   5.346
 1712SOL    HW1 5672   1.196   3.726   5.271
 1712SOL    HW2 5673   1.202   3.581   5.311
 1713SOL     OW 5674   0.331   2.118   5.523
 1713SOL    HW1 5675   0.379   2.192   5.558
 1713SOL    HW2 5676   0.243   2.126   5.561
 1714SOL     OW 5677   1.467   3.282   4.676
 1714SOL    HW1 5678   1.398   3.297   4.741
 1714SOL    HW2 5679   1.452   3.192   4.646
 1715SOL     OW 5680   1.660   3.600   4.302
 1715SOL    HW1 5681   1.639   3.571   4.213
 1715SOL    HW2 5682   1.634   3.526   4.358
 1716SOL     OW 5683   0.598   2.583   3.990
 1716SOL    HW1 5684   0.600   2.664   3.939
 1716SOL    HW2 5685   0.532   2.599   4.058
 1717SOL     OW 5686   1.277   2.202   4.653
 1717SOL    HW1 5687   1.190   2.167   4.673
 1717SOL    HW2 5688   1.328   2.186   4.732
 1718SOL     OW 5689   1.581   3.532   4.033
 1718SOL    HW1 5690   1.671   3.564   4.026
 1718SOL    HW2 5691   1.554   3.515   3.943
 1719SOL     OW 5692   0.787   2.477   5.176
 1719SOL    HW1 5693   0.762   2.452   5.265
 1719SOL    HW2 5694   0.746   2.411   5.120
 1720SOL     OW 5695   1.388   2.339   5.405
 1720SOL    HW1 5696   1.374   2.376   5.493
 1720SOL    HW2 5697   1.455   2.271   5.418
 1721SOL     OW 5698   0.951   2.754   5.308
 1721SOL    HW1 5699   1.002   2.682   5.272
 1721SOL    HW2 5700   0.904   2.790   5.232
 1722SOL     OW 5701   0.982   2.277   4.959
 1722SOL    HW1 5702   0.897   2.297   4.997
 1722SOL    HW2 5703   0.962   2.228   4.879
 1723SOL     OW 5704   1.051   2.560   4.150
 1723SOL    HW1 5705   1.066   2.553   4.244
 1723SOL    HW2 5706   0.968   2.514   4.135
 1724SOL     OW 5707   0.096   2.690   4.508
 1724SOL    HW1 5708   0.183   2.672   4.545
 1724SOL    HW2 5709   0.044   2.717   4.583
 1725SOL     OW 5710   0.125   3.715   5.300
 1725SOL    HW1 5711   0.117   3.693   5.393
 1725SOL    HW2 5712   0.044   3.681   5.261
 1726SOL     OW 5713   0.892   2.210   3.918
 1726SOL    HW1 5714   0.933   2.271   3.857
 1726SOL    HW2 5715   0.908   2.124   3.880
 1727SOL     OW 5716   1.751   2.406   5.553
 1727SOL    HW1 5717   1.694   2.478   5.580
 1727SOL    HW2 5718   1.706   2.367   5.479
 1728SOL     OW 5719   1.377   3.005   4.265
 1728SOL    HW1 5720   1.455   2.991   4.211
 1728SOL    HW2 5721   1.324   3.067   4.215
 1729SOL     OW 5722   0.552   2.044   4.617
 1729SOL    HW1 5723   0.554   2.074   4.708
 1729SOL    HW2 5724   0.552   2.124   4.565
 1730SOL     OW 5725   1.006   3.307   4.197
 1730SOL    HW1 5726   0.969   3.379   4.147
 1730SOL    HW2 5727   0.988   3.328   4.288
 1731SOL     OW 5728   0.356   3.672   4.582
 1731SOL    HW1 5729   0.397   3.586   4.593
 1731SOL    HW2 5730   0.426   3.735   4.598
 1732SOL     OW 5731   1.803   2.932   4.588
 1732SOL    HW1 5732   1.745   2.910   4.515
 1732SOL    HW2 5733   1.745   2.937   4.664
 1733SOL     OW 5734   1.229   3.400   5.236
 1733SOL    HW1 5735   1.214   3.328   5.297
 1733SOL    HW2 5736   1.164   3.387   5.167
 1734SOL     OW 5737   0.316   2.816   3.977
 1734SOL    HW1 5738   0.400   2.839   3.937
 1734SOL    HW2 5739   0.300   2.726   3.950
 1735SOL     OW 5740   1.477   2.610   4.444
 1735SOL    HW1 5741   1.472   2.558   4.524
 1735SOL    HW2 5742   1.557   2.661   4.453
 1736SOL     OW 5743   0.468   3.124   5.459
 1736SOL    HW1 5744   0.440   3.131   5.368
 1736SOL    HW2 5745   0.386   3.128   5.509
 1737SOL     OW 5746   1.121   3.640   3.955
 1737SOL    HW1 5747   1.049   3.598   4.001
 1737SOL    HW2 5748   1.144   3.578   3.885
 1738SOL     OW 5749   0.196   2.139   5.210
 1738SOL    HW1 5750   0.137   2.214   5.215
 1738SOL    HW2 5751   0.183   2.091   5.292
 1739SOL     OW 5752   1.629   3.242   3.811
 1739SOL    HW1 5753   1.587   3.327   3.797
 1739SOL    HW2 5754   1.560   3.178   3.793
 1740SOL     OW 5755   0.469   3.606   4.037
 1740SOL    HW1 5756   0.511   3.659   4.105
 1740SOL    HW2 5757   0.542   3.571   3.986
 1741SOL     OW 5758   1.401   1.970   4.157
 1741SOL    HW1 5759   1.392   1.944   4.065
 1741SOL    HW2 5760   1.496   1.977   4.170
 1742SOL     OW 5761   0.261   3.656   4.955
 1742SOL    HW1 5762   0.305   3.580   4.994
 1742SOL    HW2 5763   0.225   3.623   4.872
 1743SOL     OW 5764   0.938   3.561   4.623
 1743SOL    HW1 5765   1.015   3.508   4.644
 1743SOL    HW2 5766   0.894   3.511   4.554
 1744SOL     OW 5767   0.394   2.557   4.197
 1744SOL    HW1 5768   0.418   2.464   4.208
 1744SOL    HW2 5769   0.302   2.561   4.223
 1745SOL     OW 5770   0.635   1.987   3.827
 1745SOL    HW1 5771   0.703   1.921   3.843
 1745SOL    HW2 5772   0.586   1.953   3.752
 1746SOL     OW 5773   0.767   2.140   5.479
 1746SOL    HW1 5774   0.842   2.081   5.478
 1746SOL    HW2 5775   0.718   2.116   5.557
 1747SOL     OW 5776   0.877   3.385   4.917
 1747SOL    HW1 5777   0.861   3.348   4.830
 1747SOL    HW2 5778   0.946   3.329   4.954
 1748SOL     OW 5779   1.310   2.458   5.177
 1748SOL    HW1 5780   1.348   2.422   5.257
 1748SOL    HW2 5781   1.351   2.545   5.168
 1749SOL     OW 5782   0.815   3.258   4.663
 1749SOL    HW1 5783   0.899   3.246   4.618
 1749SOL    HW2 5784   0.750   3.258   4.593
 1750SOL     OW 5785   0.927   2.372   4.627
 1750SOL    HW1 5786   0.904   2.363   4.535
 1750SOL    HW2 5787   0.961   2.286   4.652
 1751SOL     OW 5788   0.552   1.924   4.225
 1751SOL    HW1 5789   0.471   1.922   4.277
 1751SOL    HW2 5790   0.545   2.002   4.171
 1752SOL     OW 5791   1.428   3.060   3.765
 1752SOL    HW1 5792   1.458   2.984   3.815
 1752SOL    HW2 5793   1.342   3.081   3.802
 1753SOL     OW 5794   0.295   1.908   3.902
 1753SOL    HW1 5795   0.358   1.975   3.875
 1753SOL    HW2 5796   0.348   1.842   3.947
 1754SOL     OW 5797   0.938   2.108   4.185
 1754SOL    HW1 5798   0.911   2.150   4.103
 1754SOL    HW2 5799   1.033   2.122   4.189
 1755SOL     OW 5800   1.063   2.548   5.185
 1755SOL    HW1 5801   0.997   2.478   5.188
 1755SOL    HW2 5802   1.147   2.501   5.184
 1756SOL     OW 5803   1.224   3.432   4.518
 1756SOL    HW1 5804   1.240   3.499   4.451
 1756SOL    HW2 5805   1.292   3.447   4.584
 1757SOL     OW 5806   0.466   3.011   4.460
 1757SOL    HW1 5807   0.396   2.992   4.521
 1757SOL    HW2 5808   0.428   2.996   4.373
 1758SOL     OW 5809   1.270   3.656   4.332
 1758SOL    HW1 5810   1.315   3.717   4.274
 1758SOL    HW2 5811   1.203   3.709   4.375
 1759SOL     OW 5812   1.023   2.404   3.746
 1759SOL    HW1 5813   0.981   2.488   3.726
 1759SOL    HW2 5814   1.088   2.426   3.813
 1760SOL     OW 5815   0.084   2.390   5.134
 1760SOL    HW1 5816   0.148   2.388   5.063
 1760SOL    HW2 5817   0.067   2.483   5.149
 1761SOL     OW 5818   0.560   2.089   4.890
 1761SOL    HW1 5819   0.602   2.010   4.924
 1761SOL    HW2 5820   0.469   2.081   4.916
 1762SOL     OW 5821   0.869   2.322   4.364
 1762SOL    HW1 5822   0.822   2.375   4.300
 1762SOL    HW2 5823   0.889   2.241   4.317
 1763SOL     OW 5824   1.015   1.915   4.477
 1763SOL    HW1 5825   0.957   1.908   4.401
 1763SOL    HW2 5826   0.993   1.839   4.530
 1764SOL     OW 5827   1.425   3.030   4.577
 1764SOL    HW1 5828   1.362   2.958   4.576
 1764SOL    HW2 5829   1.453   3.038   4.485
 1765SOL     OW 5830   1.847   2.677   4.111
 1765SOL    HW1 5831   1.905   2.624   4.166
 1765SOL    HW2 5832   1.819   2.617   4.041
 1766SOL     OW 5833   0.492   3.279   3.883
 1766SOL    HW1 5834   0.415   3.250   3.932
 1766SOL    HW2 5835   0.474   3.252   3.793
 1767SOL     OW 5836   1.669   3.127   4.370
 1767SOL    HW1 5837   1.764   3.133   4.381
 1767SOL    HW2 5838   1.637   3.215   4.391
 1768SOL     OW 5839   1.394   2.433   3.796
 1768SOL    HW1 5840   1.333   2.414   3.867
 1768SOL    HW2 5841   1.478   2.399   3.827
 1769SOL     OW 5842   0.524   2.122   4.041
 1769SOL    HW1 5843   0.571   2.076   3.971
 1769SOL    HW2 5844   0.505   2.208   4.004
 1770SOL     OW 5845   1.750   3.106   5.299
 1770SOL    HW1 5846   1.819   3.051   5.336
 1770SOL    HW2 5847   1.777   3.196   5.319
 1771SOL     OW 5848   1.058   3.217   5.058
 1771SOL    HW1 5849   0.983   3.185   5.109
 1771SOL    HW2 5850   1.134   3.175   5.099
 1772SOL     OW 5851   1.609   3.487   5.378
 1772SOL    HW1 5852   1.602   3.521   5.288
 1772SOL    HW2 5853   1.692   3.439   5.379
 1773SOL     OW 5854   1.129   3.066   4.831
 1773SOL    HW1 5855   1.068   3.103   4.895
 1773SOL    HW2 5856   1.097   3.096   4.746
 1774SOL     OW 5857   1.622   2.988   4.785
 1774SOL    HW1 5858   1.618   3.036   4.868
 1774SOL    HW2 5859   1.535   2.997   4.748
 1775SOL     OW 5860   0.917   1.960   5.121
 1775SOL    HW1 5861   0.940   1.940   5.030
 1775SOL    HW2 5862   0.997   1.998   5.158
 1776SOL     OW 5863   0.984   2.978   5.448
 1776SOL    HW1 5864   0.892   2.994   5.470
 1776SOL    HW2 5865   0.983   2.901   5.392
 1777SOL     OW 5866   0.709   2.923   4.096
 1777SOL    HW1 5867   0.695   2.907   4.189
 1777SOL    HW2 5868   0.784   2.870   4.073
 1778SOL     OW 5869   0.430   2.688   4.965
 1778SOL    HW1 5870   0.500   2.700   5.030
 1778SOL    HW2 5871   0.372   2.623   5.004
 1779SOL     OW 5872   1.248   2.250   5.003
 1779SOL    HW1 5873   1.271   2.328   5.054
 1779SOL    HW2 5874   1.158   2.264   4.976
 1780SOL     OW 5875   0.062   3.438   5.066
 1780SOL    HW1 5876   0.035   3.528   5.046
 1780SOL    HW2 5877   0.157   3.443   5.072
 1781SOL     OW 5878   0.347   2.970   4.217
 1781SOL    HW1 5879   0.356   3.044   4.156
 1781SOL    HW2 5880   0.347   2.893   4.161
 1782SOL     OW 5881   0.561   2.395   4.580
 1782SOL    HW1 5882   0.574   2.455   4.506
 1782SOL    HW2 5883   0.622   2.426   4.647
 1783SOL     OW 5884   1.248   3.210   4.114
 1783SOL    HW1 5885   1.304   3.282   4.144
 1783SOL    HW2 5886   1.161   3.231   4.147
 1784SOL     OW 5887   1.280   3.319   4.870
 1784SOL    HW1 5888   1.335   3.321   4.948
 1784SOL    HW2 5889   1.223   3.243   4.882
 1785SOL     OW 5890   1.582   2.486   4.201
 1785SOL    HW1 5891   1.532   2.540   4.263
 1785SOL    HW2 5892   1.627   2.550   4.145
 1786SOL     OW 5893   0.347   3.394   5.039
 1786SOL    HW1 5894   0.333   3.347   4.957
 1786SOL    HW2 5895   0.442   3.404   5.045
 1787SOL     OW 5896   0.479   2.620   5.390
 1787SOL    HW1 5897   0.508   2.658   5.307
 1787SOL    HW2 5898   0.522   2.535   5.393
 1788SOL     OW 5899   0.994   1.984   5.478
 1788SOL    HW1 5900   1.052   2.056   5.454
 1788SOL    HW2 5901   1.044   1.905   5.455
 1789SOL     OW 5902   0.497   1.905   5.471
 1789SOL    HW1 5903   0.456   1.848   5.406
 1789SOL    HW2 5904   0.438   1.979   5.479
 1790SOL     OW 5905   0.591   2.735   4.749
 1790SOL    HW1 5906   0.618   2.827   4.750
 1790SOL    HW2 5907   0.533   2.726   4.825
 1791SOL     OW 5908   1.354   2.723   4.748
 1791SOL    HW1 5909   1.270   2.707   4.704
 1791SOL    HW2 5910   1.394   2.636   4.755
 1792SOL     OW 5911   1.205   2.391   3.991
 1792SOL    HW1 5912   1.214   2.312   4.046
 1792SOL    HW2 5913   1.162   2.455   4.048
 1793SOL     OW 5914   0.302   2.053   4.966
 1793SOL    HW1 5915   0.263   2.087   5.046
 1793SOL    HW2 5916   0.285   1.959   4.969
 1794SOL     OW 5917   0.040   3.175   5.009
 1794SOL    HW1 5918   0.076   3.128   5.085
 1794SOL    HW2 5919   0.045   3.267   5.034
 1795SOL     OW 5920   0.726   2.493   4.783
 1795SOL    HW1 5921   0.799   2.475   4.725
 1795SOL    HW2 5922   0.698   2.582   4.760
 1796SOL     OW 5923   0.311   1.932   4.343
 1796SOL    HW1 5924   0.287   2.021   4.370
 1796SOL    HW2 5925   0.308   1.881   4.424
 1797SOL     OW 5926   1.616   2.236   4.092
 1797SOL    HW1 5927   1.646   2.172   4.157
 1797SOL    HW2 5928   1.595   2.314   4.143
 1798SOL     OW 5929   1.031   2.620   4.685
 1798SOL    HW1 5930   1.025   2.639   4.778
 1798SOL    HW2 5931   1.002   2.529   4.676
 1799SOL     OW 5932   0.984   3.429   5.440
 1799SOL    HW1 5933   0.968   3.473   5.357
 1799SOL    HW2 5934   1.025   3.346   5.417
 1800SOL     OW 5935   1.856   3.365   5.329
 1800SOL    HW1 5936   1.872   3.388   5.238
 1800SOL    HW2 5937   1.937   3.387   5.374
 1801SOL     OW 5938   0.347   2.795   5.542
 1801SOL    HW1 5939   0.420   2.824   5.597
 1801SOL    HW2 5940   0.385   2.728   5.485
 1802SOL     OW 5941   1.529   2.136   3.852
 1802SOL    HW1 5942   1.465   2.070   3.878
 1802SOL    HW2 5943   1.562   2.171   3.935
 1803SOL     OW 5944   1.293   2.688   3.756
 1803SOL    HW1 5945   1.335   2.603   3.759
 1803SOL    HW2 5946   1.323   2.727   3.674
 1804SOL     OW 5947   1.066   3.197   4.578
 1804SOL    HW1 5948   1.069   3.125   4.515
 1804SOL    HW2 5949   1.128   3.262   4.543
 1805SOL     OW 5950   0.318   2.673   4.672
 1805SOL    HW1 5951   0.412   2.690   4.668
 1805SOL    HW2 5952   0.311   2.582   4.700
 1806SOL     OW 5953   0.331   2.387   4.714
 1806SOL    HW1 5954   0.293   2.300   4.698
 1806SOL    HW2 5955   0.409   2.389   4.659
 1807SOL     OW 5956   1.130   2.239   5.403
 1807SOL    HW1 5957   1.083   2.293   5.467
 1807SOL    HW2 5958   1.217   2.277   5.399
 1808SOL     OW 5959   1.162   2.063   5.193
 1808SOL    HW1 5960   1.149   2.126   5.264
 1808SOL    HW2 5961   1.199   2.115   5.121
 1809SOL     OW 5962   4.491   3.184   3.929
 1809SOL    HW1 5963   4.399   3.200   3.911
 1809SOL    HW2 5964   4.496   3.091   3.951
 1810SOL     OW 5965   0.098   3.639   4.665
 1810SOL    HW1 5966   0.059   3.585   4.596
 1810SOL    HW2 5967   0.185   3.660   4.632
 1811SOL     OW 5968   0.497   3.436   4.631
 1811SOL    HW1 5969   0.565   3.498   4.655
 1811SOL    HW2 5970   0.541   3.372   4.574
 1812SOL     OW 5971   0.982   2.656   4.948
 1812SOL    HW1 5972   1.034   2.633   5.025
 1812SOL    HW2 5973   0.895   2.620   4.966
 1813SOL     OW 5974   0.035   2.425   4.828
 1813SOL    HW1 5975   0.119   2.391   4.797
 1813SOL    HW2 5976   0.020   2.380   4.911
 1814SOL     OW 5977   0.179   2.381   5.438
 1814SOL    HW1 5978   0.259   2.352   5.395
 1814SOL    HW2 5979   0.156   2.462   5.393
 1815SOL     OW 5980   1.372   2.806   5.396
 1815SOL    HW1 5981   1.398   2.898   5.384
 1815SOL    HW2 5982   1.372   2.769   5.308
 1816SOL     OW 5983   0.817   2.431   4.083
 1816SOL    HW1 5984   0.820   2.356   4.023
 1816SOL    HW2 5985   0.743   2.484   4.052
 1817SOL     OW 5986   0.274   3.423   5.465
 1817SOL    HW1 5987   0.217   3.476   5.521
 1817SOL    HW2 5988   0.253   3.333   5.488
 1818SOL     OW 5989   0.691   2.315   4.985
 1818SOL    HW1 5990   0.645   2.238   4.951
 1818SOL    HW2 5991   0.691   2.377   4.912
 1819SOL     OW 5992   0.930   3.541   5.191
 1819SOL    HW1 5993   0.902   3.506   5.106
 1819SOL    HW2 5994   0.923   3.636   5.181
 1820SOL     OW 5995   0.472   2.352   3.909
 1820SOL    HW1 5996   0.531   2.423   3.933
 1820SOL    HW2 5997   0.388   2.395   3.894
 1821SOL     OW 5998   0.162   3.003   5.185
 1821SOL    HW1 5999   0.145   2.957   5.268
 1821SOL    HW2 6000   0.169   2.933   5.121
 1822SOL     OW 6001   1.332   2.913   4.944
 1822SOL    HW1 6002   1.352   2.850   4.874
 1822SOL    HW2 6003   1.259   2.964   4.909
 1823SOL     OW 6004   1.311   2.719   4.031
 1823SOL    HW1 6005   1.235   2.688   4.080
 1823SOL    HW2 6006   1.287   2.705   3.939
 1824SOL     OW 6007   1.770   3.607   4.873
 1824SOL    HW1 6008   1.831   3.633   4.804
 1824SOL    HW2 6009   1.747   3.516   4.852
 1825SOL     OW 6010   1.241   3.595   4.838
 1825SOL    HW1 6011   1.323   3.615   4.792
 1825SOL    HW2 6012   1.246   3.501   4.856
 1826SOL     OW 6013   0.067   3.047   4.773
 1826SOL    HW1 6014   0.066   3.079   4.863
 1826SOL    HW2 6015   0.022   3.115   4.723
 1827SOL     OW 6016   0.679   3.528   5.453
 1827SOL    HW1 6017   0.622   3.605   5.448
 1827SOL    HW2 6018   0.741   3.539   5.382
 1828SOL     OW 6019   1.714   2.004   4.230
 1828SOL    HW1 6020   1.791   1.992   4.175
 1828SOL    HW2 6021   1.700   1.919   4.272
 1829SOL     OW 6022   1.391   3.430   4.209
 1829SOL    HW1 6023   1.451   3.462   4.141
 1829SOL    HW2 6024   1.342   3.507   4.237
 1830SOL     OW 6025   0.119   3.669   5.571
 1830SOL    HW1 6026   0.079   3.596   5.619
 1830SOL    HW2 6027   0.182   3.706   5.633
 1831SOL     OW 6028   1.275   2.789   4.394
 1831SOL    HW1 6029   1.348   2.728   4.400
 1831SOL    HW2 6030   1.308   2.862   4.342
 1832SOL     OW 6031   0.814   3.136   5.154
 1832SOL    HW1 6032   0.787   3.175   5.237
 1832SOL    HW2 6033   0.744   3.157   5.093
 1833SOL     OW 6034   0.672   3.481   3.879
 1833SOL    HW1 6035   0.682   3.493   3.785
 1833SOL    HW2 6036   0.618   3.403   3.888
 1834SOL     OW 6037   1.625   3.588   5.115
 1834SOL    HW1 6038   1.677   3.595   5.035
 1834SOL    HW2 6039   1.613   3.679   5.143
 1835SOL     OW 6040   1.886   2.038   4.642
 1835SOL    HW1 6041   1.908   1.945   4.653
 1835SOL    HW2 6042   1.792   2.042   4.657
 1836SOL     OW 6043   0.265   2.182   4.443
 1836SOL    HW1 6044   0.182   2.220   4.415
 1836SOL    HW2 6045   0.254   2.169   4.537
 1837SOL     OW 6046   1.207   3.468   3.755
 1837SOL    HW1 6047   1.198   3.377   3.783
 1837SOL    HW2 6048   1.142   3.480   3.686
 1838SOL     OW 6049   0.825   2.870   5.095
 1838SOL    HW1 6050   0.868   2.866   5.010
 1838SOL    HW2 6051   0.824   2.963   5.118
 1839SOL     OW 6052   0.916   2.773   4.014
 1839SOL    HW1 6053   0.977   2.805   3.948
 1839SOL    HW2 6054   0.963   2.703   4.059
 1840SOL     OW 6055   1.492   3.487   3.767
 1840SOL    HW1 6056   1.397   3.481   3.753
 1840SOL    HW2 6057   1.528   3.493   3.678
 1841SOL     OW 6058   0.373   3.169   5.214
 1841SOL    HW1 6059   0.355   3.248   5.163
 1841SOL    HW2 6060   0.298   3.112   5.198
 1842SOL     OW 6061   1.632   3.154   5.015
 1842SOL    HW1 6062   1.670   3.133   5.101
 1842SOL    HW2 6063   1.563   3.218   5.035
 1843SOL     OW 6064   1.051   2.969   4.430
 1843SOL    HW1 6065   0.980   2.918   4.469
 1843SOL    HW2 6066   1.113   2.904   4.398
 1844SOL     OW 6067   1.018   2.101   4.693
 1844SOL    HW1 6068   1.015   2.055   4.609
 1844SOL    HW2 6069   1.013   2.032   4.759
 1845SOL     OW 6070   0.604   3.352   4.206
 1845SOL    HW1 6071   0.646   3.302   4.136
 1845SOL    HW2 6072   0.529   3.394   4.165
 1846SOL     OW 6073   0.252   3.206   4.001
 1846SOL    HW1 6074   0.157   3.205   3.986
 1846SOL    HW2 6075   0.263   3.238   4.090
 1847SOL     OW 6076   0.116   2.869   5.418
 1847SOL    HW1 6077   0.052   2.911   5.476
 1847SOL    HW2 6078   0.194   2.859   5.473
 1848SOL     OW 6079   0.674   2.061   5.223
 1848SOL    HW1 6080   0.758   2.039   5.182
 1848SOL    HW2 6081   0.698   2.089   5.311
 1849SOL     OW 6082   0.072   2.187   3.756
 1849SOL    HW1 6083   4.477   2.199   3.762
 1849SOL    HW2 6084   0.104   2.269   3.718
 1850SOL     OW 6085   1.405   2.727   5.137
 1850SOL    HW1 6086   1.377   2.792   5.073
 1850SOL    HW2 6087   1.498   2.745   5.150
 1851SOL     OW 6088   0.086   2.038   4.029
 1851SOL    HW1 6089   0.079   2.110   3.966
 1851SOL    HW2 6090   0.162   1.988   3.999
 1852SOL     OW 6091   1.179   3.202   3.841
 1852SOL    HW1 6092   1.088   3.172   3.843
 1852SOL    HW2 6093   1.207   3.201   3.932
 1853SOL     OW 6094   0.623   2.694   5.154
 1853SOL    HW1 6095   0.679   2.770   5.141
 1853SOL    HW2 6096   0.683   2.620   5.162
 1854SOL     OW 6097   1.484   3.638   4.702
 1854SOL    HW1 6098   1.507   3.697   4.631
 1854SOL    HW2 6099   1.567   3.621   4.747
 1855SOL     OW 6100   0.713   2.424   5.429
 1855SOL    HW1 6101   0.754   2.487   5.488
 1855SOL    HW2 6102   0.745   2.339   5.460
 1856SOL     OW 6103   1.471   3.063   5.354
 1856SOL    HW1 6104   1.458   3.078   5.447
 1856SOL    HW2 6105   1.564   3.082   5.339
 1857SOL     OW 6106   0.381   3.605   5.288
 1857SOL    HW1 6107   0.295   3.646   5.271
 1857SOL    HW2 6108   0.360   3.525   5.337
 1858SOL     OW 6109   1.218   2.182   4.183
 1858SOL    HW1 6110   1.281   2.110   4.174
 1858SOL    HW2 6111   1.249   2.230   4.260
 1859SOL     OW 6112   0.590   2.600   4.393
 1859SOL    HW1 6113   0.628   2.687   4.377
 1859SOL    HW2 6114   0.522   2.592   4.327
 1860SOL     OW 6115   0.864   3.229   3.758
 1860SOL    HW1 6116   0.824   3.256   3.841
 1860SOL    HW2 6117   0.880   3.312   3.712
 1861SOL     OW 6118   0.661   3.654   4.670
 1861SOL    HW1 6119   0.640   3.744   4.646
 1861SOL    HW2 6120   0.756   3.648   4.661
 1862SOL     OW 6121   0.868   2.829   4.579
 1862SOL    HW1 6122   0.918   2.757   4.619
 1862SOL    HW2 6123   0.833   2.878   4.653
 1863SOL     OW 6124   1.080   2.851   3.813
 1863SOL    HW1 6125   1.057   2.901   3.734
 1863SOL    HW2 6126   1.154   2.797   3.787
 1864SOL     OW 6127   1.855   3.417   4.568
 1864SOL    HW1 6128   1.776   3.406   4.514
 1864SOL    HW2 6129   1.846   3.351   4.637
 1865SOL     OW 6130   0.230   3.167   5.582
 1865SOL    HW1 6131   0.156   3.111   5.559
 1865SOL    HW2 6132   0.224   3.178   5.677
 1866SOL     OW 6133   0.106   3.098   4.392
 1866SOL    HW1 6134   0.117   3.051   4.475
 1866SOL    HW2 6135   0.165   3.053   4.331
 1867SOL     OW 6136   0.683   3.265   5.353
 1867SOL    HW1 6137   0.602   3.221   5.380
 1867SOL    HW2 6138   0.675   3.353   5.390
 1868SOL     OW 6139   0.435   2.295   4.250
 1868SOL    HW1 6140   0.460   2.222   4.193
 1868SOL    HW2 6141   0.384   2.256   4.320
 1869SOL     OW 6142   1.699   3.351   4.820
 1869SOL    HW1 6143   1.620   3.329   4.771
 1869SOL    HW2 6144   1.701   3.288   4.892
 1870SOL     OW 6145   0.301   2.350   4.977
 1870SOL    HW1 6146   0.375   2.308   5.021
 1870SOL    HW2 6147   0.332   2.366   4.888
 1871SOL     OW 6148   0.827   3.440   4.402
 1871SOL    HW1 6149   0.815   3.492   4.323
 1871SOL    HW2 6150   0.750   3.383   4.405
 1872SOL     OW 6151   1.008   1.880   4.867
 1872SOL    HW1 6152   0.955   1.811   4.826
 1872SOL    HW2 6153   1.096   1.842   4.873
 1873SOL     OW 6154   0.772   3.195   4.037
 1873SOL    HW1 6155   0.740   3.104   4.044
 1873SOL    HW2 6156   0.854   3.195   4.087
 1874SOL     OW 6157   0.621   3.418   5.009
 1874SOL    HW1 6158   0.623   3.500   5.059
 1874SOL    HW2 6159   0.708   3.412   4.970
 1875SOL     OW 6160   1.352   1.916   3.889
 1875SOL    HW1 6161   1.380   1.852   3.823
 1875SOL    HW2 6162   1.265   1.886   3.915
 1876SOL     OW 6163   1.301   2.324   4.409
 1876SOL    HW1 6164   1.241   2.399   4.417
 1876SOL    HW2 6165   1.295   2.279   4.493
 1877SOL     OW 6166   0.041   2.914   4.012
 1877SOL    HW1 6167   0.135   2.897   4.002
 1877SOL    HW2 6168   0.020   2.880   4.099
 1878SOL     OW 6169   0.884   3.515   4.066
 1878SOL    HW1 6170   0.812   3.497   4.007
 1878SOL    HW2 6171   0.855   3.589   4.118
 1879SOL     OW 6172   0.248   2.490   5.706
 1879SOL    HW1 6173   0.174   2.470   5.763
 1879SOL    HW2 6174   0.216   2.473   5.618
 1880SOL     OW 6175   0.213   2.137   6.577
 1880SOL    HW1 6176   0.249   2.111   6.662
 1880SOL    HW2 6177   0.137   2.081   6.565
 1881SOL     OW 6178   0.008   2.253   6.226
 1881SOL    HW1 6179   4.427   2.284   6.266
 1881SOL    HW2 6180   4.482   2.173   6.179
 1882SOL     OW 6181   0.568   3.149   6.761
 1882SOL    HW1 6182   0.480   3.153   6.723
 1882SOL    HW2 6183   0.583   3.236   6.797
 1883SOL     OW 6184   1.561   3.368   6.291
 1883SOL    HW1 6185   1.517   3.352   6.374
 1883SOL    HW2 6186   1.489   3.377   6.228
 1884SOL     OW 6187   1.123   2.560   6.284
 1884SOL    HW1 6188   1.174   2.640   6.269
 1884SOL    HW2 6189   1.081   2.575   6.369
 1885SOL     OW 6190   0.756   3.005   6.627
 1885SOL    HW1 6191   0.687   3.039   6.683
 1885SOL    HW2 6192   0.791   3.082   6.582
 1886SOL     OW 6193   0.866   2.636   7.407
 1886SOL    HW1 6194   0.852   2.707   7.470
 1886SOL    HW2 6195   0.889   2.680   7.325
 1887SOL     OW 6196   0.685   2.866   6.233
 1887SOL    HW1 6197   0.750   2.853   6.302
 1887SOL    HW2 6198   0.616   2.917   6.275
 1888SOL     OW 6199   0.711   3.012   7.398
 1888SOL    HW1 6200   0.758   3.091   7.424
 1888SOL    HW2 6201   0.628   3.044   7.362
 1889SOL     OW 6202   0.335   3.283   6.656
 1889SOL    HW1 6203   0.254   3.264   6.609
 1889SOL    HW2 6204   0.385   3.337   6.594
 1890SOL     OW 6205   1.461   3.361   6.940
 1890SOL    HW1 6206   1.510   3.443   6.950
 1890SOL    HW2 6207   1.399   3.361   7.013
 1891SOL     OW 6208   0.444   2.267   7.078
 1891SOL    HW1 6209   0.524   2.214   7.083
 1891SOL    HW2 6210   0.373   2.203   7.083
 1892SOL     OW 6211   0.246   3.553   6.063
 1892SOL    HW1 6212   0.230   3.638   6.105
 1892SOL    HW2 6213   0.313   3.571   5.997
 1893SOL     OW 6214   1.136   3.203   7.278
 1893SOL    HW1 6215   1.176   3.199   7.365
 1893SOL    HW2 6216   1.084   3.124   7.272
 1894SOL     OW 6217   0.249   3.289   6.114
 1894SOL    HW1 6218   0.240   3.384   6.116
 1894SOL    HW2 6219   0.186   3.256   6.177
 1895SOL     OW 6220   0.248   2.944   6.471
 1895SOL    HW1 6221   0.264   2.854   6.499
 1895SOL    HW2 6222   0.188   2.980   6.536
 1896SOL     OW 6223   0.614   3.653   7.018
 1896SOL    HW1 6224   0.531   3.634   7.061
 1896SOL    HW2 6225   0.634   3.743   7.042
 1897SOL     OW 6226   0.580   2.848   5.724
 1897SOL    HW1 6227   0.627   2.892   5.653
 1897SOL    HW2 6228   0.624   2.877   5.804
 1898SOL     OW 6229   1.597   1.986   7.054
 1898SOL    HW1 6230   1.600   2.067   7.003
 1898SOL    HW2 6231   1.583   2.015   7.144
 1899SOL     OW 6232   0.137   2.508   6.160
 1899SOL    HW1 6233   0.088   2.427   6.177
 1899SOL    HW2 6234   0.106   2.569   6.227
 1900SOL     OW 6235   1.843   3.621   5.921
 1900SOL    HW1 6236   1.904   3.593   5.989
 1900SOL    HW2 6237   1.868   3.712   5.902
 1901SOL     OW 6238   0.033   3.464   5.726
 1901SOL    HW1 6239   0.021   3.369   5.724
 1901SOL    HW2 6240   0.019   3.487   5.818
 1902SOL     OW 6241   1.629   2.982   6.009
 1902SOL    HW1 6242   1.715   2.983   5.969
 1902SOL    HW2 6243   1.640   3.030   6.091
 1903SOL     OW 6244   0.112   2.624   7.171
 1903SOL    HW1 6245   0.204   2.623   7.143
 1903SOL    HW2 6246   0.093   2.717   7.187
 1904SOL     OW 6247   0.614   3.247   6.322
 1904SOL    HW1 6248   0.567   3.164   6.332
 1904SOL    HW2 6249   0.597   3.273   6.232
 1905SOL     OW 6250   1.290   3.101   7.009
 1905SOL    HW1 6251   1.321   3.033   6.950
 1905SOL    HW2 6252   1.346   3.094   7.086
 1906SOL     OW 6253   0.816   1.861   6.095
 1906SOL    HW1 6254   0.855   1.947   6.075
 1906SOL    HW2 6255   0.722   1.880   6.104
 1907SOL     OW 6256   0.180   2.802   6.865
 1907SOL    HW1 6257   0.272   2.785   6.845
 1907SOL    HW2 6258   0.133   2.787   6.783
 1908SOL     OW 6259   1.517   2.856   5.786
 1908SOL    HW1 6260   1.441   2.807   5.818
 1908SOL    HW2 6261   1.553   2.898   5.864
 1909SOL     OW 6262   1.186   3.668   7.208
 1909SOL    HW1 6263   1.196   3.726   7.132
 1909SOL    HW2 6264   1.201   3.580   7.173
 1910SOL     OW 6265   0.331   2.118   7.384
 1910SOL    HW1 6266   0.380   2.191   7.421
 1910SOL    HW2 6267   0.244   2.126   7.423
 1911SOL     OW 6268   1.467   3.280   6.538
 1911SOL    HW1 6269   1.399   3.296   6.603
 1911SOL    HW2 6270   1.454   3.190   6.510
 1912SOL     OW 6271   1.661   3.598   6.164
 1912SOL    HW1 6272   1.637   3.570   6.075
 1912SOL    HW2 6273   1.635   3.525   6.219
 1913SOL     OW 6274   0.598   2.583   5.852
 1913SOL    HW1 6275   0.600   2.664   5.802
 1913SOL    HW2 6276   0.532   2.599   5.920
 1914SOL     OW 6277   1.287   2.207   6.514
 1914SOL    HW1 6278   1.197   2.177   6.528
 1914SOL    HW2 6279   1.340   2.156   6.575
 1915SOL     OW 6280   1.581   3.531   5.895
 1915SOL    HW1 6281   1.671   3.565   5.888
 1915SOL    HW2 6282   1.554   3.516   5.805
 1916SOL     OW 6283   0.794   2.478   7.037
 1916SOL    HW1 6284   0.768   2.455   7.126
 1916SOL    HW2 6285   0.751   2.413   6.981
 1917SOL     OW 6286   1.393   2.336   7.264
 1917SOL    HW1 6287   1.396   2.380   7.349
 1917SOL    HW2 6288   1.456   2.264   7.273
 1918SOL     OW 6289   0.955   2.750   7.168
 1918SOL    HW1 6290   1.010   2.679   7.133
 1918SOL    HW2 6291   0.908   2.784   7.092
 1919SOL     OW 6292   0.993   2.275   6.825
 1919SOL    HW1 6293   0.909   2.297   6.864
 1919SOL    HW2 6294   0.970   2.229   6.744
 1920SOL     OW 6295   1.049   2.562   6.013
 1920SOL    HW1 6296   1.064   2.557   6.107
 1920SOL    HW2 6297   0.967   2.515   5.999
 1921SOL     OW 6298   0.096   2.690   6.370
 1921SOL    HW1 6299   0.183   2.672   6.407
 1921SOL    HW2 6300   0.044   2.717   6.445
 1922SOL     OW 6301   0.125   3.715   7.162
 1922SOL    HW1 6302   0.117   3.693   7.255
 1922SOL    HW2 6303   0.044   3.681   7.123
 1923SOL     OW 6304   0.893   2.209   5.780
 1923SOL    HW1 6305   0.932   2.271   5.718
 1923SOL    HW2 6306   0.907   2.123   5.741
 1924SOL     OW 6307   1.706   2.439   7.415
 1924SOL    HW1 6308   1.670   2.512   7.366
 1924SOL    HW2 6309   1.735   2.376   7.349
 1925SOL     OW 6310   1.379   3.010   6.132
 1925SOL    HW1 6311   1.455   2.994   6.076
 1925SOL    HW2 6312   1.324   3.069   6.080
 1926SOL     OW 6313   0.553   2.044   6.479
 1926SOL    HW1 6314   0.554   2.074   6.570
 1926SOL    HW2 6315   0.552   2.125   6.427
 1927SOL     OW 6316   1.007   3.307   6.059
 1927SOL    HW1 6317   0.969   3.380   6.009
 1927SOL    HW2 6318   0.987   3.327   6.150
 1928SOL     OW 6319   0.356   3.672   6.444
 1928SOL    HW1 6320   0.397   3.586   6.455
 1928SOL    HW2 6321   0.426   3.735   6.460
 1929SOL     OW 6322   1.779   2.945   6.459
 1929SOL    HW1 6323   1.724   2.986   6.391
 1929SOL    HW2 6324   1.724   2.944   6.537
 1930SOL     OW 6325   1.228   3.401   7.099
 1930SOL    HW1 6326   1.214   3.328   7.160
 1930SOL    HW2 6327   1.164   3.386   7.029
 1931SOL     OW 6328   0.316   2.816   5.839
 1931SOL    HW1 6329   0.400   2.839   5.799
 1931SOL    HW2 6330   0.300   2.726   5.812
 1932SOL     OW 6331   1.423   2.617   6.354
 1932SOL    HW1 6332   1.433   2.546   6.417
 1932SOL    HW2 6333   1.513   2.643   6.332
 1933SOL     OW 6334   0.468   3.124   7.321
 1933SOL    HW1 6335   0.440   3.131   7.230
 1933SOL    HW2 6336   0.386   3.129   7.371
 1934SOL     OW 6337   1.122   3.639   5.817
 1934SOL    HW1 6338   1.048   3.598   5.863
 1934SOL    HW2 6339   1.144   3.578   5.747
 1935SOL     OW 6340   0.196   2.139   7.072
 1935SOL    HW1 6341   0.137   2.214   7.078
 1935SOL    HW2 6342   0.184   2.092   7.154
 1936SOL     OW 6343   1.628   3.243   5.672
 1936SOL    HW1 6344   1.587   3.329   5.657
 1936SOL    HW2 6345   1.558   3.180   5.654
 1937SOL     OW 6346   0.469   3.606   5.899
 1937SOL    HW1 6347   0.511   3.659   5.967
 1937SOL    HW2 6348   0.542   3.571   5.848
 1938SOL     OW 6349   0.261   3.656   6.817
 1938SOL    HW1 6350   0.305   3.580   6.856
 1938SOL    HW2 6351   0.225   3.623   6.734
 1939SOL     OW 6352   0.938   3.561   6.485
 1939SOL    HW1 6353   1.014   3.507   6.508
 1939SOL    HW2 6354   0.894   3.511   6.416
 1940SOL     OW 6355   0.394   2.557   6.059
 1940SOL    HW1 6356   0.418   2.464   6.070
 1940SOL    HW2 6357   0.302   2.561   6.084
 1941SOL     OW 6358   1.535   2.087   7.311
 1941SOL    HW1 6359   1.545   2.108   7.404
 1941SOL    HW2 6360   1.466   2.020   7.308
 1942SOL     OW 6361   0.635   1.987   5.689
 1942SOL    HW1 6362   0.703   1.921   5.705
 1942SOL    HW2 6363   0.586   1.954   5.614
 1943SOL     OW 6364   0.767   2.139   7.340
 1943SOL    HW1 6365   0.842   2.080   7.341
 1943SOL    HW2 6366   0.718   2.118   7.420
 1944SOL     OW 6367   0.877   3.385   6.779
 1944SOL    HW1 6368   0.861   3.347   6.693
 1944SOL    HW2 6369   0.946   3.329   6.816
 1945SOL     OW 6370   1.341   2.450   7.018
 1945SOL    HW1 6371   1.371   2.419   7.103
 1945SOL    HW2 6372   1.377   2.538   7.010
 1946SOL     OW 6373   0.815   3.258   6.525
 1946SOL    HW1 6374   0.899   3.246   6.480
 1946SOL    HW2 6375   0.750   3.258   6.455
 1947SOL     OW 6376   0.928   2.370   6.490
 1947SOL    HW1 6377   0.905   2.363   6.398
 1947SOL    HW2 6378   0.960   2.284   6.514
 1948SOL     OW 6379   0.552   1.924   6.087
 1948SOL    HW1 6380   0.472   1.922   6.139
 1948SOL    HW2 6381   0.545   2.002   6.033
 1949SOL     OW 6382   1.428   3.063   5.625
 1949SOL    HW1 6383   1.455   2.985   5.674
 1949SOL    HW2 6384   1.342   3.084   5.660
 1950SOL     OW 6385   0.295   1.908   5.764
 1950SOL    HW1 6386   0.357   1.975   5.736
 1950SOL    HW2 6387   0.348   1.842   5.809
 1951SOL     OW 6388   0.936   2.108   6.046
 1951SOL    HW1 6389   0.907   2.149   5.964
 1951SOL    HW2 6390   1.030   2.124   6.049
 1952SOL     OW 6391   1.080   2.543   7.045
 1952SOL    HW1 6392   1.012   2.476   7.051
 1952SOL    HW2 6393   1.162   2.493   7.039
 1953SOL     OW 6394   1.226   3.430   6.379
 1953SOL    HW1 6395   1.241   3.499   6.313
 1953SOL    HW2 6396   1.291   3.447   6.446
 1954SOL     OW 6397   0.466   3.011   6.322
 1954SOL    HW1 6398   0.396   2.992   6.383
 1954SOL    HW2 6399   0.428   2.996   6.235
 1955SOL     OW 6400   1.270   3.656   6.194
 1955SOL    HW1 6401   1.315   3.717   6.136
 1955SOL    HW2 6402   1.203   3.709   6.237
 1956SOL     OW 6403   1.021   2.406   5.606
 1956SOL    HW1 6404   0.976   2.488   5.585
 1956SOL    HW2 6405   1.084   2.430   5.675
 1957SOL     OW 6406   0.083   2.390   6.996
 1957SOL    HW1 6407   0.148   2.387   6.925
 1957SOL    HW2 6408   0.068   2.484   7.011
 1958SOL     OW 6409   0.560   2.089   6.752
 1958SOL    HW1 6410   0.603   2.011   6.787
 1958SOL    HW2 6411   0.469   2.081   6.778
 1959SOL     OW 6412   0.868   2.320   6.226
 1959SOL    HW1 6413   0.821   2.376   6.164
 1959SOL    HW2 6414   0.887   2.240   6.177
 1960SOL     OW 6415   1.021   1.911   6.333
 1960SOL    HW1 6416   0.957   1.907   6.262
 1960SOL    HW2 6417   0.997   1.838   6.391
 1961SOL     OW 6418   1.436   3.025   6.439
 1961SOL    HW1 6419   1.369   2.957   6.447
 1961SOL    HW2 6420   1.448   3.036   6.345
 1962SOL     OW 6421   1.461   2.456   6.574
 1962SOL    HW1 6422   1.414   2.372   6.580
 1962SOL    HW2 6423   1.525   2.453   6.644
 1963SOL     OW 6424   0.492   3.279   5.745
 1963SOL    HW1 6425   0.415   3.250   5.795
 1963SOL    HW2 6426   0.474   3.252   5.655
 1964SOL     OW 6427   1.676   3.119   6.242
 1964SOL    HW1 6428   1.770   3.134   6.252
 1964SOL    HW2 6429   1.637   3.205   6.256
 1965SOL     OW 6430   1.359   2.425   5.650
 1965SOL    HW1 6431   1.298   2.402   5.720
 1965SOL    HW2 6432   1.442   2.443   5.695
 1966SOL     OW 6433   0.525   2.122   5.903
 1966SOL    HW1 6434   0.571   2.076   5.833
 1966SOL    HW2 6435   0.505   2.208   5.867
 1967SOL     OW 6436   1.752   3.101   7.159
 1967SOL    HW1 6437   1.839   3.061   7.159
 1967SOL    HW2 6438   1.768   3.191   7.188
 1968SOL     OW 6439   1.059   3.216   6.920
 1968SOL    HW1 6440   0.984   3.185   6.971
 1968SOL    HW2 6441   1.135   3.175   6.961
 1969SOL     OW 6442   1.608   3.488   7.240
 1969SOL    HW1 6443   1.602   3.521   7.150
 1969SOL    HW2 6444   1.690   3.440   7.243
 1970SOL     OW 6445   1.129   3.067   6.691
 1970SOL    HW1 6446   1.069   3.102   6.757
 1970SOL    HW2 6447   1.095   3.097   6.607
 1971SOL     OW 6448   1.621   2.962   6.670
 1971SOL    HW1 6449   1.618   3.024   6.743
 1971SOL    HW2 6450   1.538   2.974   6.625
 1972SOL     OW 6451   0.918   1.960   6.983
 1972SOL    HW1 6452   0.941   1.941   6.892
 1972SOL    HW2 6453   0.997   1.999   7.020
 1973SOL     OW 6454   0.984   2.977   7.308
 1973SOL    HW1 6455   0.892   2.992   7.330
 1973SOL    HW2 6456   0.983   2.899   7.253
 1974SOL     OW 6457   0.708   2.923   5.958
 1974SOL    HW1 6458   0.695   2.907   6.052
 1974SOL    HW2 6459   0.784   2.870   5.935
 1975SOL     OW 6460   0.431   2.688   6.827
 1975SOL    HW1 6461   0.500   2.700   6.892
 1975SOL    HW2 6462   0.372   2.623   6.867
 1976SOL     OW 6463   1.266   2.239   6.860
 1976SOL    HW1 6464   1.299   2.316   6.906
 1976SOL    HW2 6465   1.176   2.261   6.837
 1977SOL     OW 6466   0.062   3.438   6.928
 1977SOL    HW1 6467   0.035   3.528   6.908
 1977SOL    HW2 6468   0.157   3.443   6.934
 1978SOL     OW 6469   0.347   2.970   6.079
 1978SOL    HW1 6470   0.356   3.044   6.018
 1978SOL    HW2 6471   0.347   2.893   6.023
 1979SOL     OW 6472   0.561   2.395   6.441
 1979SOL    HW1 6473   0.574   2.455   6.368
 1979SOL    HW2 6474   0.622   2.426   6.509
 1980SOL     OW 6475   1.248   3.210   5.975
 1980SOL    HW1 6476   1.303   3.282   6.006
 1980SOL    HW2 6477   1.161   3.231   6.009
 1981SOL     OW 6478   1.281   3.319   6.732
 1981SOL    HW1 6479   1.335   3.321   6.811
 1981SOL    HW2 6480   1.224   3.243   6.744
 1982SOL     OW 6481   0.346   3.394   6.901
 1982SOL    HW1 6482   0.333   3.347   6.819
 1982SOL    HW2 6483   0.442   3.404   6.907
 1983SOL     OW 6484   0.478   2.619   7.251
 1983SOL    HW1 6485   0.508   2.658   7.169
 1983SOL    HW2 6486   0.524   2.535   7.256
 1984SOL     OW 6487   1.601   2.641   7.268
 1984SOL    HW1 6488   1.514   2.682   7.261
 1984SOL    HW2 6489   1.653   2.683   7.199
 1985SOL     OW 6490   0.996   1.985   7.340
 1985SOL    HW1 6491   1.052   2.057   7.313
 1985SOL    HW2 6492   1.044   1.906   7.316
 1986SOL     OW 6493   0.497   1.905   7.333
 1986SOL    HW1 6494   0.456   1.848   7.268
 1986SOL    HW2 6495   0.438   1.979   7.341
 1987SOL     OW 6496   0.590   2.735   6.610
 1987SOL    HW1 6497   0.618   2.827   6.612
 1987SOL    HW2 6498   0.533   2.726   6.687
 1988SOL     OW 6499   1.357   2.718   6.626
 1988SOL    HW1 6500   1.285   2.713   6.563
 1988SOL    HW2 6501   1.402   2.634   6.616
 1989SOL     OW 6502   1.200   2.391   5.860
 1989SOL    HW1 6503   1.202   2.312   5.914
 1989SOL    HW2 6504   1.156   2.456   5.915
 1990SOL     OW 6505   0.302   2.053   6.828
 1990SOL    HW1 6506   0.263   2.087   6.908
 1990SOL    HW2 6507   0.285   1.959   6.831
 1991SOL     OW 6508   0.040   3.175   6.871
 1991SOL    HW1 6509   0.076   3.127   6.946
 1991SOL    HW2 6510   0.045   3.267   6.896
 1992SOL     OW 6511   0.725   2.493   6.645
 1992SOL    HW1 6512   0.800   2.476   6.587
 1992SOL    HW2 6513   0.698   2.582   6.622
 1993SOL     OW 6514   1.733   2.823   7.437
 1993SOL    HW1 6515   1.688   2.760   7.381
 1993SOL    HW2 6516   1.674   2.835   7.511
 1994SOL     OW 6517   0.311   1.932   6.205
 1994SOL    HW1 6518   0.287   2.021   6.232
 1994SOL    HW2 6519   0.308   1.881   6.285
 1995SOL     OW 6520   1.025   2.621   6.546
 1995SOL    HW1 6521   1.026   2.639   6.640
 1995SOL    HW2 6522   1.001   2.529   6.539
 1996SOL     OW 6523   0.983   3.429   7.302
 1996SOL    HW1 6524   0.968   3.472   7.219
 1996SOL    HW2 6525   1.025   3.346   7.279
 1997SOL     OW 6526   1.855   3.369   7.192
 1997SOL    HW1 6527   1.873   3.395   7.101
 1997SOL    HW2 6528   1.936   3.387   7.239
 1998SOL     OW 6529   0.347   2.795   7.404
 1998SOL    HW1 6530   0.420   2.824   7.458
 1998SOL    HW2 6531   0.385   2.728   7.347
 1999SOL     OW 6532   1.289   2.688   5.621
 1999SOL    HW1 6533   1.318   2.597   5.615
 1999SOL    HW2 6534   1.323   2.729   5.541
 2000SOL     OW 6535   1.066   3.198   6.439
 2000SOL    HW1 6536   1.067   3.125   6.377
 2000SOL    HW2 6537   1.127   3.262   6.404
 2001SOL     OW 6538   0.318   2.673   6.534
 2001SOL    HW1 6539   0.412   2.690   6.531
 2001SOL    HW2 6540   0.311   2.582   6.562
 2002SOL     OW 6541   0.331   2.387   6.576
 2002SOL    HW1 6542   0.293   2.300   6.560
 2002SOL    HW2 6543   0.409   2.389   6.521
 2003SOL     OW 6544   1.134   2.239   7.267
 2003SOL    HW1 6545   1.087   2.293   7.330
 2003SOL    HW2 6546   1.222   2.276   7.264
 2004SOL     OW 6547   1.160   2.065   7.055
 2004SOL    HW1 6548   1.150   2.128   7.127
 2004SOL    HW2 6549   1.200   2.116   6.985
 2005SOL     OW 6550   4.492   3.184   5.791
 2005SOL    HW1 6551   4.399   3.200   5.773
 2005SOL    HW2 6552   4.496   3.091   5.813
 2006SOL     OW 6553   0.097   3.639   6.526
 2006SOL    HW1 6554   0.059   3.585   6.458
 2006SOL    HW2 6555   0.185   3.660   6.494
 2007SOL     OW 6556   0.497   3.436   6.493
 2007SOL    HW1 6557   0.565   3.498   6.517
 2007SOL    HW2 6558   0.541   3.372   6.436
 2008SOL     OW 6559   0.984   2.655   6.813
 2008SOL    HW1 6560   1.040   2.631   6.887
 2008SOL    HW2 6561   0.898   2.618   6.834
 2009SOL     OW 6562   0.034   2.425   6.690
 2009SOL    HW1 6563   0.119   2.392   6.659
 2009SOL    HW2 6564   0.020   2.380   6.773
 2010SOL     OW 6565   0.179   2.381   7.300
 2010SOL    HW1 6566   0.259   2.352   7.258
 2010SOL    HW2 6567   0.156   2.462   7.255
 2011SOL     OW 6568   1.376   2.802   7.245
 2011SOL    HW1 6569   1.397   2.895   7.243
 2011SOL    HW2 6570   1.374   2.775   7.153
 2012SOL     OW 6571   0.817   2.431   5.944
 2012SOL    HW1 6572   0.819   2.356   5.885
 2012SOL    HW2 6573   0.743   2.484   5.914
 2013SOL     OW 6574   1.645   2.465   6.775
 2013SOL    HW1 6575   1.636   2.404   6.848
 2013SOL    HW2 6576   1.731   2.445   6.738
 2014SOL     OW 6577   0.274   3.423   7.327
 2014SOL    HW1 6578   0.217   3.476   7.383
 2014SOL    HW2 6579   0.253   3.333   7.350
 2015SOL     OW 6580   0.691   2.316   6.848
 2015SOL    HW1 6581   0.646   2.239   6.814
 2015SOL    HW2 6582   0.692   2.377   6.774
 2016SOL     OW 6583   0.929   3.541   7.053
 2016SOL    HW1 6584   0.902   3.506   6.968
 2016SOL    HW2 6585   0.923   3.636   7.043
 2017SOL     OW 6586   0.472   2.352   5.772
 2017SOL    HW1 6587   0.531   2.424   5.795
 2017SOL    HW2 6588   0.388   2.395   5.756
 2018SOL     OW 6589   0.162   3.003   7.047
 2018SOL    HW1 6590   0.145   2.958   7.130
 2018SOL    HW2 6591   0.169   2.933   6.982
 2019SOL     OW 6592   1.327   2.911   6.809
 2019SOL    HW1 6593   1.346   2.843   6.745
 2019SOL    HW2 6594   1.256   2.962   6.770
 2020SOL     OW 6595   1.299   2.723   5.893
 2020SOL    HW1 6596   1.223   2.694   5.943
 2020SOL    HW2 6597   1.276   2.706   5.802
 2021SOL     OW 6598   1.771   3.607   6.736
 2021SOL    HW1 6599   1.831   3.633   6.666
 2021SOL    HW2 6600   1.747   3.517   6.715
 2022SOL     OW 6601   1.241   3.595   6.699
 2022SOL    HW1 6602   1.323   3.615   6.654
 2022SOL    HW2 6603   1.246   3.501   6.718
 2023SOL     OW 6604   0.067   3.047   6.635
 2023SOL    HW1 6605   0.066   3.079   6.725
 2023SOL    HW2 6606   0.022   3.115   6.585
 2024SOL     OW 6607   0.679   3.528   7.315
 2024SOL    HW1 6608   0.622   3.605   7.309
 2024SOL    HW2 6609   0.742   3.538   7.244
 2025SOL     OW 6610   1.391   3.430   6.071
 2025SOL    HW1 6611   1.450   3.462   6.003
 2025SOL    HW2 6612   1.342   3.507   6.099
 2026SOL     OW 6613   0.119   3.669   7.433
 2026SOL    HW1 6614   0.079   3.596   7.481
 2026SOL    HW2 6615   0.182   3.706   7.495
 2027SOL     OW 6616   1.258   2.796   6.248
 2027SOL    HW1 6617   1.327   2.737   6.278
 2027SOL    HW2 6618   1.305   2.864   6.199
 2028SOL     OW 6619   0.815   3.136   7.016
 2028SOL    HW1 6620   0.787   3.174   7.099
 2028SOL    HW2 6621   0.744   3.157   6.955
 2029SOL     OW 6622   0.673   3.481   5.741
 2029SOL    HW1 6623   0.682   3.493   5.647
 2029SOL    HW2 6624   0.618   3.403   5.750
 2030SOL     OW 6625   1.627   3.589   6.977
 2030SOL    HW1 6626   1.677   3.596   6.896
 2030SOL    HW2 6627   1.614   3.679   7.005
 2031SOL     OW 6628   1.841   2.010   6.548
 2031SOL    HW1 6629   1.890   1.951   6.491
 2031SOL    HW2 6630   1.774   2.048   6.491
 2032SOL     OW 6631   0.265   2.182   6.305
 2032SOL    HW1 6632   0.182   2.220   6.277
 2032SOL    HW2 6633   0.255   2.169   6.399
 2033SOL     OW 6634   1.208   3.468   5.617
 2033SOL    HW1 6635   1.197   3.377   5.645
 2033SOL    HW2 6636   1.142   3.480   5.548
 2034SOL     OW 6637   0.825   2.869   6.958
 2034SOL    HW1 6638   0.868   2.865   6.873
 2034SOL    HW2 6639   0.825   2.962   6.980
 2035SOL     OW 6640   0.915   2.772   5.875
 2035SOL    HW1 6641   0.977   2.805   5.809
 2035SOL    HW2 6642   0.963   2.703   5.921
 2036SOL     OW 6643   1.493   3.487   5.628
 2036SOL    HW1 6644   1.398   3.481   5.615
 2036SOL    HW2 6645   1.529   3.494   5.540
 2037SOL     OW 6646   0.373   3.169   7.076
 2037SOL    HW1 6647   0.355   3.248   7.025
 2037SOL    HW2 6648   0.298   3.112   7.060
 2038SOL     OW 6649   1.612   3.147   6.868
 2038SOL    HW1 6650   1.670   3.135   6.944
 2038SOL    HW2 6651   1.551   3.215   6.896
 2039SOL     OW 6652   1.049   2.971   6.291
 2039SOL    HW1 6653   0.979   2.919   6.331
 2039SOL    HW2 6654   1.113   2.906   6.263
 2040SOL     OW 6655   1.023   2.102   6.552
 2040SOL    HW1 6656   1.018   2.054   6.469
 2040SOL    HW2 6657   1.017   2.034   6.619
 2041SOL     OW 6658   0.605   3.352   6.068
 2041SOL    HW1 6659   0.645   3.302   5.998
 2041SOL    HW2 6660   0.529   3.394   6.027
 2042SOL     OW 6661   1.724   2.255   6.968
 2042SOL    HW1 6662   1.796   2.318   6.967
 2042SOL    HW2 6663   1.754   2.183   6.912
 2043SOL     OW 6664   0.252   3.206   5.863
 2043SOL    HW1 6665   0.157   3.205   5.848
 2043SOL    HW2 6666   0.262   3.238   5.952
 2044SOL     OW 6667   0.116   2.869   7.280
 2044SOL    HW1 6668   0.052   2.911   7.338
 2044SOL    HW2 6669   0.194   2.859   7.334
 2045SOL     OW 6670   0.674   2.061   7.085
 2045SOL    HW1 6671   0.758   2.039   7.044
 2045SOL    HW2 6672   0.697   2.089   7.173
 2046SOL     OW 6673   0.072   2.187   5.618
 2046SOL    HW1 6674   4.477   2.199   5.624
 2046SOL    HW2 6675   0.104   2.269   5.580
 2047SOL     OW 6676   1.430   2.721   6.987
 2047SOL    HW1 6677   1.382   2.780   6.930
 2047SOL    HW2 6678   1.520   2.722   6.953
 2048SOL     OW 6679   0.086   2.038   5.891
 2048SOL    HW1 6680   0.079   2.110   5.828
 2048SOL    HW2 6681   0.162   1.988   5.861
 2049SOL     OW 6682   1.179   3.201   5.702
 2049SOL    HW1 6683   1.088   3.172   5.704
 2049SOL    HW2 6684   1.206   3.201   5.794
 2050SOL     OW 6685   0.623   2.693   7.017
 2050SOL    HW1 6686   0.679   2.769   7.003
 2050SOL    HW2 6687   0.684   2.620   7.024
 2051SOL     OW 6688   1.484   3.637   6.563
 2051SOL    HW1 6689   1.508   3.698   6.493
 2051SOL    HW2 6690   1.566   3.620   6.609
 2052SOL     OW 6691   0.714   2.425   7.290
 2052SOL    HW1 6692   0.754   2.489   7.349
 2052SOL    HW2 6693   0.745   2.340   7.321
 2053SOL     OW 6694   1.471   3.063   7.218
 2053SOL    HW1 6695   1.458   3.076   7.312
 2053SOL    HW2 6696   1.564   3.076   7.204
 2054SOL     OW 6697   0.381   3.605   7.150
 2054SOL    HW1 6698   0.295   3.646   7.133
 2054SOL    HW2 6699   0.360   3.525   7.199
 2055SOL     OW 6700   1.670   2.743   6.842
 2055SOL    HW1 6701   1.662   2.657   6.800
 2055SOL    HW2 6702   1.657   2.806   6.771
 2056SOL     OW 6703   1.211   2.181   6.042
 2056SOL    HW1 6704   1.282   2.118   6.033
 2056SOL    HW2 6705   1.232   2.230   6.122
 2057SOL     OW 6706   0.591   2.600   6.254
 2057SOL    HW1 6707   0.628   2.686   6.240
 2057SOL    HW2 6708   0.522   2.592   6.188
 2058SOL     OW 6709   1.763   2.226   7.244
 2058SOL    HW1 6710   1.756   2.237   7.149
 2058SOL    HW2 6711   1.690   2.169   7.267
 2059SOL     OW 6712   1.744   2.796   7.098
 2059SOL    HW1 6713   1.741   2.891   7.110
 2059SOL    HW2 6714   1.730   2.784   7.004
 2060SOL     OW 6715   0.865   3.230   5.620
 2060SOL    HW1 6716   0.824   3.256   5.703
 2060SOL    HW2 6717   0.880   3.312   5.574
 2061SOL     OW 6718   0.661   3.654   6.532
 2061SOL    HW1 6719   0.640   3.744   6.508
 2061SOL    HW2 6720   0.756   3.648   6.523
 2062SOL     OW 6721   0.867   2.829   6.441
 2062SOL    HW1 6722   0.917   2.757   6.479
 2062SOL    HW2 6723   0.833   2.878   6.516
 2063SOL     OW 6724   1.080   2.852   5.675
 2063SOL    HW1 6725   1.056   2.902   5.597
 2063SOL    HW2 6726   1.154   2.798   5.648
 2064SOL     OW 6727   1.856   3.415   6.430
 2064SOL    HW1 6728   1.775   3.404   6.380
 2064SOL    HW2 6729   1.851   3.348   6.498
 2065SOL     OW 6730   0.230   3.168   7.444
 2065SOL    HW1 6731   0.157   3.110   7.421
 2065SOL    HW2 6732   0.224   3.178   7.539
 2066SOL     OW 6733   0.107   3.098   6.254
 2066SOL    HW1 6734   0.117   3.051   6.337
 2066SOL    HW2 6735   0.165   3.053   6.193
 2067SOL     OW 6736   0.682   3.265   7.214
 2067SOL    HW1 6737   0.602   3.221   7.242
 2067SOL    HW2 6738   0.676   3.353   7.252
 2068SOL     OW 6739   1.819   2.052   6.819
 2068SOL    HW1 6740   1.831   1.962   6.849
 2068SOL    HW2 6741   1.828   2.048   6.724
 2069SOL     OW 6742   0.436   2.295   6.112
 2069SOL    HW1 6743   0.459   2.221   6.056
 2069SOL    HW2 6744   0.384   2.256   6.182
 2070SOL     OW 6745   1.698   3.354   6.684
 2070SOL    HW1 6746   1.618   3.329   6.638
 2070SOL    HW2 6747   1.711   3.284   6.749
 2071SOL     OW 6748   0.300   2.349   6.839
 2071SOL    HW1 6749   0.375   2.309   6.884
 2071SOL    HW2 6750   0.331   2.365   6.750
 2072SOL     OW 6751   0.828   3.439   6.263
 2072SOL    HW1 6752   0.814   3.492   6.185
 2072SOL    HW2 6753   0.751   3.383   6.268
 2073SOL     OW 6754   1.437   2.089   6.705
 2073SOL    HW1 6755   1.460   2.007   6.749
 2073SOL    HW2 6756   1.384   2.136   6.769
 2074SOL     OW 6757   1.008   1.881   6.728
 2074SOL    HW1 6758   0.954   1.813   6.690
 2074SOL    HW2 6759   1.096   1.843   6.731
 2075SOL     OW 6760   0.772   3.194   5.899
 2075SOL    HW1 6761   0.740   3.104   5.906
 2075SOL    HW2 6762   0.854   3.194   5.949
 2076SOL     OW 6763   0.621   3.418   6.871
 2076SOL    HW1 6764   0.623   3.500   6.921
 2076SOL    HW2 6765   0.708   3.412   6.832
 2077SOL     OW 6766   1.304   1.925   5.712
 2077SOL    HW1 6767   1.356   1.857   5.670
 2077SOL    HW2 6768   1.233   1.877   5.756
 2078SOL     OW 6769   1.277   2.320   6.262
 2078SOL    HW1 6770   1.235   2.405   6.273
 2078SOL    HW2 6771   1.286   2.286   6.351
 2079SOL     OW 6772   0.041   2.914   5.874
 2079SOL    HW1 6773   0.135   2.897   5.864
 2079SOL    HW2 6774   0.020   2.881   5.961
 2080SOL     OW 6775   0.885   3.515   5.928
 2080SOL    HW1 6776   0.812   3.496   5.869
 2080SOL    HW2 6777   0.855   3.589   5.980
 2081SOL     OW 6778   0.248   2.491   7.568
 2081SOL    HW1 6779   0.173   2.470   7.625
 2081SOL    HW2 6780   0.216   2.472   7.479
 2082SOL     OW 6781   0.213   2.137   8.440
 2082SOL    HW1 6782   0.249   2.111   8.524
 2082SOL    HW2 6783   0.137   2.080   8.427
 2083SOL     OW 6784   0.008   2.253   8.088
 2083SOL    HW1 6785   4.427   2.284   8.128
 2083SOL    HW2 6786   4.483   2.173   8.042
 2084SOL     OW 6787   0.568   3.149   8.623
 2084SOL    HW1 6788   0.480   3.153   8.585
 2084SOL    HW2 6789   0.583   3.236   8.658
 2085SOL     OW 6790   1.560   3.374   8.155
 2085SOL    HW1 6791   1.517   3.354   8.238
 2085SOL    HW2 6792   1.489   3.378   8.091
 2086SOL     OW 6793   1.130   2.560   8.149
 2086SOL    HW1 6794   1.179   2.641   8.135
 2086SOL    HW2 6795   1.083   2.575   8.232
 2087SOL     OW 6796   1.769   2.468   7.676
 2087SOL    HW1 6797   1.746   2.460   7.584
 2087SOL    HW2 6798   1.734   2.388   7.717
 2088SOL     OW 6799   0.756   3.005   8.488
 2088SOL    HW1 6800   0.687   3.039   8.545
 2088SOL    HW2 6801   0.791   3.082   8.444
 2089SOL     OW 6802   0.866   2.636   9.269
 2089SOL    HW1 6803   0.852   2.707   9.331
 2089SOL    HW2 6804   0.889   2.680   9.187
 2090SOL     OW 6805   0.685   2.866   8.095
 2090SOL    HW1 6806   0.750   2.853   8.164
 2090SOL    HW2 6807   0.616   2.917   8.137
 2091SOL     OW 6808   0.711   3.012   9.260
 2091SOL    HW1 6809   0.758   3.091   9.286
 2091SOL    HW2 6810   0.628   3.044   9.224
 2092SOL     OW 6811   0.335   3.283   8.518
 2092SOL    HW1 6812   0.254   3.264   8.471
 2092SOL    HW2 6813   0.385   3.337   8.456
 2093SOL     OW 6814   1.461   3.361   8.802
 2093SOL    HW1 6815   1.510   3.442   8.812
 2093SOL    HW2 6816   1.399   3.361   8.875
 2094SOL     OW 6817   0.444   2.267   8.940
 2094SOL    HW1 6818   0.524   2.214   8.945
 2094SOL    HW2 6819   0.373   2.203   8.945
 2095SOL     OW 6820   1.611   2.308   8.190
 2095SOL    HW1 6821   1.536   2.331   8.134
 2095SOL    HW2 6822   1.629   2.388   8.239
 2096SOL     OW 6823   0.246   3.553   7.925
 2096SOL    HW1 6824   0.231   3.638   7.967
 2096SOL    HW2 6825   0.313   3.571   7.859
 2097SOL     OW 6826   1.136   3.203   9.140
 2097SOL    HW1 6827   1.176   3.199   9.227
 2097SOL    HW2 6828   1.084   3.124   9.134
 2098SOL     OW 6829   0.249   3.288   7.976
 2098SOL    HW1 6830   0.240   3.384   7.978
 2098SOL    HW2 6831   0.185   3.256   8.040
 2099SOL     OW 6832   0.248   2.944   8.332
 2099SOL    HW1 6833   0.264   2.854   8.361
 2099SOL    HW2 6834   0.188   2.980   8.398
 2100SOL     OW 6835   0.614   3.653   8.880
 2100SOL    HW1 6836   0.531   3.634   8.923
 2100SOL    HW2 6837   0.634   3.743   8.904
 2101SOL     OW 6838   0.580   2.848   7.586
 2101SOL    HW1 6839   0.627   2.892   7.515
 2101SOL    HW2 6840   0.624   2.877   7.666
 2102SOL     OW 6841   1.590   1.984   8.915
 2102SOL    HW1 6842   1.607   2.063   8.863
 2102SOL    HW2 6843   1.581   2.016   9.005
 2103SOL     OW 6844   0.136   2.508   8.022
 2103SOL    HW1 6845   0.088   2.427   8.039
 2103SOL    HW2 6846   0.106   2.569   8.089
 2104SOL     OW 6847   1.842   3.621   7.783
 2104SOL    HW1 6848   1.905   3.593   7.849
 2104SOL    HW2 6849   1.867   3.712   7.764
 2105SOL     OW 6850   0.033   3.464   7.588
 2105SOL    HW1 6851   0.021   3.369   7.586
 2105SOL    HW2 6852   0.020   3.487   7.680
 2106SOL     OW 6853   1.692   2.782   8.089
 2106SOL    HW1 6854   1.772   2.736   8.065
 2106SOL    HW2 6855   1.668   2.831   8.010
 2107SOL     OW 6856   1.645   2.969   7.877
 2107SOL    HW1 6857   1.731   2.974   7.835
 2107SOL    HW2 6858   1.650   3.030   7.951
 2108SOL     OW 6859   0.112   2.624   9.033
 2108SOL    HW1 6860   0.204   2.623   9.005
 2108SOL    HW2 6861   0.093   2.717   9.049
 2109SOL     OW 6862   0.614   3.247   8.184
 2109SOL    HW1 6863   0.567   3.164   8.194
 2109SOL    HW2 6864   0.597   3.273   8.094
 2110SOL     OW 6865   1.289   3.101   8.871
 2110SOL    HW1 6866   1.321   3.033   8.811
 2110SOL    HW2 6867   1.346   3.094   8.948
 2111SOL     OW 6868   0.816   1.861   7.956
 2111SOL    HW1 6869   0.856   1.946   7.937
 2111SOL    HW2 6870   0.722   1.880   7.965
 2112SOL     OW 6871   0.180   2.803   8.727
 2112SOL    HW1 6872   0.272   2.785   8.707
 2112SOL    HW2 6873   0.133   2.787   8.645
 2113SOL     OW 6874   1.532   2.855   7.646
 2113SOL    HW1 6875   1.462   2.798   7.677
 2113SOL    HW2 6876   1.572   2.889   7.726
 2114SOL     OW 6877   1.186   3.668   9.070
 2114SOL    HW1 6878   1.196   3.726   8.994
 2114SOL    HW2 6879   1.201   3.580   9.035
 2115SOL     OW 6880   0.330   2.118   9.246
 2115SOL    HW1 6881   0.380   2.191   9.282
 2115SOL    HW2 6882   0.244   2.126   9.285
 2116SOL     OW 6883   1.467   3.281   8.400
 2116SOL    HW1 6884   1.398   3.296   8.465
 2116SOL    HW2 6885   1.454   3.190   8.373
 2117SOL     OW 6886   1.659   3.600   8.026
 2117SOL    HW1 6887   1.638   3.571   7.937
 2117SOL    HW2 6888   1.634   3.527   8.082
 2118SOL     OW 6889   0.598   2.583   7.714
 2118SOL    HW1 6890   0.600   2.664   7.663
 2118SOL    HW2 6891   0.532   2.599   7.782
 2119SOL     OW 6892   1.279   2.214   8.380
 2119SOL    HW1 6893   1.190   2.181   8.389
 2119SOL    HW2 6894   1.330   2.161   8.441
 2120SOL     OW 6895   1.581   3.532   7.757
 2120SOL    HW1 6896   1.671   3.564   7.750
 2120SOL    HW2 6897   1.554   3.515   7.667
 2121SOL     OW 6898   0.793   2.478   8.899
 2121SOL    HW1 6899   0.767   2.455   8.988
 2121SOL    HW2 6900   0.751   2.413   8.843
 2122SOL     OW 6901   1.393   2.336   9.126
 2122SOL    HW1 6902   1.396   2.380   9.211
 2122SOL    HW2 6903   1.456   2.264   9.133
 2123SOL     OW 6904   0.955   2.749   9.030
 2123SOL    HW1 6905   1.010   2.679   8.995
 2123SOL    HW2 6906   0.908   2.784   8.954
 2124SOL     OW 6907   0.993   2.276   8.686
 2124SOL    HW1 6908   0.908   2.297   8.725
 2124SOL    HW2 6909   0.971   2.228   8.606
 2125SOL     OW 6910   1.051   2.561   7.874
 2125SOL    HW1 6911   1.066   2.554   7.968
 2125SOL    HW2 6912   0.969   2.514   7.860
 2126SOL     OW 6913   0.096   2.689   8.232
 2126SOL    HW1 6914   0.183   2.672   8.269
 2126SOL    HW2 6915   0.044   2.718   8.307
 2127SOL     OW 6916   0.125   3.715   9.024
 2127SOL    HW1 6917   0.117   3.693   9.117
 2127SOL    HW2 6918   0.044   3.681   8.985
 2128SOL     OW 6919   0.892   2.210   7.642
 2128SOL    HW1 6920   0.933   2.272   7.581
 2128SOL    HW2 6921   0.908   2.124   7.604
 2129SOL     OW 6922   1.713   2.445   9.277
 2129SOL    HW1 6923   1.673   2.517   9.229
 2129SOL    HW2 6924   1.728   2.377   9.211
 2130SOL     OW 6925   1.377   3.004   7.990
 2130SOL    HW1 6926   1.455   2.991   7.936
 2130SOL    HW2 6927   1.324   3.066   7.940
 2131SOL     OW 6928   0.551   2.044   8.341
 2131SOL    HW1 6929   0.554   2.074   8.432
 2131SOL    HW2 6930   0.552   2.125   8.289
 2132SOL     OW 6931   1.006   3.307   7.921
 2132SOL    HW1 6932   0.968   3.379   7.871
 2132SOL    HW2 6933   0.988   3.328   8.012
 2133SOL     OW 6934   0.356   3.672   8.306
 2133SOL    HW1 6935   0.397   3.586   8.317
 2133SOL    HW2 6936   0.426   3.735   8.322
 2134SOL     OW 6937   1.800   2.920   8.315
 2134SOL    HW1 6938   1.745   2.900   8.239
 2134SOL    HW2 6939   1.738   2.925   8.388
 2135SOL     OW 6940   1.228   3.401   8.961
 2135SOL    HW1 6941   1.214   3.328   9.022
 2135SOL    HW2 6942   1.164   3.386   8.891
 2136SOL     OW 6943   0.316   2.816   7.701
 2136SOL    HW1 6944   0.400   2.839   7.661
 2136SOL    HW2 6945   0.300   2.726   7.674
 2137SOL     OW 6946   1.478   2.604   8.175
 2137SOL    HW1 6947   1.468   2.559   8.259
 2137SOL    HW2 6948   1.556   2.659   8.186
 2138SOL     OW 6949   0.467   3.124   9.183
 2138SOL    HW1 6950   0.440   3.131   9.092
 2138SOL    HW2 6951   0.386   3.129   9.233
 2139SOL     OW 6952   1.121   3.640   7.679
 2139SOL    HW1 6953   1.049   3.598   7.725
 2139SOL    HW2 6954   1.144   3.578   7.609
 2140SOL     OW 6955   0.196   2.139   8.934
 2140SOL    HW1 6956   0.137   2.214   8.940
 2140SOL    HW2 6957   0.184   2.092   9.016
 2141SOL     OW 6958   1.629   3.242   7.535
 2141SOL    HW1 6959   1.587   3.327   7.520
 2141SOL    HW2 6960   1.560   3.178   7.517
 2142SOL     OW 6961   0.469   3.606   7.761
 2142SOL    HW1 6962   0.511   3.659   7.829
 2142SOL    HW2 6963   0.542   3.571   7.710
 2143SOL     OW 6964   1.401   1.969   7.881
 2143SOL    HW1 6965   1.391   1.945   7.789
 2143SOL    HW2 6966   1.496   1.978   7.893
 2144SOL     OW 6967   0.261   3.656   8.679
 2144SOL    HW1 6968   0.305   3.580   8.718
 2144SOL    HW2 6969   0.225   3.623   8.596
 2145SOL     OW 6970   0.938   3.561   8.347
 2145SOL    HW1 6971   1.015   3.508   8.369
 2145SOL    HW2 6972   0.894   3.511   8.278
 2146SOL     OW 6973   0.394   2.557   7.921
 2146SOL    HW1 6974   0.418   2.465   7.932
 2146SOL    HW2 6975   0.302   2.561   7.946
 2147SOL     OW 6976   1.534   2.085   9.174
 2147SOL    HW1 6977   1.541   2.106   9.267
 2147SOL    HW2 6978   1.466   2.017   9.170
 2148SOL     OW 6979   0.634   1.987   7.551
 2148SOL    HW1 6980   0.703   1.922   7.567
 2148SOL    HW2 6981   0.586   1.953   7.476
 2149SOL     OW 6982   0.767   2.139   9.202
 2149SOL    HW1 6983   0.843   2.081   9.203
 2149SOL    HW2 6984   0.719   2.117   9.282
 2150SOL     OW 6985   0.877   3.384   8.641
 2150SOL    HW1 6986   0.861   3.348   8.555
 2150SOL    HW2 6987   0.946   3.329   8.678
 2151SOL     OW 6988   1.340   2.451   8.880
 2151SOL    HW1 6989   1.371   2.418   8.965
 2151SOL    HW2 6990   1.377   2.539   8.873
 2152SOL     OW 6991   0.815   3.258   8.387
 2152SOL    HW1 6992   0.899   3.246   8.343
 2152SOL    HW2 6993   0.750   3.258   8.317
 2153SOL     OW 6994   0.927   2.371   8.352
 2153SOL    HW1 6995   0.904   2.363   8.259
 2153SOL    HW2 6996   0.959   2.284   8.376
 2154SOL     OW 6997   0.552   1.924   7.949
 2154SOL    HW1 6998   0.471   1.922   8.001
 2154SOL    HW2 6999   0.544   2.002   7.895
 2155SOL     OW 7000   1.428   3.060   7.489
 2155SOL    HW1 7001   1.459   2.984   7.539
 2155SOL    HW2 7002   1.342   3.081   7.526
 2156SOL     OW 7003   0.295   1.908   7.626
 2156SOL    HW1 7004   0.358   1.975   7.599
 2156SOL    HW2 7005   0.348   1.842   7.671
 2157SOL     OW 7006   0.938   2.108   7.909
 2157SOL    HW1 7007   0.911   2.150   7.827
 2157SOL    HW2 7008   1.033   2.122   7.913
 2158SOL     OW 7009   1.080   2.543   8.907
 2158SOL    HW1 7010   1.012   2.476   8.913
 2158SOL    HW2 7011   1.162   2.493   8.901
 2159SOL     OW 7012   1.224   3.431   8.241
 2159SOL    HW1 7013   1.240   3.499   8.175
 2159SOL    HW2 7014   1.292   3.446   8.308
 2160SOL     OW 7015   0.466   3.011   8.184
 2160SOL    HW1 7016   0.396   2.992   8.245
 2160SOL    HW2 7017   0.428   2.996   8.097
 2161SOL     OW 7018   1.270   3.656   8.056
 2161SOL    HW1 7019   1.315   3.717   7.998
 2161SOL    HW2 7020   1.203   3.709   8.100
 2162SOL     OW 7021   1.023   2.404   7.470
 2162SOL    HW1 7022   0.981   2.488   7.450
 2162SOL    HW2 7023   1.089   2.426   7.537
 2163SOL     OW 7024   0.083   2.390   8.858
 2163SOL    HW1 7025   0.148   2.387   8.787
 2163SOL    HW2 7026   0.069   2.484   8.873
 2164SOL     OW 7027   0.561   2.090   8.614
 2164SOL    HW1 7028   0.603   2.011   8.648
 2164SOL    HW2 7029   0.469   2.081   8.640
 2165SOL     OW 7030   0.868   2.321   8.088
 2165SOL    HW1 7031   0.822   2.375   8.024
 2165SOL    HW2 7032   0.889   2.241   8.041
 2166SOL     OW 7033   1.015   1.915   8.200
 2166SOL    HW1 7034   0.957   1.908   8.124
 2166SOL    HW2 7035   0.994   1.840   8.255
 2167SOL     OW 7036   1.437   3.025   8.305
 2167SOL    HW1 7037   1.368   2.958   8.305
 2167SOL    HW2 7038   1.460   3.036   8.213
 2168SOL     OW 7039   1.465   2.467   8.426
 2168SOL    HW1 7040   1.416   2.385   8.428
 2168SOL    HW2 7041   1.525   2.461   8.501
 2169SOL     OW 7042   1.847   2.678   7.832
 2169SOL    HW1 7043   1.902   2.625   7.890
 2169SOL    HW2 7044   1.818   2.617   7.764
 2170SOL     OW 7045   0.492   3.279   7.607
 2170SOL    HW1 7046   0.415   3.250   7.657
 2170SOL    HW2 7047   0.474   3.252   7.517
 2171SOL     OW 7048   1.670   3.127   8.093
 2171SOL    HW1 7049   1.764   3.131   8.107
 2171SOL    HW2 7050   1.639   3.215   8.115
 2172SOL     OW 7051   1.394   2.434   7.519
 2172SOL    HW1 7052   1.334   2.414   7.591
 2172SOL    HW2 7053   1.479   2.402   7.550
 2173SOL     OW 7054   0.524   2.122   7.765
 2173SOL    HW1 7055   0.570   2.076   7.695
 2173SOL    HW2 7056   0.505   2.208   7.728
 2174SOL     OW 7057   1.752   3.101   9.021
 2174SOL    HW1 7058   1.839   3.061   9.019
 2174SOL    HW2 7059   1.767   3.191   9.050
 2175SOL     OW 7060   1.059   3.216   8.782
 2175SOL    HW1 7061   0.984   3.185   8.833
 2175SOL    HW2 7062   1.135   3.174   8.823
 2176SOL     OW 7063   1.608   3.488   9.102
 2176SOL    HW1 7064   1.602   3.521   9.012
 2176SOL    HW2 7065   1.691   3.440   9.104
 2177SOL     OW 7066   1.129   3.066   8.554
 2177SOL    HW1 7067   1.069   3.103   8.619
 2177SOL    HW2 7068   1.095   3.097   8.470
 2178SOL     OW 7069   1.629   2.961   8.525
 2178SOL    HW1 7070   1.625   3.023   8.598
 2178SOL    HW2 7071   1.550   2.977   8.475
 2179SOL     OW 7072   0.917   1.960   8.844
 2179SOL    HW1 7073   0.940   1.940   8.754
 2179SOL    HW2 7074   0.997   1.999   8.881
 2180SOL     OW 7075   0.984   2.977   9.170
 2180SOL    HW1 7076   0.892   2.992   9.192
 2180SOL    HW2 7077   0.983   2.899   9.115
 2181SOL     OW 7078   0.709   2.923   7.820
 2181SOL    HW1 7079   0.696   2.907   7.914
 2181SOL    HW2 7080   0.784   2.870   7.797
 2182SOL     OW 7081   0.431   2.688   8.689
 2182SOL    HW1 7082   0.500   2.700   8.754
 2182SOL    HW2 7083   0.372   2.623   8.728
 2183SOL     OW 7084   1.266   2.239   8.723
 2183SOL    HW1 7085   1.299   2.316   8.769
 2183SOL    HW2 7086   1.176   2.262   8.700
 2184SOL     OW 7087   0.062   3.438   8.789
 2184SOL    HW1 7088   0.035   3.528   8.770
 2184SOL    HW2 7089   0.158   3.443   8.796
 2185SOL     OW 7090   0.347   2.970   7.941
 2185SOL    HW1 7091   0.356   3.044   7.880
 2185SOL    HW2 7092   0.347   2.893   7.885
 2186SOL     OW 7093   0.561   2.395   8.304
 2186SOL    HW1 7094   0.574   2.455   8.230
 2186SOL    HW2 7095   0.622   2.426   8.371
 2187SOL     OW 7096   1.248   3.210   7.837
 2187SOL    HW1 7097   1.304   3.282   7.868
 2187SOL    HW2 7098   1.161   3.231   7.871
 2188SOL     OW 7099   1.280   3.319   8.594
 2188SOL    HW1 7100   1.335   3.321   8.673
 2188SOL    HW2 7101   1.225   3.242   8.606
 2189SOL     OW 7102   1.580   2.485   7.926
 2189SOL    HW1 7103   1.534   2.539   7.990
 2189SOL    HW2 7104   1.628   2.547   7.871
 2190SOL     OW 7105   0.347   3.394   8.763
 2190SOL    HW1 7106   0.333   3.347   8.681
 2190SOL    HW2 7107   0.442   3.404   8.769
 2191SOL     OW 7108   0.478   2.619   9.113
 2191SOL    HW1 7109   0.508   2.658   9.031
 2191SOL    HW2 7110   0.524   2.535   9.118
 2192SOL     OW 7111   1.601   2.643   9.131
 2192SOL    HW1 7112   1.514   2.683   9.123
 2192SOL    HW2 7113   1.652   2.683   9.061
 2193SOL     OW 7114   0.996   1.985   9.203
 2193SOL    HW1 7115   1.052   2.057   9.174
 2193SOL    HW2 7116   1.044   1.906   9.177
 2194SOL     OW 7117   0.497   1.905   9.195
 2194SOL    HW1 7118   0.456   1.848   9.130
 2194SOL    HW2 7119   0.438   1.979   9.203
 2195SOL     OW 7120   0.590   2.735   8.472
 2195SOL    HW1 7121   0.619   2.827   8.474
 2195SOL    HW2 7122   0.533   2.726   8.549
 2196SOL     OW 7123   1.358   2.721   8.478
 2196SOL    HW1 7124   1.275   2.712   8.432
 2196SOL    HW2 7125   1.398   2.634   8.473
 2197SOL     OW 7126   1.205   2.391   7.715
 2197SOL    HW1 7127   1.213   2.312   7.770
 2197SOL    HW2 7128   1.162   2.455   7.772
 2198SOL     OW 7129   0.302   2.053   8.690
 2198SOL    HW1 7130   0.263   2.087   8.770
 2198SOL    HW2 7131   0.285   1.959   8.693
 2199SOL     OW 7132   0.039   3.175   8.733
 2199SOL    HW1 7133   0.076   3.127   8.808
 2199SOL    HW2 7134   0.045   3.267   8.758
 2200SOL     OW 7135   0.725   2.493   8.507
 2200SOL    HW1 7136   0.800   2.475   8.449
 2200SOL    HW2 7137   0.698   2.582   8.484
 2201SOL     OW 7138   1.734   2.823   9.299
 2201SOL    HW1 7139   1.688   2.761   9.243
 2201SOL    HW2 7140   1.674   2.835   9.374
 2202SOL     OW 7141   0.310   1.932   8.067
 2202SOL    HW1 7142   0.287   2.020   8.094
 2202SOL    HW2 7143   0.308   1.881   8.148
 2203SOL     OW 7144   1.615   2.235   7.816
 2203SOL    HW1 7145   1.644   2.173   7.882
 2203SOL    HW2 7146   1.593   2.314   7.865
 2204SOL     OW 7147   1.027   2.621   8.409
 2204SOL    HW1 7148   1.025   2.639   8.503
 2204SOL    HW2 7149   1.001   2.529   8.401
 2205SOL     OW 7150   0.983   3.429   9.164
 2205SOL    HW1 7151   0.967   3.472   9.081
 2205SOL    HW2 7152   1.025   3.346   9.141
 2206SOL     OW 7153   1.855   3.368   9.054
 2206SOL    HW1 7154   1.873   3.394   8.963
 2206SOL    HW2 7155   1.936   3.387   9.100
 2207SOL     OW 7156   0.347   2.795   9.266
 2207SOL    HW1 7157   0.420   2.824   9.320
 2207SOL    HW2 7158   0.385   2.728   9.209
 2208SOL     OW 7159   1.529   2.135   7.575
 2208SOL    HW1 7160   1.464   2.070   7.602
 2208SOL    HW2 7161   1.562   2.171   7.657
 2209SOL     OW 7162   1.292   2.688   7.480
 2209SOL    HW1 7163   1.335   2.603   7.483
 2209SOL    HW2 7164   1.323   2.727   7.398
 2210SOL     OW 7165   1.065   3.197   8.301
 2210SOL    HW1 7166   1.069   3.125   8.239
 2210SOL    HW2 7167   1.127   3.262   8.266
 2211SOL     OW 7168   0.318   2.673   8.396
 2211SOL    HW1 7169   0.412   2.690   8.393
 2211SOL    HW2 7170   0.311   2.582   8.424
 2212SOL     OW 7171   0.331   2.387   8.438
 2212SOL    HW1 7172   0.293   2.300   8.422
 2212SOL    HW2 7173   0.409   2.389   8.383
 2213SOL     OW 7174   1.134   2.239   9.129
 2213SOL    HW1 7175   1.087   2.294   9.192
 2213SOL    HW2 7176   1.222   2.276   9.126
 2214SOL     OW 7177   1.159   2.065   8.918
 2214SOL    HW1 7178   1.150   2.128   8.989
 2214SOL    HW2 7179   1.201   2.115   8.847
 2215SOL     OW 7180   4.491   3.184   7.653
 2215SOL    HW1 7181   4.399   3.200   7.635
 2215SOL    HW2 7182   4.496   3.091   7.675
 2216SOL     OW 7183   0.097   3.639   8.388
 2216SOL    HW1 7184   0.059   3.585   8.319
 2216SOL    HW2 7185   0.185   3.660   8.356
 2217SOL     OW 7186   0.497   3.436   8.355
 2217SOL    HW1 7187   0.565   3.498   8.379
 2217SOL    HW2 7188   0.541   3.372   8.298
 2218SOL     OW 7189   0.984   2.655   8.675
 2218SOL    HW1 7190   1.039   2.631   8.749
 2218SOL    HW2 7191   0.898   2.618   8.696
 2219SOL     OW 7192   0.034   2.424   8.552
 2219SOL    HW1 7193   0.118   2.392   8.521
 2219SOL    HW2 7194   0.020   2.380   8.636
 2220SOL     OW 7195   0.179   2.381   9.162
 2220SOL    HW1 7196   0.259   2.352   9.120
 2220SOL    HW2 7197   0.156   2.462   9.117
 2221SOL     OW 7198   1.376   2.802   9.107
 2221SOL    HW1 7199   1.397   2.895   9.105
 2221SOL    HW2 7200   1.374   2.775   9.015
 2222SOL     OW 7201   0.817   2.431   7.807
 2222SOL    HW1 7202   0.820   2.356   7.747
 2222SOL    HW2 7203   0.743   2.483   7.776
 2223SOL     OW 7204   1.642   2.465   8.636
 2223SOL    HW1 7205   1.633   2.402   8.707
 2223SOL    HW2 7206   1.730   2.451   8.601
 2224SOL     OW 7207   0.273   3.423   9.189
 2224SOL    HW1 7208   0.217   3.476   9.245
 2224SOL    HW2 7209   0.253   3.333   9.212
 2225SOL     OW 7210   0.691   2.316   8.710
 2225SOL    HW1 7211   0.646   2.239   8.676
 2225SOL    HW2 7212   0.692   2.377   8.637
 2226SOL     OW 7213   0.929   3.541   8.915
 2226SOL    HW1 7214   0.902   3.506   8.830
 2226SOL    HW2 7215   0.923   3.636   8.905
 2227SOL     OW 7216   0.472   2.352   7.633
 2227SOL    HW1 7217   0.531   2.423   7.657
 2227SOL    HW2 7218   0.388   2.395   7.618
 2228SOL     OW 7219   0.162   3.003   8.909
 2228SOL    HW1 7220   0.145   2.958   8.992
 2228SOL    HW2 7221   0.169   2.933   8.844
 2229SOL     OW 7222   1.327   2.910   8.671
 2229SOL    HW1 7223   1.350   2.846   8.603
 2229SOL    HW2 7224   1.256   2.961   8.632
 2230SOL     OW 7225   1.310   2.719   7.755
 2230SOL    HW1 7226   1.235   2.688   7.805
 2230SOL    HW2 7227   1.286   2.705   7.663
 2231SOL     OW 7228   1.771   3.606   8.598
 2231SOL    HW1 7229   1.831   3.632   8.528
 2231SOL    HW2 7230   1.747   3.516   8.577
 2232SOL     OW 7231   1.241   3.595   8.562
 2232SOL    HW1 7232   1.323   3.615   8.516
 2232SOL    HW2 7233   1.246   3.501   8.580
 2233SOL     OW 7234   0.067   3.047   8.497
 2233SOL    HW1 7235   0.066   3.079   8.587
 2233SOL    HW2 7236   0.022   3.115   8.447
 2234SOL     OW 7237   0.679   3.528   9.177
 2234SOL    HW1 7238   0.623   3.605   9.171
 2234SOL    HW2 7239   0.742   3.538   9.106
 2235SOL     OW 7240   1.717   2.006   7.958
 2235SOL    HW1 7241   1.791   1.992   7.898
 2235SOL    HW2 7242   1.702   1.921   7.998
 2236SOL     OW 7243   1.391   3.430   7.933
 2236SOL    HW1 7244   1.451   3.462   7.865
 2236SOL    HW2 7245   1.342   3.507   7.961
 2237SOL     OW 7246   0.119   3.669   9.295
 2237SOL    HW1 7247   0.079   3.596   9.343
 2237SOL    HW2 7248   0.182   3.706   9.357
 2238SOL     OW 7249   1.277   2.787   8.119
 2238SOL    HW1 7250   1.351   2.726   8.126
 2238SOL    HW2 7251   1.311   2.860   8.067
 2239SOL     OW 7252   0.815   3.136   8.878
 2239SOL    HW1 7253   0.787   3.174   8.961
 2239SOL    HW2 7254   0.744   3.157   8.817
 2240SOL     OW 7255   0.672   3.481   7.603
 2240SOL    HW1 7256   0.682   3.493   7.509
 2240SOL    HW2 7257   0.618   3.403   7.612
 2241SOL     OW 7258   1.628   3.589   8.839
 2241SOL    HW1 7259   1.677   3.596   8.758
 2241SOL    HW2 7260   1.614   3.679   8.867
 2242SOL     OW 7261   1.848   2.045   8.414
 2242SOL    HW1 7262   1.881   1.958   8.389
 2242SOL    HW2 7263   1.761   2.050   8.373
 2243SOL     OW 7264   0.265   2.182   8.167
 2243SOL    HW1 7265   0.182   2.220   8.139
 2243SOL    HW2 7266   0.255   2.169   8.261
 2244SOL     OW 7267   1.207   3.468   7.479
 2244SOL    HW1 7268   1.198   3.377   7.507
 2244SOL    HW2 7269   1.142   3.479   7.410
 2245SOL     OW 7270   0.825   2.869   8.820
 2245SOL    HW1 7271   0.868   2.865   8.735
 2245SOL    HW2 7272   0.824   2.962   8.843
 2246SOL     OW 7273   0.916   2.773   7.737
 2246SOL    HW1 7274   0.977   2.805   7.671
 2246SOL    HW2 7275   0.963   2.703   7.783
 2247SOL     OW 7276   1.492   3.487   7.491
 2247SOL    HW1 7277   1.397   3.481   7.477
 2247SOL    HW2 7278   1.528   3.493   7.402
 2248SOL     OW 7279   0.373   3.169   8.938
 2248SOL    HW1 7280   0.355   3.248   8.887
 2248SOL    HW2 7281   0.298   3.112   8.922
 2249SOL     OW 7282   1.612   3.146   8.729
 2249SOL    HW1 7283   1.669   3.133   8.805
 2249SOL    HW2 7284   1.551   3.214   8.755
 2250SOL     OW 7285   1.052   2.969   8.154
 2250SOL    HW1 7286   0.981   2.918   8.193
 2250SOL    HW2 7287   1.114   2.903   8.123
 2251SOL     OW 7288   1.020   2.102   8.414
 2251SOL    HW1 7289   1.016   2.054   8.332
 2251SOL    HW2 7290   1.016   2.034   8.482
 2252SOL     OW 7291   0.604   3.352   7.930
 2252SOL    HW1 7292   0.646   3.302   7.860
 2252SOL    HW2 7293   0.529   3.394   7.889
 2253SOL     OW 7294   1.718   2.259   8.824
 2253SOL    HW1 7295   1.796   2.315   8.830
 2253SOL    HW2 7296   1.747   2.184   8.773
 2254SOL     OW 7297   0.252   3.206   7.725
 2254SOL    HW1 7298   0.157   3.205   7.710
 2254SOL    HW2 7299   0.262   3.238   7.814
 2255SOL     OW 7300   0.116   2.870   9.142
 2255SOL    HW1 7301   0.052   2.911   9.200
 2255SOL    HW2 7302   0.194   2.859   9.196
 2256SOL     OW 7303   0.674   2.061   8.947
 2256SOL    HW1 7304   0.757   2.039   8.906
 2256SOL    HW2 7305   0.697   2.089   9.035
 2257SOL     OW 7306   0.072   2.187   7.480
 2257SOL    HW1 7307   4.477   2.199   7.486
 2257SOL    HW2 7308   0.104   2.269   7.442
 2258SOL     OW 7309   1.431   2.721   8.849
 2258SOL    HW1 7310   1.382   2.781   8.793
 2258SOL    HW2 7311   1.520   2.723   8.814
 2259SOL     OW 7312   0.086   2.038   7.752
 2259SOL    HW1 7313   0.080   2.111   7.690
 2259SOL    HW2 7314   0.161   1.988   7.723
 2260SOL     OW 7315   1.179   3.202   7.565
 2260SOL    HW1 7316   1.088   3.172   7.567
 2260SOL    HW2 7317   1.207   3.202   7.656
 2261SOL     OW 7318   0.623   2.693   8.879
 2261SOL    HW1 7319   0.679   2.770   8.865
 2261SOL    HW2 7320   0.684   2.620   8.886
 2262SOL     OW 7321   1.484   3.638   8.426
 2262SOL    HW1 7322   1.507   3.697   8.355
 2262SOL    HW2 7323   1.567   3.620   8.471
 2263SOL     OW 7324   0.714   2.425   9.152
 2263SOL    HW1 7325   0.755   2.488   9.211
 2263SOL    HW2 7326   0.745   2.340   9.183
 2264SOL     OW 7327   1.471   3.063   9.080
 2264SOL    HW1 7328   1.458   3.076   9.174
 2264SOL    HW2 7329   1.564   3.077   9.066
 2265SOL     OW 7330   0.381   3.605   9.012
 2265SOL    HW1 7331   0.295   3.646   8.995
 2265SOL    HW2 7332   0.360   3.525   9.061
 2266SOL     OW 7333   1.671   2.744   8.703
 2266SOL    HW1 7334   1.662   2.658   8.662
 2266SOL    HW2 7335   1.660   2.806   8.631
 2267SOL     OW 7336   1.217   2.181   7.906
 2267SOL    HW1 7337   1.280   2.110   7.897
 2267SOL    HW2 7338   1.246   2.230   7.983
 2268SOL     OW 7339   0.590   2.600   8.117
 2268SOL    HW1 7340   0.628   2.686   8.101
 2268SOL    HW2 7341   0.522   2.592   8.051
 2269SOL     OW 7342   1.746   2.240   9.107
 2269SOL    HW1 7343   1.758   2.234   9.012
 2269SOL    HW2 7344   1.679   2.175   9.127
 2270SOL     OW 7345   1.745   2.795   8.960
 2270SOL    HW1 7346   1.741   2.890   8.973
 2270SOL    HW2 7347   1.730   2.783   8.866
 2271SOL     OW 7348   0.863   3.229   7.482
 2271SOL    HW1 7349   0.824   3.256   7.565
 2271SOL    HW2 7350   0.880   3.312   7.436
 2272SOL     OW 7351   0.661   3.654   8.394
 2272SOL    HW1 7352   0.640   3.744   8.370
 2272SOL    HW2 7353   0.756   3.648   8.385
 2273SOL     OW 7354   0.868   2.829   8.303
 2273SOL    HW1 7355   0.917   2.757   8.342
 2273SOL    HW2 7356   0.833   2.878   8.377
 2274SOL     OW 7357   1.079   2.851   7.537
 2274SOL    HW1 7358   1.058   2.901   7.458
 2274SOL    HW2 7359   1.154   2.797   7.511
 2275SOL     OW 7360   1.854   3.417   8.293
 2275SOL    HW1 7361   1.776   3.406   8.238
 2275SOL    HW2 7362   1.845   3.350   8.361
 2276SOL     OW 7363   0.230   3.168   9.306
 2276SOL    HW1 7364   0.157   3.110   9.283
 2276SOL    HW2 7365   0.224   3.178   9.401
 2277SOL     OW 7366   0.106   3.097   8.116
 2277SOL    HW1 7367   0.118   3.051   8.199
 2277SOL    HW2 7368   0.165   3.053   8.055
 2278SOL     OW 7369   0.682   3.265   9.076
 2278SOL    HW1 7370   0.602   3.221   9.104
 2278SOL    HW2 7371   0.676   3.353   9.114
 2279SOL     OW 7372   1.805   2.055   8.679
 2279SOL    HW1 7373   1.843   1.972   8.710
 2279SOL    HW2 7374   1.819   2.054   8.585
 2280SOL     OW 7375   0.435   2.295   7.973
 2280SOL    HW1 7376   0.460   2.222   7.917
 2280SOL    HW2 7377   0.384   2.256   8.044
 2281SOL     OW 7378   1.700   3.351   8.545
 2281SOL    HW1 7379   1.620   3.328   8.499
 2281SOL    HW2 7380   1.711   3.283   8.610
 2282SOL     OW 7381   0.300   2.349   8.701
 2282SOL    HW1 7382   0.375   2.309   8.746
 2282SOL    HW2 7383   0.331   2.365   8.612
 2283SOL     OW 7384   0.827   3.440   8.126
 2283SOL    HW1 7385   0.814   3.492   8.046
 2283SOL    HW2 7386   0.750   3.383   8.130
 2284SOL     OW 7387   1.432   2.087   8.565
 2284SOL    HW1 7388   1.466   2.011   8.613
 2284SOL    HW2 7389   1.380   2.135   8.629
 2285SOL     OW 7390   1.008   1.881   8.591
 2285SOL    HW1 7391   0.954   1.813   8.551
 2285SOL    HW2 7392   1.097   1.844   8.593
 2286SOL     OW 7393   0.772   3.194   7.761
 2286SOL    HW1 7394   0.740   3.104   7.768
 2286SOL    HW2 7395   0.854   3.195   7.811
 2287SOL     OW 7396   0.621   3.418   8.733
 2287SOL    HW1 7397   0.623   3.500   8.783
 2287SOL    HW2 7398   0.708   3.411   8.695
 2288SOL     OW 7399   1.352   1.915   7.613
 2288SOL    HW1 7400   1.380   1.852   7.547
 2288SOL    HW2 7401   1.265   1.886   7.640
 2289SOL     OW 7402   1.296   2.323   8.129
 2289SOL    HW1 7403   1.243   2.402   8.137
 2289SOL    HW2 7404   1.293   2.283   8.216
 2290SOL     OW 7405   1.589   2.063   8.326
 2290SOL    HW1 7406   1.528   2.082   8.398
 2290SOL    HW2 7407   1.587   2.141   8.271
 2291SOL     OW 7408   0.041   2.914   7.736
 2291SOL    HW1 7409   0.135   2.897   7.726
 2291SOL    HW2 7410   0.020   2.881   7.824
 2292SOL     OW 7411   0.885   3.515   7.790
 2292SOL    HW1 7412   0.812   3.497   7.731
 2292SOL    HW2 7413   0.855   3.589   7.842
 2293SOL     OW 7414   0.248   2.491   9.430
 2293SOL    HW1 7415   0.173   2.470   9.487
 2293SOL    HW2 7416   0.216   2.472   9.341
 2294SOL     OW 7417   0.214   2.137  10.301
 2294SOL    HW1 7418   0.249   2.111  10.386
 2294SOL    HW2 7419   0.137   2.081  10.289
 2295SOL     OW 7420   0.008   2.253   9.949
 2295SOL    HW1 7421   4.428   2.284   9.990
 2295SOL    HW2 7422   4.483   2.173   9.904
 2296SOL     OW 7423   0.568   3.149  10.486
 2296SOL    HW1 7424   0.481   3.153  10.446
 2296SOL    HW2 7425   0.583   3.237  10.520
 2297SOL     OW 7426   1.561   3.374  10.017
 2297SOL    HW1 7427   1.518   3.354  10.100
 2297SOL    HW2 7428   1.489   3.378   9.953
 2298SOL     OW 7429   1.130   2.560  10.011
 2298SOL    HW1 7430   1.179   2.641   9.997
 2298SOL    HW2 7431   1.083   2.575  10.094
 2299SOL     OW 7432   1.769   2.467   9.539
 2299SOL    HW1 7433   1.747   2.461   9.446
 2299SOL    HW2 7434   1.733   2.388   9.578
 2300SOL     OW 7435   0.757   3.005  10.351
 2300SOL    HW1 7436   0.687   3.040  10.407
 2300SOL    HW2 7437   0.791   3.082  10.306
 2301SOL     OW 7438   0.851   2.642   0.021
 2301SOL    HW1 7439   0.861   2.697   0.099
 2301SOL    HW2 7440   0.886   2.695  11.049
 2302SOL     OW 7441   0.685   2.866   9.957
 2302SOL    HW1 7442   0.750   2.853  10.027
 2302SOL    HW2 7443   0.616   2.917   9.999
 2303SOL     OW 7444   0.336   3.282  10.378
 2303SOL    HW1 7445   0.254   3.264  10.333
 2303SOL    HW2 7446   0.385   3.337  10.317
 2304SOL     OW 7447   1.464   3.361  10.659
 2304SOL    HW1 7448   1.519   3.439  10.668
 2304SOL    HW2 7449   1.408   3.362  10.738
 2305SOL     OW 7450   0.449   2.264  10.788
 2305SOL    HW1 7451   0.527   2.209  10.799
 2305SOL    HW2 7452   0.376   2.207  10.813
 2306SOL     OW 7453   1.610   2.309  10.052
 2306SOL    HW1 7454   1.535   2.332   9.997
 2306SOL    HW2 7455   1.629   2.389  10.101
 2307SOL     OW 7456   0.246   3.553   9.787
 2307SOL    HW1 7457   0.231   3.638   9.829
 2307SOL    HW2 7458   0.313   3.571   9.721
 2308SOL     OW 7459   0.249   3.288   9.838
 2308SOL    HW1 7460   0.240   3.384   9.840
 2308SOL    HW2 7461   0.185   3.256   9.901
 2309SOL     OW 7462   0.248   2.944  10.195
 2309SOL    HW1 7463   0.264   2.854  10.223
 2309SOL    HW2 7464   0.188   2.980  10.260
 2310SOL     OW 7465   0.612   3.652  10.739
 2310SOL    HW1 7466   0.531   3.632  10.787
 2310SOL    HW2 7467   0.634   3.742  10.764
 2311SOL     OW 7468   0.580   2.848   9.448
 2311SOL    HW1 7469   0.627   2.892   9.377
 2311SOL    HW2 7470   0.624   2.877   9.528
 2312SOL     OW 7471   1.588   1.980  10.780
 2312SOL    HW1 7472   1.603   2.058  10.728
 2312SOL    HW2 7473   1.601   2.008  10.870
 2313SOL     OW 7474   0.136   2.508   9.884
 2313SOL    HW1 7475   0.088   2.427   9.901
 2313SOL    HW2 7476   0.106   2.569   9.951
 2314SOL     OW 7477   1.842   3.621   9.645
 2314SOL    HW1 7478   1.905   3.593   9.711
 2314SOL    HW2 7479   1.867   3.712   9.626
 2315SOL     OW 7480   0.032   3.464   9.450
 2315SOL    HW1 7481   0.021   3.369   9.448
 2315SOL    HW2 7482   0.020   3.487   9.542
 2316SOL     OW 7483   1.691   2.781   9.951
 2316SOL    HW1 7484   1.772   2.736   9.928
 2316SOL    HW2 7485   1.668   2.831   9.872
 2317SOL     OW 7486   1.645   2.969   9.739
 2317SOL    HW1 7487   1.731   2.975   9.697
 2317SOL    HW2 7488   1.650   3.030   9.813
 2318SOL     OW 7489   0.103   2.622  10.912
 2318SOL    HW1 7490   0.193   2.607  10.882
 2318SOL    HW2 7491   0.091   2.717  10.908
 2319SOL     OW 7492   0.614   3.247  10.046
 2319SOL    HW1 7493   0.566   3.164  10.055
 2319SOL    HW2 7494   0.597   3.274   9.956
 2320SOL     OW 7495   1.294   3.099  10.752
 2320SOL    HW1 7496   1.320   3.038  10.682
 2320SOL    HW2 7497   1.350   3.075  10.826
 2321SOL     OW 7498   0.816   1.861   9.818
 2321SOL    HW1 7499   0.856   1.946   9.800
 2321SOL    HW2 7500   0.722   1.880   9.827
 2322SOL     OW 7501   0.178   2.802  10.590
 2322SOL    HW1 7502   0.270   2.784  10.570
 2322SOL    HW2 7503   0.132   2.786  10.507
 2323SOL     OW 7504   1.532   2.855   9.508
 2323SOL    HW1 7505   1.462   2.798   9.539
 2323SOL    HW2 7506   1.572   2.889   9.588
 2324SOL     OW 7507   1.196   3.668  10.927
 2324SOL    HW1 7508   1.195   3.732  10.855
 2324SOL    HW2 7509   1.205   3.583  10.884
 2325SOL     OW 7510   0.340   2.126   0.005
 2325SOL    HW1 7511   0.387   2.200   0.045
 2325SOL    HW2 7512   0.247   2.147   0.018
 2326SOL     OW 7513   1.467   3.281  10.262
 2326SOL    HW1 7514   1.398   3.297  10.326
 2326SOL    HW2 7515   1.454   3.190  10.234
 2327SOL     OW 7516   1.660   3.600   9.888
 2327SOL    HW1 7517   1.638   3.571   9.799
 2327SOL    HW2 7518   1.634   3.527   9.944
 2328SOL     OW 7519   0.598   2.583   9.576
 2328SOL    HW1 7520   0.600   2.664   9.525
 2328SOL    HW2 7521   0.532   2.599   9.644
 2329SOL     OW 7522   1.279   2.215  10.243
 2329SOL    HW1 7523   1.190   2.181  10.251
 2329SOL    HW2 7524   1.330   2.161  10.303
 2330SOL     OW 7525   1.581   3.532   9.619
 2330SOL    HW1 7526   1.671   3.564   9.612
 2330SOL    HW2 7527   1.554   3.515   9.529
 2331SOL     OW 7528   0.794   2.477  10.762
 2331SOL    HW1 7529   0.767   2.454  10.850
 2331SOL    HW2 7530   0.753   2.412  10.705
 2332SOL     OW 7531   0.966   2.761  10.902
 2332SOL    HW1 7532   1.014   2.689  10.862
 2332SOL    HW2 7533   0.916   2.799  10.829
 2333SOL     OW 7534   0.992   2.275  10.549
 2333SOL    HW1 7535   0.907   2.297  10.586
 2333SOL    HW2 7536   0.973   2.228  10.468
 2334SOL     OW 7537   1.051   2.561   9.736
 2334SOL    HW1 7538   1.066   2.553   9.830
 2334SOL    HW2 7539   0.969   2.514   9.722
 2335SOL     OW 7540   0.096   2.690  10.094
 2335SOL    HW1 7541   0.183   2.672  10.131
 2335SOL    HW2 7542   0.044   2.717  10.169
 2336SOL     OW 7543   0.119   3.711  10.899
 2336SOL    HW1 7544   0.114   3.651  10.974
 2336SOL    HW2 7545   0.051   3.680  10.839
 2337SOL     OW 7546   0.892   2.210   9.504
 2337SOL    HW1 7547   0.933   2.272   9.443
 2337SOL    HW2 7548   0.908   2.124   9.466
 2338SOL     OW 7549   1.377   3.004   9.852
 2338SOL    HW1 7550   1.455   2.991   9.798
 2338SOL    HW2 7551   1.324   3.066   9.801
 2339SOL     OW 7552   0.552   2.044  10.203
 2339SOL    HW1 7553   0.553   2.074  10.294
 2339SOL    HW2 7554   0.552   2.124  10.151
 2340SOL     OW 7555   1.006   3.307   9.783
 2340SOL    HW1 7556   0.968   3.379   9.733
 2340SOL    HW2 7557   0.988   3.328   9.874
 2341SOL     OW 7558   0.355   3.672  10.168
 2341SOL    HW1 7559   0.398   3.587  10.179
 2341SOL    HW2 7560   0.425   3.736  10.184
 2342SOL     OW 7561   1.800   2.919  10.177
 2342SOL    HW1 7562   1.745   2.900  10.101
 2342SOL    HW2 7563   1.738   2.925  10.250
 2343SOL     OW 7564   1.229   3.400  10.823
 2343SOL    HW1 7565   1.236   3.312  10.861
 2343SOL    HW2 7566   1.165   3.390  10.752
 2344SOL     OW 7567   0.316   2.816   9.563
 2344SOL    HW1 7568   0.400   2.839   9.523
 2344SOL    HW2 7569   0.300   2.726   9.536
 2345SOL     OW 7570   1.478   2.604  10.037
 2345SOL    HW1 7571   1.468   2.560  10.122
 2345SOL    HW2 7572   1.556   2.659  10.048
 2346SOL     OW 7573   0.455   3.130  11.052
 2346SOL    HW1 7574   0.426   3.142  10.961
 2346SOL    HW2 7575   0.388   3.074  11.091
 2347SOL     OW 7576   1.121   3.640   9.541
 2347SOL    HW1 7577   1.049   3.598   9.587
 2347SOL    HW2 7578   1.144   3.578   9.471
 2348SOL     OW 7579   0.193   2.139  10.797
 2348SOL    HW1 7580   0.139   2.217  10.804
 2348SOL    HW2 7581   0.188   2.097  10.882
 2349SOL     OW 7582   1.629   3.242   9.397
 2349SOL    HW1 7583   1.587   3.327   9.382
 2349SOL    HW2 7584   1.560   3.178   9.379
 2350SOL     OW 7585   0.469   3.606   9.623
 2350SOL    HW1 7586   0.511   3.659   9.691
 2350SOL    HW2 7587   0.542   3.571   9.572
 2351SOL     OW 7588   1.401   1.969   9.742
 2351SOL    HW1 7589   1.390   1.945   9.651
 2351SOL    HW2 7590   1.495   1.977   9.755
 2352SOL     OW 7591   0.257   3.654  10.544
 2352SOL    HW1 7592   0.304   3.581  10.583
 2352SOL    HW2 7593   0.227   3.621  10.459
 2353SOL     OW 7594   0.938   3.560  10.209
 2353SOL    HW1 7595   1.016   3.509  10.229
 2353SOL    HW2 7596   0.894   3.511  10.140
 2354SOL     OW 7597   0.394   2.557   9.783
 2354SOL    HW1 7598   0.418   2.465   9.794
 2354SOL    HW2 7599   0.302   2.561   9.809
 2355SOL     OW 7600   0.634   1.987   9.413
 2355SOL    HW1 7601   0.703   1.922   9.429
 2355SOL    HW2 7602   0.586   1.953   9.338
 2356SOL     OW 7603   0.769   2.136  11.046
 2356SOL    HW1 7604   0.834   2.078  11.087
 2356SOL    HW2 7605   0.708   2.157   0.016
 2357SOL     OW 7606   0.876   3.384  10.503
 2357SOL    HW1 7607   0.860   3.348  10.416
 2357SOL    HW2 7608   0.948   3.331  10.538
 2358SOL     OW 7609   1.343   2.452  10.754
 2358SOL    HW1 7610   1.395   2.431  10.831
 2358SOL    HW2 7611   1.370   2.540  10.730
 2359SOL     OW 7612   0.815   3.257  10.249
 2359SOL    HW1 7613   0.899   3.246  10.204
 2359SOL    HW2 7614   0.750   3.258  10.179
 2360SOL     OW 7615   0.927   2.371  10.214
 2360SOL    HW1 7616   0.904   2.363  10.121
 2360SOL    HW2 7617   0.959   2.284  10.238
 2361SOL     OW 7618   0.552   1.924   9.811
 2361SOL    HW1 7619   0.471   1.922   9.863
 2361SOL    HW2 7620   0.545   2.002   9.757
 2362SOL     OW 7621   1.428   3.060   9.351
 2362SOL    HW1 7622   1.459   2.984   9.401
 2362SOL    HW2 7623   1.342   3.081   9.388
 2363SOL     OW 7624   0.295   1.908   9.488
 2363SOL    HW1 7625   0.358   1.975   9.461
 2363SOL    HW2 7626   0.348   1.842   9.533
 2364SOL     OW 7627   0.938   2.108   9.771
 2364SOL    HW1 7628   0.911   2.150   9.689
 2364SOL    HW2 7629   1.033   2.122   9.775
 2365SOL     OW 7630   1.079   2.547  10.771
 2365SOL    HW1 7631   1.008   2.483  10.775
 2365SOL    HW2 7632   1.159   2.495  10.769
 2366SOL     OW 7633   1.224   3.432  10.104
 2366SOL    HW1 7634   1.240   3.499  10.037
 2366SOL    HW2 7635   1.292   3.446  10.170
 2367SOL     OW 7636   0.466   3.011  10.046
 2367SOL    HW1 7637   0.396   2.992  10.107
 2367SOL    HW2 7638   0.428   2.996   9.960
 2368SOL     OW 7639   1.269   3.656   9.918
 2368SOL    HW1 7640   1.315   3.717   9.860
 2368SOL    HW2 7641   1.203   3.709   9.962
 2369SOL     OW 7642   1.023   2.404   9.332
 2369SOL    HW1 7643   0.981   2.488   9.312
 2369SOL    HW2 7644   1.089   2.426   9.399
 2370SOL     OW 7645   0.075   2.390  10.716
 2370SOL    HW1 7646   0.146   2.389  10.653
 2370SOL    HW2 7647   0.070   2.481  10.746
 2371SOL     OW 7648   0.560   2.090  10.476
 2371SOL    HW1 7649   0.602   2.011  10.512
 2371SOL    HW2 7650   0.469   2.083  10.503
 2372SOL     OW 7651   0.869   2.321   9.950
 2372SOL    HW1 7652   0.822   2.375   9.886
 2372SOL    HW2 7653   0.889   2.241   9.903
 2373SOL     OW 7654   1.015   1.916  10.062
 2373SOL    HW1 7655   0.957   1.908   9.986
 2373SOL    HW2 7656   0.993   1.840  10.116
 2374SOL     OW 7657   1.436   3.025  10.167
 2374SOL    HW1 7658   1.368   2.958  10.166
 2374SOL    HW2 7659   1.460   3.036  10.075
 2375SOL     OW 7660   1.465   2.468  10.288
 2375SOL    HW1 7661   1.416   2.386  10.289
 2375SOL    HW2 7662   1.525   2.462  10.362
 2376SOL     OW 7663   1.847   2.678   9.693
 2376SOL    HW1 7664   1.901   2.625   9.752
 2376SOL    HW2 7665   1.818   2.617   9.625
 2377SOL     OW 7666   0.492   3.279   9.470
 2377SOL    HW1 7667   0.415   3.250   9.519
 2377SOL    HW2 7668   0.474   3.252   9.379
 2378SOL     OW 7669   1.670   3.127   9.956
 2378SOL    HW1 7670   1.764   3.131   9.969
 2378SOL    HW2 7671   1.639   3.215   9.977
 2379SOL     OW 7672   1.394   2.434   9.382
 2379SOL    HW1 7673   1.333   2.415   9.453
 2379SOL    HW2 7674   1.478   2.399   9.413
 2380SOL     OW 7675   0.524   2.122   9.627
 2380SOL    HW1 7676   0.570   2.076   9.557
 2380SOL    HW2 7677   0.505   2.208   9.590
 2381SOL     OW 7678   1.759   3.092  10.866
 2381SOL    HW1 7679   1.850   3.062  10.873
 2381SOL    HW2 7680   1.760   3.179  10.908
 2382SOL     OW 7681   1.063   3.216  10.649
 2382SOL    HW1 7682   0.985   3.183  10.694
 2382SOL    HW2 7683   1.136   3.168  10.690
 2383SOL     OW 7684   1.129   3.068  10.416
 2383SOL    HW1 7685   1.064   3.102  10.477
 2383SOL    HW2 7686   1.098   3.097  10.330
 2384SOL     OW 7687   1.630   2.962  10.387
 2384SOL    HW1 7688   1.626   3.023  10.461
 2384SOL    HW2 7689   1.550   2.978  10.338
 2385SOL     OW 7690   0.918   1.961  10.706
 2385SOL    HW1 7691   0.941   1.941  10.615
 2385SOL    HW2 7692   0.996   2.002  10.743
 2386SOL     OW 7693   0.709   2.923   9.682
 2386SOL    HW1 7694   0.695   2.907   9.775
 2386SOL    HW2 7695   0.784   2.870   9.659
 2387SOL     OW 7696   0.429   2.686  10.552
 2387SOL    HW1 7697   0.498   2.696  10.618
 2387SOL    HW2 7698   0.369   2.622  10.590
 2388SOL     OW 7699   1.266   2.241  10.588
 2388SOL    HW1 7700   1.298   2.318  10.633
 2388SOL    HW2 7701   1.177   2.263  10.562
 2389SOL     OW 7702   0.063   3.440  10.656
 2389SOL    HW1 7703   0.039   3.527  10.624
 2389SOL    HW2 7704   0.159   3.442  10.658
 2390SOL     OW 7705   0.347   2.970   9.803
 2390SOL    HW1 7706   0.356   3.044   9.742
 2390SOL    HW2 7707   0.347   2.893   9.747
 2391SOL     OW 7708   0.561   2.395  10.165
 2391SOL    HW1 7709   0.574   2.455  10.092
 2391SOL    HW2 7710   0.622   2.426  10.233
 2392SOL     OW 7711   1.248   3.210   9.699
 2392SOL    HW1 7712   1.304   3.282   9.730
 2392SOL    HW2 7713   1.161   3.231   9.733
 2393SOL     OW 7714   1.279   3.321  10.455
 2393SOL    HW1 7715   1.336   3.323  10.532
 2393SOL    HW2 7716   1.226   3.242  10.467
 2394SOL     OW 7717   1.581   2.485   9.788
 2394SOL    HW1 7718   1.534   2.539   9.852
 2394SOL    HW2 7719   1.628   2.547   9.733
 2395SOL     OW 7720   0.346   3.391  10.624
 2395SOL    HW1 7721   0.333   3.344  10.541
 2395SOL    HW2 7722   0.440   3.403  10.631
 2396SOL     OW 7723   0.484   2.607  10.968
 2396SOL    HW1 7724   0.520   2.644  10.888
 2396SOL    HW2 7725   0.526   2.521  10.976
 2397SOL     OW 7726   1.593   2.622  10.967
 2397SOL    HW1 7727   1.517   2.680  10.962
 2397SOL    HW2 7728   1.664   2.672  10.926
 2398SOL     OW 7729   0.590   2.735  10.335
 2398SOL    HW1 7730   0.617   2.827  10.337
 2398SOL    HW2 7731   0.532   2.726  10.411
 2399SOL     OW 7732   1.358   2.723  10.344
 2399SOL    HW1 7733   1.276   2.714  10.295
 2399SOL    HW2 7734   1.399   2.637  10.338
 2400SOL     OW 7735   1.205   2.391   9.577
 2400SOL    HW1 7736   1.213   2.312   9.631
 2400SOL    HW2 7737   1.162   2.455   9.634
 2401SOL     OW 7738   0.301   2.053  10.551
 2401SOL    HW1 7739   0.264   2.088  10.632
 2401SOL    HW2 7740   0.283   1.959  10.555
 2402SOL     OW 7741   0.041   3.177  10.595
 2402SOL    HW1 7742   0.075   3.128  10.670
 2402SOL    HW2 7743   0.044   3.268  10.623
 2403SOL     OW 7744   0.725   2.494  10.369
 2403SOL    HW1 7745   0.799   2.476  10.310
 2403SOL    HW2 7746   0.698   2.582  10.345
 2404SOL     OW 7747   0.311   1.932   9.929
 2404SOL    HW1 7748   0.287   2.021   9.956
 2404SOL    HW2 7749   0.308   1.881  10.010
 2405SOL     OW 7750   1.615   2.235   9.678
 2405SOL    HW1 7751   1.644   2.173   9.744
 2405SOL    HW2 7752   1.593   2.314   9.727
 2406SOL     OW 7753   1.027   2.621  10.271
 2406SOL    HW1 7754   1.025   2.639  10.365
 2406SOL    HW2 7755   1.001   2.529  10.262
 2407SOL     OW 7756   0.974   3.435  11.004
 2407SOL    HW1 7757   0.960   3.484  10.923
 2407SOL    HW2 7758   1.003   3.348  10.974
 2408SOL     OW 7759   1.856   3.356  10.912
 2408SOL    HW1 7760   1.873   3.391  10.824
 2408SOL    HW2 7761   1.923   3.397  10.967
 2409SOL     OW 7762   0.349   2.796  11.093
 2409SOL    HW1 7763   0.422   2.825   0.048
 2409SOL    HW2 7764   0.384   2.723  11.042
 2410SOL     OW 7765   1.529   2.136   9.438
 2410SOL    HW1 7766   1.464   2.070   9.464
 2410SOL    HW2 7767   1.562   2.171   9.520
 2411SOL     OW 7768   1.292   2.688   9.342
 2411SOL    HW1 7769   1.335   2.603   9.345
 2411SOL    HW2 7770   1.323   2.727   9.260
 2412SOL     OW 7771   1.066   3.197  10.164
 2412SOL    HW1 7772   1.069   3.125  10.101
 2412SOL    HW2 7773   1.127   3.262  10.129
 2413SOL     OW 7774   0.318   2.673  10.258
 2413SOL    HW1 7775   0.412   2.690  10.254
 2413SOL    HW2 7776   0.310   2.582  10.286
 2414SOL     OW 7777   0.331   2.387  10.300
 2414SOL    HW1 7778   0.293   2.301  10.286
 2414SOL    HW2 7779   0.409   2.388  10.245
 2415SOL     OW 7780   1.156   2.070  10.782
 2415SOL    HW1 7781   1.170   2.126  10.858
 2415SOL    HW2 7782   1.197   2.118  10.710
 2416SOL     OW 7783   4.491   3.184   9.515
 2416SOL    HW1 7784   4.399   3.200   9.497
 2416SOL    HW2 7785   4.496   3.091   9.537
 2417SOL     OW 7786   0.097   3.638  10.250
 2417SOL    HW1 7787   0.059   3.584  10.180
 2417SOL    HW2 7788   0.184   3.660  10.218
 2418SOL     OW 7789   0.497   3.436  10.217
 2418SOL    HW1 7790   0.565   3.499  10.240
 2418SOL    HW2 7791   0.541   3.373  10.160
 2419SOL     OW 7792   0.984   2.656  10.537
 2419SOL    HW1 7793   1.038   2.634  10.612
 2419SOL    HW2 7794   0.898   2.618  10.557
 2420SOL     OW 7795   0.033   2.422  10.412
 2420SOL    HW1 7796   0.119   2.392  10.384
 2420SOL    HW2 7797   0.022   2.387  10.500
 2421SOL     OW 7798   0.817   2.431   9.669
 2421SOL    HW1 7799   0.820   2.356   9.609
 2421SOL    HW2 7800   0.743   2.483   9.638
 2422SOL     OW 7801   1.644   2.465  10.495
 2422SOL    HW1 7802   1.637   2.404  10.569
 2422SOL    HW2 7803   1.732   2.449  10.460
 2423SOL     OW 7804   0.263   3.436  11.055
 2423SOL    HW1 7805   0.210   3.461   0.031
 2423SOL    HW2 7806   0.245   3.342  11.043
 2424SOL     OW 7807   0.697   2.315  10.571
 2424SOL    HW1 7808   0.647   2.239  10.540
 2424SOL    HW2 7809   0.695   2.377  10.498
 2425SOL     OW 7810   0.940   3.544  10.758
 2425SOL    HW1 7811   0.903   3.510  10.676
 2425SOL    HW2 7812   0.924   3.639  10.754
 2426SOL     OW 7813   0.472   2.352   9.495
 2426SOL    HW1 7814   0.531   2.423   9.519
 2426SOL    HW2 7815   0.388   2.395   9.480
 2427SOL     OW 7816   0.163   3.004  10.769
 2427SOL    HW1 7817   0.138   2.964  10.852
 2427SOL    HW2 7818   0.168   2.931  10.707
 2428SOL     OW 7819   1.325   2.915  10.538
 2428SOL    HW1 7820   1.351   2.849  10.473
 2428SOL    HW2 7821   1.255   2.964  10.495
 2429SOL     OW 7822   1.311   2.719   9.617
 2429SOL    HW1 7823   1.235   2.688   9.666
 2429SOL    HW2 7824   1.286   2.705   9.525
 2430SOL     OW 7825   1.772   3.607  10.461
 2430SOL    HW1 7826   1.832   3.632  10.390
 2430SOL    HW2 7827   1.748   3.517  10.440
 2431SOL     OW 7828   1.241   3.596  10.423
 2431SOL    HW1 7829   1.323   3.617  10.379
 2431SOL    HW2 7830   1.246   3.502  10.441
 2432SOL     OW 7831   0.067   3.047  10.360
 2432SOL    HW1 7832   0.067   3.080  10.450
 2432SOL    HW2 7833   0.021   3.115  10.309
 2433SOL     OW 7834   1.720   2.007   9.821
 2433SOL    HW1 7835   1.791   1.992   9.759
 2433SOL    HW2 7836   1.703   1.921   9.860
 2434SOL     OW 7837   1.391   3.430   9.795
 2434SOL    HW1 7838   1.451   3.462   9.728
 2434SOL    HW2 7839   1.342   3.507   9.823
 2435SOL     OW 7840   1.277   2.788   9.981
 2435SOL    HW1 7841   1.351   2.726   9.988
 2435SOL    HW2 7842   1.311   2.860   9.929
 2436SOL     OW 7843   0.818   3.136  10.738
 2436SOL    HW1 7844   0.788   3.170  10.822
 2436SOL    HW2 7845   0.748   3.157  10.676
 2437SOL     OW 7846   0.672   3.481   9.465
 2437SOL    HW1 7847   0.682   3.493   9.371
 2437SOL    HW2 7848   0.618   3.403   9.474
 2438SOL     OW 7849   1.622   3.582  10.696
 2438SOL    HW1 7850   1.677   3.596  10.619
 2438SOL    HW2 7851   1.608   3.670  10.731
 2439SOL     OW 7852   1.844   2.045  10.279
 2439SOL    HW1 7853   1.879   1.959  10.254
 2439SOL    HW2 7854   1.758   2.049  10.236
 2440SOL     OW 7855   0.265   2.182  10.029
 2440SOL    HW1 7856   0.182   2.221  10.001
 2440SOL    HW2 7857   0.255   2.169  10.123
 2441SOL     OW 7858   1.207   3.468   9.341
 2441SOL    HW1 7859   1.198   3.377   9.369
 2441SOL    HW2 7860   1.142   3.480   9.272
 2442SOL     OW 7861   0.826   2.868  10.686
 2442SOL    HW1 7862   0.868   2.862  10.600
 2442SOL    HW2 7863   0.826   2.962  10.705
 2443SOL     OW 7864   0.916   2.773   9.600
 2443SOL    HW1 7865   0.977   2.805   9.533
 2443SOL    HW2 7866   0.963   2.703   9.645
 2444SOL     OW 7867   1.492   3.487   9.353
 2444SOL    HW1 7868   1.397   3.481   9.339
 2444SOL    HW2 7869   1.528   3.493   9.264
 2445SOL     OW 7870   0.368   3.174  10.806
 2445SOL    HW1 7871   0.354   3.248  10.747
 2445SOL    HW2 7872   0.297   3.114  10.785
 2446SOL     OW 7873   1.614   3.144  10.593
 2446SOL    HW1 7874   1.669   3.130  10.671
 2446SOL    HW2 7875   1.556   3.216  10.618
 2447SOL     OW 7876   1.052   2.969  10.016
 2447SOL    HW1 7877   0.981   2.918  10.055
 2447SOL    HW2 7878   1.114   2.903   9.984
 2448SOL     OW 7879   1.021   2.102  10.277
 2448SOL    HW1 7880   1.016   2.055  10.194
 2448SOL    HW2 7881   1.016   2.034  10.344
 2449SOL     OW 7882   0.604   3.352   9.793
 2449SOL    HW1 7883   0.646   3.302   9.722
 2449SOL    HW2 7884   0.530   3.394   9.751
 2450SOL     OW 7885   1.719   2.257  10.690
 2450SOL    HW1 7886   1.794   2.317  10.694
 2450SOL    HW2 7887   1.750   2.185  10.636
 2451SOL     OW 7888   0.252   3.206   9.587
 2451SOL    HW1 7889   0.157   3.205   9.572
 2451SOL    HW2 7890   0.263   3.238   9.676
 2452SOL     OW 7891   0.110   2.882  11.003
 2452SOL    HW1 7892   0.052   2.885  11.079
 2452SOL    HW2 7893   0.197   2.862  11.039
 2453SOL     OW 7894   0.674   2.059  10.803
 2453SOL    HW1 7895   0.756   2.036  10.758
 2453SOL    HW2 7896   0.702   2.092  10.888
 2454SOL     OW 7897   0.072   2.187   9.342
 2454SOL    HW1 7898   4.477   2.199   9.348
 2454SOL    HW2 7899   0.104   2.269   9.304
 2455SOL     OW 7900   1.429   2.711  10.709
 2455SOL    HW1 7901   1.382   2.780  10.662
 2455SOL    HW2 7902   1.520   2.720  10.680
 2456SOL     OW 7903   0.086   2.038   9.614
 2456SOL    HW1 7904   0.079   2.111   9.552
 2456SOL    HW2 7905   0.162   1.988   9.585
 2457SOL     OW 7906   1.179   3.202   9.427
 2457SOL    HW1 7907   1.088   3.172   9.429
 2457SOL    HW2 7908   1.207   3.201   9.518
 2458SOL     OW 7909   0.624   2.691  10.740
 2458SOL    HW1 7910   0.679   2.768  10.727
 2458SOL    HW2 7911   0.686   2.618  10.747
 2459SOL     OW 7912   1.484   3.638  10.288
 2459SOL    HW1 7913   1.508   3.698  10.217
 2459SOL    HW2 7914   1.566   3.620  10.334
 2460SOL     OW 7915   0.715   2.426  11.014
 2460SOL    HW1 7916   0.749   2.499  11.067
 2460SOL    HW2 7917   0.766   2.350  11.043
 2461SOL     OW 7918   0.383   3.600  10.873
 2461SOL    HW1 7919   0.306   3.656  10.865
 2461SOL    HW2 7920   0.356   3.530  10.932
 2462SOL     OW 7921   1.672   2.745  10.567
 2462SOL    HW1 7922   1.662   2.659  10.525
 2462SOL    HW2 7923   1.662   2.808  10.495
 2463SOL     OW 7924   1.217   2.181   9.768
 2463SOL    HW1 7925   1.280   2.110   9.759
 2463SOL    HW2 7926   1.246   2.230   9.845
 2464SOL     OW 7927   0.590   2.600   9.979
 2464SOL    HW1 7928   0.628   2.687   9.963
 2464SOL    HW2 7929   0.522   2.592   9.913
 2465SOL     OW 7930   1.749   2.178  10.958
 2465SOL    HW1 7931   1.736   2.216  10.872
 2465SOL    HW2 7932   1.669   2.201  11.006
 2466SOL     OW 7933   1.747   2.800  10.826
 2466SOL    HW1 7934   1.740   2.895  10.838
 2466SOL    HW2 7935   1.731   2.787  10.732
 2467SOL     OW 7936   0.864   3.229   9.344
 2467SOL    HW1 7937   0.824   3.256   9.427
 2467SOL    HW2 7938   0.880   3.312   9.298
 2468SOL     OW 7939   0.661   3.654  10.256
 2468SOL    HW1 7940   0.639   3.744  10.232
 2468SOL    HW2 7941   0.756   3.648  10.246
 2469SOL     OW 7942   0.868   2.829  10.165
 2469SOL    HW1 7943   0.917   2.757  10.204
 2469SOL    HW2 7944   0.833   2.878  10.240
 2470SOL     OW 7945   1.079   2.851   9.399
 2470SOL    HW1 7946   1.057   2.901   9.320
 2470SOL    HW2 7947   1.154   2.797   9.373
 2471SOL     OW 7948   1.855   3.416  10.154
 2471SOL    HW1 7949   1.776   3.405  10.100
 2471SOL    HW2 7950   1.845   3.351  10.224
 2472SOL     OW 7951   0.106   3.098   9.978
 2472SOL    HW1 7952   0.118   3.051  10.061
 2472SOL    HW2 7953   0.165   3.053   9.917
 2473SOL     OW 7954   0.680   3.258  10.939
 2473SOL    HW1 7955   0.608   3.206  10.976
 2473SOL    HW2 7956   0.645   3.346  10.932
 2474SOL     OW 7957   1.814   2.051  10.547
 2474SOL    HW1 7958   1.831   1.958  10.564
 2474SOL    HW2 7959   1.827   2.061  10.453
 2475SOL     OW 7960   0.435   2.295   9.835
 2475SOL    HW1 7961   0.460   2.222   9.779
 2475SOL    HW2 7962   0.384   2.256   9.906
 2476SOL     OW 7963   1.702   3.352  10.406
 2476SOL    HW1 7964   1.620   3.327  10.362
 2476SOL    HW2 7965   1.714   3.284  10.472
 2477SOL     OW 7966   0.298   2.351  10.565
 2477SOL    HW1 7967   0.370   2.311  10.614
 2477SOL    HW2 7968   0.333   2.364  10.477
 2478SOL     OW 7969   0.827   3.440   9.988
 2478SOL    HW1 7970   0.815   3.492   9.909
 2478SOL    HW2 7971   0.750   3.383   9.991
 2479SOL     OW 7972   1.432   2.087  10.428
 2479SOL    HW1 7973   1.461   2.008  10.474
 2479SOL    HW2 7974   1.380   2.135  10.493
 2480SOL     OW 7975   1.008   1.881  10.453
 2480SOL    HW1 7976   0.954   1.814  10.412
 2480SOL    HW2 7977   1.096   1.843  10.455
 2481SOL     OW 7978   0.772   3.195   9.623
 2481SOL    HW1 7979   0.740   3.104   9.630
 2481SOL    HW2 7980   0.854   3.195   9.673
 2482SOL     OW 7981   0.620   3.417  10.597
 2482SOL    HW1 7982   0.621   3.500  10.644
 2482SOL    HW2 7983   0.707   3.412  10.557
 2483SOL     OW 7984   1.352   1.915   9.475
 2483SOL    HW1 7985   1.380   1.853   9.408
 2483SOL    HW2 7986   1.265   1.885   9.502
 2484SOL     OW 7987   1.296   2.323   9.991
 2484SOL    HW1 7988   1.243   2.402   9.999
 2484SOL    HW2 7989   1.293   2.283  10.078
 2485SOL     OW 7990   1.587   2.062  10.187
 2485SOL    HW1 7991   1.527   2.083  10.259
 2485SOL    HW2 7992   1.587   2.141  10.133
 2486SOL     OW 7993   0.041   2.914   9.598
 2486SOL    HW1 7994   0.135   2.897   9.588
 2486SOL    HW2 7995   0.020   2.881   9.686
 2487SOL     OW 7996   0.884   3.515   9.652
 2487SOL    HW1 7997   0.812   3.497   9.592
 2487SOL    HW2 7998   0.855   3.589   9.704
 2488SOL     OW 7999   0.205   4.282   0.085
 2488SOL    HW1 8000   0.151   4.311   0.159
 2488SOL    HW2 8001   0.229   4.363   0.040
 2489SOL     OW 8002   0.209   3.995   0.991
 2489SOL    HW1 8003   0.245   3.968   1.076
 2489SOL    HW2 8004   0.134   3.937   0.977
 2490SOL     OW 8005   4.499   4.101   0.629
 2490SOL    HW1 8006   4.418   4.127   0.672
 2490SOL    HW2 8007   4.480   4.015   0.592
 2491SOL     OW 8008   1.731   4.332   0.230
 2491SOL    HW1 8009   1.750   4.307   0.140
 2491SOL    HW2 8010   1.725   4.249   0.277
 2492SOL     OW 8011   0.735   0.270   0.685
 2492SOL    HW1 8012   0.721   0.204   0.753
 2492SOL    HW2 8013   0.647   0.289   0.653
 2493SOL     OW 8014   0.445   4.120   1.488
 2493SOL    HW1 8015   0.526   4.069   1.490
 2493SOL    HW2 8016   0.376   4.055   1.498
 2494SOL     OW 8017   1.615   4.172   0.741
 2494SOL    HW1 8018   1.548   4.197   0.678
 2494SOL    HW2 8019   1.615   4.242   0.806
 2495SOL     OW 8020   1.597   3.847   1.469
 2495SOL    HW1 8021   1.601   3.927   1.417
 2495SOL    HW2 8022   1.582   3.877   1.558
 2496SOL     OW 8023   0.164   4.320   0.633
 2496SOL    HW1 8024   0.102   4.248   0.620
 2496SOL    HW2 8025   0.117   4.397   0.602
 2497SOL     OW 8026   0.122   0.002   1.588
 2497SOL    HW1 8027   0.216   4.485   1.587
 2497SOL    HW2 8028   0.113   0.088   1.547
 2498SOL     OW 8029   0.816   3.726   0.508
 2498SOL    HW1 8030   0.854   3.812   0.492
 2498SOL    HW2 8031   0.722   3.742   0.517
 2499SOL     OW 8032   0.329   3.979   1.799
 2499SOL    HW1 8033   0.374   4.058   1.830
 2499SOL    HW2 8034   0.240   3.987   1.833
 2500SOL     OW 8035   1.277   4.073   0.933
 2500SOL    HW1 8036   1.188   4.040   0.943
 2500SOL    HW2 8037   1.329   4.021   0.994
 2501SOL     OW 8038   0.827   4.305   1.447
 2501SOL    HW1 8039   0.788   4.309   1.534
 2501SOL    HW2 8040   0.759   4.266   1.392
 2502SOL     OW 8041   1.395   4.199   1.676
 2502SOL    HW1 8042   1.398   4.244   1.761
 2502SOL    HW2 8043   1.454   4.124   1.687
 2503SOL     OW 8044   0.998   4.151   1.233
 2503SOL    HW1 8045   0.926   4.171   1.293
 2503SOL    HW2 8046   0.959   4.091   1.169
 2504SOL     OW 8047   1.060   4.403   0.422
 2504SOL    HW1 8048   1.056   4.458   0.501
 2504SOL    HW2 8049   0.968   4.382   0.403
 2505SOL     OW 8050   0.052   0.053   0.846
 2505SOL    HW1 8051   0.143   0.024   0.857
 2505SOL    HW2 8052   0.053   0.106   0.767
 2506SOL     OW 8053   0.887   4.073   0.210
 2506SOL    HW1 8054   0.932   4.131   0.148
 2506SOL    HW2 8055   0.901   3.985   0.174
 2507SOL     OW 8056   1.708   4.298   1.829
 2507SOL    HW1 8057   1.721   4.387   1.795
 2507SOL    HW2 8058   1.730   4.241   1.756
 2508SOL     OW 8059   0.552   3.905   0.893
 2508SOL    HW1 8060   0.554   3.935   0.984
 2508SOL    HW2 8061   0.548   3.985   0.841
 2509SOL     OW 8062   1.488   4.464   0.739
 2509SOL    HW1 8063   1.472   4.410   0.816
 2509SOL    HW2 8064   1.529   0.043   0.774
 2510SOL     OW 8065   0.189   4.001   1.485
 2510SOL    HW1 8066   0.139   4.081   1.495
 2510SOL    HW2 8067   0.183   3.958   1.571
 2511SOL     OW 8068   1.402   3.830   0.431
 2511SOL    HW1 8069   1.393   3.808   0.338
 2511SOL    HW2 8070   1.496   3.840   0.445
 2512SOL     OW 8071   0.348   4.377   0.403
 2512SOL    HW1 8072   0.394   4.304   0.445
 2512SOL    HW2 8073   0.299   4.418   0.474
 2513SOL     OW 8074   1.535   3.950   1.725
 2513SOL    HW1 8075   1.544   3.971   1.818
 2513SOL    HW2 8076   1.467   3.882   1.722
 2514SOL     OW 8077   0.617   3.833   0.122
 2514SOL    HW1 8078   0.705   3.797   0.121
 2514SOL    HW2 8079   0.581   3.812   0.036
 2515SOL     OW 8080   0.766   4.002   1.755
 2515SOL    HW1 8081   0.842   3.944   1.754
 2515SOL    HW2 8082   0.717   3.977   1.833
 2516SOL     OW 8083   1.343   4.312   1.429
 2516SOL    HW1 8084   1.365   4.275   1.515
 2516SOL    HW2 8085   1.386   4.397   1.428
 2517SOL     OW 8086   0.923   4.235   0.899
 2517SOL    HW1 8087   0.901   4.220   0.808
 2517SOL    HW2 8088   0.963   4.153   0.929
 2518SOL     OW 8089   0.553   3.786   0.503
 2518SOL    HW1 8090   0.471   3.783   0.553
 2518SOL    HW2 8091   0.545   3.864   0.449
 2519SOL     OW 8092   0.285   3.772   0.192
 2519SOL    HW1 8093   0.332   3.824   0.127
 2519SOL    HW2 8094   0.349   3.708   0.223
 2520SOL     OW 8095   0.939   3.973   0.464
 2520SOL    HW1 8096   0.912   4.013   0.381
 2520SOL    HW2 8097   1.034   3.986   0.467
 2521SOL     OW 8098   1.075   4.396   1.522
 2521SOL    HW1 8099   0.992   4.366   1.485
 2521SOL    HW2 8100   1.142   4.357   1.466
 2522SOL     OW 8101   1.009   4.263   0.041
 2522SOL    HW1 8102   1.021   4.321  11.066
 2522SOL    HW2 8103   1.089   4.273   0.092
 2523SOL     OW 8104   0.084   4.257   1.409
 2523SOL    HW1 8105   0.158   4.270   1.350
 2523SOL    HW2 8106   0.052   4.345   1.426
 2524SOL     OW 8107   0.560   3.951   1.165
 2524SOL    HW1 8108   0.601   3.871   1.200
 2524SOL    HW2 8109   0.469   3.946   1.194
 2525SOL     OW 8110   0.868   4.189   0.640
 2525SOL    HW1 8111   0.839   4.252   0.574
 2525SOL    HW2 8112   0.887   4.109   0.590
 2526SOL     OW 8113   1.014   3.778   0.752
 2526SOL    HW1 8114   0.956   3.769   0.676
 2526SOL    HW2 8115   0.994   3.702   0.806
 2527SOL     OW 8116   1.477   4.312   0.966
 2527SOL    HW1 8117   1.418   4.239   0.985
 2527SOL    HW2 8118   1.528   4.323   1.046
 2528SOL     OW 8119   1.401   4.293   0.072
 2528SOL    HW1 8120   1.335   4.276   0.140
 2528SOL    HW2 8121   1.467   4.225   0.086
 2529SOL     OW 8122   0.527   3.989   0.325
 2529SOL    HW1 8123   0.554   3.929   0.256
 2529SOL    HW2 8124   0.511   4.072   0.280
 2530SOL     OW 8125   0.917   3.823   1.396
 2530SOL    HW1 8126   0.941   3.801   1.306
 2530SOL    HW2 8127   0.997   3.860   1.433
 2531SOL     OW 8128   0.443   0.004   1.263
 2531SOL    HW1 8129   0.499   0.001   1.340
 2531SOL    HW2 8130   0.405   4.416   1.257
 2532SOL     OW 8131   1.265   4.100   1.275
 2532SOL    HW1 8132   1.299   4.177   1.320
 2532SOL    HW2 8133   1.176   4.124   1.249
 2533SOL     OW 8134   0.555   4.253   0.864
 2533SOL    HW1 8135   0.576   4.293   0.779
 2533SOL    HW2 8136   0.621   4.289   0.924
 2534SOL     OW 8137   1.578   4.339   0.481
 2534SOL    HW1 8138   1.536   4.404   0.537
 2534SOL    HW2 8139   1.622   4.390   0.413
 2535SOL     OW 8140   0.996   3.847   1.755
 2535SOL    HW1 8141   1.053   3.919   1.728
 2535SOL    HW2 8142   1.044   3.768   1.730
 2536SOL     OW 8143   0.497   3.767   1.747
 2536SOL    HW1 8144   0.456   3.710   1.682
 2536SOL    HW2 8145   0.437   3.841   1.756
 2537SOL     OW 8146   1.210   4.250   0.264
 2537SOL    HW1 8147   1.222   4.171   0.317
 2537SOL    HW2 8148   1.162   4.311   0.320
 2538SOL     OW 8149   0.299   3.923   1.244
 2538SOL    HW1 8150   0.259   3.951   1.326
 2538SOL    HW2 8151   0.286   3.828   1.242
 2539SOL     OW 8152   0.734   4.360   1.045
 2539SOL    HW1 8153   0.807   4.322   0.996
 2539SOL    HW2 8154   0.742   4.454   1.032
 2540SOL     OW 8155   1.751   0.133   1.854
 2540SOL    HW1 8156   1.686   0.148   1.786
 2540SOL    HW2 8157   1.708   0.159   1.935
 2541SOL     OW 8158   0.311   3.794   0.619
 2541SOL    HW1 8159   0.287   3.882   0.646
 2541SOL    HW2 8160   0.307   3.742   0.699
 2542SOL     OW 8161   1.615   4.092   0.367
 2542SOL    HW1 8162   1.644   4.029   0.434
 2542SOL    HW2 8163   1.592   4.170   0.417
 2543SOL     OW 8164   1.534   4.014   0.116
 2543SOL    HW1 8165   1.475   3.941   0.131
 2543SOL    HW2 8166   1.567   4.037   0.202
 2544SOL     OW 8167   0.317   0.017   0.915
 2544SOL    HW1 8168   0.399   0.066   0.922
 2544SOL    HW2 8169   0.331   4.439   0.968
 2545SOL     OW 8170   0.333   4.237   1.011
 2545SOL    HW1 8171   0.290   4.155   0.988
 2545SOL    HW2 8172   0.408   4.242   0.952
 2546SOL     OW 8173   1.137   4.094   1.685
 2546SOL    HW1 8174   1.085   4.152   1.740
 2546SOL    HW2 8175   1.222   4.138   1.677
 2547SOL     OW 8176   1.160   3.927   1.469
 2547SOL    HW1 8177   1.151   3.988   1.542
 2547SOL    HW2 8178   1.201   3.978   1.399
 2548SOL     OW 8179   0.024   4.279   1.106
 2548SOL    HW1 8180   0.110   4.259   1.069
 2548SOL    HW2 8181   0.025   4.238   1.193
 2549SOL     OW 8182   0.175   4.236   1.693
 2549SOL    HW1 8183   0.263   4.218   1.660
 2549SOL    HW2 8184   0.149   4.317   1.648
 2550SOL     OW 8185   0.814   4.310   0.327
 2550SOL    HW1 8186   0.825   4.223   0.288
 2550SOL    HW2 8187   0.720   4.315   0.347
 2551SOL     OW 8188   1.637   4.318   1.187
 2551SOL    HW1 8189   1.632   4.259   1.263
 2551SOL    HW2 8190   1.725   4.305   1.152
 2552SOL     OW 8191   0.674   4.187   1.258
 2552SOL    HW1 8192   0.638   4.106   1.224
 2552SOL    HW2 8193   0.684   4.243   1.180
 2553SOL     OW 8194   0.475   4.217   0.182
 2553SOL    HW1 8195   0.520   4.301   0.193
 2553SOL    HW2 8196   0.382   4.239   0.185
 2554SOL     OW 8197   0.918   3.814   0.106
 2554SOL    HW1 8198   0.969   3.778   0.033
 2554SOL    HW2 8199   0.955   3.772   0.184
 2555SOL     OW 8200   1.720   3.870   0.511
 2555SOL    HW1 8201   1.792   3.856   0.449
 2555SOL    HW2 8202   1.705   3.783   0.550
 2556SOL     OW 8203   1.278   0.137   0.682
 2556SOL    HW1 8204   1.334   0.060   0.692
 2556SOL    HW2 8205   1.327   0.195   0.624
 2557SOL     OW 8206   1.840   3.896   0.967
 2557SOL    HW1 8207   1.868   3.809   0.939
 2557SOL    HW2 8208   1.754   3.908   0.927
 2558SOL     OW 8209   0.268   4.041   0.721
 2558SOL    HW1 8210   0.192   4.091   0.692
 2558SOL    HW2 8211   0.254   4.029   0.815
 2559SOL     OW 8212   1.062   0.300   0.729
 2559SOL    HW1 8213   0.981   0.267   0.690
 2559SOL    HW2 8214   1.128   0.236   0.704
 2560SOL     OW 8215   1.020   3.964   0.965
 2560SOL    HW1 8216   1.015   3.916   0.883
 2560SOL    HW2 8217   1.016   3.896   1.033
 2561SOL     OW 8218   1.721   4.114   1.380
 2561SOL    HW1 8219   1.792   4.178   1.378
 2561SOL    HW2 8220   1.751   4.043   1.323
 2562SOL     OW 8221   0.674   3.923   1.499
 2562SOL    HW1 8222   0.757   3.901   1.458
 2562SOL    HW2 8223   0.697   3.952   1.587
 2563SOL     OW 8224   0.060   4.062   0.003
 2563SOL    HW1 8225   4.469   4.072   0.031
 2563SOL    HW2 8226   0.101   4.146   0.022
 2564SOL     OW 8227   0.081   3.897   0.310
 2564SOL    HW1 8228   0.078   3.972   0.251
 2564SOL    HW2 8229   0.155   3.845   0.279
 2565SOL     OW 8230   0.726   4.283   1.700
 2565SOL    HW1 8231   0.729   4.331   1.782
 2565SOL    HW2 8232   0.748   4.193   1.724
 2566SOL     OW 8233   1.217   4.039   0.456
 2566SOL    HW1 8234   1.281   3.969   0.447
 2566SOL    HW2 8235   1.246   4.089   0.533
 2567SOL     OW 8236   1.760   4.090   1.649
 2567SOL    HW1 8237   1.743   4.101   1.555
 2567SOL    HW2 8238   1.690   4.031   1.679
 2568SOL     OW 8239   1.100   0.204   0.051
 2568SOL    HW1 8240   1.096   0.290   0.010
 2568SOL    HW2 8241   1.191   0.176   0.040
 2569SOL     OW 8242   1.815   3.908   1.238
 2569SOL    HW1 8243   1.822   3.814   1.252
 2569SOL    HW2 8244   1.822   3.919   1.143
 2570SOL     OW 8245   0.450   4.156   0.536
 2570SOL    HW1 8246   0.469   4.082   0.478
 2570SOL    HW2 8247   0.392   4.120   0.603
 2571SOL     OW 8248   0.322   4.260   1.277
 2571SOL    HW1 8249   0.375   4.193   1.320
 2571SOL    HW2 8250   0.332   4.243   1.183
 2572SOL     OW 8251   1.432   3.949   1.118
 2572SOL    HW1 8252   1.456   3.868   1.163
 2572SOL    HW2 8253   1.380   3.998   1.181
 2573SOL     OW 8254   1.009   3.743   1.143
 2573SOL    HW1 8255   0.954   3.675   1.103
 2573SOL    HW2 8256   1.097   3.705   1.145
 2574SOL     OW 8257   1.350   3.779   0.164
 2574SOL    HW1 8258   1.373   3.726   0.087
 2574SOL    HW2 8259   1.264   3.747   0.190
 2575SOL     OW 8260   1.300   4.174   0.680
 2575SOL    HW1 8261   1.262   4.261   0.693
 2575SOL    HW2 8262   1.299   4.135   0.768
 2576SOL     OW 8263   1.587   3.927   0.878
 2576SOL    HW1 8264   1.526   3.948   0.949
 2576SOL    HW2 8265   1.587   4.005   0.822
 2577SOL     OW 8266   0.229   4.280   1.972
 2577SOL    HW1 8267   0.163   4.313   2.033
 2577SOL    HW2 8268   0.213   4.329   1.891
 2578SOL     OW 8269   0.209   3.995   2.853
 2578SOL    HW1 8270   0.245   3.968   2.938
 2578SOL    HW2 8271   0.134   3.938   2.839
 2579SOL     OW 8272   4.500   4.100   2.493
 2579SOL    HW1 8273   4.418   4.130   2.534
 2579SOL    HW2 8274   4.476   4.017   2.451
 2580SOL     OW 8275   1.730   4.335   2.100
 2580SOL    HW1 8276   1.730   4.323   2.005
 2580SOL    HW2 8277   1.732   4.246   2.136
 2581SOL     OW 8278   0.729   0.270   2.546
 2581SOL    HW1 8279   0.718   0.208   2.618
 2581SOL    HW2 8280   0.640   0.289   2.517
 2582SOL     OW 8281   0.445   4.120   3.350
 2582SOL    HW1 8282   0.526   4.069   3.352
 2582SOL    HW2 8283   0.376   4.054   3.360
 2583SOL     OW 8284   1.615   4.172   2.602
 2583SOL    HW1 8285   1.546   4.197   2.540
 2583SOL    HW2 8286   1.615   4.241   2.668
 2584SOL     OW 8287   1.596   3.847   3.331
 2584SOL    HW1 8288   1.601   3.927   3.279
 2584SOL    HW2 8289   1.582   3.877   3.420
 2585SOL     OW 8290   0.163   4.323   2.497
 2585SOL    HW1 8291   0.104   4.250   2.479
 2585SOL    HW2 8292   0.118   4.400   2.462
 2586SOL     OW 8293   0.122   0.002   3.450
 2586SOL    HW1 8294   0.216   4.485   3.449
 2586SOL    HW2 8295   0.113   0.088   3.409
 2587SOL     OW 8296   0.816   3.724   2.370
 2587SOL    HW1 8297   0.855   3.810   2.352
 2587SOL    HW2 8298   0.722   3.742   2.380
 2588SOL     OW 8299   0.329   3.979   3.661
 2588SOL    HW1 8300   0.374   4.058   3.692
 2588SOL    HW2 8301   0.240   3.987   3.695
 2589SOL     OW 8302   1.277   4.072   2.794
 2589SOL    HW1 8303   1.188   4.039   2.805
 2589SOL    HW2 8304   1.329   4.021   2.856
 2590SOL     OW 8305   0.828   4.304   3.309
 2590SOL    HW1 8306   0.788   4.309   3.396
 2590SOL    HW2 8307   0.760   4.266   3.254
 2591SOL     OW 8308   1.395   4.199   3.538
 2591SOL    HW1 8309   1.397   4.244   3.623
 2591SOL    HW2 8310   1.454   4.124   3.549
 2592SOL     OW 8311   0.998   4.150   3.095
 2592SOL    HW1 8312   0.926   4.171   3.155
 2592SOL    HW2 8313   0.959   4.091   3.031
 2593SOL     OW 8314   1.057   4.410   2.279
 2593SOL    HW1 8315   1.054   4.451   2.366
 2593SOL    HW2 8316   0.970   4.372   2.268
 2594SOL     OW 8317   0.055   0.064   2.714
 2594SOL    HW1 8318   0.142   0.026   2.720
 2594SOL    HW2 8319   0.049   0.097   2.624
 2595SOL     OW 8320   0.891   4.064   2.052
 2595SOL    HW1 8321   0.933   4.126   1.993
 2595SOL    HW2 8322   0.908   3.978   2.013
 2596SOL     OW 8323   1.707   4.299   3.691
 2596SOL    HW1 8324   1.721   4.387   3.657
 2596SOL    HW2 8325   1.730   4.241   3.618
 2597SOL     OW 8326   0.552   3.905   2.755
 2597SOL    HW1 8327   0.554   3.935   2.845
 2597SOL    HW2 8328   0.547   3.985   2.703
 2598SOL     OW 8329   1.490   4.465   2.600
 2598SOL    HW1 8330   1.473   4.410   2.676
 2598SOL    HW2 8331   1.530   0.044   2.636
 2599SOL     OW 8332   0.189   4.001   3.347
 2599SOL    HW1 8333   0.139   4.082   3.356
 2599SOL    HW2 8334   0.183   3.959   3.433
 2600SOL     OW 8335   1.401   3.831   2.294
 2600SOL    HW1 8336   1.391   3.806   2.202
 2600SOL    HW2 8337   1.495   3.839   2.306
 2601SOL     OW 8338   0.348   4.379   2.266
 2601SOL    HW1 8339   0.393   4.305   2.307
 2601SOL    HW2 8340   0.299   4.420   2.337
 2602SOL     OW 8341   1.535   3.950   3.587
 2602SOL    HW1 8342   1.544   3.971   3.680
 2602SOL    HW2 8343   1.467   3.883   3.584
 2603SOL     OW 8344   0.635   3.849   1.964
 2603SOL    HW1 8345   0.702   3.782   1.981
 2603SOL    HW2 8346   0.586   3.816   1.889
 2604SOL     OW 8347   0.766   4.002   3.617
 2604SOL    HW1 8348   0.842   3.944   3.616
 2604SOL    HW2 8349   0.717   3.977   3.695
 2605SOL     OW 8350   1.343   4.312   3.291
 2605SOL    HW1 8351   1.365   4.275   3.377
 2605SOL    HW2 8352   1.385   4.397   3.290
 2606SOL     OW 8353   0.923   4.236   2.760
 2606SOL    HW1 8354   0.901   4.220   2.668
 2606SOL    HW2 8355   0.963   4.154   2.790
 2607SOL     OW 8356   0.552   3.787   2.363
 2607SOL    HW1 8357   0.472   3.784   2.415
 2607SOL    HW2 8358   0.544   3.865   2.309
 2608SOL     OW 8359   0.294   3.770   2.040
 2608SOL    HW1 8360   0.356   3.837   2.011
 2608SOL    HW2 8361   0.348   3.705   2.084
 2609SOL     OW 8362   0.937   3.972   2.323
 2609SOL    HW1 8363   0.911   4.010   2.239
 2609SOL    HW2 8364   1.032   3.985   2.327
 2610SOL     OW 8365   1.075   4.396   3.384
 2610SOL    HW1 8366   0.992   4.366   3.347
 2610SOL    HW2 8367   1.142   4.357   3.328
 2611SOL     OW 8368   1.025   4.266   1.888
 2611SOL    HW1 8369   1.009   4.354   1.854
 2611SOL    HW2 8370   1.088   4.279   1.959
 2612SOL     OW 8371   0.085   4.257   3.271
 2612SOL    HW1 8372   0.159   4.270   3.212
 2612SOL    HW2 8373   0.052   4.345   3.288
 2613SOL     OW 8374   0.560   3.951   3.027
 2613SOL    HW1 8375   0.601   3.871   3.062
 2613SOL    HW2 8376   0.469   3.946   3.056
 2614SOL     OW 8377   0.870   4.190   2.499
 2614SOL    HW1 8378   0.835   4.249   2.433
 2614SOL    HW2 8379   0.888   4.108   2.452
 2615SOL     OW 8380   1.014   3.777   2.613
 2615SOL    HW1 8381   0.956   3.769   2.538
 2615SOL    HW2 8382   0.994   3.702   2.668
 2616SOL     OW 8383   1.478   4.311   2.827
 2616SOL    HW1 8384   1.418   4.239   2.847
 2616SOL    HW2 8385   1.528   4.323   2.907
 2617SOL     OW 8386   1.403   4.296   1.935
 2617SOL    HW1 8387   1.340   4.268   2.002
 2617SOL    HW2 8388   1.485   4.255   1.961
 2618SOL     OW 8389   0.523   3.985   2.177
 2618SOL    HW1 8390   0.569   3.937   2.108
 2618SOL    HW2 8391   0.510   4.073   2.142
 2619SOL     OW 8392   0.917   3.823   3.258
 2619SOL    HW1 8393   0.941   3.801   3.168
 2619SOL    HW2 8394   0.997   3.860   3.295
 2620SOL     OW 8395   0.443   0.003   3.124
 2620SOL    HW1 8396   0.499   0.001   3.202
 2620SOL    HW2 8397   0.405   4.416   3.120
 2621SOL     OW 8398   1.266   4.100   3.137
 2621SOL    HW1 8399   1.299   4.177   3.182
 2621SOL    HW2 8400   1.176   4.124   3.111
 2622SOL     OW 8401   0.556   4.252   2.726
 2622SOL    HW1 8402   0.574   4.294   2.642
 2622SOL    HW2 8403   0.621   4.289   2.786
 2623SOL     OW 8404   1.569   4.338   2.340
 2623SOL    HW1 8405   1.542   4.404   2.403
 2623SOL    HW2 8406   1.629   4.385   2.281
 2624SOL     OW 8407   0.996   3.847   3.617
 2624SOL    HW1 8408   1.053   3.919   3.590
 2624SOL    HW2 8409   1.044   3.768   3.592
 2625SOL     OW 8410   0.497   3.767   3.609
 2625SOL    HW1 8411   0.456   3.710   3.544
 2625SOL    HW2 8412   0.437   3.841   3.618
 2626SOL     OW 8413   1.210   4.254   2.126
 2626SOL    HW1 8414   1.220   4.174   2.178
 2626SOL    HW2 8415   1.161   4.314   2.182
 2627SOL     OW 8416   0.299   3.923   3.106
 2627SOL    HW1 8417   0.259   3.951   3.189
 2627SOL    HW2 8418   0.287   3.828   3.104
 2628SOL     OW 8419   0.733   4.360   2.907
 2628SOL    HW1 8420   0.806   4.323   2.858
 2628SOL    HW2 8421   0.742   4.454   2.895
 2629SOL     OW 8422   1.751   0.132   3.716
 2629SOL    HW1 8423   1.686   0.148   3.648
 2629SOL    HW2 8424   1.708   0.158   3.797
 2630SOL     OW 8425   0.310   3.793   2.480
 2630SOL    HW1 8426   0.286   3.882   2.507
 2630SOL    HW2 8427   0.307   3.742   2.561
 2631SOL     OW 8428   1.614   4.091   2.230
 2631SOL    HW1 8429   1.643   4.030   2.298
 2631SOL    HW2 8430   1.590   4.170   2.278
 2632SOL     OW 8431   1.527   3.999   1.989
 2632SOL    HW1 8432   1.464   3.932   2.015
 2632SOL    HW2 8433   1.562   4.032   2.072
 2633SOL     OW 8434   0.319   0.015   2.776
 2633SOL    HW1 8435   0.400   0.066   2.785
 2633SOL    HW2 8436   0.334   4.438   2.831
 2634SOL     OW 8437   0.334   4.237   2.873
 2634SOL    HW1 8438   0.290   4.155   2.850
 2634SOL    HW2 8439   0.409   4.242   2.814
 2635SOL     OW 8440   1.137   4.093   3.547
 2635SOL    HW1 8441   1.085   4.152   3.602
 2635SOL    HW2 8442   1.222   4.138   3.539
 2636SOL     OW 8443   1.160   3.927   3.331
 2636SOL    HW1 8444   1.151   3.987   3.404
 2636SOL    HW2 8445   1.201   3.978   3.261
 2637SOL     OW 8446   0.023   4.278   2.968
 2637SOL    HW1 8447   0.110   4.260   2.930
 2637SOL    HW2 8448   0.026   4.238   3.055
 2638SOL     OW 8449   0.175   4.236   3.555
 2638SOL    HW1 8450   0.264   4.218   3.522
 2638SOL    HW2 8451   0.149   4.317   3.510
 2639SOL     OW 8452   0.820   4.284   2.210
 2639SOL    HW1 8453   0.820   4.208   2.151
 2639SOL    HW2 8454   0.731   4.318   2.204
 2640SOL     OW 8455   1.636   4.318   3.049
 2640SOL    HW1 8456   1.632   4.260   3.125
 2640SOL    HW2 8457   1.725   4.304   3.014
 2641SOL     OW 8458   0.674   4.187   3.119
 2641SOL    HW1 8459   0.638   4.105   3.085
 2641SOL    HW2 8460   0.684   4.243   3.042
 2642SOL     OW 8461   0.486   4.223   2.050
 2642SOL    HW1 8462   0.515   4.309   2.080
 2642SOL    HW2 8463   0.392   4.235   2.033
 2643SOL     OW 8464   1.720   3.869   2.374
 2643SOL    HW1 8465   1.792   3.855   2.312
 2643SOL    HW2 8466   1.704   3.783   2.412
 2644SOL     OW 8467   1.279   0.137   2.541
 2644SOL    HW1 8468   1.337   0.061   2.552
 2644SOL    HW2 8469   1.330   0.198   2.489
 2645SOL     OW 8470   1.840   3.896   2.829
 2645SOL    HW1 8471   1.868   3.809   2.801
 2645SOL    HW2 8472   1.754   3.908   2.789
 2646SOL     OW 8473   0.268   4.041   2.583
 2646SOL    HW1 8474   0.190   4.089   2.554
 2646SOL    HW2 8475   0.255   4.029   2.677
 2647SOL     OW 8476   0.906   0.092   2.080
 2647SOL    HW1 8477   0.988   0.131   2.049
 2647SOL    HW2 8478   0.928   0.053   2.165
 2648SOL     OW 8479   1.066   0.299   2.604
 2648SOL    HW1 8480   0.989   0.286   2.548
 2648SOL    HW2 8481   1.130   0.235   2.573
 2649SOL     OW 8482   1.020   3.964   2.827
 2649SOL    HW1 8483   1.015   3.915   2.745
 2649SOL    HW2 8484   1.015   3.896   2.895
 2650SOL     OW 8485   1.721   4.114   3.242
 2650SOL    HW1 8486   1.792   4.178   3.240
 2650SOL    HW2 8487   1.751   4.043   3.185
 2651SOL     OW 8488   0.674   3.923   3.361
 2651SOL    HW1 8489   0.757   3.901   3.320
 2651SOL    HW2 8490   0.697   3.952   3.449
 2652SOL     OW 8491   0.067   4.045   1.897
 2652SOL    HW1 8492   4.474   4.064   1.889
 2652SOL    HW2 8493   0.110   4.130   1.886
 2653SOL     OW 8494   0.087   3.902   2.167
 2653SOL    HW1 8495   0.076   3.969   2.100
 2653SOL    HW2 8496   0.161   3.850   2.138
 2654SOL     OW 8497   0.726   4.283   3.562
 2654SOL    HW1 8498   0.729   4.331   3.644
 2654SOL    HW2 8499   0.748   4.193   3.586
 2655SOL     OW 8500   1.218   4.043   2.316
 2655SOL    HW1 8501   1.281   3.970   2.308
 2655SOL    HW2 8502   1.247   4.090   2.394
 2656SOL     OW 8503   1.760   4.090   3.511
 2656SOL    HW1 8504   1.743   4.101   3.417
 2656SOL    HW2 8505   1.690   4.031   3.541
 2657SOL     OW 8506   1.111   0.227   1.965
 2657SOL    HW1 8507   1.097   0.269   1.880
 2657SOL    HW2 8508   1.196   0.183   1.956
 2658SOL     OW 8509   1.815   3.908   3.100
 2658SOL    HW1 8510   1.822   3.814   3.114
 2658SOL    HW2 8511   1.822   3.919   3.005
 2659SOL     OW 8512   0.450   4.154   2.397
 2659SOL    HW1 8513   0.464   4.080   2.338
 2659SOL    HW2 8514   0.392   4.121   2.465
 2660SOL     OW 8515   0.322   4.260   3.139
 2660SOL    HW1 8516   0.375   4.193   3.182
 2660SOL    HW2 8517   0.332   4.243   3.045
 2661SOL     OW 8518   1.432   3.948   2.980
 2661SOL    HW1 8519   1.456   3.868   3.026
 2661SOL    HW2 8520   1.380   3.998   3.043
 2662SOL     OW 8521   1.009   3.743   3.005
 2662SOL    HW1 8522   0.954   3.675   2.965
 2662SOL    HW2 8523   1.097   3.705   3.007
 2663SOL     OW 8524   1.352   3.777   2.026
 2663SOL    HW1 8525   1.380   3.713   1.961
 2663SOL    HW2 8526   1.265   3.748   2.053
 2664SOL     OW 8527   1.299   4.175   2.543
 2664SOL    HW1 8528   1.261   4.262   2.557
 2664SOL    HW2 8529   1.299   4.134   2.630
 2665SOL     OW 8530   1.587   3.927   2.739
 2665SOL    HW1 8531   1.526   3.948   2.811
 2665SOL    HW2 8532   1.587   4.005   2.684
 2666SOL     OW 8533   0.229   4.280   3.834
 2666SOL    HW1 8534   0.163   4.313   3.895
 2666SOL    HW2 8535   0.213   4.329   3.753
 2667SOL     OW 8536   0.209   3.995   4.715
 2667SOL    HW1 8537   0.245   3.968   4.800
 2667SOL    HW2 8538   0.134   3.938   4.701
 2668SOL     OW 8539   4.500   4.100   4.355
 2668SOL    HW1 8540   4.418   4.130   4.396
 2668SOL    HW2 8541   4.476   4.017   4.313
 2669SOL     OW 8542   1.729   4.335   3.962
 2669SOL    HW1 8543   1.730   4.323   3.867
 2669SOL    HW2 8544   1.732   4.246   3.997
 2670SOL     OW 8545   0.729   0.270   4.408
 2670SOL    HW1 8546   0.718   0.208   4.480
 2670SOL    HW2 8547   0.640   0.289   4.379
 2671SOL     OW 8548   0.445   4.120   5.212
 2671SOL    HW1 8549   0.526   4.069   5.214
 2671SOL    HW2 8550   0.376   4.054   5.222
 2672SOL     OW 8551   1.615   4.172   4.464
 2672SOL    HW1 8552   1.546   4.197   4.402
 2672SOL    HW2 8553   1.615   4.242   4.529
 2673SOL     OW 8554   1.596   3.847   5.193
 2673SOL    HW1 8555   1.601   3.927   5.141
 2673SOL    HW2 8556   1.582   3.877   5.282
 2674SOL     OW 8557   0.163   4.323   4.359
 2674SOL    HW1 8558   0.104   4.250   4.341
 2674SOL    HW2 8559   0.118   4.400   4.324
 2675SOL     OW 8560   0.122   0.003   5.313
 2675SOL    HW1 8561   0.216   4.485   5.311
 2675SOL    HW2 8562   0.113   0.088   5.271
 2676SOL     OW 8563   0.816   3.724   4.232
 2676SOL    HW1 8564   0.855   3.809   4.214
 2676SOL    HW2 8565   0.722   3.742   4.242
 2677SOL     OW 8566   0.330   3.979   5.523
 2677SOL    HW1 8567   0.374   4.058   5.554
 2677SOL    HW2 8568   0.240   3.986   5.557
 2678SOL     OW 8569   1.277   4.073   4.656
 2678SOL    HW1 8570   1.188   4.039   4.667
 2678SOL    HW2 8571   1.329   4.021   4.718
 2679SOL     OW 8572   0.828   4.304   5.171
 2679SOL    HW1 8573   0.788   4.309   5.258
 2679SOL    HW2 8574   0.760   4.266   5.116
 2680SOL     OW 8575   1.395   4.200   5.400
 2680SOL    HW1 8576   1.397   4.244   5.485
 2680SOL    HW2 8577   1.454   4.125   5.411
 2681SOL     OW 8578   0.998   4.150   4.957
 2681SOL    HW1 8579   0.926   4.171   5.017
 2681SOL    HW2 8580   0.959   4.091   4.893
 2682SOL     OW 8581   1.056   4.410   4.141
 2682SOL    HW1 8582   1.054   4.451   4.228
 2682SOL    HW2 8583   0.970   4.372   4.130
 2683SOL     OW 8584   0.055   0.065   4.576
 2683SOL    HW1 8585   0.142   0.026   4.582
 2683SOL    HW2 8586   0.048   0.097   4.486
 2684SOL     OW 8587   0.891   4.064   3.914
 2684SOL    HW1 8588   0.933   4.127   3.855
 2684SOL    HW2 8589   0.908   3.978   3.875
 2685SOL     OW 8590   1.707   4.299   5.553
 2685SOL    HW1 8591   1.721   4.387   5.519
 2685SOL    HW2 8592   1.730   4.241   5.480
 2686SOL     OW 8593   0.552   3.905   4.617
 2686SOL    HW1 8594   0.554   3.935   4.707
 2686SOL    HW2 8595   0.547   3.985   4.565
 2687SOL     OW 8596   1.490   4.465   4.462
 2687SOL    HW1 8597   1.473   4.410   4.539
 2687SOL    HW2 8598   1.530   0.044   4.498
 2688SOL     OW 8599   0.189   4.001   5.209
 2688SOL    HW1 8600   0.139   4.082   5.218
 2688SOL    HW2 8601   0.183   3.959   5.295
 2689SOL     OW 8602   1.401   3.830   4.156
 2689SOL    HW1 8603   1.391   3.806   4.064
 2689SOL    HW2 8604   1.495   3.840   4.168
 2690SOL     OW 8605   0.349   4.379   4.128
 2690SOL    HW1 8606   0.393   4.305   4.169
 2690SOL    HW2 8607   0.299   4.420   4.199
 2691SOL     OW 8608   1.535   3.950   5.449
 2691SOL    HW1 8609   1.544   3.971   5.542
 2691SOL    HW2 8610   1.467   3.883   5.446
 2692SOL     OW 8611   0.635   3.849   3.826
 2692SOL    HW1 8612   0.702   3.782   3.843
 2692SOL    HW2 8613   0.586   3.815   3.751
 2693SOL     OW 8614   0.766   4.002   5.479
 2693SOL    HW1 8615   0.842   3.944   5.479
 2693SOL    HW2 8616   0.717   3.977   5.557
 2694SOL     OW 8617   1.343   4.312   5.153
 2694SOL    HW1 8618   1.365   4.275   5.239
 2694SOL    HW2 8619   1.386   4.397   5.152
 2695SOL     OW 8620   0.923   4.236   4.622
 2695SOL    HW1 8621   0.901   4.220   4.530
 2695SOL    HW2 8622   0.963   4.153   4.652
 2696SOL     OW 8623   0.552   3.787   4.225
 2696SOL    HW1 8624   0.472   3.784   4.277
 2696SOL    HW2 8625   0.544   3.865   4.171
 2697SOL     OW 8626   0.294   3.770   3.902
 2697SOL    HW1 8627   0.356   3.837   3.873
 2697SOL    HW2 8628   0.348   3.705   3.946
 2698SOL     OW 8629   0.937   3.972   4.185
 2698SOL    HW1 8630   0.911   4.010   4.101
 2698SOL    HW2 8631   1.032   3.985   4.189
 2699SOL     OW 8632   1.075   4.396   5.247
 2699SOL    HW1 8633   0.992   4.366   5.209
 2699SOL    HW2 8634   1.142   4.357   5.190
 2700SOL     OW 8635   1.025   4.266   3.750
 2700SOL    HW1 8636   1.009   4.354   3.716
 2700SOL    HW2 8637   1.088   4.280   3.821
 2701SOL     OW 8638   0.085   4.257   5.134
 2701SOL    HW1 8639   0.159   4.270   5.074
 2701SOL    HW2 8640   0.051   4.345   5.149
 2702SOL     OW 8641   0.560   3.951   4.889
 2702SOL    HW1 8642   0.601   3.871   4.924
 2702SOL    HW2 8643   0.469   3.946   4.918
 2703SOL     OW 8644   0.870   4.190   4.361
 2703SOL    HW1 8645   0.835   4.249   4.295
 2703SOL    HW2 8646   0.888   4.108   4.314
 2704SOL     OW 8647   1.014   3.777   4.476
 2704SOL    HW1 8648   0.956   3.769   4.400
 2704SOL    HW2 8649   0.993   3.702   4.530
 2705SOL     OW 8650   1.477   4.311   4.689
 2705SOL    HW1 8651   1.418   4.239   4.709
 2705SOL    HW2 8652   1.528   4.323   4.769
 2706SOL     OW 8653   1.403   4.296   3.797
 2706SOL    HW1 8654   1.340   4.268   3.864
 2706SOL    HW2 8655   1.485   4.255   3.823
 2707SOL     OW 8656   0.523   3.985   4.040
 2707SOL    HW1 8657   0.568   3.937   3.970
 2707SOL    HW2 8658   0.510   4.073   4.004
 2708SOL     OW 8659   0.917   3.822   5.120
 2708SOL    HW1 8660   0.941   3.801   5.030
 2708SOL    HW2 8661   0.997   3.860   5.157
 2709SOL     OW 8662   0.443   0.003   4.986
 2709SOL    HW1 8663   0.498   0.001   5.064
 2709SOL    HW2 8664   0.405   4.416   4.981
 2710SOL     OW 8665   1.266   4.100   4.999
 2710SOL    HW1 8666   1.299   4.177   5.044
 2710SOL    HW2 8667   1.176   4.124   4.974
 2711SOL     OW 8668   0.556   4.252   4.588
 2711SOL    HW1 8669   0.574   4.294   4.503
 2711SOL    HW2 8670   0.621   4.289   4.647
 2712SOL     OW 8671   1.569   4.338   4.202
 2712SOL    HW1 8672   1.542   4.404   4.265
 2712SOL    HW2 8673   1.629   4.384   4.143
 2713SOL     OW 8674   0.996   3.847   5.479
 2713SOL    HW1 8675   1.053   3.919   5.452
 2713SOL    HW2 8676   1.044   3.768   5.454
 2714SOL     OW 8677   0.497   3.767   5.471
 2714SOL    HW1 8678   0.456   3.710   5.406
 2714SOL    HW2 8679   0.437   3.841   5.480
 2715SOL     OW 8680   1.210   4.254   3.988
 2715SOL    HW1 8681   1.220   4.174   4.040
 2715SOL    HW2 8682   1.161   4.314   4.044
 2716SOL     OW 8683   0.299   3.923   4.968
 2716SOL    HW1 8684   0.259   3.951   5.051
 2716SOL    HW2 8685   0.287   3.828   4.966
 2717SOL     OW 8686   0.734   4.360   4.769
 2717SOL    HW1 8687   0.806   4.323   4.719
 2717SOL    HW2 8688   0.742   4.454   4.757
 2718SOL     OW 8689   1.751   0.132   5.578
 2718SOL    HW1 8690   1.686   0.148   5.510
 2718SOL    HW2 8691   1.707   0.159   5.659
 2719SOL     OW 8692   0.310   3.793   4.342
 2719SOL    HW1 8693   0.286   3.882   4.369
 2719SOL    HW2 8694   0.307   3.742   4.423
 2720SOL     OW 8695   1.614   4.091   4.092
 2720SOL    HW1 8696   1.643   4.030   4.160
 2720SOL    HW2 8697   1.590   4.170   4.140
 2721SOL     OW 8698   1.527   3.999   3.851
 2721SOL    HW1 8699   1.464   3.932   3.877
 2721SOL    HW2 8700   1.562   4.032   3.933
 2722SOL     OW 8701   0.320   0.015   4.639
 2722SOL    HW1 8702   0.401   0.066   4.647
 2722SOL    HW2 8703   0.334   4.438   4.694
 2723SOL     OW 8704   0.334   4.237   4.735
 2723SOL    HW1 8705   0.290   4.155   4.712
 2723SOL    HW2 8706   0.409   4.242   4.676
 2724SOL     OW 8707   1.137   4.093   5.410
 2724SOL    HW1 8708   1.085   4.152   5.464
 2724SOL    HW2 8709   1.222   4.138   5.401
 2725SOL     OW 8710   1.160   3.926   5.193
 2725SOL    HW1 8711   1.151   3.987   5.266
 2725SOL    HW2 8712   1.200   3.978   5.123
 2726SOL     OW 8713   0.024   4.278   4.830
 2726SOL    HW1 8714   0.110   4.260   4.792
 2726SOL    HW2 8715   0.026   4.237   4.917
 2727SOL     OW 8716   0.176   4.236   5.417
 2727SOL    HW1 8717   0.263   4.218   5.384
 2727SOL    HW2 8718   0.149   4.317   5.372
 2728SOL     OW 8719   0.819   4.283   4.072
 2728SOL    HW1 8720   0.820   4.208   4.013
 2728SOL    HW2 8721   0.731   4.318   4.065
 2729SOL     OW 8722   1.636   4.318   4.911
 2729SOL    HW1 8723   1.632   4.260   4.987
 2729SOL    HW2 8724   1.725   4.304   4.876
 2730SOL     OW 8725   0.675   4.187   4.981
 2730SOL    HW1 8726   0.638   4.106   4.947
 2730SOL    HW2 8727   0.684   4.243   4.904
 2731SOL     OW 8728   0.486   4.223   3.912
 2731SOL    HW1 8729   0.515   4.309   3.941
 2731SOL    HW2 8730   0.392   4.235   3.895
 2732SOL     OW 8731   1.720   3.869   4.236
 2732SOL    HW1 8732   1.792   3.855   4.174
 2732SOL    HW2 8733   1.704   3.783   4.274
 2733SOL     OW 8734   1.279   0.137   4.403
 2733SOL    HW1 8735   1.337   0.061   4.414
 2733SOL    HW2 8736   1.330   0.198   4.350
 2734SOL     OW 8737   1.839   3.896   4.691
 2734SOL    HW1 8738   1.868   3.809   4.663
 2734SOL    HW2 8739   1.753   3.907   4.651
 2735SOL     OW 8740   0.268   4.041   4.445
 2735SOL    HW1 8741   0.190   4.089   4.416
 2735SOL    HW2 8742   0.255   4.029   4.539
 2736SOL     OW 8743   0.906   0.092   3.942
 2736SOL    HW1 8744   0.988   0.131   3.911
 2736SOL    HW2 8745   0.928   0.053   4.027
 2737SOL     OW 8746   1.066   0.299   4.467
 2737SOL    HW1 8747   0.989   0.286   4.410
 2737SOL    HW2 8748   1.130   0.235   4.435
 2738SOL     OW 8749   1.020   3.964   4.689
 2738SOL    HW1 8750   1.015   3.916   4.607
 2738SOL    HW2 8751   1.015   3.896   4.757
 2739SOL     OW 8752   1.721   4.114   5.104
 2739SOL    HW1 8753   1.792   4.178   5.102
 2739SOL    HW2 8754   1.751   4.043   5.048
 2740SOL     OW 8755   0.674   3.922   5.223
 2740SOL    HW1 8756   0.757   3.901   5.182
 2740SOL    HW2 8757   0.697   3.952   5.311
 2741SOL     OW 8758   0.067   4.045   3.759
 2741SOL    HW1 8759   4.474   4.065   3.751
 2741SOL    HW2 8760   0.111   4.130   3.748
 2742SOL     OW 8761   0.087   3.902   4.029
 2742SOL    HW1 8762   0.076   3.969   3.962
 2742SOL    HW2 8763   0.161   3.850   4.000
 2743SOL     OW 8764   0.726   4.283   5.424
 2743SOL    HW1 8765   0.729   4.331   5.506
 2743SOL    HW2 8766   0.748   4.193   5.448
 2744SOL     OW 8767   1.218   4.042   4.178
 2744SOL    HW1 8768   1.281   3.970   4.170
 2744SOL    HW2 8769   1.247   4.090   4.256
 2745SOL     OW 8770   1.760   4.090   5.373
 2745SOL    HW1 8771   1.744   4.101   5.279
 2745SOL    HW2 8772   1.690   4.031   5.403
 2746SOL     OW 8773   1.111   0.227   3.827
 2746SOL    HW1 8774   1.097   0.270   3.742
 2746SOL    HW2 8775   1.196   0.183   3.818
 2747SOL     OW 8776   1.814   3.908   4.962
 2747SOL    HW1 8777   1.823   3.814   4.976
 2747SOL    HW2 8778   1.822   3.919   4.867
 2748SOL     OW 8779   0.451   4.154   4.259
 2748SOL    HW1 8780   0.464   4.080   4.200
 2748SOL    HW2 8781   0.392   4.121   4.327
 2749SOL     OW 8782   0.322   4.260   5.001
 2749SOL    HW1 8783   0.375   4.193   5.044
 2749SOL    HW2 8784   0.332   4.243   4.907
 2750SOL     OW 8785   1.432   3.948   4.842
 2750SOL    HW1 8786   1.457   3.869   4.888
 2750SOL    HW2 8787   1.380   3.998   4.905
 2751SOL     OW 8788   1.009   3.743   4.867
 2751SOL    HW1 8789   0.954   3.675   4.827
 2751SOL    HW2 8790   1.097   3.705   4.869
 2752SOL     OW 8791   1.352   3.777   3.888
 2752SOL    HW1 8792   1.380   3.714   3.823
 2752SOL    HW2 8793   1.265   3.748   3.915
 2753SOL     OW 8794   1.299   4.175   4.405
 2753SOL    HW1 8795   1.262   4.262   4.419
 2753SOL    HW2 8796   1.299   4.134   4.492
 2754SOL     OW 8797   1.586   3.927   4.601
 2754SOL    HW1 8798   1.526   3.948   4.673
 2754SOL    HW2 8799   1.587   4.005   4.546
 2755SOL     OW 8800   0.230   4.280   5.696
 2755SOL    HW1 8801   0.163   4.313   5.757
 2755SOL    HW2 8802   0.213   4.329   5.615
 2756SOL     OW 8803   0.209   3.995   6.577
 2756SOL    HW1 8804   0.245   3.968   6.662
 2756SOL    HW2 8805   0.134   3.938   6.563
 2757SOL     OW 8806   4.500   4.100   6.217
 2757SOL    HW1 8807   4.418   4.130   6.258
 2757SOL    HW2 8808   4.476   4.017   6.175
 2758SOL     OW 8809   1.729   4.335   5.824
 2758SOL    HW1 8810   1.730   4.323   5.729
 2758SOL    HW2 8811   1.732   4.246   5.859
 2759SOL     OW 8812   0.729   0.270   6.270
 2759SOL    HW1 8813   0.718   0.208   6.342
 2759SOL    HW2 8814   0.640   0.289   6.241
 2760SOL     OW 8815   0.445   4.120   7.074
 2760SOL    HW1 8816   0.526   4.069   7.076
 2760SOL    HW2 8817   0.376   4.054   7.084
 2761SOL     OW 8818   1.615   4.172   6.326
 2761SOL    HW1 8819   1.546   4.197   6.264
 2761SOL    HW2 8820   1.615   4.241   6.392
 2762SOL     OW 8821   1.597   3.847   7.054
 2762SOL    HW1 8822   1.601   3.928   7.003
 2762SOL    HW2 8823   1.582   3.876   7.144
 2763SOL     OW 8824   0.163   4.323   6.221
 2763SOL    HW1 8825   0.104   4.250   6.203
 2763SOL    HW2 8826   0.117   4.400   6.186
 2764SOL     OW 8827   0.122   0.003   7.174
 2764SOL    HW1 8828   0.216   4.485   7.173
 2764SOL    HW2 8829   0.113   0.089   7.133
 2765SOL     OW 8830   0.816   3.724   6.094
 2765SOL    HW1 8831   0.855   3.809   6.076
 2765SOL    HW2 8832   0.722   3.742   6.104
 2766SOL     OW 8833   0.329   3.979   7.385
 2766SOL    HW1 8834   0.374   4.058   7.416
 2766SOL    HW2 8835   0.240   3.987   7.419
 2767SOL     OW 8836   1.277   4.072   6.518
 2767SOL    HW1 8837   1.188   4.039   6.529
 2767SOL    HW2 8838   1.329   4.021   6.580
 2768SOL     OW 8839   0.828   4.304   7.033
 2768SOL    HW1 8840   0.788   4.309   7.120
 2768SOL    HW2 8841   0.760   4.266   6.978
 2769SOL     OW 8842   1.395   4.199   7.262
 2769SOL    HW1 8843   1.397   4.244   7.347
 2769SOL    HW2 8844   1.454   4.124   7.273
 2770SOL     OW 8845   0.998   4.150   6.819
 2770SOL    HW1 8846   0.926   4.171   6.879
 2770SOL    HW2 8847   0.959   4.091   6.755
 2771SOL     OW 8848   1.057   4.410   6.003
 2771SOL    HW1 8849   1.054   4.451   6.090
 2771SOL    HW2 8850   0.970   4.372   5.992
 2772SOL     OW 8851   0.055   0.065   6.438
 2772SOL    HW1 8852   0.142   0.026   6.444
 2772SOL    HW2 8853   0.049   0.097   6.348
 2773SOL     OW 8854   0.891   4.064   5.776
 2773SOL    HW1 8855   0.932   4.127   5.717
 2773SOL    HW2 8856   0.907   3.979   5.736
 2774SOL     OW 8857   1.708   4.298   7.415
 2774SOL    HW1 8858   1.721   4.387   7.381
 2774SOL    HW2 8859   1.730   4.241   7.342
 2775SOL     OW 8860   0.552   3.905   6.479
 2775SOL    HW1 8861   0.554   3.935   6.569
 2775SOL    HW2 8862   0.547   3.985   6.427
 2776SOL     OW 8863   1.490   4.465   6.324
 2776SOL    HW1 8864   1.473   4.410   6.400
 2776SOL    HW2 8865   1.530   0.044   6.360
 2777SOL     OW 8866   0.189   4.001   7.071
 2777SOL    HW1 8867   0.139   4.082   7.081
 2777SOL    HW2 8868   0.183   3.959   7.157
 2778SOL     OW 8869   1.401   3.830   6.018
 2778SOL    HW1 8870   1.391   3.806   5.926
 2778SOL    HW2 8871   1.495   3.841   6.030
 2779SOL     OW 8872   0.349   4.379   5.990
 2779SOL    HW1 8873   0.393   4.305   6.031
 2779SOL    HW2 8874   0.299   4.420   6.061
 2780SOL     OW 8875   1.535   3.950   7.311
 2780SOL    HW1 8876   1.544   3.971   7.404
 2780SOL    HW2 8877   1.467   3.882   7.308
 2781SOL     OW 8878   0.635   3.849   5.688
 2781SOL    HW1 8879   0.702   3.782   5.705
 2781SOL    HW2 8880   0.586   3.816   5.613
 2782SOL     OW 8881   0.766   4.002   7.341
 2782SOL    HW1 8882   0.842   3.944   7.340
 2782SOL    HW2 8883   0.717   3.977   7.419
 2783SOL     OW 8884   1.343   4.312   7.015
 2783SOL    HW1 8885   1.365   4.275   7.101
 2783SOL    HW2 8886   1.385   4.397   7.014
 2784SOL     OW 8887   0.923   4.236   6.484
 2784SOL    HW1 8888   0.901   4.220   6.392
 2784SOL    HW2 8889   0.962   4.154   6.514
 2785SOL     OW 8890   0.552   3.787   6.087
 2785SOL    HW1 8891   0.472   3.784   6.139
 2785SOL    HW2 8892   0.544   3.865   6.033
 2786SOL     OW 8893   0.294   3.770   5.764
 2786SOL    HW1 8894   0.355   3.837   5.735
 2786SOL    HW2 8895   0.348   3.705   5.808
 2787SOL     OW 8896   0.937   3.972   6.047
 2787SOL    HW1 8897   0.911   4.010   5.963
 2787SOL    HW2 8898   1.032   3.985   6.051
 2788SOL     OW 8899   1.075   4.396   7.108
 2788SOL    HW1 8900   0.992   4.366   7.071
 2788SOL    HW2 8901   1.142   4.357   7.052
 2789SOL     OW 8902   1.025   4.266   5.612
 2789SOL    HW1 8903   1.008   4.354   5.578
 2789SOL    HW2 8904   1.088   4.280   5.683
 2790SOL     OW 8905   0.085   4.257   6.996
 2790SOL    HW1 8906   0.159   4.270   6.936
 2790SOL    HW2 8907   0.052   4.345   7.012
 2791SOL     OW 8908   0.560   3.951   6.751
 2791SOL    HW1 8909   0.601   3.871   6.786
 2791SOL    HW2 8910   0.469   3.946   6.780
 2792SOL     OW 8911   0.870   4.190   6.223
 2792SOL    HW1 8912   0.835   4.249   6.157
 2792SOL    HW2 8913   0.888   4.108   6.176
 2793SOL     OW 8914   1.015   3.777   6.337
 2793SOL    HW1 8915   0.956   3.769   6.262
 2793SOL    HW2 8916   0.994   3.702   6.392
 2794SOL     OW 8917   1.478   4.311   6.551
 2794SOL    HW1 8918   1.418   4.239   6.571
 2794SOL    HW2 8919   1.528   4.323   6.631
 2795SOL     OW 8920   1.403   4.296   5.659
 2795SOL    HW1 8921   1.340   4.268   5.726
 2795SOL    HW2 8922   1.485   4.255   5.685
 2796SOL     OW 8923   0.523   3.985   5.901
 2796SOL    HW1 8924   0.569   3.937   5.832
 2796SOL    HW2 8925   0.510   4.073   5.866
 2797SOL     OW 8926   0.917   3.823   6.982
 2797SOL    HW1 8927   0.941   3.801   6.892
 2797SOL    HW2 8928   0.997   3.860   7.020
 2798SOL     OW 8929   0.443   0.003   6.848
 2798SOL    HW1 8930   0.499   0.001   6.926
 2798SOL    HW2 8931   0.405   4.416   6.844
 2799SOL     OW 8932   1.266   4.100   6.860
 2799SOL    HW1 8933   1.299   4.177   6.906
 2799SOL    HW2 8934   1.176   4.124   6.835
 2800SOL     OW 8935   0.556   4.252   6.450
 2800SOL    HW1 8936   0.574   4.294   6.366
 2800SOL    HW2 8937   0.621   4.289   6.510
 2801SOL     OW 8938   1.569   4.338   6.064
 2801SOL    HW1 8939   1.542   4.404   6.127
 2801SOL    HW2 8940   1.629   4.384   6.005
 2802SOL     OW 8941   0.996   3.847   7.341
 2802SOL    HW1 8942   1.053   3.919   7.314
 2802SOL    HW2 8943   1.044   3.768   7.316
 2803SOL     OW 8944   0.497   3.767   7.333
 2803SOL    HW1 8945   0.456   3.710   7.268
 2803SOL    HW2 8946   0.437   3.841   7.342
 2804SOL     OW 8947   1.210   4.254   5.850
 2804SOL    HW1 8948   1.220   4.174   5.902
 2804SOL    HW2 8949   1.161   4.314   5.906
 2805SOL     OW 8950   0.299   3.923   6.830
 2805SOL    HW1 8951   0.259   3.951   6.913
 2805SOL    HW2 8952   0.287   3.828   6.828
 2806SOL     OW 8953   0.733   4.360   6.631
 2806SOL    HW1 8954   0.806   4.323   6.581
 2806SOL    HW2 8955   0.742   4.454   6.619
 2807SOL     OW 8956   1.751   0.133   7.440
 2807SOL    HW1 8957   1.686   0.148   7.372
 2807SOL    HW2 8958   1.708   0.159   7.521
 2808SOL     OW 8959   0.311   3.793   6.204
 2808SOL    HW1 8960   0.286   3.882   6.231
 2808SOL    HW2 8961   0.307   3.742   6.285
 2809SOL     OW 8962   1.613   4.091   5.955
 2809SOL    HW1 8963   1.643   4.030   6.023
 2809SOL    HW2 8964   1.590   4.170   6.002
 2810SOL     OW 8965   1.527   3.999   5.713
 2810SOL    HW1 8966   1.464   3.932   5.739
 2810SOL    HW2 8967   1.562   4.032   5.796
 2811SOL     OW 8968   0.320   0.015   6.500
 2811SOL    HW1 8969   0.400   0.066   6.509
 2811SOL    HW2 8970   0.334   4.438   6.556
 2812SOL     OW 8971   0.334   4.237   6.597
 2812SOL    HW1 8972   0.290   4.155   6.574
 2812SOL    HW2 8973   0.409   4.242   6.538
 2813SOL     OW 8974   1.137   4.093   7.271
 2813SOL    HW1 8975   1.085   4.152   7.326
 2813SOL    HW2 8976   1.222   4.138   7.263
 2814SOL     OW 8977   1.160   3.927   7.054
 2814SOL    HW1 8978   1.151   3.987   7.128
 2814SOL    HW2 8979   1.201   3.979   6.985
 2815SOL     OW 8980   0.024   4.278   6.692
 2815SOL    HW1 8981   0.110   4.260   6.654
 2815SOL    HW2 8982   0.026   4.238   6.779
 2816SOL     OW 8983   0.175   4.236   7.279
 2816SOL    HW1 8984   0.263   4.218   7.246
 2816SOL    HW2 8985   0.149   4.317   7.234
 2817SOL     OW 8986   0.820   4.284   5.934
 2817SOL    HW1 8987   0.820   4.208   5.875
 2817SOL    HW2 8988   0.731   4.318   5.928
 2818SOL     OW 8989   1.636   4.318   6.773
 2818SOL    HW1 8990   1.632   4.260   6.849
 2818SOL    HW2 8991   1.725   4.304   6.738
 2819SOL     OW 8992   0.675   4.187   6.843
 2819SOL    HW1 8993   0.638   4.105   6.809
 2819SOL    HW2 8994   0.684   4.243   6.766
 2820SOL     OW 8995   0.486   4.223   5.774
 2820SOL    HW1 8996   0.515   4.309   5.804
 2820SOL    HW2 8997   0.392   4.235   5.757
 2821SOL     OW 8998   1.720   3.869   6.098
 2821SOL    HW1 8999   1.792   3.855   6.036
 2821SOL    HW2 9000   1.704   3.783   6.136
 2822SOL     OW 9001   1.279   0.137   6.265
 2822SOL    HW1 9002   1.337   0.061   6.276
 2822SOL    HW2 9003   1.330   0.198   6.213
 2823SOL     OW 9004   1.840   3.896   6.553
 2823SOL    HW1 9005   1.868   3.809   6.525
 2823SOL    HW2 9006   1.753   3.908   6.513
 2824SOL     OW 9007   0.268   4.041   6.307
 2824SOL    HW1 9008   0.190   4.089   6.278
 2824SOL    HW2 9009   0.255   4.029   6.401
 2825SOL     OW 9010   0.906   0.092   5.804
 2825SOL    HW1 9011   0.988   0.131   5.773
 2825SOL    HW2 9012   0.928   0.053   5.889
 2826SOL     OW 9013   1.066   0.299   6.328
 2826SOL    HW1 9014   0.989   0.286   6.272
 2826SOL    HW2 9015   1.130   0.235   6.297
 2827SOL     OW 9016   1.020   3.964   6.551
 2827SOL    HW1 9017   1.015   3.915   6.468
 2827SOL    HW2 9018   1.015   3.896   6.619
 2828SOL     OW 9019   1.721   4.114   6.966
 2828SOL    HW1 9020   1.792   4.178   6.964
 2828SOL    HW2 9021   1.751   4.043   6.909
 2829SOL     OW 9022   0.674   3.923   7.085
 2829SOL    HW1 9023   0.757   3.901   7.044
 2829SOL    HW2 9024   0.697   3.952   7.173
 2830SOL     OW 9025   0.067   4.045   5.621
 2830SOL    HW1 9026   4.474   4.064   5.613
 2830SOL    HW2 9027   0.110   4.130   5.610
 2831SOL     OW 9028   0.087   3.902   5.891
 2831SOL    HW1 9029   0.076   3.969   5.824
 2831SOL    HW2 9030   0.161   3.850   5.862
 2832SOL     OW 9031   0.726   4.283   7.286
 2832SOL    HW1 9032   0.729   4.331   7.368
 2832SOL    HW2 9033   0.748   4.193   7.310
 2833SOL     OW 9034   1.219   4.042   6.040
 2833SOL    HW1 9035   1.281   3.970   6.033
 2833SOL    HW2 9036   1.247   4.090   6.118
 2834SOL     OW 9037   1.760   4.090   7.235
 2834SOL    HW1 9038   1.743   4.101   7.141
 2834SOL    HW2 9039   1.690   4.031   7.265
 2835SOL     OW 9040   1.111   0.227   5.689
 2835SOL    HW1 9041   1.097   0.269   5.604
 2835SOL    HW2 9042   1.195   0.183   5.680
 2836SOL     OW 9043   1.815   3.908   6.824
 2836SOL    HW1 9044   1.822   3.814   6.838
 2836SOL    HW2 9045   1.822   3.919   6.729
 2837SOL     OW 9046   0.451   4.154   6.121
 2837SOL    HW1 9047   0.464   4.080   6.062
 2837SOL    HW2 9048   0.392   4.121   6.189
 2838SOL     OW 9049   0.322   4.260   6.863
 2838SOL    HW1 9050   0.375   4.193   6.906
 2838SOL    HW2 9051   0.332   4.243   6.769
 2839SOL     OW 9052   1.432   3.948   6.704
 2839SOL    HW1 9053   1.457   3.868   6.751
 2839SOL    HW2 9054   1.380   3.998   6.767
 2840SOL     OW 9055   1.009   3.743   6.729
 2840SOL    HW1 9056   0.954   3.675   6.690
 2840SOL    HW2 9057   1.096   3.705   6.731
 2841SOL     OW 9058   1.352   3.777   5.751
 2841SOL    HW1 9059   1.379   3.715   5.683
 2841SOL    HW2 9060   1.265   3.748   5.778
 2842SOL     OW 9061   1.299   4.175   6.267
 2842SOL    HW1 9062   1.262   4.262   6.281
 2842SOL    HW2 9063   1.299   4.134   6.354
 2843SOL     OW 9064   1.586   3.927   6.463
 2843SOL    HW1 9065   1.526   3.948   6.535
 2843SOL    HW2 9066   1.587   4.005   6.408
 2844SOL     OW 9067   0.229   4.280   7.558
 2844SOL    HW1 9068   0.163   4.313   7.619
 2844SOL    HW2 9069   0.213   4.329   7.477
 2845SOL     OW 9070   0.209   3.995   8.439
 2845SOL    HW1 9071   0.245   3.968   8.524
 2845SOL    HW2 9072   0.134   3.938   8.425
 2846SOL     OW 9073   4.500   4.100   8.079
 2846SOL    HW1 9074   4.418   4.130   8.120
 2846SOL    HW2 9075   4.476   4.017   8.037
 2847SOL     OW 9076   1.730   4.335   7.686
 2847SOL    HW1 9077   1.730   4.322   7.591
 2847SOL    HW2 9078   1.732   4.246   7.722
 2848SOL     OW 9079   0.729   0.270   8.132
 2848SOL    HW1 9080   0.718   0.208   8.204
 2848SOL    HW2 9081   0.640   0.289   8.103
 2849SOL     OW 9082   0.445   4.119   8.936
 2849SOL    HW1 9083   0.526   4.069   8.938
 2849SOL    HW2 9084   0.376   4.054   8.946
 2850SOL     OW 9085   1.615   4.172   8.188
 2850SOL    HW1 9086   1.546   4.197   8.126
 2850SOL    HW2 9087   1.615   4.241   8.254
 2851SOL     OW 9088   1.597   3.847   8.917
 2851SOL    HW1 9089   1.601   3.928   8.865
 2851SOL    HW2 9090   1.582   3.877   9.006
 2852SOL     OW 9091   0.163   4.323   8.083
 2852SOL    HW1 9092   0.104   4.250   8.065
 2852SOL    HW2 9093   0.118   4.400   8.048
 2853SOL     OW 9094   0.122   0.002   9.036
 2853SOL    HW1 9095   0.216   4.485   9.035
 2853SOL    HW2 9096   0.113   0.088   8.995
 2854SOL     OW 9097   0.816   3.724   7.956
 2854SOL    HW1 9098   0.855   3.810   7.938
 2854SOL    HW2 9099   0.722   3.742   7.966
 2855SOL     OW 9100   0.329   3.979   9.246
 2855SOL    HW1 9101   0.374   4.058   9.278
 2855SOL    HW2 9102   0.240   3.987   9.280
 2856SOL     OW 9103   1.277   4.072   8.380
 2856SOL    HW1 9104   1.188   4.039   8.391
 2856SOL    HW2 9105   1.329   4.021   8.442
 2857SOL     OW 9106   0.828   4.304   8.895
 2857SOL    HW1 9107   0.788   4.309   8.982
 2857SOL    HW2 9108   0.759   4.266   8.840
 2858SOL     OW 9109   1.395   4.199   9.124
 2858SOL    HW1 9110   1.397   4.244   9.209
 2858SOL    HW2 9111   1.454   4.124   9.135
 2859SOL     OW 9112   0.998   4.150   8.681
 2859SOL    HW1 9113   0.926   4.171   8.741
 2859SOL    HW2 9114   0.959   4.091   8.617
 2860SOL     OW 9115   1.057   4.410   7.865
 2860SOL    HW1 9116   1.054   4.451   7.952
 2860SOL    HW2 9117   0.970   4.372   7.854
 2861SOL     OW 9118   0.055   0.064   8.300
 2861SOL    HW1 9119   0.142   0.026   8.306
 2861SOL    HW2 9120   0.049   0.097   8.210
 2862SOL     OW 9121   0.891   4.064   7.638
 2862SOL    HW1 9122   0.933   4.126   7.579
 2862SOL    HW2 9123   0.908   3.978   7.599
 2863SOL     OW 9124   1.708   4.298   9.277
 2863SOL    HW1 9125   1.721   4.387   9.243
 2863SOL    HW2 9126   1.730   4.241   9.204
 2864SOL     OW 9127   0.552   3.905   8.341
 2864SOL    HW1 9128   0.554   3.935   8.431
 2864SOL    HW2 9129   0.547   3.985   8.289
 2865SOL     OW 9130   1.490   4.465   8.186
 2865SOL    HW1 9131   1.473   4.410   8.262
 2865SOL    HW2 9132   1.530   0.044   8.222
 2866SOL     OW 9133   0.189   4.001   8.933
 2866SOL    HW1 9134   0.139   4.082   8.943
 2866SOL    HW2 9135   0.183   3.959   9.019
 2867SOL     OW 9136   1.401   3.831   7.880
 2867SOL    HW1 9137   1.391   3.806   7.788
 2867SOL    HW2 9138   1.495   3.839   7.893
 2868SOL     OW 9139   0.349   4.379   7.852
 2868SOL    HW1 9140   0.393   4.305   7.893
 2868SOL    HW2 9141   0.299   4.420   7.923
 2869SOL     OW 9142   1.535   3.950   9.173
 2869SOL    HW1 9143   1.544   3.971   9.266
 2869SOL    HW2 9144   1.467   3.882   9.170
 2870SOL     OW 9145   0.635   3.849   7.550
 2870SOL    HW1 9146   0.702   3.782   7.567
 2870SOL    HW2 9147   0.586   3.815   7.475
 2871SOL     OW 9148   0.766   4.002   9.203
 2871SOL    HW1 9149   0.842   3.944   9.202
 2871SOL    HW2 9150   0.717   3.977   9.281
 2872SOL     OW 9151   1.343   4.312   8.877
 2872SOL    HW1 9152   1.365   4.275   8.963
 2872SOL    HW2 9153   1.385   4.397   8.876
 2873SOL     OW 9154   0.923   4.236   8.346
 2873SOL    HW1 9155   0.901   4.220   8.254
 2873SOL    HW2 9156   0.962   4.154   8.376
 2874SOL     OW 9157   0.552   3.787   7.949
 2874SOL    HW1 9158   0.472   3.784   8.001
 2874SOL    HW2 9159   0.544   3.865   7.895
 2875SOL     OW 9160   0.294   3.770   7.626
 2875SOL    HW1 9161   0.356   3.837   7.597
 2875SOL    HW2 9162   0.348   3.705   7.670
 2876SOL     OW 9163   0.937   3.972   7.909
 2876SOL    HW1 9164   0.911   4.010   7.825
 2876SOL    HW2 9165   1.032   3.985   7.913
 2877SOL     OW 9166   1.075   4.396   8.970
 2877SOL    HW1 9167   0.992   4.366   8.933
 2877SOL    HW2 9168   1.142   4.357   8.914
 2878SOL     OW 9169   1.025   4.266   7.474
 2878SOL    HW1 9170   1.009   4.354   7.440
 2878SOL    HW2 9171   1.088   4.279   7.545
 2879SOL     OW 9172   0.084   4.257   8.857
 2879SOL    HW1 9173   0.159   4.270   8.798
 2879SOL    HW2 9174   0.052   4.345   8.874
 2880SOL     OW 9175   0.560   3.951   8.613
 2880SOL    HW1 9176   0.601   3.871   8.648
 2880SOL    HW2 9177   0.469   3.946   8.642
 2881SOL     OW 9178   0.870   4.190   8.085
 2881SOL    HW1 9179   0.835   4.249   8.019
 2881SOL    HW2 9180   0.888   4.108   8.038
 2882SOL     OW 9181   1.014   3.777   8.199
 2882SOL    HW1 9182   0.956   3.769   8.124
 2882SOL    HW2 9183   0.994   3.702   8.254
 2883SOL     OW 9184   1.478   4.311   8.413
 2883SOL    HW1 9185   1.418   4.239   8.433
 2883SOL    HW2 9186   1.528   4.323   8.493
 2884SOL     OW 9187   1.403   4.296   7.521
 2884SOL    HW1 9188   1.340   4.268   7.588
 2884SOL    HW2 9189   1.485   4.255   7.547
 2885SOL     OW 9190   0.523   3.985   7.763
 2885SOL    HW1 9191   0.569   3.937   7.694
 2885SOL    HW2 9192   0.510   4.073   7.728
 2886SOL     OW 9193   0.917   3.823   8.844
 2886SOL    HW1 9194   0.941   3.801   8.754
 2886SOL    HW2 9195   0.997   3.860   8.881
 2887SOL     OW 9196   0.443   0.003   8.710
 2887SOL    HW1 9197   0.499   0.001   8.788
 2887SOL    HW2 9198   0.405   4.416   8.706
 2888SOL     OW 9199   1.266   4.100   8.723
 2888SOL    HW1 9200   1.299   4.177   8.768
 2888SOL    HW2 9201   1.176   4.124   8.697
 2889SOL     OW 9202   0.556   4.252   8.312
 2889SOL    HW1 9203   0.574   4.294   8.228
 2889SOL    HW2 9204   0.621   4.289   8.372
 2890SOL     OW 9205   1.569   4.338   7.926
 2890SOL    HW1 9206   1.542   4.404   7.989
 2890SOL    HW2 9207   1.629   4.385   7.867
 2891SOL     OW 9208   0.996   3.847   9.203
 2891SOL    HW1 9209   1.053   3.919   9.176
 2891SOL    HW2 9210   1.044   3.768   9.178
 2892SOL     OW 9211   0.497   3.767   9.195
 2892SOL    HW1 9212   0.456   3.710   9.130
 2892SOL    HW2 9213   0.437   3.841   9.204
 2893SOL     OW 9214   1.210   4.254   7.712
 2893SOL    HW1 9215   1.220   4.174   7.764
 2893SOL    HW2 9216   1.161   4.314   7.768
 2894SOL     OW 9217   0.299   3.923   8.692
 2894SOL    HW1 9218   0.259   3.951   8.775
 2894SOL    HW2 9219   0.287   3.828   8.690
 2895SOL     OW 9220   0.733   4.360   8.493
 2895SOL    HW1 9221   0.806   4.323   8.444
 2895SOL    HW2 9222   0.742   4.454   8.481
 2896SOL     OW 9223   1.751   0.133   9.302
 2896SOL    HW1 9224   1.686   0.148   9.234
 2896SOL    HW2 9225   1.708   0.158   9.383
 2897SOL     OW 9226   0.310   3.793   8.066
 2897SOL    HW1 9227   0.286   3.882   8.093
 2897SOL    HW2 9228   0.307   3.742   8.147
 2898SOL     OW 9229   1.614   4.091   7.816
 2898SOL    HW1 9230   1.643   4.030   7.884
 2898SOL    HW2 9231   1.590   4.170   7.864
 2899SOL     OW 9232   1.527   3.999   7.575
 2899SOL    HW1 9233   1.464   3.932   7.601
 2899SOL    HW2 9234   1.562   4.032   7.657
 2900SOL     OW 9235   0.319   0.015   8.362
 2900SOL    HW1 9236   0.400   0.066   8.371
 2900SOL    HW2 9237   0.334   4.438   8.417
 2901SOL     OW 9238   0.334   4.237   8.459
 2901SOL    HW1 9239   0.290   4.155   8.436
 2901SOL    HW2 9240   0.409   4.242   8.400
 2902SOL     OW 9241   1.137   4.094   9.133
 2902SOL    HW1 9242   1.085   4.152   9.188
 2902SOL    HW2 9243   1.222   4.138   9.125
 2903SOL     OW 9244   1.160   3.927   8.917
 2903SOL    HW1 9245   1.151   3.987   8.990
 2903SOL    HW2 9246   1.201   3.979   8.847
 2904SOL     OW 9247   0.023   4.278   8.554
 2904SOL    HW1 9248   0.110   4.260   8.516
 2904SOL    HW2 9249   0.026   4.238   8.641
 2905SOL     OW 9250   0.175   4.236   9.141
 2905SOL    HW1 9251   0.264   4.218   9.108
 2905SOL    HW2 9252   0.149   4.317   9.096
 2906SOL     OW 9253   0.820   4.284   7.796
 2906SOL    HW1 9254   0.820   4.208   7.737
 2906SOL    HW2 9255   0.731   4.318   7.790
 2907SOL     OW 9256   1.636   4.318   8.635
 2907SOL    HW1 9257   1.632   4.260   8.711
 2907SOL    HW2 9258   1.725   4.304   8.600
 2908SOL     OW 9259   0.674   4.187   8.705
 2908SOL    HW1 9260   0.638   4.105   8.671
 2908SOL    HW2 9261   0.684   4.243   8.628
 2909SOL     OW 9262   0.486   4.223   7.636
 2909SOL    HW1 9263   0.515   4.309   7.666
 2909SOL    HW2 9264   0.392   4.235   7.619
 2910SOL     OW 9265   1.720   3.869   7.960
 2910SOL    HW1 9266   1.792   3.855   7.898
 2910SOL    HW2 9267   1.704   3.783   7.998
 2911SOL     OW 9268   1.279   0.137   8.127
 2911SOL    HW1 9269   1.337   0.061   8.138
 2911SOL    HW2 9270   1.330   0.198   8.074
 2912SOL     OW 9271   1.840   3.896   8.415
 2912SOL    HW1 9272   1.868   3.809   8.387
 2912SOL    HW2 9273   1.754   3.908   8.375
 2913SOL     OW 9274   0.268   4.041   8.168
 2913SOL    HW1 9275   0.190   4.089   8.140
 2913SOL    HW2 9276   0.255   4.029   8.263
 2914SOL     OW 9277   0.906   0.092   7.666
 2914SOL    HW1 9278   0.988   0.131   7.635
 2914SOL    HW2 9279   0.928   0.053   7.751
 2915SOL     OW 9280   1.066   0.299   8.190
 2915SOL    HW1 9281   0.989   0.286   8.134
 2915SOL    HW2 9282   1.130   0.235   8.159
 2916SOL     OW 9283   1.020   3.964   8.413
 2916SOL    HW1 9284   1.015   3.915   8.331
 2916SOL    HW2 9285   1.015   3.896   8.481
 2917SOL     OW 9286   1.721   4.114   8.828
 2917SOL    HW1 9287   1.792   4.178   8.826
 2917SOL    HW2 9288   1.751   4.043   8.771
 2918SOL     OW 9289   0.674   3.923   8.947
 2918SOL    HW1 9290   0.757   3.901   8.906
 2918SOL    HW2 9291   0.697   3.952   9.035
 2919SOL     OW 9292   0.067   4.045   7.483
 2919SOL    HW1 9293   4.474   4.065   7.475
 2919SOL    HW2 9294   0.111   4.130   7.472
 2920SOL     OW 9295   0.087   3.902   7.753
 2920SOL    HW1 9296   0.076   3.969   7.686
 2920SOL    HW2 9297   0.161   3.850   7.724
 2921SOL     OW 9298   0.726   4.283   9.148
 2921SOL    HW1 9299   0.728   4.331   9.230
 2921SOL    HW2 9300   0.748   4.193   9.172
 2922SOL     OW 9301   1.219   4.043   7.902
 2922SOL    HW1 9302   1.281   3.970   7.894
 2922SOL    HW2 9303   1.247   4.090   7.980
 2923SOL     OW 9304   1.760   4.090   9.096
 2923SOL    HW1 9305   1.743   4.101   9.003
 2923SOL    HW2 9306   1.690   4.031   9.127
 2924SOL     OW 9307   1.111   0.227   7.551
 2924SOL    HW1 9308   1.097   0.269   7.466
 2924SOL    HW2 9309   1.195   0.183   7.542
 2925SOL     OW 9310   1.815   3.908   8.686
 2925SOL    HW1 9311   1.822   3.814   8.700
 2925SOL    HW2 9312   1.822   3.919   8.591
 2926SOL     OW 9313   0.451   4.154   7.983
 2926SOL    HW1 9314   0.464   4.080   7.924
 2926SOL    HW2 9315   0.392   4.121   8.051
 2927SOL     OW 9316   0.322   4.260   8.725
 2927SOL    HW1 9317   0.375   4.193   8.768
 2927SOL    HW2 9318   0.332   4.243   8.631
 2928SOL     OW 9319   1.432   3.949   8.566
 2928SOL    HW1 9320   1.456   3.868   8.612
 2928SOL    HW2 9321   1.380   3.998   8.629
 2929SOL     OW 9322   1.009   3.743   8.591
 2929SOL    HW1 9323   0.954   3.675   8.551
 2929SOL    HW2 9324   1.097   3.705   8.593
 2930SOL     OW 9325   1.352   3.777   7.612
 2930SOL    HW1 9326   1.380   3.713   7.547
 2930SOL    HW2 9327   1.265   3.748   7.639
 2931SOL     OW 9328   1.300   4.175   8.129
 2931SOL    HW1 9329   1.261   4.262   8.143
 2931SOL    HW2 9330   1.299   4.134   8.216
 2932SOL     OW 9331   1.587   3.927   8.325
 2932SOL    HW1 9332   1.526   3.948   8.397
 2932SOL    HW2 9333   1.587   4.005   8.270
 2933SOL     OW 9334   0.229   4.280   9.420
 2933SOL    HW1 9335   0.163   4.313   9.481
 2933SOL    HW2 9336   0.213   4.329   9.339
 2934SOL     OW 9337   0.211   3.995  10.300
 2934SOL    HW1 9338   0.246   3.969  10.386
 2934SOL    HW2 9339   0.134   3.940  10.289
 2935SOL     OW 9340   4.499   4.101   9.941
 2935SOL    HW1 9341   4.418   4.130   9.982
 2935SOL    HW2 9342   4.476   4.017   9.899
 2936SOL     OW 9343   1.730   4.335   9.548
 2936SOL    HW1 9344   1.730   4.322   9.453
 2936SOL    HW2 9345   1.731   4.246   9.584
 2937SOL     OW 9346   0.729   0.270   9.994
 2937SOL    HW1 9347   0.718   0.208  10.067
 2937SOL    HW2 9348   0.640   0.289   9.965
 2938SOL     OW 9349   0.447   4.124  10.790
 2938SOL    HW1 9350   0.526   4.070  10.797
 2938SOL    HW2 9351   0.376   4.065  10.815
 2939SOL     OW 9352   1.615   4.172  10.050
 2939SOL    HW1 9353   1.546   4.197   9.989
 2939SOL    HW2 9354   1.615   4.241  10.116
 2940SOL     OW 9355   1.589   3.840  10.778
 2940SOL    HW1 9356   1.603   3.921  10.729
 2940SOL    HW2 9357   1.590   3.868  10.870
 2941SOL     OW 9358   0.163   4.322   9.944
 2941SOL    HW1 9359   0.103   4.250   9.927
 2941SOL    HW2 9360   0.118   4.399   9.910
 2942SOL     OW 9361   0.101   4.490  10.935
 2942SOL    HW1 9362   0.195   4.476  10.945
 2942SOL    HW2 9363   0.094   0.074  10.890
 2943SOL     OW 9364   0.816   3.724   9.818
 2943SOL    HW1 9365   0.855   3.809   9.800
 2943SOL    HW2 9366   0.722   3.742   9.828
 2944SOL     OW 9367   0.340   3.985   0.008
 2944SOL    HW1 9368   0.384   4.065   0.036
 2944SOL    HW2 9369   0.247   4.005   0.014
 2945SOL     OW 9370   1.277   4.073  10.243
 2945SOL    HW1 9371   1.188   4.039  10.252
 2945SOL    HW2 9372   1.329   4.020  10.304
 2946SOL     OW 9373   0.825   4.300  10.763
 2946SOL    HW1 9374   0.779   4.313  10.846
 2946SOL    HW2 9375   0.759   4.263  10.704
 2947SOL     OW 9376   0.997   4.149  10.545
 2947SOL    HW1 9377   0.923   4.171  10.601
 2947SOL    HW2 9378   0.961   4.092  10.478
 2948SOL     OW 9379   1.057   4.410   9.727
 2948SOL    HW1 9380   1.054   4.451   9.814
 2948SOL    HW2 9381   0.970   4.372   9.716
 2949SOL     OW 9382   0.054   0.063  10.161
 2949SOL    HW1 9383   0.142   0.026  10.169
 2949SOL    HW2 9384   0.051   0.099  10.072
 2950SOL     OW 9385   0.891   4.064   9.500
 2950SOL    HW1 9386   0.932   4.126   9.441
 2950SOL    HW2 9387   0.908   3.978   9.461
 2951SOL     OW 9388   0.552   3.905  10.203
 2951SOL    HW1 9389   0.554   3.935  10.294
 2951SOL    HW2 9390   0.549   3.985  10.151
 2952SOL     OW 9391   1.490   4.465  10.048
 2952SOL    HW1 9392   1.473   4.410  10.124
 2952SOL    HW2 9393   1.530   0.044  10.084
 2953SOL     OW 9394   0.191   4.001  10.797
 2953SOL    HW1 9395   0.142   4.083  10.804
 2953SOL    HW2 9396   0.184   3.961  10.883
 2954SOL     OW 9397   1.401   3.830   9.742
 2954SOL    HW1 9398   1.391   3.806   9.650
 2954SOL    HW2 9399   1.495   3.839   9.755
 2955SOL     OW 9400   0.348   4.379   9.714
 2955SOL    HW1 9401   0.393   4.305   9.755
 2955SOL    HW2 9402   0.299   4.420   9.785
 2956SOL     OW 9403   0.635   3.849   9.412
 2956SOL    HW1 9404   0.702   3.783   9.429
 2956SOL    HW2 9405   0.586   3.815   9.337
 2957SOL     OW 9406   0.770   4.002  11.045
 2957SOL    HW1 9407   0.835   3.942  11.082
 2957SOL    HW2 9408   0.706   4.015   0.016
 2958SOL     OW 9409   1.352   4.308  10.743
 2958SOL    HW1 9410   1.371   4.289  10.835
 2958SOL    HW2 9411   1.377   4.400  10.732
 2959SOL     OW 9412   0.924   4.236  10.208
 2959SOL    HW1 9413   0.901   4.220  10.116
 2959SOL    HW2 9414   0.962   4.153  10.238
 2960SOL     OW 9415   0.552   3.786   9.811
 2960SOL    HW1 9416   0.472   3.784   9.863
 2960SOL    HW2 9417   0.544   3.865   9.757
 2961SOL     OW 9418   0.294   3.770   9.488
 2961SOL    HW1 9419   0.356   3.837   9.460
 2961SOL    HW2 9420   0.348   3.705   9.532
 2962SOL     OW 9421   0.937   3.972   9.771
 2962SOL    HW1 9422   0.911   4.010   9.687
 2962SOL    HW2 9423   1.032   3.985   9.775
 2963SOL     OW 9424   1.079   4.380  10.824
 2963SOL    HW1 9425   0.992   4.363  10.788
 2963SOL    HW2 9426   1.139   4.345  10.758
 2964SOL     OW 9427   1.025   4.266   9.336
 2964SOL    HW1 9428   1.008   4.354   9.302
 2964SOL    HW2 9429   1.088   4.279   9.407
 2965SOL     OW 9430   0.083   4.254  10.722
 2965SOL    HW1 9431   0.156   4.262  10.660
 2965SOL    HW2 9432   0.052   4.344  10.733
 2966SOL     OW 9433   0.560   3.950  10.475
 2966SOL    HW1 9434   0.600   3.872  10.512
 2966SOL    HW2 9435   0.468   3.946  10.504
 2967SOL     OW 9436   0.871   4.190   9.947
 2967SOL    HW1 9437   0.835   4.249   9.881
 2967SOL    HW2 9438   0.888   4.108   9.900
 2968SOL     OW 9439   1.014   3.777  10.062
 2968SOL    HW1 9440   0.956   3.769   9.986
 2968SOL    HW2 9441   0.993   3.702  10.116
 2969SOL     OW 9442   1.477   4.311  10.274
 2969SOL    HW1 9443   1.418   4.239  10.294
 2969SOL    HW2 9444   1.528   4.323  10.355
 2970SOL     OW 9445   1.403   4.296   9.383
 2970SOL    HW1 9446   1.340   4.268   9.450
 2970SOL    HW2 9447   1.485   4.255   9.409
 2971SOL     OW 9448   0.523   3.985   9.625
 2971SOL    HW1 9449   0.569   3.937   9.555
 2971SOL    HW2 9450   0.510   4.073   9.590
 2972SOL     OW 9451   0.918   3.823  10.705
 2972SOL    HW1 9452   0.942   3.802  10.615
 2972SOL    HW2 9453   0.996   3.863  10.742
 2973SOL     OW 9454   0.446   4.497  10.559
 2973SOL    HW1 9455   0.498   0.005  10.639
 2973SOL    HW2 9456   0.393   4.419  10.572
 2974SOL     OW 9457   1.266   4.099  10.587
 2974SOL    HW1 9458   1.302   4.176  10.631
 2974SOL    HW2 9459   1.178   4.125  10.561
 2975SOL     OW 9460   0.560   4.249  10.171
 2975SOL    HW1 9461   0.577   4.295  10.089
 2975SOL    HW2 9462   0.622   4.288  10.233
 2976SOL     OW 9463   1.569   4.338   9.788
 2976SOL    HW1 9464   1.542   4.404   9.852
 2976SOL    HW2 9465   1.629   4.385   9.729
 2977SOL     OW 9466   0.491   0.001  11.002
 2977SOL    HW1 9467   0.480   0.050  10.920
 2977SOL    HW2 9468   0.491   4.409  10.975
 2978SOL     OW 9469   1.210   4.254   9.574
 2978SOL    HW1 9470   1.220   4.174   9.626
 2978SOL    HW2 9471   1.161   4.314   9.630
 2979SOL     OW 9472   0.299   3.921  10.554
 2979SOL    HW1 9473   0.262   3.951  10.636
 2979SOL    HW2 9474   0.285   3.826  10.554
 2980SOL     OW 9475   0.733   4.359  10.355
 2980SOL    HW1 9476   0.807   4.324  10.305
 2980SOL    HW2 9477   0.740   4.454  10.344
 2981SOL     OW 9478   0.310   3.793   9.928
 2981SOL    HW1 9479   0.286   3.882   9.955
 2981SOL    HW2 9480   0.307   3.742  10.009
 2982SOL     OW 9481   1.614   4.091   9.678
 2982SOL    HW1 9482   1.643   4.030   9.746
 2982SOL    HW2 9483   1.590   4.170   9.726
 2983SOL     OW 9484   1.527   3.999   9.437
 2983SOL    HW1 9485   1.464   3.932   9.463
 2983SOL    HW2 9486   1.562   4.032   9.519
 2984SOL     OW 9487   0.319   0.015  10.225
 2984SOL    HW1 9488   0.399   0.066  10.235
 2984SOL    HW2 9489   0.333   4.437  10.278
 2985SOL     OW 9490   0.334   4.239  10.311
 2985SOL    HW1 9491   0.291   4.156  10.289
 2985SOL    HW2 9492   0.410   4.241  10.253
 2986SOL     OW 9493   1.157   3.932  10.782
 2986SOL    HW1 9494   1.165   3.991  10.857
 2986SOL    HW2 9495   1.198   3.979  10.709
 2987SOL     OW 9496   0.023   4.275  10.413
 2987SOL    HW1 9497   0.111   4.263  10.378
 2987SOL    HW2 9498   0.028   4.240  10.502
 2988SOL     OW 9499   1.346   0.194  10.986
 2988SOL    HW1 9500   1.417   0.255  11.008
 2988SOL    HW2 9501   1.373   0.155  10.903
 2989SOL     OW 9502   0.820   4.284   9.657
 2989SOL    HW1 9503   0.820   4.208   9.598
 2989SOL    HW2 9504   0.731   4.318   9.652
 2990SOL     OW 9505   1.636   4.317  10.496
 2990SOL    HW1 9506   1.633   4.259  10.572
 2990SOL    HW2 9507   1.725   4.306  10.461
 2991SOL     OW 9508   0.682   4.184  10.566
 2991SOL    HW1 9509   0.639   4.105  10.533
 2991SOL    HW2 9510   0.684   4.243  10.491
 2992SOL     OW 9511   0.486   4.223   9.498
 2992SOL    HW1 9512   0.515   4.309   9.528
 2992SOL    HW2 9513   0.392   4.235   9.481
 2993SOL     OW 9514   1.720   3.869   9.821
 2993SOL    HW1 9515   1.792   3.855   9.760
 2993SOL    HW2 9516   1.704   3.783   9.860
 2994SOL     OW 9517   1.280   0.137   9.989
 2994SOL    HW1 9518   1.337   0.061  10.000
 2994SOL    HW2 9519   1.331   0.198   9.936
 2995SOL     OW 9520   1.840   3.897  10.277
 2995SOL    HW1 9521   1.868   3.809  10.250
 2995SOL    HW2 9522   1.754   3.907  10.237
 2996SOL     OW 9523   0.268   4.041  10.030
 2996SOL    HW1 9524   0.191   4.089  10.002
 2996SOL    HW2 9525   0.255   4.028  10.124
 2997SOL     OW 9526   0.906   0.092   9.528
 2997SOL    HW1 9527   0.988   0.131   9.497
 2997SOL    HW2 9528   0.927   0.053   9.613
 2998SOL     OW 9529   1.066   0.299  10.052
 2998SOL    HW1 9530   0.989   0.285   9.996
 2998SOL    HW2 9531   1.130   0.235  10.020
 2999SOL     OW 9532   1.020   3.964  10.275
 2999SOL    HW1 9533   1.015   3.916  10.193
 2999SOL    HW2 9534   1.015   3.897  10.343
 3000SOL     OW 9535   1.717   4.116  10.691
 3000SOL    HW1 9536   1.789   4.179  10.692
 3000SOL    HW2 9537   1.748   4.046  10.634
 3001SOL     OW 9538   0.674   3.920  10.803
 3001SOL    HW1 9539   0.756   3.898  10.758
 3001SOL    HW2 9540   0.701   3.956  10.887
 3002SOL     OW 9541   0.067   4.045   9.345
 3002SOL    HW1 9542   4.474   4.065   9.337
 3002SOL    HW2 9543   0.111   4.130   9.335
 3003SOL     OW 9544   0.086   3.901   9.615
 3003SOL    HW1 9545   0.076   3.969   9.548
 3003SOL    HW2 9546   0.161   3.850   9.585
 3004SOL     OW 9547   0.721   4.290  11.021
 3004SOL    HW1 9548   0.756   4.343  11.092
 3004SOL    HW2 9549   0.765   4.206  11.029
 3005SOL     OW 9550   1.218   4.042   9.764
 3005SOL    HW1 9551   1.281   3.970   9.756
 3005SOL    HW2 9552   1.247   4.090   9.842
 3006SOL     OW 9553   1.753   4.052  10.956
 3006SOL    HW1 9554   1.731   4.081  10.868
 3006SOL    HW2 9555   1.671   4.057  11.004
 3007SOL     OW 9556   1.111   0.227   9.413
 3007SOL    HW1 9557   1.097   0.269   9.328
 3007SOL    HW2 9558   1.195   0.183   9.404
 3008SOL     OW 9559   1.809   3.908  10.548
 3008SOL    HW1 9560   1.821   3.814  10.562
 3008SOL    HW2 9561   1.820   3.920  10.453
 3009SOL     OW 9562   0.450   4.154   9.844
 3009SOL    HW1 9563   0.464   4.080   9.786
 3009SOL    HW2 9564   0.392   4.121   9.913
 3010SOL     OW 9565   0.313   4.240  10.574
 3010SOL    HW1 9566   0.372   4.179  10.617
 3010SOL    HW2 9567   0.333   4.232  10.481
 3011SOL     OW 9568   1.431   3.948  10.427
 3011SOL    HW1 9569   1.460   3.869  10.474
 3011SOL    HW2 9570   1.380   3.997  10.492
 3012SOL     OW 9571   1.009   3.743  10.454
 3012SOL    HW1 9572   0.954   3.676  10.412
 3012SOL    HW2 9573   1.096   3.705  10.455
 3013SOL     OW 9574   1.352   3.777   9.474
 3013SOL    HW1 9575   1.380   3.713   9.409
 3013SOL    HW2 9576   1.265   3.748   9.501
 3014SOL     OW 9577   1.299   4.175   9.991
 3014SOL    HW1 9578   1.261   4.262  10.005
 3014SOL    HW2 9579   1.299   4.135  10.078
 3015SOL     OW 9580   1.586   3.927  10.187
 3015SOL    HW1 9581   1.526   3.948  10.259
 3015SOL    HW2 9582   1.587   4.005  10.132
 3016SOL     OW 9583   2.086   0.614   0.117
 3016SOL    HW1 9584   2.001   0.619   0.160
 3016SOL    HW2 9585   2.070   0.643   0.027
 3017SOL     OW 9586   2.070   0.298   0.989
 3017SOL    HW1 9587   2.101   0.270   1.075
 3017SOL    HW2 9588   1.988   0.251   0.976
 3018SOL     OW 9589   1.869   0.385   0.637
 3018SOL    HW1 9590   1.783   0.406   0.675
 3018SOL    HW2 9591   1.853   0.310   0.580
 3019SOL     OW 9592   2.430   1.287   1.174
 3019SOL    HW1 9593   2.341   1.289   1.138
 3019SOL    HW2 9594   2.443   1.375   1.208
 3020SOL     OW 9595   3.423   1.512   0.707
 3020SOL    HW1 9596   3.380   1.491   0.790
 3020SOL    HW2 9597   3.351   1.515   0.643
 3021SOL     OW 9598   2.996   0.699   0.698
 3021SOL    HW1 9599   3.043   0.782   0.689
 3021SOL    HW2 9600   2.946   0.709   0.779
 3022SOL     OW 9601   3.639   0.602   0.217
 3022SOL    HW1 9602   3.583   0.607   0.139
 3022SOL    HW2 9603   3.599   0.533   0.270
 3023SOL     OW 9604   2.619   1.143   1.041
 3023SOL    HW1 9605   2.549   1.177   1.097
 3023SOL    HW2 9606   2.653   1.220   0.996
 3024SOL     OW 9607   2.728   0.775   1.822
 3024SOL    HW1 9608   2.714   0.846   1.885
 3024SOL    HW2 9609   2.751   0.819   1.741
 3025SOL     OW 9610   2.549   1.004   0.646
 3025SOL    HW1 9611   2.613   0.991   0.716
 3025SOL    HW2 9612   2.479   1.054   0.688
 3026SOL     OW 9613   2.572   1.151   1.811
 3026SOL    HW1 9614   2.619   1.230   1.838
 3026SOL    HW2 9615   2.489   1.183   1.777
 3027SOL     OW 9616   2.192   1.425   1.069
 3027SOL    HW1 9617   2.119   1.388   1.020
 3027SOL    HW2 9618   2.242   1.474   1.003
 3028SOL     OW 9619   3.323   1.499   1.354
 3028SOL    HW1 9620   3.372   1.580   1.364
 3028SOL    HW2 9621   3.261   1.499   1.427
 3029SOL     OW 9622   2.304   0.395   1.489
 3029SOL    HW1 9623   2.386   0.345   1.491
 3029SOL    HW2 9624   2.236   0.329   1.503
 3030SOL     OW 9625   3.473   0.446   0.738
 3030SOL    HW1 9626   3.391   0.466   0.694
 3030SOL    HW2 9627   3.491   0.524   0.792
 3031SOL     OW 9628   2.079   1.711   0.471
 3031SOL    HW1 9629   2.103   1.786   0.527
 3031SOL    HW2 9630   2.152   1.704   0.409
 3032SOL     OW 9631   2.998   1.341   1.692
 3032SOL    HW1 9632   3.038   1.337   1.779
 3032SOL    HW2 9633   2.946   1.262   1.686
 3033SOL     OW 9634   2.091   1.440   0.535
 3033SOL    HW1 9635   2.072   1.534   0.536
 3033SOL    HW2 9636   2.029   1.402   0.598
 3034SOL     OW 9637   2.120   1.090   0.892
 3034SOL    HW1 9638   2.115   1.004   0.932
 3034SOL    HW2 9639   2.061   1.144   0.944
 3035SOL     OW 9640   2.472   1.790   1.424
 3035SOL    HW1 9641   2.391   1.771   1.472
 3035SOL    HW2 9642   2.498   1.877   1.454
 3036SOL     OW 9643   2.445   0.988   0.142
 3036SOL    HW1 9644   2.487   1.041   0.074
 3036SOL    HW2 9645   2.488   1.014   0.223
 3037SOL     OW 9646   3.444   0.115   1.472
 3037SOL    HW1 9647   3.465   0.184   1.408
 3037SOL    HW2 9648   3.433   0.162   1.554
 3038SOL     OW 9649   1.978   0.652   0.559
 3038SOL    HW1 9650   1.948   0.564   0.581
 3038SOL    HW2 9651   1.969   0.702   0.641
 3039SOL     OW 9652   3.704   1.759   0.334
 3039SOL    HW1 9653   3.767   1.729   0.399
 3039SOL    HW2 9654   3.729   1.850   0.316
 3040SOL     OW 9655   1.910   1.601   0.120
 3040SOL    HW1 9656   1.880   1.513   0.142
 3040SOL    HW2 9657   1.880   1.656   0.193
 3041SOL     OW 9658   3.552   0.919   0.641
 3041SOL    HW1 9659   3.636   0.879   0.621
 3041SOL    HW2 9660   3.530   0.970   0.563
 3042SOL     OW 9661   3.508   1.105   0.431
 3042SOL    HW1 9662   3.591   1.117   0.384
 3042SOL    HW2 9663   3.513   1.167   0.504
 3043SOL     OW 9664   1.984   0.745   1.584
 3043SOL    HW1 9665   2.076   0.771   1.594
 3043SOL    HW2 9666   1.935   0.826   1.592
 3044SOL     OW 9667   2.476   1.385   0.735
 3044SOL    HW1 9668   2.431   1.301   0.744
 3044SOL    HW2 9669   2.459   1.411   0.644
 3045SOL     OW 9670   3.151   1.239   1.423
 3045SOL    HW1 9671   3.183   1.171   1.363
 3045SOL    HW2 9672   3.208   1.232   1.500
 3046SOL     OW 9673   2.680   0.011   0.552
 3046SOL    HW1 9674   2.718   0.088   0.511
 3046SOL    HW2 9675   2.585   0.024   0.545
 3047SOL     OW 9676   2.053   0.966   1.272
 3047SOL    HW1 9677   2.137   0.924   1.256
 3047SOL    HW2 9678   1.989   0.913   1.224
 3048SOL     OW 9679   3.379   1.001   0.203
 3048SOL    HW1 9680   3.315   0.940   0.239
 3048SOL    HW2 9681   3.429   1.031   0.279
 3049SOL     OW 9682   3.048   1.806   1.622
 3049SOL    HW1 9683   3.059   1.864   1.547
 3049SOL    HW2 9684   3.064   1.718   1.587
 3050SOL     OW 9685   2.177   0.254   1.780
 3050SOL    HW1 9686   2.241   0.318   1.813
 3050SOL    HW2 9687   2.103   0.260   1.841
 3051SOL     OW 9688   3.328   1.420   0.951
 3051SOL    HW1 9689   3.260   1.434   1.017
 3051SOL    HW2 9690   3.316   1.329   0.925
 3052SOL     OW 9691   3.520   1.740   0.579
 3052SOL    HW1 9692   3.501   1.710   0.490
 3052SOL    HW2 9693   3.495   1.665   0.634
 3053SOL     OW 9694   2.454   0.718   0.263
 3053SOL    HW1 9695   2.463   0.802   0.216
 3053SOL    HW2 9696   2.391   0.737   0.332
 3054SOL     OW 9697   3.151   0.361   0.934
 3054SOL    HW1 9698   3.060   0.331   0.924
 3054SOL    HW2 9699   3.191   0.300   0.995
 3055SOL     OW 9700   3.444   1.670   0.312
 3055SOL    HW1 9701   3.534   1.701   0.305
 3055SOL    HW2 9702   3.418   1.652   0.222
 3056SOL     OW 9703   2.657   0.619   1.454
 3056SOL    HW1 9704   2.629   0.594   1.542
 3056SOL    HW2 9705   2.617   0.554   1.396
 3057SOL     OW 9706   3.251   0.479   1.676
 3057SOL    HW1 9707   3.254   0.523   1.761
 3057SOL    HW2 9708   3.317   0.410   1.682
 3058SOL     OW 9709   2.818   0.888   1.582
 3058SOL    HW1 9710   2.871   0.817   1.548
 3058SOL    HW2 9711   2.769   0.921   1.507
 3059SOL     OW 9712   2.858   0.417   1.236
 3059SOL    HW1 9713   2.771   0.428   1.275
 3059SOL    HW2 9714   2.843   0.367   1.156
 3060SOL     OW 9715   2.911   0.701   0.428
 3060SOL    HW1 9716   2.929   0.692   0.521
 3060SOL    HW2 9717   2.829   0.653   0.414
 3061SOL     OW 9718   1.952   0.821   0.775
 3061SOL    HW1 9719   2.032   0.814   0.827
 3061SOL    HW2 9720   1.907   0.898   0.810
 3062SOL     OW 9721   1.986   1.815   1.572
 3062SOL    HW1 9722   1.977   1.811   1.667
 3062SOL    HW2 9723   1.928   1.886   1.545
 3063SOL     OW 9724   2.736   0.361   0.197
 3063SOL    HW1 9725   2.793   0.415   0.142
 3063SOL    HW2 9726   2.772   0.272   0.189
 3064SOL     OW 9727   3.567   0.573   1.828
 3064SOL    HW1 9728   3.531   0.648   1.780
 3064SOL    HW2 9729   3.602   0.517   1.759
 3065SOL     OW 9730   3.239   1.142   0.541
 3065SOL    HW1 9731   3.318   1.129   0.488
 3065SOL    HW2 9732   3.186   1.204   0.491
 3066SOL     OW 9733   2.401   0.204   0.900
 3066SOL    HW1 9734   2.422   0.222   0.992
 3066SOL    HW2 9735   2.394   0.291   0.860
 3067SOL     OW 9736   2.868   1.444   0.474
 3067SOL    HW1 9737   2.830   1.517   0.425
 3067SOL    HW2 9738   2.851   1.465   0.565
 3068SOL     OW 9739   2.218   1.797   0.868
 3068SOL    HW1 9740   2.249   1.706   0.873
 3068SOL    HW2 9741   2.294   1.850   0.889
 3069SOL     OW 9742   3.660   1.059   0.869
 3069SOL    HW1 9743   3.605   1.040   0.792
 3069SOL    HW2 9744   3.598   1.063   0.942
 3070SOL     OW 9745   3.090   1.539   1.513
 3070SOL    HW1 9746   3.076   1.466   1.574
 3070SOL    HW2 9747   3.027   1.523   1.443
 3071SOL     OW 9748   2.178   0.958   0.275
 3071SOL    HW1 9749   2.256   0.982   0.226
 3071SOL    HW2 9750   2.150   0.875   0.237
 3072SOL     OW 9751   3.341   0.741   0.723
 3072SOL    HW1 9752   3.329   0.697   0.808
 3072SOL    HW2 9753   3.417   0.797   0.736
 3073SOL     OW 9754   2.328   1.264   1.737
 3073SOL    HW1 9755   2.300   1.269   1.646
 3073SOL    HW2 9756   2.246   1.262   1.787
 3074SOL     OW 9757   2.969   1.779   0.227
 3074SOL    HW1 9758   2.910   1.727   0.281
 3074SOL    HW2 9759   3.011   1.715   0.169
 3075SOL     OW 9760   2.050   0.268   1.512
 3075SOL    HW1 9761   1.984   0.335   1.496
 3075SOL    HW2 9762   2.064   0.270   1.606
 3076SOL     OW 9763   3.490   1.375   0.089
 3076SOL    HW1 9764   3.447   1.459   0.077
 3076SOL    HW2 9765   3.424   1.311   0.061
 3077SOL     OW 9766   2.327   1.734   0.326
 3077SOL    HW1 9767   2.369   1.796   0.385
 3077SOL    HW2 9768   2.398   1.706   0.268
 3078SOL     OW 9769   3.282   0.136   0.424
 3078SOL    HW1 9770   3.260   0.100   0.338
 3078SOL    HW2 9771   3.377   0.133   0.429
 3079SOL     OW 9772   2.115   1.785   1.234
 3079SOL    HW1 9773   2.168   1.718   1.277
 3079SOL    HW2 9774   2.106   1.754   1.144
 3080SOL     OW 9775   2.796   1.698   0.901
 3080SOL    HW1 9776   2.875   1.647   0.922
 3080SOL    HW2 9777   2.755   1.649   0.830
 3081SOL     OW 9778   2.254   0.693   0.474
 3081SOL    HW1 9779   2.276   0.601   0.488
 3081SOL    HW2 9780   2.161   0.699   0.495
 3082SOL     OW 9781   3.387   0.233   1.723
 3082SOL    HW1 9782   3.387   0.255   1.816
 3082SOL    HW2 9783   3.309   0.178   1.711
 3083SOL     OW 9784   2.464   0.094   0.123
 3083SOL    HW1 9785   2.559   0.080   0.130
 3083SOL    HW2 9786   2.448   0.100   0.029
 3084SOL     OW 9787   2.631   0.271   1.754
 3084SOL    HW1 9788   2.696   0.202   1.764
 3084SOL    HW2 9789   2.587   0.275   1.839
 3085SOL     OW 9790   2.739   1.522   1.193
 3085SOL    HW1 9791   2.723   1.485   1.106
 3085SOL    HW2 9792   2.808   1.468   1.231
 3086SOL     OW 9793   3.203   0.589   1.429
 3086SOL    HW1 9794   3.231   0.560   1.516
 3086SOL    HW2 9795   3.238   0.678   1.421
 3087SOL     OW 9796   2.677   1.397   0.939
 3087SOL    HW1 9797   2.761   1.384   0.895
 3087SOL    HW2 9798   2.612   1.395   0.868
 3088SOL     OW 9799   2.787   0.517   0.900
 3088SOL    HW1 9800   2.770   0.517   0.806
 3088SOL    HW2 9801   2.824   0.431   0.917
 3089SOL     OW 9802   2.417   0.075   0.523
 3089SOL    HW1 9803   2.329   0.050   0.550
 3089SOL    HW2 9804   2.404   0.139   0.454
 3090SOL     OW 9805   3.287   1.196   0.030
 3090SOL    HW1 9806   3.319   1.124   0.084
 3090SOL    HW2 9807   3.204   1.221   0.070
 3091SOL     OW 9808   2.148   0.055   0.199
 3091SOL    HW1 9809   2.218   0.102   0.154
 3091SOL    HW2 9810   2.193   0.005   0.267
 3092SOL     OW 9811   2.813   0.225   0.442
 3092SOL    HW1 9812   2.765   0.293   0.395
 3092SOL    HW2 9813   2.901   0.260   0.452
 3093SOL     OW 9814   2.942   0.681   1.460
 3093SOL    HW1 9815   2.871   0.617   1.461
 3093SOL    HW2 9816   3.021   0.628   1.449
 3094SOL     OW 9817   3.085   1.570   0.794
 3094SOL    HW1 9818   3.103   1.637   0.727
 3094SOL    HW2 9819   3.154   1.582   0.859
 3095SOL     OW 9820   2.332   1.150   0.737
 3095SOL    HW1 9821   2.263   1.130   0.800
 3095SOL    HW2 9822   2.292   1.135   0.651
 3096SOL     OW 9823   3.131   1.795   0.606
 3096SOL    HW1 9824   3.178   1.856   0.549
 3096SOL    HW2 9825   3.067   1.848   0.652
 3097SOL     OW 9826   2.883   0.531   0.036
 3097SOL    HW1 9827   2.846   0.617   0.012
 3097SOL    HW2 9828   2.956   0.552   0.094
 3098SOL     OW 9829   1.944   0.550   1.395
 3098SOL    HW1 9830   2.035   0.554   1.365
 3098SOL    HW2 9831   1.936   0.622   1.458
 3099SOL     OW 9832   2.425   0.243   1.166
 3099SOL    HW1 9833   2.451   0.161   1.207
 3099SOL    HW2 9834   2.333   0.254   1.191
 3100SOL     OW 9835   2.723   0.511   0.629
 3100SOL    HW1 9836   2.682   0.544   0.549
 3100SOL    HW2 9837   2.696   0.419   0.634
 3101SOL     OW 9838   2.823   0.032   0.781
 3101SOL    HW1 9839   2.774   0.025   0.699
 3101SOL    HW2 9840   2.844   4.442   0.805
 3102SOL     OW 9841   3.298   1.163   0.857
 3102SOL    HW1 9842   3.230   1.096   0.856
 3102SOL    HW2 9843   3.323   1.174   0.765
 3103SOL     OW 9844   3.328   0.605   0.975
 3103SOL    HW1 9845   3.275   0.525   0.978
 3103SOL    HW2 9846   3.386   0.597   1.051
 3104SOL     OW 9847   3.711   0.814   0.378
 3104SOL    HW1 9848   3.764   0.764   0.440
 3104SOL    HW2 9849   3.683   0.749   0.313
 3105SOL     OW 9850   2.356   1.424   0.173
 3105SOL    HW1 9851   2.278   1.398   0.223
 3105SOL    HW2 9852   2.351   1.371   0.093
 3106SOL     OW 9853   3.532   1.264   0.647
 3106SOL    HW1 9854   3.627   1.268   0.660
 3106SOL    HW2 9855   3.502   1.353   0.667
 3107SOL     OW 9856   3.253   0.574   0.077
 3107SOL    HW1 9857   3.190   0.556   0.148
 3107SOL    HW2 9858   3.322   0.509   0.089
 3108SOL     OW 9859   2.386   0.262   0.325
 3108SOL    HW1 9860   2.418   0.203   0.257
 3108SOL    HW2 9861   2.369   0.345   0.279
 3109SOL     OW 9862   3.614   1.238   1.573
 3109SOL    HW1 9863   3.702   1.199   1.570
 3109SOL    HW2 9864   3.629   1.328   1.603
 3110SOL     OW 9865   2.921   1.355   1.334
 3110SOL    HW1 9866   2.846   1.323   1.385
 3110SOL    HW2 9867   2.997   1.313   1.375
 3111SOL     OW 9868   3.469   1.626   1.654
 3111SOL    HW1 9869   3.464   1.660   1.564
 3111SOL    HW2 9870   3.552   1.578   1.656
 3112SOL     OW 9871   2.991   1.204   1.106
 3112SOL    HW1 9872   2.931   1.240   1.171
 3112SOL    HW2 9873   2.957   1.234   1.022
 3113SOL     OW 9874   3.490   1.098   1.078
 3113SOL    HW1 9875   3.486   1.160   1.151
 3113SOL    HW2 9876   3.411   1.115   1.027
 3114SOL     OW 9877   2.764   0.133   1.388
 3114SOL    HW1 9878   2.786   0.089   1.306
 3114SOL    HW2 9879   2.849   0.148   1.431
 3115SOL     OW 9880   2.846   1.115   1.723
 3115SOL    HW1 9881   2.754   1.131   1.744
 3115SOL    HW2 9882   2.845   1.037   1.667
 3116SOL     OW 9883   2.572   1.060   0.373
 3116SOL    HW1 9884   2.558   1.044   0.466
 3116SOL    HW2 9885   2.648   1.006   0.351
 3117SOL     OW 9886   2.281   0.815   1.251
 3117SOL    HW1 9887   2.350   0.825   1.317
 3117SOL    HW2 9888   2.246   0.728   1.265
 3118SOL     OW 9889   3.130   0.376   1.273
 3118SOL    HW1 9890   3.162   0.454   1.318
 3118SOL    HW2 9891   3.041   0.398   1.247
 3119SOL     OW 9892   1.929   1.570   1.348
 3119SOL    HW1 9893   1.897   1.650   1.305
 3119SOL    HW2 9894   2.024   1.582   1.351
 3120SOL     OW 9895   2.212   1.116   0.497
 3120SOL    HW1 9896   2.211   1.190   0.435
 3120SOL    HW2 9897   2.206   1.039   0.441
 3121SOL     OW 9898   2.418   0.530   0.858
 3121SOL    HW1 9899   2.432   0.589   0.784
 3121SOL    HW2 9900   2.482   0.558   0.924
 3122SOL     OW 9901   3.109   1.346   0.394
 3122SOL    HW1 9902   3.165   1.419   0.422
 3122SOL    HW2 9903   3.022   1.369   0.426
 3123SOL     OW 9904   3.142   1.457   1.147
 3123SOL    HW1 9905   3.197   1.459   1.225
 3123SOL    HW2 9906   3.087   1.380   1.158
 3124SOL     OW 9907   3.447   0.628   0.475
 3124SOL    HW1 9908   3.397   0.669   0.545
 3124SOL    HW2 9909   3.482   0.701   0.425
 3125SOL     OW 9910   2.211   1.525   1.317
 3125SOL    HW1 9911   2.196   1.483   1.233
 3125SOL    HW2 9912   2.306   1.536   1.321
 3126SOL     OW 9913   2.277   0.743   1.602
 3126SOL    HW1 9914   2.336   0.790   1.544
 3126SOL    HW2 9915   2.321   0.660   1.620
 3127SOL     OW 9916   3.463   0.778   1.681
 3127SOL    HW1 9917   3.377   0.819   1.674
 3127SOL    HW2 9918   3.515   0.820   1.613
 3128SOL     OW 9919   2.867   0.085   1.720
 3128SOL    HW1 9920   2.896   0.168   1.682
 3128SOL    HW2 9921   2.892   0.019   1.655
 3129SOL     OW 9922   2.361   0.046   1.759
 3129SOL    HW1 9923   2.358   0.004   1.673
 3129SOL    HW2 9924   2.294   0.114   1.756
 3130SOL     OW 9925   2.444   0.873   1.030
 3130SOL    HW1 9926   2.475   0.964   1.030
 3130SOL    HW2 9927   2.388   0.867   1.108
 3131SOL     OW 9928   3.220   0.858   1.030
 3131SOL    HW1 9929   3.137   0.849   0.984
 3131SOL    HW2 9930   3.260   0.772   1.024
 3132SOL     OW 9931   3.061   0.532   0.265
 3132SOL    HW1 9932   3.071   0.454   0.320
 3132SOL    HW2 9933   3.020   0.596   0.323
 3133SOL     OW 9934   2.153   0.234   1.241
 3133SOL    HW1 9935   2.108   0.250   1.325
 3133SOL    HW2 9936   2.187   0.145   1.249
 3134SOL     OW 9937   1.908   1.309   1.276
 3134SOL    HW1 9938   1.941   1.257   1.349
 3134SOL    HW2 9939   1.915   1.400   1.306
 3135SOL     OW 9940   2.585   0.631   1.057
 3135SOL    HW1 9941   2.659   0.613   1.000
 3135SOL    HW2 9942   2.558   0.720   1.034
 3136SOL     OW 9943   3.596   0.959   1.852
 3136SOL    HW1 9944   3.549   0.899   1.794
 3136SOL    HW2 9945   3.537   0.972   1.926
 3137SOL     OW 9946   2.163   0.057   0.653
 3137SOL    HW1 9947   2.150   0.152   0.657
 3137SOL    HW2 9948   2.172   0.031   0.745
 3138SOL     OW 9949   3.480   0.378   0.363
 3138SOL    HW1 9950   3.506   0.312   0.428
 3138SOL    HW2 9951   3.455   0.454   0.415
 3139SOL     OW 9952   2.891   0.761   0.961
 3139SOL    HW1 9953   2.887   0.777   1.056
 3139SOL    HW2 9954   2.862   0.671   0.951
 3140SOL     OW 9955   2.845   1.567   1.717
 3140SOL    HW1 9956   2.829   1.610   1.633
 3140SOL    HW2 9957   2.887   1.484   1.693
 3141SOL     OW 9958   3.717   1.506   1.606
 3141SOL    HW1 9959   3.735   1.532   1.515
 3141SOL    HW2 9960   3.798   1.525   1.652
 3142SOL     OW 9961   2.216   0.917   1.808
 3142SOL    HW1 9962   2.298   0.935   1.854
 3142SOL    HW2 9963   2.240   0.853   1.740
 3143SOL     OW 9964   3.396   0.296   0.111
 3143SOL    HW1 9965   3.338   0.222   0.125
 3143SOL    HW2 9966   3.429   0.318   0.198
 3144SOL     OW 9967   3.149   0.822   0.032
 3144SOL    HW1 9968   3.193   0.737   0.042
 3144SOL    HW2 9969   3.183   0.857  11.050
 3145SOL     OW 9970   2.926   1.335   0.853
 3145SOL    HW1 9971   2.930   1.263   0.791
 3145SOL    HW2 9972   2.989   1.399   0.819
 3146SOL     OW 9973   2.171   0.810   0.947
 3146SOL    HW1 9974   2.264   0.832   0.941
 3146SOL    HW2 9975   2.170   0.720   0.981
 3147SOL     OW 9976   2.198   0.531   1.013
 3147SOL    HW1 9977   2.156   0.448   0.994
 3147SOL    HW2 9978   2.274   0.534   0.955
 3148SOL     OW 9979   2.998   0.374   1.695
 3148SOL    HW1 9980   2.948   0.438   1.746
 3148SOL    HW2 9981   3.083   0.415   1.682
 3149SOL     OW 9982   3.020   0.212   1.473
 3149SOL    HW1 9983   3.013   0.276   1.544
 3149SOL    HW2 9984   3.059   0.262   1.401
 3150SOL     OW 9985   1.870   1.328   0.195
 3150SOL    HW1 9986   1.783   1.340   0.156
 3150SOL    HW2 9987   1.870   1.237   0.225
 3151SOL     OW 9988   1.949   1.790   0.936
 3151SOL    HW1 9989   1.918   1.710   0.893
 3151SOL    HW2 9990   2.041   1.797   0.910
 3152SOL     OW 9991   2.361   1.570   0.905
 3152SOL    HW1 9992   2.430   1.633   0.925
 3152SOL    HW2 9993   2.404   1.505   0.849
 3153SOL     OW 9994   2.846   0.794   1.228
 3153SOL    HW1 9995   2.901   0.770   1.302
 3153SOL    HW2 9996   2.761   0.754   1.247
 3154SOL     OW 9997   1.895   0.543   1.118
 3154SOL    HW1 9998   1.973   0.524   1.066
 3154SOL    HW2 9999   1.927   0.548   1.208
 3155SOL     OW10000   2.047   0.519   1.721
 3155SOL    HW110001   2.122   0.499   1.665
 3155SOL    HW210002   2.005   0.595   1.679
 3156SOL     OW10003   3.239   0.939   1.659
 3156SOL    HW110004   3.260   1.033   1.657
 3156SOL    HW210005   3.236   0.914   1.566
 3157SOL     OW10006   2.673   0.576   0.358
 3157SOL    HW110007   2.680   0.501   0.299
 3157SOL    HW210008   2.599   0.626   0.324
 3158SOL     OW10009   3.503   0.602   1.187
 3158SOL    HW110010   3.492   0.542   1.261
 3158SOL    HW210011   3.590   0.582   1.152
 3159SOL     OW10012   2.111   1.549   1.731
 3159SOL    HW110013   2.083   1.612   1.798
 3159SOL    HW210014   2.108   1.464   1.775
 3160SOL     OW10015   2.561   0.459   1.264
 3160SOL    HW110016   2.514   0.382   1.232
 3160SOL    HW210017   2.561   0.519   1.190
 3161SOL     OW10018   2.790   1.679   1.468
 3161SOL    HW110019   2.765   1.645   1.382
 3161SOL    HW210020   2.788   1.774   1.457
 3162SOL     OW10021   2.325   0.486   0.180
 3162SOL    HW110022   2.385   0.558   0.201
 3162SOL    HW210023   2.239   0.528   0.171
 3163SOL     OW10024   2.009   1.140   1.473
 3163SOL    HW110025   2.010   1.088   1.553
 3163SOL    HW210026   2.025   1.077   1.403
 3164SOL     OW10027   3.189   1.047   1.223
 3164SOL    HW110028   3.212   0.984   1.155
 3164SOL    HW210029   3.118   1.099   1.184
 3165SOL     OW10030   3.171   0.852   0.310
 3165SOL    HW110031   3.094   0.822   0.359
 3165SOL    HW210032   3.147   0.839   0.218
 3166SOL     OW10033   3.634   1.744   1.150
 3166SOL    HW110034   3.694   1.770   1.080
 3166SOL    HW210035   3.609   1.654   1.129
 3167SOL     OW10036   3.103   1.733   1.113
 3167SOL    HW110037   3.185   1.753   1.068
 3167SOL    HW210038   3.109   1.639   1.132
 3168SOL     OW10039   1.947   1.265   1.013
 3168SOL    HW110040   1.933   1.279   1.107
 3168SOL    HW210041   1.872   1.214   0.984
 3169SOL     OW10042   2.540   1.664   1.727
 3169SOL    HW110043   2.489   1.744   1.727
 3169SOL    HW210044   2.606   1.676   1.658
 3170SOL     OW10045   2.741   0.065   0.127
 3170SOL    HW110046   2.826   0.093   0.094
 3170SOL    HW210047   2.762   0.012   0.204
 3171SOL     OW10048   3.581   0.133   0.496
 3171SOL    HW110049   3.654   0.139   0.434
 3171SOL    HW210050   3.602   0.057   0.550
 3172SOL     OW10051   3.252   1.568   0.485
 3172SOL    HW110052   3.313   1.599   0.419
 3172SOL    HW210053   3.205   1.646   0.513
 3173SOL     OW10054   2.000   1.800   1.847
 3173SOL    HW110055   1.948   1.731   1.888
 3173SOL    HW210056   2.040   1.847   1.921
 3174SOL     OW10057   3.141   0.928   0.673
 3174SOL    HW110058   3.213   0.865   0.677
 3174SOL    HW210059   3.174   1.000   0.620
 3175SOL     OW10060   2.677   1.273   1.429
 3175SOL    HW110061   2.649   1.312   1.512
 3175SOL    HW210062   2.606   1.293   1.369
 3176SOL     OW10063   2.533   1.623   0.168
 3176SOL    HW110064   2.552   1.628   0.074
 3176SOL    HW210065   2.478   1.546   0.177
 3177SOL     OW10066   3.489   1.727   1.391
 3177SOL    HW110067   3.539   1.734   1.310
 3177SOL    HW210068   3.476   1.817   1.419
 3178SOL     OW10069   3.701   0.154   0.966
 3178SOL    HW110070   3.731   0.076   0.919
 3178SOL    HW210071   3.614   0.172   0.930
 3179SOL     OW10072   2.126   0.323   0.717
 3179SOL    HW110073   2.040   0.356   0.690
 3179SOL    HW210074   2.119   0.314   0.812
 3180SOL     OW10075   3.085   1.602   0.052
 3180SOL    HW110076   3.072   1.510   0.073
 3180SOL    HW210077   3.020   1.621  11.085
 3181SOL     OW10078   2.686   1.006   1.372
 3181SOL    HW110079   2.729   1.001   1.288
 3181SOL    HW210080   2.686   1.099   1.394
 3182SOL     OW10081   2.776   0.906   0.281
 3182SOL    HW110082   2.843   0.946   0.226
 3182SOL    HW210083   2.823   0.842   0.334
 3183SOL     OW10084   3.361   1.622   0.047
 3183SOL    HW110085   3.265   1.617   0.044
 3183SOL    HW210086   3.387   1.636  11.056
 3184SOL     OW10087   2.232   1.301   1.491
 3184SOL    HW110088   2.218   1.380   1.438
 3184SOL    HW210089   2.154   1.247   1.476
 3185SOL     OW10090   3.473   1.283   1.281
 3185SOL    HW110091   3.532   1.272   1.356
 3185SOL    HW210092   3.412   1.352   1.308
 3186SOL     OW10093   2.913   1.107   0.706
 3186SOL    HW110094   2.843   1.055   0.746
 3186SOL    HW210095   2.977   1.041   0.676
 3187SOL     OW10096   2.875   0.241   0.996
 3187SOL    HW110097   2.874   0.209   0.906
 3187SOL    HW210098   2.864   0.162   1.049
 3188SOL     OW10099   2.465   1.491   0.482
 3188SOL    HW110100   2.507   1.438   0.414
 3188SOL    HW210101   2.393   1.535   0.437
 3189SOL     OW10102   3.583   0.394   1.377
 3189SOL    HW110103   3.656   0.456   1.376
 3189SOL    HW210104   3.612   0.322   1.320
 3190SOL     OW10105   2.128   1.337   0.292
 3190SOL    HW110106   2.040   1.340   0.253
 3190SOL    HW210107   2.117   1.377   0.378
 3191SOL     OW10108   1.974   1.021   1.719
 3191SOL    HW110109   1.898   0.998   1.773
 3191SOL    HW210110   2.049   0.984   1.767
 3192SOL     OW10111   2.520   0.204   1.498
 3192SOL    HW110112   2.600   0.180   1.452
 3192SOL    HW210113   2.550   0.225   1.587
 3193SOL     OW10114   1.939   0.343   0.053
 3193SOL    HW110115   1.864   0.310   0.004
 3193SOL    HW210116   1.956   0.429   0.017
 3194SOL     OW10117   3.292   0.858   1.400
 3194SOL    HW110118   3.243   0.919   1.344
 3194SOL    HW210119   3.381   0.861   1.366
 3195SOL     OW10120   1.928   0.181   0.324
 3195SOL    HW110121   1.922   0.248   0.256
 3195SOL    HW210122   2.000   0.124   0.297
 3196SOL     OW10123   3.044   1.340   0.122
 3196SOL    HW110124   2.951   1.321   0.115
 3196SOL    HW210125   3.064   1.332   0.215
 3197SOL     OW10126   2.481   0.830   1.433
 3197SOL    HW110127   2.537   0.907   1.418
 3197SOL    HW210128   2.542   0.757   1.442
 3198SOL     OW10129   3.346   1.777   0.978
 3198SOL    HW110130   3.370   1.835   0.907
 3198SOL    HW210131   3.428   1.757   1.023
 3199SOL     OW10132   2.578   0.563   1.705
 3199SOL    HW110133   2.617   0.627   1.765
 3199SOL    HW210134   2.610   0.479   1.738
 3200SOL     OW10135   3.333   1.201   1.632
 3200SOL    HW110136   3.320   1.214   1.726
 3200SOL    HW210137   3.426   1.215   1.618
 3201SOL     OW10138   2.245   1.737   1.565
 3201SOL    HW110139   2.157   1.771   1.546
 3201SOL    HW210140   2.228   1.652   1.607
 3202SOL     OW10141   3.532   0.881   1.255
 3202SOL    HW110142   3.524   0.796   1.212
 3202SOL    HW210143   3.522   0.945   1.185
 3203SOL     OW10144   3.080   0.327   0.447
 3203SOL    HW110145   3.146   0.259   0.437
 3203SOL    HW210146   3.104   0.373   0.527
 3204SOL     OW10147   2.448   0.738   0.671
 3204SOL    HW110148   2.490   0.823   0.655
 3204SOL    HW210149   2.381   0.732   0.602
 3205SOL     OW10150   3.625   0.365   1.643
 3205SOL    HW110151   3.608   0.379   1.550
 3205SOL    HW210152   3.547   0.319   1.675
 3206SOL     OW10153   3.608   0.933   1.512
 3206SOL    HW110154   3.604   1.028   1.525
 3206SOL    HW210155   3.592   0.921   1.418
 3207SOL     OW10156   2.766   1.356   0.068
 3207SOL    HW110157   2.694   1.356   0.133
 3207SOL    HW210158   2.753   1.437   0.019
 3208SOL     OW10159   2.519   1.806   0.939
 3208SOL    HW110160   2.519   1.892   0.981
 3208SOL    HW210161   2.611   1.780   0.936
 3209SOL     OW10162   2.729   0.967   0.855
 3209SOL    HW110163   2.779   0.895   0.894
 3209SOL    HW210164   2.695   1.015   0.930
 3210SOL     OW10165   2.942   0.990   0.085
 3210SOL    HW110166   2.916   1.022  11.098
 3210SOL    HW210167   3.017   0.934   0.068
 3211SOL     OW10168   3.716   1.556   0.845
 3211SOL    HW110169   3.639   1.543   0.790
 3211SOL    HW210170   3.709   1.487   0.912
 3212SOL     OW10171   2.087   1.302   1.856
 3212SOL    HW110172   2.019   1.242   1.826
 3212SOL    HW210173   2.069   1.314   1.949
 3213SOL     OW10174   1.946   1.233   0.665
 3213SOL    HW110175   1.948   1.185   0.748
 3213SOL    HW210176   2.016   1.195   0.613
 3214SOL     OW10177   2.542   1.403   1.626
 3214SOL    HW110178   2.463   1.359   1.658
 3214SOL    HW210179   2.538   1.490   1.664
 3215SOL     OW10180   3.670   0.181   1.239
 3215SOL    HW110181   3.669   0.088   1.259
 3215SOL    HW210182   3.687   0.185   1.144
 3216SOL     OW10183   2.297   0.433   0.529
 3216SOL    HW110184   2.320   0.362   0.468
 3216SOL    HW210185   2.242   0.391   0.595
 3217SOL     OW10186   3.562   1.490   1.098
 3217SOL    HW110187   3.481   1.466   1.051
 3217SOL    HW210188   3.574   1.420   1.162
 3218SOL     OW10189   2.192   0.557   1.292
 3218SOL    HW110190   2.247   0.500   1.346
 3218SOL    HW210191   2.211   0.530   1.202
 3219SOL     OW10192   2.688   1.578   0.678
 3219SOL    HW110193   2.675   1.626   0.597
 3219SOL    HW210194   2.612   1.519   0.683
 3220SOL     OW10195   3.294   0.217   1.117
 3220SOL    HW110196   3.329   0.145   1.170
 3220SOL    HW210197   3.243   0.269   1.179
 3221SOL     OW10198   2.858   0.010   1.149
 3221SOL    HW110199   2.815   4.425   1.143
 3221SOL    HW210200   2.950   4.489   1.162
 3222SOL     OW10201   2.629   1.328   0.317
 3222SOL    HW110202   2.600   1.238   0.330
 3222SOL    HW210203   2.714   1.333   0.360
 3223SOL     OW10204   2.483   1.556   1.282
 3223SOL    HW110205   2.484   1.637   1.333
 3223SOL    HW210206   2.571   1.548   1.247
 3224SOL     OW10207   3.211   0.058   0.170
 3224SOL    HW110208   3.247   0.001   0.102
 3224SOL    HW210209   3.132   0.014   0.200
 3225SOL     OW10210   3.178   0.463   0.678
 3225SOL    HW110211   3.116   0.536   0.678
 3225SOL    HW210212   3.164   0.420   0.763
 3226SOL     OW10213   3.448   0.200   0.867
 3226SOL    HW110214   3.388   0.215   0.941
 3226SOL    HW210215   3.450   0.283   0.821
 3227SOL     OW10216   1.904   1.071   0.301
 3227SOL    HW110217   2.000   1.065   0.296
 3227SOL    HW210218   1.876   0.983   0.327
 3228SOL     OW10219   2.746   1.653   0.347
 3228SOL    HW110220   2.674   1.633   0.288
 3228SOL    HW210221   2.715   1.727   0.399
 3229SOL     OW10222   2.091   0.626   1.983
 3229SOL    HW110223   2.004   0.620   2.021
 3229SOL    HW210224   2.079   0.596   1.893
 3230SOL     OW10225   2.070   0.298   2.851
 3230SOL    HW110226   2.101   0.270   2.937
 3230SOL    HW210227   1.988   0.251   2.838
 3231SOL     OW10228   1.870   0.386   2.500
 3231SOL    HW110229   1.783   0.405   2.537
 3231SOL    HW210230   1.855   0.312   2.441
 3232SOL     OW10231   2.429   1.287   3.036
 3232SOL    HW110232   2.341   1.290   2.999
 3232SOL    HW210233   2.444   1.375   3.070
 3233SOL     OW10234   3.423   1.512   2.569
 3233SOL    HW110235   3.379   1.492   2.652
 3233SOL    HW210236   3.351   1.516   2.505
 3234SOL     OW10237   2.997   0.698   2.561
 3234SOL    HW110238   3.042   0.782   2.550
 3234SOL    HW210239   2.946   0.709   2.641
 3235SOL     OW10240   3.630   0.607   2.090
 3235SOL    HW110241   3.609   0.597   1.997
 3235SOL    HW210242   3.596   0.527   2.131
 3236SOL     OW10243   2.619   1.143   2.903
 3236SOL    HW110244   2.549   1.177   2.959
 3236SOL    HW210245   2.653   1.220   2.858
 3237SOL     OW10246   2.728   0.775   3.684
 3237SOL    HW110247   2.715   0.846   3.747
 3237SOL    HW210248   2.751   0.819   3.603
 3238SOL     OW10249   2.548   1.003   2.509
 3238SOL    HW110250   2.613   0.991   2.578
 3238SOL    HW210251   2.479   1.055   2.550
 3239SOL     OW10252   2.572   1.151   3.673
 3239SOL    HW110253   2.619   1.229   3.700
 3239SOL    HW210254   2.489   1.183   3.638
 3240SOL     OW10255   2.193   1.425   2.930
 3240SOL    HW110256   2.120   1.388   2.881
 3240SOL    HW210257   2.242   1.476   2.866
 3241SOL     OW10258   3.323   1.499   3.216
 3241SOL    HW110259   3.372   1.580   3.226
 3241SOL    HW210260   3.261   1.499   3.289
 3242SOL     OW10261   2.304   0.395   3.351
 3242SOL    HW110262   2.386   0.346   3.353
 3242SOL    HW210263   2.236   0.329   3.365
 3243SOL     OW10264   3.473   0.446   2.600
 3243SOL    HW110265   3.392   0.468   2.553
 3243SOL    HW210266   3.492   0.523   2.653
 3244SOL     OW10267   2.083   1.724   2.338
 3244SOL    HW110268   2.122   1.766   2.415
 3244SOL    HW210269   2.157   1.709   2.279
 3245SOL     OW10270   2.998   1.342   3.555
 3245SOL    HW110271   3.038   1.337   3.642
 3245SOL    HW210272   2.946   1.262   3.548
 3246SOL     OW10273   2.088   1.443   2.396
 3246SOL    HW110274   2.066   1.536   2.406
 3246SOL    HW210275   2.032   1.398   2.459
 3247SOL     OW10276   2.119   1.090   2.753
 3247SOL    HW110277   2.116   1.004   2.794
 3247SOL    HW210278   2.061   1.144   2.806
 3248SOL     OW10279   2.474   1.791   3.289
 3248SOL    HW110280   2.392   1.773   3.336
 3248SOL    HW210281   2.496   1.881   3.315
 3249SOL     OW10282   2.448   0.981   1.996
 3249SOL    HW110283   2.493   1.031   1.927
 3249SOL    HW210284   2.488   1.012   2.077
 3250SOL     OW10285   3.444   0.115   3.334
 3250SOL    HW110286   3.465   0.184   3.270
 3250SOL    HW210287   3.433   0.162   3.416
 3251SOL     OW10288   1.978   0.653   2.422
 3251SOL    HW110289   1.948   0.564   2.443
 3251SOL    HW210290   1.969   0.702   2.503
 3252SOL     OW10291   3.704   1.759   2.197
 3252SOL    HW110292   3.766   1.731   2.263
 3252SOL    HW210293   3.728   1.850   2.178
 3253SOL     OW10294   1.896   1.595   1.985
 3253SOL    HW110295   1.878   1.503   2.002
 3253SOL    HW210296   1.869   1.641   2.064
 3254SOL     OW10297   3.553   0.921   2.503
 3254SOL    HW110298   3.636   0.878   2.482
 3254SOL    HW210299   3.530   0.969   2.424
 3255SOL     OW10300   3.508   1.107   2.291
 3255SOL    HW110301   3.594   1.113   2.249
 3255SOL    HW210302   3.512   1.168   2.364
 3256SOL     OW10303   1.984   0.745   3.446
 3256SOL    HW110304   2.076   0.771   3.456
 3256SOL    HW210305   1.935   0.826   3.455
 3257SOL     OW10306   2.476   1.385   2.597
 3257SOL    HW110307   2.430   1.302   2.606
 3257SOL    HW210308   2.459   1.412   2.506
 3258SOL     OW10309   3.151   1.239   3.285
 3258SOL    HW110310   3.183   1.171   3.225
 3258SOL    HW210311   3.208   1.232   3.362
 3259SOL     OW10312   2.679   0.014   2.412
 3259SOL    HW110313   2.714   0.099   2.387
 3259SOL    HW210314   2.584   0.025   2.405
 3260SOL     OW10315   2.052   0.966   3.134
 3260SOL    HW110316   2.137   0.924   3.118
 3260SOL    HW210317   1.990   0.913   3.085
 3261SOL     OW10318   3.394   0.993   2.060
 3261SOL    HW110319   3.323   0.936   2.092
 3261SOL    HW210320   3.434   1.027   2.140
 3262SOL     OW10321   3.048   1.806   3.484
 3262SOL    HW110322   3.059   1.864   3.408
 3262SOL    HW210323   3.063   1.718   3.449
 3263SOL     OW10324   2.177   0.254   3.642
 3263SOL    HW110325   2.241   0.318   3.675
 3263SOL    HW210326   2.104   0.260   3.703
 3264SOL     OW10327   3.329   1.419   2.814
 3264SOL    HW110328   3.260   1.434   2.879
 3264SOL    HW210329   3.316   1.328   2.787
 3265SOL     OW10330   3.521   1.738   2.440
 3265SOL    HW110331   3.500   1.709   2.351
 3265SOL    HW210332   3.496   1.665   2.496
 3266SOL     OW10333   2.455   0.723   2.127
 3266SOL    HW110334   2.461   0.805   2.078
 3266SOL    HW210335   2.390   0.741   2.195
 3267SOL     OW10336   3.153   0.363   2.795
 3267SOL    HW110337   3.064   0.333   2.780
 3267SOL    HW210338   3.189   0.300   2.857
 3268SOL     OW10339   3.443   1.670   2.171
 3268SOL    HW110340   3.533   1.702   2.164
 3268SOL    HW210341   3.416   1.653   2.081
 3269SOL     OW10342   2.657   0.619   3.316
 3269SOL    HW110343   2.629   0.594   3.404
 3269SOL    HW210344   2.618   0.554   3.258
 3270SOL     OW10345   3.251   0.479   3.538
 3270SOL    HW110346   3.254   0.523   3.623
 3270SOL    HW210347   3.317   0.411   3.544
 3271SOL     OW10348   2.818   0.888   3.444
 3271SOL    HW110349   2.871   0.817   3.410
 3271SOL    HW210350   2.769   0.921   3.369
 3272SOL     OW10351   2.858   0.417   3.098
 3272SOL    HW110352   2.770   0.427   3.135
 3272SOL    HW210353   2.845   0.365   3.019
 3273SOL     OW10354   2.912   0.697   2.289
 3273SOL    HW110355   2.928   0.690   2.383
 3273SOL    HW210356   2.829   0.651   2.275
 3274SOL     OW10357   1.951   0.821   2.638
 3274SOL    HW110358   2.032   0.814   2.689
 3274SOL    HW210359   1.907   0.898   2.673
 3275SOL     OW10360   1.988   1.809   3.435
 3275SOL    HW110361   1.975   1.806   3.529
 3275SOL    HW210362   1.923   1.872   3.403
 3276SOL     OW10363   2.717   0.369   2.045
 3276SOL    HW110364   2.789   0.403   1.992
 3276SOL    HW210365   2.731   0.275   2.048
 3277SOL     OW10366   3.567   0.573   3.690
 3277SOL    HW110367   3.531   0.648   3.643
 3277SOL    HW210368   3.602   0.517   3.621
 3278SOL     OW10369   3.239   1.143   2.403
 3278SOL    HW110370   3.317   1.130   2.350
 3278SOL    HW210371   3.186   1.205   2.353
 3279SOL     OW10372   2.400   0.204   2.763
 3279SOL    HW110373   2.421   0.222   2.855
 3279SOL    HW210374   2.392   0.290   2.723
 3280SOL     OW10375   2.869   1.445   2.334
 3280SOL    HW110376   2.830   1.517   2.285
 3280SOL    HW210377   2.850   1.466   2.426
 3281SOL     OW10378   2.219   1.808   2.699
 3281SOL    HW110379   2.260   1.724   2.717
 3281SOL    HW210380   2.287   1.873   2.720
 3282SOL     OW10381   3.660   1.060   2.730
 3282SOL    HW110382   3.606   1.039   2.654
 3282SOL    HW210383   3.598   1.064   2.803
 3283SOL     OW10384   3.090   1.539   3.375
 3283SOL    HW110385   3.076   1.466   3.436
 3283SOL    HW210386   3.027   1.523   3.304
 3284SOL     OW10387   2.182   0.957   2.112
 3284SOL    HW110388   2.264   0.975   2.066
 3284SOL    HW210389   2.151   0.875   2.073
 3285SOL     OW10390   3.341   0.742   2.586
 3285SOL    HW110391   3.329   0.697   2.670
 3285SOL    HW210392   3.418   0.798   2.600
 3286SOL     OW10393   2.328   1.264   3.600
 3286SOL    HW110394   2.300   1.269   3.508
 3286SOL    HW210395   2.246   1.262   3.649
 3287SOL     OW10396   2.984   1.777   2.093
 3287SOL    HW110397   2.911   1.736   2.139
 3287SOL    HW210398   3.006   1.716   2.023
 3288SOL     OW10399   2.050   0.268   3.374
 3288SOL    HW110400   1.984   0.335   3.358
 3288SOL    HW210401   2.064   0.270   3.468
 3289SOL     OW10402   3.491   1.380   1.949
 3289SOL    HW110403   3.449   1.465   1.935
 3289SOL    HW210404   3.422   1.316   1.931
 3290SOL     OW10405   2.329   1.721   2.203
 3290SOL    HW110406   2.366   1.796   2.250
 3290SOL    HW210407   2.389   1.707   2.130
 3291SOL     OW10408   3.283   0.138   2.279
 3291SOL    HW110409   3.266   0.086   2.201
 3291SOL    HW210410   3.377   0.131   2.294
 3292SOL     OW10411   2.110   1.787   3.092
 3292SOL    HW110412   2.166   1.724   3.138
 3292SOL    HW210413   2.106   1.754   3.002
 3293SOL     OW10414   2.801   1.698   2.761
 3293SOL    HW110415   2.878   1.645   2.782
 3293SOL    HW210416   2.756   1.649   2.692
 3294SOL     OW10417   2.254   0.694   2.337
 3294SOL    HW110418   2.277   0.602   2.350
 3294SOL    HW210419   2.161   0.699   2.356
 3295SOL     OW10420   3.387   0.233   3.585
 3295SOL    HW110421   3.387   0.255   3.678
 3295SOL    HW210422   3.309   0.178   3.573
 3296SOL     OW10423   2.490   0.122   1.985
 3296SOL    HW110424   2.578   0.085   1.993
 3296SOL    HW210425   2.457   0.086   1.902
 3297SOL     OW10426   2.630   0.271   3.616
 3297SOL    HW110427   2.696   0.202   3.626
 3297SOL    HW210428   2.587   0.275   3.701
 3298SOL     OW10429   2.739   1.522   3.055
 3298SOL    HW110430   2.723   1.486   2.969
 3298SOL    HW210431   2.808   1.467   3.092
 3299SOL     OW10432   3.203   0.589   3.291
 3299SOL    HW110433   3.231   0.560   3.378
 3299SOL    HW210434   3.237   0.678   3.283
 3300SOL     OW10435   2.677   1.396   2.801
 3300SOL    HW110436   2.761   1.384   2.757
 3300SOL    HW210437   2.612   1.396   2.730
 3301SOL     OW10438   2.785   0.518   2.762
 3301SOL    HW110439   2.769   0.516   2.667
 3301SOL    HW210440   2.822   0.432   2.781
 3302SOL     OW10441   2.416   0.076   2.383
 3302SOL    HW110442   2.328   0.048   2.407
 3302SOL    HW210443   2.403   0.141   2.314
 3303SOL     OW10444   3.290   1.198   1.903
 3303SOL    HW110445   3.320   1.122   1.953
 3303SOL    HW210446   3.204   1.219   1.940
 3304SOL     OW10447   2.158   0.069   2.060
 3304SOL    HW110448   2.236   0.121   2.043
 3304SOL    HW210449   2.187   4.500   2.119
 3305SOL     OW10450   2.814   0.240   2.330
 3305SOL    HW110451   2.763   0.296   2.272
 3305SOL    HW210452   2.903   0.275   2.325
 3306SOL     OW10453   2.942   0.681   3.323
 3306SOL    HW110454   2.871   0.617   3.323
 3306SOL    HW210455   3.021   0.628   3.311
 3307SOL     OW10456   3.086   1.569   2.655
 3307SOL    HW110457   3.102   1.637   2.589
 3307SOL    HW210458   3.154   1.584   2.722
 3308SOL     OW10459   2.331   1.150   2.596
 3308SOL    HW110460   2.261   1.130   2.659
 3308SOL    HW210461   2.291   1.133   2.511
 3309SOL     OW10462   3.131   1.794   2.470
 3309SOL    HW110463   3.177   1.856   2.412
 3309SOL    HW210464   3.065   1.847   2.514
 3310SOL     OW10465   2.892   0.548   1.879
 3310SOL    HW110466   2.843   0.629   1.864
 3310SOL    HW210467   2.950   0.568   1.952
 3311SOL     OW10468   1.944   0.550   3.257
 3311SOL    HW110469   2.035   0.554   3.227
 3311SOL    HW210470   1.937   0.622   3.320
 3312SOL     OW10471   2.425   0.244   3.029
 3312SOL    HW110472   2.452   0.161   3.069
 3312SOL    HW210473   2.333   0.254   3.053
 3313SOL     OW10474   2.728   0.504   2.488
 3313SOL    HW110475   2.682   0.544   2.414
 3313SOL    HW210476   2.694   0.414   2.491
 3314SOL     OW10477   2.825   0.025   2.644
 3314SOL    HW110478   2.776   0.024   2.562
 3314SOL    HW210479   2.838   4.433   2.666
 3315SOL     OW10480   3.299   1.163   2.719
 3315SOL    HW110481   3.230   1.096   2.719
 3315SOL    HW210482   3.322   1.174   2.627
 3316SOL     OW10483   3.328   0.605   2.837
 3316SOL    HW110484   3.275   0.525   2.839
 3316SOL    HW210485   3.386   0.597   2.913
 3317SOL     OW10486   3.708   0.817   2.244
 3317SOL    HW110487   3.764   0.765   2.303
 3317SOL    HW210488   3.679   0.755   2.178
 3318SOL     OW10489   2.353   1.418   2.018
 3318SOL    HW110490   2.279   1.389   2.072
 3318SOL    HW210491   2.337   1.380   1.932
 3319SOL     OW10492   3.532   1.265   2.507
 3319SOL    HW110493   3.627   1.268   2.522
 3319SOL    HW210494   3.501   1.353   2.529
 3320SOL     OW10495   3.256   0.571   1.932
 3320SOL    HW110496   3.194   0.555   2.003
 3320SOL    HW210497   3.342   0.551   1.970
 3321SOL     OW10498   2.384   0.266   2.185
 3321SOL    HW110499   2.431   0.214   2.120
 3321SOL    HW210500   2.366   0.349   2.143
 3322SOL     OW10501   3.614   1.238   3.435
 3322SOL    HW110502   3.702   1.199   3.432
 3322SOL    HW210503   3.629   1.328   3.465
 3323SOL     OW10504   2.921   1.354   3.197
 3323SOL    HW110505   2.846   1.323   3.247
 3323SOL    HW210506   2.997   1.312   3.237
 3324SOL     OW10507   3.470   1.626   3.516
 3324SOL    HW110508   3.464   1.660   3.426
 3324SOL    HW210509   3.552   1.578   3.518
 3325SOL     OW10510   2.991   1.204   2.968
 3325SOL    HW110511   2.931   1.240   3.033
 3325SOL    HW210512   2.957   1.234   2.884
 3326SOL     OW10513   3.490   1.098   2.940
 3326SOL    HW110514   3.486   1.161   3.012
 3326SOL    HW210515   3.411   1.115   2.889
 3327SOL     OW10516   2.765   0.133   3.250
 3327SOL    HW110517   2.787   0.089   3.168
 3327SOL    HW210518   2.849   0.148   3.293
 3328SOL     OW10519   2.846   1.115   3.585
 3328SOL    HW110520   2.754   1.131   3.606
 3328SOL    HW210521   2.845   1.037   3.529
 3329SOL     OW10522   2.571   1.061   2.233
 3329SOL    HW110523   2.557   1.045   2.326
 3329SOL    HW210524   2.646   1.007   2.210
 3330SOL     OW10525   2.281   0.815   3.113
 3330SOL    HW110526   2.350   0.825   3.179
 3330SOL    HW210527   2.246   0.728   3.127
 3331SOL     OW10528   3.130   0.376   3.135
 3331SOL    HW110529   3.162   0.454   3.179
 3331SOL    HW210530   3.041   0.398   3.108
 3332SOL     OW10531   1.929   1.570   3.210
 3332SOL    HW110532   1.898   1.649   3.165
 3332SOL    HW210533   2.025   1.581   3.212
 3333SOL     OW10534   2.211   1.109   2.353
 3333SOL    HW110535   2.216   1.182   2.291
 3333SOL    HW210536   2.209   1.031   2.298
 3334SOL     OW10537   2.418   0.530   2.720
 3334SOL    HW110538   2.432   0.589   2.646
 3334SOL    HW210539   2.482   0.558   2.786
 3335SOL     OW10540   3.110   1.348   2.251
 3335SOL    HW110541   3.166   1.420   2.282
 3335SOL    HW210542   3.023   1.369   2.285
 3336SOL     OW10543   3.142   1.457   3.008
 3336SOL    HW110544   3.197   1.459   3.087
 3336SOL    HW210545   3.087   1.380   3.020
 3337SOL     OW10546   3.444   0.624   2.339
 3337SOL    HW110547   3.397   0.674   2.406
 3337SOL    HW210548   3.488   0.690   2.286
 3338SOL     OW10549   2.211   1.524   3.179
 3338SOL    HW110550   2.196   1.483   3.094
 3338SOL    HW210551   2.306   1.537   3.183
 3339SOL     OW10552   2.277   0.743   3.464
 3339SOL    HW110553   2.336   0.790   3.406
 3339SOL    HW210554   2.321   0.660   3.482
 3340SOL     OW10555   3.463   0.778   3.543
 3340SOL    HW110556   3.377   0.819   3.536
 3340SOL    HW210557   3.515   0.820   3.475
 3341SOL     OW10558   2.867   0.085   3.582
 3341SOL    HW110559   2.896   0.168   3.544
 3341SOL    HW210560   2.892   0.019   3.517
 3342SOL     OW10561   2.361   0.046   3.621
 3342SOL    HW110562   2.358   0.005   3.535
 3342SOL    HW210563   2.294   0.114   3.618
 3343SOL     OW10564   2.444   0.873   2.893
 3343SOL    HW110565   2.475   0.964   2.892
 3343SOL    HW210566   2.388   0.867   2.970
 3344SOL     OW10567   3.220   0.858   2.892
 3344SOL    HW110568   3.136   0.849   2.846
 3344SOL    HW210569   3.260   0.772   2.886
 3345SOL     OW10570   3.066   0.535   2.125
 3345SOL    HW110571   3.072   0.455   2.177
 3345SOL    HW210572   3.023   0.598   2.183
 3346SOL     OW10573   2.152   0.234   3.103
 3346SOL    HW110574   2.108   0.250   3.187
 3346SOL    HW210575   2.187   0.145   3.111
 3347SOL     OW10576   1.907   1.310   3.138
 3347SOL    HW110577   1.941   1.257   3.211
 3347SOL    HW210578   1.915   1.400   3.168
 3348SOL     OW10579   2.585   0.631   2.919
 3348SOL    HW110580   2.659   0.613   2.862
 3348SOL    HW210581   2.558   0.720   2.896
 3349SOL     OW10582   3.596   0.959   3.714
 3349SOL    HW110583   3.549   0.899   3.656
 3349SOL    HW210584   3.537   0.973   3.788
 3350SOL     OW10585   2.159   0.055   2.516
 3350SOL    HW110586   2.149   0.150   2.518
 3350SOL    HW210587   2.171   0.030   2.608
 3351SOL     OW10588   3.477   0.378   2.225
 3351SOL    HW110589   3.505   0.314   2.290
 3351SOL    HW210590   3.454   0.456   2.275
 3352SOL     OW10591   2.891   0.762   2.823
 3352SOL    HW110592   2.887   0.778   2.918
 3352SOL    HW210593   2.862   0.671   2.813
 3353SOL     OW10594   2.845   1.567   3.578
 3353SOL    HW110595   2.829   1.610   3.495
 3353SOL    HW210596   2.887   1.484   3.555
 3354SOL     OW10597   3.717   1.506   3.468
 3354SOL    HW110598   3.734   1.532   3.377
 3354SOL    HW210599   3.798   1.525   3.514
 3355SOL     OW10600   2.216   0.916   3.670
 3355SOL    HW110601   2.298   0.935   3.716
 3355SOL    HW210602   2.240   0.853   3.602
 3356SOL     OW10603   3.392   0.265   1.990
 3356SOL    HW110604   3.321   0.209   2.019
 3356SOL    HW210605   3.422   0.310   2.069
 3357SOL     OW10606   3.154   0.826   1.893
 3357SOL    HW110607   3.196   0.740   1.895
 3357SOL    HW210608   3.185   0.866   1.811
 3358SOL     OW10609   2.927   1.335   2.715
 3358SOL    HW110610   2.930   1.263   2.653
 3358SOL    HW210611   2.989   1.399   2.680
 3359SOL     OW10612   2.171   0.810   2.809
 3359SOL    HW110613   2.264   0.832   2.803
 3359SOL    HW210614   2.170   0.720   2.843
 3360SOL     OW10615   2.198   0.532   2.875
 3360SOL    HW110616   2.156   0.448   2.856
 3360SOL    HW210617   2.274   0.534   2.817
 3361SOL     OW10618   2.998   0.373   3.558
 3361SOL    HW110619   2.948   0.438   3.608
 3361SOL    HW210620   3.083   0.415   3.544
 3362SOL     OW10621   3.020   0.212   3.335
 3362SOL    HW110622   3.013   0.276   3.406
 3362SOL    HW210623   3.058   0.261   3.263
 3363SOL     OW10624   1.867   1.321   2.056
 3363SOL    HW110625   1.780   1.336   2.019
 3363SOL    HW210626   1.865   1.232   2.090
 3364SOL     OW10627   1.960   1.783   2.792
 3364SOL    HW110628   1.929   1.701   2.752
 3364SOL    HW210629   2.047   1.797   2.755
 3365SOL     OW10630   2.356   1.573   2.765
 3365SOL    HW110631   2.425   1.635   2.791
 3365SOL    HW210632   2.401   1.508   2.711
 3366SOL     OW10633   2.846   0.794   3.090
 3366SOL    HW110634   2.901   0.770   3.164
 3366SOL    HW210635   2.761   0.754   3.109
 3367SOL     OW10636   1.895   0.543   2.980
 3367SOL    HW110637   1.973   0.525   2.928
 3367SOL    HW210638   1.928   0.548   3.070
 3368SOL     OW10639   2.047   0.519   3.583
 3368SOL    HW110640   2.122   0.499   3.527
 3368SOL    HW210641   2.006   0.595   3.541
 3369SOL     OW10642   3.240   0.939   3.521
 3369SOL    HW110643   3.260   1.033   3.519
 3369SOL    HW210644   3.236   0.914   3.428
 3370SOL     OW10645   2.673   0.575   2.217
 3370SOL    HW110646   2.677   0.503   2.154
 3370SOL    HW210647   2.599   0.629   2.188
 3371SOL     OW10648   3.502   0.602   3.049
 3371SOL    HW110649   3.492   0.542   3.123
 3371SOL    HW210650   3.590   0.582   3.014
 3372SOL     OW10651   2.112   1.551   3.595
 3372SOL    HW110652   2.081   1.612   3.662
 3372SOL    HW210653   2.108   1.465   3.638
 3373SOL     OW10654   2.561   0.459   3.126
 3373SOL    HW110655   2.514   0.382   3.094
 3373SOL    HW210656   2.561   0.520   3.052
 3374SOL     OW10657   2.790   1.679   3.329
 3374SOL    HW110658   2.764   1.644   3.244
 3374SOL    HW210659   2.787   1.774   3.319
 3375SOL     OW10660   2.327   0.493   2.046
 3375SOL    HW110661   2.386   0.565   2.068
 3375SOL    HW210662   2.241   0.534   2.035
 3376SOL     OW10663   2.008   1.140   3.335
 3376SOL    HW110664   2.010   1.088   3.415
 3376SOL    HW210665   2.025   1.077   3.265
 3377SOL     OW10666   3.189   1.047   3.085
 3377SOL    HW110667   3.211   0.984   3.017
 3377SOL    HW210668   3.118   1.099   3.047
 3378SOL     OW10669   3.174   0.857   2.168
 3378SOL    HW110670   3.099   0.827   2.220
 3378SOL    HW210671   3.147   0.843   2.077
 3379SOL     OW10672   3.634   1.744   3.012
 3379SOL    HW110673   3.694   1.770   2.942
 3379SOL    HW210674   3.609   1.654   2.991
 3380SOL     OW10675   3.103   1.733   2.976
 3380SOL    HW110676   3.185   1.753   2.930
 3380SOL    HW210677   3.108   1.639   2.994
 3381SOL     OW10678   1.947   1.265   2.875
 3381SOL    HW110679   1.932   1.279   2.968
 3381SOL    HW210680   1.872   1.213   2.846
 3382SOL     OW10681   2.541   1.665   3.590
 3382SOL    HW110682   2.488   1.744   3.584
 3382SOL    HW210683   2.606   1.674   3.521
 3383SOL     OW10684   3.580   0.129   2.355
 3383SOL    HW110685   3.652   0.138   2.292
 3383SOL    HW210686   3.607   0.058   2.413
 3384SOL     OW10687   3.253   1.568   2.347
 3384SOL    HW110688   3.312   1.600   2.280
 3384SOL    HW210689   3.204   1.645   2.375
 3385SOL     OW10690   1.992   1.803   3.707
 3385SOL    HW110691   1.943   1.734   3.752
 3385SOL    HW210692   2.045   1.844   3.775
 3386SOL     OW10693   3.140   0.927   2.535
 3386SOL    HW110694   3.213   0.865   2.539
 3386SOL    HW210695   3.174   1.000   2.482
 3387SOL     OW10696   2.677   1.273   3.292
 3387SOL    HW110697   2.649   1.312   3.374
 3387SOL    HW210698   2.607   1.295   3.230
 3388SOL     OW10699   2.534   1.620   2.015
 3388SOL    HW110700   2.544   1.630   1.921
 3388SOL    HW210701   2.479   1.542   2.025
 3389SOL     OW10702   3.490   1.727   3.254
 3389SOL    HW110703   3.539   1.734   3.172
 3389SOL    HW210704   3.476   1.817   3.281
 3390SOL     OW10705   3.701   0.154   2.828
 3390SOL    HW110706   3.732   0.077   2.780
 3390SOL    HW210707   3.614   0.172   2.791
 3391SOL     OW10708   2.126   0.322   2.579
 3391SOL    HW110709   2.041   0.357   2.552
 3391SOL    HW210710   2.120   0.314   2.674
 3392SOL     OW10711   3.069   1.606   1.893
 3392SOL    HW110712   3.060   1.515   1.921
 3392SOL    HW210713   3.004   1.618   1.824
 3393SOL     OW10714   2.686   1.006   3.235
 3393SOL    HW110715   2.729   1.001   3.149
 3393SOL    HW210716   2.686   1.099   3.256
 3394SOL     OW10717   2.778   0.910   2.152
 3394SOL    HW110718   2.840   0.942   2.086
 3394SOL    HW210719   2.824   0.840   2.197
 3395SOL     OW10720   3.354   1.625   1.905
 3395SOL    HW110721   3.260   1.619   1.891
 3395SOL    HW210722   3.390   1.631   1.816
 3396SOL     OW10723   2.232   1.302   3.354
 3396SOL    HW110724   2.218   1.379   3.299
 3396SOL    HW210725   2.154   1.248   3.338
 3397SOL     OW10726   3.474   1.283   3.143
 3397SOL    HW110727   3.531   1.272   3.218
 3397SOL    HW210728   3.413   1.352   3.170
 3398SOL     OW10729   2.914   1.107   2.568
 3398SOL    HW110730   2.843   1.056   2.607
 3398SOL    HW210731   2.976   1.041   2.537
 3399SOL     OW10732   2.868   0.244   2.866
 3399SOL    HW110733   2.873   0.220   2.773
 3399SOL    HW210734   2.860   0.160   2.912
 3400SOL     OW10735   2.464   1.490   2.343
 3400SOL    HW110736   2.506   1.439   2.274
 3400SOL    HW210737   2.400   1.544   2.297
 3401SOL     OW10738   3.583   0.394   3.239
 3401SOL    HW110739   3.656   0.456   3.238
 3401SOL    HW210740   3.612   0.322   3.182
 3402SOL     OW10741   2.121   1.346   2.150
 3402SOL    HW110742   2.028   1.343   2.128
 3402SOL    HW210743   2.124   1.383   2.238
 3403SOL     OW10744   1.974   1.020   3.581
 3403SOL    HW110745   1.898   0.998   3.635
 3403SOL    HW210746   2.049   0.984   3.629
 3404SOL     OW10747   2.520   0.204   3.361
 3404SOL    HW110748   2.599   0.179   3.314
 3404SOL    HW210749   2.550   0.225   3.449
 3405SOL     OW10750   1.944   0.339   1.909
 3405SOL    HW110751   1.873   0.286   1.873
 3405SOL    HW210752   1.957   0.408   1.845
 3406SOL     OW10753   3.292   0.858   3.262
 3406SOL    HW110754   3.243   0.919   3.206
 3406SOL    HW210755   3.381   0.861   3.227
 3407SOL     OW10756   1.926   0.183   2.181
 3407SOL    HW110757   1.925   0.250   2.113
 3407SOL    HW210758   2.001   0.128   2.159
 3408SOL     OW10759   3.041   1.340   1.979
 3408SOL    HW110760   2.950   1.309   1.982
 3408SOL    HW210761   3.069   1.340   2.070
 3409SOL     OW10762   2.481   0.830   3.295
 3409SOL    HW110763   2.537   0.907   3.280
 3409SOL    HW210764   2.542   0.757   3.304
 3410SOL     OW10765   3.346   1.776   2.840
 3410SOL    HW110766   3.369   1.835   2.769
 3410SOL    HW210767   3.428   1.758   2.884
 3411SOL     OW10768   2.578   0.563   3.568
 3411SOL    HW110769   2.617   0.628   3.627
 3411SOL    HW210770   2.610   0.479   3.600
 3412SOL     OW10771   3.333   1.201   3.494
 3412SOL    HW110772   3.320   1.214   3.588
 3412SOL    HW210773   3.426   1.215   3.480
 3413SOL     OW10774   2.246   1.737   3.429
 3413SOL    HW110775   2.159   1.771   3.409
 3413SOL    HW210776   2.230   1.652   3.470
 3414SOL     OW10777   3.532   0.881   3.117
 3414SOL    HW110778   3.524   0.796   3.074
 3414SOL    HW210779   3.522   0.945   3.047
 3415SOL     OW10780   3.080   0.330   2.309
 3415SOL    HW110781   3.146   0.261   2.299
 3415SOL    HW210782   3.108   0.377   2.388
 3416SOL     OW10783   2.449   0.738   2.533
 3416SOL    HW110784   2.491   0.823   2.517
 3416SOL    HW210785   2.382   0.731   2.465
 3417SOL     OW10786   3.625   0.365   3.505
 3417SOL    HW110787   3.608   0.379   3.412
 3417SOL    HW210788   3.547   0.319   3.537
 3418SOL     OW10789   3.608   0.933   3.374
 3418SOL    HW110790   3.604   1.028   3.387
 3418SOL    HW210791   3.592   0.921   3.280
 3419SOL     OW10792   2.724   1.367   1.895
 3419SOL    HW110793   2.686   1.394   1.979
 3419SOL    HW210794   2.742   1.450   1.850
 3420SOL     OW10795   2.528   1.778   2.804
 3420SOL    HW110796   2.508   1.870   2.783
 3420SOL    HW210797   2.623   1.774   2.803
 3421SOL     OW10798   2.729   0.967   2.717
 3421SOL    HW110799   2.779   0.895   2.756
 3421SOL    HW210800   2.695   1.016   2.792
 3422SOL     OW10801   2.942   0.989   1.951
 3422SOL    HW110802   2.919   1.039   1.872
 3422SOL    HW210803   3.016   0.935   1.924
 3423SOL     OW10804   3.716   1.555   2.707
 3423SOL    HW110805   3.639   1.543   2.652
 3423SOL    HW210806   3.709   1.487   2.774
 3424SOL     OW10807   2.087   1.302   3.718
 3424SOL    HW110808   2.019   1.242   3.688
 3424SOL    HW210809   2.068   1.315   3.811
 3425SOL     OW10810   1.948   1.234   2.526
 3425SOL    HW110811   1.950   1.187   2.609
 3425SOL    HW210812   2.015   1.191   2.472
 3426SOL     OW10813   2.542   1.402   3.489
 3426SOL    HW110814   2.463   1.358   3.519
 3426SOL    HW210815   2.538   1.490   3.527
 3427SOL     OW10816   3.670   0.181   3.101
 3427SOL    HW110817   3.669   0.088   3.121
 3427SOL    HW210818   3.686   0.185   3.006
 3428SOL     OW10819   2.298   0.433   2.392
 3428SOL    HW110820   2.320   0.364   2.329
 3428SOL    HW210821   2.242   0.390   2.457
 3429SOL     OW10822   3.562   1.490   2.959
 3429SOL    HW110823   3.481   1.466   2.913
 3429SOL    HW210824   3.573   1.420   3.024
 3430SOL     OW10825   2.192   0.557   3.154
 3430SOL    HW110826   2.247   0.501   3.208
 3430SOL    HW210827   2.211   0.530   3.064
 3431SOL     OW10828   2.689   1.577   2.539
 3431SOL    HW110829   2.676   1.627   2.459
 3431SOL    HW210830   2.613   1.520   2.545
 3432SOL     OW10831   3.294   0.216   2.980
 3432SOL    HW110832   3.330   0.145   3.033
 3432SOL    HW210833   3.243   0.269   3.041
 3433SOL     OW10834   2.858   0.007   3.012
 3433SOL    HW110835   2.816   4.422   3.005
 3433SOL    HW210836   2.951   4.487   3.024
 3434SOL     OW10837   2.635   1.332   2.175
 3434SOL    HW110838   2.602   1.243   2.182
 3434SOL    HW210839   2.716   1.332   2.225
 3435SOL     OW10840   2.483   1.556   3.147
 3435SOL    HW110841   2.485   1.638   3.196
 3435SOL    HW210842   2.570   1.549   3.108
 3436SOL     OW10843   3.202   0.053   2.015
 3436SOL    HW110844   3.241   4.477   1.972
 3436SOL    HW210845   3.127   0.017   2.062
 3437SOL     OW10846   3.177   0.463   2.539
 3437SOL    HW110847   3.117   0.538   2.539
 3437SOL    HW210848   3.165   0.422   2.624
 3438SOL     OW10849   3.447   0.200   2.729
 3438SOL    HW110850   3.388   0.215   2.803
 3438SOL    HW210851   3.450   0.284   2.683
 3439SOL     OW10852   1.906   1.071   2.168
 3439SOL    HW110853   2.000   1.063   2.150
 3439SOL    HW210854   1.877   0.983   2.190
 3440SOL     OW10855   2.745   1.653   2.205
 3440SOL    HW110856   2.673   1.634   2.144
 3440SOL    HW210857   2.715   1.728   2.256
 3441SOL     OW10858   2.091   0.626   3.845
 3441SOL    HW110859   2.004   0.620   3.883
 3441SOL    HW210860   2.079   0.596   3.754
 3442SOL     OW10861   2.070   0.299   4.713
 3442SOL    HW110862   2.101   0.270   4.799
 3442SOL    HW210863   1.988   0.251   4.700
 3443SOL     OW10864   1.870   0.386   4.362
 3443SOL    HW110865   1.783   0.405   4.399
 3443SOL    HW210866   1.855   0.312   4.303
 3444SOL     OW10867   2.428   1.255   4.904
 3444SOL    HW110868   2.341   1.242   4.866
 3444SOL    HW210869   2.439   1.350   4.905
 3445SOL     OW10870   3.422   1.512   4.431
 3445SOL    HW110871   3.379   1.492   4.514
 3445SOL    HW210872   3.350   1.516   4.368
 3446SOL     OW10873   2.997   0.698   4.423
 3446SOL    HW110874   3.042   0.781   4.412
 3446SOL    HW210875   2.946   0.709   4.504
 3447SOL     OW10876   3.630   0.607   3.952
 3447SOL    HW110877   3.609   0.597   3.859
 3447SOL    HW210878   3.596   0.527   3.993
 3448SOL     OW10879   2.624   1.137   4.763
 3448SOL    HW110880   2.556   1.167   4.824
 3448SOL    HW210881   2.653   1.216   4.719
 3449SOL     OW10882   2.728   0.775   5.545
 3449SOL    HW110883   2.714   0.847   5.607
 3449SOL    HW210884   2.752   0.819   5.463
 3450SOL     OW10885   2.548   1.003   4.371
 3450SOL    HW110886   2.613   0.991   4.440
 3450SOL    HW210887   2.479   1.054   4.412
 3451SOL     OW10888   2.571   1.149   5.534
 3451SOL    HW110889   2.618   1.229   5.558
 3451SOL    HW210890   2.486   1.181   5.502
 3452SOL     OW10891   3.322   1.496   5.080
 3452SOL    HW110892   3.366   1.581   5.088
 3452SOL    HW210893   3.261   1.495   5.155
 3453SOL     OW10894   2.304   0.395   5.214
 3453SOL    HW110895   2.386   0.346   5.215
 3453SOL    HW210896   2.236   0.329   5.227
 3454SOL     OW10897   3.473   0.446   4.462
 3454SOL    HW110898   3.392   0.468   4.415
 3454SOL    HW210899   3.491   0.524   4.515
 3455SOL     OW10900   2.081   1.716   4.195
 3455SOL    HW110901   2.103   1.789   4.254
 3455SOL    HW210902   2.157   1.709   4.138
 3456SOL     OW10903   3.003   1.351   5.424
 3456SOL    HW110904   3.034   1.340   5.514
 3456SOL    HW210905   2.945   1.276   5.410
 3457SOL     OW10906   2.091   1.442   4.259
 3457SOL    HW110907   2.073   1.536   4.266
 3457SOL    HW210908   2.033   1.402   4.324
 3458SOL     OW10909   2.118   1.092   4.614
 3458SOL    HW110910   2.113   1.006   4.656
 3458SOL    HW210911   2.061   1.147   4.667
 3459SOL     OW10912   2.448   0.982   3.858
 3459SOL    HW110913   2.493   1.031   3.789
 3459SOL    HW210914   2.488   1.012   3.940
 3460SOL     OW10915   3.445   0.115   5.196
 3460SOL    HW110916   3.466   0.183   5.132
 3460SOL    HW210917   3.433   0.162   5.278
 3461SOL     OW10918   1.978   0.653   4.284
 3461SOL    HW110919   1.948   0.565   4.306
 3461SOL    HW210920   1.969   0.702   4.365
 3462SOL     OW10921   3.704   1.759   4.058
 3462SOL    HW110922   3.766   1.730   4.125
 3462SOL    HW210923   3.729   1.850   4.040
 3463SOL     OW10924   1.896   1.595   3.847
 3463SOL    HW110925   1.877   1.503   3.866
 3463SOL    HW210926   1.870   1.642   3.927
 3464SOL     OW10927   3.553   0.921   4.365
 3464SOL    HW110928   3.636   0.878   4.343
 3464SOL    HW210929   3.530   0.970   4.286
 3465SOL     OW10930   3.508   1.107   4.153
 3465SOL    HW110931   3.594   1.114   4.111
 3465SOL    HW210932   3.512   1.168   4.226
 3466SOL     OW10933   1.985   0.745   5.309
 3466SOL    HW110934   2.076   0.770   5.317
 3466SOL    HW210935   1.936   0.827   5.318
 3467SOL     OW10936   2.473   1.382   4.448
 3467SOL    HW110937   2.427   1.299   4.460
 3467SOL    HW210938   2.454   1.407   4.358
 3468SOL     OW10939   3.154   1.234   5.152
 3468SOL    HW110940   3.185   1.169   5.090
 3468SOL    HW210941   3.213   1.226   5.227
 3469SOL     OW10942   2.679   0.014   4.274
 3469SOL    HW110943   2.714   0.099   4.249
 3469SOL    HW210944   2.584   0.025   4.267
 3470SOL     OW10945   2.052   0.966   4.995
 3470SOL    HW110946   2.137   0.924   4.981
 3470SOL    HW210947   1.990   0.914   4.945
 3471SOL     OW10948   3.394   0.992   3.922
 3471SOL    HW110949   3.323   0.936   3.954
 3471SOL    HW210950   3.434   1.027   4.002
 3472SOL     OW10951   3.084   1.790   5.349
 3472SOL    HW110952   3.071   1.849   5.275
 3472SOL    HW210953   3.100   1.704   5.310
 3473SOL     OW10954   2.177   0.254   5.504
 3473SOL    HW110955   2.240   0.318   5.536
 3473SOL    HW210956   2.104   0.260   5.565
 3474SOL     OW10957   3.333   1.417   4.677
 3474SOL    HW110958   3.263   1.431   4.742
 3474SOL    HW210959   3.320   1.327   4.647
 3475SOL     OW10960   3.522   1.738   4.302
 3475SOL    HW110961   3.500   1.709   4.213
 3475SOL    HW210962   3.495   1.665   4.358
 3476SOL     OW10963   2.455   0.723   3.989
 3476SOL    HW110964   2.461   0.805   3.940
 3476SOL    HW210965   2.390   0.741   4.057
 3477SOL     OW10966   3.153   0.363   4.657
 3477SOL    HW110967   3.064   0.333   4.641
 3477SOL    HW210968   3.189   0.300   4.719
 3478SOL     OW10969   3.442   1.672   4.033
 3478SOL    HW110970   3.533   1.702   4.026
 3478SOL    HW210971   3.416   1.654   3.943
 3479SOL     OW10972   2.657   0.619   5.178
 3479SOL    HW110973   2.629   0.594   5.266
 3479SOL    HW210974   2.617   0.554   5.120
 3480SOL     OW10975   3.250   0.479   5.400
 3480SOL    HW110976   3.254   0.523   5.485
 3480SOL    HW210977   3.317   0.411   5.406
 3481SOL     OW10978   2.818   0.889   5.306
 3481SOL    HW110979   2.871   0.818   5.272
 3481SOL    HW210980   2.770   0.922   5.230
 3482SOL     OW10981   2.858   0.416   4.961
 3482SOL    HW110982   2.770   0.427   4.996
 3482SOL    HW210983   2.845   0.365   4.881
 3483SOL     OW10984   2.912   0.697   4.151
 3483SOL    HW110985   2.928   0.690   4.245
 3483SOL    HW210986   2.829   0.651   4.137
 3484SOL     OW10987   1.951   0.820   4.501
 3484SOL    HW110988   2.032   0.814   4.551
 3484SOL    HW210989   1.907   0.899   4.534
 3485SOL     OW10990   2.717   0.369   3.906
 3485SOL    HW110991   2.789   0.403   3.854
 3485SOL    HW210992   2.732   0.275   3.910
 3486SOL     OW10993   3.567   0.574   5.552
 3486SOL    HW110994   3.531   0.649   5.504
 3486SOL    HW210995   3.602   0.517   5.484
 3487SOL     OW10996   3.239   1.142   4.266
 3487SOL    HW110997   3.317   1.130   4.212
 3487SOL    HW210998   3.186   1.205   4.216
 3488SOL     OW10999   2.400   0.204   4.625
 3488SOL    HW111000   2.421   0.222   4.717
 3488SOL    HW211001   2.392   0.290   4.585
 3489SOL     OW11002   2.868   1.443   4.195
 3489SOL    HW111003   2.831   1.517   4.147
 3489SOL    HW211004   2.851   1.464   4.287
 3490SOL     OW11005   2.227   1.802   4.579
 3490SOL    HW111006   2.214   1.710   4.602
 3490SOL    HW211007   2.318   1.821   4.601
 3491SOL     OW11008   3.660   1.060   4.592
 3491SOL    HW111009   3.606   1.040   4.516
 3491SOL    HW211010   3.598   1.064   4.665
 3492SOL     OW11011   3.082   1.538   5.239
 3492SOL    HW111012   3.063   1.468   5.303
 3492SOL    HW211013   3.031   1.515   5.162
 3493SOL     OW11014   2.182   0.957   3.974
 3493SOL    HW111015   2.264   0.975   3.928
 3493SOL    HW211016   2.151   0.875   3.935
 3494SOL     OW11017   3.342   0.741   4.448
 3494SOL    HW111018   3.329   0.698   4.532
 3494SOL    HW211019   3.418   0.798   4.462
 3495SOL     OW11020   2.331   1.260   5.460
 3495SOL    HW111021   2.299   1.261   5.370
 3495SOL    HW211022   2.254   1.274   5.514
 3496SOL     OW11023   2.983   1.779   3.953
 3496SOL    HW111024   2.912   1.737   4.001
 3496SOL    HW211025   3.006   1.716   3.885
 3497SOL     OW11026   2.050   0.267   5.236
 3497SOL    HW111027   1.984   0.335   5.220
 3497SOL    HW211028   2.064   0.270   5.330
 3498SOL     OW11029   3.491   1.380   3.810
 3498SOL    HW111030   3.449   1.465   3.797
 3498SOL    HW211031   3.422   1.316   3.793
 3499SOL     OW11032   2.328   1.737   4.044
 3499SOL    HW111033   2.371   1.794   4.108
 3499SOL    HW211034   2.400   1.704   3.990
 3500SOL     OW11035   3.283   0.138   4.141
 3500SOL    HW111036   3.266   0.087   4.062
 3500SOL    HW211037   3.377   0.131   4.156
 3501SOL     OW11038   2.831   1.686   4.597
 3501SOL    HW111039   2.895   1.619   4.620
 3501SOL    HW211040   2.775   1.645   4.532
 3502SOL     OW11041   2.254   0.694   4.199
 3502SOL    HW111042   2.277   0.602   4.212
 3502SOL    HW211043   2.161   0.699   4.218
 3503SOL     OW11044   3.387   0.233   5.446
 3503SOL    HW111045   3.387   0.255   5.540
 3503SOL    HW211046   3.309   0.178   5.435
 3504SOL     OW11047   2.489   0.121   3.847
 3504SOL    HW111048   2.578   0.086   3.855
 3504SOL    HW211049   2.456   0.086   3.764
 3505SOL     OW11050   2.631   0.271   5.478
 3505SOL    HW111051   2.696   0.202   5.488
 3505SOL    HW211052   2.587   0.275   5.563
 3506SOL     OW11053   3.203   0.589   5.152
 3506SOL    HW111054   3.231   0.560   5.240
 3506SOL    HW211055   3.237   0.678   5.145
 3507SOL     OW11056   2.668   1.376   4.648
 3507SOL    HW111057   2.757   1.381   4.613
 3507SOL    HW211058   2.611   1.386   4.571
 3508SOL     OW11059   2.785   0.518   4.624
 3508SOL    HW111060   2.769   0.517   4.529
 3508SOL    HW211061   2.823   0.432   4.643
 3509SOL     OW11062   2.416   0.075   4.245
 3509SOL    HW111063   2.328   0.048   4.269
 3509SOL    HW211064   2.403   0.140   4.176
 3510SOL     OW11065   3.290   1.198   3.766
 3510SOL    HW111066   3.320   1.122   3.816
 3510SOL    HW211067   3.205   1.219   3.803
 3511SOL     OW11068   2.157   0.068   3.922
 3511SOL    HW111069   2.235   0.121   3.904
 3511SOL    HW211070   2.188   4.500   3.982
 3512SOL     OW11071   2.815   0.240   4.192
 3512SOL    HW111072   2.763   0.296   4.135
 3512SOL    HW211073   2.903   0.276   4.187
 3513SOL     OW11074   2.942   0.680   5.186
 3513SOL    HW111075   2.870   0.617   5.184
 3513SOL    HW211076   3.021   0.628   5.173
 3514SOL     OW11077   3.095   1.562   4.512
 3514SOL    HW111078   3.103   1.635   4.451
 3514SOL    HW211079   3.157   1.583   4.583
 3515SOL     OW11080   2.330   1.148   4.457
 3515SOL    HW111081   2.260   1.130   4.520
 3515SOL    HW211082   2.289   1.131   4.372
 3516SOL     OW11083   3.133   1.792   4.331
 3516SOL    HW111084   3.175   1.859   4.276
 3516SOL    HW211085   3.058   1.837   4.369
 3517SOL     OW11086   2.891   0.548   3.741
 3517SOL    HW111087   2.843   0.629   3.726
 3517SOL    HW211088   2.950   0.568   3.814
 3518SOL     OW11089   1.944   0.550   5.119
 3518SOL    HW111090   2.035   0.554   5.089
 3518SOL    HW211091   1.937   0.622   5.182
 3519SOL     OW11092   2.425   0.243   4.891
 3519SOL    HW111093   2.452   0.161   4.931
 3519SOL    HW211094   2.333   0.253   4.915
 3520SOL     OW11095   2.728   0.503   4.350
 3520SOL    HW111096   2.682   0.545   4.277
 3520SOL    HW211097   2.694   0.414   4.352
 3521SOL     OW11098   2.825   0.025   4.506
 3521SOL    HW111099   2.776   0.024   4.424
 3521SOL    HW211100   2.838   4.433   4.528
 3522SOL     OW11101   3.300   1.161   4.580
 3522SOL    HW111102   3.229   1.098   4.582
 3522SOL    HW211103   3.321   1.173   4.487
 3523SOL     OW11104   3.328   0.605   4.699
 3523SOL    HW111105   3.274   0.525   4.701
 3523SOL    HW211106   3.385   0.597   4.775
 3524SOL     OW11107   3.708   0.817   4.106
 3524SOL    HW111108   3.764   0.765   4.165
 3524SOL    HW211109   3.680   0.755   4.040
 3525SOL     OW11110   2.352   1.418   3.882
 3525SOL    HW111111   2.277   1.388   3.934
 3525SOL    HW211112   2.338   1.380   3.795
 3526SOL     OW11113   3.532   1.265   4.368
 3526SOL    HW111114   3.627   1.269   4.384
 3526SOL    HW211115   3.500   1.353   4.391
 3527SOL     OW11116   3.256   0.570   3.794
 3527SOL    HW111117   3.194   0.555   3.865
 3527SOL    HW211118   3.342   0.551   3.832
 3528SOL     OW11119   2.384   0.265   4.048
 3528SOL    HW111120   2.431   0.214   3.982
 3528SOL    HW211121   2.366   0.349   4.005
 3529SOL     OW11122   3.615   1.239   5.298
 3529SOL    HW111123   3.702   1.199   5.294
 3529SOL    HW211124   3.630   1.329   5.327
 3530SOL     OW11125   2.932   1.359   5.064
 3530SOL    HW111126   2.851   1.329   5.106
 3530SOL    HW211127   3.001   1.309   5.107
 3531SOL     OW11128   3.469   1.625   5.378
 3531SOL    HW111129   3.464   1.660   5.289
 3531SOL    HW211130   3.552   1.577   5.380
 3532SOL     OW11131   2.982   1.203   4.832
 3532SOL    HW111132   2.927   1.248   4.896
 3532SOL    HW211133   2.953   1.236   4.747
 3533SOL     OW11134   3.490   1.098   4.802
 3533SOL    HW111135   3.485   1.161   4.874
 3533SOL    HW211136   3.411   1.115   4.750
 3534SOL     OW11137   2.764   0.132   5.112
 3534SOL    HW111138   2.786   0.089   5.030
 3534SOL    HW211139   2.849   0.148   5.154
 3535SOL     OW11140   2.847   1.116   5.449
 3535SOL    HW111141   2.755   1.132   5.466
 3535SOL    HW211142   2.848   1.040   5.391
 3536SOL     OW11143   2.571   1.062   4.095
 3536SOL    HW111144   2.557   1.045   4.189
 3536SOL    HW211145   2.646   1.008   4.073
 3537SOL     OW11146   2.280   0.817   4.977
 3537SOL    HW111147   2.350   0.825   5.041
 3537SOL    HW211148   2.246   0.728   4.989
 3538SOL     OW11149   3.130   0.375   4.997
 3538SOL    HW111150   3.163   0.454   5.041
 3538SOL    HW211151   3.041   0.397   4.970
 3539SOL     OW11152   2.211   1.109   4.214
 3539SOL    HW111153   2.215   1.182   4.153
 3539SOL    HW211154   2.209   1.031   4.158
 3540SOL     OW11155   2.418   0.530   4.582
 3540SOL    HW111156   2.431   0.589   4.508
 3540SOL    HW211157   2.482   0.558   4.647
 3541SOL     OW11158   3.111   1.348   4.113
 3541SOL    HW111159   3.166   1.420   4.144
 3541SOL    HW211160   3.023   1.369   4.147
 3542SOL     OW11161   3.146   1.448   4.868
 3542SOL    HW111162   3.196   1.451   4.950
 3542SOL    HW211163   3.076   1.385   4.886
 3543SOL     OW11164   3.444   0.624   4.201
 3543SOL    HW111165   3.397   0.673   4.268
 3543SOL    HW211166   3.487   0.690   4.148
 3544SOL     OW11167   2.277   0.742   5.326
 3544SOL    HW111168   2.336   0.790   5.267
 3544SOL    HW211169   2.322   0.660   5.344
 3545SOL     OW11170   3.463   0.778   5.405
 3545SOL    HW111171   3.377   0.820   5.398
 3545SOL    HW211172   3.515   0.820   5.336
 3546SOL     OW11173   2.867   0.084   5.444
 3546SOL    HW111174   2.896   0.167   5.407
 3546SOL    HW211175   2.891   0.019   5.379
 3547SOL     OW11176   2.360   0.046   5.484
 3547SOL    HW111177   2.359   0.006   5.397
 3547SOL    HW211178   2.293   0.114   5.480
 3548SOL     OW11179   2.444   0.873   4.754
 3548SOL    HW111180   2.479   0.962   4.753
 3548SOL    HW211181   2.389   0.870   4.832
 3549SOL     OW11182   3.220   0.858   4.754
 3549SOL    HW111183   3.136   0.850   4.709
 3549SOL    HW211184   3.260   0.772   4.747
 3550SOL     OW11185   3.066   0.535   3.987
 3550SOL    HW111186   3.072   0.455   4.039
 3550SOL    HW211187   3.023   0.598   4.045
 3551SOL     OW11188   2.152   0.234   4.965
 3551SOL    HW111189   2.108   0.249   5.049
 3551SOL    HW211190   2.187   0.145   4.973
 3552SOL     OW11191   1.909   1.312   5.010
 3552SOL    HW111192   1.938   1.249   5.076
 3552SOL    HW211193   1.914   1.397   5.054
 3553SOL     OW11194   2.585   0.631   4.781
 3553SOL    HW111195   2.659   0.613   4.724
 3553SOL    HW211196   2.558   0.720   4.758
 3554SOL     OW11197   3.596   0.959   5.576
 3554SOL    HW111198   3.550   0.899   5.518
 3554SOL    HW211199   3.537   0.972   5.650
 3555SOL     OW11200   2.159   0.055   4.378
 3555SOL    HW111201   2.149   0.150   4.379
 3555SOL    HW211202   2.171   0.030   4.470
 3556SOL     OW11203   3.477   0.378   4.087
 3556SOL    HW111204   3.505   0.314   4.152
 3556SOL    HW211205   3.454   0.456   4.137
 3557SOL     OW11206   2.892   0.761   4.685
 3557SOL    HW111207   2.888   0.778   4.780
 3557SOL    HW211208   2.862   0.671   4.675
 3558SOL     OW11209   3.717   1.506   5.330
 3558SOL    HW111210   3.734   1.532   5.240
 3558SOL    HW211211   3.799   1.525   5.376
 3559SOL     OW11212   2.214   0.915   5.531
 3559SOL    HW111213   2.295   0.938   5.575
 3559SOL    HW211214   2.239   0.852   5.464
 3560SOL     OW11215   3.393   0.265   3.852
 3560SOL    HW111216   3.321   0.209   3.881
 3560SOL    HW211217   3.422   0.310   3.931
 3561SOL     OW11218   3.154   0.826   3.755
 3561SOL    HW111219   3.196   0.740   3.757
 3561SOL    HW211220   3.185   0.866   3.673
 3562SOL     OW11221   2.929   1.338   4.574
 3562SOL    HW111222   2.931   1.264   4.514
 3562SOL    HW211223   2.995   1.398   4.540
 3563SOL     OW11224   2.171   0.810   4.672
 3563SOL    HW111225   2.263   0.833   4.665
 3563SOL    HW211226   2.171   0.720   4.705
 3564SOL     OW11227   2.198   0.531   4.737
 3564SOL    HW111228   2.156   0.448   4.718
 3564SOL    HW211229   2.275   0.534   4.679
 3565SOL     OW11230   2.998   0.373   5.420
 3565SOL    HW111231   2.947   0.438   5.470
 3565SOL    HW211232   3.083   0.414   5.406
 3566SOL     OW11233   3.020   0.212   5.197
 3566SOL    HW111234   3.013   0.276   5.268
 3566SOL    HW211235   3.058   0.261   5.125
 3567SOL     OW11236   1.867   1.321   3.918
 3567SOL    HW111237   1.780   1.335   3.881
 3567SOL    HW211238   1.864   1.232   3.952
 3568SOL     OW11239   2.380   1.565   4.629
 3568SOL    HW111240   2.437   1.640   4.614
 3568SOL    HW211241   2.410   1.500   4.564
 3569SOL     OW11242   2.847   0.791   4.951
 3569SOL    HW111243   2.901   0.769   5.027
 3569SOL    HW211244   2.761   0.754   4.972
 3570SOL     OW11245   1.895   0.543   4.842
 3570SOL    HW111246   1.973   0.525   4.789
 3570SOL    HW211247   1.928   0.547   4.932
 3571SOL     OW11248   2.047   0.519   5.445
 3571SOL    HW111249   2.122   0.499   5.389
 3571SOL    HW211250   2.006   0.595   5.403
 3572SOL     OW11251   3.239   0.939   5.383
 3572SOL    HW111252   3.260   1.032   5.381
 3572SOL    HW211253   3.235   0.913   5.291
 3573SOL     OW11254   2.673   0.575   4.079
 3573SOL    HW111255   2.677   0.503   4.016
 3573SOL    HW211256   2.599   0.629   4.050
 3574SOL     OW11257   3.502   0.601   4.911
 3574SOL    HW111258   3.492   0.542   4.985
 3574SOL    HW211259   3.590   0.582   4.876
 3575SOL     OW11260   2.560   0.459   4.988
 3575SOL    HW111261   2.514   0.382   4.955
 3575SOL    HW211262   2.561   0.520   4.914
 3576SOL     OW11263   2.327   0.492   3.908
 3576SOL    HW111264   2.386   0.565   3.930
 3576SOL    HW211265   2.241   0.534   3.897
 3577SOL     OW11266   2.013   1.140   5.196
 3577SOL    HW111267   2.013   1.089   5.277
 3577SOL    HW211268   2.028   1.075   5.127
 3578SOL     OW11269   3.187   1.048   4.947
 3578SOL    HW111270   3.210   0.985   4.879
 3578SOL    HW211271   3.115   1.099   4.910
 3579SOL     OW11272   3.174   0.856   4.030
 3579SOL    HW111273   3.099   0.828   4.082
 3579SOL    HW211274   3.147   0.843   3.939
 3580SOL     OW11275   3.633   1.744   4.874
 3580SOL    HW111276   3.694   1.769   4.804
 3580SOL    HW211277   3.608   1.654   4.853
 3581SOL     OW11278   3.142   1.720   4.857
 3581SOL    HW111279   3.211   1.738   4.793
 3581SOL    HW211280   3.133   1.625   4.857
 3582SOL     OW11281   1.941   1.254   4.743
 3582SOL    HW111282   1.925   1.271   4.836
 3582SOL    HW211283   1.865   1.202   4.715
 3583SOL     OW11284   2.575   1.657   5.483
 3583SOL    HW111285   2.486   1.689   5.464
 3583SOL    HW211286   2.625   1.677   5.404
 3584SOL     OW11287   3.580   0.129   4.217
 3584SOL    HW111288   3.652   0.138   4.154
 3584SOL    HW211289   3.607   0.058   4.275
 3585SOL     OW11290   3.252   1.568   4.208
 3585SOL    HW111291   3.312   1.602   4.141
 3585SOL    HW211292   3.204   1.645   4.239
 3586SOL     OW11293   3.140   0.927   4.396
 3586SOL    HW111294   3.213   0.865   4.401
 3586SOL    HW211295   3.174   1.000   4.344
 3587SOL     OW11296   2.684   1.271   5.156
 3587SOL    HW111297   2.649   1.313   5.235
 3587SOL    HW211298   2.618   1.289   5.089
 3588SOL     OW11299   2.531   1.621   3.879
 3588SOL    HW111300   2.544   1.632   3.785
 3588SOL    HW211301   2.478   1.542   3.887
 3589SOL     OW11302   3.491   1.728   5.118
 3589SOL    HW111303   3.538   1.734   5.035
 3589SOL    HW211304   3.476   1.820   5.143
 3590SOL     OW11305   3.701   0.154   4.690
 3590SOL    HW111306   3.732   0.077   4.642
 3590SOL    HW211307   3.614   0.172   4.654
 3591SOL     OW11308   2.126   0.322   4.441
 3591SOL    HW111309   2.041   0.356   4.414
 3591SOL    HW211310   2.120   0.314   4.536
 3592SOL     OW11311   3.070   1.606   3.755
 3592SOL    HW111312   3.060   1.515   3.783
 3592SOL    HW211313   3.004   1.617   3.686
 3593SOL     OW11314   2.687   1.005   5.095
 3593SOL    HW111315   2.730   1.001   5.009
 3593SOL    HW211316   2.690   1.097   5.119
 3594SOL     OW11317   2.777   0.910   4.013
 3594SOL    HW111318   2.839   0.942   3.948
 3594SOL    HW211319   2.824   0.840   4.059
 3595SOL     OW11320   3.354   1.625   3.767
 3595SOL    HW111321   3.260   1.619   3.754
 3595SOL    HW211322   3.390   1.631   3.678
 3596SOL     OW11323   2.236   1.295   5.213
 3596SOL    HW111324   2.209   1.380   5.178
 3596SOL    HW211325   2.161   1.238   5.198
 3597SOL     OW11326   3.475   1.284   5.005
 3597SOL    HW111327   3.531   1.273   5.081
 3597SOL    HW211328   3.412   1.351   5.031
 3598SOL     OW11329   2.914   1.107   4.429
 3598SOL    HW111330   2.842   1.057   4.469
 3598SOL    HW211331   2.976   1.040   4.400
 3599SOL     OW11332   2.868   0.244   4.728
 3599SOL    HW111333   2.873   0.221   4.636
 3599SOL    HW211334   2.860   0.160   4.774
 3600SOL     OW11335   2.463   1.490   4.199
 3600SOL    HW111336   2.507   1.439   4.131
 3600SOL    HW211337   2.391   1.533   4.153
 3601SOL     OW11338   3.583   0.394   5.101
 3601SOL    HW111339   3.656   0.456   5.100
 3601SOL    HW211340   3.612   0.322   5.045
 3602SOL     OW11341   2.121   1.346   4.013
 3602SOL    HW111342   2.028   1.343   3.989
 3602SOL    HW211343   2.122   1.382   4.101
 3603SOL     OW11344   1.973   1.021   5.440
 3603SOL    HW111345   1.897   0.998   5.495
 3603SOL    HW211346   2.048   0.985   5.488
 3604SOL     OW11347   2.520   0.204   5.223
 3604SOL    HW111348   2.599   0.179   5.176
 3604SOL    HW211349   2.550   0.226   5.311
 3605SOL     OW11350   1.943   0.339   3.771
 3605SOL    HW111351   1.873   0.286   3.735
 3605SOL    HW211352   1.957   0.408   3.707
 3606SOL     OW11353   3.292   0.858   5.124
 3606SOL    HW111354   3.242   0.919   5.068
 3606SOL    HW211355   3.381   0.861   5.089
 3607SOL     OW11356   1.926   0.183   4.043
 3607SOL    HW111357   1.925   0.250   3.975
 3607SOL    HW211358   2.001   0.127   4.021
 3608SOL     OW11359   3.041   1.340   3.841
 3608SOL    HW111360   2.951   1.308   3.844
 3608SOL    HW211361   3.069   1.340   3.933
 3609SOL     OW11362   2.481   0.831   5.157
 3609SOL    HW111363   2.537   0.907   5.141
 3609SOL    HW211364   2.543   0.758   5.166
 3610SOL     OW11365   3.355   1.773   4.693
 3610SOL    HW111366   3.377   1.833   4.622
 3610SOL    HW211367   3.437   1.760   4.740
 3611SOL     OW11368   2.578   0.563   5.430
 3611SOL    HW111369   2.617   0.628   5.489
 3611SOL    HW211370   2.610   0.479   5.461
 3612SOL     OW11371   3.336   1.199   5.357
 3612SOL    HW111372   3.322   1.214   5.451
 3612SOL    HW211373   3.429   1.214   5.344
 3613SOL     OW11374   3.532   0.881   4.980
 3613SOL    HW111375   3.524   0.796   4.936
 3613SOL    HW211376   3.522   0.945   4.909
 3614SOL     OW11377   3.080   0.330   4.171
 3614SOL    HW111378   3.146   0.261   4.161
 3614SOL    HW211379   3.108   0.377   4.250
 3615SOL     OW11380   2.449   0.738   4.395
 3615SOL    HW111381   2.491   0.823   4.380
 3615SOL    HW211382   2.382   0.732   4.326
 3616SOL     OW11383   3.625   0.365   5.368
 3616SOL    HW111384   3.609   0.379   5.274
 3616SOL    HW211385   3.547   0.319   5.399
 3617SOL     OW11386   3.609   0.933   5.236
 3617SOL    HW111387   3.603   1.028   5.249
 3617SOL    HW211388   3.592   0.921   5.143
 3618SOL     OW11389   2.723   1.367   3.757
 3618SOL    HW111390   2.687   1.392   3.842
 3618SOL    HW211391   2.742   1.450   3.713
 3619SOL     OW11392   2.501   1.815   4.643
 3619SOL    HW111393   2.499   1.907   4.668
 3619SOL    HW211394   2.583   1.781   4.679
 3620SOL     OW11395   2.730   0.966   4.577
 3620SOL    HW111396   2.781   0.896   4.618
 3620SOL    HW211397   2.697   1.018   4.651
 3621SOL     OW11398   2.942   0.989   3.813
 3621SOL    HW111399   2.919   1.039   3.734
 3621SOL    HW211400   3.016   0.935   3.786
 3622SOL     OW11401   3.716   1.555   4.569
 3622SOL    HW111402   3.638   1.544   4.514
 3622SOL    HW211403   3.708   1.488   4.636
 3623SOL     OW11404   2.085   1.301   5.576
 3623SOL    HW111405   2.025   1.231   5.551
 3623SOL    HW211406   2.045   1.340   5.654
 3624SOL     OW11407   1.946   1.233   4.389
 3624SOL    HW111408   1.954   1.187   4.473
 3624SOL    HW211409   2.014   1.195   4.334
 3625SOL     OW11410   2.535   1.408   5.341
 3625SOL    HW111411   2.462   1.357   5.376
 3625SOL    HW211412   2.544   1.482   5.401
 3626SOL     OW11413   3.670   0.181   4.963
 3626SOL    HW111414   3.669   0.087   4.983
 3626SOL    HW211415   3.687   0.185   4.869
 3627SOL     OW11416   2.298   0.433   4.254
 3627SOL    HW111417   2.320   0.364   4.191
 3627SOL    HW211418   2.242   0.390   4.319
 3628SOL     OW11419   3.562   1.490   4.822
 3628SOL    HW111420   3.482   1.467   4.774
 3628SOL    HW211421   3.572   1.420   4.886
 3629SOL     OW11422   2.192   0.557   5.016
 3629SOL    HW111423   2.247   0.501   5.069
 3629SOL    HW211424   2.211   0.531   4.926
 3630SOL     OW11425   2.686   1.573   4.395
 3630SOL    HW111426   2.672   1.624   4.316
 3630SOL    HW211427   2.609   1.515   4.400
 3631SOL     OW11428   3.294   0.216   4.842
 3631SOL    HW111429   3.329   0.145   4.895
 3631SOL    HW211430   3.243   0.269   4.903
 3632SOL     OW11431   2.858   0.007   4.874
 3632SOL    HW111432   2.816   4.422   4.866
 3632SOL    HW211433   2.951   4.487   4.885
 3633SOL     OW11434   2.635   1.332   4.036
 3633SOL    HW111435   2.603   1.242   4.044
 3633SOL    HW211436   2.715   1.334   4.088
 3634SOL     OW11437   3.203   0.053   3.877
 3634SOL    HW111438   3.241   4.477   3.834
 3634SOL    HW211439   3.127   0.018   3.924
 3635SOL     OW11440   3.176   0.463   4.401
 3635SOL    HW111441   3.117   0.538   4.401
 3635SOL    HW211442   3.165   0.422   4.486
 3636SOL     OW11443   3.447   0.200   4.591
 3636SOL    HW111444   3.388   0.215   4.665
 3636SOL    HW211445   3.450   0.284   4.545
 3637SOL     OW11446   1.905   1.071   4.030
 3637SOL    HW111447   1.999   1.063   4.012
 3637SOL    HW211448   1.877   0.983   4.052
 3638SOL     OW11449   2.747   1.652   4.065
 3638SOL    HW111450   2.673   1.634   4.006
 3638SOL    HW211451   2.718   1.727   4.117
 3639SOL     OW11452   2.091   0.625   5.707
 3639SOL    HW111453   2.003   0.619   5.745
 3639SOL    HW211454   2.080   0.596   5.617
 3640SOL     OW11455   2.070   0.298   6.575
 3640SOL    HW111456   2.101   0.270   6.661
 3640SOL    HW211457   1.988   0.251   6.562
 3641SOL     OW11458   1.870   0.386   6.224
 3641SOL    HW111459   1.783   0.405   6.261
 3641SOL    HW211460   1.855   0.312   6.165
 3642SOL     OW11461   2.429   1.286   6.761
 3642SOL    HW111462   2.341   1.287   6.722
 3642SOL    HW211463   2.444   1.377   6.789
 3643SOL     OW11464   3.422   1.512   6.293
 3643SOL    HW111465   3.379   1.492   6.376
 3643SOL    HW211466   3.350   1.514   6.229
 3644SOL     OW11467   2.996   0.699   6.285
 3644SOL    HW111468   3.042   0.782   6.275
 3644SOL    HW211469   2.946   0.709   6.365
 3645SOL     OW11470   3.629   0.607   5.814
 3645SOL    HW111471   3.608   0.598   5.721
 3645SOL    HW211472   3.596   0.527   5.854
 3646SOL     OW11473   2.619   1.147   6.625
 3646SOL    HW111474   2.550   1.180   6.682
 3646SOL    HW211475   2.653   1.224   6.581
 3647SOL     OW11476   2.728   0.775   7.408
 3647SOL    HW111477   2.714   0.846   7.471
 3647SOL    HW211478   2.752   0.819   7.326
 3648SOL     OW11479   2.548   1.004   6.235
 3648SOL    HW111480   2.613   0.991   6.304
 3648SOL    HW211481   2.478   1.054   6.277
 3649SOL     OW11482   2.572   1.151   7.397
 3649SOL    HW111483   2.619   1.230   7.424
 3649SOL    HW211484   2.489   1.183   7.363
 3650SOL     OW11485   2.187   1.426   6.660
 3650SOL    HW111486   2.119   1.395   6.599
 3650SOL    HW211487   2.251   1.470   6.604
 3651SOL     OW11488   3.323   1.499   6.940
 3651SOL    HW111489   3.373   1.580   6.950
 3651SOL    HW211490   3.262   1.499   7.014
 3652SOL     OW11491   2.304   0.395   7.075
 3652SOL    HW111492   2.386   0.346   7.077
 3652SOL    HW211493   2.236   0.329   7.089
 3653SOL     OW11494   3.473   0.446   6.324
 3653SOL    HW111495   3.392   0.467   6.277
 3653SOL    HW211496   3.492   0.523   6.377
 3654SOL     OW11497   2.998   1.342   7.279
 3654SOL    HW111498   3.038   1.337   7.365
 3654SOL    HW211499   2.946   1.262   7.272
 3655SOL     OW11500   2.119   1.092   6.478
 3655SOL    HW111501   2.114   1.005   6.518
 3655SOL    HW211502   2.060   1.146   6.530
 3656SOL     OW11503   2.474   1.792   7.013
 3656SOL    HW111504   2.393   1.773   7.059
 3656SOL    HW211505   2.496   1.882   7.039
 3657SOL     OW11506   2.448   0.980   5.719
 3657SOL    HW111507   2.493   1.030   5.651
 3657SOL    HW211508   2.489   1.009   5.801
 3658SOL     OW11509   3.444   0.115   7.058
 3658SOL    HW111510   3.466   0.183   6.994
 3658SOL    HW211511   3.433   0.162   7.140
 3659SOL     OW11512   1.979   0.652   6.146
 3659SOL    HW111513   1.948   0.564   6.168
 3659SOL    HW211514   1.970   0.701   6.228
 3660SOL     OW11515   3.704   1.759   5.921
 3660SOL    HW111516   3.767   1.731   5.987
 3660SOL    HW211517   3.728   1.850   5.902
 3661SOL     OW11518   3.553   0.921   6.228
 3661SOL    HW111519   3.636   0.877   6.206
 3661SOL    HW211520   3.531   0.969   6.148
 3662SOL     OW11521   3.508   1.107   6.015
 3662SOL    HW111522   3.593   1.113   5.973
 3662SOL    HW211523   3.513   1.168   6.089
 3663SOL     OW11524   1.984   0.745   7.170
 3663SOL    HW111525   2.076   0.771   7.180
 3663SOL    HW211526   1.935   0.826   7.178
 3664SOL     OW11527   2.482   1.375   6.323
 3664SOL    HW111528   2.437   1.293   6.339
 3664SOL    HW211529   2.448   1.406   6.239
 3665SOL     OW11530   3.151   1.239   7.009
 3665SOL    HW111531   3.183   1.171   6.949
 3665SOL    HW211532   3.208   1.232   7.086
 3666SOL     OW11533   2.679   0.014   6.136
 3666SOL    HW111534   2.714   0.099   6.111
 3666SOL    HW211535   2.584   0.025   6.129
 3667SOL     OW11536   2.052   0.966   6.858
 3667SOL    HW111537   2.137   0.924   6.842
 3667SOL    HW211538   1.989   0.913   6.809
 3668SOL     OW11539   3.394   0.992   5.784
 3668SOL    HW111540   3.323   0.936   5.816
 3668SOL    HW211541   3.434   1.027   5.864
 3669SOL     OW11542   3.047   1.806   7.207
 3669SOL    HW111543   3.061   1.863   7.132
 3669SOL    HW211544   3.063   1.718   7.173
 3670SOL     OW11545   2.177   0.254   7.366
 3670SOL    HW111546   2.240   0.318   7.399
 3670SOL    HW211547   2.103   0.260   7.427
 3671SOL     OW11548   3.330   1.419   6.539
 3671SOL    HW111549   3.261   1.434   6.604
 3671SOL    HW211550   3.317   1.328   6.511
 3672SOL     OW11551   3.521   1.738   6.165
 3672SOL    HW111552   3.501   1.710   6.076
 3672SOL    HW211553   3.495   1.664   6.220
 3673SOL     OW11554   2.455   0.723   5.851
 3673SOL    HW111555   2.460   0.804   5.800
 3673SOL    HW211556   2.389   0.741   5.918
 3674SOL     OW11557   3.153   0.363   6.519
 3674SOL    HW111558   3.064   0.333   6.503
 3674SOL    HW211559   3.189   0.300   6.581
 3675SOL     OW11560   3.443   1.670   5.895
 3675SOL    HW111561   3.533   1.702   5.889
 3675SOL    HW211562   3.418   1.652   5.804
 3676SOL     OW11563   2.657   0.620   7.040
 3676SOL    HW111564   2.629   0.594   7.128
 3676SOL    HW211565   2.618   0.554   6.982
 3677SOL     OW11566   3.251   0.479   7.262
 3677SOL    HW111567   3.254   0.523   7.347
 3677SOL    HW211568   3.317   0.411   7.268
 3678SOL     OW11569   2.818   0.888   7.168
 3678SOL    HW111570   2.871   0.817   7.134
 3678SOL    HW211571   2.769   0.921   7.093
 3679SOL     OW11572   2.858   0.417   6.822
 3679SOL    HW111573   2.770   0.427   6.859
 3679SOL    HW211574   2.845   0.365   6.743
 3680SOL     OW11575   2.912   0.698   6.013
 3680SOL    HW111576   2.928   0.690   6.107
 3680SOL    HW211577   2.829   0.651   5.999
 3681SOL     OW11578   1.951   0.820   6.362
 3681SOL    HW111579   2.031   0.814   6.414
 3681SOL    HW211580   1.906   0.897   6.397
 3682SOL     OW11581   1.992   1.836   7.161
 3682SOL    HW111582   1.987   1.821   7.255
 3682SOL    HW211583   1.901   1.850   7.134
 3683SOL     OW11584   2.717   0.369   5.770
 3683SOL    HW111585   2.789   0.404   5.716
 3683SOL    HW211586   2.732   0.275   5.772
 3684SOL     OW11587   3.567   0.574   7.414
 3684SOL    HW111588   3.531   0.648   7.366
 3684SOL    HW211589   3.602   0.516   7.346
 3685SOL     OW11590   3.239   1.143   6.127
 3685SOL    HW111591   3.318   1.129   6.074
 3685SOL    HW211592   3.186   1.204   6.076
 3686SOL     OW11593   2.400   0.204   6.487
 3686SOL    HW111594   2.421   0.222   6.579
 3686SOL    HW211595   2.392   0.290   6.447
 3687SOL     OW11596   2.865   1.452   6.051
 3687SOL    HW111597   2.798   1.508   6.012
 3687SOL    HW211598   2.866   1.477   6.144
 3688SOL     OW11599   3.660   1.060   6.454
 3688SOL    HW111600   3.606   1.039   6.378
 3688SOL    HW211601   3.598   1.064   6.527
 3689SOL     OW11602   3.089   1.539   7.099
 3689SOL    HW111603   3.076   1.466   7.160
 3689SOL    HW211604   3.028   1.522   7.028
 3690SOL     OW11605   2.183   0.956   5.836
 3690SOL    HW111606   2.264   0.974   5.788
 3690SOL    HW211607   2.150   0.875   5.796
 3691SOL     OW11608   3.341   0.743   6.311
 3691SOL    HW111609   3.329   0.697   6.394
 3691SOL    HW211610   3.418   0.798   6.324
 3692SOL     OW11611   2.328   1.265   7.324
 3692SOL    HW111612   2.300   1.269   7.233
 3692SOL    HW211613   2.246   1.262   7.374
 3693SOL     OW11614   2.050   0.268   7.098
 3693SOL    HW111615   1.984   0.335   7.082
 3693SOL    HW211616   2.064   0.270   7.192
 3694SOL     OW11617   3.491   1.380   5.674
 3694SOL    HW111618   3.450   1.465   5.658
 3694SOL    HW211619   3.423   1.316   5.655
 3695SOL     OW11620   3.282   0.138   6.004
 3695SOL    HW111621   3.266   0.087   5.925
 3695SOL    HW211622   3.377   0.131   6.018
 3696SOL     OW11623   2.106   1.776   6.813
 3696SOL    HW111624   2.163   1.725   6.870
 3696SOL    HW211625   2.128   1.748   6.724
 3697SOL     OW11626   2.254   0.695   6.062
 3697SOL    HW111627   2.277   0.603   6.074
 3697SOL    HW211628   2.160   0.698   6.080
 3698SOL     OW11629   3.387   0.233   7.309
 3698SOL    HW111630   3.387   0.255   7.402
 3698SOL    HW211631   3.309   0.178   7.297
 3699SOL     OW11632   2.490   0.121   5.709
 3699SOL    HW111633   2.578   0.085   5.717
 3699SOL    HW211634   2.456   0.085   5.627
 3700SOL     OW11635   2.631   0.271   7.340
 3700SOL    HW111636   2.696   0.202   7.350
 3700SOL    HW211637   2.587   0.274   7.425
 3701SOL     OW11638   2.743   1.531   6.774
 3701SOL    HW111639   2.722   1.490   6.690
 3701SOL    HW211640   2.808   1.472   6.814
 3702SOL     OW11641   3.203   0.589   7.015
 3702SOL    HW111642   3.231   0.560   7.102
 3702SOL    HW211643   3.238   0.678   7.007
 3703SOL     OW11644   2.682   1.403   6.525
 3703SOL    HW111645   2.764   1.385   6.479
 3703SOL    HW211646   2.616   1.402   6.456
 3704SOL     OW11647   2.785   0.519   6.485
 3704SOL    HW111648   2.769   0.516   6.391
 3704SOL    HW211649   2.822   0.433   6.505
 3705SOL     OW11650   2.416   0.076   6.108
 3705SOL    HW111651   2.328   0.048   6.131
 3705SOL    HW211652   2.403   0.141   6.038
 3706SOL     OW11653   3.292   1.199   5.629
 3706SOL    HW111654   3.321   1.122   5.677
 3706SOL    HW211655   3.204   1.217   5.663
 3707SOL     OW11656   2.157   0.068   5.784
 3707SOL    HW111657   2.235   0.121   5.765
 3707SOL    HW211658   2.188   0.000   5.844
 3708SOL     OW11659   2.814   0.240   6.054
 3708SOL    HW111660   2.763   0.295   5.996
 3708SOL    HW211661   2.903   0.275   6.049
 3709SOL     OW11662   2.942   0.681   7.046
 3709SOL    HW111663   2.871   0.616   7.047
 3709SOL    HW211664   3.021   0.628   7.035
 3710SOL     OW11665   3.094   1.560   6.371
 3710SOL    HW111666   3.106   1.633   6.310
 3710SOL    HW211667   3.151   1.580   6.445
 3711SOL     OW11668   2.330   1.149   6.320
 3711SOL    HW111669   2.260   1.130   6.384
 3711SOL    HW211670   2.290   1.129   6.235
 3712SOL     OW11671   3.137   1.786   6.186
 3712SOL    HW111672   3.184   1.851   6.134
 3712SOL    HW211673   3.062   1.834   6.222
 3713SOL     OW11674   2.891   0.547   5.603
 3713SOL    HW111675   2.843   0.629   5.587
 3713SOL    HW211676   2.950   0.568   5.676
 3714SOL     OW11677   1.944   0.550   6.981
 3714SOL    HW111678   2.035   0.554   6.951
 3714SOL    HW211679   1.937   0.622   7.044
 3715SOL     OW11680   2.425   0.244   6.753
 3715SOL    HW111681   2.452   0.161   6.793
 3715SOL    HW211682   2.333   0.254   6.777
 3716SOL     OW11683   2.727   0.504   6.212
 3716SOL    HW111684   2.683   0.544   6.137
 3716SOL    HW211685   2.694   0.414   6.215
 3717SOL     OW11686   2.825   0.025   6.368
 3717SOL    HW111687   2.776   0.024   6.286
 3717SOL    HW211688   2.838   4.433   6.390
 3718SOL     OW11689   3.298   1.163   6.443
 3718SOL    HW111690   3.231   1.095   6.442
 3718SOL    HW211691   3.322   1.174   6.351
 3719SOL     OW11692   3.328   0.605   6.561
 3719SOL    HW111693   3.275   0.525   6.563
 3719SOL    HW211694   3.386   0.597   6.637
 3720SOL     OW11695   3.708   0.817   5.969
 3720SOL    HW111696   3.764   0.765   6.027
 3720SOL    HW211697   3.679   0.755   5.902
 3721SOL     OW11698   3.532   1.265   6.231
 3721SOL    HW111699   3.626   1.268   6.246
 3721SOL    HW211700   3.502   1.353   6.253
 3722SOL     OW11701   3.256   0.571   5.656
 3722SOL    HW111702   3.195   0.555   5.727
 3722SOL    HW211703   3.342   0.551   5.693
 3723SOL     OW11704   2.384   0.266   5.910
 3723SOL    HW111705   2.431   0.214   5.844
 3723SOL    HW211706   2.366   0.349   5.867
 3724SOL     OW11707   3.614   1.239   7.159
 3724SOL    HW111708   3.702   1.199   7.156
 3724SOL    HW211709   3.630   1.328   7.189
 3725SOL     OW11710   2.920   1.356   6.921
 3725SOL    HW111711   2.845   1.323   6.971
 3725SOL    HW211712   2.996   1.313   6.961
 3726SOL     OW11713   3.469   1.626   7.240
 3726SOL    HW111714   3.464   1.660   7.150
 3726SOL    HW211715   3.552   1.578   7.242
 3727SOL     OW11716   2.991   1.206   6.692
 3727SOL    HW111717   2.930   1.241   6.757
 3727SOL    HW211718   2.956   1.234   6.608
 3728SOL     OW11719   3.490   1.098   6.664
 3728SOL    HW111720   3.486   1.160   6.737
 3728SOL    HW211721   3.411   1.115   6.613
 3729SOL     OW11722   2.765   0.133   6.974
 3729SOL    HW111723   2.786   0.089   6.892
 3729SOL    HW211724   2.849   0.148   7.017
 3730SOL     OW11725   2.846   1.115   7.309
 3730SOL    HW111726   2.754   1.130   7.330
 3730SOL    HW211727   2.845   1.037   7.253
 3731SOL     OW11728   2.566   1.049   5.962
 3731SOL    HW111729   2.555   1.035   6.056
 3731SOL    HW211730   2.643   0.998   5.939
 3732SOL     OW11731   2.281   0.815   6.837
 3732SOL    HW111732   2.350   0.825   6.903
 3732SOL    HW211733   2.246   0.728   6.851
 3733SOL     OW11734   3.130   0.375   6.859
 3733SOL    HW111735   3.162   0.454   6.903
 3733SOL    HW211736   3.041   0.398   6.832
 3734SOL     OW11737   1.931   1.570   6.938
 3734SOL    HW111738   1.901   1.645   6.888
 3734SOL    HW211739   2.027   1.575   6.934
 3735SOL     OW11740   2.216   1.109   6.076
 3735SOL    HW111741   2.224   1.173   6.005
 3735SOL    HW211742   2.210   1.025   6.031
 3736SOL     OW11743   2.418   0.530   6.445
 3736SOL    HW111744   2.432   0.589   6.370
 3736SOL    HW211745   2.482   0.558   6.510
 3737SOL     OW11746   3.109   1.347   5.976
 3737SOL    HW111747   3.165   1.419   6.006
 3737SOL    HW211748   3.021   1.371   6.007
 3738SOL     OW11749   3.142   1.458   6.732
 3738SOL    HW111750   3.197   1.459   6.810
 3738SOL    HW211751   3.087   1.380   6.743
 3739SOL     OW11752   3.444   0.623   6.063
 3739SOL    HW111753   3.397   0.674   6.129
 3739SOL    HW211754   3.488   0.689   6.009
 3740SOL     OW11755   2.212   1.523   6.906
 3740SOL    HW111756   2.195   1.483   6.821
 3740SOL    HW211757   2.307   1.534   6.909
 3741SOL     OW11758   2.277   0.743   7.188
 3741SOL    HW111759   2.336   0.790   7.130
 3741SOL    HW211760   2.321   0.660   7.206
 3742SOL     OW11761   3.463   0.778   7.267
 3742SOL    HW111762   3.377   0.819   7.260
 3742SOL    HW211763   3.515   0.820   7.199
 3743SOL     OW11764   2.867   0.085   7.306
 3743SOL    HW111765   2.896   0.168   7.268
 3743SOL    HW211766   2.891   0.019   7.241
 3744SOL     OW11767   2.361   0.046   7.345
 3744SOL    HW111768   2.358   0.005   7.259
 3744SOL    HW211769   2.293   0.114   7.342
 3745SOL     OW11770   2.444   0.874   6.617
 3745SOL    HW111771   2.474   0.965   6.617
 3745SOL    HW211772   2.388   0.867   6.694
 3746SOL     OW11773   3.220   0.858   6.616
 3746SOL    HW111774   3.137   0.849   6.570
 3746SOL    HW211775   3.261   0.772   6.610
 3747SOL     OW11776   3.066   0.535   5.849
 3747SOL    HW111777   3.072   0.455   5.901
 3747SOL    HW211778   3.023   0.598   5.907
 3748SOL     OW11779   2.152   0.234   6.827
 3748SOL    HW111780   2.108   0.250   6.911
 3748SOL    HW211781   2.187   0.145   6.835
 3749SOL     OW11782   1.906   1.309   6.862
 3749SOL    HW111783   1.941   1.256   6.933
 3749SOL    HW211784   1.914   1.399   6.892
 3750SOL     OW11785   2.585   0.631   6.644
 3750SOL    HW111786   2.659   0.612   6.586
 3750SOL    HW211787   2.559   0.720   6.620
 3751SOL     OW11788   3.596   0.960   7.438
 3751SOL    HW111789   3.549   0.899   7.380
 3751SOL    HW211790   3.537   0.972   7.512
 3752SOL     OW11791   2.159   0.055   6.240
 3752SOL    HW111792   2.149   0.150   6.242
 3752SOL    HW211793   2.170   0.030   6.332
 3753SOL     OW11794   3.477   0.378   5.949
 3753SOL    HW111795   3.506   0.314   6.014
 3753SOL    HW211796   3.454   0.455   6.000
 3754SOL     OW11797   2.891   0.762   6.547
 3754SOL    HW111798   2.887   0.777   6.642
 3754SOL    HW211799   2.862   0.671   6.537
 3755SOL     OW11800   2.844   1.566   7.303
 3755SOL    HW111801   2.829   1.610   7.219
 3755SOL    HW211802   2.887   1.484   7.280
 3756SOL     OW11803   3.717   1.507   7.192
 3756SOL    HW111804   3.734   1.533   7.101
 3756SOL    HW211805   3.798   1.525   7.238
 3757SOL     OW11806   2.216   0.917   7.394
 3757SOL    HW111807   2.298   0.935   7.440
 3757SOL    HW211808   2.240   0.853   7.326
 3758SOL     OW11809   3.392   0.265   5.714
 3758SOL    HW111810   3.321   0.209   5.743
 3758SOL    HW211811   3.422   0.310   5.793
 3759SOL     OW11812   3.154   0.826   5.617
 3759SOL    HW111813   3.196   0.740   5.619
 3759SOL    HW211814   3.185   0.866   5.536
 3760SOL     OW11815   2.926   1.336   6.434
 3760SOL    HW111816   2.932   1.262   6.373
 3760SOL    HW211817   2.993   1.397   6.403
 3761SOL     OW11818   2.171   0.810   6.533
 3761SOL    HW111819   2.264   0.832   6.527
 3761SOL    HW211820   2.170   0.720   6.567
 3762SOL     OW11821   2.198   0.532   6.599
 3762SOL    HW111822   2.156   0.448   6.580
 3762SOL    HW211823   2.274   0.534   6.541
 3763SOL     OW11824   2.998   0.374   7.282
 3763SOL    HW111825   2.948   0.438   7.332
 3763SOL    HW211826   3.083   0.415   7.268
 3764SOL     OW11827   3.020   0.212   7.059
 3764SOL    HW111828   3.013   0.276   7.130
 3764SOL    HW211829   3.059   0.261   6.987
 3765SOL     OW11830   1.881   1.312   5.763
 3765SOL    HW111831   1.792   1.334   5.735
 3765SOL    HW211832   1.871   1.228   5.809
 3766SOL     OW11833   2.393   1.542   6.533
 3766SOL    HW111834   2.434   1.629   6.533
 3766SOL    HW211835   2.419   1.503   6.450
 3767SOL     OW11836   2.846   0.794   6.814
 3767SOL    HW111837   2.901   0.770   6.888
 3767SOL    HW211838   2.761   0.753   6.832
 3768SOL     OW11839   1.895   0.543   6.704
 3768SOL    HW111840   1.973   0.524   6.652
 3768SOL    HW211841   1.928   0.548   6.794
 3769SOL     OW11842   2.047   0.519   7.307
 3769SOL    HW111843   2.122   0.499   7.251
 3769SOL    HW211844   2.006   0.595   7.265
 3770SOL     OW11845   3.239   0.939   7.245
 3770SOL    HW111846   3.260   1.033   7.243
 3770SOL    HW211847   3.236   0.914   7.153
 3771SOL     OW11848   2.672   0.576   5.942
 3771SOL    HW111849   2.677   0.504   5.879
 3771SOL    HW211850   2.599   0.629   5.912
 3772SOL     OW11851   3.503   0.602   6.773
 3772SOL    HW111852   3.492   0.542   6.847
 3772SOL    HW211853   3.590   0.583   6.738
 3773SOL     OW11854   2.109   1.551   7.316
 3773SOL    HW111855   2.081   1.614   7.382
 3773SOL    HW211856   2.108   1.467   7.361
 3774SOL     OW11857   2.561   0.459   6.850
 3774SOL    HW111858   2.514   0.382   6.818
 3774SOL    HW211859   2.561   0.520   6.776
 3775SOL     OW11860   2.789   1.679   7.055
 3775SOL    HW111861   2.762   1.644   6.970
 3775SOL    HW211862   2.786   1.774   7.043
 3776SOL     OW11863   2.327   0.492   5.771
 3776SOL    HW111864   2.386   0.565   5.792
 3776SOL    HW211865   2.241   0.534   5.759
 3777SOL     OW11866   2.008   1.140   7.058
 3777SOL    HW111867   2.010   1.088   7.139
 3777SOL    HW211868   2.025   1.077   6.989
 3778SOL     OW11869   3.188   1.047   6.809
 3778SOL    HW111870   3.211   0.984   6.742
 3778SOL    HW211871   3.118   1.099   6.770
 3779SOL     OW11872   3.173   0.857   5.892
 3779SOL    HW111873   3.098   0.827   5.943
 3779SOL    HW211874   3.148   0.844   5.801
 3780SOL     OW11875   3.634   1.744   6.737
 3780SOL    HW111876   3.694   1.771   6.667
 3780SOL    HW211877   3.610   1.654   6.715
 3781SOL     OW11878   3.103   1.733   6.699
 3781SOL    HW111879   3.185   1.754   6.655
 3781SOL    HW211880   3.107   1.639   6.716
 3782SOL     OW11881   1.941   1.268   6.596
 3782SOL    HW111882   1.930   1.279   6.690
 3782SOL    HW211883   1.870   1.210   6.570
 3783SOL     OW11884   2.540   1.665   7.315
 3783SOL    HW111885   2.487   1.744   7.308
 3783SOL    HW211886   2.606   1.675   7.246
 3784SOL     OW11887   3.580   0.129   6.079
 3784SOL    HW111888   3.652   0.138   6.016
 3784SOL    HW211889   3.607   0.058   6.136
 3785SOL     OW11890   3.252   1.565   6.067
 3785SOL    HW111891   3.315   1.598   6.002
 3785SOL    HW211892   3.209   1.644   6.101
 3786SOL     OW11893   1.995   1.796   7.428
 3786SOL    HW111894   1.943   1.730   7.474
 3786SOL    HW211895   2.045   1.839   7.497
 3787SOL     OW11896   3.140   0.928   6.259
 3787SOL    HW111897   3.213   0.865   6.264
 3787SOL    HW211898   3.174   1.000   6.206
 3788SOL     OW11899   2.676   1.274   7.014
 3788SOL    HW111900   2.648   1.313   7.098
 3788SOL    HW211901   2.604   1.294   6.954
 3789SOL     OW11902   3.489   1.727   6.977
 3789SOL    HW111903   3.539   1.733   6.896
 3789SOL    HW211904   3.475   1.817   7.005
 3790SOL     OW11905   3.701   0.154   6.552
 3790SOL    HW111906   3.732   0.077   6.504
 3790SOL    HW211907   3.614   0.172   6.515
 3791SOL     OW11908   2.126   0.322   6.303
 3791SOL    HW111909   2.041   0.357   6.276
 3791SOL    HW211910   2.120   0.314   6.398
 3792SOL     OW11911   3.076   1.609   5.622
 3792SOL    HW111912   3.060   1.520   5.655
 3792SOL    HW211913   3.042   1.608   5.533
 3793SOL     OW11914   2.685   1.006   6.959
 3793SOL    HW111915   2.729   1.000   6.874
 3793SOL    HW211916   2.686   1.099   6.980
 3794SOL     OW11917   2.779   0.911   5.877
 3794SOL    HW111918   2.840   0.943   5.810
 3794SOL    HW211919   2.826   0.840   5.921
 3795SOL     OW11920   3.356   1.628   5.630
 3795SOL    HW111921   3.262   1.620   5.618
 3795SOL    HW211922   3.391   1.632   5.540
 3796SOL     OW11923   2.231   1.301   7.079
 3796SOL    HW111924   2.220   1.378   7.023
 3796SOL    HW211925   2.154   1.247   7.062
 3797SOL     OW11926   3.473   1.283   6.867
 3797SOL    HW111927   3.532   1.272   6.942
 3797SOL    HW211928   3.413   1.352   6.894
 3798SOL     OW11929   2.913   1.106   6.290
 3798SOL    HW111930   2.843   1.055   6.331
 3798SOL    HW211931   2.977   1.040   6.261
 3799SOL     OW11932   2.868   0.244   6.590
 3799SOL    HW111933   2.873   0.221   6.498
 3799SOL    HW211934   2.860   0.160   6.636
 3800SOL     OW11935   3.583   0.394   6.963
 3800SOL    HW111936   3.656   0.456   6.962
 3800SOL    HW211937   3.612   0.322   6.906
 3801SOL     OW11938   1.975   1.021   7.305
 3801SOL    HW111939   1.898   0.998   7.359
 3801SOL    HW211940   2.049   0.984   7.353
 3802SOL     OW11941   2.520   0.204   7.085
 3802SOL    HW111942   2.599   0.179   7.038
 3802SOL    HW211943   2.550   0.225   7.173
 3803SOL     OW11944   1.943   0.339   5.633
 3803SOL    HW111945   1.873   0.286   5.597
 3803SOL    HW211946   1.957   0.408   5.569
 3804SOL     OW11947   3.292   0.859   6.986
 3804SOL    HW111948   3.243   0.919   6.931
 3804SOL    HW211949   3.381   0.861   6.952
 3805SOL     OW11950   1.926   0.183   5.905
 3805SOL    HW111951   1.925   0.250   5.837
 3805SOL    HW211952   2.001   0.128   5.883
 3806SOL     OW11953   3.041   1.340   5.706
 3806SOL    HW111954   2.953   1.301   5.708
 3806SOL    HW211955   3.070   1.339   5.797
 3807SOL     OW11956   2.481   0.830   7.019
 3807SOL    HW111957   2.537   0.907   7.004
 3807SOL    HW211958   2.542   0.757   7.028
 3808SOL     OW11959   3.345   1.777   6.564
 3808SOL    HW111960   3.370   1.837   6.493
 3808SOL    HW211961   3.427   1.757   6.608
 3809SOL     OW11962   2.578   0.563   7.292
 3809SOL    HW111963   2.617   0.627   7.351
 3809SOL    HW211964   2.610   0.479   7.323
 3810SOL     OW11965   3.333   1.201   7.218
 3810SOL    HW111966   3.321   1.214   7.312
 3810SOL    HW211967   3.426   1.215   7.204
 3811SOL     OW11968   2.244   1.739   7.151
 3811SOL    HW111969   2.159   1.778   7.136
 3811SOL    HW211970   2.225   1.655   7.191
 3812SOL     OW11971   3.532   0.881   6.842
 3812SOL    HW111972   3.524   0.796   6.799
 3812SOL    HW211973   3.522   0.945   6.770
 3813SOL     OW11974   3.080   0.330   6.034
 3813SOL    HW111975   3.146   0.261   6.022
 3813SOL    HW211976   3.108   0.377   6.112
 3814SOL     OW11977   2.449   0.738   6.257
 3814SOL    HW111978   2.491   0.823   6.241
 3814SOL    HW211979   2.382   0.731   6.189
 3815SOL     OW11980   3.625   0.366   7.229
 3815SOL    HW111981   3.608   0.379   7.136
 3815SOL    HW211982   3.547   0.319   7.261
 3816SOL     OW11983   3.608   0.933   7.098
 3816SOL    HW111984   3.604   1.028   7.111
 3816SOL    HW211985   3.592   0.921   7.005
 3817SOL     OW11986   2.716   1.370   5.611
 3817SOL    HW111987   2.687   1.364   5.702
 3817SOL    HW211988   2.721   1.464   5.593
 3818SOL     OW11989   2.525   1.783   6.537
 3818SOL    HW111990   2.482   1.862   6.504
 3818SOL    HW211991   2.617   1.808   6.544
 3819SOL     OW11992   2.730   0.968   6.442
 3819SOL    HW111993   2.779   0.896   6.480
 3819SOL    HW211994   2.695   1.016   6.516
 3820SOL     OW11995   2.943   0.990   5.676
 3820SOL    HW111996   2.919   1.039   5.597
 3820SOL    HW211997   3.016   0.935   5.649
 3821SOL     OW11998   3.717   1.555   6.431
 3821SOL    HW111999   3.639   1.543   6.376
 3821SOL    HW212000   3.710   1.487   6.497
 3822SOL     OW12001   2.086   1.303   7.442
 3822SOL    HW112002   2.019   1.242   7.411
 3822SOL    HW212003   2.067   1.315   7.535
 3823SOL     OW12004   1.941   1.233   6.249
 3823SOL    HW112005   1.953   1.186   6.331
 3823SOL    HW212006   2.014   1.204   6.194
 3824SOL     OW12007   2.543   1.402   7.214
 3824SOL    HW112008   2.463   1.358   7.243
 3824SOL    HW212009   2.537   1.490   7.252
 3825SOL     OW12010   3.670   0.181   6.825
 3825SOL    HW112011   3.669   0.088   6.845
 3825SOL    HW212012   3.686   0.185   6.730
 3826SOL     OW12013   2.298   0.433   6.116
 3826SOL    HW112014   2.320   0.364   6.053
 3826SOL    HW212015   2.242   0.390   6.181
 3827SOL     OW12016   3.562   1.490   6.684
 3827SOL    HW112017   3.482   1.466   6.637
 3827SOL    HW212018   3.574   1.420   6.748
 3828SOL     OW12019   2.192   0.557   6.878
 3828SOL    HW112020   2.247   0.500   6.932
 3828SOL    HW212021   2.211   0.530   6.788
 3829SOL     OW12022   3.294   0.216   6.703
 3829SOL    HW112023   3.330   0.145   6.757
 3829SOL    HW212024   3.243   0.269   6.765
 3830SOL     OW12025   2.858   0.007   6.736
 3830SOL    HW112026   2.816   4.422   6.729
 3830SOL    HW212027   2.951   4.487   6.748
 3831SOL     OW12028   2.646   1.291   5.866
 3831SOL    HW112029   2.609   1.208   5.895
 3831SOL    HW212030   2.711   1.313   5.932
 3832SOL     OW12031   2.484   1.555   6.875
 3832SOL    HW112032   2.486   1.637   6.923
 3832SOL    HW212033   2.568   1.552   6.829
 3833SOL     OW12034   3.203   0.053   5.740
 3833SOL    HW112035   3.241   4.477   5.696
 3833SOL    HW212036   3.127   0.017   5.786
 3834SOL     OW12037   3.177   0.463   6.263
 3834SOL    HW112038   3.117   0.538   6.264
 3834SOL    HW212039   3.165   0.422   6.348
 3835SOL     OW12040   3.447   0.200   6.453
 3835SOL    HW112041   3.388   0.215   6.527
 3835SOL    HW212042   3.450   0.284   6.407
 3836SOL     OW12043   1.903   1.069   5.896
 3836SOL    HW112044   1.995   1.061   5.871
 3836SOL    HW212045   1.876   0.980   5.919
 3837SOL     OW12046   2.091   0.626   7.569
 3837SOL    HW112047   2.004   0.619   7.607
 3837SOL    HW212048   2.080   0.596   7.479
 3838SOL     OW12049   2.070   0.298   8.437
 3838SOL    HW112050   2.101   0.270   8.523
 3838SOL    HW212051   1.988   0.251   8.424
 3839SOL     OW12052   1.870   0.386   8.086
 3839SOL    HW112053   1.783   0.405   8.123
 3839SOL    HW212054   1.855   0.312   8.027
 3840SOL     OW12055   2.430   1.287   8.622
 3840SOL    HW112056   2.341   1.288   8.586
 3840SOL    HW212057   2.443   1.376   8.656
 3841SOL     OW12058   3.423   1.512   8.155
 3841SOL    HW112059   3.380   1.491   8.238
 3841SOL    HW212060   3.351   1.516   8.091
 3842SOL     OW12061   2.996   0.699   8.147
 3842SOL    HW112062   3.042   0.782   8.137
 3842SOL    HW212063   2.946   0.709   8.227
 3843SOL     OW12064   3.629   0.607   7.676
 3843SOL    HW112065   3.609   0.597   7.583
 3843SOL    HW212066   3.596   0.527   7.716
 3844SOL     OW12067   2.619   1.143   8.489
 3844SOL    HW112068   2.549   1.177   8.545
 3844SOL    HW212069   2.653   1.220   8.444
 3845SOL     OW12070   2.728   0.775   9.270
 3845SOL    HW112071   2.714   0.846   9.333
 3845SOL    HW212072   2.752   0.819   9.188
 3846SOL     OW12073   2.549   1.004   8.095
 3846SOL    HW112074   2.613   0.991   8.164
 3846SOL    HW212075   2.479   1.054   8.136
 3847SOL     OW12076   2.572   1.151   9.259
 3847SOL    HW112077   2.619   1.230   9.286
 3847SOL    HW212078   2.489   1.183   9.225
 3848SOL     OW12079   2.193   1.425   8.517
 3848SOL    HW112080   2.119   1.387   8.469
 3848SOL    HW212081   2.242   1.474   8.451
 3849SOL     OW12082   3.323   1.499   8.802
 3849SOL    HW112083   3.372   1.580   8.812
 3849SOL    HW212084   3.261   1.499   8.875
 3850SOL     OW12085   2.304   0.395   8.937
 3850SOL    HW112086   2.386   0.346   8.939
 3850SOL    HW212087   2.236   0.329   8.951
 3851SOL     OW12088   3.473   0.446   8.186
 3851SOL    HW112089   3.392   0.467   8.139
 3851SOL    HW212090   3.492   0.523   8.239
 3852SOL     OW12091   2.082   1.717   7.923
 3852SOL    HW112092   2.105   1.794   7.975
 3852SOL    HW212093   2.154   1.706   7.862
 3853SOL     OW12094   2.998   1.341   9.140
 3853SOL    HW112095   3.038   1.337   9.227
 3853SOL    HW212096   2.946   1.262   9.134
 3854SOL     OW12097   2.093   1.442   7.984
 3854SOL    HW112098   2.072   1.535   7.989
 3854SOL    HW212099   2.032   1.400   8.046
 3855SOL     OW12100   2.120   1.090   8.339
 3855SOL    HW112101   2.116   1.003   8.380
 3855SOL    HW212102   2.061   1.144   8.392
 3856SOL     OW12103   2.479   1.785   8.881
 3856SOL    HW112104   2.394   1.771   8.924
 3856SOL    HW212105   2.498   1.878   8.897
 3857SOL     OW12106   2.448   0.981   7.582
 3857SOL    HW112107   2.493   1.031   7.513
 3857SOL    HW212108   2.488   1.012   7.663
 3858SOL     OW12109   3.444   0.115   8.920
 3858SOL    HW112110   3.466   0.183   8.856
 3858SOL    HW212111   3.433   0.162   9.002
 3859SOL     OW12112   1.978   0.653   8.008
 3859SOL    HW112113   1.948   0.564   8.029
 3859SOL    HW212114   1.969   0.702   8.089
 3860SOL     OW12115   3.704   1.759   7.783
 3860SOL    HW112116   3.767   1.731   7.849
 3860SOL    HW212117   3.728   1.850   7.764
 3861SOL     OW12118   1.894   1.594   7.571
 3861SOL    HW112119   1.875   1.502   7.591
 3861SOL    HW212120   1.869   1.641   7.651
 3862SOL     OW12121   3.553   0.921   8.090
 3862SOL    HW112122   3.636   0.878   8.069
 3862SOL    HW212123   3.531   0.969   8.010
 3863SOL     OW12124   3.508   1.107   7.877
 3863SOL    HW112125   3.594   1.113   7.835
 3863SOL    HW212126   3.512   1.168   7.950
 3864SOL     OW12127   1.984   0.745   9.032
 3864SOL    HW112128   2.076   0.771   9.042
 3864SOL    HW212129   1.935   0.826   9.040
 3865SOL     OW12130   2.476   1.384   8.183
 3865SOL    HW112131   2.430   1.301   8.192
 3865SOL    HW212132   2.459   1.411   8.092
 3866SOL     OW12133   3.151   1.239   8.871
 3866SOL    HW112134   3.183   1.171   8.811
 3866SOL    HW212135   3.208   1.232   8.948
 3867SOL     OW12136   2.679   0.014   7.998
 3867SOL    HW112137   2.714   0.099   7.973
 3867SOL    HW212138   2.584   0.025   7.991
 3868SOL     OW12139   2.053   0.966   8.720
 3868SOL    HW112140   2.137   0.924   8.704
 3868SOL    HW212141   1.989   0.913   8.672
 3869SOL     OW12142   3.394   0.993   7.646
 3869SOL    HW112143   3.323   0.936   7.678
 3869SOL    HW212144   3.434   1.027   7.726
 3870SOL     OW12145   3.048   1.806   9.070
 3870SOL    HW112146   3.060   1.864   8.995
 3870SOL    HW212147   3.063   1.718   9.035
 3871SOL     OW12148   2.177   0.254   9.228
 3871SOL    HW112149   2.240   0.318   9.261
 3871SOL    HW212150   2.103   0.260   9.289
 3872SOL     OW12151   3.328   1.420   8.399
 3872SOL    HW112152   3.260   1.434   8.465
 3872SOL    HW212153   3.316   1.329   8.373
 3873SOL     OW12154   3.520   1.739   8.026
 3873SOL    HW112155   3.500   1.709   7.937
 3873SOL    HW212156   3.496   1.665   8.082
 3874SOL     OW12157   2.455   0.723   7.713
 3874SOL    HW112158   2.460   0.805   7.663
 3874SOL    HW212159   2.390   0.740   7.781
 3875SOL     OW12160   3.153   0.363   8.381
 3875SOL    HW112161   3.064   0.333   8.366
 3875SOL    HW212162   3.189   0.300   8.443
 3876SOL     OW12163   3.443   1.670   7.757
 3876SOL    HW112164   3.533   1.702   7.750
 3876SOL    HW212165   3.416   1.653   7.667
 3877SOL     OW12166   2.657   0.620   8.902
 3877SOL    HW112167   2.629   0.594   8.990
 3877SOL    HW212168   2.618   0.554   8.844
 3878SOL     OW12169   3.251   0.479   9.124
 3878SOL    HW112170   3.254   0.523   9.209
 3878SOL    HW212171   3.317   0.411   9.130
 3879SOL     OW12172   2.818   0.888   9.030
 3879SOL    HW112173   2.871   0.817   8.996
 3879SOL    HW212174   2.769   0.921   8.955
 3880SOL     OW12175   2.858   0.417   8.684
 3880SOL    HW112176   2.770   0.427   8.721
 3880SOL    HW212177   2.845   0.365   8.605
 3881SOL     OW12178   2.912   0.698   7.875
 3881SOL    HW112179   2.928   0.690   7.969
 3881SOL    HW212180   2.829   0.651   7.861
 3882SOL     OW12181   1.951   0.821   8.224
 3882SOL    HW112182   2.032   0.814   8.275
 3882SOL    HW212183   1.907   0.898   8.259
 3883SOL     OW12184   1.989   1.820   9.021
 3883SOL    HW112185   1.977   1.812   9.116
 3883SOL    HW212186   1.919   1.879   8.993
 3884SOL     OW12187   2.717   0.369   7.631
 3884SOL    HW112188   2.789   0.403   7.578
 3884SOL    HW212189   2.731   0.275   7.634
 3885SOL     OW12190   3.567   0.574   9.276
 3885SOL    HW112191   3.531   0.648   9.228
 3885SOL    HW212192   3.602   0.517   9.208
 3886SOL     OW12193   3.239   1.143   7.989
 3886SOL    HW112194   3.318   1.129   7.936
 3886SOL    HW212195   3.186   1.204   7.939
 3887SOL     OW12196   2.400   0.204   8.349
 3887SOL    HW112197   2.421   0.222   8.441
 3887SOL    HW212198   2.392   0.290   8.309
 3888SOL     OW12199   2.869   1.444   7.920
 3888SOL    HW112200   2.830   1.517   7.871
 3888SOL    HW212201   2.852   1.465   8.012
 3889SOL     OW12202   2.216   1.799   8.307
 3889SOL    HW112203   2.245   1.708   8.312
 3889SOL    HW212204   2.294   1.850   8.330
 3890SOL     OW12205   3.660   1.060   8.316
 3890SOL    HW112206   3.606   1.039   8.240
 3890SOL    HW212207   3.598   1.064   8.389
 3891SOL     OW12208   3.090   1.539   8.961
 3891SOL    HW112209   3.076   1.466   9.022
 3891SOL    HW212210   3.026   1.524   8.891
 3892SOL     OW12211   2.182   0.957   7.698
 3892SOL    HW112212   2.264   0.975   7.652
 3892SOL    HW212213   2.151   0.875   7.659
 3893SOL     OW12214   3.341   0.742   8.173
 3893SOL    HW112215   3.329   0.697   8.256
 3893SOL    HW212216   3.418   0.798   8.186
 3894SOL     OW12217   2.328   1.264   9.186
 3894SOL    HW112218   2.300   1.269   9.094
 3894SOL    HW212219   2.246   1.262   9.235
 3895SOL     OW12220   2.983   1.778   7.679
 3895SOL    HW112221   2.911   1.735   7.725
 3895SOL    HW212222   3.006   1.716   7.609
 3896SOL     OW12223   2.050   0.268   8.960
 3896SOL    HW112224   1.984   0.335   8.944
 3896SOL    HW212225   2.064   0.270   9.054
 3897SOL     OW12226   3.491   1.380   7.535
 3897SOL    HW112227   3.449   1.465   7.520
 3897SOL    HW212228   3.422   1.316   7.517
 3898SOL     OW12229   2.330   1.734   7.771
 3898SOL    HW112230   2.373   1.794   7.832
 3898SOL    HW212231   2.400   1.703   7.715
 3899SOL     OW12232   3.283   0.138   7.865
 3899SOL    HW112233   3.266   0.086   7.787
 3899SOL    HW212234   3.377   0.131   7.880
 3900SOL     OW12235   2.105   1.781   8.683
 3900SOL    HW112236   2.166   1.722   8.726
 3900SOL    HW212237   2.106   1.754   8.591
 3901SOL     OW12238   2.796   1.697   8.348
 3901SOL    HW112239   2.875   1.647   8.370
 3901SOL    HW212240   2.755   1.648   8.277
 3902SOL     OW12241   2.254   0.694   7.924
 3902SOL    HW112242   2.277   0.602   7.936
 3902SOL    HW212243   2.161   0.699   7.942
 3903SOL     OW12244   3.387   0.233   9.171
 3903SOL    HW112245   3.387   0.255   9.264
 3903SOL    HW212246   3.309   0.178   9.159
 3904SOL     OW12247   2.490   0.122   7.570
 3904SOL    HW112248   2.578   0.085   7.579
 3904SOL    HW212249   2.456   0.086   7.488
 3905SOL     OW12250   2.631   0.271   9.202
 3905SOL    HW112251   2.696   0.202   9.212
 3905SOL    HW212252   2.586   0.274   9.287
 3906SOL     OW12253   2.739   1.523   8.641
 3906SOL    HW112254   2.723   1.484   8.554
 3906SOL    HW212255   2.808   1.468   8.679
 3907SOL     OW12256   3.203   0.589   8.877
 3907SOL    HW112257   3.231   0.560   8.964
 3907SOL    HW212258   3.238   0.678   8.869
 3908SOL     OW12259   2.677   1.397   8.387
 3908SOL    HW112260   2.761   1.384   8.343
 3908SOL    HW212261   2.612   1.395   8.316
 3909SOL     OW12262   2.785   0.519   8.347
 3909SOL    HW112263   2.769   0.516   8.253
 3909SOL    HW212264   2.822   0.432   8.367
 3910SOL     OW12265   2.416   0.076   7.970
 3910SOL    HW112266   2.328   0.048   7.993
 3910SOL    HW212267   2.403   0.141   7.900
 3911SOL     OW12268   3.290   1.198   7.489
 3911SOL    HW112269   3.321   1.122   7.539
 3911SOL    HW212270   3.204   1.218   7.526
 3912SOL     OW12271   2.157   0.069   7.646
 3912SOL    HW112272   2.236   0.121   7.628
 3912SOL    HW212273   2.187   4.500   7.705
 3913SOL     OW12274   2.814   0.240   7.916
 3913SOL    HW112275   2.763   0.296   7.858
 3913SOL    HW212276   2.903   0.275   7.911
 3914SOL     OW12277   2.942   0.681   8.909
 3914SOL    HW112278   2.871   0.617   8.909
 3914SOL    HW212279   3.021   0.628   8.897
 3915SOL     OW12280   3.085   1.570   8.242
 3915SOL    HW112281   3.103   1.637   8.175
 3915SOL    HW212282   3.154   1.583   8.307
 3916SOL     OW12283   2.331   1.150   8.182
 3916SOL    HW112284   2.262   1.130   8.245
 3916SOL    HW212285   2.291   1.133   8.097
 3917SOL     OW12286   3.132   1.794   8.055
 3917SOL    HW112287   3.177   1.855   7.997
 3917SOL    HW212288   3.067   1.848   8.100
 3918SOL     OW12289   2.891   0.548   7.465
 3918SOL    HW112290   2.843   0.629   7.450
 3918SOL    HW212291   2.950   0.567   7.538
 3919SOL     OW12292   1.944   0.550   8.843
 3919SOL    HW112293   2.035   0.554   8.813
 3919SOL    HW212294   1.936   0.622   8.906
 3920SOL     OW12295   2.425   0.244   8.615
 3920SOL    HW112296   2.452   0.161   8.655
 3920SOL    HW212297   2.333   0.254   8.639
 3921SOL     OW12298   2.728   0.504   8.074
 3921SOL    HW112299   2.683   0.544   8.000
 3921SOL    HW212300   2.694   0.414   8.077
 3922SOL     OW12301   2.825   0.025   8.230
 3922SOL    HW112302   2.776   0.024   8.148
 3922SOL    HW212303   2.838   4.433   8.252
 3923SOL     OW12304   3.298   1.163   8.305
 3923SOL    HW112305   3.230   1.096   8.305
 3923SOL    HW212306   3.322   1.173   8.213
 3924SOL     OW12307   3.328   0.605   8.423
 3924SOL    HW112308   3.275   0.525   8.425
 3924SOL    HW212309   3.386   0.597   8.499
 3925SOL     OW12310   3.708   0.817   7.831
 3925SOL    HW112311   3.764   0.765   7.889
 3925SOL    HW212312   3.679   0.755   7.764
 3926SOL     OW12313   2.352   1.418   7.606
 3926SOL    HW112314   2.277   1.389   7.657
 3926SOL    HW212315   2.338   1.380   7.519
 3927SOL     OW12316   3.532   1.265   8.093
 3927SOL    HW112317   3.627   1.268   8.108
 3927SOL    HW212318   3.502   1.353   8.115
 3928SOL     OW12319   3.256   0.571   7.518
 3928SOL    HW112320   3.195   0.555   7.589
 3928SOL    HW212321   3.342   0.551   7.556
 3929SOL     OW12322   2.384   0.266   7.771
 3929SOL    HW112323   2.431   0.215   7.705
 3929SOL    HW212324   2.366   0.349   7.729
 3930SOL     OW12325   3.614   1.239   9.021
 3930SOL    HW112326   3.702   1.199   9.018
 3930SOL    HW212327   3.630   1.328   9.051
 3931SOL     OW12328   2.920   1.355   8.783
 3931SOL    HW112329   2.846   1.323   8.833
 3931SOL    HW212330   2.996   1.313   8.823
 3932SOL     OW12331   3.470   1.626   9.102
 3932SOL    HW112332   3.464   1.660   9.012
 3932SOL    HW212333   3.552   1.578   9.104
 3933SOL     OW12334   2.992   1.205   8.554
 3933SOL    HW112335   2.931   1.240   8.619
 3933SOL    HW212336   2.957   1.234   8.470
 3934SOL     OW12337   3.490   1.098   8.526
 3934SOL    HW112338   3.486   1.160   8.599
 3934SOL    HW212339   3.411   1.114   8.475
 3935SOL     OW12340   2.765   0.133   8.836
 3935SOL    HW112341   2.786   0.089   8.754
 3935SOL    HW212342   2.849   0.148   8.879
 3936SOL     OW12343   2.846   1.115   9.171
 3936SOL    HW112344   2.754   1.130   9.192
 3936SOL    HW212345   2.845   1.037   9.115
 3937SOL     OW12346   2.571   1.062   7.819
 3937SOL    HW112347   2.557   1.045   7.912
 3937SOL    HW212348   2.647   1.008   7.796
 3938SOL     OW12349   2.281   0.815   8.699
 3938SOL    HW112350   2.350   0.825   8.765
 3938SOL    HW212351   2.246   0.728   8.713
 3939SOL     OW12352   3.130   0.376   8.721
 3939SOL    HW112353   3.162   0.454   8.765
 3939SOL    HW212354   3.041   0.398   8.694
 3940SOL     OW12355   1.929   1.570   8.797
 3940SOL    HW112356   1.897   1.649   8.753
 3940SOL    HW212357   2.024   1.581   8.798
 3941SOL     OW12358   2.212   1.109   7.939
 3941SOL    HW112359   2.215   1.182   7.876
 3941SOL    HW212360   2.210   1.030   7.884
 3942SOL     OW12361   2.418   0.530   8.306
 3942SOL    HW112362   2.432   0.589   8.232
 3942SOL    HW212363   2.482   0.558   8.372
 3943SOL     OW12364   3.110   1.348   7.837
 3943SOL    HW112365   3.166   1.420   7.868
 3943SOL    HW212366   3.023   1.369   7.871
 3944SOL     OW12367   3.142   1.457   8.594
 3944SOL    HW112368   3.197   1.459   8.673
 3944SOL    HW212369   3.087   1.380   8.606
 3945SOL     OW12370   3.444   0.624   7.925
 3945SOL    HW112371   3.397   0.674   7.992
 3945SOL    HW212372   3.488   0.690   7.872
 3946SOL     OW12373   2.212   1.522   8.766
 3946SOL    HW112374   2.196   1.482   8.681
 3946SOL    HW212375   2.307   1.536   8.769
 3947SOL     OW12376   2.277   0.743   9.051
 3947SOL    HW112377   2.336   0.790   8.992
 3947SOL    HW212378   2.321   0.660   9.068
 3948SOL     OW12379   3.463   0.778   9.129
 3948SOL    HW112380   3.377   0.819   9.122
 3948SOL    HW212381   3.515   0.820   9.061
 3949SOL     OW12382   2.867   0.085   9.168
 3949SOL    HW112383   2.896   0.168   9.130
 3949SOL    HW212384   2.892   0.019   9.103
 3950SOL     OW12385   2.361   0.046   9.207
 3950SOL    HW112386   2.358   0.005   9.121
 3950SOL    HW212387   2.294   0.114   9.204
 3951SOL     OW12388   2.444   0.873   8.479
 3951SOL    HW112389   2.475   0.964   8.479
 3951SOL    HW212390   2.388   0.867   8.556
 3952SOL     OW12391   3.220   0.859   8.478
 3952SOL    HW112392   3.137   0.849   8.432
 3952SOL    HW212393   3.261   0.772   8.472
 3953SOL     OW12394   3.066   0.536   7.711
 3953SOL    HW112395   3.072   0.455   7.762
 3953SOL    HW212396   3.023   0.598   7.769
 3954SOL     OW12397   2.152   0.234   8.689
 3954SOL    HW112398   2.108   0.250   8.773
 3954SOL    HW212399   2.187   0.145   8.697
 3955SOL     OW12400   1.908   1.309   8.724
 3955SOL    HW112401   1.941   1.257   8.797
 3955SOL    HW212402   1.915   1.400   8.754
 3956SOL     OW12403   2.585   0.631   8.506
 3956SOL    HW112404   2.659   0.612   8.448
 3956SOL    HW212405   2.558   0.720   8.482
 3957SOL     OW12406   3.596   0.960   9.300
 3957SOL    HW112407   3.549   0.899   9.242
 3957SOL    HW212408   3.537   0.972   9.374
 3958SOL     OW12409   2.159   0.055   8.102
 3958SOL    HW112410   2.149   0.150   8.104
 3958SOL    HW212411   2.171   0.030   8.194
 3959SOL     OW12412   3.477   0.378   7.811
 3959SOL    HW112413   3.505   0.314   7.876
 3959SOL    HW212414   3.454   0.456   7.862
 3960SOL     OW12415   2.891   0.762   8.409
 3960SOL    HW112416   2.887   0.778   8.504
 3960SOL    HW212417   2.862   0.671   8.399
 3961SOL     OW12418   2.845   1.567   9.165
 3961SOL    HW112419   2.830   1.610   9.081
 3961SOL    HW212420   2.888   1.484   9.141
 3962SOL     OW12421   3.717   1.506   9.054
 3962SOL    HW112422   3.735   1.532   8.963
 3962SOL    HW212423   3.798   1.525   9.100
 3963SOL     OW12424   2.216   0.917   9.256
 3963SOL    HW112425   2.298   0.935   9.302
 3963SOL    HW212426   2.240   0.853   9.188
 3964SOL     OW12427   3.392   0.265   7.576
 3964SOL    HW112428   3.321   0.209   7.605
 3964SOL    HW212429   3.422   0.310   7.655
 3965SOL     OW12430   3.154   0.826   7.479
 3965SOL    HW112431   3.196   0.740   7.482
 3965SOL    HW212432   3.185   0.866   7.397
 3966SOL     OW12433   2.926   1.336   8.301
 3966SOL    HW112434   2.930   1.263   8.239
 3966SOL    HW212435   2.989   1.399   8.266
 3967SOL     OW12436   2.171   0.810   8.395
 3967SOL    HW112437   2.264   0.832   8.389
 3967SOL    HW212438   2.170   0.720   8.429
 3968SOL     OW12439   2.198   0.532   8.461
 3968SOL    HW112440   2.156   0.448   8.442
 3968SOL    HW212441   2.274   0.534   8.403
 3969SOL     OW12442   2.998   0.374   9.144
 3969SOL    HW112443   2.948   0.438   9.194
 3969SOL    HW212444   3.083   0.415   9.130
 3970SOL     OW12445   3.020   0.212   8.921
 3970SOL    HW112446   3.013   0.276   8.992
 3970SOL    HW212447   3.059   0.261   8.849
 3971SOL     OW12448   1.867   1.321   7.643
 3971SOL    HW112449   1.780   1.335   7.605
 3971SOL    HW212450   1.865   1.231   7.676
 3972SOL     OW12451   1.949   1.790   8.383
 3972SOL    HW112452   1.918   1.710   8.341
 3972SOL    HW212453   2.040   1.798   8.354
 3973SOL     OW12454   2.359   1.570   8.351
 3973SOL    HW112455   2.427   1.633   8.372
 3973SOL    HW212456   2.402   1.505   8.296
 3974SOL     OW12457   2.846   0.794   8.676
 3974SOL    HW112458   2.901   0.770   8.750
 3974SOL    HW212459   2.761   0.753   8.694
 3975SOL     OW12460   1.895   0.543   8.566
 3975SOL    HW112461   1.973   0.524   8.514
 3975SOL    HW212462   1.928   0.548   8.656
 3976SOL     OW12463   2.047   0.519   9.169
 3976SOL    HW112464   2.122   0.499   9.113
 3976SOL    HW212465   2.006   0.595   9.127
 3977SOL     OW12466   3.239   0.939   9.107
 3977SOL    HW112467   3.260   1.033   9.105
 3977SOL    HW212468   3.236   0.913   9.015
 3978SOL     OW12469   2.673   0.576   7.803
 3978SOL    HW112470   2.677   0.504   7.740
 3978SOL    HW212471   2.599   0.629   7.774
 3979SOL     OW12472   3.503   0.602   8.635
 3979SOL    HW112473   3.492   0.542   8.709
 3979SOL    HW212474   3.590   0.583   8.600
 3980SOL     OW12475   2.111   1.551   9.180
 3980SOL    HW112476   2.082   1.614   9.246
 3980SOL    HW212477   2.108   1.466   9.224
 3981SOL     OW12478   2.561   0.459   8.712
 3981SOL    HW112479   2.514   0.382   8.680
 3981SOL    HW212480   2.561   0.520   8.638
 3982SOL     OW12481   2.792   1.678   8.915
 3982SOL    HW112482   2.764   1.644   8.830
 3982SOL    HW212483   2.788   1.773   8.906
 3983SOL     OW12484   2.327   0.493   7.632
 3983SOL    HW112485   2.386   0.565   7.654
 3983SOL    HW212486   2.241   0.534   7.621
 3984SOL     OW12487   2.008   1.140   8.921
 3984SOL    HW112488   2.010   1.088   9.001
 3984SOL    HW212489   2.025   1.077   8.851
 3985SOL     OW12490   3.189   1.047   8.671
 3985SOL    HW112491   3.211   0.984   8.603
 3985SOL    HW212492   3.118   1.099   8.632
 3986SOL     OW12493   3.173   0.857   7.754
 3986SOL    HW112494   3.098   0.827   7.806
 3986SOL    HW212495   3.147   0.843   7.663
 3987SOL     OW12496   3.634   1.744   8.598
 3987SOL    HW112497   3.694   1.770   8.528
 3987SOL    HW212498   3.609   1.654   8.577
 3988SOL     OW12499   3.103   1.733   8.561
 3988SOL    HW112500   3.185   1.753   8.516
 3988SOL    HW212501   3.108   1.639   8.580
 3989SOL     OW12502   1.948   1.265   8.461
 3989SOL    HW112503   1.933   1.279   8.555
 3989SOL    HW212504   1.873   1.214   8.432
 3990SOL     OW12505   2.541   1.665   9.177
 3990SOL    HW112506   2.487   1.743   9.174
 3990SOL    HW212507   2.603   1.675   9.105
 3991SOL     OW12508   3.580   0.129   7.941
 3991SOL    HW112509   3.652   0.138   7.878
 3991SOL    HW212510   3.607   0.058   7.999
 3992SOL     OW12511   3.252   1.568   7.933
 3992SOL    HW112512   3.313   1.600   7.866
 3992SOL    HW212513   3.204   1.645   7.961
 3993SOL     OW12514   1.997   1.801   9.294
 3993SOL    HW112515   1.946   1.734   9.339
 3993SOL    HW212516   2.046   1.845   9.364
 3994SOL     OW12517   3.140   0.928   8.121
 3994SOL    HW112518   3.213   0.865   8.126
 3994SOL    HW212519   3.174   1.000   8.068
 3995SOL     OW12520   2.677   1.273   8.878
 3995SOL    HW112521   2.649   1.312   8.961
 3995SOL    HW212522   2.605   1.293   8.817
 3996SOL     OW12523   2.532   1.620   7.604
 3996SOL    HW112524   2.544   1.632   7.509
 3996SOL    HW212525   2.478   1.542   7.612
 3997SOL     OW12526   3.489   1.727   8.839
 3997SOL    HW112527   3.539   1.734   8.758
 3997SOL    HW212528   3.476   1.817   8.867
 3998SOL     OW12529   3.701   0.154   8.414
 3998SOL    HW112530   3.732   0.077   8.366
 3998SOL    HW212531   3.614   0.172   8.377
 3999SOL     OW12532   2.126   0.322   8.165
 3999SOL    HW112533   2.041   0.357   8.138
 3999SOL    HW212534   2.120   0.314   8.260
 4000SOL     OW12535   3.069   1.606   7.479
 4000SOL    HW112536   3.060   1.515   7.507
 4000SOL    HW212537   3.004   1.617   7.410
 4001SOL     OW12538   2.685   1.006   8.821
 4001SOL    HW112539   2.729   1.000   8.736
 4001SOL    HW212540   2.686   1.099   8.842
 4002SOL     OW12541   2.778   0.911   7.738
 4002SOL    HW112542   2.840   0.942   7.672
 4002SOL    HW212543   2.824   0.840   7.783
 4003SOL     OW12544   3.354   1.625   7.490
 4003SOL    HW112545   3.260   1.619   7.477
 4003SOL    HW212546   3.391   1.631   7.402
 4004SOL     OW12547   2.232   1.301   8.940
 4004SOL    HW112548   2.219   1.379   8.886
 4004SOL    HW212549   2.154   1.247   8.924
 4005SOL     OW12550   3.473   1.283   8.729
 4005SOL    HW112551   3.532   1.272   8.804
 4005SOL    HW212552   3.413   1.352   8.756
 4006SOL     OW12553   2.914   1.107   8.154
 4006SOL    HW112554   2.843   1.056   8.193
 4006SOL    HW212555   2.976   1.041   8.123
 4007SOL     OW12556   2.868   0.244   8.452
 4007SOL    HW112557   2.873   0.220   8.359
 4007SOL    HW212558   2.860   0.160   8.498
 4008SOL     OW12559   2.466   1.490   7.929
 4008SOL    HW112560   2.509   1.438   7.861
 4008SOL    HW212561   2.394   1.533   7.883
 4009SOL     OW12562   3.583   0.394   8.825
 4009SOL    HW112563   3.656   0.456   8.824
 4009SOL    HW212564   3.612   0.322   8.768
 4010SOL     OW12565   2.121   1.346   7.737
 4010SOL    HW112566   2.028   1.343   7.714
 4010SOL    HW212567   2.123   1.382   7.826
 4011SOL     OW12568   1.974   1.021   9.167
 4011SOL    HW112569   1.898   0.998   9.221
 4011SOL    HW212570   2.049   0.984   9.215
 4012SOL     OW12571   2.520   0.204   8.946
 4012SOL    HW112572   2.600   0.179   8.900
 4012SOL    HW212573   2.550   0.225   9.035
 4013SOL     OW12574   1.944   0.339   7.495
 4013SOL    HW112575   1.873   0.286   7.459
 4013SOL    HW212576   1.957   0.408   7.431
 4014SOL     OW12577   3.292   0.859   8.848
 4014SOL    HW112578   3.243   0.919   8.793
 4014SOL    HW212579   3.381   0.861   8.814
 4015SOL     OW12580   1.926   0.183   7.767
 4015SOL    HW112581   1.925   0.250   7.699
 4015SOL    HW212582   2.001   0.128   7.745
 4016SOL     OW12583   3.041   1.340   7.565
 4016SOL    HW112584   2.951   1.308   7.567
 4016SOL    HW212585   3.069   1.340   7.656
 4017SOL     OW12586   2.481   0.830   8.881
 4017SOL    HW112587   2.537   0.907   8.866
 4017SOL    HW212588   2.542   0.757   8.890
 4018SOL     OW12589   3.346   1.777   8.426
 4018SOL    HW112590   3.370   1.836   8.355
 4018SOL    HW212591   3.428   1.757   8.471
 4019SOL     OW12592   2.578   0.563   9.154
 4019SOL    HW112593   2.617   0.627   9.213
 4019SOL    HW212594   2.610   0.479   9.185
 4020SOL     OW12595   3.333   1.201   9.080
 4020SOL    HW112596   3.320   1.214   9.174
 4020SOL    HW212597   3.426   1.215   9.066
 4021SOL     OW12598   2.244   1.736   9.013
 4021SOL    HW112599   2.158   1.772   8.995
 4021SOL    HW212600   2.227   1.652   9.055
 4022SOL     OW12601   3.532   0.881   8.703
 4022SOL    HW112602   3.524   0.796   8.661
 4022SOL    HW212603   3.522   0.945   8.632
 4023SOL     OW12604   3.080   0.330   7.895
 4023SOL    HW112605   3.146   0.261   7.884
 4023SOL    HW212606   3.108   0.377   7.974
 4024SOL     OW12607   2.449   0.738   8.119
 4024SOL    HW112608   2.491   0.823   8.102
 4024SOL    HW212609   2.382   0.731   8.051
 4025SOL     OW12610   3.625   0.366   9.091
 4025SOL    HW112611   3.608   0.379   8.998
 4025SOL    HW212612   3.547   0.319   9.123
 4026SOL     OW12613   3.608   0.933   8.960
 4026SOL    HW112614   3.604   1.028   8.973
 4026SOL    HW212615   3.592   0.921   8.867
 4027SOL     OW12616   2.724   1.367   7.482
 4027SOL    HW112617   2.686   1.394   7.565
 4027SOL    HW212618   2.743   1.449   7.436
 4028SOL     OW12619   2.522   1.799   8.383
 4028SOL    HW112620   2.525   1.888   8.417
 4028SOL    HW212621   2.613   1.770   8.382
 4029SOL     OW12622   2.729   0.967   8.303
 4029SOL    HW112623   2.779   0.895   8.342
 4029SOL    HW212624   2.695   1.015   8.378
 4030SOL     OW12625   2.942   0.989   7.537
 4030SOL    HW112626   2.919   1.039   7.458
 4030SOL    HW212627   3.016   0.935   7.511
 4031SOL     OW12628   3.716   1.555   8.293
 4031SOL    HW112629   3.639   1.543   8.238
 4031SOL    HW212630   3.710   1.487   8.360
 4032SOL     OW12631   2.087   1.302   9.304
 4032SOL    HW112632   2.019   1.242   9.273
 4032SOL    HW212633   2.067   1.315   9.397
 4033SOL     OW12634   1.947   1.234   8.112
 4033SOL    HW112635   1.949   1.186   8.195
 4033SOL    HW212636   2.015   1.192   8.059
 4034SOL     OW12637   2.543   1.403   9.075
 4034SOL    HW112638   2.463   1.359   9.105
 4034SOL    HW212639   2.538   1.490   9.113
 4035SOL     OW12640   3.670   0.181   8.687
 4035SOL    HW112641   3.669   0.088   8.707
 4035SOL    HW212642   3.686   0.185   8.592
 4036SOL     OW12643   2.298   0.433   7.978
 4036SOL    HW112644   2.320   0.364   7.915
 4036SOL    HW212645   2.242   0.390   8.043
 4037SOL     OW12646   3.562   1.490   8.546
 4037SOL    HW112647   3.481   1.466   8.499
 4037SOL    HW212648   3.574   1.420   8.610
 4038SOL     OW12649   2.192   0.557   8.740
 4038SOL    HW112650   2.247   0.500   8.794
 4038SOL    HW212651   2.211   0.530   8.650
 4039SOL     OW12652   2.688   1.579   8.126
 4039SOL    HW112653   2.676   1.627   8.044
 4039SOL    HW212654   2.613   1.520   8.130
 4040SOL     OW12655   3.294   0.216   8.566
 4040SOL    HW112656   3.330   0.145   8.619
 4040SOL    HW212657   3.243   0.269   8.627
 4041SOL     OW12658   2.858   0.007   8.598
 4041SOL    HW112659   2.815   4.422   8.591
 4041SOL    HW212660   2.951   4.487   8.610
 4042SOL     OW12661   2.634   1.333   7.762
 4042SOL    HW112662   2.602   1.243   7.768
 4042SOL    HW212663   2.716   1.332   7.811
 4043SOL     OW12664   2.483   1.557   8.731
 4043SOL    HW112665   2.485   1.637   8.784
 4043SOL    HW212666   2.571   1.549   8.695
 4044SOL     OW12667   3.203   0.053   7.601
 4044SOL    HW112668   3.241   4.477   7.558
 4044SOL    HW212669   3.127   0.017   7.648
 4045SOL     OW12670   3.177   0.463   8.125
 4045SOL    HW112671   3.117   0.538   8.126
 4045SOL    HW212672   3.165   0.422   8.210
 4046SOL     OW12673   3.447   0.200   8.315
 4046SOL    HW112674   3.388   0.215   8.389
 4046SOL    HW212675   3.450   0.284   8.269
 4047SOL     OW12676   1.906   1.071   7.754
 4047SOL    HW112677   2.000   1.062   7.736
 4047SOL    HW212678   1.877   0.983   7.777
 4048SOL     OW12679   2.746   1.652   7.791
 4048SOL    HW112680   2.674   1.634   7.731
 4048SOL    HW212681   2.716   1.728   7.842
 4049SOL     OW12682   2.091   0.626   9.431
 4049SOL    HW112683   2.004   0.619   9.469
 4049SOL    HW212684   2.080   0.596   9.341
 4050SOL     OW12685   2.070   0.298  10.299
 4050SOL    HW112686   2.101   0.270  10.385
 4050SOL    HW212687   1.988   0.251  10.286
 4051SOL     OW12688   1.870   0.386   9.948
 4051SOL    HW112689   1.783   0.405   9.985
 4051SOL    HW212690   1.855   0.312   9.889
 4052SOL     OW12691   2.430   1.287  10.485
 4052SOL    HW112692   2.342   1.287  10.447
 4052SOL    HW212693   2.442   1.376  10.518
 4053SOL     OW12694   3.423   1.512  10.017
 4053SOL    HW112695   3.380   1.492  10.100
 4053SOL    HW212696   3.351   1.516   9.953
 4054SOL     OW12697   2.997   0.699  10.009
 4054SOL    HW112698   3.043   0.782   9.999
 4054SOL    HW212699   2.946   0.709  10.089
 4055SOL     OW12700   3.629   0.607   9.538
 4055SOL    HW112701   3.608   0.597   9.445
 4055SOL    HW212702   3.596   0.527   9.578
 4056SOL     OW12703   2.620   1.144  10.352
 4056SOL    HW112704   2.550   1.178  10.408
 4056SOL    HW212705   2.653   1.221  10.306
 4057SOL     OW12706   2.716   0.777   0.022
 4057SOL    HW112707   2.723   0.833   0.099
 4057SOL    HW212708   2.749   0.831  11.050
 4058SOL     OW12709   2.549   1.004   9.957
 4058SOL    HW112710   2.613   0.991  10.026
 4058SOL    HW212711   2.478   1.054   9.998
 4059SOL     OW12712   2.194   1.424  10.378
 4059SOL    HW112713   2.119   1.387  10.330
 4059SOL    HW212714   2.243   1.473  10.312
 4060SOL     OW12715   3.326   1.499  10.660
 4060SOL    HW112716   3.381   1.577  10.668
 4060SOL    HW212717   3.271   1.500  10.738
 4061SOL     OW12718   2.311   0.394  10.786
 4061SOL    HW112719   2.388   0.339  10.796
 4061SOL    HW212720   2.238   0.341  10.819
 4062SOL     OW12721   3.473   0.446  10.049
 4062SOL    HW112722   3.392   0.468  10.001
 4062SOL    HW212723   3.492   0.524  10.100
 4063SOL     OW12724   2.078   1.707   9.775
 4063SOL    HW112725   2.103   1.777   9.835
 4063SOL    HW212726   2.153   1.698   9.716
 4064SOL     OW12727   2.095   1.439   9.847
 4064SOL    HW112728   2.072   1.532   9.847
 4064SOL    HW212729   2.032   1.399   9.908
 4065SOL     OW12730   2.120   1.090  10.202
 4065SOL    HW112731   2.115   1.004  10.242
 4065SOL    HW212732   2.061   1.144  10.254
 4066SOL     OW12733   2.472   1.790  10.735
 4066SOL    HW112734   2.393   1.771  10.786
 4066SOL    HW212735   2.496   1.879  10.762
 4067SOL     OW12736   2.448   0.981   9.444
 4067SOL    HW112737   2.493   1.031   9.375
 4067SOL    HW212738   2.488   1.012   9.525
 4068SOL     OW12739   3.416   0.136  10.783
 4068SOL    HW112740   3.464   0.192  10.721
 4068SOL    HW212741   3.475   0.126  10.857
 4069SOL     OW12742   1.978   0.653   9.870
 4069SOL    HW112743   1.948   0.564   9.891
 4069SOL    HW212744   1.969   0.702   9.951
 4070SOL     OW12745   3.704   1.759   9.645
 4070SOL    HW112746   3.767   1.731   9.711
 4070SOL    HW212747   3.728   1.850   9.626
 4071SOL     OW12748   1.896   1.595   9.433
 4071SOL    HW112749   1.876   1.503   9.452
 4071SOL    HW212750   1.869   1.642   9.512
 4072SOL     OW12751   3.553   0.921   9.951
 4072SOL    HW112752   3.636   0.878   9.931
 4072SOL    HW212753   3.531   0.969   9.872
 4073SOL     OW12754   3.508   1.107   9.739
 4073SOL    HW112755   3.594   1.113   9.697
 4073SOL    HW212756   3.512   1.168   9.813
 4074SOL     OW12757   1.988   0.726  10.915
 4074SOL    HW112758   2.081   0.747  10.905
 4074SOL    HW212759   1.944   0.810  10.909
 4075SOL     OW12760   2.476   1.384  10.045
 4075SOL    HW112761   2.430   1.301  10.054
 4075SOL    HW212762   2.460   1.411   9.954
 4076SOL     OW12763   3.157   1.237  10.752
 4076SOL    HW112764   3.181   1.177  10.681
 4076SOL    HW212765   3.212   1.212  10.825
 4077SOL     OW12766   2.679   0.014   9.861
 4077SOL    HW112767   2.714   0.099   9.835
 4077SOL    HW212768   2.584   0.025   9.853
 4078SOL     OW12769   2.053   0.965  10.579
 4078SOL    HW112770   2.136   0.922  10.563
 4078SOL    HW212771   1.988   0.910  10.534
 4079SOL     OW12772   3.394   0.993   9.508
 4079SOL    HW112773   3.323   0.936   9.540
 4079SOL    HW212774   3.434   1.027   9.588
 4080SOL     OW12775   3.058   1.806  10.927
 4080SOL    HW112776   3.057   1.869  10.855
 4080SOL    HW212777   3.067   1.721  10.884
 4081SOL     OW12778   2.197   0.277  11.087
 4081SOL    HW112779   2.253   0.340   0.032
 4081SOL    HW212780   2.113   0.282   0.034
 4082SOL     OW12781   3.329   1.419  10.261
 4082SOL    HW112782   3.260   1.435  10.326
 4082SOL    HW212783   3.316   1.328  10.234
 4083SOL     OW12784   3.521   1.739   9.888
 4083SOL    HW112785   3.500   1.709   9.799
 4083SOL    HW212786   3.496   1.665   9.944
 4084SOL     OW12787   2.455   0.723   9.575
 4084SOL    HW112788   2.460   0.805   9.525
 4084SOL    HW212789   2.390   0.741   9.643
 4085SOL     OW12790   3.153   0.363  10.244
 4085SOL    HW112791   3.064   0.333  10.228
 4085SOL    HW212792   3.189   0.299  10.306
 4086SOL     OW12793   3.443   1.670   9.619
 4086SOL    HW112794   3.533   1.702   9.612
 4086SOL    HW212795   3.416   1.653   9.529
 4087SOL     OW12796   2.657   0.618  10.765
 4087SOL    HW112797   2.626   0.593  10.852
 4087SOL    HW212798   2.619   0.554  10.706
 4088SOL     OW12799   2.828   0.899  10.902
 4088SOL    HW112800   2.876   0.826  10.863
 4088SOL    HW212801   2.777   0.936  10.830
 4089SOL     OW12802   2.858   0.419  10.545
 4089SOL    HW112803   2.770   0.427  10.581
 4089SOL    HW212804   2.847   0.365  10.467
 4090SOL     OW12805   2.912   0.697   9.737
 4090SOL    HW112806   2.928   0.690   9.831
 4090SOL    HW212807   2.829   0.651   9.723
 4091SOL     OW12808   1.951   0.821  10.086
 4091SOL    HW112809   2.032   0.814  10.137
 4091SOL    HW212810   1.907   0.898  10.121
 4092SOL     OW12811   1.993   1.835  10.897
 4092SOL    HW112812   1.964   1.809  10.984
 4092SOL    HW212813   1.912   1.852  10.849
 4093SOL     OW12814   2.717   0.369   9.493
 4093SOL    HW112815   2.789   0.403   9.440
 4093SOL    HW212816   2.731   0.275   9.496
 4094SOL     OW12817   3.239   1.143   9.851
 4094SOL    HW112818   3.318   1.129   9.798
 4094SOL    HW212819   3.186   1.204   9.801
 4095SOL     OW12820   2.401   0.204  10.212
 4095SOL    HW112821   2.421   0.223  10.304
 4095SOL    HW212822   2.392   0.290  10.171
 4096SOL     OW12823   2.869   1.445   9.782
 4096SOL    HW112824   2.831   1.517   9.733
 4096SOL    HW212825   2.851   1.466   9.874
 4097SOL     OW12826   2.219   1.799  10.181
 4097SOL    HW112827   2.250   1.708  10.183
 4097SOL    HW212828   2.295   1.851  10.205
 4098SOL     OW12829   3.660   1.060  10.178
 4098SOL    HW112830   3.606   1.039  10.102
 4098SOL    HW212831   3.598   1.064  10.251
 4099SOL     OW12832   3.089   1.537  10.825
 4099SOL    HW112833   3.098   1.449  10.860
 4099SOL    HW212834   3.028   1.528  10.752
 4100SOL     OW12835   2.182   0.957   9.560
 4100SOL    HW112836   2.264   0.975   9.514
 4100SOL    HW212837   2.151   0.875   9.521
 4101SOL     OW12838   3.341   0.742  10.035
 4101SOL    HW112839   3.329   0.698  10.119
 4101SOL    HW212840   3.418   0.797  10.048
 4102SOL     OW12841   2.314   1.267  11.054
 4102SOL    HW112842   2.286   1.279  10.963
 4102SOL    HW212843   2.252   1.204  11.090
 4103SOL     OW12844   2.984   1.777   9.541
 4103SOL    HW112845   2.911   1.735   9.587
 4103SOL    HW212846   3.007   1.716   9.471
 4104SOL     OW12847   2.056   0.266  10.816
 4104SOL    HW112848   1.987   0.332  10.809
 4104SOL    HW212849   2.074   0.260  10.909
 4105SOL     OW12850   3.491   1.380   9.397
 4105SOL    HW112851   3.449   1.465   9.382
 4105SOL    HW212852   3.422   1.316   9.379
 4106SOL     OW12853   2.329   1.732   9.632
 4106SOL    HW112854   2.371   1.793   9.693
 4106SOL    HW212855   2.400   1.702   9.575
 4107SOL     OW12856   3.282   0.138   9.728
 4107SOL    HW112857   3.266   0.087   9.649
 4107SOL    HW212858   3.377   0.131   9.742
 4108SOL     OW12859   2.105   1.783  10.549
 4108SOL    HW112860   2.167   1.723  10.591
 4108SOL    HW212861   2.111   1.761  10.456
 4109SOL     OW12862   2.798   1.697  10.212
 4109SOL    HW112863   2.877   1.647  10.229
 4109SOL    HW212864   2.754   1.650  10.141
 4110SOL     OW12865   2.255   0.694   9.786
 4110SOL    HW112866   2.277   0.602   9.798
 4110SOL    HW212867   2.161   0.699   9.804
 4111SOL     OW12868   2.490   0.122   9.432
 4111SOL    HW112869   2.578   0.085   9.441
 4111SOL    HW212870   2.456   0.086   9.350
 4112SOL     OW12871   2.622   0.267  11.045
 4112SOL    HW112872   2.691   0.207  11.074
 4112SOL    HW212873   2.586   0.302   0.026
 4113SOL     OW12874   2.738   1.522  10.504
 4113SOL    HW112875   2.723   1.486  10.416
 4113SOL    HW212876   2.810   1.470  10.539
 4114SOL     OW12877   3.206   0.590  10.753
 4114SOL    HW112878   3.256   0.573  10.833
 4114SOL    HW212879   3.231   0.679  10.727
 4115SOL     OW12880   2.677   1.396  10.249
 4115SOL    HW112881   2.761   1.384  10.205
 4115SOL    HW212882   2.612   1.395  10.178
 4116SOL     OW12883   2.785   0.519  10.209
 4116SOL    HW112884   2.769   0.516  10.115
 4116SOL    HW212885   2.822   0.433  10.230
 4117SOL     OW12886   2.416   0.076   9.832
 4117SOL    HW112887   2.328   0.048   9.855
 4117SOL    HW212888   2.403   0.141   9.762
 4118SOL     OW12889   3.290   1.198   9.351
 4118SOL    HW112890   3.320   1.122   9.401
 4118SOL    HW212891   3.204   1.219   9.388
 4119SOL     OW12892   2.157   0.069   9.508
 4119SOL    HW112893   2.236   0.121   9.490
 4119SOL    HW212894   2.187   4.500   9.567
 4120SOL     OW12895   2.814   0.240   9.778
 4120SOL    HW112896   2.763   0.296   9.720
 4120SOL    HW212897   2.903   0.276   9.773
 4121SOL     OW12898   2.940   0.685  10.773
 4121SOL    HW112899   2.868   0.622  10.772
 4121SOL    HW212900   3.019   0.630  10.767
 4122SOL     OW12901   3.085   1.571  10.104
 4122SOL    HW112902   3.102   1.637  10.037
 4122SOL    HW212903   3.154   1.584  10.169
 4123SOL     OW12904   2.331   1.150  10.044
 4123SOL    HW112905   2.261   1.130  10.107
 4123SOL    HW212906   2.291   1.133   9.959
 4124SOL     OW12907   3.131   1.794   9.918
 4124SOL    HW112908   3.177   1.856   9.860
 4124SOL    HW212909   3.065   1.847   9.962
 4125SOL     OW12910   2.891   0.548   9.327
 4125SOL    HW112911   2.843   0.629   9.312
 4125SOL    HW212912   2.950   0.568   9.400
 4126SOL     OW12913   1.943   0.549  10.708
 4126SOL    HW112914   2.033   0.554  10.678
 4126SOL    HW212915   1.938   0.613  10.779
 4127SOL     OW12916   2.424   0.244  10.478
 4127SOL    HW112917   2.447   0.157  10.512
 4127SOL    HW212918   2.332   0.256  10.503
 4128SOL     OW12919   2.728   0.504   9.936
 4128SOL    HW112920   2.683   0.544   9.862
 4128SOL    HW212921   2.694   0.414   9.939
 4129SOL     OW12922   2.825   0.025  10.092
 4129SOL    HW112923   2.776   0.024  10.010
 4129SOL    HW212924   2.838   4.433  10.114
 4130SOL     OW12925   3.298   1.163  10.167
 4130SOL    HW112926   3.230   1.095  10.166
 4130SOL    HW212927   3.322   1.174  10.075
 4131SOL     OW12928   3.327   0.606  10.285
 4131SOL    HW112929   3.274   0.526  10.287
 4131SOL    HW212930   3.385   0.597  10.361
 4132SOL     OW12931   3.708   0.817   9.693
 4132SOL    HW112932   3.764   0.765   9.751
 4132SOL    HW212933   3.679   0.755   9.626
 4133SOL     OW12934   2.352   1.418   9.467
 4133SOL    HW112935   2.278   1.388   9.519
 4133SOL    HW212936   2.337   1.381   9.381
 4134SOL     OW12937   3.532   1.265   9.955
 4134SOL    HW112938   3.626   1.267   9.970
 4134SOL    HW212939   3.502   1.353   9.977
 4135SOL     OW12940   3.256   0.571   9.380
 4135SOL    HW112941   3.195   0.555   9.451
 4135SOL    HW212942   3.342   0.551   9.418
 4136SOL     OW12943   2.384   0.266   9.633
 4136SOL    HW112944   2.431   0.215   9.567
 4136SOL    HW212945   2.366   0.349   9.591
 4137SOL     OW12946   3.621   1.229  10.868
 4137SOL    HW112947   3.712   1.201  10.870
 4137SOL    HW212948   3.622   1.316  10.909
 4138SOL     OW12949   2.925   1.355  10.651
 4138SOL    HW112950   2.847   1.321  10.695
 4138SOL    HW212951   2.998   1.306  10.690
 4139SOL     OW12952   2.992   1.208  10.416
 4139SOL    HW112953   2.925   1.239  10.476
 4139SOL    HW212954   2.961   1.234  10.329
 4140SOL     OW12955   3.491   1.098  10.388
 4140SOL    HW112956   3.487   1.160  10.461
 4140SOL    HW212957   3.411   1.116  10.338
 4141SOL     OW12958   2.760   0.126  10.698
 4141SOL    HW112959   2.787   0.089  10.614
 4141SOL    HW212960   2.842   0.145  10.743
 4142SOL     OW12961   2.571   1.062   9.681
 4142SOL    HW112962   2.557   1.045   9.774
 4142SOL    HW212963   2.647   1.008   9.658
 4143SOL     OW12964   2.282   0.815  10.561
 4143SOL    HW112965   2.350   0.824  10.627
 4143SOL    HW212966   2.246   0.727  10.574
 4144SOL     OW12967   3.132   0.382  10.581
 4144SOL    HW112968   3.162   0.459  10.629
 4144SOL    HW212969   3.043   0.404  10.554
 4145SOL     OW12970   1.930   1.574  10.659
 4145SOL    HW112971   1.899   1.648  10.608
 4145SOL    HW212972   2.025   1.581  10.657
 4146SOL     OW12973   2.212   1.109   9.801
 4146SOL    HW112974   2.215   1.182   9.739
 4146SOL    HW212975   2.210   1.030   9.745
 4147SOL     OW12976   2.418   0.530  10.168
 4147SOL    HW112977   2.432   0.589  10.094
 4147SOL    HW212978   2.482   0.558  10.234
 4148SOL     OW12979   3.110   1.348   9.699
 4148SOL    HW112980   3.166   1.420   9.730
 4148SOL    HW212981   3.023   1.369   9.733
 4149SOL     OW12982   3.141   1.459  10.455
 4149SOL    HW112983   3.198   1.461  10.532
 4149SOL    HW212984   3.089   1.379  10.466
 4150SOL     OW12985   3.444   0.624   9.787
 4150SOL    HW112986   3.397   0.674   9.854
 4150SOL    HW212987   3.488   0.689   9.734
 4151SOL     OW12988   2.211   1.521  10.627
 4151SOL    HW112989   2.196   1.480  10.541
 4151SOL    HW212990   2.306   1.536  10.630
 4152SOL     OW12991   2.276   0.735  10.905
 4152SOL    HW112992   2.339   0.779  10.848
 4152SOL    HW212993   2.313   0.647  10.919
 4153SOL     OW12994   3.456   0.759  10.969
 4153SOL    HW112995   3.379   0.815  10.963
 4153SOL    HW212996   3.526   0.809  10.926
 4154SOL     OW12997   2.445   0.873  10.341
 4154SOL    HW112998   2.473   0.964  10.340
 4154SOL    HW212999   2.388   0.866  10.418
 4155SOL     OW13000   3.220   0.860  10.344
 4155SOL    HW113001   3.137   0.851  10.296
 4155SOL    HW213002   3.261   0.774  10.337
 4156SOL     OW13003   3.066   0.535   9.573
 4156SOL    HW113004   3.072   0.455   9.625
 4156SOL    HW213005   3.023   0.598   9.631
 4157SOL     OW13006   2.151   0.232  10.549
 4157SOL    HW113007   2.113   0.250  10.636
 4157SOL    HW213008   2.186   0.143  10.556
 4158SOL     OW13009   1.912   1.311  10.585
 4158SOL    HW113010   1.939   1.257  10.659
 4158SOL    HW213011   1.914   1.401  10.619
 4159SOL     OW13012   2.586   0.632  10.368
 4159SOL    HW113013   2.659   0.613  10.310
 4159SOL    HW213014   2.558   0.720  10.344
 4160SOL     OW13015   2.159   0.055   9.964
 4160SOL    HW113016   2.149   0.150   9.966
 4160SOL    HW213017   2.171   0.030  10.055
 4161SOL     OW13018   3.477   0.378   9.673
 4161SOL    HW113019   3.505   0.314   9.738
 4161SOL    HW213020   3.454   0.456   9.724
 4162SOL     OW13021   2.890   0.762  10.271
 4162SOL    HW113022   2.887   0.777  10.366
 4162SOL    HW213023   2.861   0.671  10.261
 4163SOL     OW13024   2.834   1.572  11.004
 4163SOL    HW113025   2.820   1.622  10.924
 4163SOL    HW213026   2.867   1.487  10.974
 4164SOL     OW13027   3.719   1.494  10.912
 4164SOL    HW113028   3.734   1.529  10.824
 4164SOL    HW213029   3.786   1.535  10.966
 4165SOL     OW13030   2.223   0.920  11.094
 4165SOL    HW113031   2.307   0.934   0.037
 4165SOL    HW213032   2.240   0.853  11.028
 4166SOL     OW13033   3.392   0.265   9.438
 4166SOL    HW113034   3.321   0.209   9.467
 4166SOL    HW213035   3.422   0.310   9.517
 4167SOL     OW13036   3.154   0.826   9.341
 4167SOL    HW113037   3.196   0.740   9.343
 4167SOL    HW213038   3.185   0.866   9.259
 4168SOL     OW13039   2.927   1.335  10.164
 4168SOL    HW113040   2.930   1.262  10.101
 4168SOL    HW213041   2.989   1.399  10.129
 4169SOL     OW13042   2.171   0.810  10.257
 4169SOL    HW113043   2.264   0.831  10.250
 4169SOL    HW213044   2.170   0.720  10.291
 4170SOL     OW13045   2.198   0.532  10.323
 4170SOL    HW113046   2.156   0.448  10.304
 4170SOL    HW213047   2.274   0.533  10.265
 4171SOL     OW13048   3.013   0.216  10.768
 4171SOL    HW113049   3.031   0.264  10.849
 4171SOL    HW213050   3.055   0.269  10.700
 4172SOL     OW13051   1.867   1.321   9.505
 4172SOL    HW113052   1.780   1.335   9.467
 4172SOL    HW213053   1.865   1.232   9.538
 4173SOL     OW13054   1.948   1.792  10.245
 4173SOL    HW113055   1.918   1.711  10.203
 4173SOL    HW213056   2.041   1.798  10.220
 4174SOL     OW13057   2.361   1.570  10.214
 4174SOL    HW113058   2.429   1.635  10.232
 4174SOL    HW213059   2.404   1.505  10.158
 4175SOL     OW13060   2.845   0.796  10.538
 4175SOL    HW113061   2.900   0.772  10.613
 4175SOL    HW213062   2.761   0.753  10.555
 4176SOL     OW13063   1.896   0.544  10.429
 4176SOL    HW113064   1.974   0.525  10.377
 4176SOL    HW213065   1.927   0.548  10.519
 4177SOL     OW13066   2.673   0.576   9.665
 4177SOL    HW113067   2.677   0.504   9.602
 4177SOL    HW213068   2.599   0.629   9.636
 4178SOL     OW13069   3.502   0.601  10.496
 4178SOL    HW113070   3.493   0.543  10.571
 4178SOL    HW213071   3.590   0.583  10.462
 4179SOL     OW13072   2.120   1.563  11.055
 4179SOL    HW113073   2.060   1.597   0.021
 4179SOL    HW213074   2.122   1.469  11.070
 4180SOL     OW13075   2.565   0.457  10.574
 4180SOL    HW113076   2.515   0.381  10.543
 4180SOL    HW213077   2.563   0.518  10.500
 4181SOL     OW13078   2.800   1.682  10.759
 4181SOL    HW113079   2.766   1.648  10.676
 4181SOL    HW213080   2.788   1.777  10.753
 4182SOL     OW13081   2.327   0.493   9.494
 4182SOL    HW113082   2.386   0.565   9.516
 4182SOL    HW213083   2.241   0.534   9.483
 4183SOL     OW13084   2.016   1.138  10.780
 4183SOL    HW113085   2.008   1.083  10.858
 4183SOL    HW213086   2.028   1.076  10.708
 4184SOL     OW13087   3.187   1.053  10.538
 4184SOL    HW113088   3.213   0.987  10.474
 4184SOL    HW213089   3.117   1.102  10.495
 4185SOL     OW13090   3.173   0.857   9.616
 4185SOL    HW113091   3.098   0.827   9.667
 4185SOL    HW213092   3.147   0.843   9.525
 4186SOL     OW13093   3.636   1.745  10.462
 4186SOL    HW113094   3.695   1.770  10.390
 4186SOL    HW213095   3.610   1.655  10.441
 4187SOL     OW13096   3.103   1.734  10.424
 4187SOL    HW113097   3.185   1.755  10.379
 4187SOL    HW213098   3.109   1.640  10.441
 4188SOL     OW13099   1.947   1.267  10.322
 4188SOL    HW113100   1.934   1.280  10.416
 4188SOL    HW213101   1.873   1.213  10.294
 4189SOL     OW13102   3.580   0.129   9.803
 4189SOL    HW113103   3.652   0.138   9.740
 4189SOL    HW213104   3.608   0.058   9.861
 4190SOL     OW13105   3.252   1.568   9.795
 4190SOL    HW113106   3.313   1.600   9.728
 4190SOL    HW213107   3.204   1.645   9.823
 4191SOL     OW13108   3.141   0.928   9.983
 4191SOL    HW113109   3.213   0.865   9.988
 4191SOL    HW213110   3.174   1.000   9.930
 4192SOL     OW13111   2.680   1.274  10.738
 4192SOL    HW113112   2.649   1.308  10.822
 4192SOL    HW213113   2.610   1.294  10.676
 4193SOL     OW13114   2.532   1.620   9.466
 4193SOL    HW113115   2.544   1.632   9.371
 4193SOL    HW213116   2.478   1.541   9.473
 4194SOL     OW13117   3.485   1.720  10.697
 4194SOL    HW113118   3.539   1.734  10.620
 4194SOL    HW213119   3.469   1.808  10.732
 4195SOL     OW13120   3.701   0.154  10.277
 4195SOL    HW113121   3.732   0.077  10.229
 4195SOL    HW213122   3.614   0.172  10.240
 4196SOL     OW13123   2.126   0.322  10.027
 4196SOL    HW113124   2.041   0.357  10.000
 4196SOL    HW213125   2.120   0.314  10.122
 4197SOL     OW13126   3.069   1.606   9.341
 4197SOL    HW113127   3.060   1.515   9.369
 4197SOL    HW213128   3.004   1.617   9.272
 4198SOL     OW13129   2.687   1.005  10.687
 4198SOL    HW113130   2.729   0.997  10.601
 4198SOL    HW213131   2.688   1.099  10.705
 4199SOL     OW13132   2.778   0.911   9.600
 4199SOL    HW113133   2.840   0.942   9.534
 4199SOL    HW213134   2.824   0.840   9.645
 4200SOL     OW13135   3.354   1.625   9.353
 4200SOL    HW113136   3.260   1.619   9.339
 4200SOL    HW213137   3.390   1.631   9.264
 4201SOL     OW13138   2.229   1.306  10.806
 4201SOL    HW113139   2.217   1.380  10.747
 4201SOL    HW213140   2.156   1.248  10.787
 4202SOL     OW13141   3.475   1.282  10.593
 4202SOL    HW113142   3.530   1.268  10.670
 4202SOL    HW213143   3.418   1.354  10.617
 4203SOL     OW13144   2.913   1.107  10.017
 4203SOL    HW113145   2.842   1.056  10.055
 4203SOL    HW213146   2.976   1.042   9.985
 4204SOL     OW13147   2.868   0.244  10.314
 4204SOL    HW113148   2.874   0.221  10.222
 4204SOL    HW213149   2.860   0.160  10.360
 4205SOL     OW13150   2.466   1.490   9.791
 4205SOL    HW113151   2.509   1.438   9.723
 4205SOL    HW213152   2.394   1.534   9.746
 4206SOL     OW13153   3.581   0.394  10.689
 4206SOL    HW113154   3.654   0.456  10.690
 4206SOL    HW213155   3.610   0.324  10.631
 4207SOL     OW13156   2.121   1.346   9.599
 4207SOL    HW113157   2.028   1.343   9.576
 4207SOL    HW213158   2.123   1.381   9.688
 4208SOL     OW13159   1.978   1.011  11.018
 4208SOL    HW113160   1.908   0.999  11.083
 4208SOL    HW213161   2.057   0.981  11.063
 4209SOL     OW13162   2.514   0.186  10.809
 4209SOL    HW113163   2.592   0.165  10.758
 4209SOL    HW213164   2.548   0.222  10.891
 4210SOL     OW13165   1.944   0.339   9.357
 4210SOL    HW113166   1.873   0.286   9.321
 4210SOL    HW213167   1.957   0.408   9.293
 4211SOL     OW13168   3.291   0.850  10.710
 4211SOL    HW113169   3.243   0.917  10.662
 4211SOL    HW213170   3.381   0.858  10.678
 4212SOL     OW13171   1.926   0.183   9.629
 4212SOL    HW113172   1.925   0.250   9.561
 4212SOL    HW213173   2.001   0.128   9.607
 4213SOL     OW13174   3.041   1.340   9.427
 4213SOL    HW113175   2.950   1.309   9.429
 4213SOL    HW213176   3.069   1.340   9.518
 4214SOL     OW13177   2.482   0.830  10.744
 4214SOL    HW113178   2.538   0.906  10.729
 4214SOL    HW213179   2.543   0.756  10.752
 4215SOL     OW13180   3.345   1.776  10.288
 4215SOL    HW113181   3.370   1.835  10.217
 4215SOL    HW213182   3.428   1.757  10.333
 4216SOL     OW13183   2.576   0.565  11.017
 4216SOL    HW113184   2.612   0.638  11.068
 4216SOL    HW213185   2.626   0.489  11.044
 4217SOL     OW13186   2.248   1.734  10.876
 4217SOL    HW113187   2.167   1.784  10.863
 4217SOL    HW213188   2.222   1.661  10.932
 4218SOL     OW13189   3.533   0.882  10.567
 4218SOL    HW113190   3.524   0.797  10.524
 4218SOL    HW213191   3.523   0.946  10.496
 4219SOL     OW13192   3.080   0.330   9.757
 4219SOL    HW113193   3.146   0.261   9.746
 4219SOL    HW213194   3.108   0.377   9.836
 4220SOL     OW13195   2.449   0.738   9.981
 4220SOL    HW113196   2.491   0.823   9.964
 4220SOL    HW213197   2.382   0.731   9.913
 4221SOL     OW13198   3.613   0.313  10.951
 4221SOL    HW113199   3.595   0.353  10.866
 4221SOL    HW213200   3.535   0.333  11.004
 4222SOL     OW13201   3.612   0.935  10.825
 4222SOL    HW113202   3.603   1.029  10.839
 4222SOL    HW213203   3.594   0.923  10.732
 4223SOL     OW13204   2.724   1.367   9.343
 4223SOL    HW113205   2.686   1.394   9.427
 4223SOL    HW213206   2.743   1.450   9.298
 4224SOL     OW13207   2.515   1.803  10.247
 4224SOL    HW113208   2.503   1.878  10.304
 4224SOL    HW213209   2.610   1.788  10.246
 4225SOL     OW13210   2.729   0.967  10.165
 4225SOL    HW113211   2.779   0.895  10.203
 4225SOL    HW213212   2.695   1.015  10.241
 4226SOL     OW13213   2.942   0.989   9.399
 4226SOL    HW113214   2.919   1.039   9.320
 4226SOL    HW213215   3.016   0.935   9.373
 4227SOL     OW13216   3.717   1.555  10.155
 4227SOL    HW113217   3.639   1.543  10.100
 4227SOL    HW213218   3.710   1.487  10.222
 4228SOL     OW13219   1.946   1.234   9.974
 4228SOL    HW113220   1.948   1.186  10.057
 4228SOL    HW213221   2.014   1.193   9.921
 4229SOL     OW13222   2.541   1.395  10.940
 4229SOL    HW113223   2.469   1.344  10.975
 4229SOL    HW213224   2.506   1.484  10.931
 4230SOL     OW13225   3.665   0.179  10.550
 4230SOL    HW113226   3.677   0.086  10.569
 4230SOL    HW213227   3.683   0.187  10.456
 4231SOL     OW13228   2.298   0.433   9.840
 4231SOL    HW113229   2.320   0.364   9.777
 4231SOL    HW213230   2.242   0.390   9.905
 4232SOL     OW13231   3.562   1.491  10.408
 4232SOL    HW113232   3.482   1.466  10.362
 4232SOL    HW213233   3.576   1.421  10.472
 4233SOL     OW13234   2.191   0.558  10.601
 4233SOL    HW113235   2.244   0.500  10.656
 4233SOL    HW213236   2.210   0.530  10.512
 4234SOL     OW13237   2.689   1.578   9.988
 4234SOL    HW113238   2.677   1.629   9.908
 4234SOL    HW213239   2.613   1.520   9.991
 4235SOL     OW13240   3.293   0.215  10.429
 4235SOL    HW113241   3.333   0.147  10.483
 4235SOL    HW213242   3.244   0.269  10.490
 4236SOL     OW13243   2.857   0.008  10.460
 4236SOL    HW113244   2.815   4.423  10.451
 4236SOL    HW213245   2.950   4.488  10.472
 4237SOL     OW13246   2.634   1.333   9.624
 4237SOL    HW113247   2.602   1.243   9.630
 4237SOL    HW213248   2.716   1.332   9.673
 4238SOL     OW13249   2.482   1.556  10.596
 4238SOL    HW113250   2.483   1.639  10.643
 4238SOL    HW213251   2.570   1.549  10.558
 4239SOL     OW13252   3.203   0.053   9.464
 4239SOL    HW113253   3.241   4.477   9.420
 4239SOL    HW213254   3.127   0.017   9.510
 4240SOL     OW13255   3.177   0.463   9.987
 4240SOL    HW113256   3.117   0.538   9.988
 4240SOL    HW213257   3.165   0.422  10.072
 4241SOL     OW13258   3.447   0.200  10.177
 4241SOL    HW113259   3.388   0.214  10.251
 4241SOL    HW213260   3.450   0.284  10.131
 4242SOL     OW13261   1.906   1.071   9.616
 4242SOL    HW113262   2.000   1.062   9.598
 4242SOL    HW213263   1.877   0.983   9.639
 4243SOL     OW13264   2.746   1.652   9.652
 4243SOL    HW113265   2.674   1.634   9.592
 4243SOL    HW213266   2.716   1.727   9.704
 4244SOL     OW13267   2.068   2.523   0.108
 4244SOL    HW113268   1.989   2.489   0.149
 4244SOL    HW213269   2.108   2.447   0.065
 4245SOL     OW13270   1.861   2.249   0.628
 4245SOL    HW113271   1.782   2.269   0.678
 4245SOL    HW213272   1.845   2.164   0.589
 4246SOL     OW13273   2.428   3.149   1.175
 4246SOL    HW113274   2.341   3.152   1.136
 4246SOL    HW213275   2.443   3.237   1.208
 4247SOL     OW13276   3.422   3.373   0.706
 4247SOL    HW113277   3.379   3.353   0.790
 4247SOL    HW213278   3.351   3.377   0.643
 4248SOL     OW13279   2.991   2.560   0.701
 4248SOL    HW113280   3.041   2.641   0.688
 4248SOL    HW213281   2.946   2.573   0.784
 4249SOL     OW13282   3.637   2.464   0.218
 4249SOL    HW113283   3.583   2.468   0.139
 4249SOL    HW213284   3.598   2.393   0.270
 4250SOL     OW13285   2.617   3.004   1.040
 4250SOL    HW113286   2.548   3.039   1.097
 4250SOL    HW213287   2.653   3.081   0.995
 4251SOL     OW13288   2.726   2.638   1.821
 4251SOL    HW113289   2.717   2.710   1.884
 4251SOL    HW213290   2.751   2.681   1.740
 4252SOL     OW13291   2.550   2.868   0.646
 4252SOL    HW113292   2.613   2.854   0.716
 4252SOL    HW213293   2.479   2.918   0.688
 4253SOL     OW13294   2.572   3.013   1.811
 4253SOL    HW113295   2.620   3.092   1.838
 4253SOL    HW213296   2.489   3.046   1.776
 4254SOL     OW13297   2.193   3.288   1.068
 4254SOL    HW113298   2.120   3.250   1.018
 4254SOL    HW213299   2.242   3.338   1.003
 4255SOL     OW13300   3.323   3.361   1.354
 4255SOL    HW113301   3.372   3.442   1.363
 4255SOL    HW213302   3.262   3.361   1.427
 4256SOL     OW13303   3.474   2.310   0.740
 4256SOL    HW113304   3.397   2.334   0.688
 4256SOL    HW213305   3.490   2.387   0.795
 4257SOL     OW13306   2.081   3.575   0.474
 4257SOL    HW113307   2.102   3.653   0.525
 4257SOL    HW213308   2.150   3.569   0.408
 4258SOL     OW13309   2.998   3.204   1.692
 4258SOL    HW113310   3.039   3.199   1.779
 4258SOL    HW213311   2.946   3.124   1.686
 4259SOL     OW13312   2.090   3.303   0.534
 4259SOL    HW113313   2.075   3.397   0.536
 4259SOL    HW213314   2.029   3.267   0.598
 4260SOL     OW13315   2.120   2.955   0.891
 4260SOL    HW113316   2.114   2.868   0.929
 4260SOL    HW213317   2.060   3.008   0.944
 4261SOL     OW13318   2.474   3.653   1.430
 4261SOL    HW113319   2.392   3.635   1.476
 4261SOL    HW213320   2.497   3.743   1.455
 4262SOL     OW13321   2.447   2.847   0.141
 4262SOL    HW113322   2.487   2.905   0.076
 4262SOL    HW213323   2.488   2.872   0.223
 4263SOL     OW13324   3.458   1.985   1.468
 4263SOL    HW113325   3.464   2.066   1.417
 4263SOL    HW213326   3.444   2.014   1.558
 4264SOL     OW13327   1.984   2.506   0.562
 4264SOL    HW113328   1.946   2.420   0.582
 4264SOL    HW213329   1.970   2.558   0.641
 4265SOL     OW13330   3.704   3.622   0.333
 4265SOL    HW113331   3.767   3.592   0.399
 4265SOL    HW213332   3.730   3.712   0.315
 4266SOL     OW13333   1.908   3.464   0.119
 4266SOL    HW113334   1.880   3.375   0.143
 4266SOL    HW213335   1.881   3.518   0.193
 4267SOL     OW13336   3.550   2.779   0.641
 4267SOL    HW113337   3.635   2.740   0.623
 4267SOL    HW213338   3.530   2.831   0.563
 4268SOL     OW13339   3.508   2.967   0.432
 4268SOL    HW113340   3.591   2.979   0.384
 4268SOL    HW213341   3.513   3.029   0.504
 4269SOL     OW13342   1.983   2.599   1.583
 4269SOL    HW113343   2.072   2.620   1.611
 4269SOL    HW213344   1.934   2.680   1.597
 4270SOL     OW13345   2.476   3.248   0.735
 4270SOL    HW113346   2.430   3.164   0.745
 4270SOL    HW213347   2.459   3.275   0.645
 4271SOL     OW13348   3.151   3.100   1.423
 4271SOL    HW113349   3.183   3.033   1.363
 4271SOL    HW213350   3.208   3.094   1.500
 4272SOL     OW13351   2.675   1.864   0.505
 4272SOL    HW113352   2.715   1.949   0.490
 4272SOL    HW213353   2.581   1.883   0.515
 4273SOL     OW13354   2.052   2.830   1.271
 4273SOL    HW113355   2.136   2.787   1.253
 4273SOL    HW213356   1.987   2.776   1.226
 4274SOL     OW13357   3.379   2.863   0.203
 4274SOL    HW113358   3.315   2.802   0.239
 4274SOL    HW213359   3.429   2.893   0.279
 4275SOL     OW13360   3.047   3.668   1.622
 4275SOL    HW113361   3.058   3.726   1.547
 4275SOL    HW213362   3.063   3.580   1.587
 4276SOL     OW13363   3.328   3.282   0.952
 4276SOL    HW113364   3.260   3.297   1.017
 4276SOL    HW213365   3.316   3.191   0.925
 4277SOL     OW13366   3.520   3.601   0.579
 4277SOL    HW113367   3.501   3.572   0.490
 4277SOL    HW213368   3.496   3.527   0.634
 4278SOL     OW13369   2.464   2.585   0.270
 4278SOL    HW113370   2.465   2.662   0.214
 4278SOL    HW213371   2.391   2.600   0.331
 4279SOL     OW13372   3.141   2.213   0.932
 4279SOL    HW113373   3.052   2.181   0.941
 4279SOL    HW213374   3.193   2.161   0.993
 4280SOL     OW13375   3.444   3.532   0.312
 4280SOL    HW113376   3.534   3.563   0.305
 4280SOL    HW213377   3.418   3.514   0.222
 4281SOL     OW13378   2.654   2.483   1.452
 4281SOL    HW113379   2.630   2.456   1.540
 4281SOL    HW213380   2.622   2.413   1.395
 4282SOL     OW13381   3.256   2.336   1.678
 4282SOL    HW113382   3.258   2.380   1.763
 4282SOL    HW213383   3.317   2.263   1.688
 4283SOL     OW13384   2.817   2.749   1.582
 4283SOL    HW113385   2.872   2.679   1.546
 4283SOL    HW213386   2.769   2.783   1.506
 4284SOL     OW13387   2.857   2.273   1.238
 4284SOL    HW113388   2.770   2.295   1.271
 4284SOL    HW213389   2.840   2.227   1.155
 4285SOL     OW13390   2.912   2.563   0.427
 4285SOL    HW113391   2.928   2.557   0.521
 4285SOL    HW213392   2.829   2.517   0.414
 4286SOL     OW13393   1.951   2.683   0.773
 4286SOL    HW113394   2.032   2.679   0.823
 4286SOL    HW213395   1.905   2.759   0.808
 4287SOL     OW13396   1.989   3.710   1.578
 4287SOL    HW113397   1.989   3.689   1.671
 4287SOL    HW213398   1.898   3.700   1.551
 4288SOL     OW13399   2.748   2.216   0.207
 4288SOL    HW113400   2.796   2.273   0.147
 4288SOL    HW213401   2.765   2.127   0.174
 4289SOL     OW13402   3.571   2.437   1.828
 4289SOL    HW113403   3.533   2.511   1.780
 4289SOL    HW213404   3.598   2.376   1.759
 4290SOL     OW13405   3.239   3.003   0.541
 4290SOL    HW113406   3.317   2.990   0.488
 4290SOL    HW213407   3.186   3.066   0.492
 4291SOL     OW13408   2.868   3.306   0.474
 4291SOL    HW113409   2.829   3.379   0.424
 4291SOL    HW213410   2.850   3.327   0.565
 4292SOL     OW13411   2.216   3.670   0.862
 4292SOL    HW113412   2.259   3.585   0.869
 4292SOL    HW213413   2.286   3.734   0.879
 4293SOL     OW13414   3.660   2.920   0.869
 4293SOL    HW113415   3.604   2.904   0.792
 4293SOL    HW213416   3.598   2.925   0.942
 4294SOL     OW13417   3.090   3.401   1.513
 4294SOL    HW113418   3.076   3.328   1.574
 4294SOL    HW213419   3.027   3.386   1.442
 4295SOL     OW13420   2.175   2.816   0.272
 4295SOL    HW113421   2.253   2.839   0.222
 4295SOL    HW213422   2.143   2.735   0.231
 4296SOL     OW13423   3.341   2.601   0.726
 4296SOL    HW113424   3.331   2.560   0.812
 4296SOL    HW213425   3.417   2.658   0.734
 4297SOL     OW13426   2.328   3.126   1.737
 4297SOL    HW113427   2.300   3.131   1.646
 4297SOL    HW213428   2.246   3.124   1.787
 4298SOL     OW13429   2.969   3.641   0.227
 4298SOL    HW113430   2.910   3.589   0.281
 4298SOL    HW213431   3.011   3.577   0.169
 4299SOL     OW13432   1.974   2.103   1.504
 4299SOL    HW113433   1.968   2.197   1.492
 4299SOL    HW213434   2.063   2.088   1.535
 4300SOL     OW13435   3.490   3.236   0.089
 4300SOL    HW113436   3.447   3.321   0.077
 4300SOL    HW213437   3.424   3.173   0.060
 4301SOL     OW13438   2.330   3.595   0.327
 4301SOL    HW113439   2.369   3.657   0.389
 4301SOL    HW213440   2.403   3.571   0.269
 4302SOL     OW13441   3.264   1.970   0.431
 4302SOL    HW113442   3.255   1.947   0.339
 4302SOL    HW213443   3.358   1.976   0.446
 4303SOL     OW13444   2.118   3.654   1.232
 4303SOL    HW113445   2.169   3.587   1.278
 4303SOL    HW213446   2.106   3.619   1.143
 4304SOL     OW13447   2.800   3.560   0.899
 4304SOL    HW113448   2.877   3.508   0.920
 4304SOL    HW213449   2.756   3.511   0.830
 4305SOL     OW13450   2.251   2.557   0.468
 4305SOL    HW113451   2.269   2.466   0.443
 4305SOL    HW213452   2.160   2.556   0.497
 4306SOL     OW13453   3.398   2.087   1.725
 4306SOL    HW113454   3.407   2.108   1.818
 4306SOL    HW213455   3.328   2.021   1.722
 4307SOL     OW13456   2.464   1.974   0.119
 4307SOL    HW113457   2.553   1.947   0.142
 4307SOL    HW213458   2.452   1.942   0.029
 4308SOL     OW13459   2.628   2.142   1.755
 4308SOL    HW113460   2.703   2.083   1.755
 4308SOL    HW213461   2.578   2.116   1.832
 4309SOL     OW13462   2.738   3.383   1.194
 4309SOL    HW113463   2.723   3.347   1.106
 4309SOL    HW213464   2.808   3.329   1.230
 4310SOL     OW13465   3.203   2.451   1.432
 4310SOL    HW113466   3.234   2.419   1.517
 4310SOL    HW213467   3.239   2.539   1.425
 4311SOL     OW13468   2.677   3.257   0.939
 4311SOL    HW113469   2.761   3.246   0.895
 4311SOL    HW213470   2.612   3.258   0.868
 4312SOL     OW13471   2.786   2.369   0.903
 4312SOL    HW113472   2.763   2.361   0.810
 4312SOL    HW213473   2.820   2.283   0.926
 4313SOL     OW13474   2.407   1.931   0.501
 4313SOL    HW113475   2.328   1.923   0.554
 4313SOL    HW213476   2.399   2.017   0.460
 4314SOL     OW13477   3.287   3.058   0.030
 4314SOL    HW113478   3.319   2.986   0.084
 4314SOL    HW213479   3.204   3.084   0.070
 4315SOL     OW13480   2.156   1.911   0.191
 4315SOL    HW113481   2.220   1.956   0.136
 4315SOL    HW213482   2.204   1.836   0.227
 4316SOL     OW13483   2.800   2.108   0.461
 4316SOL    HW113484   2.775   2.155   0.381
 4316SOL    HW213485   2.895   2.122   0.467
 4317SOL     OW13486   2.942   2.543   1.458
 4317SOL    HW113487   2.874   2.476   1.464
 4317SOL    HW213488   3.024   2.494   1.452
 4318SOL     OW13489   3.085   3.432   0.794
 4318SOL    HW113490   3.102   3.498   0.727
 4318SOL    HW213491   3.154   3.445   0.859
 4319SOL     OW13492   2.332   3.011   0.736
 4319SOL    HW113493   2.262   2.993   0.799
 4319SOL    HW213494   2.293   2.997   0.650
 4320SOL     OW13495   3.131   3.656   0.606
 4320SOL    HW113496   3.178   3.718   0.550
 4320SOL    HW213497   3.066   3.710   0.651
 4321SOL     OW13498   2.873   2.399   0.039
 4321SOL    HW113499   2.841   2.487   0.019
 4321SOL    HW213500   2.954   2.413   0.089
 4322SOL     OW13501   1.945   2.414   1.391
 4322SOL    HW113502   2.041   2.408   1.391
 4322SOL    HW213503   1.925   2.480   1.457
 4323SOL     OW13504   2.463   2.045   1.147
 4323SOL    HW113505   2.471   1.983   1.219
 4323SOL    HW213506   2.379   2.088   1.162
 4324SOL     OW13507   2.725   2.318   0.640
 4324SOL    HW113508   2.686   2.378   0.576
 4324SOL    HW213509   2.749   2.240   0.589
 4325SOL     OW13510   2.876   1.914   0.752
 4325SOL    HW113511   2.818   1.905   0.677
 4325SOL    HW213512   2.855   1.839   0.808
 4326SOL     OW13513   3.299   3.025   0.857
 4326SOL    HW113514   3.230   2.958   0.856
 4326SOL    HW213515   3.323   3.036   0.765
 4327SOL     OW13516   3.329   2.467   0.977
 4327SOL    HW113517   3.278   2.386   0.982
 4327SOL    HW213518   3.389   2.462   1.052
 4328SOL     OW13519   3.711   2.676   0.378
 4328SOL    HW113520   3.764   2.626   0.440
 4328SOL    HW213521   3.683   2.611   0.313
 4329SOL     OW13522   2.356   3.286   0.172
 4329SOL    HW113523   2.279   3.261   0.223
 4329SOL    HW213524   2.350   3.232   0.093
 4330SOL     OW13525   3.532   3.126   0.648
 4330SOL    HW113526   3.627   3.129   0.660
 4330SOL    HW213527   3.502   3.215   0.667
 4331SOL     OW13528   3.253   2.438   0.081
 4331SOL    HW113529   3.192   2.417   0.152
 4331SOL    HW213530   3.319   2.369   0.084
 4332SOL     OW13531   3.614   3.101   1.573
 4332SOL    HW113532   3.702   3.061   1.570
 4332SOL    HW213533   3.630   3.191   1.603
 4333SOL     OW13534   2.921   3.216   1.334
 4333SOL    HW113535   2.846   3.185   1.385
 4333SOL    HW213536   2.997   3.174   1.375
 4334SOL     OW13537   3.469   3.488   1.654
 4334SOL    HW113538   3.464   3.522   1.564
 4334SOL    HW213539   3.552   3.440   1.656
 4335SOL     OW13540   2.991   3.066   1.106
 4335SOL    HW113541   2.931   3.103   1.171
 4335SOL    HW213542   2.957   3.097   1.022
 4336SOL     OW13543   3.490   2.960   1.078
 4336SOL    HW113544   3.486   3.022   1.151
 4336SOL    HW213545   3.411   2.977   1.027
 4337SOL     OW13546   2.786   1.956   1.397
 4337SOL    HW113547   2.807   1.940   1.305
 4337SOL    HW213548   2.865   1.997   1.433
 4338SOL     OW13549   2.846   2.977   1.722
 4338SOL    HW113550   2.754   2.993   1.743
 4338SOL    HW213551   2.845   2.899   1.666
 4339SOL     OW13552   2.572   2.922   0.372
 4339SOL    HW113553   2.557   2.907   0.466
 4339SOL    HW213554   2.647   2.867   0.351
 4340SOL     OW13555   2.280   2.674   1.251
 4340SOL    HW113556   2.351   2.692   1.313
 4340SOL    HW213557   2.253   2.584   1.271
 4341SOL     OW13558   3.129   2.239   1.275
 4341SOL    HW113559   3.161   2.317   1.321
 4341SOL    HW213560   3.038   2.261   1.252
 4342SOL     OW13561   1.932   3.435   1.353
 4342SOL    HW113562   1.901   3.507   1.298
 4342SOL    HW213563   2.027   3.439   1.347
 4343SOL     OW13564   2.213   2.976   0.495
 4343SOL    HW113565   2.212   3.050   0.434
 4343SOL    HW213566   2.205   2.899   0.439
 4344SOL     OW13567   3.109   3.208   0.395
 4344SOL    HW113568   3.165   3.281   0.422
 4344SOL    HW213569   3.022   3.231   0.426
 4345SOL     OW13570   3.142   3.319   1.147
 4345SOL    HW113571   3.198   3.321   1.225
 4345SOL    HW213572   3.087   3.242   1.158
 4346SOL     OW13573   3.446   2.489   0.476
 4346SOL    HW113574   3.397   2.534   0.545
 4346SOL    HW213575   3.484   2.559   0.423
 4347SOL     OW13576   2.209   3.389   1.315
 4347SOL    HW113577   2.196   3.346   1.231
 4347SOL    HW213578   2.303   3.401   1.322
 4348SOL     OW13579   2.278   2.623   1.599
 4348SOL    HW113580   2.340   2.666   1.541
 4348SOL    HW213581   2.325   2.546   1.633
 4349SOL     OW13582   3.463   2.641   1.682
 4349SOL    HW113583   3.377   2.681   1.675
 4349SOL    HW213584   3.515   2.682   1.613
 4350SOL     OW13585   2.857   1.985   1.752
 4350SOL    HW113586   2.914   2.057   1.726
 4350SOL    HW213587   2.906   1.906   1.729
 4351SOL     OW13588   2.364   1.894   1.749
 4351SOL    HW113589   2.323   1.838   1.682
 4351SOL    HW213590   2.306   1.970   1.755
 4352SOL     OW13591   2.439   2.738   1.026
 4352SOL    HW113592   2.479   2.825   1.025
 4352SOL    HW213593   2.388   2.735   1.107
 4353SOL     OW13594   3.220   2.721   1.030
 4353SOL    HW113595   3.136   2.711   0.985
 4353SOL    HW213596   3.260   2.634   1.025
 4354SOL     OW13597   3.064   2.387   0.270
 4354SOL    HW113598   3.073   2.310   0.327
 4354SOL    HW213599   3.022   2.453   0.326
 4355SOL     OW13600   1.910   3.173   1.277
 4355SOL    HW113601   1.941   3.119   1.349
 4355SOL    HW213602   1.915   3.262   1.310
 4356SOL     OW13603   2.595   2.505   1.066
 4356SOL    HW113604   2.647   2.472   0.993
 4356SOL    HW213605   2.549   2.581   1.030
 4357SOL     OW13606   3.596   2.822   1.852
 4357SOL    HW113607   3.550   2.760   1.795
 4357SOL    HW213608   3.537   2.835   1.926
 4358SOL     OW13609   2.162   1.917   0.634
 4358SOL    HW113610   2.120   1.999   0.661
 4358SOL    HW213611   2.172   1.867   0.715
 4359SOL     OW13612   3.479   2.237   0.366
 4359SOL    HW113613   3.506   2.172   0.431
 4359SOL    HW213614   3.455   2.314   0.417
 4360SOL     OW13615   2.891   2.620   0.960
 4360SOL    HW113616   2.887   2.640   1.054
 4360SOL    HW213617   2.858   2.530   0.954
 4361SOL     OW13618   2.844   3.428   1.717
 4361SOL    HW113619   2.829   3.472   1.633
 4361SOL    HW213620   2.887   3.346   1.693
 4362SOL     OW13621   3.717   3.369   1.606
 4362SOL    HW113622   3.735   3.394   1.515
 4362SOL    HW213623   3.798   3.387   1.652
 4363SOL     OW13624   2.218   2.786   1.811
 4363SOL    HW113625   2.301   2.799   1.856
 4363SOL    HW213626   2.239   2.728   1.737
 4364SOL     OW13627   3.397   2.152   0.116
 4364SOL    HW113628   3.338   2.078   0.132
 4364SOL    HW213629   3.429   2.176   0.203
 4365SOL     OW13630   3.149   2.684   0.032
 4365SOL    HW113631   3.193   2.600   0.043
 4365SOL    HW213632   3.187   2.721  11.052
 4366SOL     OW13633   2.927   3.197   0.853
 4366SOL    HW113634   2.930   3.125   0.791
 4366SOL    HW213635   2.989   3.262   0.819
 4367SOL     OW13636   2.172   2.679   0.943
 4367SOL    HW113637   2.265   2.700   0.934
 4367SOL    HW213638   2.171   2.598   0.995
 4368SOL     OW13639   2.996   2.239   1.681
 4368SOL    HW113640   2.949   2.293   1.744
 4368SOL    HW213641   3.084   2.277   1.678
 4369SOL     OW13642   3.025   2.066   1.470
 4369SOL    HW113643   3.013   2.128   1.541
 4369SOL    HW213644   3.063   2.117   1.399
 4370SOL     OW13645   1.870   3.190   0.195
 4370SOL    HW113646   1.783   3.201   0.156
 4370SOL    HW213647   1.870   3.099   0.226
 4371SOL     OW13648   1.952   3.649   0.938
 4371SOL    HW113649   1.922   3.570   0.894
 4371SOL    HW213650   2.042   3.661   0.907
 4372SOL     OW13651   2.359   3.436   0.906
 4372SOL    HW113652   2.428   3.498   0.930
 4372SOL    HW213653   2.403   3.372   0.849
 4373SOL     OW13654   2.846   2.658   1.226
 4373SOL    HW113655   2.897   2.631   1.303
 4373SOL    HW213656   2.762   2.615   1.238
 4374SOL     OW13657   1.901   2.424   1.118
 4374SOL    HW113658   1.944   2.350   1.074
 4374SOL    HW213659   1.922   2.413   1.211
 4375SOL     OW13660   3.239   2.801   1.659
 4375SOL    HW113661   3.260   2.895   1.657
 4375SOL    HW213662   3.236   2.775   1.566
 4376SOL     OW13663   2.676   2.434   0.367
 4376SOL    HW113664   2.684   2.362   0.304
 4376SOL    HW213665   2.602   2.486   0.335
 4377SOL     OW13666   3.504   2.463   1.186
 4377SOL    HW113667   3.494   2.404   1.261
 4377SOL    HW213668   3.591   2.443   1.152
 4378SOL     OW13669   2.107   3.413   1.728
 4378SOL    HW113670   2.083   3.478   1.795
 4378SOL    HW213671   2.107   3.330   1.774
 4379SOL     OW13672   2.577   2.314   1.254
 4379SOL    HW113673   2.533   2.239   1.214
 4379SOL    HW213674   2.575   2.382   1.187
 4380SOL     OW13675   2.790   3.541   1.467
 4380SOL    HW113676   2.764   3.507   1.382
 4380SOL    HW213677   2.786   3.636   1.457
 4381SOL     OW13678   2.009   3.002   1.474
 4381SOL    HW113679   2.009   2.950   1.554
 4381SOL    HW213680   2.025   2.939   1.403
 4382SOL     OW13681   3.188   2.909   1.223
 4382SOL    HW113682   3.212   2.846   1.155
 4382SOL    HW213683   3.118   2.961   1.184
 4383SOL     OW13684   3.170   2.714   0.310
 4383SOL    HW113685   3.093   2.684   0.358
 4383SOL    HW213686   3.147   2.701   0.217
 4384SOL     OW13687   3.634   3.606   1.151
 4384SOL    HW113688   3.694   3.632   1.080
 4384SOL    HW213689   3.609   3.516   1.129
 4385SOL     OW13690   3.103   3.595   1.114
 4385SOL    HW113691   3.185   3.616   1.068
 4385SOL    HW213692   3.108   3.501   1.132
 4386SOL     OW13693   1.945   3.129   1.013
 4386SOL    HW113694   1.932   3.141   1.106
 4386SOL    HW213695   1.871   3.075   0.984
 4387SOL     OW13696   2.539   3.528   1.728
 4387SOL    HW113697   2.485   3.607   1.724
 4387SOL    HW213698   2.604   3.539   1.659
 4388SOL     OW13699   2.781   1.955   0.109
 4388SOL    HW113700   2.829   1.918   0.035
 4388SOL    HW213701   2.819   1.912   0.186
 4389SOL     OW13702   3.580   2.008   0.510
 4389SOL    HW113703   3.653   1.994   0.449
 4389SOL    HW213704   3.565   1.922   0.550
 4390SOL     OW13705   3.252   3.430   0.485
 4390SOL    HW113706   3.313   3.461   0.419
 4390SOL    HW213707   3.205   3.508   0.513
 4391SOL     OW13708   1.999   3.658   1.843
 4391SOL    HW113709   1.948   3.593   1.891
 4391SOL    HW213710   2.045   3.707   1.910
 4392SOL     OW13711   3.139   2.787   0.671
 4392SOL    HW113712   3.213   2.726   0.676
 4392SOL    HW213713   3.173   2.860   0.619
 4393SOL     OW13714   2.677   3.136   1.430
 4393SOL    HW113715   2.649   3.175   1.513
 4393SOL    HW213716   2.607   3.158   1.368
 4394SOL     OW13717   2.536   3.483   0.168
 4394SOL    HW113718   2.549   3.492   0.073
 4394SOL    HW213719   2.479   3.407   0.177
 4395SOL     OW13720   3.489   3.588   1.391
 4395SOL    HW113721   3.539   3.595   1.310
 4395SOL    HW213722   3.476   3.679   1.419
 4396SOL     OW13723   3.702   2.035   0.967
 4396SOL    HW113724   3.732   1.948   0.940
 4396SOL    HW213725   3.616   2.045   0.927
 4397SOL     OW13726   3.085   3.464   0.052
 4397SOL    HW113727   3.072   3.371   0.073
 4397SOL    HW213728   3.019   3.483  11.085
 4398SOL     OW13729   2.685   2.869   1.373
 4398SOL    HW113730   2.731   2.862   1.289
 4398SOL    HW213731   2.687   2.962   1.393
 4399SOL     OW13732   2.776   2.769   0.281
 4399SOL    HW113733   2.843   2.809   0.225
 4399SOL    HW213734   2.824   2.704   0.333
 4400SOL     OW13735   3.361   3.484   0.047
 4400SOL    HW113736   3.265   3.479   0.044
 4400SOL    HW213737   3.387   3.498  11.056
 4401SOL     OW13738   2.231   3.164   1.491
 4401SOL    HW113739   2.217   3.241   1.436
 4401SOL    HW213740   2.154   3.110   1.476
 4402SOL     OW13741   3.473   3.145   1.281
 4402SOL    HW113742   3.532   3.134   1.355
 4402SOL    HW213743   3.413   3.214   1.308
 4403SOL     OW13744   2.914   2.969   0.706
 4403SOL    HW113745   2.843   2.918   0.746
 4403SOL    HW213746   2.976   2.903   0.675
 4404SOL     OW13747   2.884   2.102   0.966
 4404SOL    HW113748   2.879   2.054   0.883
 4404SOL    HW213749   2.878   2.034   1.033
 4405SOL     OW13750   2.465   3.353   0.482
 4405SOL    HW113751   2.505   3.301   0.412
 4405SOL    HW213752   2.395   3.402   0.438
 4406SOL     OW13753   3.583   2.254   1.380
 4406SOL    HW113754   3.655   2.317   1.379
 4406SOL    HW213755   3.613   2.183   1.324
 4407SOL     OW13756   2.128   3.199   0.291
 4407SOL    HW113757   2.041   3.201   0.253
 4407SOL    HW213758   2.118   3.239   0.378
 4408SOL     OW13759   1.974   2.883   1.720
 4408SOL    HW113760   1.897   2.860   1.772
 4408SOL    HW213761   2.048   2.846   1.769
 4409SOL     OW13762   2.545   2.044   1.498
 4409SOL    HW113763   2.631   2.026   1.461
 4409SOL    HW213764   2.563   2.085   1.582
 4410SOL     OW13765   1.926   2.209   0.071
 4410SOL    HW113766   1.862   2.187   0.003
 4410SOL    HW213767   2.001   2.245   0.024
 4411SOL     OW13768   3.292   2.720   1.401
 4411SOL    HW113769   3.243   2.781   1.345
 4411SOL    HW213770   3.381   2.723   1.366
 4412SOL     OW13771   1.934   2.021   0.309
 4412SOL    HW113772   1.913   2.095   0.252
 4412SOL    HW213773   2.014   1.984   0.271
 4413SOL     OW13774   3.044   3.202   0.122
 4413SOL    HW113775   2.951   3.183   0.115
 4413SOL    HW213776   3.064   3.195   0.215
 4414SOL     OW13777   2.483   2.694   1.429
 4414SOL    HW113778   2.538   2.771   1.416
 4414SOL    HW213779   2.544   2.621   1.438
 4415SOL     OW13780   3.346   3.639   0.978
 4415SOL    HW113781   3.370   3.698   0.907
 4415SOL    HW213782   3.428   3.619   1.022
 4416SOL     OW13783   2.579   2.425   1.703
 4416SOL    HW113784   2.619   2.488   1.763
 4416SOL    HW213785   2.607   2.340   1.737
 4417SOL     OW13786   3.333   3.063   1.632
 4417SOL    HW113787   3.321   3.076   1.726
 4417SOL    HW213788   3.426   3.077   1.618
 4418SOL     OW13789   2.242   3.601   1.564
 4418SOL    HW113790   2.157   3.643   1.550
 4418SOL    HW213791   2.221   3.518   1.606
 4419SOL     OW13792   3.531   2.743   1.256
 4419SOL    HW113793   3.525   2.658   1.213
 4419SOL    HW213794   3.522   2.806   1.184
 4420SOL     OW13795   3.077   2.179   0.460
 4420SOL    HW113796   3.142   2.109   0.450
 4420SOL    HW213797   3.107   2.228   0.536
 4421SOL     OW13798   2.456   2.604   0.656
 4421SOL    HW113799   2.492   2.692   0.646
 4421SOL    HW213800   2.384   2.600   0.593
 4422SOL     OW13801   3.625   2.223   1.650
 4422SOL    HW113802   3.607   2.238   1.557
 4422SOL    HW213803   3.553   2.167   1.679
 4423SOL     OW13804   3.607   2.796   1.512
 4423SOL    HW113805   3.604   2.890   1.525
 4423SOL    HW213806   3.592   2.783   1.419
 4424SOL     OW13807   2.765   3.218   0.067
 4424SOL    HW113808   2.695   3.218   0.133
 4424SOL    HW213809   2.752   3.300   0.020
 4425SOL     OW13810   2.522   3.654   0.946
 4425SOL    HW113811   2.502   3.744   0.922
 4425SOL    HW213812   2.618   3.647   0.938
 4426SOL     OW13813   2.730   2.829   0.855
 4426SOL    HW113814   2.778   2.756   0.895
 4426SOL    HW213815   2.695   2.878   0.930
 4427SOL     OW13816   2.941   2.852   0.085
 4427SOL    HW113817   2.917   2.887  11.099
 4427SOL    HW213818   3.017   2.796   0.068
 4428SOL     OW13819   3.716   3.418   0.845
 4428SOL    HW113820   3.640   3.405   0.790
 4428SOL    HW213821   3.709   3.349   0.911
 4429SOL     OW13822   2.086   3.165   1.856
 4429SOL    HW113823   2.019   3.104   1.825
 4429SOL    HW213824   2.066   3.178   1.948
 4430SOL     OW13825   1.945   3.096   0.666
 4430SOL    HW113826   1.950   3.046   0.747
 4430SOL    HW213827   2.015   3.060   0.611
 4431SOL     OW13828   2.543   3.265   1.627
 4431SOL    HW113829   2.463   3.221   1.658
 4431SOL    HW213830   2.538   3.353   1.665
 4432SOL     OW13831   3.675   2.046   1.238
 4432SOL    HW113832   3.684   1.952   1.252
 4432SOL    HW213833   3.685   2.057   1.143
 4433SOL     OW13834   3.561   3.352   1.098
 4433SOL    HW113835   3.481   3.328   1.051
 4433SOL    HW213836   3.574   3.282   1.162
 4434SOL     OW13837   2.688   3.440   0.678
 4434SOL    HW113838   2.676   3.491   0.598
 4434SOL    HW213839   2.612   3.382   0.682
 4435SOL     OW13840   3.294   2.087   1.118
 4435SOL    HW113841   3.319   2.007   1.164
 4435SOL    HW213842   3.242   2.136   1.181
 4436SOL     OW13843   2.872   1.881   1.142
 4436SOL    HW113844   2.818   1.812   1.103
 4436SOL    HW213845   2.960   1.844   1.144
 4437SOL     OW13846   2.630   3.190   0.315
 4437SOL    HW113847   2.601   3.100   0.329
 4437SOL    HW213848   2.714   3.195   0.361
 4438SOL     OW13849   2.482   3.419   1.285
 4438SOL    HW113850   2.484   3.500   1.335
 4438SOL    HW213851   2.569   3.411   1.247
 4439SOL     OW13852   3.213   1.917   0.164
 4439SOL    HW113853   3.235   1.865   0.087
 4439SOL    HW213854   3.126   1.885   0.190
 4440SOL     OW13855   3.158   2.322   0.681
 4440SOL    HW113856   3.106   2.402   0.689
 4440SOL    HW213857   3.155   2.283   0.768
 4441SOL     OW13858   3.449   2.064   0.878
 4441SOL    HW113859   3.388   2.084   0.949
 4441SOL    HW213860   3.448   2.143   0.823
 4442SOL     OW13861   1.904   2.932   0.302
 4442SOL    HW113862   1.999   2.925   0.295
 4442SOL    HW213863   1.876   2.844   0.328
 4443SOL     OW13864   2.747   3.515   0.347
 4443SOL    HW113865   2.675   3.495   0.287
 4443SOL    HW213866   2.715   3.590   0.399
 4444SOL     OW13867   2.078   2.532   1.989
 4444SOL    HW113868   1.992   2.503   2.019
 4444SOL    HW213869   2.101   2.470   1.919
 4445SOL     OW13870   2.000   2.144   2.938
 4445SOL    HW113871   2.060   2.080   2.977
 4445SOL    HW213872   1.936   2.091   2.890
 4446SOL     OW13873   1.855   2.246   2.491
 4446SOL    HW113874   1.775   2.269   2.538
 4446SOL    HW213875   1.837   2.159   2.455
 4447SOL     OW13876   2.428   3.149   3.037
 4447SOL    HW113877   2.341   3.153   2.998
 4447SOL    HW213878   2.444   3.237   3.070
 4448SOL     OW13879   3.423   3.374   2.569
 4448SOL    HW113880   3.380   3.354   2.652
 4448SOL    HW213881   3.351   3.378   2.505
 4449SOL     OW13882   2.993   2.560   2.561
 4449SOL    HW113883   3.041   2.642   2.551
 4449SOL    HW213884   2.946   2.570   2.644
 4450SOL     OW13885   3.630   2.467   2.091
 4450SOL    HW113886   3.609   2.459   1.998
 4450SOL    HW213887   3.593   2.389   2.131
 4451SOL     OW13888   2.617   3.004   2.901
 4451SOL    HW113889   2.548   3.038   2.958
 4451SOL    HW213890   2.653   3.081   2.858
 4452SOL     OW13891   2.728   2.639   3.684
 4452SOL    HW113892   2.714   2.710   3.746
 4452SOL    HW213893   2.752   2.683   3.602
 4453SOL     OW13894   2.548   2.865   2.509
 4453SOL    HW113895   2.614   2.854   2.578
 4453SOL    HW213896   2.480   2.919   2.550
 4454SOL     OW13897   2.572   3.013   3.673
 4454SOL    HW113898   2.619   3.092   3.700
 4454SOL    HW213899   2.489   3.046   3.639
 4455SOL     OW13900   2.193   3.287   2.930
 4455SOL    HW113901   2.120   3.250   2.880
 4455SOL    HW213902   2.242   3.338   2.865
 4456SOL     OW13903   3.323   3.361   3.216
 4456SOL    HW113904   3.372   3.442   3.225
 4456SOL    HW213905   3.262   3.361   3.289
 4457SOL     OW13906   3.474   2.310   2.602
 4457SOL    HW113907   3.398   2.333   2.549
 4457SOL    HW213908   3.489   2.388   2.656
 4458SOL     OW13909   2.081   3.576   2.335
 4458SOL    HW113910   2.103   3.652   2.388
 4458SOL    HW213911   2.154   3.569   2.272
 4459SOL     OW13912   2.998   3.203   3.554
 4459SOL    HW113913   3.039   3.199   3.641
 4459SOL    HW213914   2.946   3.123   3.548
 4460SOL     OW13915   2.093   3.303   2.397
 4460SOL    HW113916   2.075   3.397   2.401
 4460SOL    HW213917   2.032   3.265   2.460
 4461SOL     OW13918   2.121   2.956   2.753
 4461SOL    HW113919   2.114   2.868   2.790
 4461SOL    HW213920   2.061   3.009   2.805
 4462SOL     OW13921   2.474   3.653   3.292
 4462SOL    HW113922   2.392   3.635   3.338
 4462SOL    HW213923   2.497   3.742   3.317
 4463SOL     OW13924   2.450   2.842   1.991
 4463SOL    HW113925   2.495   2.894   1.925
 4463SOL    HW213926   2.488   2.871   2.074
 4464SOL     OW13927   3.458   1.985   3.330
 4464SOL    HW113928   3.463   2.065   3.279
 4464SOL    HW213929   3.444   2.015   3.420
 4465SOL     OW13930   1.968   2.506   2.422
 4465SOL    HW113931   1.939   2.418   2.446
 4465SOL    HW213932   1.965   2.555   2.504
 4466SOL     OW13933   3.704   3.621   2.197
 4466SOL    HW113934   3.767   3.593   2.263
 4466SOL    HW213935   3.728   3.712   2.178
 4467SOL     OW13936   1.894   3.457   1.986
 4467SOL    HW113937   1.875   3.365   2.006
 4467SOL    HW213938   1.870   3.504   2.065
 4468SOL     OW13939   3.552   2.781   2.503
 4468SOL    HW113940   3.635   2.739   2.483
 4468SOL    HW213941   3.530   2.831   2.424
 4469SOL     OW13942   3.508   2.969   2.291
 4469SOL    HW113943   3.594   2.975   2.249
 4469SOL    HW213944   3.513   3.030   2.365
 4470SOL     OW13945   1.984   2.598   3.445
 4470SOL    HW113946   2.073   2.617   3.475
 4470SOL    HW213947   1.936   2.680   3.461
 4471SOL     OW13948   2.475   3.247   2.597
 4471SOL    HW113949   2.429   3.164   2.607
 4471SOL    HW213950   2.459   3.274   2.507
 4472SOL     OW13951   3.151   3.100   3.286
 4472SOL    HW113952   3.183   3.033   3.225
 4472SOL    HW213953   3.208   3.093   3.362
 4473SOL     OW13954   2.669   1.863   2.366
 4473SOL    HW113955   2.712   1.946   2.349
 4473SOL    HW213956   2.577   1.885   2.375
 4474SOL     OW13957   2.052   2.830   3.133
 4474SOL    HW113958   2.136   2.789   3.112
 4474SOL    HW213959   1.987   2.776   3.088
 4475SOL     OW13960   3.394   2.855   2.060
 4475SOL    HW113961   3.324   2.798   2.092
 4475SOL    HW213962   3.434   2.889   2.140
 4476SOL     OW13963   3.047   3.668   3.484
 4476SOL    HW113964   3.058   3.727   3.409
 4476SOL    HW213965   3.064   3.580   3.448
 4477SOL     OW13966   3.328   3.282   2.814
 4477SOL    HW113967   3.260   3.297   2.879
 4477SOL    HW213968   3.316   3.191   2.787
 4478SOL     OW13969   3.521   3.600   2.440
 4478SOL    HW113970   3.501   3.571   2.351
 4478SOL    HW213971   3.496   3.527   2.496
 4479SOL     OW13972   2.464   2.587   2.131
 4479SOL    HW113973   2.479   2.656   2.066
 4479SOL    HW213974   2.379   2.610   2.170
 4480SOL     OW13975   3.142   2.214   2.794
 4480SOL    HW113976   3.052   2.182   2.803
 4480SOL    HW213977   3.192   2.160   2.856
 4481SOL     OW13978   3.443   3.532   2.171
 4481SOL    HW113979   3.533   3.564   2.164
 4481SOL    HW213980   3.416   3.515   2.081
 4482SOL     OW13981   2.647   2.467   3.309
 4482SOL    HW113982   2.632   2.457   3.403
 4482SOL    HW213983   2.597   2.396   3.269
 4483SOL     OW13984   3.256   2.336   3.540
 4483SOL    HW113985   3.258   2.380   3.625
 4483SOL    HW213986   3.316   2.262   3.549
 4484SOL     OW13987   2.816   2.749   3.443
 4484SOL    HW113988   2.871   2.679   3.407
 4484SOL    HW213989   2.769   2.784   3.368
 4485SOL     OW13990   2.862   2.271   3.099
 4485SOL    HW113991   2.781   2.312   3.132
 4485SOL    HW213992   2.837   2.232   3.016
 4486SOL     OW13993   2.911   2.560   2.288
 4486SOL    HW113994   2.929   2.553   2.382
 4486SOL    HW213995   2.829   2.513   2.276
 4487SOL     OW13996   1.951   2.684   2.636
 4487SOL    HW113997   2.032   2.679   2.686
 4487SOL    HW213998   1.905   2.760   2.671
 4488SOL     OW13999   1.989   3.709   3.439
 4488SOL    HW114000   1.989   3.688   3.533
 4488SOL    HW214001   1.897   3.701   3.413
 4489SOL     OW14002   2.756   2.212   2.059
 4489SOL    HW114003   2.797   2.271   1.996
 4489SOL    HW214004   2.756   2.126   2.016
 4490SOL     OW14005   3.571   2.437   3.690
 4490SOL    HW114006   3.533   2.511   3.642
 4490SOL    HW214007   3.598   2.376   3.621
 4491SOL     OW14008   3.239   3.004   2.403
 4491SOL    HW114009   3.317   2.991   2.351
 4491SOL    HW214010   3.186   3.066   2.353
 4492SOL     OW14011   2.439   2.029   2.733
 4492SOL    HW114012   2.443   2.042   2.828
 4492SOL    HW214013   2.440   2.118   2.697
 4493SOL     OW14014   2.868   3.306   2.334
 4493SOL    HW114015   2.830   3.379   2.285
 4493SOL    HW214016   2.851   3.328   2.426
 4494SOL     OW14017   2.216   3.670   2.723
 4494SOL    HW114018   2.260   3.585   2.731
 4494SOL    HW214019   2.285   3.734   2.742
 4495SOL     OW14020   3.660   2.922   2.730
 4495SOL    HW114021   3.606   2.902   2.654
 4495SOL    HW214022   3.598   2.926   2.803
 4496SOL     OW14023   3.090   3.401   3.375
 4496SOL    HW114024   3.076   3.328   3.435
 4496SOL    HW214025   3.027   3.386   3.304
 4497SOL     OW14026   2.189   2.804   2.117
 4497SOL    HW114027   2.264   2.829   2.063
 4497SOL    HW214028   2.147   2.732   2.070
 4498SOL     OW14029   3.340   2.604   2.588
 4498SOL    HW114030   3.330   2.560   2.673
 4498SOL    HW214031   3.417   2.659   2.599
 4499SOL     OW14032   2.328   3.126   3.599
 4499SOL    HW114033   2.300   3.131   3.508
 4499SOL    HW214034   2.246   3.124   3.649
 4500SOL     OW14035   2.983   3.640   2.093
 4500SOL    HW114036   2.911   3.598   2.139
 4500SOL    HW214037   3.006   3.579   2.023
 4501SOL     OW14038   1.978   2.091   3.359
 4501SOL    HW114039   1.939   2.178   3.367
 4501SOL    HW214040   2.002   2.067   3.448
 4502SOL     OW14041   3.491   3.242   1.949
 4502SOL    HW114042   3.450   3.327   1.935
 4502SOL    HW214043   3.422   3.178   1.931
 4503SOL     OW14044   2.328   3.599   2.183
 4503SOL    HW114045   2.370   3.657   2.247
 4503SOL    HW214046   2.400   3.569   2.127
 4504SOL     OW14047   3.263   1.970   2.294
 4504SOL    HW114048   3.253   1.945   2.203
 4504SOL    HW214049   3.358   1.976   2.307
 4505SOL     OW14050   2.118   3.654   3.094
 4505SOL    HW114051   2.169   3.587   3.140
 4505SOL    HW214052   2.107   3.618   3.006
 4506SOL     OW14053   2.800   3.560   2.761
 4506SOL    HW114054   2.878   3.509   2.782
 4506SOL    HW214055   2.756   3.511   2.692
 4507SOL     OW14056   3.397   2.087   3.588
 4507SOL    HW114057   3.406   2.108   3.680
 4507SOL    HW214058   3.329   2.020   3.585
 4508SOL     OW14059   2.506   1.995   1.960
 4508SOL    HW114060   2.562   1.927   1.996
 4508SOL    HW214061   2.454   1.951   1.893
 4509SOL     OW14062   2.631   2.140   3.617
 4509SOL    HW114063   2.706   2.081   3.616
 4509SOL    HW214064   2.581   2.113   3.695
 4510SOL     OW14065   2.738   3.383   3.056
 4510SOL    HW114066   2.723   3.347   2.968
 4510SOL    HW214067   2.808   3.329   3.092
 4511SOL     OW14068   3.201   2.452   3.295
 4511SOL    HW114069   3.233   2.420   3.379
 4511SOL    HW214070   3.239   2.540   3.287
 4512SOL     OW14071   2.677   3.257   2.801
 4512SOL    HW114072   2.761   3.246   2.757
 4512SOL    HW214073   2.612   3.258   2.730
 4513SOL     OW14074   2.801   2.369   2.773
 4513SOL    HW114075   2.759   2.367   2.687
 4513SOL    HW214076   2.829   2.279   2.788
 4514SOL     OW14077   2.399   1.937   2.363
 4514SOL    HW114078   2.356   1.942   2.449
 4514SOL    HW214079   2.382   2.022   2.323
 4515SOL     OW14080   3.290   3.060   1.903
 4515SOL    HW114081   3.321   2.984   1.953
 4515SOL    HW214082   3.205   3.081   1.941
 4516SOL     OW14083   2.798   2.107   2.320
 4516SOL    HW114084   2.775   2.149   2.237
 4516SOL    HW214085   2.893   2.119   2.328
 4517SOL     OW14086   2.940   2.541   3.319
 4517SOL    HW114087   2.876   2.470   3.328
 4517SOL    HW214088   3.025   2.497   3.313
 4518SOL     OW14089   3.085   3.432   2.656
 4518SOL    HW114090   3.102   3.499   2.589
 4518SOL    HW214091   3.154   3.445   2.721
 4519SOL     OW14092   2.331   3.011   2.595
 4519SOL    HW114093   2.261   2.994   2.658
 4519SOL    HW214094   2.291   2.994   2.509
 4520SOL     OW14095   3.131   3.656   2.470
 4520SOL    HW114096   3.177   3.717   2.412
 4520SOL    HW214097   3.066   3.710   2.514
 4521SOL     OW14098   2.886   2.405   1.884
 4521SOL    HW114099   2.844   2.488   1.865
 4521SOL    HW214100   2.951   2.425   1.951
 4522SOL     OW14101   1.937   2.421   3.249
 4522SOL    HW114102   2.031   2.407   3.244
 4522SOL    HW214103   1.926   2.486   3.318
 4523SOL     OW14104   2.435   2.031   3.004
 4523SOL    HW114105   2.457   1.975   3.079
 4523SOL    HW214106   2.357   2.078   3.032
 4524SOL     OW14107   2.737   2.318   2.500
 4524SOL    HW114108   2.690   2.375   2.439
 4524SOL    HW214109   2.756   2.239   2.450
 4525SOL     OW14110   2.879   1.914   2.613
 4525SOL    HW114111   2.818   1.908   2.539
 4525SOL    HW214112   2.857   1.839   2.669
 4526SOL     OW14113   3.298   3.025   2.719
 4526SOL    HW114114   3.230   2.958   2.718
 4526SOL    HW214115   3.322   3.036   2.627
 4527SOL     OW14116   3.329   2.467   2.839
 4527SOL    HW114117   3.278   2.386   2.842
 4527SOL    HW214118   3.388   2.461   2.914
 4528SOL     OW14119   3.708   2.678   2.244
 4528SOL    HW114120   3.764   2.627   2.303
 4528SOL    HW214121   3.680   2.616   2.178
 4529SOL     OW14122   2.352   3.280   2.020
 4529SOL    HW114123   2.278   3.250   2.072
 4529SOL    HW214124   2.337   3.243   1.933
 4530SOL     OW14125   3.532   3.127   2.508
 4530SOL    HW114126   3.627   3.129   2.522
 4530SOL    HW214127   3.502   3.215   2.529
 4531SOL     OW14128   3.256   2.434   1.934
 4531SOL    HW114129   3.195   2.415   2.005
 4531SOL    HW214130   3.340   2.401   1.965
 4532SOL     OW14131   3.614   3.101   3.436
 4532SOL    HW114132   3.702   3.061   3.432
 4532SOL    HW214133   3.630   3.191   3.465
 4533SOL     OW14134   2.921   3.216   3.196
 4533SOL    HW114135   2.846   3.185   3.247
 4533SOL    HW214136   2.997   3.174   3.237
 4534SOL     OW14137   3.469   3.488   3.516
 4534SOL    HW114138   3.464   3.522   3.426
 4534SOL    HW214139   3.552   3.440   3.518
 4535SOL     OW14140   2.991   3.066   2.968
 4535SOL    HW114141   2.931   3.103   3.033
 4535SOL    HW214142   2.957   3.097   2.884
 4536SOL     OW14143   3.490   2.960   2.940
 4536SOL    HW114144   3.486   3.022   3.013
 4536SOL    HW214145   3.411   2.977   2.889
 4537SOL     OW14146   2.785   1.957   3.260
 4537SOL    HW114147   2.804   1.940   3.168
 4537SOL    HW214148   2.865   1.997   3.295
 4538SOL     OW14149   2.846   2.976   3.584
 4538SOL    HW114150   2.754   2.992   3.605
 4538SOL    HW214151   2.845   2.899   3.528
 4539SOL     OW14152   2.570   2.923   2.233
 4539SOL    HW114153   2.557   2.907   2.326
 4539SOL    HW214154   2.646   2.869   2.209
 4540SOL     OW14155   2.282   2.675   3.112
 4540SOL    HW114156   2.352   2.693   3.175
 4540SOL    HW214157   2.240   2.596   3.146
 4541SOL     OW14158   3.131   2.239   3.138
 4541SOL    HW114159   3.161   2.317   3.183
 4541SOL    HW214160   3.041   2.258   3.113
 4542SOL     OW14161   1.932   3.435   3.215
 4542SOL    HW114162   1.901   3.508   3.160
 4542SOL    HW214163   2.027   3.439   3.209
 4543SOL     OW14164   2.214   2.968   2.350
 4543SOL    HW114165   2.217   3.046   2.294
 4543SOL    HW214166   2.209   2.895   2.288
 4544SOL     OW14167   2.520   2.435   2.706
 4544SOL    HW114168   2.493   2.483   2.628
 4544SOL    HW214169   2.474   2.478   2.778
 4545SOL     OW14170   3.110   3.210   2.251
 4545SOL    HW114171   3.166   3.282   2.282
 4545SOL    HW214172   3.023   3.231   2.285
 4546SOL     OW14173   3.142   3.319   3.009
 4546SOL    HW114174   3.198   3.322   3.087
 4546SOL    HW214175   3.087   3.242   3.020
 4547SOL     OW14176   3.444   2.485   2.340
 4547SOL    HW114177   3.397   2.538   2.405
 4547SOL    HW214178   3.488   2.550   2.285
 4548SOL     OW14179   2.209   3.389   3.177
 4548SOL    HW114180   2.196   3.346   3.093
 4548SOL    HW214181   2.303   3.401   3.184
 4549SOL     OW14182   2.280   2.609   3.462
 4549SOL    HW114183   2.343   2.657   3.408
 4549SOL    HW214184   2.318   2.522   3.472
 4550SOL     OW14185   3.463   2.641   3.544
 4550SOL    HW114186   3.377   2.682   3.536
 4550SOL    HW214187   3.515   2.682   3.475
 4551SOL     OW14188   2.857   1.985   3.615
 4551SOL    HW114189   2.915   2.056   3.587
 4551SOL    HW214190   2.905   1.905   3.591
 4552SOL     OW14191   2.358   1.902   3.609
 4552SOL    HW114192   2.320   1.844   3.543
 4552SOL    HW214193   2.294   1.973   3.619
 4553SOL     OW14194   2.441   2.729   2.888
 4553SOL    HW114195   2.479   2.817   2.883
 4553SOL    HW214196   2.390   2.730   2.969
 4554SOL     OW14197   3.220   2.721   2.892
 4554SOL    HW114198   3.136   2.711   2.846
 4554SOL    HW214199   3.260   2.634   2.887
 4555SOL     OW14200   3.067   2.391   2.129
 4555SOL    HW114201   3.075   2.312   2.183
 4555SOL    HW214202   3.024   2.455   2.186
 4556SOL     OW14203   1.911   3.173   3.138
 4556SOL    HW114204   1.942   3.119   3.211
 4556SOL    HW214205   1.915   3.262   3.171
 4557SOL     OW14206   2.619   2.517   2.961
 4557SOL    HW114207   2.653   2.468   2.886
 4557SOL    HW214208   2.573   2.591   2.922
 4558SOL     OW14209   3.596   2.822   3.714
 4558SOL    HW114210   3.550   2.760   3.657
 4558SOL    HW214211   3.537   2.835   3.788
 4559SOL     OW14212   3.478   2.236   2.229
 4559SOL    HW114213   3.505   2.172   2.295
 4559SOL    HW214214   3.455   2.314   2.279
 4560SOL     OW14215   2.891   2.622   2.822
 4560SOL    HW114216   2.887   2.641   2.916
 4560SOL    HW214217   2.861   2.532   2.814
 4561SOL     OW14218   2.844   3.428   3.579
 4561SOL    HW114219   2.829   3.472   3.495
 4561SOL    HW214220   2.887   3.346   3.555
 4562SOL     OW14221   3.717   3.369   3.468
 4562SOL    HW114222   3.735   3.395   3.377
 4562SOL    HW214223   3.798   3.387   3.514
 4563SOL     OW14224   2.218   2.782   3.667
 4563SOL    HW114225   2.299   2.797   3.716
 4563SOL    HW214226   2.242   2.719   3.599
 4564SOL     OW14227   3.392   2.135   1.989
 4564SOL    HW114228   3.327   2.070   2.016
 4564SOL    HW214229   3.424   2.171   2.072
 4565SOL     OW14230   3.154   2.688   1.893
 4565SOL    HW114231   3.197   2.603   1.897
 4565SOL    HW214232   3.185   2.727   1.812
 4566SOL     OW14233   2.927   3.197   2.715
 4566SOL    HW114234   2.930   3.125   2.653
 4566SOL    HW214235   2.989   3.262   2.681
 4567SOL     OW14236   2.170   2.681   2.806
 4567SOL    HW114237   2.264   2.698   2.803
 4567SOL    HW214238   2.163   2.597   2.853
 4568SOL     OW14239   2.996   2.240   3.542
 4568SOL    HW114240   2.949   2.294   3.606
 4568SOL    HW214241   3.084   2.277   3.539
 4569SOL     OW14242   3.024   2.065   3.332
 4569SOL    HW114243   3.013   2.129   3.403
 4569SOL    HW214244   3.064   2.116   3.261
 4570SOL     OW14245   1.867   3.183   2.056
 4570SOL    HW114246   1.780   3.197   2.019
 4570SOL    HW214247   1.864   3.093   2.091
 4571SOL     OW14248   1.952   3.649   2.800
 4571SOL    HW114249   1.922   3.570   2.756
 4571SOL    HW214250   2.042   3.661   2.769
 4572SOL     OW14251   2.359   3.436   2.768
 4572SOL    HW114252   2.427   3.498   2.792
 4572SOL    HW214253   2.403   3.372   2.712
 4573SOL     OW14254   2.846   2.661   3.089
 4573SOL    HW114255   2.893   2.630   3.166
 4573SOL    HW214256   2.764   2.610   3.089
 4574SOL     OW14257   1.912   2.407   2.974
 4574SOL    HW114258   1.947   2.323   2.945
 4574SOL    HW214259   1.924   2.407   3.069
 4575SOL     OW14260   3.238   2.801   3.521
 4575SOL    HW114261   3.260   2.895   3.519
 4575SOL    HW214262   3.237   2.776   3.428
 4576SOL     OW14263   2.674   2.429   2.224
 4576SOL    HW114264   2.682   2.358   2.161
 4576SOL    HW214265   2.602   2.483   2.191
 4577SOL     OW14266   3.504   2.463   3.049
 4577SOL    HW114267   3.494   2.403   3.123
 4577SOL    HW214268   3.591   2.444   3.014
 4578SOL     OW14269   2.107   3.413   3.590
 4578SOL    HW114270   2.083   3.478   3.657
 4578SOL    HW214271   2.107   3.330   3.636
 4579SOL     OW14272   2.790   3.541   3.329
 4579SOL    HW114273   2.764   3.507   3.244
 4579SOL    HW214274   2.786   3.636   3.319
 4580SOL     OW14275   2.009   3.002   3.336
 4580SOL    HW114276   2.009   2.950   3.416
 4580SOL    HW214277   2.025   2.939   3.266
 4581SOL     OW14278   3.188   2.909   3.085
 4581SOL    HW114279   3.212   2.846   3.018
 4581SOL    HW214280   3.118   2.961   3.046
 4582SOL     OW14281   3.173   2.719   2.168
 4582SOL    HW114282   3.098   2.688   2.219
 4582SOL    HW214283   3.148   2.705   2.077
 4583SOL     OW14284   3.634   3.606   3.013
 4583SOL    HW114285   3.694   3.633   2.942
 4583SOL    HW214286   3.609   3.516   2.991
 4584SOL     OW14287   3.103   3.595   2.976
 4584SOL    HW114288   3.185   3.616   2.930
 4584SOL    HW214289   3.109   3.501   2.994
 4585SOL     OW14290   1.946   3.129   2.874
 4585SOL    HW114291   1.932   3.141   2.968
 4585SOL    HW214292   1.871   3.075   2.846
 4586SOL     OW14293   2.539   3.528   3.590
 4586SOL    HW114294   2.485   3.607   3.586
 4586SOL    HW214295   2.604   3.539   3.521
 4587SOL     OW14296   3.581   2.008   2.372
 4587SOL    HW114297   3.654   1.993   2.312
 4587SOL    HW214298   3.565   1.922   2.412
 4588SOL     OW14299   3.252   3.430   2.346
 4588SOL    HW114300   3.313   3.462   2.280
 4588SOL    HW214301   3.204   3.507   2.375
 4589SOL     OW14302   1.999   3.658   3.705
 4589SOL    HW114303   1.948   3.593   3.753
 4589SOL    HW214304   2.045   3.707   3.772
 4590SOL     OW14305   3.139   2.788   2.534
 4590SOL    HW114306   3.212   2.727   2.540
 4590SOL    HW214307   3.173   2.861   2.481
 4591SOL     OW14308   2.677   3.136   3.292
 4591SOL    HW114309   2.649   3.174   3.375
 4591SOL    HW214310   2.607   3.158   3.230
 4592SOL     OW14311   2.533   3.481   2.017
 4592SOL    HW114312   2.544   3.493   1.923
 4592SOL    HW214313   2.478   3.403   2.026
 4593SOL     OW14314   3.489   3.588   3.253
 4593SOL    HW114315   3.539   3.595   3.172
 4593SOL    HW214316   3.476   3.679   3.281
 4594SOL     OW14317   3.703   2.035   2.830
 4594SOL    HW114318   3.732   1.948   2.802
 4594SOL    HW214319   3.616   2.045   2.789
 4595SOL     OW14320   3.069   3.468   1.894
 4595SOL    HW114321   3.060   3.377   1.920
 4595SOL    HW214322   3.004   3.480   1.824
 4596SOL     OW14323   2.685   2.869   3.235
 4596SOL    HW114324   2.732   2.860   3.153
 4596SOL    HW214325   2.687   2.962   3.254
 4597SOL     OW14326   2.778   2.772   2.151
 4597SOL    HW114327   2.839   2.804   2.086
 4597SOL    HW214328   2.825   2.703   2.197
 4598SOL     OW14329   3.354   3.487   1.904
 4598SOL    HW114330   3.260   3.481   1.891
 4598SOL    HW214331   3.391   3.493   1.816
 4599SOL     OW14332   2.232   3.164   3.353
 4599SOL    HW114333   2.217   3.241   3.299
 4599SOL    HW214334   2.154   3.109   3.338
 4600SOL     OW14335   3.473   3.145   3.143
 4600SOL    HW114336   3.532   3.134   3.217
 4600SOL    HW214337   3.413   3.214   3.170
 4601SOL     OW14338   2.913   2.968   2.568
 4601SOL    HW114339   2.843   2.916   2.608
 4601SOL    HW214340   2.976   2.903   2.537
 4602SOL     OW14341   2.884   2.101   2.828
 4602SOL    HW114342   2.879   2.053   2.746
 4602SOL    HW214343   2.878   2.033   2.896
 4603SOL     OW14344   2.465   3.351   2.344
 4603SOL    HW114345   2.508   3.300   2.275
 4603SOL    HW214346   2.395   3.398   2.298
 4604SOL     OW14347   3.583   2.254   3.242
 4604SOL    HW114348   3.655   2.317   3.241
 4604SOL    HW214349   3.613   2.183   3.186
 4605SOL     OW14350   2.121   3.206   2.151
 4605SOL    HW114351   2.028   3.205   2.128
 4605SOL    HW214352   2.123   3.244   2.239
 4606SOL     OW14353   1.974   2.883   3.581
 4606SOL    HW114354   1.898   2.859   3.634
 4606SOL    HW214355   2.048   2.846   3.629
 4607SOL     OW14356   2.544   2.052   3.354
 4607SOL    HW114357   2.630   2.028   3.321
 4607SOL    HW214358   2.561   2.089   3.440
 4608SOL     OW14359   1.905   2.193   1.907
 4608SOL    HW114360   1.827   2.158   1.865
 4608SOL    HW214361   1.927   2.271   1.857
 4609SOL     OW14362   3.292   2.721   3.263
 4609SOL    HW114363   3.243   2.781   3.207
 4609SOL    HW214364   3.381   2.723   3.228
 4610SOL     OW14365   1.932   2.018   2.169
 4610SOL    HW114366   1.906   2.091   2.113
 4610SOL    HW214367   2.026   2.030   2.183
 4611SOL     OW14368   3.041   3.202   1.979
 4611SOL    HW114369   2.950   3.171   1.982
 4611SOL    HW214370   3.069   3.202   2.070
 4612SOL     OW14371   2.483   2.692   3.292
 4612SOL    HW114372   2.538   2.770   3.279
 4612SOL    HW214373   2.545   2.619   3.297
 4613SOL     OW14374   3.346   3.638   2.840
 4613SOL    HW114375   3.369   3.698   2.769
 4613SOL    HW214376   3.428   3.620   2.884
 4614SOL     OW14377   2.586   2.428   3.566
 4614SOL    HW114378   2.625   2.492   3.626
 4614SOL    HW214379   2.615   2.343   3.600
 4615SOL     OW14380   3.333   3.063   3.494
 4615SOL    HW114381   3.321   3.076   3.588
 4615SOL    HW214382   3.427   3.077   3.479
 4616SOL     OW14383   2.242   3.601   3.426
 4616SOL    HW114384   2.157   3.643   3.412
 4616SOL    HW214385   2.221   3.518   3.468
 4617SOL     OW14386   3.531   2.743   3.118
 4617SOL    HW114387   3.525   2.658   3.075
 4617SOL    HW214388   3.522   2.806   3.046
 4618SOL     OW14389   3.079   2.181   2.320
 4618SOL    HW114390   3.142   2.110   2.312
 4618SOL    HW214391   3.108   2.230   2.397
 4619SOL     OW14392   2.441   2.609   2.515
 4619SOL    HW114393   2.490   2.691   2.508
 4619SOL    HW214394   2.364   2.622   2.460
 4620SOL     OW14395   3.624   2.223   3.512
 4620SOL    HW114396   3.607   2.238   3.419
 4620SOL    HW214397   3.553   2.167   3.541
 4621SOL     OW14398   3.607   2.796   3.374
 4621SOL    HW114399   3.604   2.890   3.387
 4621SOL    HW214400   3.592   2.783   3.281
 4622SOL     OW14401   2.724   3.229   1.895
 4622SOL    HW114402   2.686   3.257   1.979
 4622SOL    HW214403   2.743   3.311   1.849
 4623SOL     OW14404   2.522   3.654   2.807
 4623SOL    HW114405   2.502   3.744   2.784
 4623SOL    HW214406   2.617   3.647   2.800
 4624SOL     OW14407   2.728   2.828   2.717
 4624SOL    HW114408   2.779   2.756   2.755
 4624SOL    HW214409   2.697   2.878   2.793
 4625SOL     OW14410   2.941   2.850   1.950
 4625SOL    HW114411   2.920   2.901   1.872
 4625SOL    HW214412   3.016   2.797   1.925
 4626SOL     OW14413   3.717   3.417   2.707
 4626SOL    HW114414   3.639   3.405   2.652
 4626SOL    HW214415   3.710   3.349   2.773
 4627SOL     OW14416   2.087   3.165   3.718
 4627SOL    HW114417   2.020   3.103   3.688
 4627SOL    HW214418   2.068   3.178   3.811
 4628SOL     OW14419   1.945   3.097   2.527
 4628SOL    HW114420   1.947   3.048   2.609
 4628SOL    HW214421   2.012   3.056   2.473
 4629SOL     OW14422   2.543   3.265   3.489
 4629SOL    HW114423   2.463   3.221   3.520
 4629SOL    HW214424   2.538   3.353   3.527
 4630SOL     OW14425   3.675   2.046   3.100
 4630SOL    HW114426   3.684   1.952   3.114
 4630SOL    HW214427   3.685   2.058   3.006
 4631SOL     OW14428   3.562   3.352   2.960
 4631SOL    HW114429   3.481   3.328   2.913
 4631SOL    HW214430   3.574   3.282   3.024
 4632SOL     OW14431   2.689   3.440   2.540
 4632SOL    HW114432   2.677   3.492   2.460
 4632SOL    HW214433   2.612   3.383   2.543
 4633SOL     OW14434   3.295   2.086   2.980
 4633SOL    HW114435   3.318   2.006   3.026
 4633SOL    HW214436   3.243   2.136   3.043
 4634SOL     OW14437   2.871   1.881   3.005
 4634SOL    HW114438   2.816   1.813   2.965
 4634SOL    HW214439   2.959   1.842   3.007
 4635SOL     OW14440   2.634   3.195   2.176
 4635SOL    HW114441   2.602   3.104   2.182
 4635SOL    HW214442   2.716   3.194   2.225
 4636SOL     OW14443   2.482   3.419   3.147
 4636SOL    HW114444   2.484   3.500   3.197
 4636SOL    HW214445   2.569   3.411   3.109
 4637SOL     OW14446   3.214   1.916   2.027
 4637SOL    HW114447   3.242   1.852   1.961
 4637SOL    HW214448   3.127   1.886   2.054
 4638SOL     OW14449   3.160   2.323   2.543
 4638SOL    HW114450   3.105   2.401   2.550
 4638SOL    HW214451   3.155   2.283   2.630
 4639SOL     OW14452   3.449   2.065   2.740
 4639SOL    HW114453   3.388   2.084   2.810
 4639SOL    HW214454   3.448   2.143   2.684
 4640SOL     OW14455   1.904   2.933   2.169
 4640SOL    HW114456   1.998   2.924   2.152
 4640SOL    HW214457   1.876   2.844   2.191
 4641SOL     OW14458   2.746   3.514   2.205
 4641SOL    HW114459   2.673   3.497   2.145
 4641SOL    HW214460   2.716   3.590   2.256
 4642SOL     OW14461   2.065   2.525   3.846
 4642SOL    HW114462   1.979   2.499   3.880
 4642SOL    HW214463   2.083   2.463   3.776
 4643SOL     OW14464   1.862   2.256   4.345
 4643SOL    HW114465   1.785   2.269   4.400
 4643SOL    HW214466   1.857   2.164   4.318
 4644SOL     OW14467   2.416   3.191   4.925
 4644SOL    HW114468   2.342   3.198   4.864
 4644SOL    HW214469   2.441   3.281   4.943
 4645SOL     OW14470   3.422   3.373   4.430
 4645SOL    HW114471   3.379   3.355   4.514
 4645SOL    HW214472   3.350   3.378   4.367
 4646SOL     OW14473   2.992   2.556   4.436
 4646SOL    HW114474   3.040   2.637   4.421
 4646SOL    HW214475   2.942   2.572   4.516
 4647SOL     OW14476   3.628   2.467   3.953
 4647SOL    HW114477   3.608   2.459   3.860
 4647SOL    HW214478   3.593   2.388   3.993
 4648SOL     OW14479   2.708   2.628   5.551
 4648SOL    HW114480   2.705   2.691   5.623
 4648SOL    HW214481   2.747   2.676   5.478
 4649SOL     OW14482   2.552   2.876   4.375
 4649SOL    HW114483   2.601   2.864   4.457
 4649SOL    HW214484   2.473   2.924   4.401
 4650SOL     OW14485   2.588   3.011   5.522
 4650SOL    HW114486   2.626   3.093   5.554
 4650SOL    HW214487   2.495   3.030   5.509
 4651SOL     OW14488   2.186   3.297   4.787
 4651SOL    HW114489   2.114   3.264   4.734
 4651SOL    HW214490   2.241   3.345   4.725
 4652SOL     OW14491   3.323   3.361   5.077
 4652SOL    HW114492   3.372   3.443   5.088
 4652SOL    HW214493   3.262   3.361   5.152
 4653SOL     OW14494   3.475   2.310   4.463
 4653SOL    HW114495   3.399   2.333   4.409
 4653SOL    HW214496   3.491   2.388   4.516
 4654SOL     OW14497   2.082   3.576   4.197
 4654SOL    HW114498   2.103   3.652   4.250
 4654SOL    HW214499   2.154   3.569   4.134
 4655SOL     OW14500   2.995   3.199   5.417
 4655SOL    HW114501   3.034   3.194   5.504
 4655SOL    HW214502   2.946   3.118   5.407
 4656SOL     OW14503   2.093   3.304   4.259
 4656SOL    HW114504   2.076   3.398   4.262
 4656SOL    HW214505   2.031   3.266   4.322
 4657SOL     OW14506   2.105   2.949   4.596
 4657SOL    HW114507   2.109   2.864   4.639
 4657SOL    HW214508   2.029   2.992   4.636
 4658SOL     OW14509   2.476   3.657   5.160
 4658SOL    HW114510   2.393   3.639   5.203
 4658SOL    HW214511   2.496   3.748   5.184
 4659SOL     OW14512   2.448   2.841   3.855
 4659SOL    HW114513   2.493   2.892   3.788
 4659SOL    HW214514   2.487   2.871   3.938
 4660SOL     OW14515   3.454   1.989   5.190
 4660SOL    HW114516   3.472   2.071   5.144
 4660SOL    HW214517   3.443   2.014   5.281
 4661SOL     OW14518   1.984   2.508   4.286
 4661SOL    HW114519   1.947   2.421   4.302
 4661SOL    HW214520   1.969   2.556   4.367
 4662SOL     OW14521   3.704   3.621   4.059
 4662SOL    HW114522   3.767   3.593   4.125
 4662SOL    HW214523   3.728   3.712   4.040
 4663SOL     OW14524   1.894   3.457   3.848
 4663SOL    HW114525   1.875   3.365   3.868
 4663SOL    HW214526   1.870   3.504   3.927
 4664SOL     OW14527   3.550   2.779   4.364
 4664SOL    HW114528   3.635   2.739   4.347
 4664SOL    HW214529   3.530   2.829   4.285
 4665SOL     OW14530   3.508   2.969   4.154
 4665SOL    HW114531   3.593   2.975   4.111
 4665SOL    HW214532   3.513   3.030   4.227
 4666SOL     OW14533   2.476   3.245   4.460
 4666SOL    HW114534   2.428   3.163   4.468
 4666SOL    HW214535   2.460   3.273   4.369
 4667SOL     OW14536   3.153   3.101   5.149
 4667SOL    HW114537   3.184   3.033   5.089
 4667SOL    HW214538   3.209   3.093   5.225
 4668SOL     OW14539   2.671   1.861   4.223
 4668SOL    HW114540   2.714   1.946   4.210
 4668SOL    HW214541   2.579   1.883   4.238
 4669SOL     OW14542   3.394   2.855   3.922
 4669SOL    HW114543   3.324   2.798   3.954
 4669SOL    HW214544   3.434   2.890   4.002
 4670SOL     OW14545   3.047   3.668   5.346
 4670SOL    HW114546   3.058   3.726   5.271
 4670SOL    HW214547   3.063   3.580   5.311
 4671SOL     OW14548   3.329   3.282   4.677
 4671SOL    HW114549   3.261   3.297   4.742
 4671SOL    HW214550   3.317   3.191   4.649
 4672SOL     OW14551   3.521   3.600   4.302
 4672SOL    HW114552   3.501   3.571   4.213
 4672SOL    HW214553   3.496   3.526   4.358
 4673SOL     OW14554   2.462   2.585   3.992
 4673SOL    HW114555   2.463   2.660   3.933
 4673SOL    HW214556   2.388   2.601   4.050
 4674SOL     OW14557   3.163   2.198   4.644
 4674SOL    HW114558   3.073   2.165   4.645
 4674SOL    HW214559   3.205   2.153   4.717
 4675SOL     OW14560   3.443   3.532   4.033
 4675SOL    HW114561   3.533   3.564   4.026
 4675SOL    HW214562   3.416   3.515   3.943
 4676SOL     OW14563   3.277   2.349   5.393
 4676SOL    HW114564   3.252   2.380   5.479
 4676SOL    HW214565   3.315   2.262   5.409
 4677SOL     OW14566   2.911   2.559   4.152
 4677SOL    HW114567   2.927   2.547   4.246
 4677SOL    HW214568   2.829   2.513   4.135
 4678SOL     OW14569   1.949   2.681   4.501
 4678SOL    HW114570   2.031   2.676   4.551
 4678SOL    HW214571   1.906   2.759   4.535
 4679SOL     OW14572   1.990   3.712   5.302
 4679SOL    HW114573   1.989   3.690   5.395
 4679SOL    HW214574   1.899   3.699   5.274
 4680SOL     OW14575   2.754   2.212   3.920
 4680SOL    HW114576   2.796   2.271   3.857
 4680SOL    HW214577   2.764   2.125   3.880
 4681SOL     OW14578   3.568   2.436   5.553
 4681SOL    HW114579   3.532   2.512   5.506
 4681SOL    HW214580   3.593   2.375   5.484
 4682SOL     OW14581   3.236   3.002   4.265
 4682SOL    HW114582   3.316   2.990   4.214
 4682SOL    HW214583   3.186   3.066   4.214
 4683SOL     OW14584   2.867   3.306   4.197
 4683SOL    HW114585   2.830   3.379   4.147
 4683SOL    HW214586   2.851   3.330   4.289
 4684SOL     OW14587   2.217   3.670   4.585
 4684SOL    HW114588   2.261   3.585   4.593
 4684SOL    HW214589   2.285   3.734   4.604
 4685SOL     OW14590   3.660   2.921   4.592
 4685SOL    HW114591   3.604   2.903   4.516
 4685SOL    HW214592   3.599   2.925   4.666
 4686SOL     OW14593   3.089   3.400   5.238
 4686SOL    HW114594   3.076   3.326   5.298
 4686SOL    HW214595   3.026   3.385   5.167
 4687SOL     OW14596   2.179   2.816   3.972
 4687SOL    HW114597   2.261   2.833   3.925
 4687SOL    HW214598   2.145   2.736   3.933
 4688SOL     OW14599   3.337   2.607   4.454
 4688SOL    HW114600   3.333   2.560   4.538
 4688SOL    HW214601   3.417   2.659   4.460
 4689SOL     OW14602   2.332   3.142   5.472
 4689SOL    HW114603   2.302   3.147   5.381
 4689SOL    HW214604   2.252   3.129   5.523
 4690SOL     OW14605   2.983   3.640   3.955
 4690SOL    HW114606   2.911   3.598   4.001
 4690SOL    HW214607   3.006   3.579   3.885
 4691SOL     OW14608   1.978   2.104   5.235
 4691SOL    HW114609   2.013   2.187   5.201
 4691SOL    HW214610   2.045   2.073   5.295
 4692SOL     OW14611   3.491   3.242   3.812
 4692SOL    HW114612   3.450   3.327   3.797
 4692SOL    HW214613   3.422   3.178   3.792
 4693SOL     OW14614   2.328   3.599   4.045
 4693SOL    HW114615   2.370   3.657   4.109
 4693SOL    HW214616   2.400   3.569   3.990
 4694SOL     OW14617   3.263   1.972   4.155
 4694SOL    HW114618   3.252   1.945   4.064
 4694SOL    HW214619   3.358   1.974   4.169
 4695SOL     OW14620   2.117   3.655   4.956
 4695SOL    HW114621   2.164   3.587   5.005
 4695SOL    HW214622   2.107   3.618   4.868
 4696SOL     OW14623   2.799   3.563   4.623
 4696SOL    HW114624   2.872   3.508   4.651
 4696SOL    HW214625   2.754   3.512   4.555
 4697SOL     OW14626   2.251   2.563   4.188
 4697SOL    HW114627   2.265   2.475   4.154
 4697SOL    HW214628   2.160   2.563   4.217
 4698SOL     OW14629   3.398   2.086   5.450
 4698SOL    HW114630   3.406   2.108   5.542
 4698SOL    HW214631   3.326   2.022   5.447
 4699SOL     OW14632   2.493   1.995   3.825
 4699SOL    HW114633   2.555   1.930   3.858
 4699SOL    HW214634   2.451   1.951   3.750
 4700SOL     OW14635   2.634   2.125   5.485
 4700SOL    HW114636   2.709   2.102   5.540
 4700SOL    HW214637   2.569   2.159   5.546
 4701SOL     OW14638   2.738   3.388   4.919
 4701SOL    HW114639   2.717   3.351   4.833
 4701SOL    HW214640   2.804   3.328   4.955
 4702SOL     OW14641   3.230   2.443   5.134
 4702SOL    HW114642   3.234   2.407   5.222
 4702SOL    HW214643   3.243   2.537   5.145
 4703SOL     OW14644   2.678   3.274   4.668
 4703SOL    HW114645   2.760   3.247   4.626
 4703SOL    HW214646   2.611   3.255   4.602
 4704SOL     OW14647   2.405   1.932   4.224
 4704SOL    HW114648   2.327   1.925   4.280
 4704SOL    HW214649   2.402   2.021   4.189
 4705SOL     OW14650   3.290   3.060   3.765
 4705SOL    HW114651   3.321   2.985   3.815
 4705SOL    HW214652   3.205   3.081   3.802
 4706SOL     OW14653   2.159   1.904   3.902
 4706SOL    HW114654   2.226   1.966   3.873
 4706SOL    HW214655   2.208   1.835   3.947
 4707SOL     OW14656   2.795   2.109   4.185
 4707SOL    HW114657   2.776   2.151   4.101
 4707SOL    HW214658   2.891   2.116   4.193
 4708SOL     OW14659   3.088   3.428   4.516
 4708SOL    HW114660   3.102   3.497   4.451
 4708SOL    HW214661   3.153   3.446   4.584
 4709SOL     OW14662   2.329   3.009   4.453
 4709SOL    HW114663   2.259   2.992   4.516
 4709SOL    HW214664   2.288   2.995   4.368
 4710SOL     OW14665   3.131   3.656   4.332
 4710SOL    HW114666   3.177   3.717   4.274
 4710SOL    HW214667   3.065   3.709   4.376
 4711SOL     OW14668   2.886   2.405   3.746
 4711SOL    HW114669   2.845   2.489   3.727
 4711SOL    HW214670   2.951   2.424   3.813
 4712SOL     OW14671   2.728   2.325   4.364
 4712SOL    HW114672   2.688   2.376   4.293
 4712SOL    HW214673   2.753   2.242   4.323
 4713SOL     OW14674   2.903   1.900   4.440
 4713SOL    HW114675   2.820   1.907   4.393
 4713SOL    HW214676   2.884   1.840   4.512
 4714SOL     OW14677   3.300   3.025   4.582
 4714SOL    HW114678   3.231   2.959   4.579
 4714SOL    HW214679   3.325   3.037   4.490
 4715SOL     OW14680   3.327   2.467   4.701
 4715SOL    HW114681   3.284   2.381   4.701
 4715SOL    HW214682   3.387   2.463   4.775
 4716SOL     OW14683   3.708   2.678   4.106
 4716SOL    HW114684   3.764   2.627   4.165
 4716SOL    HW214685   3.679   2.616   4.040
 4717SOL     OW14686   2.353   3.279   3.881
 4717SOL    HW114687   2.278   3.250   3.934
 4717SOL    HW214688   2.337   3.243   3.794
 4718SOL     OW14689   3.531   3.126   4.371
 4718SOL    HW114690   3.626   3.129   4.384
 4718SOL    HW214691   3.501   3.215   4.391
 4719SOL     OW14692   3.256   2.434   3.796
 4719SOL    HW114693   3.195   2.414   3.867
 4719SOL    HW214694   3.340   2.400   3.826
 4720SOL     OW14695   3.614   3.101   5.297
 4720SOL    HW114696   3.701   3.061   5.295
 4720SOL    HW214697   3.630   3.190   5.326
 4721SOL     OW14698   2.925   3.214   5.053
 4721SOL    HW114699   2.847   3.185   5.100
 4721SOL    HW214700   2.998   3.173   5.099
 4722SOL     OW14701   3.469   3.488   5.378
 4722SOL    HW114702   3.464   3.522   5.288
 4722SOL    HW214703   3.552   3.440   5.381
 4723SOL     OW14704   2.982   3.057   4.828
 4723SOL    HW114705   2.932   3.102   4.896
 4723SOL    HW214706   2.954   3.100   4.747
 4724SOL     OW14707   3.490   2.960   4.802
 4724SOL    HW114708   3.486   3.022   4.875
 4724SOL    HW214709   3.411   2.979   4.751
 4725SOL     OW14710   2.844   2.961   5.433
 4725SOL    HW114711   2.754   2.982   5.459
 4725SOL    HW214712   2.835   2.893   5.367
 4726SOL     OW14713   2.571   2.924   4.094
 4726SOL    HW114714   2.558   2.909   4.187
 4726SOL    HW214715   2.646   2.870   4.071
 4727SOL     OW14716   1.927   3.430   5.077
 4727SOL    HW114717   1.900   3.499   5.017
 4727SOL    HW214718   2.022   3.424   5.066
 4728SOL     OW14719   2.214   2.970   4.211
 4728SOL    HW114720   2.215   3.043   4.150
 4728SOL    HW214721   2.208   2.892   4.155
 4729SOL     OW14722   3.109   3.210   4.114
 4729SOL    HW114723   3.166   3.282   4.144
 4729SOL    HW214724   3.022   3.233   4.148
 4730SOL     OW14725   3.143   3.319   4.871
 4730SOL    HW114726   3.200   3.324   4.948
 4730SOL    HW214727   3.081   3.250   4.892
 4731SOL     OW14728   3.444   2.486   4.203
 4731SOL    HW114729   3.397   2.542   4.265
 4731SOL    HW214730   3.490   2.547   4.146
 4732SOL     OW14731   2.206   3.390   5.039
 4732SOL    HW114732   2.196   3.349   4.954
 4732SOL    HW214733   2.300   3.407   5.046
 4733SOL     OW14734   3.466   2.645   5.410
 4733SOL    HW114735   3.377   2.677   5.398
 4733SOL    HW214736   3.516   2.685   5.338
 4734SOL     OW14737   3.220   2.719   4.758
 4734SOL    HW114738   3.142   2.709   4.704
 4734SOL    HW214739   3.264   2.634   4.754
 4735SOL     OW14740   3.066   2.391   3.990
 4735SOL    HW114741   3.075   2.312   4.044
 4735SOL    HW214742   3.024   2.455   4.048
 4736SOL     OW14743   2.568   2.487   4.744
 4736SOL    HW114744   2.623   2.460   4.670
 4736SOL    HW214745   2.589   2.580   4.757
 4737SOL     OW14746   3.598   2.823   5.577
 4737SOL    HW114747   3.552   2.761   5.520
 4737SOL    HW214748   3.538   2.837   5.650
 4738SOL     OW14749   2.160   1.928   4.357
 4738SOL    HW114750   2.126   2.012   4.388
 4738SOL    HW214751   2.173   1.876   4.436
 4739SOL     OW14752   3.480   2.237   4.091
 4739SOL    HW114753   3.505   2.171   4.156
 4739SOL    HW214754   3.456   2.314   4.142
 4740SOL     OW14755   2.843   3.425   5.439
 4740SOL    HW114756   2.828   3.470   5.356
 4740SOL    HW214757   2.889   3.345   5.414
 4741SOL     OW14758   3.717   3.369   5.330
 4741SOL    HW114759   3.735   3.395   5.239
 4741SOL    HW214760   3.798   3.387   5.377
 4742SOL     OW14761   3.391   2.136   3.851
 4742SOL    HW114762   3.326   2.070   3.878
 4742SOL    HW214763   3.424   2.171   3.934
 4743SOL     OW14764   3.154   2.688   3.756
 4743SOL    HW114765   3.197   2.603   3.759
 4743SOL    HW214766   3.185   2.728   3.674
 4744SOL     OW14767   2.927   3.198   4.581
 4744SOL    HW114768   2.932   3.125   4.518
 4744SOL    HW214769   2.987   3.264   4.546
 4745SOL     OW14770   2.176   2.681   4.672
 4745SOL    HW114771   2.266   2.708   4.656
 4745SOL    HW214772   2.184   2.596   4.716
 4746SOL     OW14773   1.867   3.183   3.919
 4746SOL    HW114774   1.781   3.197   3.881
 4746SOL    HW214775   1.864   3.093   3.953
 4747SOL     OW14776   1.952   3.649   4.662
 4747SOL    HW114777   1.922   3.570   4.618
 4747SOL    HW214778   2.042   3.661   4.631
 4748SOL     OW14779   2.361   3.435   4.630
 4748SOL    HW114780   2.429   3.498   4.655
 4748SOL    HW214781   2.406   3.371   4.575
 4749SOL     OW14782   1.920   2.347   4.822
 4749SOL    HW114783   2.007   2.344   4.782
 4749SOL    HW214784   1.934   2.389   4.907
 4750SOL     OW14785   3.236   2.802   5.381
 4750SOL    HW114786   3.258   2.896   5.380
 4750SOL    HW214787   3.240   2.776   5.289
 4751SOL     OW14788   2.676   2.431   4.084
 4751SOL    HW114789   2.682   2.357   4.024
 4751SOL    HW214790   2.602   2.482   4.052
 4752SOL     OW14791   3.503   2.467   4.908
 4752SOL    HW114792   3.487   2.413   4.985
 4752SOL    HW214793   3.591   2.441   4.878
 4753SOL     OW14794   2.106   3.414   5.450
 4753SOL    HW114795   2.083   3.476   5.520
 4753SOL    HW214796   2.111   3.329   5.494
 4754SOL     OW14797   2.549   2.327   4.961
 4754SOL    HW114798   2.497   2.256   4.924
 4754SOL    HW214799   2.554   2.392   4.891
 4755SOL     OW14800   2.790   3.542   5.192
 4755SOL    HW114801   2.766   3.506   5.107
 4755SOL    HW214802   2.785   3.636   5.180
 4756SOL     OW14803   3.185   2.910   4.947
 4756SOL    HW114804   3.210   2.847   4.879
 4756SOL    HW214805   3.115   2.962   4.906
 4757SOL     OW14806   3.172   2.719   4.030
 4757SOL    HW114807   3.096   2.687   4.079
 4757SOL    HW214808   3.149   2.705   3.939
 4758SOL     OW14809   3.634   3.606   4.874
 4758SOL    HW114810   3.694   3.633   4.804
 4758SOL    HW214811   3.609   3.516   4.853
 4759SOL     OW14812   3.103   3.595   4.837
 4759SOL    HW114813   3.185   3.616   4.792
 4759SOL    HW214814   3.109   3.501   4.856
 4760SOL     OW14815   1.941   3.147   4.723
 4760SOL    HW114816   1.921   3.132   4.815
 4760SOL    HW214817   1.872   3.100   4.676
 4761SOL     OW14818   2.541   3.530   5.455
 4761SOL    HW114819   2.486   3.608   5.446
 4761SOL    HW214820   2.605   3.538   5.384
 4762SOL     OW14821   3.581   2.008   4.234
 4762SOL    HW114822   3.654   1.993   4.174
 4762SOL    HW214823   3.565   1.922   4.274
 4763SOL     OW14824   3.252   3.430   4.208
 4763SOL    HW114825   3.313   3.462   4.141
 4763SOL    HW214826   3.204   3.507   4.237
 4764SOL     OW14827   1.998   3.659   5.567
 4764SOL    HW114828   1.947   3.594   5.615
 4764SOL    HW214829   2.045   3.708   5.635
 4765SOL     OW14830   3.137   2.786   4.396
 4765SOL    HW114831   3.210   2.725   4.404
 4765SOL    HW214832   3.171   2.858   4.342
 4766SOL     OW14833   2.685   3.145   5.150
 4766SOL    HW114834   2.651   3.178   5.233
 4766SOL    HW214835   2.609   3.149   5.091
 4767SOL     OW14836   2.533   3.481   3.879
 4767SOL    HW114837   2.544   3.493   3.785
 4767SOL    HW214838   2.478   3.403   3.888
 4768SOL     OW14839   3.489   3.588   5.115
 4768SOL    HW114840   3.539   3.596   5.034
 4768SOL    HW214841   3.476   3.679   5.143
 4769SOL     OW14842   3.704   2.035   4.691
 4769SOL    HW114843   3.732   1.948   4.663
 4769SOL    HW214844   3.617   2.046   4.652
 4770SOL     OW14845   3.069   3.468   3.755
 4770SOL    HW114846   3.060   3.377   3.782
 4770SOL    HW214847   3.004   3.480   3.686
 4771SOL     OW14848   2.780   2.775   4.018
 4771SOL    HW114849   2.840   2.805   3.949
 4771SOL    HW214850   2.826   2.702   4.059
 4772SOL     OW14851   3.354   3.487   3.766
 4772SOL    HW114852   3.260   3.481   3.753
 4772SOL    HW214853   3.391   3.493   3.678
 4773SOL     OW14854   2.219   3.180   5.229
 4773SOL    HW114855   2.219   3.257   5.171
 4773SOL    HW214856   2.143   3.129   5.200
 4774SOL     OW14857   3.473   3.145   5.005
 4774SOL    HW114858   3.531   3.133   5.080
 4774SOL    HW214859   3.413   3.214   5.032
 4775SOL     OW14860   2.915   2.964   4.436
 4775SOL    HW114861   2.840   2.905   4.443
 4775SOL    HW214862   2.985   2.910   4.399
 4776SOL     OW14863   2.464   3.350   4.205
 4776SOL    HW114864   2.508   3.300   4.136
 4776SOL    HW214865   2.395   3.398   4.161
 4777SOL     OW14866   3.585   2.251   5.104
 4777SOL    HW114867   3.654   2.317   5.102
 4777SOL    HW214868   3.616   2.181   5.047
 4778SOL     OW14869   2.121   3.207   4.013
 4778SOL    HW114870   2.029   3.205   3.990
 4778SOL    HW214871   2.123   3.244   4.101
 4779SOL     OW14872   1.962   2.916   5.503
 4779SOL    HW114873   1.919   2.838   5.537
 4779SOL    HW214874   2.046   2.885   5.470
 4780SOL     OW14875   1.920   2.199   3.779
 4780SOL    HW114876   1.839   2.177   3.733
 4780SOL    HW214877   1.965   2.260   3.720
 4781SOL     OW14878   3.292   2.729   5.127
 4781SOL    HW114879   3.247   2.789   5.068
 4781SOL    HW214880   3.381   2.723   5.091
 4782SOL     OW14881   1.934   2.018   4.032
 4782SOL    HW114882   1.913   2.094   3.977
 4782SOL    HW214883   2.015   1.984   3.995
 4783SOL     OW14884   3.041   3.202   3.841
 4783SOL    HW114885   2.950   3.172   3.844
 4783SOL    HW214886   3.069   3.202   3.933
 4784SOL     OW14887   3.346   3.638   4.702
 4784SOL    HW114888   3.369   3.698   4.631
 4784SOL    HW214889   3.429   3.620   4.746
 4785SOL     OW14890   2.562   2.417   5.460
 4785SOL    HW114891   2.610   2.490   5.498
 4785SOL    HW214892   2.628   2.349   5.446
 4786SOL     OW14893   3.333   3.064   5.357
 4786SOL    HW114894   3.321   3.076   5.451
 4786SOL    HW214895   3.427   3.077   5.343
 4787SOL     OW14896   2.242   3.602   5.288
 4787SOL    HW114897   2.157   3.643   5.274
 4787SOL    HW214898   2.221   3.518   5.330
 4788SOL     OW14899   3.532   2.743   4.979
 4788SOL    HW114900   3.525   2.657   4.938
 4788SOL    HW214901   3.522   2.805   4.907
 4789SOL     OW14902   3.080   2.183   4.179
 4789SOL    HW114903   3.141   2.109   4.172
 4789SOL    HW214904   3.110   2.230   4.257
 4790SOL     OW14905   2.445   2.616   4.388
 4790SOL    HW114906   2.488   2.698   4.361
 4790SOL    HW214907   2.379   2.601   4.320
 4791SOL     OW14908   3.625   2.221   5.374
 4791SOL    HW114909   3.607   2.239   5.282
 4791SOL    HW214910   3.551   2.167   5.403
 4792SOL     OW14911   3.610   2.796   5.235
 4792SOL    HW114912   3.603   2.890   5.248
 4792SOL    HW214913   3.592   2.783   5.142
 4793SOL     OW14914   2.725   3.229   3.757
 4793SOL    HW114915   2.686   3.257   3.840
 4793SOL    HW214916   2.743   3.311   3.711
 4794SOL     OW14917   2.522   3.654   4.669
 4794SOL    HW114918   2.503   3.745   4.645
 4794SOL    HW214919   2.617   3.647   4.662
 4795SOL     OW14920   2.940   2.849   3.812
 4795SOL    HW114921   2.919   2.900   3.735
 4795SOL    HW214922   3.016   2.796   3.787
 4796SOL     OW14923   3.717   3.417   4.569
 4796SOL    HW114924   3.639   3.405   4.514
 4796SOL    HW214925   3.709   3.349   4.636
 4797SOL     OW14926   2.082   3.164   5.580
 4797SOL    HW114927   2.022   3.093   5.555
 4797SOL    HW214928   2.052   3.192   5.666
 4798SOL     OW14929   1.944   3.097   4.383
 4798SOL    HW114930   1.943   3.040   4.459
 4798SOL    HW214931   2.014   3.061   4.327
 4799SOL     OW14932   2.542   3.268   5.347
 4799SOL    HW114933   2.471   3.219   5.389
 4799SOL    HW214934   2.537   3.355   5.386
 4800SOL     OW14935   3.676   2.044   4.961
 4800SOL    HW114936   3.684   1.950   4.975
 4800SOL    HW214937   3.686   2.056   4.867
 4801SOL     OW14938   3.562   3.352   4.822
 4801SOL    HW114939   3.482   3.328   4.775
 4801SOL    HW214940   3.574   3.282   4.886
 4802SOL     OW14941   2.691   3.440   4.400
 4802SOL    HW114942   2.673   3.490   4.319
 4802SOL    HW214943   2.615   3.383   4.409
 4803SOL     OW14944   3.292   2.087   4.852
 4803SOL    HW114945   3.318   1.999   4.880
 4803SOL    HW214946   3.271   2.133   4.933
 4804SOL     OW14947   2.634   3.195   4.037
 4804SOL    HW114948   2.602   3.105   4.042
 4804SOL    HW214949   2.715   3.196   4.087
 4805SOL     OW14950   2.481   3.439   5.002
 4805SOL    HW114951   2.487   3.517   5.058
 4805SOL    HW214952   2.571   3.425   4.971
 4806SOL     OW14953   3.214   1.915   3.888
 4806SOL    HW114954   3.242   1.851   3.823
 4806SOL    HW214955   3.127   1.886   3.915
 4807SOL     OW14956   3.164   2.324   4.401
 4807SOL    HW114957   3.107   2.400   4.415
 4807SOL    HW214958   3.164   2.279   4.486
 4808SOL     OW14959   3.452   2.066   4.601
 4808SOL    HW114960   3.382   2.084   4.664
 4808SOL    HW214961   3.452   2.142   4.543
 4809SOL     OW14962   1.906   2.932   4.031
 4809SOL    HW114963   1.999   2.922   4.010
 4809SOL    HW214964   1.877   2.844   4.054
 4810SOL     OW14965   2.746   3.514   4.066
 4810SOL    HW114966   2.673   3.497   4.006
 4810SOL    HW214967   2.717   3.589   4.118
 4811SOL     OW14968   2.056   2.527   5.659
 4811SOL    HW114969   2.006   2.483   5.728
 4811SOL    HW214970   2.124   2.464   5.636
 4812SOL     OW14971   2.416   3.157   6.767
 4812SOL    HW114972   2.330   3.164   6.726
 4812SOL    HW214973   2.434   3.245   6.800
 4813SOL     OW14974   3.423   3.374   6.293
 4813SOL    HW114975   3.380   3.353   6.376
 4813SOL    HW214976   3.352   3.378   6.229
 4814SOL     OW14977   3.038   2.564   6.357
 4814SOL    HW114978   3.066   2.638   6.303
 4814SOL    HW214979   2.964   2.598   6.408
 4815SOL     OW14980   3.634   2.467   5.813
 4815SOL    HW114981   3.611   2.459   5.721
 4815SOL    HW214982   3.593   2.392   5.855
 4816SOL     OW14983   2.618   3.019   6.661
 4816SOL    HW114984   2.542   3.056   6.707
 4816SOL    HW214985   2.649   3.090   6.606
 4817SOL     OW14986   2.727   2.638   7.407
 4817SOL    HW114987   2.715   2.708   7.472
 4817SOL    HW214988   2.752   2.683   7.327
 4818SOL     OW14989   2.572   3.013   7.397
 4818SOL    HW114990   2.620   3.092   7.424
 4818SOL    HW214991   2.489   3.046   7.362
 4819SOL     OW14992   2.190   3.289   6.653
 4819SOL    HW114993   2.116   3.253   6.604
 4819SOL    HW214994   2.240   3.339   6.589
 4820SOL     OW14995   3.323   3.361   6.940
 4820SOL    HW114996   3.372   3.442   6.949
 4820SOL    HW214997   3.262   3.361   7.014
 4821SOL     OW14998   3.486   2.311   6.329
 4821SOL    HW114999   3.397   2.323   6.294
 4821SOL    HW215000   3.500   2.388   6.384
 4822SOL     OW15001   2.085   3.571   6.060
 4822SOL    HW115002   2.104   3.649   6.113
 4822SOL    HW215003   2.155   3.569   5.995
 4823SOL     OW15004   2.998   3.204   7.279
 4823SOL    HW115005   3.039   3.199   7.365
 4823SOL    HW215006   2.946   3.124   7.272
 4824SOL     OW15007   2.086   3.300   6.125
 4824SOL    HW115008   2.079   3.396   6.121
 4824SOL    HW215009   2.026   3.275   6.195
 4825SOL     OW15010   2.095   2.970   6.479
 4825SOL    HW115011   2.100   2.883   6.518
 4825SOL    HW215012   2.048   3.022   6.544
 4826SOL     OW15013   2.474   3.653   7.015
 4826SOL    HW115014   2.392   3.635   7.062
 4826SOL    HW215015   2.497   3.742   7.041
 4827SOL     OW15016   3.457   1.985   7.054
 4827SOL    HW115017   3.465   2.066   7.003
 4827SOL    HW215018   3.444   2.015   7.144
 4828SOL     OW15019   2.040   2.478   6.217
 4828SOL    HW115020   1.992   2.418   6.160
 4828SOL    HW215021   2.005   2.565   6.196
 4829SOL     OW15022   3.704   3.621   5.921
 4829SOL    HW115023   3.767   3.593   5.987
 4829SOL    HW215024   3.728   3.712   5.902
 4830SOL     OW15025   1.894   3.458   5.710
 4830SOL    HW115026   1.869   3.367   5.729
 4830SOL    HW215027   1.870   3.506   5.789
 4831SOL     OW15028   3.562   2.789   6.228
 4831SOL    HW115029   3.641   2.742   6.202
 4831SOL    HW215030   3.533   2.833   6.149
 4832SOL     OW15031   3.507   2.970   6.015
 4832SOL    HW115032   3.593   2.976   5.973
 4832SOL    HW215033   3.513   3.030   6.089
 4833SOL     OW15034   1.983   2.599   7.171
 4833SOL    HW115035   2.072   2.618   7.199
 4833SOL    HW215036   1.935   2.681   7.185
 4834SOL     OW15037   2.474   3.245   6.322
 4834SOL    HW115038   2.435   3.158   6.331
 4834SOL    HW215039   2.454   3.270   6.231
 4835SOL     OW15040   3.151   3.100   7.010
 4835SOL    HW115041   3.183   3.033   6.949
 4835SOL    HW215042   3.208   3.093   7.086
 4836SOL     OW15043   2.054   2.825   6.857
 4836SOL    HW115044   2.139   2.790   6.830
 4836SOL    HW215045   1.990   2.778   6.804
 4837SOL     OW15046   3.400   2.857   5.782
 4837SOL    HW115047   3.332   2.796   5.810
 4837SOL    HW215048   3.437   2.891   5.863
 4838SOL     OW15049   3.047   3.668   7.208
 4838SOL    HW115050   3.058   3.726   7.133
 4838SOL    HW215051   3.063   3.580   7.172
 4839SOL     OW15052   3.328   3.282   6.538
 4839SOL    HW115053   3.260   3.297   6.603
 4839SOL    HW215054   3.316   3.191   6.511
 4840SOL     OW15055   3.521   3.600   6.164
 4840SOL    HW115056   3.500   3.571   6.075
 4840SOL    HW215057   3.496   3.527   6.220
 4841SOL     OW15058   3.149   2.212   6.522
 4841SOL    HW115059   3.056   2.191   6.531
 4841SOL    HW215060   3.193   2.156   6.586
 4842SOL     OW15061   3.442   3.533   5.895
 4842SOL    HW115062   3.533   3.564   5.888
 4842SOL    HW215063   3.416   3.515   5.805
 4843SOL     OW15064   2.649   2.466   7.032
 4843SOL    HW115065   2.633   2.457   7.126
 4843SOL    HW215066   2.594   2.398   6.992
 4844SOL     OW15067   3.255   2.335   7.264
 4844SOL    HW115068   3.258   2.380   7.349
 4844SOL    HW215069   3.317   2.263   7.273
 4845SOL     OW15070   2.816   2.749   7.168
 4845SOL    HW115071   2.872   2.679   7.133
 4845SOL    HW215072   2.772   2.785   7.091
 4846SOL     OW15073   2.864   2.277   6.818
 4846SOL    HW115074   2.777   2.302   6.851
 4846SOL    HW215075   2.847   2.228   6.738
 4847SOL     OW15076   1.989   3.709   7.163
 4847SOL    HW115077   1.989   3.688   7.257
 4847SOL    HW215078   1.897   3.701   7.137
 4848SOL     OW15079   3.571   2.437   7.414
 4848SOL    HW115080   3.533   2.511   7.366
 4848SOL    HW215081   3.598   2.376   7.345
 4849SOL     OW15082   3.240   3.007   6.125
 4849SOL    HW115083   3.320   2.996   6.073
 4849SOL    HW215084   3.188   3.071   6.076
 4850SOL     OW15085   2.461   2.037   6.455
 4850SOL    HW115086   2.451   2.050   6.550
 4850SOL    HW215087   2.437   2.121   6.417
 4851SOL     OW15088   2.880   3.315   6.066
 4851SOL    HW115089   2.832   3.379   6.014
 4851SOL    HW215090   2.854   3.333   6.156
 4852SOL     OW15091   2.216   3.670   6.447
 4852SOL    HW115092   2.260   3.586   6.456
 4852SOL    HW215093   2.284   3.735   6.466
 4853SOL     OW15094   3.661   2.924   6.455
 4853SOL    HW115095   3.610   2.900   6.378
 4853SOL    HW215096   3.598   2.927   6.526
 4854SOL     OW15097   3.090   3.401   7.099
 4854SOL    HW115098   3.076   3.328   7.160
 4854SOL    HW215099   3.028   3.385   7.028
 4855SOL     OW15100   3.340   2.619   6.304
 4855SOL    HW115101   3.322   2.559   6.376
 4855SOL    HW215102   3.422   2.662   6.328
 4856SOL     OW15103   2.328   3.127   7.324
 4856SOL    HW115104   2.300   3.131   7.232
 4856SOL    HW215105   2.246   3.124   7.373
 4857SOL     OW15106   2.982   3.640   5.816
 4857SOL    HW115107   2.914   3.594   5.865
 4857SOL    HW215108   3.007   3.579   5.746
 4858SOL     OW15109   3.491   3.242   5.673
 4858SOL    HW115110   3.449   3.327   5.658
 4858SOL    HW215111   3.422   3.178   5.656
 4859SOL     OW15112   2.331   3.597   5.910
 4859SOL    HW115113   2.370   3.659   5.972
 4859SOL    HW215114   2.402   3.573   5.851
 4860SOL     OW15115   3.262   1.957   6.014
 4860SOL    HW115116   3.261   1.938   5.920
 4860SOL    HW215117   3.352   1.984   6.032
 4861SOL     OW15118   2.118   3.654   6.818
 4861SOL    HW115119   2.169   3.588   6.865
 4861SOL    HW215120   2.107   3.618   6.730
 4862SOL     OW15121   2.800   3.560   6.486
 4862SOL    HW115122   2.879   3.509   6.506
 4862SOL    HW215123   2.756   3.510   6.417
 4863SOL     OW15124   3.398   2.087   7.311
 4863SOL    HW115125   3.407   2.108   7.404
 4863SOL    HW215126   3.330   2.020   7.309
 4864SOL     OW15127   2.470   1.981   5.699
 4864SOL    HW115128   2.546   1.931   5.731
 4864SOL    HW215129   2.462   1.956   5.607
 4865SOL     OW15130   2.629   2.140   7.341
 4865SOL    HW115131   2.704   2.081   7.341
 4865SOL    HW215132   2.579   2.115   7.419
 4866SOL     OW15133   2.738   3.383   6.781
 4866SOL    HW115134   2.724   3.348   6.693
 4866SOL    HW215135   2.808   3.330   6.817
 4867SOL     OW15136   3.201   2.452   7.019
 4867SOL    HW115137   3.233   2.420   7.103
 4867SOL    HW215138   3.240   2.539   7.010
 4868SOL     OW15139   2.676   3.257   6.526
 4868SOL    HW115140   2.761   3.242   6.485
 4868SOL    HW215141   2.614   3.256   6.453
 4869SOL     OW15142   3.290   3.060   5.628
 4869SOL    HW115143   3.322   2.984   5.676
 4869SOL    HW215144   3.202   3.074   5.662
 4870SOL     OW15145   2.175   1.905   5.762
 4870SOL    HW115146   2.254   1.957   5.754
 4870SOL    HW215147   2.204   1.821   5.798
 4871SOL     OW15148   2.941   2.539   7.049
 4871SOL    HW115149   2.878   2.467   7.053
 4871SOL    HW215150   3.026   2.496   7.040
 4872SOL     OW15151   3.084   3.434   6.381
 4872SOL    HW115152   3.102   3.499   6.313
 4872SOL    HW215153   3.154   3.446   6.445
 4873SOL     OW15154   3.132   3.656   6.193
 4873SOL    HW115155   3.177   3.717   6.136
 4873SOL    HW215156   3.067   3.710   6.238
 4874SOL     OW15157   1.942   2.429   6.967
 4874SOL    HW115158   2.030   2.398   6.985
 4874SOL    HW215159   1.925   2.495   7.034
 4875SOL     OW15160   2.433   2.034   6.728
 4875SOL    HW115161   2.467   1.971   6.792
 4875SOL    HW215162   2.344   2.052   6.759
 4876SOL     OW15163   3.299   3.026   6.443
 4876SOL    HW115164   3.229   2.961   6.442
 4876SOL    HW215165   3.324   3.036   6.351
 4877SOL     OW15166   3.332   2.470   6.565
 4877SOL    HW115167   3.281   2.388   6.563
 4877SOL    HW215168   3.389   2.460   6.641
 4878SOL     OW15169   3.708   2.678   5.969
 4878SOL    HW115170   3.764   2.627   6.027
 4878SOL    HW215171   3.680   2.616   5.902
 4879SOL     OW15172   2.359   3.282   5.749
 4879SOL    HW115173   2.276   3.260   5.793
 4879SOL    HW215174   2.355   3.233   5.667
 4880SOL     OW15175   3.532   3.127   6.231
 4880SOL    HW115176   3.626   3.130   6.246
 4880SOL    HW215177   3.502   3.216   6.253
 4881SOL     OW15178   3.253   2.429   5.660
 4881SOL    HW115179   3.216   2.406   5.744
 4881SOL    HW215180   3.346   2.407   5.668
 4882SOL     OW15181   3.614   3.101   7.160
 4882SOL    HW115182   3.702   3.061   7.156
 4882SOL    HW215183   3.630   3.191   7.189
 4883SOL     OW15184   2.921   3.218   6.922
 4883SOL    HW115185   2.846   3.185   6.973
 4883SOL    HW215186   2.997   3.175   6.961
 4884SOL     OW15187   3.469   3.488   7.240
 4884SOL    HW115188   3.464   3.522   7.150
 4884SOL    HW215189   3.552   3.440   7.242
 4885SOL     OW15190   2.993   3.068   6.693
 4885SOL    HW115191   2.929   3.101   6.756
 4885SOL    HW215192   2.956   3.091   6.607
 4886SOL     OW15193   3.490   2.960   6.664
 4886SOL    HW115194   3.485   3.022   6.737
 4886SOL    HW215195   3.411   2.977   6.613
 4887SOL     OW15196   2.785   1.957   6.982
 4887SOL    HW115197   2.807   1.945   6.889
 4887SOL    HW215198   2.864   1.996   7.019
 4888SOL     OW15199   2.846   2.976   7.308
 4888SOL    HW115200   2.754   2.993   7.329
 4888SOL    HW215201   2.845   2.899   7.252
 4889SOL     OW15202   2.293   2.672   6.850
 4889SOL    HW115203   2.363   2.689   6.913
 4889SOL    HW215204   2.238   2.607   6.892
 4890SOL     OW15205   3.132   2.238   6.863
 4890SOL    HW115206   3.163   2.317   6.908
 4890SOL    HW215207   3.042   2.259   6.836
 4891SOL     OW15208   1.932   3.436   6.939
 4891SOL    HW115209   1.901   3.508   6.885
 4891SOL    HW215210   2.027   3.439   6.933
 4892SOL     OW15211   2.508   2.426   6.418
 4892SOL    HW115212   2.429   2.448   6.368
 4892SOL    HW215213   2.487   2.450   6.508
 4893SOL     OW15214   3.112   3.210   5.976
 4893SOL    HW115215   3.168   3.281   6.006
 4893SOL    HW215216   3.025   3.231   6.009
 4894SOL     OW15217   3.142   3.319   6.732
 4894SOL    HW115218   3.196   3.320   6.811
 4894SOL    HW215219   3.087   3.241   6.741
 4895SOL     OW15220   3.441   2.489   6.057
 4895SOL    HW115221   3.396   2.536   6.128
 4895SOL    HW215222   3.487   2.558   6.009
 4896SOL     OW15223   2.208   3.390   6.901
 4896SOL    HW115224   2.195   3.347   6.817
 4896SOL    HW215225   2.302   3.402   6.909
 4897SOL     OW15226   2.279   2.616   7.185
 4897SOL    HW115227   2.344   2.663   7.133
 4897SOL    HW215228   2.320   2.532   7.206
 4898SOL     OW15229   3.463   2.641   7.268
 4898SOL    HW115230   3.377   2.682   7.260
 4898SOL    HW215231   3.515   2.682   7.199
 4899SOL     OW15232   2.857   1.985   7.339
 4899SOL    HW115233   2.914   2.057   7.313
 4899SOL    HW215234   2.905   1.906   7.315
 4900SOL     OW15235   2.356   1.906   7.333
 4900SOL    HW115236   2.317   1.848   7.268
 4900SOL    HW215237   2.295   1.980   7.339
 4901SOL     OW15238   2.445   2.726   6.620
 4901SOL    HW115239   2.470   2.817   6.604
 4901SOL    HW215240   2.393   2.729   6.700
 4902SOL     OW15241   3.220   2.719   6.617
 4902SOL    HW115242   3.144   2.711   6.559
 4902SOL    HW215243   3.265   2.634   6.610
 4903SOL     OW15244   1.908   3.172   6.868
 4903SOL    HW115245   1.941   3.118   6.940
 4903SOL    HW215246   1.915   3.262   6.901
 4904SOL     OW15247   2.600   2.506   6.672
 4904SOL    HW115248   2.653   2.493   6.594
 4904SOL    HW215249   2.556   2.589   6.658
 4905SOL     OW15250   3.596   2.821   7.438
 4905SOL    HW115251   3.550   2.761   7.380
 4905SOL    HW215252   3.537   2.834   7.512
 4906SOL     OW15253   3.474   2.235   5.956
 4906SOL    HW115254   3.505   2.173   6.022
 4906SOL    HW215255   3.453   2.315   6.005
 4907SOL     OW15256   2.865   2.618   6.562
 4907SOL    HW115257   2.870   2.647   6.653
 4907SOL    HW215258   2.890   2.525   6.566
 4908SOL     OW15259   2.844   3.428   7.303
 4908SOL    HW115260   2.829   3.472   7.219
 4908SOL    HW215261   2.887   3.346   7.279
 4909SOL     OW15262   3.717   3.369   7.192
 4909SOL    HW115263   3.735   3.394   7.101
 4909SOL    HW215264   3.798   3.387   7.238
 4910SOL     OW15265   2.218   2.784   7.395
 4910SOL    HW115266   2.301   2.798   7.440
 4910SOL    HW215267   2.240   2.723   7.324
 4911SOL     OW15268   3.392   2.137   5.714
 4911SOL    HW115269   3.331   2.068   5.740
 4911SOL    HW215270   3.425   2.172   5.797
 4912SOL     OW15271   3.160   2.691   5.617
 4912SOL    HW115272   3.193   2.601   5.614
 4912SOL    HW215273   3.187   2.729   5.533
 4913SOL     OW15274   2.925   3.199   6.439
 4913SOL    HW115275   2.927   3.126   6.377
 4913SOL    HW215276   2.988   3.262   6.404
 4914SOL     OW15277   2.156   2.682   6.596
 4914SOL    HW115278   2.245   2.708   6.570
 4914SOL    HW215279   2.160   2.586   6.602
 4915SOL     OW15280   2.996   2.239   7.267
 4915SOL    HW115281   2.949   2.294   7.331
 4915SOL    HW215282   3.084   2.277   7.263
 4916SOL     OW15283   3.023   2.066   7.055
 4916SOL    HW115284   3.013   2.129   7.127
 4916SOL    HW215285   3.065   2.117   6.986
 4917SOL     OW15286   1.861   3.184   5.781
 4917SOL    HW115287   1.776   3.202   5.742
 4917SOL    HW215288   1.856   3.092   5.808
 4918SOL     OW15289   1.952   3.649   6.523
 4918SOL    HW115290   1.922   3.569   6.480
 4918SOL    HW215291   2.041   3.661   6.492
 4919SOL     OW15292   2.359   3.436   6.491
 4919SOL    HW115293   2.427   3.499   6.517
 4919SOL    HW215294   2.405   3.371   6.438
 4920SOL     OW15295   2.846   2.661   6.823
 4920SOL    HW115296   2.899   2.633   6.898
 4920SOL    HW215297   2.763   2.616   6.835
 4921SOL     OW15298   1.903   2.409   6.698
 4921SOL    HW115299   1.966   2.343   6.669
 4921SOL    HW215300   1.921   2.420   6.792
 4922SOL     OW15301   3.239   2.801   7.244
 4922SOL    HW115302   3.260   2.895   7.243
 4922SOL    HW215303   3.237   2.776   7.152
 4923SOL     OW15304   3.505   2.462   6.776
 4923SOL    HW115305   3.496   2.402   6.849
 4923SOL    HW215306   3.591   2.443   6.739
 4924SOL     OW15307   2.107   3.414   7.314
 4924SOL    HW115308   2.083   3.478   7.381
 4924SOL    HW215309   2.107   3.330   7.360
 4925SOL     OW15310   2.789   3.541   7.054
 4925SOL    HW115311   2.765   3.507   6.968
 4925SOL    HW215312   2.785   3.637   7.043
 4926SOL     OW15313   2.010   3.000   7.059
 4926SOL    HW115314   2.010   2.949   7.140
 4926SOL    HW215315   2.026   2.936   6.990
 4927SOL     OW15316   3.188   2.909   6.809
 4927SOL    HW115317   3.210   2.844   6.742
 4927SOL    HW215318   3.119   2.962   6.770
 4928SOL     OW15319   3.188   2.713   5.886
 4928SOL    HW115320   3.108   2.732   5.934
 4928SOL    HW215321   3.160   2.708   5.794
 4929SOL     OW15322   3.634   3.606   6.737
 4929SOL    HW115323   3.694   3.632   6.666
 4929SOL    HW215324   3.609   3.516   6.715
 4930SOL     OW15325   3.103   3.595   6.700
 4930SOL    HW115326   3.185   3.616   6.654
 4930SOL    HW215327   3.108   3.501   6.718
 4931SOL     OW15328   1.932   3.146   6.603
 4931SOL    HW115329   1.922   3.152   6.698
 4931SOL    HW215330   1.866   3.082   6.576
 4932SOL     OW15331   2.539   3.528   7.314
 4932SOL    HW115332   2.486   3.607   7.310
 4932SOL    HW215333   2.605   3.539   7.245
 4933SOL     OW15334   3.581   2.008   6.096
 4933SOL    HW115335   3.654   1.993   6.036
 4933SOL    HW215336   3.565   1.922   6.136
 4934SOL     OW15337   3.254   3.430   6.071
 4934SOL    HW115338   3.313   3.462   6.004
 4934SOL    HW215339   3.204   3.507   6.099
 4935SOL     OW15340   1.999   3.658   7.429
 4935SOL    HW115341   1.948   3.593   7.477
 4935SOL    HW215342   2.045   3.707   7.496
 4936SOL     OW15343   3.136   2.789   6.240
 4936SOL    HW115344   3.213   2.733   6.253
 4936SOL    HW215345   3.170   2.867   6.197
 4937SOL     OW15346   2.677   3.136   7.017
 4937SOL    HW115347   2.648   3.175   7.099
 4937SOL    HW215348   2.608   3.158   6.954
 4938SOL     OW15349   2.538   3.480   5.738
 4938SOL    HW115350   2.548   3.496   5.644
 4938SOL    HW215351   2.475   3.408   5.743
 4939SOL     OW15352   3.489   3.588   6.978
 4939SOL    HW115353   3.539   3.595   6.896
 4939SOL    HW215354   3.476   3.679   7.005
 4940SOL     OW15355   3.702   2.035   6.554
 4940SOL    HW115356   3.732   1.948   6.526
 4940SOL    HW215357   3.616   2.045   6.514
 4941SOL     OW15358   3.069   3.468   5.618
 4941SOL    HW115359   3.059   3.377   5.646
 4941SOL    HW215360   3.004   3.479   5.548
 4942SOL     OW15361   2.687   2.870   6.959
 4942SOL    HW115362   2.728   2.866   6.873
 4942SOL    HW215363   2.686   2.964   6.981
 4943SOL     OW15364   3.354   3.488   5.629
 4943SOL    HW115365   3.260   3.480   5.615
 4943SOL    HW215366   3.390   3.493   5.540
 4944SOL     OW15367   2.231   3.164   7.078
 4944SOL    HW115368   2.217   3.241   7.023
 4944SOL    HW215369   2.155   3.109   7.062
 4945SOL     OW15370   3.473   3.145   6.867
 4945SOL    HW115371   3.532   3.134   6.941
 4945SOL    HW215372   3.412   3.214   6.894
 4946SOL     OW15373   2.914   2.973   6.286
 4946SOL    HW115374   2.847   2.930   6.339
 4946SOL    HW215375   2.971   2.902   6.258
 4947SOL     OW15376   2.886   2.111   6.582
 4947SOL    HW115377   2.871   2.088   6.490
 4947SOL    HW215378   2.879   2.028   6.629
 4948SOL     OW15379   2.453   3.343   6.066
 4948SOL    HW115380   2.479   3.297   5.986
 4948SOL    HW215381   2.392   3.410   6.037
 4949SOL     OW15382   3.584   2.254   6.967
 4949SOL    HW115383   3.655   2.317   6.965
 4949SOL    HW215384   3.613   2.182   6.910
 4950SOL     OW15385   2.111   3.239   5.865
 4950SOL    HW115386   2.016   3.237   5.847
 4950SOL    HW215387   2.117   3.260   5.958
 4951SOL     OW15388   1.974   2.883   7.306
 4951SOL    HW115389   1.897   2.860   7.358
 4951SOL    HW215390   2.048   2.846   7.354
 4952SOL     OW15391   2.544   2.051   7.080
 4952SOL    HW115392   2.631   2.028   7.046
 4952SOL    HW215393   2.561   2.089   7.166
 4953SOL     OW15394   1.908   2.182   5.613
 4953SOL    HW115395   1.823   2.152   5.582
 4953SOL    HW215396   1.910   2.275   5.589
 4954SOL     OW15397   3.292   2.720   6.987
 4954SOL    HW115398   3.243   2.781   6.930
 4954SOL    HW215399   3.381   2.722   6.952
 4955SOL     OW15400   1.985   2.077   5.891
 4955SOL    HW115401   1.948   2.114   5.811
 4955SOL    HW215402   2.045   2.008   5.860
 4956SOL     OW15403   3.039   3.205   5.704
 4956SOL    HW115404   2.955   3.159   5.706
 4956SOL    HW215405   3.071   3.203   5.794
 4957SOL     OW15406   2.490   2.694   7.027
 4957SOL    HW115407   2.545   2.771   7.009
 4957SOL    HW215408   2.552   2.621   7.029
 4958SOL     OW15409   3.345   3.639   6.564
 4958SOL    HW115410   3.370   3.698   6.493
 4958SOL    HW215411   3.428   3.619   6.608
 4959SOL     OW15412   2.584   2.428   7.290
 4959SOL    HW115413   2.622   2.492   7.349
 4959SOL    HW215414   2.613   2.343   7.324
 4960SOL     OW15415   3.333   3.062   7.218
 4960SOL    HW115416   3.321   3.076   7.312
 4960SOL    HW215417   3.426   3.077   7.204
 4961SOL     OW15418   2.242   3.601   7.150
 4961SOL    HW115419   2.156   3.642   7.136
 4961SOL    HW215420   2.221   3.518   7.193
 4962SOL     OW15421   3.532   2.743   6.842
 4962SOL    HW115422   3.525   2.658   6.799
 4962SOL    HW215423   3.522   2.806   6.770
 4963SOL     OW15424   3.625   2.223   7.236
 4963SOL    HW115425   3.608   2.238   7.143
 4963SOL    HW215426   3.553   2.167   7.265
 4964SOL     OW15427   3.607   2.795   7.098
 4964SOL    HW115428   3.604   2.890   7.111
 4964SOL    HW215429   3.592   2.783   7.005
 4965SOL     OW15430   2.720   3.237   5.617
 4965SOL    HW115431   2.681   3.285   5.690
 4965SOL    HW215432   2.752   3.306   5.558
 4966SOL     OW15433   2.522   3.653   6.530
 4966SOL    HW115434   2.503   3.744   6.508
 4966SOL    HW215435   2.617   3.647   6.525
 4967SOL     OW15436   2.758   2.873   6.486
 4967SOL    HW115437   2.781   2.783   6.507
 4967SOL    HW215438   2.707   2.903   6.561
 4968SOL     OW15439   2.969   2.885   5.673
 4968SOL    HW115440   2.926   2.908   5.591
 4968SOL    HW215441   3.020   2.807   5.653
 4969SOL     OW15442   3.716   3.418   6.431
 4969SOL    HW115443   3.639   3.405   6.376
 4969SOL    HW215444   3.710   3.349   6.497
 4970SOL     OW15445   2.086   3.165   7.441
 4970SOL    HW115446   2.020   3.103   7.411
 4970SOL    HW215447   2.067   3.178   7.534
 4971SOL     OW15448   1.946   3.109   6.275
 4971SOL    HW115449   1.946   3.060   6.358
 4971SOL    HW215450   2.028   3.083   6.232
 4972SOL     OW15451   2.542   3.265   7.213
 4972SOL    HW115452   2.463   3.221   7.244
 4972SOL    HW215453   2.538   3.353   7.251
 4973SOL     OW15454   3.674   2.046   6.824
 4973SOL    HW115455   3.685   1.951   6.838
 4973SOL    HW215456   3.684   2.058   6.730
 4974SOL     OW15457   3.561   3.352   6.684
 4974SOL    HW115458   3.481   3.328   6.637
 4974SOL    HW215459   3.574   3.282   6.748
 4975SOL     OW15460   2.687   3.442   6.264
 4975SOL    HW115461   2.680   3.491   6.182
 4975SOL    HW215462   2.610   3.385   6.265
 4976SOL     OW15463   3.294   2.082   6.708
 4976SOL    HW115464   3.323   2.005   6.757
 4976SOL    HW215465   3.244   2.133   6.771
 4977SOL     OW15466   2.867   1.871   6.723
 4977SOL    HW115467   2.813   1.792   6.729
 4977SOL    HW215468   2.957   1.838   6.723
 4978SOL     OW15469   2.481   3.420   6.870
 4978SOL    HW115470   2.484   3.501   6.920
 4978SOL    HW215471   2.569   3.410   6.833
 4979SOL     OW15472   3.220   1.915   5.742
 4979SOL    HW115473   3.254   1.845   5.686
 4979SOL    HW215474   3.125   1.908   5.734
 4980SOL     OW15475   3.219   2.347   6.293
 4980SOL    HW115476   3.152   2.415   6.287
 4980SOL    HW215477   3.186   2.286   6.360
 4981SOL     OW15478   3.449   2.064   6.463
 4981SOL    HW115479   3.386   2.086   6.532
 4981SOL    HW215480   3.452   2.142   6.408
 4982SOL     OW15481   2.738   3.510   5.933
 4982SOL    HW115482   2.671   3.502   5.866
 4982SOL    HW215483   2.715   3.589   5.981
 4983SOL     OW15484   2.066   2.527   7.567
 4983SOL    HW115485   1.984   2.501   7.608
 4983SOL    HW215486   2.074   2.470   7.491
 4984SOL     OW15487   1.863   2.248   8.079
 4984SOL    HW115488   1.783   2.268   8.126
 4984SOL    HW215489   1.848   2.162   8.040
 4985SOL     OW15490   2.428   3.149   8.623
 4985SOL    HW115491   2.341   3.152   8.584
 4985SOL    HW215492   2.443   3.237   8.656
 4986SOL     OW15493   3.423   3.374   8.155
 4986SOL    HW115494   3.380   3.354   8.238
 4986SOL    HW215495   3.351   3.378   8.091
 4987SOL     OW15496   2.991   2.560   8.149
 4987SOL    HW115497   3.041   2.641   8.135
 4987SOL    HW215498   2.947   2.573   8.233
 4988SOL     OW15499   3.629   2.467   7.677
 4988SOL    HW115500   3.608   2.459   7.584
 4988SOL    HW215501   3.593   2.388   7.716
 4989SOL     OW15502   2.617   3.004   8.488
 4989SOL    HW115503   2.548   3.039   8.545
 4989SOL    HW215504   2.653   3.081   8.444
 4990SOL     OW15505   2.725   2.639   9.270
 4990SOL    HW115506   2.717   2.710   9.333
 4990SOL    HW215507   2.751   2.682   9.188
 4991SOL     OW15508   2.548   2.864   8.096
 4991SOL    HW115509   2.613   2.853   8.166
 4991SOL    HW215510   2.479   2.917   8.137
 4992SOL     OW15511   2.572   3.013   9.259
 4992SOL    HW115512   2.620   3.092   9.286
 4992SOL    HW215513   2.489   3.046   9.224
 4993SOL     OW15514   2.193   3.288   8.516
 4993SOL    HW115515   2.120   3.250   8.466
 4993SOL    HW215516   2.242   3.338   8.451
 4994SOL     OW15517   3.323   3.361   8.802
 4994SOL    HW115518   3.372   3.442   8.811
 4994SOL    HW215519   3.262   3.361   8.875
 4995SOL     OW15520   3.474   2.310   8.188
 4995SOL    HW115521   3.399   2.334   8.134
 4995SOL    HW215522   3.490   2.388   8.242
 4996SOL     OW15523   2.081   3.576   7.921
 4996SOL    HW115524   2.103   3.652   7.974
 4996SOL    HW215525   2.154   3.569   7.858
 4997SOL     OW15526   2.998   3.204   9.140
 4997SOL    HW115527   3.039   3.199   9.227
 4997SOL    HW215528   2.946   3.124   9.134
 4998SOL     OW15529   2.093   3.303   7.983
 4998SOL    HW115530   2.075   3.397   7.987
 4998SOL    HW215531   2.032   3.264   8.046
 4999SOL     OW15532   2.120   2.955   8.339
 4999SOL    HW115533   2.115   2.868   8.378
 4999SOL    HW215534   2.061   3.008   8.391
 5000SOL     OW15535   2.474   3.653   8.878
 5000SOL    HW115536   2.392   3.635   8.924
 5000SOL    HW215537   2.497   3.742   8.903
 5001SOL     OW15538   2.450   2.842   7.578
 5001SOL    HW115539   2.495   2.894   7.512
 5001SOL    HW215540   2.488   2.871   7.661
 5002SOL     OW15541   3.458   1.985   8.916
 5002SOL    HW115542   3.464   2.066   8.865
 5002SOL    HW215543   3.444   2.015   9.006
 5003SOL     OW15544   1.968   2.506   8.008
 5003SOL    HW115545   1.942   2.417   8.032
 5003SOL    HW215546   1.966   2.555   8.090
 5004SOL     OW15547   3.704   3.621   7.783
 5004SOL    HW115548   3.767   3.593   7.849
 5004SOL    HW215549   3.728   3.712   7.764
 5005SOL     OW15550   1.894   3.457   7.572
 5005SOL    HW115551   1.875   3.365   7.592
 5005SOL    HW215552   1.870   3.504   7.651
 5006SOL     OW15553   3.551   2.781   8.089
 5006SOL    HW115554   3.635   2.739   8.070
 5006SOL    HW215555   3.530   2.830   8.010
 5007SOL     OW15556   3.508   2.969   7.877
 5007SOL    HW115557   3.594   2.975   7.835
 5007SOL    HW215558   3.513   3.030   7.951
 5008SOL     OW15559   1.986   2.597   9.028
 5008SOL    HW115560   2.073   2.621   9.058
 5008SOL    HW215561   1.933   2.675   9.042
 5009SOL     OW15562   2.475   3.247   8.183
 5009SOL    HW115563   2.429   3.164   8.193
 5009SOL    HW215564   2.459   3.274   8.093
 5010SOL     OW15565   3.151   3.100   8.872
 5010SOL    HW115566   3.183   3.033   8.811
 5010SOL    HW215567   3.208   3.094   8.948
 5011SOL     OW15568   2.676   1.863   7.955
 5011SOL    HW115569   2.717   1.947   7.936
 5011SOL    HW215570   2.583   1.883   7.963
 5012SOL     OW15571   2.052   2.831   8.718
 5012SOL    HW115572   2.135   2.788   8.700
 5012SOL    HW215573   1.987   2.776   8.674
 5013SOL     OW15574   3.394   2.855   7.646
 5013SOL    HW115575   3.324   2.798   7.678
 5013SOL    HW215576   3.434   2.889   7.726
 5014SOL     OW15577   3.047   3.668   9.070
 5014SOL    HW115578   3.058   3.726   8.995
 5014SOL    HW215579   3.064   3.580   9.034
 5015SOL     OW15580   3.328   3.282   8.400
 5015SOL    HW115581   3.260   3.297   8.465
 5015SOL    HW215582   3.316   3.191   8.373
 5016SOL     OW15583   3.521   3.600   8.026
 5016SOL    HW115584   3.501   3.571   7.937
 5016SOL    HW215585   3.496   3.527   8.082
 5017SOL     OW15586   2.468   2.584   7.709
 5017SOL    HW115587   2.473   2.661   7.652
 5017SOL    HW215588   2.386   2.595   7.757
 5018SOL     OW15589   3.141   2.213   8.380
 5018SOL    HW115590   3.052   2.180   8.389
 5018SOL    HW215591   3.192   2.161   8.441
 5019SOL     OW15592   3.443   3.532   7.757
 5019SOL    HW115593   3.533   3.564   7.750
 5019SOL    HW215594   3.416   3.515   7.667
 5020SOL     OW15595   2.650   2.467   8.892
 5020SOL    HW115596   2.634   2.457   8.986
 5020SOL    HW215597   2.601   2.396   8.851
 5021SOL     OW15598   3.256   2.336   9.126
 5021SOL    HW115599   3.258   2.380   9.211
 5021SOL    HW215600   3.317   2.263   9.136
 5022SOL     OW15601   2.816   2.748   9.030
 5022SOL    HW115602   2.872   2.680   8.993
 5022SOL    HW215603   2.769   2.784   8.954
 5023SOL     OW15604   2.862   2.271   8.685
 5023SOL    HW115605   2.784   2.315   8.718
 5023SOL    HW215606   2.834   2.232   8.602
 5024SOL     OW15607   2.912   2.560   7.874
 5024SOL    HW115608   2.927   2.554   7.968
 5024SOL    HW215609   2.829   2.514   7.860
 5025SOL     OW15610   1.951   2.683   8.223
 5025SOL    HW115611   2.033   2.678   8.274
 5025SOL    HW215612   1.906   2.759   8.258
 5026SOL     OW15613   1.989   3.709   9.025
 5026SOL    HW115614   1.989   3.688   9.119
 5026SOL    HW215615   1.897   3.701   8.999
 5027SOL     OW15616   2.755   2.209   7.643
 5027SOL    HW115617   2.796   2.271   7.583
 5027SOL    HW215618   2.767   2.124   7.601
 5028SOL     OW15619   3.571   2.437   9.276
 5028SOL    HW115620   3.533   2.511   9.228
 5028SOL    HW215621   3.598   2.376   9.207
 5029SOL     OW15622   3.239   3.004   7.989
 5029SOL    HW115623   3.317   2.991   7.937
 5029SOL    HW215624   3.186   3.066   7.939
 5030SOL     OW15625   2.868   3.306   7.920
 5030SOL    HW115626   2.830   3.379   7.871
 5030SOL    HW215627   2.851   3.328   8.012
 5031SOL     OW15628   2.216   3.670   8.309
 5031SOL    HW115629   2.260   3.585   8.317
 5031SOL    HW215630   2.285   3.734   8.328
 5032SOL     OW15631   3.660   2.921   8.316
 5032SOL    HW115632   3.605   2.902   8.240
 5032SOL    HW215633   3.598   2.926   8.389
 5033SOL     OW15634   3.090   3.401   8.961
 5033SOL    HW115635   3.076   3.328   9.022
 5033SOL    HW215636   3.027   3.386   8.890
 5034SOL     OW15637   2.187   2.807   7.702
 5034SOL    HW115638   2.264   2.829   7.649
 5034SOL    HW215639   2.146   2.734   7.656
 5035SOL     OW15640   3.340   2.603   8.175
 5035SOL    HW115641   3.331   2.561   8.260
 5035SOL    HW215642   3.417   2.659   8.184
 5036SOL     OW15643   2.328   3.126   9.185
 5036SOL    HW115644   2.300   3.131   9.094
 5036SOL    HW215645   2.246   3.124   9.235
 5037SOL     OW15646   2.983   3.640   7.679
 5037SOL    HW115647   2.911   3.598   7.725
 5037SOL    HW215648   3.006   3.579   7.609
 5038SOL     OW15649   1.962   2.105   8.957
 5038SOL    HW115650   1.995   2.188   8.921
 5038SOL    HW215651   2.038   2.065   8.998
 5039SOL     OW15652   3.491   3.242   7.535
 5039SOL    HW115653   3.450   3.327   7.521
 5039SOL    HW215654   3.422   3.178   7.517
 5040SOL     OW15655   2.328   3.600   7.769
 5040SOL    HW115656   2.370   3.656   7.833
 5040SOL    HW215657   2.400   3.569   7.713
 5041SOL     OW15658   3.263   1.970   7.880
 5041SOL    HW115659   3.253   1.945   7.788
 5041SOL    HW215660   3.358   1.976   7.893
 5042SOL     OW15661   2.118   3.654   8.680
 5042SOL    HW115662   2.169   3.587   8.726
 5042SOL    HW215663   2.107   3.618   8.592
 5043SOL     OW15664   2.800   3.560   8.347
 5043SOL    HW115665   2.877   3.509   8.368
 5043SOL    HW215666   2.756   3.511   8.278
 5044SOL     OW15667   3.398   2.087   9.173
 5044SOL    HW115668   3.407   2.108   9.266
 5044SOL    HW215669   3.329   2.020   9.171
 5045SOL     OW15670   2.492   1.992   7.550
 5045SOL    HW115671   2.557   1.927   7.578
 5045SOL    HW215672   2.448   1.951   7.475
 5046SOL     OW15673   2.627   2.142   9.201
 5046SOL    HW115674   2.702   2.082   9.204
 5046SOL    HW215675   2.575   2.119   9.278
 5047SOL     OW15676   2.738   3.383   8.642
 5047SOL    HW115677   2.723   3.347   8.555
 5047SOL    HW215678   2.808   3.329   8.678
 5048SOL     OW15679   3.201   2.452   8.881
 5048SOL    HW115680   3.233   2.420   8.965
 5048SOL    HW215681   3.239   2.539   8.873
 5049SOL     OW15682   2.677   3.257   8.387
 5049SOL    HW115683   2.761   3.246   8.343
 5049SOL    HW215684   2.612   3.258   8.316
 5050SOL     OW15685   2.784   2.367   8.353
 5050SOL    HW115686   2.761   2.362   8.260
 5050SOL    HW215687   2.822   2.281   8.373
 5051SOL     OW15688   2.409   1.933   7.945
 5051SOL    HW115689   2.330   1.929   7.998
 5051SOL    HW215690   2.408   2.020   7.906
 5052SOL     OW15691   3.290   3.060   7.489
 5052SOL    HW115692   3.321   2.984   7.539
 5052SOL    HW215693   3.205   3.081   7.527
 5053SOL     OW15694   2.156   1.893   7.628
 5053SOL    HW115695   2.220   1.956   7.597
 5053SOL    HW215696   2.207   1.826   7.673
 5054SOL     OW15697   2.799   2.109   7.907
 5054SOL    HW115698   2.775   2.150   7.824
 5054SOL    HW215699   2.894   2.121   7.913
 5055SOL     OW15700   2.940   2.542   8.905
 5055SOL    HW115701   2.877   2.471   8.915
 5055SOL    HW215702   3.025   2.497   8.899
 5056SOL     OW15703   3.086   3.432   8.242
 5056SOL    HW115704   3.102   3.499   8.175
 5056SOL    HW215705   3.154   3.445   8.307
 5057SOL     OW15706   2.331   3.012   8.181
 5057SOL    HW115707   2.261   2.994   8.244
 5057SOL    HW215708   2.291   2.994   8.096
 5058SOL     OW15709   3.131   3.656   8.056
 5058SOL    HW115710   3.177   3.717   7.998
 5058SOL    HW215711   3.066   3.710   8.100
 5059SOL     OW15712   2.886   2.405   7.470
 5059SOL    HW115713   2.844   2.489   7.451
 5059SOL    HW215714   2.951   2.425   7.537
 5060SOL     OW15715   1.955   2.408   8.835
 5060SOL    HW115716   2.048   2.388   8.846
 5060SOL    HW215717   1.937   2.477   8.899
 5061SOL     OW15718   2.725   2.318   8.088
 5061SOL    HW115719   2.685   2.377   8.025
 5061SOL    HW215720   2.750   2.241   8.036
 5062SOL     OW15721   2.875   1.914   8.201
 5062SOL    HW115722   2.819   1.905   8.124
 5062SOL    HW215723   2.854   1.839   8.255
 5063SOL     OW15724   3.299   3.025   8.305
 5063SOL    HW115725   3.230   2.958   8.305
 5063SOL    HW215726   3.322   3.036   8.213
 5064SOL     OW15727   3.329   2.467   8.425
 5064SOL    HW115728   3.278   2.386   8.429
 5064SOL    HW215729   3.389   2.461   8.500
 5065SOL     OW15730   3.708   2.678   7.830
 5065SOL    HW115731   3.764   2.627   7.889
 5065SOL    HW215732   3.680   2.616   7.764
 5066SOL     OW15733   2.352   3.280   7.606
 5066SOL    HW115734   2.278   3.250   7.658
 5066SOL    HW215735   2.337   3.242   7.519
 5067SOL     OW15736   3.532   3.126   8.094
 5067SOL    HW115737   3.627   3.129   8.108
 5067SOL    HW215738   3.502   3.215   8.115
 5068SOL     OW15739   3.256   2.434   7.519
 5068SOL    HW115740   3.195   2.415   7.591
 5068SOL    HW215741   3.340   2.402   7.550
 5069SOL     OW15742   3.614   3.101   9.021
 5069SOL    HW115743   3.702   3.061   9.018
 5069SOL    HW215744   3.630   3.191   9.051
 5070SOL     OW15745   2.921   3.216   8.782
 5070SOL    HW115746   2.846   3.185   8.833
 5070SOL    HW215747   2.997   3.174   8.823
 5071SOL     OW15748   3.469   3.488   9.102
 5071SOL    HW115749   3.464   3.522   9.012
 5071SOL    HW215750   3.552   3.440   9.104
 5072SOL     OW15751   2.991   3.066   8.554
 5072SOL    HW115752   2.931   3.103   8.619
 5072SOL    HW215753   2.957   3.097   8.470
 5073SOL     OW15754   3.490   2.960   8.526
 5073SOL    HW115755   3.486   3.022   8.599
 5073SOL    HW215756   3.411   2.977   8.475
 5074SOL     OW15757   2.788   1.955   8.846
 5074SOL    HW115758   2.808   1.938   8.754
 5074SOL    HW215759   2.867   1.996   8.881
 5075SOL     OW15760   2.846   2.976   9.170
 5075SOL    HW115761   2.754   2.993   9.191
 5075SOL    HW215762   2.845   2.898   9.114
 5076SOL     OW15763   2.570   2.923   7.819
 5076SOL    HW115764   2.556   2.907   7.912
 5076SOL    HW215765   2.646   2.869   7.796
 5077SOL     OW15766   2.281   2.676   8.699
 5077SOL    HW115767   2.351   2.692   8.762
 5077SOL    HW215768   2.245   2.590   8.724
 5078SOL     OW15769   3.132   2.239   8.723
 5078SOL    HW115770   3.162   2.317   8.769
 5078SOL    HW215771   3.041   2.259   8.699
 5079SOL     OW15772   1.932   3.435   8.801
 5079SOL    HW115773   1.901   3.508   8.746
 5079SOL    HW215774   2.027   3.439   8.795
 5080SOL     OW15775   2.213   2.969   7.936
 5080SOL    HW115776   2.217   3.046   7.880
 5080SOL    HW215777   2.208   2.895   7.875
 5081SOL     OW15778   3.110   3.210   7.837
 5081SOL    HW115779   3.166   3.282   7.868
 5081SOL    HW215780   3.023   3.231   7.871
 5082SOL     OW15781   3.142   3.319   8.594
 5082SOL    HW115782   3.198   3.321   8.673
 5082SOL    HW215783   3.087   3.242   8.606
 5083SOL     OW15784   3.444   2.485   7.926
 5083SOL    HW115785   3.397   2.538   7.991
 5083SOL    HW215786   3.488   2.549   7.870
 5084SOL     OW15787   2.209   3.389   8.763
 5084SOL    HW115788   2.196   3.346   8.679
 5084SOL    HW215789   2.303   3.401   8.770
 5085SOL     OW15790   2.279   2.627   9.054
 5085SOL    HW115791   2.342   2.668   8.994
 5085SOL    HW215792   2.325   2.551   9.089
 5086SOL     OW15793   3.463   2.641   9.130
 5086SOL    HW115794   3.377   2.682   9.123
 5086SOL    HW215795   3.515   2.682   9.061
 5087SOL     OW15796   2.856   1.985   9.202
 5087SOL    HW115797   2.913   2.057   9.174
 5087SOL    HW215798   2.904   1.906   9.178
 5088SOL     OW15799   2.363   1.895   9.194
 5088SOL    HW115800   2.322   1.838   9.129
 5088SOL    HW215801   2.305   1.970   9.200
 5089SOL     OW15802   2.437   2.736   8.473
 5089SOL    HW115803   2.480   2.821   8.474
 5089SOL    HW215804   2.388   2.733   8.556
 5090SOL     OW15805   3.220   2.721   8.478
 5090SOL    HW115806   3.136   2.711   8.433
 5090SOL    HW215807   3.260   2.634   8.473
 5091SOL     OW15808   3.066   2.390   7.715
 5091SOL    HW115809   3.075   2.312   7.770
 5091SOL    HW215810   3.024   2.455   7.771
 5092SOL     OW15811   1.911   3.173   8.724
 5092SOL    HW115812   1.942   3.119   8.797
 5092SOL    HW215813   1.915   3.262   8.757
 5093SOL     OW15814   2.615   2.515   8.535
 5093SOL    HW115815   2.651   2.465   8.462
 5093SOL    HW215816   2.555   2.578   8.495
 5094SOL     OW15817   3.596   2.822   9.300
 5094SOL    HW115818   3.550   2.760   9.243
 5094SOL    HW215819   3.537   2.835   9.374
 5095SOL     OW15820   2.166   1.934   8.076
 5095SOL    HW115821   2.142   2.022   8.103
 5095SOL    HW215822   2.168   1.884   8.158
 5096SOL     OW15823   3.478   2.236   7.815
 5096SOL    HW115824   3.505   2.172   7.881
 5096SOL    HW215825   3.455   2.314   7.865
 5097SOL     OW15826   2.892   2.619   8.408
 5097SOL    HW115827   2.887   2.641   8.501
 5097SOL    HW215828   2.855   2.531   8.402
 5098SOL     OW15829   2.844   3.428   9.165
 5098SOL    HW115830   2.829   3.472   9.081
 5098SOL    HW215831   2.887   3.346   9.141
 5099SOL     OW15832   3.717   3.369   9.054
 5099SOL    HW115833   3.735   3.395   8.963
 5099SOL    HW215834   3.798   3.387   9.101
 5100SOL     OW15835   2.217   2.788   9.263
 5100SOL    HW115836   2.301   2.802   9.307
 5100SOL    HW215837   2.237   2.731   9.189
 5101SOL     OW15838   3.391   2.135   7.575
 5101SOL    HW115839   3.327   2.070   7.602
 5101SOL    HW215840   3.424   2.171   7.658
 5102SOL     OW15841   3.154   2.688   7.479
 5102SOL    HW115842   3.197   2.603   7.483
 5102SOL    HW215843   3.185   2.727   7.397
 5103SOL     OW15844   2.927   3.198   8.301
 5103SOL    HW115845   2.930   3.125   8.239
 5103SOL    HW215846   2.989   3.262   8.267
 5104SOL     OW15847   2.173   2.677   8.391
 5104SOL    HW115848   2.266   2.700   8.388
 5104SOL    HW215849   2.171   2.594   8.439
 5105SOL     OW15850   2.995   2.240   9.128
 5105SOL    HW115851   2.949   2.294   9.192
 5105SOL    HW215852   3.084   2.277   9.125
 5106SOL     OW15853   3.025   2.066   8.918
 5106SOL    HW115854   3.014   2.129   8.989
 5106SOL    HW215855   3.065   2.117   8.847
 5107SOL     OW15856   1.867   3.183   7.642
 5107SOL    HW115857   1.780   3.197   7.605
 5107SOL    HW215858   1.864   3.093   7.677
 5108SOL     OW15859   1.952   3.649   8.386
 5108SOL    HW115860   1.922   3.570   8.342
 5108SOL    HW215861   2.042   3.661   8.355
 5109SOL     OW15862   2.359   3.436   8.353
 5109SOL    HW115863   2.427   3.498   8.378
 5109SOL    HW215864   2.403   3.372   8.297
 5110SOL     OW15865   2.846   2.661   8.673
 5110SOL    HW115866   2.892   2.630   8.752
 5110SOL    HW215867   2.763   2.613   8.674
 5111SOL     OW15868   1.903   2.424   8.565
 5111SOL    HW115869   1.946   2.351   8.521
 5111SOL    HW215870   1.925   2.413   8.658
 5112SOL     OW15871   3.238   2.801   9.106
 5112SOL    HW115872   3.260   2.895   9.105
 5112SOL    HW215873   3.237   2.776   9.014
 5113SOL     OW15874   2.677   2.429   7.809
 5113SOL    HW115875   2.680   2.356   7.748
 5113SOL    HW215876   2.604   2.483   7.779
 5114SOL     OW15877   3.504   2.463   8.635
 5114SOL    HW115878   3.494   2.404   8.709
 5114SOL    HW215879   3.591   2.444   8.600
 5115SOL     OW15880   2.107   3.414   9.176
 5115SOL    HW115881   2.083   3.478   9.243
 5115SOL    HW215882   2.107   3.330   9.222
 5116SOL     OW15883   2.790   3.541   8.915
 5116SOL    HW115884   2.764   3.507   8.830
 5116SOL    HW215885   2.786   3.636   8.905
 5117SOL     OW15886   2.009   3.002   8.922
 5117SOL    HW115887   2.009   2.949   9.002
 5117SOL    HW215888   2.025   2.939   8.851
 5118SOL     OW15889   3.188   2.909   8.671
 5118SOL    HW115890   3.212   2.846   8.604
 5118SOL    HW215891   3.118   2.961   8.633
 5119SOL     OW15892   3.173   2.718   7.754
 5119SOL    HW115893   3.097   2.689   7.804
 5119SOL    HW215894   3.148   2.705   7.663
 5120SOL     OW15895   3.634   3.606   8.599
 5120SOL    HW115896   3.694   3.633   8.528
 5120SOL    HW215897   3.609   3.516   8.577
 5121SOL     OW15898   3.103   3.595   8.562
 5121SOL    HW115899   3.185   3.616   8.516
 5121SOL    HW215900   3.108   3.501   8.580
 5122SOL     OW15901   1.946   3.129   8.460
 5122SOL    HW115902   1.932   3.141   8.554
 5122SOL    HW215903   1.872   3.075   8.432
 5123SOL     OW15904   2.539   3.528   9.176
 5123SOL    HW115905   2.485   3.607   9.172
 5123SOL    HW215906   2.604   3.539   9.107
 5124SOL     OW15907   3.581   2.008   7.958
 5124SOL    HW115908   3.654   1.993   7.898
 5124SOL    HW215909   3.565   1.922   7.998
 5125SOL     OW15910   3.252   3.430   7.932
 5125SOL    HW115911   3.313   3.462   7.866
 5125SOL    HW215912   3.204   3.507   7.961
 5126SOL     OW15913   1.999   3.658   9.291
 5126SOL    HW115914   1.948   3.593   9.339
 5126SOL    HW215915   2.045   3.707   9.358
 5127SOL     OW15916   3.139   2.787   8.118
 5127SOL    HW115917   3.213   2.726   8.125
 5127SOL    HW215918   3.173   2.860   8.067
 5128SOL     OW15919   2.677   3.136   8.878
 5128SOL    HW115920   2.649   3.174   8.961
 5128SOL    HW215921   2.607   3.158   8.816
 5129SOL     OW15922   2.533   3.481   7.603
 5129SOL    HW115923   2.544   3.493   7.509
 5129SOL    HW215924   2.479   3.403   7.612
 5130SOL     OW15925   3.489   3.588   8.839
 5130SOL    HW115926   3.539   3.596   8.758
 5130SOL    HW215927   3.476   3.679   8.867
 5131SOL     OW15928   3.702   2.035   8.415
 5131SOL    HW115929   3.732   1.948   8.388
 5131SOL    HW215930   3.616   2.045   8.375
 5132SOL     OW15931   3.069   3.468   7.480
 5132SOL    HW115932   3.060   3.377   7.506
 5132SOL    HW215933   3.004   3.480   7.410
 5133SOL     OW15934   2.685   2.868   8.821
 5133SOL    HW115935   2.731   2.860   8.738
 5133SOL    HW215936   2.687   2.962   8.841
 5134SOL     OW15937   2.778   2.773   7.737
 5134SOL    HW115938   2.840   2.805   7.671
 5134SOL    HW215939   2.825   2.703   7.783
 5135SOL     OW15940   3.354   3.487   7.490
 5135SOL    HW115941   3.260   3.481   7.477
 5135SOL    HW215942   3.391   3.493   7.402
 5136SOL     OW15943   2.232   3.164   8.939
 5136SOL    HW115944   2.217   3.241   8.885
 5136SOL    HW215945   2.154   3.109   8.924
 5137SOL     OW15946   3.473   3.145   8.729
 5137SOL    HW115947   3.532   3.134   8.803
 5137SOL    HW215948   3.413   3.214   8.756
 5138SOL     OW15949   2.914   2.969   8.154
 5138SOL    HW115950   2.843   2.917   8.194
 5138SOL    HW215951   2.976   2.903   8.123
 5139SOL     OW15952   2.882   2.101   8.413
 5139SOL    HW115953   2.879   2.053   8.331
 5139SOL    HW215954   2.879   2.034   8.481
 5140SOL     OW15955   2.465   3.351   7.929
 5140SOL    HW115956   2.508   3.300   7.861
 5140SOL    HW215957   2.395   3.398   7.884
 5141SOL     OW15958   3.583   2.254   8.828
 5141SOL    HW115959   3.655   2.317   8.827
 5141SOL    HW215960   3.613   2.183   8.772
 5142SOL     OW15961   2.121   3.207   7.737
 5142SOL    HW115962   2.028   3.204   7.714
 5142SOL    HW215963   2.123   3.244   7.825
 5143SOL     OW15964   1.974   2.883   9.168
 5143SOL    HW115965   1.897   2.860   9.219
 5143SOL    HW215966   2.048   2.847   9.218
 5144SOL     OW15967   2.549   2.048   8.942
 5144SOL    HW115968   2.635   2.022   8.908
 5144SOL    HW215969   2.568   2.084   9.029
 5145SOL     OW15970   1.921   2.200   7.501
 5145SOL    HW115971   1.841   2.181   7.452
 5145SOL    HW215972   1.979   2.243   7.437
 5146SOL     OW15973   3.292   2.720   8.849
 5146SOL    HW115974   3.243   2.781   8.793
 5146SOL    HW215975   3.381   2.723   8.814
 5147SOL     OW15976   1.934   2.018   7.757
 5147SOL    HW115977   1.913   2.094   7.703
 5147SOL    HW215978   2.014   1.983   7.718
 5148SOL     OW15979   3.041   3.202   7.565
 5148SOL    HW115980   2.950   3.171   7.568
 5148SOL    HW215981   3.069   3.202   7.656
 5149SOL     OW15982   2.484   2.692   8.879
 5149SOL    HW115983   2.537   2.770   8.865
 5149SOL    HW215984   2.546   2.619   8.882
 5150SOL     OW15985   3.346   3.638   8.426
 5150SOL    HW115986   3.369   3.698   8.355
 5150SOL    HW215987   3.428   3.620   8.470
 5151SOL     OW15988   2.582   2.427   9.147
 5151SOL    HW115989   2.619   2.488   9.210
 5151SOL    HW215990   2.603   2.340   9.183
 5152SOL     OW15991   3.333   3.063   9.080
 5152SOL    HW115992   3.321   3.076   9.174
 5152SOL    HW215993   3.426   3.077   9.066
 5153SOL     OW15994   2.242   3.601   9.012
 5153SOL    HW115995   2.157   3.643   8.998
 5153SOL    HW215996   2.221   3.518   9.054
 5154SOL     OW15997   3.531   2.743   8.704
 5154SOL    HW115998   3.525   2.658   8.661
 5154SOL    HW215999   3.522   2.806   8.632
 5155SOL     OW16000   3.078   2.181   7.906
 5155SOL    HW116001   3.142   2.110   7.897
 5155SOL    HW216002   3.108   2.230   7.983
 5156SOL     OW16003   2.456   2.600   8.091
 5156SOL    HW116004   2.500   2.685   8.090
 5156SOL    HW216005   2.368   2.618   8.057
 5157SOL     OW16006   3.625   2.223   9.098
 5157SOL    HW116007   3.607   2.238   9.005
 5157SOL    HW216008   3.553   2.167   9.127
 5158SOL     OW16009   3.607   2.796   8.960
 5158SOL    HW116010   3.604   2.890   8.973
 5158SOL    HW216011   3.592   2.783   8.867
 5159SOL     OW16012   2.724   3.229   7.481
 5159SOL    HW116013   2.686   3.257   7.565
 5159SOL    HW216014   2.743   3.311   7.435
 5160SOL     OW16015   2.522   3.654   8.393
 5160SOL    HW116016   2.502   3.744   8.370
 5160SOL    HW216017   2.617   3.647   8.386
 5161SOL     OW16018   2.729   2.829   8.304
 5161SOL    HW116019   2.778   2.756   8.342
 5161SOL    HW216020   2.696   2.878   8.378
 5162SOL     OW16021   2.941   2.850   7.536
 5162SOL    HW116022   2.920   2.901   7.458
 5162SOL    HW216023   3.016   2.797   7.510
 5163SOL     OW16024   3.717   3.417   8.293
 5163SOL    HW116025   3.639   3.405   8.238
 5163SOL    HW216026   3.710   3.349   8.360
 5164SOL     OW16027   2.086   3.165   9.304
 5164SOL    HW116028   2.019   3.104   9.273
 5164SOL    HW216029   2.067   3.179   9.396
 5165SOL     OW16030   1.946   3.097   8.113
 5165SOL    HW116031   1.947   3.047   8.195
 5165SOL    HW216032   2.012   3.056   8.059
 5166SOL     OW16033   2.542   3.265   9.075
 5166SOL    HW116034   2.463   3.221   9.106
 5166SOL    HW216035   2.538   3.353   9.113
 5167SOL     OW16036   3.675   2.046   8.686
 5167SOL    HW116037   3.684   1.952   8.700
 5167SOL    HW216038   3.684   2.057   8.592
 5168SOL     OW16039   3.562   3.352   8.546
 5168SOL    HW116040   3.481   3.328   8.499
 5168SOL    HW216041   3.574   3.282   8.610
 5169SOL     OW16042   2.689   3.440   8.126
 5169SOL    HW116043   2.677   3.492   8.046
 5169SOL    HW216044   2.612   3.383   8.129
 5170SOL     OW16045   3.294   2.086   8.565
 5170SOL    HW116046   3.320   2.007   8.612
 5170SOL    HW216047   3.243   2.136   8.629
 5171SOL     OW16048   2.871   1.881   8.589
 5171SOL    HW116049   2.818   1.810   8.553
 5171SOL    HW216050   2.960   1.844   8.593
 5172SOL     OW16051   2.634   3.194   7.762
 5172SOL    HW116052   2.602   3.104   7.768
 5172SOL    HW216053   2.716   3.194   7.811
 5173SOL     OW16054   2.482   3.419   8.733
 5173SOL    HW116055   2.484   3.500   8.783
 5173SOL    HW216056   2.569   3.411   8.695
 5174SOL     OW16057   3.214   1.916   7.613
 5174SOL    HW116058   3.243   1.851   7.548
 5174SOL    HW216059   3.127   1.886   7.639
 5175SOL     OW16060   3.158   2.322   8.129
 5175SOL    HW116061   3.105   2.402   8.137
 5175SOL    HW216062   3.155   2.283   8.216
 5176SOL     OW16063   3.449   2.064   8.325
 5176SOL    HW116064   3.388   2.084   8.396
 5176SOL    HW216065   3.448   2.143   8.270
 5177SOL     OW16066   1.905   2.933   7.755
 5177SOL    HW116067   1.998   2.924   7.737
 5177SOL    HW216068   1.876   2.844   7.777
 5178SOL     OW16069   2.746   3.514   7.791
 5178SOL    HW116070   2.673   3.497   7.731
 5178SOL    HW216071   2.716   3.590   7.842
 5179SOL     OW16072   2.075   2.530   9.433
 5179SOL    HW116073   1.992   2.503   9.471
 5179SOL    HW216074   2.082   2.481   9.351
 5180SOL     OW16075   1.860   2.241   9.945
 5180SOL    HW116076   1.780   2.266   9.992
 5180SOL    HW216077   1.838   2.159   9.901
 5181SOL     OW16078   2.429   3.149  10.485
 5181SOL    HW116079   2.341   3.152  10.446
 5181SOL    HW216080   2.443   3.237  10.519
 5182SOL     OW16081   3.423   3.374  10.017
 5182SOL    HW116082   3.380   3.354  10.100
 5182SOL    HW216083   3.351   3.378   9.953
 5183SOL     OW16084   2.993   2.560  10.009
 5183SOL    HW116085   3.041   2.642   9.999
 5183SOL    HW216086   2.946   2.570  10.092
 5184SOL     OW16087   3.630   2.467   9.539
 5184SOL    HW116088   3.608   2.459   9.446
 5184SOL    HW216089   3.593   2.389   9.579
 5185SOL     OW16090   2.618   3.004  10.351
 5185SOL    HW116091   2.548   3.039  10.407
 5185SOL    HW216092   2.653   3.081  10.305
 5186SOL     OW16093   2.714   2.642   0.021
 5186SOL    HW116094   2.719   2.696   0.099
 5186SOL    HW216095   2.749   2.696  11.051
 5187SOL     OW16096   2.549   2.867   9.957
 5187SOL    HW116097   2.614   2.854  10.026
 5187SOL    HW216098   2.480   2.920   9.998
 5188SOL     OW16099   2.194   3.286  10.377
 5188SOL    HW116100   2.120   3.250  10.328
 5188SOL    HW216101   2.242   3.338  10.312
 5189SOL     OW16102   3.325   3.361  10.660
 5189SOL    HW116103   3.381   3.439  10.668
 5189SOL    HW216104   3.271   3.362  10.738
 5190SOL     OW16105   3.474   2.310  10.050
 5190SOL    HW116106   3.398   2.333   9.997
 5190SOL    HW216107   3.490   2.388  10.104
 5191SOL     OW16108   2.082   3.576   9.783
 5191SOL    HW116109   2.103   3.652   9.836
 5191SOL    HW216110   2.154   3.569   9.720
 5192SOL     OW16111   2.093   3.303   9.846
 5192SOL    HW116112   2.075   3.397   9.849
 5192SOL    HW216113   2.032   3.264   9.908
 5193SOL     OW16114   2.121   2.956  10.201
 5193SOL    HW116115   2.113   2.868  10.239
 5193SOL    HW216116   2.061   3.010  10.253
 5194SOL     OW16117   2.473   3.651  10.739
 5194SOL    HW116118   2.393   3.632  10.788
 5194SOL    HW216119   2.495   3.741  10.763
 5195SOL     OW16120   2.451   2.842   9.439
 5195SOL    HW116121   2.496   2.894   9.373
 5195SOL    HW216122   2.488   2.871   9.523
 5196SOL     OW16123   3.449   1.979  10.778
 5196SOL    HW116124   3.465   2.058  10.727
 5196SOL    HW216125   3.457   2.007  10.869
 5197SOL     OW16126   1.966   2.507   9.870
 5197SOL    HW116127   1.941   2.418   9.895
 5197SOL    HW216128   1.965   2.556   9.952
 5198SOL     OW16129   3.704   3.621   9.645
 5198SOL    HW116130   3.767   3.593   9.711
 5198SOL    HW216131   3.728   3.712   9.626
 5199SOL     OW16132   1.894   3.457   9.434
 5199SOL    HW116133   1.875   3.365   9.454
 5199SOL    HW216134   1.870   3.504   9.513
 5200SOL     OW16135   3.551   2.781   9.951
 5200SOL    HW116136   3.635   2.740   9.932
 5200SOL    HW216137   3.530   2.830   9.872
 5201SOL     OW16138   3.508   2.969   9.739
 5201SOL    HW116139   3.594   2.975   9.697
 5201SOL    HW216140   3.513   3.030   9.813
 5202SOL     OW16141   1.980   2.600  10.887
 5202SOL    HW116142   2.064   2.609  10.932
 5202SOL    HW216143   1.934   2.682  10.905
 5203SOL     OW16144   2.476   3.247  10.046
 5203SOL    HW116145   2.429   3.164  10.055
 5203SOL    HW216146   2.459   3.274   9.955
 5204SOL     OW16147   3.156   3.099  10.752
 5204SOL    HW116148   3.181   3.039  10.682
 5204SOL    HW216149   3.213   3.075  10.825
 5205SOL     OW16150   2.674   1.861   9.816
 5205SOL    HW116151   2.716   1.945   9.798
 5205SOL    HW216152   2.581   1.882   9.826
 5206SOL     OW16153   2.054   2.830  10.575
 5206SOL    HW116154   2.136   2.784  10.557
 5206SOL    HW216155   1.986   2.773  10.540
 5207SOL     OW16156   3.394   2.855   9.508
 5207SOL    HW116157   3.324   2.798   9.540
 5207SOL    HW216158   3.434   2.890   9.588
 5208SOL     OW16159   3.058   3.668  10.927
 5208SOL    HW116160   3.057   3.732  10.856
 5208SOL    HW216161   3.067   3.583  10.884
 5209SOL     OW16162   3.329   3.282  10.261
 5209SOL    HW116163   3.260   3.297  10.326
 5209SOL    HW216164   3.316   3.191  10.234
 5210SOL     OW16165   3.521   3.600   9.888
 5210SOL    HW116166   3.501   3.571   9.799
 5210SOL    HW216167   3.496   3.527   9.944
 5211SOL     OW16168   2.464   2.587   9.577
 5211SOL    HW116169   2.478   2.657   9.514
 5211SOL    HW216170   2.380   2.609   9.619
 5212SOL     OW16171   3.142   2.214  10.243
 5212SOL    HW116172   3.053   2.182  10.250
 5212SOL    HW216173   3.192   2.160  10.304
 5213SOL     OW16174   3.443   3.532   9.619
 5213SOL    HW116175   3.533   3.564   9.612
 5213SOL    HW216176   3.416   3.515   9.529
 5214SOL     OW16177   2.651   2.463  10.758
 5214SOL    HW116178   2.631   2.455  10.851
 5214SOL    HW216179   2.593   2.400  10.715
 5215SOL     OW16180   2.827   2.760  10.900
 5215SOL    HW116181   2.876   2.689  10.860
 5215SOL    HW216182   2.777   2.799  10.828
 5216SOL     OW16183   2.861   2.271  10.548
 5216SOL    HW116184   2.782   2.316  10.578
 5216SOL    HW216185   2.836   2.234  10.463
 5217SOL     OW16186   2.911   2.560   9.737
 5217SOL    HW116187   2.929   2.553   9.830
 5217SOL    HW216188   2.829   2.513   9.724
 5218SOL     OW16189   1.951   2.684  10.084
 5218SOL    HW116190   2.032   2.679  10.135
 5218SOL    HW216191   1.905   2.760  10.119
 5219SOL     OW16192   1.990   3.706  10.897
 5219SOL    HW116193   1.972   3.670  10.984
 5219SOL    HW216194   1.905   3.705  10.853
 5220SOL     OW16195   2.754   2.211   9.504
 5220SOL    HW116196   2.796   2.272   9.443
 5220SOL    HW216197   2.765   2.125   9.464
 5221SOL     OW16198   3.239   3.004   9.851
 5221SOL    HW116199   3.318   2.991   9.799
 5221SOL    HW216200   3.186   3.066   9.801
 5222SOL     OW16201   2.868   3.306   9.782
 5222SOL    HW116202   2.830   3.379   9.733
 5222SOL    HW216203   2.851   3.328   9.874
 5223SOL     OW16204   2.216   3.670  10.171
 5223SOL    HW116205   2.260   3.585  10.179
 5223SOL    HW216206   2.285   3.734  10.190
 5224SOL     OW16207   3.660   2.921  10.178
 5224SOL    HW116208   3.605   2.902  10.102
 5224SOL    HW216209   3.599   2.926  10.251
 5225SOL     OW16210   3.090   3.400  10.824
 5225SOL    HW116211   3.098   3.311  10.860
 5225SOL    HW216212   3.028   3.390  10.752
 5226SOL     OW16213   2.189   2.804   9.566
 5226SOL    HW116214   2.264   2.829   9.511
 5226SOL    HW216215   2.147   2.733   9.519
 5227SOL     OW16216   3.340   2.604  10.036
 5227SOL    HW116217   3.330   2.560  10.121
 5227SOL    HW216218   3.418   2.659  10.047
 5228SOL     OW16219   2.313   3.129  11.053
 5228SOL    HW116220   2.285   3.140  10.962
 5228SOL    HW216221   2.253   3.063  11.088
 5229SOL     OW16222   2.983   3.640   9.541
 5229SOL    HW116223   2.911   3.598   9.587
 5229SOL    HW216224   3.006   3.579   9.471
 5230SOL     OW16225   3.491   3.242   9.397
 5230SOL    HW116226   3.450   3.327   9.383
 5230SOL    HW216227   3.422   3.178   9.378
 5231SOL     OW16228   2.328   3.599   9.631
 5231SOL    HW116229   2.370   3.657   9.695
 5231SOL    HW216230   2.400   3.569   9.575
 5232SOL     OW16231   3.263   1.970   9.742
 5232SOL    HW116232   3.253   1.945   9.651
 5232SOL    HW216233   3.358   1.976   9.755
 5233SOL     OW16234   2.117   3.654  10.543
 5233SOL    HW116235   2.168   3.590  10.593
 5233SOL    HW216236   2.108   3.616  10.456
 5234SOL     OW16237   2.800   3.560  10.210
 5234SOL    HW116238   2.879   3.509  10.229
 5234SOL    HW216239   2.756   3.511  10.140
 5235SOL     OW16240   2.491   1.993   9.411
 5235SOL    HW116241   2.557   1.932   9.444
 5235SOL    HW216242   2.451   1.948   9.337
 5236SOL     OW16243   2.628   2.135  11.046
 5236SOL    HW116244   2.697   2.078  11.080
 5236SOL    HW216245   2.571   2.152   0.020
 5237SOL     OW16246   2.737   3.383  10.504
 5237SOL    HW116247   2.722   3.348  10.416
 5237SOL    HW216248   2.810   3.331  10.538
 5238SOL     OW16249   3.204   2.453  10.754
 5238SOL    HW116250   3.256   2.432  10.831
 5238SOL    HW216251   3.232   2.541  10.729
 5239SOL     OW16252   2.677   3.257  10.249
 5239SOL    HW116253   2.761   3.246  10.204
 5239SOL    HW216254   2.613   3.258  10.178
 5240SOL     OW16255   2.800   2.368  10.222
 5240SOL    HW116256   2.760   2.367  10.135
 5240SOL    HW216257   2.829   2.278  10.236
 5241SOL     OW16258   2.406   1.930   9.807
 5241SOL    HW116259   2.328   1.919   9.862
 5241SOL    HW216260   2.399   2.019   9.772
 5242SOL     OW16261   3.290   3.060   9.351
 5242SOL    HW116262   3.321   2.984   9.401
 5242SOL    HW216263   3.205   3.081   9.389
 5243SOL     OW16264   2.160   1.905   9.498
 5243SOL    HW116265   2.227   1.973   9.484
 5243SOL    HW216266   2.208   1.833   9.538
 5244SOL     OW16267   2.799   2.106   9.768
 5244SOL    HW116268   2.775   2.150   9.686
 5244SOL    HW216269   2.893   2.120   9.775
 5245SOL     OW16270   2.938   2.546  10.769
 5245SOL    HW116271   2.872   2.477  10.776
 5245SOL    HW216272   3.022   2.498  10.768
 5246SOL     OW16273   3.085   3.432  10.104
 5246SOL    HW116274   3.102   3.499  10.037
 5246SOL    HW216275   3.154   3.446  10.169
 5247SOL     OW16276   2.331   3.011  10.043
 5247SOL    HW116277   2.261   2.994  10.106
 5247SOL    HW216278   2.291   2.994   9.958
 5248SOL     OW16279   3.131   3.656   9.918
 5248SOL    HW116280   3.177   3.717   9.860
 5248SOL    HW216281   3.066   3.710   9.962
 5249SOL     OW16282   2.886   2.405   9.332
 5249SOL    HW116283   2.844   2.488   9.313
 5249SOL    HW216284   2.951   2.425   9.400
 5250SOL     OW16285   1.945   2.421  10.692
 5250SOL    HW116286   2.035   2.393  10.710
 5250SOL    HW216287   1.928   2.489  10.757
 5251SOL     OW16288   2.442   1.997  10.433
 5251SOL    HW116289   2.463   1.971  10.523
 5251SOL    HW216290   2.365   2.052  10.441
 5252SOL     OW16291   2.743   2.320   9.949
 5252SOL    HW116292   2.688   2.374   9.893
 5252SOL    HW216293   2.757   2.240   9.898
 5253SOL     OW16294   2.878   1.913  10.062
 5253SOL    HW116295   2.818   1.907   9.987
 5253SOL    HW216296   2.855   1.839  10.117
 5254SOL     OW16297   3.298   3.025  10.167
 5254SOL    HW116298   3.231   2.957  10.166
 5254SOL    HW216299   3.322   3.036  10.075
 5255SOL     OW16300   3.328   2.468  10.287
 5255SOL    HW116301   3.278   2.386  10.289
 5255SOL    HW216302   3.388   2.462  10.361
 5256SOL     OW16303   3.708   2.678   9.692
 5256SOL    HW116304   3.764   2.627   9.751
 5256SOL    HW216305   3.680   2.616   9.626
 5257SOL     OW16306   2.352   3.279   9.468
 5257SOL    HW116307   2.278   3.250   9.520
 5257SOL    HW216308   2.337   3.243   9.381
 5258SOL     OW16309   3.532   3.126   9.956
 5258SOL    HW116310   3.626   3.129   9.970
 5258SOL    HW216311   3.502   3.215   9.977
 5259SOL     OW16312   3.256   2.434   9.382
 5259SOL    HW116313   3.195   2.415   9.453
 5259SOL    HW216314   3.340   2.401   9.413
 5260SOL     OW16315   3.621   3.091  10.868
 5260SOL    HW116316   3.712   3.063  10.871
 5260SOL    HW216317   3.622   3.178  10.909
 5261SOL     OW16318   2.925   3.216  10.649
 5261SOL    HW116319   2.847   3.183  10.694
 5261SOL    HW216320   2.998   3.168  10.689
 5262SOL     OW16321   2.991   3.069  10.416
 5262SOL    HW116322   2.926   3.103  10.477
 5262SOL    HW216323   2.960   3.097  10.330
 5263SOL     OW16324   3.491   2.961  10.388
 5263SOL    HW116325   3.487   3.022  10.461
 5263SOL    HW216326   3.411   2.978  10.338
 5264SOL     OW16327   2.785   1.959  10.706
 5264SOL    HW116328   2.806   1.941  10.615
 5264SOL    HW216329   2.863   2.001  10.741
 5265SOL     OW16330   2.570   2.923   9.680
 5265SOL    HW116331   2.557   2.908   9.774
 5265SOL    HW216332   2.646   2.869   9.657
 5266SOL     OW16333   2.281   2.669  10.562
 5266SOL    HW116334   2.352   2.689  10.622
 5266SOL    HW216335   2.236   2.595  10.603
 5267SOL     OW16336   3.131   2.240  10.589
 5267SOL    HW116337   3.161   2.319  10.633
 5267SOL    HW216338   3.042   2.259  10.562
 5268SOL     OW16339   1.932   3.438  10.661
 5268SOL    HW116340   1.903   3.510  10.606
 5268SOL    HW216341   2.027   3.440  10.655
 5269SOL     OW16342   2.214   2.968   9.798
 5269SOL    HW116343   2.217   3.046   9.742
 5269SOL    HW216344   2.209   2.895   9.736
 5270SOL     OW16345   2.519   2.435  10.149
 5270SOL    HW116346   2.493   2.485  10.071
 5270SOL    HW216347   2.469   2.474  10.220
 5271SOL     OW16348   3.110   3.210   9.699
 5271SOL    HW116349   3.166   3.282   9.730
 5271SOL    HW216350   3.023   3.231   9.733
 5272SOL     OW16351   3.141   3.321  10.455
 5272SOL    HW116352   3.198   3.324  10.532
 5272SOL    HW216353   3.089   3.242  10.467
 5273SOL     OW16354   3.444   2.485   9.788
 5273SOL    HW116355   3.397   2.538   9.853
 5273SOL    HW216356   3.488   2.550   9.733
 5274SOL     OW16357   2.207   3.387  10.624
 5274SOL    HW116358   2.196   3.344  10.539
 5274SOL    HW216359   2.302   3.401  10.631
 5275SOL     OW16360   2.282   2.598  10.906
 5275SOL    HW116361   2.346   2.644  10.851
 5275SOL    HW216362   2.328   2.518  10.933
 5276SOL     OW16363   3.456   2.622  10.969
 5276SOL    HW116364   3.379   2.678  10.960
 5276SOL    HW216365   3.526   2.671  10.927
 5277SOL     OW16366   2.440   2.729  10.337
 5277SOL    HW116367   2.477   2.817  10.332
 5277SOL    HW216368   2.389   2.729  10.418
 5278SOL     OW16369   3.219   2.723  10.344
 5278SOL    HW116370   3.137   2.713  10.296
 5278SOL    HW216371   3.261   2.637  10.337
 5279SOL     OW16372   3.066   2.391   9.577
 5279SOL    HW116373   3.075   2.312   9.631
 5279SOL    HW216374   3.023   2.455   9.634
 5280SOL     OW16375   1.914   3.174  10.585
 5280SOL    HW116376   1.939   3.119  10.659
 5280SOL    HW216377   1.914   3.263  10.620
 5281SOL     OW16378   2.618   2.515  10.406
 5281SOL    HW116379   2.651   2.466  10.331
 5281SOL    HW216380   2.569   2.589  10.368
 5282SOL     OW16381   2.162   1.903   9.940
 5282SOL    HW116382   2.112   1.982   9.959
 5282SOL    HW216383   2.174   1.861  10.026
 5283SOL     OW16384   3.478   2.236   9.677
 5283SOL    HW116385   3.505   2.172   9.743
 5283SOL    HW216386   3.455   2.314   9.727
 5284SOL     OW16387   2.891   2.622  10.269
 5284SOL    HW116388   2.887   2.641  10.363
 5284SOL    HW216389   2.860   2.532  10.262
 5285SOL     OW16390   2.835   3.434  11.004
 5285SOL    HW116391   2.821   3.484  10.923
 5285SOL    HW216392   2.866   3.349  10.974
 5286SOL     OW16393   3.719   3.355  10.912
 5286SOL    HW116394   3.735   3.391  10.824
 5286SOL    HW216395   3.785   3.398  10.967
 5287SOL     OW16396   2.227   2.794  11.086
 5287SOL    HW116397   2.309   2.799   0.034
 5287SOL    HW216398   2.238   2.719  11.027
 5288SOL     OW16399   3.391   2.135   9.437
 5288SOL    HW116400   3.327   2.070   9.464
 5288SOL    HW216401   3.424   2.171   9.520
 5289SOL     OW16402   3.154   2.688   9.341
 5289SOL    HW116403   3.197   2.603   9.345
 5289SOL    HW216404   3.185   2.727   9.260
 5290SOL     OW16405   2.928   3.197  10.164
 5290SOL    HW116406   2.931   3.125  10.101
 5290SOL    HW216407   2.989   3.261  10.129
 5291SOL     OW16408   2.172   2.679  10.253
 5291SOL    HW116409   2.265   2.699  10.250
 5291SOL    HW216410   2.166   2.599  10.305
 5292SOL     OW16411   3.020   2.071  10.783
 5292SOL    HW116412   3.035   2.128  10.858
 5292SOL    HW216413   3.060   2.118  10.709
 5293SOL     OW16414   1.867   3.183   9.504
 5293SOL    HW116415   1.781   3.197   9.467
 5293SOL    HW216416   1.864   3.093   9.539
 5294SOL     OW16417   1.951   3.649  10.247
 5294SOL    HW116418   1.922   3.569  10.204
 5294SOL    HW216419   2.041   3.661  10.217
 5295SOL     OW16420   2.359   3.436  10.215
 5295SOL    HW116421   2.428   3.498  10.239
 5295SOL    HW216422   2.403   3.372  10.159
 5296SOL     OW16423   2.846   2.662  10.536
 5296SOL    HW116424   2.892   2.633  10.615
 5296SOL    HW216425   2.764   2.612  10.537
 5297SOL     OW16426   1.906   2.418  10.422
 5297SOL    HW116427   1.954   2.343  10.386
 5297SOL    HW216428   1.925   2.415  10.516
 5298SOL     OW16429   2.675   2.430   9.670
 5298SOL    HW116430   2.681   2.358   9.607
 5298SOL    HW216431   2.602   2.483   9.638
 5299SOL     OW16432   3.504   2.463  10.495
 5299SOL    HW116433   3.495   2.405  10.570
 5299SOL    HW216434   3.591   2.445  10.460
 5300SOL     OW16435   2.116   3.426  11.052
 5300SOL    HW116436   2.059   3.460   0.021
 5300SOL    HW216437   2.124   3.333  11.071
 5301SOL     OW16438   2.802   3.544  10.758
 5301SOL    HW116439   2.764   3.511  10.676
 5301SOL    HW216440   2.787   3.639  10.754
 5302SOL     OW16441   2.016   3.000  10.781
 5302SOL    HW116442   2.008   2.945  10.859
 5302SOL    HW216443   2.029   2.938  10.709
 5303SOL     OW16444   3.186   2.915  10.538
 5303SOL    HW116445   3.213   2.849  10.474
 5303SOL    HW216446   3.116   2.964  10.495
 5304SOL     OW16447   3.173   2.719   9.616
 5304SOL    HW116448   3.098   2.688   9.667
 5304SOL    HW216449   3.148   2.705   9.525
 5305SOL     OW16450   3.636   3.607  10.462
 5305SOL    HW116451   3.695   3.633  10.390
 5305SOL    HW216452   3.610   3.517  10.441
 5306SOL     OW16453   3.103   3.596  10.423
 5306SOL    HW116454   3.185   3.617  10.379
 5306SOL    HW216455   3.108   3.502  10.441
 5307SOL     OW16456   1.946   3.129  10.322
 5307SOL    HW116457   1.934   3.142  10.416
 5307SOL    HW216458   1.871   3.075  10.295
 5308SOL     OW16459   3.581   2.008   9.820
 5308SOL    HW116460   3.654   1.993   9.760
 5308SOL    HW216461   3.565   1.922   9.860
 5309SOL     OW16462   3.252   3.430   9.794
 5309SOL    HW116463   3.313   3.462   9.728
 5309SOL    HW216464   3.204   3.507   9.823
 5310SOL     OW16465   3.140   2.789   9.982
 5310SOL    HW116466   3.212   2.727   9.988
 5310SOL    HW216467   3.174   2.861   9.929
 5311SOL     OW16468   2.680   3.136  10.738
 5311SOL    HW116469   2.650   3.170  10.822
 5311SOL    HW216470   2.611   3.158  10.676
 5312SOL     OW16471   2.533   3.481   9.465
 5312SOL    HW116472   2.544   3.493   9.371
 5312SOL    HW216473   2.479   3.403   9.474
 5313SOL     OW16474   3.484   3.582  10.696
 5313SOL    HW116475   3.539   3.596  10.619
 5313SOL    HW216476   3.470   3.670  10.731
 5314SOL     OW16477   3.702   2.035  10.278
 5314SOL    HW116478   3.732   1.948  10.250
 5314SOL    HW216479   3.616   2.045  10.238
 5315SOL     OW16480   3.069   3.468   9.342
 5315SOL    HW116481   3.060   3.377   9.368
 5315SOL    HW216482   3.004   3.480   9.272
 5316SOL     OW16483   2.686   2.868  10.687
 5316SOL    HW116484   2.732   2.858  10.603
 5316SOL    HW216485   2.689   2.962  10.703
 5317SOL     OW16486   2.777   2.772   9.599
 5317SOL    HW116487   2.839   2.804   9.534
 5317SOL    HW216488   2.825   2.702   9.645
 5318SOL     OW16489   3.354   3.487   9.352
 5318SOL    HW116490   3.260   3.481   9.339
 5318SOL    HW216491   3.391   3.493   9.264
 5319SOL     OW16492   2.229   3.169  10.805
 5319SOL    HW116493   2.215   3.243  10.746
 5319SOL    HW216494   2.156   3.110  10.787
 5320SOL     OW16495   3.475   3.144  10.593
 5320SOL    HW116496   3.531   3.130  10.670
 5320SOL    HW216497   3.418   3.216  10.618
 5321SOL     OW16498   2.913   2.968  10.016
 5321SOL    HW116499   2.843   2.916  10.055
 5321SOL    HW216500   2.976   2.903   9.985
 5322SOL     OW16501   2.885   2.101  10.276
 5322SOL    HW116502   2.879   2.053  10.193
 5322SOL    HW216503   2.878   2.033  10.343
 5323SOL     OW16504   2.465   3.351   9.792
 5323SOL    HW116505   2.508   3.300   9.722
 5323SOL    HW216506   2.395   3.398   9.747
 5324SOL     OW16507   3.579   2.256  10.689
 5324SOL    HW116508   3.652   2.318  10.690
 5324SOL    HW216509   3.610   2.185  10.633
 5325SOL     OW16510   2.121   3.206   9.599
 5325SOL    HW116511   2.028   3.205   9.576
 5325SOL    HW216512   2.123   3.244   9.687
 5326SOL     OW16513   1.975   2.871  11.019
 5326SOL    HW116514   1.907   2.856  11.085
 5326SOL    HW216515   2.057   2.844  11.061
 5327SOL     OW16516   2.544   2.049  10.798
 5327SOL    HW116517   2.629   2.025  10.761
 5327SOL    HW216518   2.565   2.091  10.881
 5328SOL     OW16519   1.898   2.191   9.354
 5328SOL    HW116520   1.821   2.156   9.308
 5328SOL    HW216521   1.919   2.271   9.306
 5329SOL     OW16522   3.291   2.711  10.710
 5329SOL    HW116523   3.243   2.779  10.663
 5329SOL    HW216524   3.381   2.720  10.679
 5330SOL     OW16525   1.932   2.018   9.622
 5330SOL    HW116526   1.910   2.094   9.568
 5330SOL    HW216527   2.017   1.989   9.589
 5331SOL     OW16528   3.041   3.202   9.427
 5331SOL    HW116529   2.950   3.171   9.430
 5331SOL    HW216530   3.069   3.202   9.518
 5332SOL     OW16531   2.485   2.691  10.740
 5332SOL    HW116532   2.539   2.769  10.728
 5332SOL    HW216533   2.548   2.619  10.745
 5333SOL     OW16534   3.345   3.638  10.288
 5333SOL    HW116535   3.370   3.698  10.217
 5333SOL    HW216536   3.427   3.619  10.333
 5334SOL     OW16537   2.579   2.429  11.015
 5334SOL    HW116538   2.612   2.502  11.067
 5334SOL    HW216539   2.629   2.354  11.044
 5335SOL     OW16540   2.245   3.594  10.871
 5335SOL    HW116541   2.166   3.648  10.864
 5335SOL    HW216542   2.219   3.522  10.929
 5336SOL     OW16543   3.532   2.744  10.567
 5336SOL    HW116544   3.525   2.659  10.525
 5336SOL    HW216545   3.524   2.807  10.496
 5337SOL     OW16546   3.079   2.181   9.768
 5337SOL    HW116547   3.142   2.110   9.760
 5337SOL    HW216548   3.107   2.230   9.845
 5338SOL     OW16549   2.441   2.612   9.961
 5338SOL    HW116550   2.488   2.696   9.953
 5338SOL    HW216551   2.363   2.623   9.907
 5339SOL     OW16552   3.611   2.180  10.954
 5339SOL    HW116553   3.594   2.218  10.867
 5339SOL    HW216554   3.532   2.199  11.004
 5340SOL     OW16555   3.611   2.798  10.825
 5340SOL    HW116556   3.603   2.892  10.839
 5340SOL    HW216557   3.594   2.785  10.732
 5341SOL     OW16558   2.724   3.229   9.343
 5341SOL    HW116559   2.686   3.257   9.427
 5341SOL    HW216560   2.743   3.311   9.297
 5342SOL     OW16561   2.522   3.654  10.255
 5342SOL    HW116562   2.502   3.744  10.232
 5342SOL    HW216563   2.618   3.648  10.247
 5343SOL     OW16564   2.728   2.828  10.165
 5343SOL    HW116565   2.778   2.756  10.203
 5343SOL    HW216566   2.697   2.878  10.241
 5344SOL     OW16567   2.940   2.849   9.398
 5344SOL    HW116568   2.920   2.901   9.320
 5344SOL    HW216569   3.016   2.797   9.373
 5345SOL     OW16570   3.717   3.417  10.154
 5345SOL    HW116571   3.639   3.405  10.101
 5345SOL    HW216572   3.710   3.349  10.222
 5346SOL     OW16573   1.945   3.097   9.975
 5346SOL    HW116574   1.946   3.048  10.057
 5346SOL    HW216575   2.013   3.055   9.922
 5347SOL     OW16576   2.541   3.256  10.939
 5347SOL    HW116577   2.468   3.206  10.975
 5347SOL    HW216578   2.508   3.346  10.933
 5348SOL     OW16579   3.672   2.045  10.549
 5348SOL    HW116580   3.682   1.951  10.561
 5348SOL    HW216581   3.683   2.059  10.455
 5349SOL     OW16582   3.563   3.353  10.408
 5349SOL    HW116583   3.482   3.327  10.362
 5349SOL    HW216584   3.577   3.283  10.472
 5350SOL     OW16585   2.689   3.440   9.988
 5350SOL    HW116586   2.677   3.492   9.909
 5350SOL    HW216587   2.612   3.383   9.991
 5351SOL     OW16588   3.294   2.086  10.428
 5351SOL    HW116589   3.320   2.006  10.474
 5351SOL    HW216590   3.243   2.135  10.493
 5352SOL     OW16591   2.871   1.879  10.453
 5352SOL    HW116592   2.818   1.812  10.410
 5352SOL    HW216593   2.959   1.842  10.455
 5353SOL     OW16594   2.634   3.194   9.624
 5353SOL    HW116595   2.602   3.104   9.630
 5353SOL    HW216596   2.716   3.195   9.673
 5354SOL     OW16597   2.481   3.417  10.597
 5354SOL    HW116598   2.482   3.500  10.644
 5354SOL    HW216599   2.568   3.411  10.557
 5355SOL     OW16600   3.214   1.916   9.475
 5355SOL    HW116601   3.242   1.852   9.409
 5355SOL    HW216602   3.127   1.886   9.501
 5356SOL     OW16603   3.159   2.323   9.991
 5356SOL    HW116604   3.104   2.401   9.997
 5356SOL    HW216605   3.154   2.283  10.078
 5357SOL     OW16606   3.449   2.065  10.188
 5357SOL    HW116607   3.387   2.084  10.258
 5357SOL    HW216608   3.448   2.143  10.132
 5358SOL     OW16609   1.904   2.933   9.617
 5358SOL    HW116610   1.998   2.925   9.600
 5358SOL    HW216611   1.876   2.844   9.639
 5359SOL     OW16612   2.746   3.514   9.653
 5359SOL    HW116613   2.673   3.497   9.593
 5359SOL    HW216614   2.716   3.590   9.704
 5360SOL     OW16615   2.063   4.296   0.088
 5360SOL    HW116616   2.041   4.354   0.161
 5360SOL    HW216617   2.079   4.355   0.014
 5361SOL     OW16618   2.086   4.001   0.991
 5361SOL    HW116619   2.114   3.967   1.076
 5361SOL    HW216620   1.996   3.970   0.981
 5362SOL     OW16621   1.866   4.102   0.643
 5362SOL    HW116622   1.784   4.130   0.682
 5362SOL    HW216623   1.844   4.025   0.591
 5363SOL     OW16624   3.597   4.332   0.230
 5363SOL    HW116625   3.608   4.305   0.139
 5363SOL    HW216626   3.588   4.249   0.278
 5364SOL     OW16627   2.597   0.271   0.687
 5364SOL    HW116628   2.586   0.204   0.755
 5364SOL    HW216629   2.509   0.285   0.652
 5365SOL     OW16630   2.311   4.116   1.485
 5365SOL    HW116631   2.387   4.059   1.492
 5365SOL    HW216632   2.236   4.059   1.502
 5366SOL     OW16633   3.477   4.172   0.741
 5366SOL    HW116634   3.409   4.197   0.678
 5366SOL    HW216635   3.477   4.242   0.806
 5367SOL     OW16636   3.458   3.847   1.469
 5367SOL    HW116637   3.463   3.927   1.417
 5367SOL    HW216638   3.444   3.877   1.558
 5368SOL     OW16639   1.948   4.368   0.562
 5368SOL    HW116640   1.931   4.278   0.589
 5368SOL    HW216641   2.004   4.403   0.631
 5369SOL     OW16642   1.981   4.475   1.584
 5369SOL    HW116643   2.049   4.493   1.649
 5369SOL    HW216644   1.948   0.062   1.559
 5370SOL     OW16645   2.677   3.726   0.507
 5370SOL    HW116646   2.715   3.812   0.491
 5370SOL    HW216647   2.583   3.743   0.517
 5371SOL     OW16648   2.195   3.974   1.811
 5371SOL    HW116649   2.235   4.060   1.826
 5371SOL    HW216650   2.105   3.984   1.839
 5372SOL     OW16651   3.139   4.073   0.932
 5372SOL    HW116652   3.050   4.040   0.943
 5372SOL    HW216653   3.191   4.021   0.994
 5373SOL     OW16654   2.689   4.306   1.448
 5373SOL    HW116655   2.649   4.310   1.535
 5373SOL    HW216656   2.623   4.265   1.393
 5374SOL     OW16657   3.257   4.199   1.676
 5374SOL    HW116658   3.259   4.244   1.761
 5374SOL    HW216659   3.316   4.124   1.687
 5375SOL     OW16660   2.859   4.150   1.234
 5375SOL    HW116661   2.786   4.172   1.292
 5375SOL    HW216662   2.821   4.091   1.168
 5376SOL     OW16663   2.921   4.403   0.422
 5376SOL    HW116664   2.919   4.458   0.501
 5376SOL    HW216665   2.829   4.383   0.404
 5377SOL     OW16666   2.749   4.073   0.209
 5377SOL    HW116667   2.794   4.131   0.148
 5377SOL    HW216668   2.763   3.985   0.174
 5378SOL     OW16669   3.570   4.298   1.829
 5378SOL    HW116670   3.582   4.386   1.794
 5378SOL    HW216671   3.592   4.240   1.756
 5379SOL     OW16672   2.413   3.905   0.892
 5379SOL    HW116673   2.414   3.933   0.984
 5379SOL    HW216674   2.410   3.986   0.842
 5380SOL     OW16675   3.350   4.464   0.739
 5380SOL    HW116676   3.334   4.410   0.816
 5380SOL    HW216677   3.391   0.043   0.774
 5381SOL     OW16678   2.061   4.004   1.503
 5381SOL    HW116679   1.976   4.049   1.496
 5381SOL    HW216680   2.045   3.934   1.566
 5382SOL     OW16681   3.264   3.830   0.431
 5382SOL    HW116682   3.256   3.808   0.338
 5382SOL    HW216683   3.358   3.840   0.446
 5383SOL     OW16684   2.216   4.382   0.405
 5383SOL    HW116685   2.256   4.309   0.452
 5383SOL    HW216686   2.144   4.412   0.462
 5384SOL     OW16687   3.397   3.950   1.725
 5384SOL    HW116688   3.406   3.971   1.818
 5384SOL    HW216689   3.329   3.883   1.722
 5385SOL     OW16690   2.478   3.830   0.126
 5385SOL    HW116691   2.568   3.797   0.119
 5385SOL    HW216692   2.441   3.816   0.039
 5386SOL     OW16693   2.628   4.002   1.754
 5386SOL    HW116694   2.704   3.944   1.755
 5386SOL    HW216695   2.579   3.979   1.833
 5387SOL     OW16696   3.205   4.311   1.429
 5387SOL    HW116697   3.227   4.275   1.515
 5387SOL    HW216698   3.247   4.397   1.428
 5388SOL     OW16699   2.786   4.236   0.899
 5388SOL    HW116700   2.763   4.220   0.807
 5388SOL    HW216701   2.825   4.154   0.929
 5389SOL     OW16702   2.411   3.787   0.505
 5389SOL    HW116703   2.330   3.786   0.554
 5389SOL    HW216704   2.405   3.866   0.450
 5390SOL     OW16705   2.148   3.771   0.200
 5390SOL    HW116706   2.189   3.825   0.133
 5390SOL    HW216707   2.216   3.708   0.225
 5391SOL     OW16708   2.801   3.973   0.464
 5391SOL    HW116709   2.774   4.013   0.381
 5391SOL    HW216710   2.896   3.986   0.468
 5392SOL     OW16711   2.937   4.396   1.522
 5392SOL    HW116712   2.854   4.366   1.486
 5392SOL    HW216713   3.003   4.356   1.466
 5393SOL     OW16714   2.870   4.264   0.041
 5393SOL    HW116715   2.884   4.320  11.065
 5393SOL    HW216716   2.951   4.273   0.092
 5394SOL     OW16717   1.937   4.280   1.393
 5394SOL    HW116718   2.029   4.272   1.365
 5394SOL    HW216719   1.937   4.353   1.454
 5395SOL     OW16720   2.421   3.950   1.164
 5395SOL    HW116721   2.462   3.874   1.204
 5395SOL    HW216722   2.330   3.948   1.195
 5396SOL     OW16723   2.730   4.188   0.639
 5396SOL    HW116724   2.701   4.252   0.573
 5396SOL    HW216725   2.749   4.109   0.590
 5397SOL     OW16726   2.876   3.777   0.752
 5397SOL    HW116727   2.818   3.769   0.676
 5397SOL    HW216728   2.855   3.702   0.807
 5398SOL     OW16729   3.339   4.312   0.966
 5398SOL    HW116730   3.280   4.239   0.985
 5398SOL    HW216731   3.390   4.323   1.046
 5399SOL     OW16732   3.263   4.292   0.073
 5399SOL    HW116733   3.197   4.276   0.140
 5399SOL    HW216734   3.328   4.224   0.086
 5400SOL     OW16735   2.390   3.992   0.327
 5400SOL    HW116736   2.416   3.930   0.258
 5400SOL    HW216737   2.371   4.073   0.280
 5401SOL     OW16738   2.780   3.821   1.396
 5401SOL    HW116739   2.804   3.801   1.306
 5401SOL    HW216740   2.859   3.860   1.433
 5402SOL     OW16741   2.297   0.009   1.275
 5402SOL    HW116742   2.364   0.002   1.343
 5402SOL    HW216743   2.254   4.423   1.275
 5403SOL     OW16744   3.127   4.100   1.275
 5403SOL    HW116745   3.161   4.177   1.320
 5403SOL    HW216746   3.038   4.123   1.250
 5404SOL     OW16747   2.415   4.254   0.865
 5404SOL    HW116748   2.436   4.296   0.781
 5404SOL    HW216749   2.480   4.289   0.926
 5405SOL     OW16750   3.439   4.339   0.480
 5405SOL    HW116751   3.398   4.404   0.538
 5405SOL    HW216752   3.486   4.391   0.415
 5406SOL     OW16753   2.858   3.847   1.756
 5406SOL    HW116754   2.914   3.919   1.729
 5406SOL    HW216755   2.906   3.768   1.730
 5407SOL     OW16756   2.360   3.765   1.747
 5407SOL    HW116757   2.317   3.711   1.682
 5407SOL    HW216758   2.301   3.839   1.760
 5408SOL     OW16759   3.072   4.250   0.264
 5408SOL    HW116760   3.084   4.172   0.317
 5408SOL    HW216761   3.024   4.311   0.320
 5409SOL     OW16762   2.161   3.923   1.247
 5409SOL    HW116763   2.123   3.955   1.328
 5409SOL    HW216764   2.142   3.829   1.247
 5410SOL     OW16765   2.594   4.360   1.044
 5410SOL    HW116766   2.668   4.323   0.995
 5410SOL    HW216767   2.603   4.455   1.033
 5411SOL     OW16768   3.614   0.134   1.854
 5411SOL    HW116769   3.548   0.148   1.786
 5411SOL    HW216770   3.570   0.159   1.936
 5412SOL     OW16771   2.165   3.789   0.623
 5412SOL    HW116772   2.145   3.880   0.647
 5412SOL    HW216773   2.171   3.743   0.707
 5413SOL     OW16774   3.477   4.092   0.367
 5413SOL    HW116775   3.506   4.029   0.433
 5413SOL    HW216776   3.454   4.170   0.417
 5414SOL     OW16777   3.396   4.014   0.116
 5414SOL    HW116778   3.337   3.941   0.131
 5414SOL    HW216779   3.429   4.037   0.202
 5415SOL     OW16780   2.180   0.012   0.919
 5415SOL    HW116781   2.257   0.068   0.932
 5415SOL    HW216782   2.193   4.439   0.980
 5416SOL     OW16783   2.198   4.240   1.021
 5416SOL    HW116784   2.159   4.155   1.002
 5416SOL    HW216785   2.272   4.247   0.961
 5417SOL     OW16786   2.999   4.093   1.686
 5417SOL    HW116787   2.947   4.152   1.739
 5417SOL    HW216788   3.084   4.138   1.677
 5418SOL     OW16789   3.022   3.926   1.469
 5418SOL    HW116790   3.013   3.987   1.542
 5418SOL    HW216791   3.062   3.978   1.399
 5419SOL     OW16792   1.898   4.272   1.115
 5419SOL    HW116793   1.979   4.255   1.067
 5419SOL    HW216794   1.925   4.274   1.207
 5420SOL     OW16795   2.055   4.244   1.717
 5420SOL    HW116796   2.110   4.197   1.654
 5420SOL    HW216797   2.002   4.302   1.664
 5421SOL     OW16798   2.676   4.309   0.327
 5421SOL    HW116799   2.687   4.223   0.288
 5421SOL    HW216800   2.582   4.315   0.345
 5422SOL     OW16801   3.498   4.318   1.187
 5422SOL    HW116802   3.494   4.260   1.263
 5422SOL    HW216803   3.587   4.305   1.152
 5423SOL     OW16804   2.547   4.182   1.254
 5423SOL    HW116805   2.501   4.104   1.223
 5423SOL    HW216806   2.549   4.241   1.179
 5424SOL     OW16807   2.334   4.218   0.183
 5424SOL    HW116808   2.374   4.303   0.200
 5424SOL    HW216809   2.240   4.236   0.182
 5425SOL     OW16810   2.780   3.814   0.105
 5425SOL    HW116811   2.830   3.778   0.032
 5425SOL    HW216812   2.816   3.772   0.183
 5426SOL     OW16813   3.581   3.870   0.511
 5426SOL    HW116814   3.654   3.856   0.450
 5426SOL    HW216815   3.566   3.783   0.550
 5427SOL     OW16816   3.140   0.136   0.681
 5427SOL    HW116817   3.196   0.060   0.692
 5427SOL    HW216818   3.189   0.195   0.625
 5428SOL     OW16819   3.701   3.896   0.968
 5428SOL    HW116820   3.731   3.810   0.939
 5428SOL    HW216821   3.616   3.907   0.927
 5429SOL     OW16822   2.124   4.042   0.718
 5429SOL    HW116823   2.037   4.072   0.693
 5429SOL    HW216824   2.120   4.030   0.813
 5430SOL     OW16825   2.924   0.301   0.726
 5430SOL    HW116826   2.842   0.264   0.693
 5430SOL    HW216827   2.990   0.236   0.703
 5431SOL     OW16828   2.882   3.964   0.965
 5431SOL    HW116829   2.877   3.915   0.883
 5431SOL    HW216830   2.877   3.897   1.033
 5432SOL     OW16831   3.583   4.114   1.380
 5432SOL    HW116832   3.654   4.178   1.377
 5432SOL    HW216833   3.613   4.043   1.323
 5433SOL     OW16834   2.536   3.919   1.500
 5433SOL    HW116835   2.620   3.900   1.458
 5433SOL    HW216836   2.559   3.952   1.587
 5434SOL     OW16837   1.942   4.050   0.056
 5434SOL    HW116838   1.875   4.047  11.087
 5434SOL    HW216839   1.970   4.141   0.058
 5435SOL     OW16840   1.929   3.883   0.313
 5435SOL    HW116841   1.914   3.956   0.254
 5435SOL    HW216842   2.012   3.845   0.285
 5436SOL     OW16843   2.592   4.286   1.702
 5436SOL    HW116844   2.591   4.331   1.786
 5436SOL    HW216845   2.610   4.194   1.724
 5437SOL     OW16846   3.079   4.039   0.456
 5437SOL    HW116847   3.143   3.969   0.447
 5437SOL    HW216848   3.108   4.089   0.533
 5438SOL     OW16849   3.622   4.090   1.649
 5438SOL    HW116850   3.605   4.101   1.555
 5438SOL    HW216851   3.553   4.031   1.679
 5439SOL     OW16852   2.961   0.205   0.051
 5439SOL    HW116853   2.960   0.291   0.009
 5439SOL    HW216854   3.052   0.175   0.042
 5440SOL     OW16855   3.676   3.908   1.238
 5440SOL    HW116856   3.684   3.813   1.252
 5440SOL    HW216857   3.684   3.919   1.144
 5441SOL     OW16858   2.305   4.157   0.538
 5441SOL    HW116859   2.328   4.087   0.477
 5441SOL    HW216860   2.249   4.115   0.603
 5442SOL     OW16861   2.186   4.264   1.294
 5442SOL    HW116862   2.243   4.209   1.349
 5442SOL    HW216863   2.206   4.238   1.205
 5443SOL     OW16864   3.294   3.949   1.117
 5443SOL    HW116865   3.319   3.869   1.163
 5443SOL    HW216866   3.242   3.998   1.181
 5444SOL     OW16867   2.871   3.743   1.143
 5444SOL    HW116868   2.816   3.675   1.103
 5444SOL    HW216869   2.959   3.705   1.145
 5445SOL     OW16870   3.213   3.779   0.164
 5445SOL    HW116871   3.235   3.726   0.086
 5445SOL    HW216872   3.126   3.747   0.190
 5446SOL     OW16873   3.161   4.175   0.680
 5446SOL    HW116874   3.124   4.262   0.694
 5446SOL    HW216875   3.161   4.135   0.767
 5447SOL     OW16876   3.448   3.926   0.877
 5447SOL    HW116877   3.388   3.948   0.949
 5447SOL    HW216878   3.449   4.005   0.822
 5448SOL     OW16879   2.086   4.287   1.986
 5448SOL    HW116880   2.034   4.357   2.023
 5448SOL    HW216881   2.078   4.297   1.891
 5449SOL     OW16882   2.086   4.000   2.852
 5449SOL    HW116883   2.114   3.968   2.938
 5449SOL    HW216884   1.996   3.970   2.843
 5450SOL     OW16885   1.867   4.101   2.505
 5450SOL    HW116886   1.785   4.131   2.544
 5450SOL    HW216887   1.842   4.024   2.454
 5451SOL     OW16888   3.593   4.335   2.099
 5451SOL    HW116889   3.592   4.322   2.004
 5451SOL    HW216890   3.594   4.246   2.136
 5452SOL     OW16891   2.592   0.271   2.549
 5452SOL    HW116892   2.582   0.208   2.620
 5452SOL    HW216893   2.503   0.284   2.517
 5453SOL     OW16894   2.311   4.116   3.347
 5453SOL    HW116895   2.387   4.059   3.354
 5453SOL    HW216896   2.236   4.058   3.364
 5454SOL     OW16897   3.477   4.172   2.602
 5454SOL    HW116898   3.407   4.198   2.541
 5454SOL    HW216899   3.477   4.241   2.668
 5455SOL     OW16900   3.458   3.847   3.331
 5455SOL    HW116901   3.463   3.927   3.279
 5455SOL    HW216902   3.444   3.877   3.420
 5456SOL     OW16903   1.937   4.374   2.433
 5456SOL    HW116904   1.931   4.280   2.452
 5456SOL    HW216905   2.006   4.406   2.491
 5457SOL     OW16906   1.981   4.475   3.446
 5457SOL    HW116907   2.049   4.493   3.511
 5457SOL    HW216908   1.949   0.062   3.421
 5458SOL     OW16909   2.676   3.724   2.370
 5458SOL    HW116910   2.716   3.809   2.352
 5458SOL    HW216911   2.583   3.744   2.379
 5459SOL     OW16912   2.195   3.974   3.672
 5459SOL    HW116913   2.235   4.060   3.688
 5459SOL    HW216914   2.105   3.984   3.701
 5460SOL     OW16915   3.139   4.072   2.794
 5460SOL    HW116916   3.050   4.040   2.805
 5460SOL    HW216917   3.191   4.021   2.856
 5461SOL     OW16918   2.690   4.305   3.310
 5461SOL    HW116919   2.649   4.310   3.397
 5461SOL    HW216920   2.623   4.265   3.255
 5462SOL     OW16921   3.257   4.199   3.538
 5462SOL    HW116922   3.259   4.244   3.623
 5462SOL    HW216923   3.316   4.124   3.549
 5463SOL     OW16924   2.859   4.149   3.096
 5463SOL    HW116925   2.787   4.172   3.154
 5463SOL    HW216926   2.820   4.091   3.030
 5464SOL     OW16927   2.918   4.410   2.280
 5464SOL    HW116928   2.916   4.451   2.366
 5464SOL    HW216929   2.831   4.372   2.270
 5465SOL     OW16930   2.753   4.064   2.051
 5465SOL    HW116931   2.795   4.127   1.992
 5465SOL    HW216932   2.772   3.979   2.013
 5466SOL     OW16933   3.570   4.298   3.691
 5466SOL    HW116934   3.582   4.387   3.656
 5466SOL    HW216935   3.592   4.240   3.618
 5467SOL     OW16936   2.412   3.905   2.754
 5467SOL    HW116937   2.414   3.933   2.846
 5467SOL    HW216938   2.411   3.987   2.704
 5468SOL     OW16939   3.352   4.465   2.600
 5468SOL    HW116940   3.335   4.410   2.676
 5468SOL    HW216941   3.392   0.044   2.636
 5469SOL     OW16942   2.060   4.004   3.365
 5469SOL    HW116943   1.976   4.049   3.358
 5469SOL    HW216944   2.045   3.934   3.429
 5470SOL     OW16945   3.263   3.830   2.294
 5470SOL    HW116946   3.253   3.806   2.202
 5470SOL    HW216947   3.357   3.840   2.307
 5471SOL     OW16948   2.216   4.387   2.269
 5471SOL    HW116949   2.255   4.311   2.314
 5471SOL    HW216950   2.146   4.416   2.328
 5472SOL     OW16951   3.397   3.950   3.587
 5472SOL    HW116952   3.406   3.971   3.680
 5472SOL    HW216953   3.329   3.883   3.584
 5473SOL     OW16954   2.496   3.847   1.967
 5473SOL    HW116955   2.565   3.783   1.980
 5473SOL    HW216956   2.447   3.815   1.891
 5474SOL     OW16957   2.628   4.002   3.616
 5474SOL    HW116958   2.704   3.944   3.617
 5474SOL    HW216959   2.579   3.980   3.695
 5475SOL     OW16960   3.205   4.311   3.291
 5475SOL    HW116961   3.227   4.275   3.377
 5475SOL    HW216962   3.247   4.398   3.290
 5476SOL     OW16963   2.785   4.236   2.760
 5476SOL    HW116964   2.763   4.220   2.668
 5476SOL    HW216965   2.824   4.154   2.790
 5477SOL     OW16966   2.411   3.787   2.364
 5477SOL    HW116967   2.330   3.787   2.416
 5477SOL    HW216968   2.404   3.866   2.310
 5478SOL     OW16969   2.154   3.771   2.047
 5478SOL    HW116970   2.212   3.836   2.007
 5478SOL    HW216971   2.212   3.708   2.088
 5479SOL     OW16972   2.799   3.972   2.323
 5479SOL    HW116973   2.773   4.010   2.240
 5479SOL    HW216974   2.894   3.984   2.327
 5480SOL     OW16975   2.937   4.395   3.385
 5480SOL    HW116976   2.854   4.366   3.348
 5480SOL    HW216977   3.003   4.356   3.328
 5481SOL     OW16978   2.887   4.266   1.889
 5481SOL    HW116979   2.870   4.354   1.853
 5481SOL    HW216980   2.950   4.280   1.959
 5482SOL     OW16981   1.937   4.280   3.255
 5482SOL    HW116982   2.029   4.272   3.227
 5482SOL    HW216983   1.937   4.353   3.317
 5483SOL     OW16984   2.421   3.950   3.026
 5483SOL    HW116985   2.462   3.874   3.067
 5483SOL    HW216986   2.330   3.948   3.057
 5484SOL     OW16987   2.731   4.189   2.499
 5484SOL    HW116988   2.697   4.248   2.431
 5484SOL    HW216989   2.750   4.108   2.452
 5485SOL     OW16990   2.876   3.777   2.614
 5485SOL    HW116991   2.818   3.769   2.538
 5485SOL    HW216992   2.855   3.702   2.669
 5486SOL     OW16993   3.339   4.311   2.827
 5486SOL    HW116994   3.280   4.239   2.847
 5486SOL    HW216995   3.390   4.323   2.907
 5487SOL     OW16996   3.265   4.295   1.935
 5487SOL    HW116997   3.202   4.268   2.002
 5487SOL    HW216998   3.347   4.254   1.961
 5488SOL     OW16999   2.387   3.988   2.181
 5488SOL    HW117000   2.430   3.938   2.111
 5488SOL    HW217001   2.370   4.074   2.142
 5489SOL     OW17002   2.780   3.821   3.258
 5489SOL    HW117003   2.804   3.801   3.168
 5489SOL    HW217004   2.859   3.860   3.295
 5490SOL     OW17005   2.297   0.009   3.137
 5490SOL    HW117006   2.364   0.003   3.205
 5490SOL    HW217007   2.254   4.423   3.138
 5491SOL     OW17008   3.127   4.100   3.137
 5491SOL    HW117009   3.161   4.177   3.182
 5491SOL    HW217010   3.038   4.123   3.112
 5492SOL     OW17011   2.415   4.253   2.727
 5492SOL    HW117012   2.435   4.296   2.643
 5492SOL    HW217013   2.480   4.289   2.788
 5493SOL     OW17014   3.431   4.339   2.339
 5493SOL    HW117015   3.404   4.404   2.404
 5493SOL    HW217016   3.492   4.385   2.282
 5494SOL     OW17017   2.858   3.847   3.618
 5494SOL    HW117018   2.914   3.920   3.591
 5494SOL    HW217019   2.906   3.768   3.592
 5495SOL     OW17020   2.360   3.765   3.609
 5495SOL    HW117021   2.316   3.711   3.543
 5495SOL    HW217022   2.301   3.839   3.622
 5496SOL     OW17023   3.072   4.254   2.126
 5496SOL    HW117024   3.082   4.175   2.178
 5496SOL    HW217025   3.023   4.314   2.182
 5497SOL     OW17026   2.161   3.923   3.109
 5497SOL    HW117027   2.124   3.955   3.190
 5497SOL    HW217028   2.142   3.829   3.109
 5498SOL     OW17029   2.594   4.360   2.906
 5498SOL    HW117030   2.667   4.324   2.857
 5498SOL    HW217031   2.603   4.455   2.896
 5499SOL     OW17032   3.614   0.134   3.716
 5499SOL    HW117033   3.548   0.148   3.648
 5499SOL    HW217034   3.570   0.159   3.797
 5500SOL     OW17035   2.165   3.789   2.485
 5500SOL    HW117036   2.145   3.879   2.508
 5500SOL    HW217037   2.172   3.743   2.569
 5501SOL     OW17038   3.476   4.091   2.230
 5501SOL    HW117039   3.505   4.030   2.298
 5501SOL    HW217040   3.452   4.171   2.278
 5502SOL     OW17041   3.389   3.999   1.989
 5502SOL    HW117042   3.326   3.932   2.015
 5502SOL    HW217043   3.424   4.032   2.071
 5503SOL     OW17044   2.181   0.012   2.782
 5503SOL    HW117045   2.257   0.069   2.794
 5503SOL    HW217046   2.194   4.440   2.843
 5504SOL     OW17047   2.199   4.240   2.884
 5504SOL    HW117048   2.159   4.155   2.864
 5504SOL    HW217049   2.272   4.247   2.823
 5505SOL     OW17050   2.999   4.093   3.548
 5505SOL    HW117051   2.946   4.152   3.601
 5505SOL    HW217052   3.084   4.138   3.539
 5506SOL     OW17053   3.022   3.926   3.331
 5506SOL    HW117054   3.013   3.987   3.404
 5506SOL    HW217055   3.062   3.978   3.261
 5507SOL     OW17056   1.898   4.272   2.977
 5507SOL    HW117057   1.979   4.256   2.929
 5507SOL    HW217058   1.925   4.274   3.069
 5508SOL     OW17059   2.055   4.244   3.579
 5508SOL    HW117060   2.111   4.198   3.516
 5508SOL    HW217061   2.002   4.303   3.526
 5509SOL     OW17062   2.681   4.281   2.213
 5509SOL    HW117063   2.682   4.208   2.151
 5509SOL    HW217064   2.594   4.320   2.201
 5510SOL     OW17065   3.498   4.317   3.048
 5510SOL    HW117066   3.494   4.260   3.125
 5510SOL    HW217067   3.587   4.304   3.014
 5511SOL     OW17068   2.547   4.182   3.116
 5511SOL    HW117069   2.501   4.104   3.084
 5511SOL    HW217070   2.549   4.241   3.041
 5512SOL     OW17071   2.343   4.223   2.052
 5512SOL    HW117072   2.374   4.311   2.074
 5512SOL    HW217073   2.248   4.234   2.040
 5513SOL     OW17074   3.582   3.869   2.373
 5513SOL    HW117075   3.654   3.855   2.312
 5513SOL    HW217076   3.566   3.783   2.412
 5514SOL     OW17077   3.141   0.136   2.541
 5514SOL    HW117078   3.199   0.061   2.552
 5514SOL    HW217079   3.192   0.198   2.489
 5515SOL     OW17080   3.701   3.896   2.830
 5515SOL    HW117081   3.731   3.810   2.801
 5515SOL    HW217082   3.616   3.907   2.789
 5516SOL     OW17083   2.124   4.041   2.580
 5516SOL    HW117084   2.037   4.071   2.555
 5516SOL    HW217085   2.120   4.030   2.675
 5517SOL     OW17086   2.769   0.090   2.079
 5517SOL    HW117087   2.850   0.131   2.049
 5517SOL    HW217088   2.791   0.054   2.165
 5518SOL     OW17089   2.928   0.299   2.603
 5518SOL    HW117090   2.851   0.286   2.548
 5518SOL    HW217091   2.992   0.235   2.572
 5519SOL     OW17092   2.882   3.964   2.827
 5519SOL    HW117093   2.878   3.915   2.745
 5519SOL    HW217094   2.877   3.897   2.895
 5520SOL     OW17095   3.583   4.114   3.242
 5520SOL    HW117096   3.654   4.178   3.239
 5520SOL    HW217097   3.613   4.043   3.185
 5521SOL     OW17098   2.536   3.919   3.362
 5521SOL    HW117099   2.620   3.900   3.320
 5521SOL    HW217100   2.559   3.952   3.449
 5522SOL     OW17101   1.937   4.043   1.891
 5522SOL    HW117102   1.850   4.036   1.852
 5522SOL    HW217103   1.969   4.129   1.865
 5523SOL     OW17104   1.931   3.880   2.173
 5523SOL    HW117105   1.916   3.960   2.122
 5523SOL    HW217106   2.015   3.848   2.142
 5524SOL     OW17107   2.591   4.286   3.564
 5524SOL    HW117108   2.592   4.332   3.648
 5524SOL    HW217109   2.611   4.195   3.586
 5525SOL     OW17110   3.080   4.042   2.316
 5525SOL    HW117111   3.143   3.970   2.308
 5525SOL    HW217112   3.109   4.090   2.394
 5526SOL     OW17113   3.622   4.090   3.511
 5526SOL    HW117114   3.605   4.101   3.417
 5526SOL    HW217115   3.553   4.032   3.541
 5527SOL     OW17116   2.973   0.227   1.965
 5527SOL    HW117117   2.958   0.269   1.880
 5527SOL    HW217118   3.057   0.183   1.955
 5528SOL     OW17119   3.676   3.907   3.100
 5528SOL    HW117120   3.685   3.813   3.114
 5528SOL    HW217121   3.684   3.919   3.006
 5529SOL     OW17122   2.303   4.157   2.399
 5529SOL    HW117123   2.326   4.087   2.337
 5529SOL    HW217124   2.249   4.114   2.465
 5530SOL     OW17125   2.186   4.264   3.156
 5530SOL    HW117126   2.243   4.209   3.211
 5530SOL    HW217127   2.206   4.238   3.067
 5531SOL     OW17128   3.294   3.948   2.980
 5531SOL    HW117129   3.320   3.869   3.026
 5531SOL    HW217130   3.242   3.998   3.043
 5532SOL     OW17131   2.871   3.743   3.005
 5532SOL    HW117132   2.817   3.675   2.965
 5532SOL    HW217133   2.959   3.706   3.007
 5533SOL     OW17134   3.214   3.778   2.026
 5533SOL    HW117135   3.242   3.714   1.961
 5533SOL    HW217136   3.127   3.748   2.053
 5534SOL     OW17137   3.161   4.175   2.543
 5534SOL    HW117138   3.124   4.263   2.558
 5534SOL    HW217139   3.160   4.134   2.630
 5535SOL     OW17140   3.448   3.926   2.739
 5535SOL    HW117141   3.388   3.948   2.810
 5535SOL    HW217142   3.449   4.005   2.684
 5536SOL     OW17143   2.086   4.286   3.848
 5536SOL    HW117144   2.034   4.358   3.885
 5536SOL    HW217145   2.078   4.297   3.753
 5537SOL     OW17146   2.086   4.001   4.714
 5537SOL    HW117147   2.114   3.968   4.800
 5537SOL    HW217148   1.996   3.970   4.705
 5538SOL     OW17149   1.867   4.100   4.367
 5538SOL    HW117150   1.785   4.131   4.406
 5538SOL    HW217151   1.842   4.023   4.316
 5539SOL     OW17152   3.593   4.335   3.961
 5539SOL    HW117153   3.593   4.322   3.866
 5539SOL    HW217154   3.594   4.246   3.998
 5540SOL     OW17155   2.592   0.271   4.411
 5540SOL    HW117156   2.582   0.208   4.482
 5540SOL    HW217157   2.503   0.285   4.379
 5541SOL     OW17158   2.311   4.116   5.210
 5541SOL    HW117159   2.387   4.059   5.216
 5541SOL    HW217160   2.236   4.058   5.226
 5542SOL     OW17161   3.477   4.172   4.464
 5542SOL    HW117162   3.408   4.198   4.403
 5542SOL    HW217163   3.477   4.241   4.530
 5543SOL     OW17164   3.458   3.847   5.193
 5543SOL    HW117165   3.463   3.927   5.141
 5543SOL    HW217166   3.444   3.877   5.282
 5544SOL     OW17167   1.936   4.374   4.296
 5544SOL    HW117168   1.931   4.281   4.314
 5544SOL    HW217169   2.006   4.406   4.353
 5545SOL     OW17170   1.981   4.475   5.308
 5545SOL    HW117171   2.050   4.493   5.372
 5545SOL    HW217172   1.949   0.062   5.283
 5546SOL     OW17173   2.676   3.724   4.229
 5546SOL    HW117174   2.716   3.810   4.213
 5546SOL    HW217175   2.583   3.744   4.240
 5547SOL     OW17176   2.195   3.974   5.536
 5547SOL    HW117177   2.235   4.060   5.550
 5547SOL    HW217178   2.104   3.985   5.564
 5548SOL     OW17179   3.139   4.072   4.656
 5548SOL    HW117180   3.050   4.039   4.667
 5548SOL    HW217181   3.191   4.021   4.718
 5549SOL     OW17182   2.689   4.305   5.172
 5549SOL    HW117183   2.648   4.310   5.259
 5549SOL    HW217184   2.623   4.265   5.116
 5550SOL     OW17185   3.257   4.199   5.400
 5550SOL    HW117186   3.259   4.244   5.485
 5550SOL    HW217187   3.315   4.124   5.411
 5551SOL     OW17188   2.859   4.149   4.958
 5551SOL    HW117189   2.787   4.172   5.016
 5551SOL    HW217190   2.821   4.091   4.892
 5552SOL     OW17191   2.918   4.410   4.142
 5552SOL    HW117192   2.916   4.451   4.228
 5552SOL    HW217193   2.831   4.371   4.132
 5553SOL     OW17194   2.753   4.064   3.913
 5553SOL    HW117195   2.794   4.127   3.854
 5553SOL    HW217196   2.772   3.979   3.875
 5554SOL     OW17197   3.570   4.298   5.553
 5554SOL    HW117198   3.582   4.386   5.518
 5554SOL    HW217199   3.592   4.240   5.480
 5555SOL     OW17200   2.412   3.906   4.616
 5555SOL    HW117201   2.413   3.933   4.708
 5555SOL    HW217202   2.411   3.988   4.566
 5556SOL     OW17203   3.353   4.465   4.462
 5556SOL    HW117204   3.335   4.410   4.538
 5556SOL    HW217205   3.392   0.044   4.498
 5557SOL     OW17206   2.061   4.004   5.227
 5557SOL    HW117207   1.976   4.049   5.220
 5557SOL    HW217208   2.044   3.932   5.289
 5558SOL     OW17209   3.263   3.830   4.156
 5558SOL    HW117210   3.254   3.806   4.064
 5558SOL    HW217211   3.357   3.840   4.169
 5559SOL     OW17212   2.216   4.387   4.131
 5559SOL    HW117213   2.254   4.311   4.175
 5559SOL    HW217214   2.147   4.417   4.190
 5560SOL     OW17215   3.397   3.950   5.449
 5560SOL    HW117216   3.406   3.971   5.542
 5560SOL    HW217217   3.329   3.882   5.446
 5561SOL     OW17218   2.495   3.847   3.830
 5561SOL    HW117219   2.565   3.783   3.842
 5561SOL    HW217220   2.447   3.815   3.754
 5562SOL     OW17221   2.628   4.002   5.478
 5562SOL    HW117222   2.704   3.944   5.479
 5562SOL    HW217223   2.580   3.981   5.558
 5563SOL     OW17224   3.205   4.312   5.153
 5563SOL    HW117225   3.227   4.275   5.238
 5563SOL    HW217226   3.247   4.398   5.152
 5564SOL     OW17227   2.785   4.236   4.622
 5564SOL    HW117228   2.763   4.220   4.530
 5564SOL    HW217229   2.824   4.154   4.652
 5565SOL     OW17230   2.411   3.787   4.226
 5565SOL    HW117231   2.330   3.787   4.278
 5565SOL    HW217232   2.404   3.866   4.172
 5566SOL     OW17233   2.154   3.771   3.909
 5566SOL    HW117234   2.212   3.836   3.870
 5566SOL    HW217235   2.212   3.708   3.950
 5567SOL     OW17236   2.799   3.972   4.185
 5567SOL    HW117237   2.773   4.010   4.102
 5567SOL    HW217238   2.894   3.984   4.189
 5568SOL     OW17239   2.937   4.395   5.247
 5568SOL    HW117240   2.854   4.366   5.210
 5568SOL    HW217241   3.003   4.357   5.190
 5569SOL     OW17242   2.886   4.266   3.751
 5569SOL    HW117243   2.870   4.354   3.715
 5569SOL    HW217244   2.950   4.280   3.821
 5570SOL     OW17245   1.937   4.280   5.117
 5570SOL    HW117246   2.029   4.272   5.089
 5570SOL    HW217247   1.937   4.353   5.179
 5571SOL     OW17248   2.421   3.950   4.888
 5571SOL    HW117249   2.463   3.874   4.928
 5571SOL    HW217250   2.331   3.947   4.919
 5572SOL     OW17251   2.731   4.189   4.361
 5572SOL    HW117252   2.697   4.248   4.293
 5572SOL    HW217253   2.750   4.108   4.314
 5573SOL     OW17254   2.877   3.777   4.475
 5573SOL    HW117255   2.819   3.769   4.399
 5573SOL    HW217256   2.856   3.702   4.530
 5574SOL     OW17257   3.339   4.311   4.689
 5574SOL    HW117258   3.280   4.239   4.709
 5574SOL    HW217259   3.390   4.323   4.769
 5575SOL     OW17260   3.265   4.296   3.797
 5575SOL    HW117261   3.202   4.269   3.864
 5575SOL    HW217262   3.347   4.255   3.823
 5576SOL     OW17263   2.387   3.988   4.043
 5576SOL    HW117264   2.430   3.938   3.973
 5576SOL    HW217265   2.370   4.074   4.004
 5577SOL     OW17266   2.780   3.822   5.120
 5577SOL    HW117267   2.803   3.801   5.029
 5577SOL    HW217268   2.859   3.860   5.157
 5578SOL     OW17269   2.296   0.009   4.999
 5578SOL    HW117270   2.364   0.002   5.066
 5578SOL    HW217271   2.253   4.423   5.000
 5579SOL     OW17272   3.127   4.100   4.999
 5579SOL    HW117273   3.161   4.177   5.044
 5579SOL    HW217274   3.038   4.123   4.974
 5580SOL     OW17275   2.415   4.254   4.589
 5580SOL    HW117276   2.435   4.296   4.505
 5580SOL    HW217277   2.480   4.289   4.650
 5581SOL     OW17278   3.431   4.339   4.201
 5581SOL    HW117279   3.404   4.404   4.266
 5581SOL    HW217280   3.491   4.385   4.144
 5582SOL     OW17281   2.858   3.847   5.480
 5582SOL    HW117282   2.914   3.919   5.453
 5582SOL    HW217283   2.906   3.768   5.454
 5583SOL     OW17284   2.359   3.765   5.472
 5583SOL    HW117285   2.316   3.711   5.406
 5583SOL    HW217286   2.301   3.840   5.484
 5584SOL     OW17287   3.072   4.254   3.988
 5584SOL    HW117288   3.082   4.174   4.040
 5584SOL    HW217289   3.023   4.314   4.044
 5585SOL     OW17290   2.161   3.923   4.971
 5585SOL    HW117291   2.124   3.955   5.052
 5585SOL    HW217292   2.142   3.829   4.971
 5586SOL     OW17293   2.594   4.360   4.768
 5586SOL    HW117294   2.667   4.324   4.719
 5586SOL    HW217295   2.603   4.455   4.758
 5587SOL     OW17296   3.614   0.134   5.578
 5587SOL    HW117297   3.548   0.148   5.510
 5587SOL    HW217298   3.570   0.159   5.659
 5588SOL     OW17299   2.165   3.789   4.347
 5588SOL    HW117300   2.145   3.879   4.371
 5588SOL    HW217301   2.172   3.743   4.431
 5589SOL     OW17302   3.476   4.091   4.092
 5589SOL    HW117303   3.505   4.030   4.160
 5589SOL    HW217304   3.452   4.171   4.140
 5590SOL     OW17305   3.389   3.999   3.851
 5590SOL    HW117306   3.326   3.932   3.877
 5590SOL    HW217307   3.424   4.032   3.933
 5591SOL     OW17308   2.180   0.012   4.644
 5591SOL    HW117309   2.257   0.069   4.656
 5591SOL    HW217310   2.195   4.440   4.705
 5592SOL     OW17311   2.199   4.240   4.746
 5592SOL    HW117312   2.159   4.155   4.726
 5592SOL    HW217313   2.272   4.247   4.685
 5593SOL     OW17314   2.999   4.093   5.410
 5593SOL    HW117315   2.946   4.153   5.463
 5593SOL    HW217316   3.084   4.137   5.401
 5594SOL     OW17317   3.022   3.926   5.193
 5594SOL    HW117318   3.013   3.988   5.266
 5594SOL    HW217319   3.062   3.978   5.123
 5595SOL     OW17320   1.898   4.272   4.839
 5595SOL    HW117321   1.979   4.256   4.791
 5595SOL    HW217322   1.925   4.274   4.931
 5596SOL     OW17323   2.055   4.243   5.441
 5596SOL    HW117324   2.111   4.198   5.377
 5596SOL    HW217325   2.002   4.303   5.388
 5597SOL     OW17326   2.681   4.281   4.075
 5597SOL    HW117327   2.682   4.207   4.013
 5597SOL    HW217328   2.595   4.321   4.063
 5598SOL     OW17329   3.498   4.318   4.911
 5598SOL    HW117330   3.494   4.260   4.987
 5598SOL    HW217331   3.586   4.304   4.876
 5599SOL     OW17332   2.546   4.183   4.978
 5599SOL    HW117333   2.501   4.104   4.946
 5599SOL    HW217334   2.549   4.241   4.903
 5600SOL     OW17335   2.342   4.223   3.914
 5600SOL    HW117336   2.374   4.311   3.936
 5600SOL    HW217337   2.248   4.234   3.902
 5601SOL     OW17338   3.582   3.869   4.235
 5601SOL    HW117339   3.654   3.855   4.174
 5601SOL    HW217340   3.566   3.783   4.274
 5602SOL     OW17341   3.141   0.136   4.403
 5602SOL    HW117342   3.200   0.061   4.413
 5602SOL    HW217343   3.192   0.199   4.352
 5603SOL     OW17344   3.701   3.896   4.692
 5603SOL    HW117345   3.731   3.810   4.663
 5603SOL    HW217346   3.616   3.907   4.651
 5604SOL     OW17347   2.124   4.041   4.442
 5604SOL    HW117348   2.037   4.071   4.417
 5604SOL    HW217349   2.120   4.030   4.537
 5605SOL     OW17350   2.769   0.090   3.941
 5605SOL    HW117351   2.850   0.130   3.911
 5605SOL    HW217352   2.791   0.054   4.027
 5606SOL     OW17353   2.928   0.299   4.466
 5606SOL    HW117354   2.851   0.286   4.410
 5606SOL    HW217355   2.991   0.235   4.434
 5607SOL     OW17356   2.882   3.964   4.689
 5607SOL    HW117357   2.878   3.915   4.606
 5607SOL    HW217358   2.877   3.897   4.757
 5608SOL     OW17359   3.583   4.114   5.104
 5608SOL    HW117360   3.654   4.178   5.101
 5608SOL    HW217361   3.613   4.043   5.047
 5609SOL     OW17362   2.536   3.921   5.224
 5609SOL    HW117363   2.620   3.901   5.182
 5609SOL    HW217364   2.560   3.953   5.311
 5610SOL     OW17365   1.937   4.042   3.753
 5610SOL    HW117366   1.850   4.037   3.713
 5610SOL    HW217367   1.969   4.129   3.728
 5611SOL     OW17368   1.931   3.880   4.035
 5611SOL    HW117369   1.916   3.960   3.984
 5611SOL    HW217370   2.015   3.848   4.004
 5612SOL     OW17371   2.590   4.286   5.426
 5612SOL    HW117372   2.593   4.332   5.510
 5612SOL    HW217373   2.610   4.195   5.447
 5613SOL     OW17374   3.080   4.042   4.178
 5613SOL    HW117375   3.143   3.970   4.171
 5613SOL    HW217376   3.109   4.090   4.256
 5614SOL     OW17377   3.622   4.090   5.373
 5614SOL    HW117378   3.605   4.101   5.279
 5614SOL    HW217379   3.553   4.031   5.403
 5615SOL     OW17380   2.973   0.227   3.827
 5615SOL    HW117381   2.959   0.270   3.742
 5615SOL    HW217382   3.057   0.183   3.817
 5616SOL     OW17383   3.676   3.907   4.962
 5616SOL    HW117384   3.684   3.813   4.976
 5616SOL    HW217385   3.684   3.919   4.868
 5617SOL     OW17386   2.303   4.157   4.261
 5617SOL    HW117387   2.326   4.087   4.199
 5617SOL    HW217388   2.249   4.114   4.327
 5618SOL     OW17389   2.186   4.264   5.019
 5618SOL    HW117390   2.243   4.209   5.073
 5618SOL    HW217391   2.206   4.238   4.929
 5619SOL     OW17392   3.294   3.948   4.842
 5619SOL    HW117393   3.319   3.869   4.888
 5619SOL    HW217394   3.242   3.998   4.905
 5620SOL     OW17395   2.871   3.743   4.867
 5620SOL    HW117396   2.816   3.675   4.828
 5620SOL    HW217397   2.959   3.705   4.869
 5621SOL     OW17398   3.214   3.778   3.888
 5621SOL    HW117399   3.242   3.714   3.822
 5621SOL    HW217400   3.127   3.748   3.915
 5622SOL     OW17401   3.161   4.175   4.405
 5622SOL    HW117402   3.124   4.263   4.419
 5622SOL    HW217403   3.160   4.134   4.492
 5623SOL     OW17404   3.448   3.926   4.601
 5623SOL    HW117405   3.388   3.948   4.673
 5623SOL    HW217406   3.449   4.005   4.546
 5624SOL     OW17407   2.086   4.286   5.710
 5624SOL    HW117408   2.034   4.358   5.747
 5624SOL    HW217409   2.078   4.297   5.615
 5625SOL     OW17410   2.086   4.000   6.576
 5625SOL    HW117411   2.114   3.968   6.662
 5625SOL    HW217412   1.996   3.970   6.567
 5626SOL     OW17413   1.867   4.101   6.229
 5626SOL    HW117414   1.785   4.131   6.268
 5626SOL    HW217415   1.842   4.024   6.178
 5627SOL     OW17416   3.593   4.335   5.823
 5627SOL    HW117417   3.592   4.322   5.729
 5627SOL    HW217418   3.594   4.246   5.860
 5628SOL     OW17419   2.592   0.271   6.273
 5628SOL    HW117420   2.582   0.207   6.344
 5628SOL    HW217421   2.503   0.284   6.240
 5629SOL     OW17422   2.311   4.116   7.071
 5629SOL    HW117423   2.387   4.059   7.078
 5629SOL    HW217424   2.236   4.058   7.088
 5630SOL     OW17425   3.477   4.172   6.326
 5630SOL    HW117426   3.408   4.198   6.265
 5630SOL    HW217427   3.478   4.242   6.391
 5631SOL     OW17428   3.458   3.847   7.055
 5631SOL    HW117429   3.463   3.927   7.003
 5631SOL    HW217430   3.444   3.877   7.144
 5632SOL     OW17431   1.937   4.374   6.157
 5632SOL    HW117432   1.931   4.280   6.177
 5632SOL    HW217433   2.006   4.406   6.215
 5633SOL     OW17434   1.981   4.475   7.170
 5633SOL    HW117435   2.049   4.493   7.234
 5633SOL    HW217436   1.949   0.062   7.145
 5634SOL     OW17437   2.676   3.725   6.091
 5634SOL    HW117438   2.717   3.810   6.075
 5634SOL    HW217439   2.583   3.745   6.103
 5635SOL     OW17440   2.195   3.975   7.396
 5635SOL    HW117441   2.235   4.060   7.413
 5635SOL    HW217442   2.105   3.984   7.425
 5636SOL     OW17443   3.139   4.072   6.518
 5636SOL    HW117444   3.050   4.039   6.529
 5636SOL    HW217445   3.191   4.021   6.580
 5637SOL     OW17446   2.689   4.306   7.034
 5637SOL    HW117447   2.649   4.310   7.121
 5637SOL    HW217448   2.623   4.265   6.979
 5638SOL     OW17449   3.257   4.199   7.262
 5638SOL    HW117450   3.259   4.244   7.347
 5638SOL    HW217451   3.316   4.124   7.273
 5639SOL     OW17452   2.859   4.150   6.820
 5639SOL    HW117453   2.787   4.172   6.878
 5639SOL    HW217454   2.821   4.091   6.754
 5640SOL     OW17455   2.918   4.410   6.004
 5640SOL    HW117456   2.916   4.451   6.090
 5640SOL    HW217457   2.831   4.371   5.994
 5641SOL     OW17458   2.753   4.064   5.774
 5641SOL    HW117459   2.794   4.128   5.716
 5641SOL    HW217460   2.775   3.979   5.737
 5642SOL     OW17461   3.570   4.298   7.415
 5642SOL    HW117462   3.582   4.386   7.380
 5642SOL    HW217463   3.592   4.240   7.342
 5643SOL     OW17464   2.412   3.905   6.478
 5643SOL    HW117465   2.413   3.933   6.570
 5643SOL    HW217466   2.411   3.987   6.429
 5644SOL     OW17467   3.352   4.465   6.324
 5644SOL    HW117468   3.335   4.410   6.401
 5644SOL    HW217469   3.392   0.044   6.360
 5645SOL     OW17470   2.060   4.004   7.089
 5645SOL    HW117471   1.976   4.049   7.082
 5645SOL    HW217472   2.045   3.934   7.153
 5646SOL     OW17473   3.263   3.831   6.018
 5646SOL    HW117474   3.254   3.806   5.926
 5646SOL    HW217475   3.357   3.839   6.031
 5647SOL     OW17476   2.217   4.387   5.994
 5647SOL    HW117477   2.255   4.312   6.038
 5647SOL    HW217478   2.146   4.416   6.052
 5648SOL     OW17479   3.397   3.950   7.311
 5648SOL    HW117480   3.406   3.971   7.404
 5648SOL    HW217481   3.329   3.883   7.308
 5649SOL     OW17482   2.494   3.844   5.693
 5649SOL    HW117483   2.568   3.785   5.700
 5649SOL    HW217484   2.446   3.814   5.616
 5650SOL     OW17485   2.628   4.002   7.340
 5650SOL    HW117486   2.704   3.944   7.341
 5650SOL    HW217487   2.579   3.980   7.419
 5651SOL     OW17488   3.205   4.312   7.015
 5651SOL    HW117489   3.227   4.275   7.101
 5651SOL    HW217490   3.247   4.397   7.014
 5652SOL     OW17491   2.785   4.236   6.484
 5652SOL    HW117492   2.763   4.220   6.392
 5652SOL    HW217493   2.824   4.154   6.514
 5653SOL     OW17494   2.410   3.787   6.088
 5653SOL    HW117495   2.330   3.788   6.140
 5653SOL    HW217496   2.404   3.866   6.034
 5654SOL     OW17497   2.154   3.771   5.772
 5654SOL    HW117498   2.211   3.836   5.730
 5654SOL    HW217499   2.214   3.708   5.811
 5655SOL     OW17500   2.800   3.971   6.047
 5655SOL    HW117501   2.773   4.011   5.964
 5655SOL    HW217502   2.894   3.984   6.051
 5656SOL     OW17503   2.937   4.395   7.109
 5656SOL    HW117504   2.854   4.366   7.072
 5656SOL    HW217505   3.004   4.356   7.052
 5657SOL     OW17506   2.886   4.267   5.613
 5657SOL    HW117507   2.871   4.354   5.577
 5657SOL    HW217508   2.950   4.280   5.682
 5658SOL     OW17509   1.937   4.280   6.979
 5658SOL    HW117510   2.029   4.272   6.951
 5658SOL    HW217511   1.937   4.353   7.040
 5659SOL     OW17512   2.421   3.950   6.750
 5659SOL    HW117513   2.463   3.874   6.792
 5659SOL    HW217514   2.331   3.947   6.781
 5660SOL     OW17515   2.731   4.189   6.222
 5660SOL    HW117516   2.697   4.248   6.155
 5660SOL    HW217517   2.750   4.108   6.176
 5661SOL     OW17518   2.876   3.778   6.339
 5661SOL    HW117519   2.819   3.769   6.262
 5661SOL    HW217520   2.856   3.701   6.393
 5662SOL     OW17521   3.339   4.311   6.551
 5662SOL    HW117522   3.280   4.239   6.571
 5662SOL    HW217523   3.390   4.323   6.631
 5663SOL     OW17524   3.265   4.296   5.659
 5663SOL    HW117525   3.202   4.268   5.726
 5663SOL    HW217526   3.347   4.254   5.685
 5664SOL     OW17527   2.387   3.988   5.905
 5664SOL    HW117528   2.429   3.938   5.835
 5664SOL    HW217529   2.370   4.074   5.867
 5665SOL     OW17530   2.780   3.821   6.982
 5665SOL    HW117531   2.804   3.801   6.891
 5665SOL    HW217532   2.859   3.860   7.019
 5666SOL     OW17533   2.297   0.009   6.861
 5666SOL    HW117534   2.364   0.002   6.928
 5666SOL    HW217535   2.254   4.423   6.862
 5667SOL     OW17536   3.127   4.100   6.861
 5667SOL    HW117537   3.161   4.177   6.906
 5667SOL    HW217538   3.038   4.123   6.836
 5668SOL     OW17539   2.415   4.253   6.451
 5668SOL    HW117540   2.435   4.296   6.367
 5668SOL    HW217541   2.480   4.289   6.512
 5669SOL     OW17542   3.431   4.339   6.063
 5669SOL    HW117543   3.404   4.404   6.128
 5669SOL    HW217544   3.491   4.385   6.006
 5670SOL     OW17545   2.858   3.847   7.341
 5670SOL    HW117546   2.914   3.919   7.315
 5670SOL    HW217547   2.906   3.768   7.316
 5671SOL     OW17548   2.360   3.765   7.333
 5671SOL    HW117549   2.316   3.711   7.268
 5671SOL    HW217550   2.301   3.839   7.345
 5672SOL     OW17551   3.072   4.254   5.850
 5672SOL    HW117552   3.082   4.175   5.902
 5672SOL    HW217553   3.023   4.314   5.906
 5673SOL     OW17554   2.161   3.923   6.832
 5673SOL    HW117555   2.124   3.956   6.914
 5673SOL    HW217556   2.142   3.829   6.833
 5674SOL     OW17557   2.594   4.360   6.630
 5674SOL    HW117558   2.667   4.324   6.581
 5674SOL    HW217559   2.603   4.455   6.620
 5675SOL     OW17560   3.614   0.134   7.440
 5675SOL    HW117561   3.548   0.148   7.372
 5675SOL    HW217562   3.570   0.159   7.521
 5676SOL     OW17563   2.164   3.788   6.209
 5676SOL    HW117564   2.144   3.879   6.231
 5676SOL    HW217565   2.171   3.743   6.293
 5677SOL     OW17566   3.476   4.091   5.954
 5677SOL    HW117567   3.505   4.030   6.022
 5677SOL    HW217568   3.452   4.170   6.002
 5678SOL     OW17569   3.389   3.999   5.713
 5678SOL    HW117570   3.326   3.932   5.739
 5678SOL    HW217571   3.424   4.032   5.796
 5679SOL     OW17572   2.181   0.012   6.506
 5679SOL    HW117573   2.257   0.069   6.518
 5679SOL    HW217574   2.194   4.440   6.567
 5680SOL     OW17575   2.198   4.240   6.607
 5680SOL    HW117576   2.159   4.155   6.588
 5680SOL    HW217577   2.272   4.247   6.547
 5681SOL     OW17578   2.999   4.093   7.272
 5681SOL    HW117579   2.947   4.152   7.325
 5681SOL    HW217580   3.084   4.138   7.263
 5682SOL     OW17581   3.022   3.926   7.055
 5682SOL    HW117582   3.013   3.987   7.128
 5682SOL    HW217583   3.062   3.978   6.985
 5683SOL     OW17584   1.898   4.271   6.701
 5683SOL    HW117585   1.979   4.256   6.653
 5683SOL    HW217586   1.925   4.274   6.793
 5684SOL     OW17587   2.055   4.244   7.303
 5684SOL    HW117588   2.111   4.198   7.240
 5684SOL    HW217589   2.002   4.303   7.250
 5685SOL     OW17590   2.681   4.280   5.938
 5685SOL    HW117591   2.682   4.207   5.875
 5685SOL    HW217592   2.595   4.321   5.925
 5686SOL     OW17593   3.498   4.318   6.773
 5686SOL    HW117594   3.494   4.260   6.849
 5686SOL    HW217595   3.586   4.304   6.738
 5687SOL     OW17596   2.547   4.182   6.840
 5687SOL    HW117597   2.501   4.104   6.808
 5687SOL    HW217598   2.549   4.241   6.765
 5688SOL     OW17599   2.342   4.223   5.776
 5688SOL    HW117600   2.374   4.310   5.797
 5688SOL    HW217601   2.248   4.233   5.764
 5689SOL     OW17602   3.582   3.869   6.097
 5689SOL    HW117603   3.654   3.855   6.036
 5689SOL    HW217604   3.566   3.783   6.136
 5690SOL     OW17605   3.141   0.137   6.265
 5690SOL    HW117606   3.199   0.061   6.277
 5690SOL    HW217607   3.192   0.198   6.212
 5691SOL     OW17608   3.701   3.896   6.554
 5691SOL    HW117609   3.731   3.810   6.525
 5691SOL    HW217610   3.616   3.907   6.513
 5692SOL     OW17611   2.124   4.040   6.303
 5692SOL    HW117612   2.037   4.071   6.279
 5692SOL    HW217613   2.120   4.030   6.398
 5693SOL     OW17614   2.769   0.090   5.804
 5693SOL    HW117615   2.850   0.130   5.772
 5693SOL    HW217616   2.792   0.054   5.889
 5694SOL     OW17617   2.928   0.299   6.327
 5694SOL    HW117618   2.851   0.285   6.272
 5694SOL    HW217619   2.992   0.235   6.296
 5695SOL     OW17620   2.882   3.964   6.551
 5695SOL    HW117621   2.877   3.915   6.469
 5695SOL    HW217622   2.878   3.897   6.619
 5696SOL     OW17623   3.583   4.114   6.966
 5696SOL    HW117624   3.654   4.178   6.963
 5696SOL    HW217625   3.613   4.043   6.909
 5697SOL     OW17626   2.536   3.919   7.085
 5697SOL    HW117627   2.620   3.900   7.044
 5697SOL    HW217628   2.559   3.951   7.173
 5698SOL     OW17629   1.936   4.043   5.615
 5698SOL    HW117630   1.850   4.037   5.574
 5698SOL    HW217631   1.969   4.129   5.590
 5699SOL     OW17632   1.931   3.880   5.897
 5699SOL    HW117633   1.915   3.959   5.847
 5699SOL    HW217634   2.016   3.848   5.866
 5700SOL     OW17635   2.591   4.285   7.288
 5700SOL    HW117636   2.592   4.331   7.372
 5700SOL    HW217637   2.610   4.194   7.310
 5701SOL     OW17638   3.080   4.042   6.041
 5701SOL    HW117639   3.143   3.970   6.032
 5701SOL    HW217640   3.109   4.090   6.118
 5702SOL     OW17641   3.622   4.090   7.235
 5702SOL    HW117642   3.605   4.101   7.141
 5702SOL    HW217643   3.553   4.031   7.265
 5703SOL     OW17644   2.973   0.227   5.688
 5703SOL    HW117645   2.959   0.270   5.604
 5703SOL    HW217646   3.057   0.183   5.679
 5704SOL     OW17647   3.676   3.907   6.824
 5704SOL    HW117648   3.684   3.813   6.838
 5704SOL    HW217649   3.684   3.919   6.730
 5705SOL     OW17650   2.303   4.157   6.123
 5705SOL    HW117651   2.326   4.087   6.061
 5705SOL    HW217652   2.249   4.114   6.189
 5706SOL     OW17653   2.186   4.264   6.880
 5706SOL    HW117654   2.243   4.209   6.935
 5706SOL    HW217655   2.206   4.238   6.791
 5707SOL     OW17656   3.294   3.949   6.703
 5707SOL    HW117657   3.319   3.869   6.749
 5707SOL    HW217658   3.242   3.998   6.767
 5708SOL     OW17659   2.871   3.743   6.729
 5708SOL    HW117660   2.817   3.675   6.688
 5708SOL    HW217661   2.959   3.706   6.731
 5709SOL     OW17662   3.214   3.777   5.750
 5709SOL    HW117663   3.243   3.713   5.685
 5709SOL    HW217664   3.127   3.748   5.776
 5710SOL     OW17665   3.161   4.175   6.267
 5710SOL    HW117666   3.125   4.263   6.282
 5710SOL    HW217667   3.160   4.134   6.353
 5711SOL     OW17668   3.448   3.927   6.463
 5711SOL    HW117669   3.388   3.948   6.534
 5711SOL    HW217670   3.449   4.005   6.408
 5712SOL     OW17671   2.086   4.287   7.572
 5712SOL    HW117672   2.034   4.357   7.609
 5712SOL    HW217673   2.078   4.297   7.477
 5713SOL     OW17674   2.086   4.001   8.438
 5713SOL    HW117675   2.114   3.967   8.524
 5713SOL    HW217676   1.996   3.970   8.429
 5714SOL     OW17677   1.867   4.101   8.091
 5714SOL    HW117678   1.785   4.131   8.130
 5714SOL    HW217679   1.842   4.024   8.040
 5715SOL     OW17680   3.593   4.335   7.685
 5715SOL    HW117681   3.592   4.322   7.590
 5715SOL    HW217682   3.594   4.246   7.722
 5716SOL     OW17683   2.592   0.271   8.135
 5716SOL    HW117684   2.582   0.208   8.206
 5716SOL    HW217685   2.503   0.284   8.102
 5717SOL     OW17686   2.311   4.116   8.933
 5717SOL    HW117687   2.387   4.059   8.940
 5717SOL    HW217688   2.236   4.059   8.950
 5718SOL     OW17689   3.477   4.172   8.188
 5718SOL    HW117690   3.407   4.198   8.127
 5718SOL    HW217691   3.478   4.241   8.254
 5719SOL     OW17692   3.458   3.847   8.917
 5719SOL    HW117693   3.463   3.927   8.865
 5719SOL    HW217694   3.444   3.877   9.006
 5720SOL     OW17695   1.937   4.374   8.019
 5720SOL    HW117696   1.931   4.280   8.038
 5720SOL    HW217697   2.006   4.406   8.077
 5721SOL     OW17698   1.981   4.475   9.032
 5721SOL    HW117699   2.049   4.493   9.096
 5721SOL    HW217700   1.948   0.062   9.007
 5722SOL     OW17701   2.676   3.724   7.955
 5722SOL    HW117702   2.716   3.809   7.938
 5722SOL    HW217703   2.583   3.744   7.965
 5723SOL     OW17704   2.195   3.974   9.258
 5723SOL    HW117705   2.235   4.060   9.274
 5723SOL    HW217706   2.105   3.984   9.287
 5724SOL     OW17707   3.139   4.072   8.380
 5724SOL    HW117708   3.050   4.040   8.391
 5724SOL    HW217709   3.191   4.021   8.442
 5725SOL     OW17710   2.690   4.306   8.896
 5725SOL    HW117711   2.649   4.310   8.983
 5725SOL    HW217712   2.623   4.265   8.841
 5726SOL     OW17713   3.257   4.199   9.124
 5726SOL    HW117714   3.259   4.244   9.209
 5726SOL    HW217715   3.316   4.124   9.135
 5727SOL     OW17716   2.859   4.149   8.682
 5727SOL    HW117717   2.787   4.172   8.740
 5727SOL    HW217718   2.820   4.091   8.616
 5728SOL     OW17719   2.918   4.410   7.866
 5728SOL    HW117720   2.916   4.451   7.952
 5728SOL    HW217721   2.831   4.371   7.856
 5729SOL     OW17722   2.753   4.064   7.637
 5729SOL    HW117723   2.795   4.127   7.578
 5729SOL    HW217724   2.772   3.979   7.599
 5730SOL     OW17725   3.570   4.298   9.277
 5730SOL    HW117726   3.582   4.386   9.242
 5730SOL    HW217727   3.592   4.240   9.204
 5731SOL     OW17728   2.412   3.905   8.340
 5731SOL    HW117729   2.414   3.933   8.432
 5731SOL    HW217730   2.411   3.987   8.290
 5732SOL     OW17731   3.352   4.465   8.186
 5732SOL    HW117732   3.335   4.410   8.263
 5732SOL    HW217733   3.392   0.044   8.222
 5733SOL     OW17734   2.060   4.004   8.951
 5733SOL    HW117735   1.976   4.049   8.944
 5733SOL    HW217736   2.045   3.934   9.015
 5734SOL     OW17737   3.263   3.830   7.880
 5734SOL    HW117738   3.253   3.806   7.788
 5734SOL    HW217739   3.357   3.840   7.893
 5735SOL     OW17740   2.217   4.387   7.855
 5735SOL    HW117741   2.255   4.311   7.900
 5735SOL    HW217742   2.146   4.416   7.914
 5736SOL     OW17743   3.397   3.950   9.173
 5736SOL    HW117744   3.406   3.971   9.266
 5736SOL    HW217745   3.329   3.883   9.170
 5737SOL     OW17746   2.495   3.847   7.553
 5737SOL    HW117747   2.565   3.783   7.566
 5737SOL    HW217748   2.447   3.815   7.477
 5738SOL     OW17749   2.628   4.002   9.202
 5738SOL    HW117750   2.704   3.944   9.203
 5738SOL    HW217751   2.579   3.980   9.281
 5739SOL     OW17752   3.205   4.311   8.877
 5739SOL    HW117753   3.227   4.275   8.963
 5739SOL    HW217754   3.247   4.397   8.876
 5740SOL     OW17755   2.785   4.236   8.346
 5740SOL    HW117756   2.763   4.220   8.254
 5740SOL    HW217757   2.824   4.154   8.376
 5741SOL     OW17758   2.411   3.787   7.950
 5741SOL    HW117759   2.331   3.787   8.002
 5741SOL    HW217760   2.404   3.866   7.896
 5742SOL     OW17761   2.154   3.771   7.633
 5742SOL    HW117762   2.212   3.836   7.594
 5742SOL    HW217763   2.212   3.708   7.674
 5743SOL     OW17764   2.799   3.972   7.909
 5743SOL    HW117765   2.773   4.010   7.826
 5743SOL    HW217766   2.894   3.984   7.913
 5744SOL     OW17767   2.937   4.395   8.971
 5744SOL    HW117768   2.854   4.366   8.934
 5744SOL    HW217769   3.003   4.356   8.914
 5745SOL     OW17770   2.886   4.266   7.475
 5745SOL    HW117771   2.870   4.354   7.439
 5745SOL    HW217772   2.950   4.280   7.545
 5746SOL     OW17773   1.937   4.280   8.841
 5746SOL    HW117774   2.029   4.272   8.813
 5746SOL    HW217775   1.937   4.353   8.902
 5747SOL     OW17776   2.421   3.950   8.612
 5747SOL    HW117777   2.462   3.874   8.653
 5747SOL    HW217778   2.330   3.948   8.643
 5748SOL     OW17779   2.731   4.189   8.084
 5748SOL    HW117780   2.697   4.248   8.017
 5748SOL    HW217781   2.750   4.108   8.038
 5749SOL     OW17782   2.876   3.777   8.200
 5749SOL    HW117783   2.818   3.769   8.124
 5749SOL    HW217784   2.855   3.702   8.255
 5750SOL     OW17785   3.339   4.311   8.413
 5750SOL    HW117786   3.280   4.239   8.433
 5750SOL    HW217787   3.390   4.323   8.493
 5751SOL     OW17788   3.265   4.296   7.521
 5751SOL    HW117789   3.202   4.268   7.588
 5751SOL    HW217790   3.347   4.254   7.547
 5752SOL     OW17791   2.387   3.988   7.767
 5752SOL    HW117792   2.430   3.938   7.697
 5752SOL    HW217793   2.370   4.074   7.728
 5753SOL     OW17794   2.780   3.821   8.844
 5753SOL    HW117795   2.804   3.801   8.754
 5753SOL    HW217796   2.859   3.860   8.881
 5754SOL     OW17797   2.297   0.009   8.723
 5754SOL    HW117798   2.364   0.002   8.791
 5754SOL    HW217799   2.254   4.423   8.724
 5755SOL     OW17800   3.127   4.100   8.723
 5755SOL    HW117801   3.161   4.177   8.768
 5755SOL    HW217802   3.038   4.123   8.698
 5756SOL     OW17803   2.415   4.253   8.313
 5756SOL    HW117804   2.435   4.296   8.229
 5756SOL    HW217805   2.480   4.289   8.374
 5757SOL     OW17806   3.430   4.339   7.925
 5757SOL    HW117807   3.404   4.404   7.990
 5757SOL    HW217808   3.492   4.385   7.868
 5758SOL     OW17809   2.858   3.847   9.204
 5758SOL    HW117810   2.914   3.920   9.177
 5758SOL    HW217811   2.906   3.768   9.178
 5759SOL     OW17812   2.360   3.765   9.195
 5759SOL    HW117813   2.316   3.711   9.129
 5759SOL    HW217814   2.301   3.839   9.208
 5760SOL     OW17815   3.072   4.254   7.712
 5760SOL    HW117816   3.082   4.175   7.764
 5760SOL    HW217817   3.023   4.314   7.768
 5761SOL     OW17818   2.161   3.923   8.695
 5761SOL    HW117819   2.123   3.955   8.776
 5761SOL    HW217820   2.142   3.829   8.695
 5762SOL     OW17821   2.594   4.360   8.492
 5762SOL    HW117822   2.667   4.324   8.443
 5762SOL    HW217823   2.603   4.455   8.482
 5763SOL     OW17824   3.614   0.134   9.302
 5763SOL    HW117825   3.548   0.148   9.234
 5763SOL    HW217826   3.570   0.159   9.383
 5764SOL     OW17827   2.165   3.789   8.071
 5764SOL    HW117828   2.145   3.880   8.094
 5764SOL    HW217829   2.172   3.743   8.155
 5765SOL     OW17830   3.476   4.091   7.816
 5765SOL    HW117831   3.505   4.030   7.884
 5765SOL    HW217832   3.452   4.171   7.864
 5766SOL     OW17833   3.389   3.999   7.575
 5766SOL    HW117834   3.326   3.932   7.601
 5766SOL    HW217835   3.424   4.032   7.657
 5767SOL     OW17836   2.180   0.012   8.368
 5767SOL    HW117837   2.257   0.069   8.380
 5767SOL    HW217838   2.194   4.440   8.429
 5768SOL     OW17839   2.199   4.240   8.470
 5768SOL    HW117840   2.159   4.155   8.450
 5768SOL    HW217841   2.272   4.247   8.409
 5769SOL     OW17842   2.999   4.093   9.134
 5769SOL    HW117843   2.946   4.152   9.187
 5769SOL    HW217844   3.084   4.138   9.125
 5770SOL     OW17845   3.022   3.926   8.917
 5770SOL    HW117846   3.013   3.987   8.990
 5770SOL    HW217847   3.062   3.978   8.847
 5771SOL     OW17848   1.898   4.272   8.563
 5771SOL    HW117849   1.979   4.256   8.515
 5771SOL    HW217850   1.925   4.274   8.655
 5772SOL     OW17851   2.055   4.244   9.165
 5772SOL    HW117852   2.111   4.198   9.102
 5772SOL    HW217853   2.002   4.303   9.112
 5773SOL     OW17854   2.681   4.281   7.799
 5773SOL    HW117855   2.683   4.208   7.737
 5773SOL    HW217856   2.594   4.320   7.787
 5774SOL     OW17857   3.498   4.317   8.634
 5774SOL    HW117858   3.494   4.260   8.711
 5774SOL    HW217859   3.587   4.304   8.600
 5775SOL     OW17860   2.547   4.182   8.702
 5775SOL    HW117861   2.501   4.104   8.671
 5775SOL    HW217862   2.549   4.241   8.627
 5776SOL     OW17863   2.343   4.223   7.638
 5776SOL    HW117864   2.374   4.311   7.660
 5776SOL    HW217865   2.248   4.234   7.626
 5777SOL     OW17866   3.582   3.869   7.959
 5777SOL    HW117867   3.654   3.855   7.898
 5777SOL    HW217868   3.566   3.783   7.998
 5778SOL     OW17869   3.141   0.136   8.127
 5778SOL    HW117870   3.199   0.061   8.138
 5778SOL    HW217871   3.192   0.198   8.074
 5779SOL     OW17872   3.701   3.896   8.416
 5779SOL    HW117873   3.731   3.810   8.387
 5779SOL    HW217874   3.616   3.907   8.375
 5780SOL     OW17875   2.124   4.041   8.166
 5780SOL    HW117876   2.037   4.071   8.141
 5780SOL    HW217877   2.120   4.030   8.261
 5781SOL     OW17878   2.769   0.090   7.665
 5781SOL    HW117879   2.850   0.131   7.635
 5781SOL    HW217880   2.791   0.054   7.751
 5782SOL     OW17881   2.928   0.299   8.189
 5782SOL    HW117882   2.851   0.286   8.134
 5782SOL    HW217883   2.992   0.235   8.158
 5783SOL     OW17884   2.882   3.964   8.413
 5783SOL    HW117885   2.878   3.915   8.331
 5783SOL    HW217886   2.877   3.897   8.481
 5784SOL     OW17887   3.583   4.114   8.828
 5784SOL    HW117888   3.654   4.178   8.825
 5784SOL    HW217889   3.613   4.043   8.771
 5785SOL     OW17890   2.536   3.919   8.947
 5785SOL    HW117891   2.620   3.900   8.906
 5785SOL    HW217892   2.559   3.952   9.035
 5786SOL     OW17893   1.937   4.043   7.477
 5786SOL    HW117894   1.850   4.036   7.438
 5786SOL    HW217895   1.969   4.129   7.451
 5787SOL     OW17896   1.931   3.880   7.759
 5787SOL    HW117897   1.916   3.960   7.708
 5787SOL    HW217898   2.015   3.848   7.728
 5788SOL     OW17899   2.591   4.286   9.150
 5788SOL    HW117900   2.592   4.331   9.234
 5788SOL    HW217901   2.610   4.194   9.172
 5789SOL     OW17902   3.080   4.042   7.902
 5789SOL    HW117903   3.143   3.970   7.894
 5789SOL    HW217904   3.109   4.090   7.980
 5790SOL     OW17905   3.622   4.090   9.097
 5790SOL    HW117906   3.605   4.101   9.003
 5790SOL    HW217907   3.553   4.031   9.127
 5791SOL     OW17908   2.973   0.227   7.551
 5791SOL    HW117909   2.958   0.269   7.466
 5791SOL    HW217910   3.057   0.183   7.541
 5792SOL     OW17911   3.676   3.907   8.686
 5792SOL    HW117912   3.685   3.813   8.700
 5792SOL    HW217913   3.684   3.919   8.592
 5793SOL     OW17914   2.303   4.157   7.985
 5793SOL    HW117915   2.326   4.087   7.923
 5793SOL    HW217916   2.249   4.114   8.051
 5794SOL     OW17917   2.186   4.264   8.742
 5794SOL    HW117918   2.243   4.209   8.797
 5794SOL    HW217919   2.206   4.238   8.653
 5795SOL     OW17920   3.294   3.949   8.566
 5795SOL    HW117921   3.320   3.869   8.612
 5795SOL    HW217922   3.242   3.998   8.629
 5796SOL     OW17923   2.871   3.743   8.591
 5796SOL    HW117924   2.817   3.675   8.551
 5796SOL    HW217925   2.959   3.706   8.593
 5797SOL     OW17926   3.214   3.778   7.612
 5797SOL    HW117927   3.242   3.714   7.547
 5797SOL    HW217928   3.127   3.748   7.639
 5798SOL     OW17929   3.161   4.175   8.129
 5798SOL    HW117930   3.124   4.263   8.144
 5798SOL    HW217931   3.160   4.134   8.216
 5799SOL     OW17932   3.448   3.926   8.325
 5799SOL    HW117933   3.388   3.948   8.396
 5799SOL    HW217934   3.449   4.005   8.270
 5800SOL     OW17935   2.086   4.286   9.434
 5800SOL    HW117936   2.034   4.357   9.471
 5800SOL    HW217937   2.078   4.297   9.339
 5801SOL     OW17938   2.087   4.000  10.300
 5801SOL    HW117939   2.114   3.968  10.386
 5801SOL    HW217940   1.996   3.970  10.291
 5802SOL     OW17941   1.867   4.101   9.953
 5802SOL    HW117942   1.785   4.131   9.992
 5802SOL    HW217943   1.842   4.023   9.902
 5803SOL     OW17944   3.593   4.335   9.547
 5803SOL    HW117945   3.592   4.322   9.452
 5803SOL    HW217946   3.594   4.246   9.584
 5804SOL     OW17947   2.592   0.271   9.997
 5804SOL    HW117948   2.582   0.208  10.068
 5804SOL    HW217949   2.503   0.284   9.964
 5805SOL     OW17950   2.316   4.118  10.791
 5805SOL    HW117951   2.386   4.052  10.798
 5805SOL    HW217952   2.237   4.071  10.816
 5806SOL     OW17953   3.477   4.172  10.050
 5806SOL    HW117954   3.408   4.198   9.989
 5806SOL    HW217955   3.478   4.242  10.115
 5807SOL     OW17956   3.451   3.840  10.778
 5807SOL    HW117957   3.465   3.921  10.728
 5807SOL    HW217958   3.452   3.868  10.870
 5808SOL     OW17959   1.937   4.374   9.881
 5808SOL    HW117960   1.931   4.280   9.900
 5808SOL    HW217961   2.005   4.406   9.940
 5809SOL     OW17962   1.992   4.459  10.905
 5809SOL    HW117963   2.088   4.464  10.907
 5809SOL    HW217964   1.964   0.050  10.894
 5810SOL     OW17965   2.676   3.724   9.818
 5810SOL    HW117966   2.716   3.809   9.800
 5810SOL    HW217967   2.583   3.743   9.827
 5811SOL     OW17968   2.205   3.978   0.018
 5811SOL    HW117969   2.247   4.062   0.034
 5811SOL    HW217970   2.112   3.994   0.032
 5812SOL     OW17971   3.139   4.073  10.243
 5812SOL    HW117972   3.050   4.040  10.253
 5812SOL    HW217973   3.191   4.020  10.304
 5813SOL     OW17974   2.687   4.301  10.764
 5813SOL    HW117975   2.639   4.315  10.846
 5813SOL    HW217976   2.622   4.262  10.706
 5814SOL     OW17977   2.859   4.149  10.545
 5814SOL    HW117978   2.783   4.171  10.599
 5814SOL    HW217979   2.823   4.092  10.476
 5815SOL     OW17980   2.918   4.410   9.728
 5815SOL    HW117981   2.916   4.451   9.814
 5815SOL    HW217982   2.831   4.371   9.717
 5816SOL     OW17983   2.753   4.064   9.499
 5816SOL    HW117984   2.795   4.127   9.440
 5816SOL    HW217985   2.772   3.979   9.460
 5817SOL     OW17986   2.413   3.905  10.203
 5817SOL    HW117987   2.414   3.933  10.294
 5817SOL    HW217988   2.411   3.987  10.153
 5818SOL     OW17989   3.352   4.465  10.048
 5818SOL    HW117990   3.335   4.410  10.125
 5818SOL    HW217991   3.392   0.044  10.084
 5819SOL     OW17992   2.064   4.003  10.807
 5819SOL    HW117993   1.984   4.055  10.809
 5819SOL    HW217994   2.052   3.939  10.877
 5820SOL     OW17995   3.263   3.830   9.742
 5820SOL    HW117996   3.254   3.806   9.650
 5820SOL    HW217997   3.357   3.840   9.755
 5821SOL     OW17998   2.217   4.387   9.717
 5821SOL    HW117999   2.255   4.311   9.762
 5821SOL    HW218000   2.146   4.416   9.776
 5822SOL     OW18001   2.495   3.847   9.415
 5822SOL    HW118002   2.565   3.783   9.428
 5822SOL    HW218003   2.447   3.815   9.339
 5823SOL     OW18004   2.628   4.003  11.046
 5823SOL    HW118005   2.695   3.944  11.082
 5823SOL    HW218006   2.568   4.018   0.019
 5824SOL     OW18007   3.214   4.308  10.743
 5824SOL    HW118008   3.233   4.290  10.835
 5824SOL    HW218009   3.240   4.400  10.731
 5825SOL     OW18010   2.786   4.236  10.208
 5825SOL    HW118011   2.763   4.220  10.116
 5825SOL    HW218012   2.824   4.154  10.237
 5826SOL     OW18013   2.411   3.787   9.812
 5826SOL    HW118014   2.331   3.787   9.864
 5826SOL    HW218015   2.404   3.866   9.758
 5827SOL     OW18016   2.154   3.771   9.495
 5827SOL    HW118017   2.212   3.836   9.456
 5827SOL    HW218018   2.212   3.708   9.536
 5828SOL     OW18019   2.799   3.972   9.771
 5828SOL    HW118020   2.773   4.010   9.688
 5828SOL    HW218021   2.894   3.984   9.775
 5829SOL     OW18022   2.941   4.379  10.826
 5829SOL    HW118023   2.854   4.363  10.790
 5829SOL    HW218024   3.001   4.346  10.758
 5830SOL     OW18025   2.886   4.266   9.337
 5830SOL    HW118026   2.870   4.354   9.301
 5830SOL    HW218027   2.950   4.280   9.407
 5831SOL     OW18028   1.935   4.280  10.706
 5831SOL    HW118029   2.026   4.272  10.678
 5831SOL    HW218030   1.938   4.340  10.780
 5832SOL     OW18031   2.421   3.950  10.474
 5832SOL    HW118032   2.461   3.873  10.516
 5832SOL    HW218033   2.330   3.949  10.505
 5833SOL     OW18034   2.731   4.189   9.947
 5833SOL    HW118035   2.697   4.248   9.879
 5833SOL    HW218036   2.750   4.108   9.900
 5834SOL     OW18037   2.876   3.778  10.062
 5834SOL    HW118038   2.818   3.769   9.986
 5834SOL    HW218039   2.855   3.702  10.116
 5835SOL     OW18040   3.339   4.312  10.275
 5835SOL    HW118041   3.280   4.238  10.294
 5835SOL    HW218042   3.390   4.323  10.355
 5836SOL     OW18043   3.265   4.296   9.383
 5836SOL    HW118044   3.202   4.268   9.450
 5836SOL    HW218045   3.347   4.255   9.409
 5837SOL     OW18046   2.387   3.988   9.629
 5837SOL    HW118047   2.430   3.938   9.558
 5837SOL    HW218048   2.370   4.074   9.590
 5838SOL     OW18049   2.781   3.823  10.706
 5838SOL    HW118050   2.804   3.802  10.615
 5838SOL    HW218051   2.859   3.863  10.742
 5839SOL     OW18052   2.298   0.006  10.577
 5839SOL    HW118053   2.356   0.006  10.653
 5839SOL    HW218054   2.251   4.423  10.582
 5840SOL     OW18055   3.128   4.099  10.587
 5840SOL    HW118056   3.163   4.176  10.631
 5840SOL    HW218057   3.039   4.125  10.561
 5841SOL     OW18058   2.416   4.252  10.175
 5841SOL    HW118059   2.435   4.296  10.092
 5841SOL    HW218060   2.480   4.289  10.236
 5842SOL     OW18061   3.431   4.339   9.787
 5842SOL    HW118062   3.404   4.404   9.852
 5842SOL    HW218063   3.492   4.385   9.730
 5843SOL     OW18064   2.268   4.463  10.905
 5843SOL    HW118065   2.333   0.031  10.890
 5843SOL    HW218066   2.319   4.383  10.918
 5844SOL     OW18067   3.072   4.254   9.574
 5844SOL    HW118068   3.082   4.175   9.626
 5844SOL    HW218069   3.023   4.314   9.630
 5845SOL     OW18070   2.161   3.923  10.555
 5845SOL    HW118071   2.126   3.957  10.638
 5845SOL    HW218072   2.142   3.830  10.557
 5846SOL     OW18073   2.594   4.361  10.354
 5846SOL    HW118074   2.667   4.324  10.304
 5846SOL    HW218075   2.602   4.455  10.343
 5847SOL     OW18076   2.165   3.789   9.933
 5847SOL    HW118077   2.145   3.880   9.956
 5847SOL    HW218078   2.172   3.743  10.017
 5848SOL     OW18079   3.476   4.091   9.678
 5848SOL    HW118080   3.505   4.030   9.746
 5848SOL    HW218081   3.452   4.171   9.726
 5849SOL     OW18082   3.389   3.999   9.437
 5849SOL    HW118083   3.326   3.932   9.463
 5849SOL    HW218084   3.424   4.032   9.519
 5850SOL     OW18085   2.181   0.012  10.229
 5850SOL    HW118086   2.257   0.069  10.243
 5850SOL    HW218087   2.193   4.440  10.292
 5851SOL     OW18088   2.198   4.239  10.331
 5851SOL    HW118089   2.159   4.154  10.311
 5851SOL    HW218090   2.272   4.246  10.270
 5852SOL     OW18091   3.019   3.932  10.782
 5852SOL    HW118092   3.027   3.991  10.856
 5852SOL    HW218093   3.060   3.979  10.709
 5853SOL     OW18094   1.899   4.274  10.427
 5853SOL    HW118095   1.980   4.257  10.380
 5853SOL    HW218096   1.924   4.276  10.519
 5854SOL     OW18097   3.210   0.191  10.989
 5854SOL    HW118098   3.278   0.256  11.005
 5854SOL    HW218099   3.231   0.154  10.903
 5855SOL     OW18100   2.681   4.281   9.661
 5855SOL    HW118101   2.682   4.208   9.599
 5855SOL    HW218102   2.594   4.320   9.649
 5856SOL     OW18103   3.498   4.317  10.496
 5856SOL    HW118104   3.495   4.258  10.572
 5856SOL    HW218105   3.586   4.306  10.461
 5857SOL     OW18106   2.553   4.181  10.564
 5857SOL    HW118107   2.503   4.105  10.535
 5857SOL    HW218108   2.550   4.241  10.490
 5858SOL     OW18109   2.343   4.223   9.500
 5858SOL    HW118110   2.374   4.311   9.522
 5858SOL    HW218111   2.248   4.234   9.488
 5859SOL     OW18112   3.582   3.869   9.821
 5859SOL    HW118113   3.654   3.855   9.760
 5859SOL    HW218114   3.566   3.783   9.860
 5860SOL     OW18115   3.142   0.137   9.989
 5860SOL    HW118116   3.199   0.061  10.001
 5860SOL    HW218117   3.192   0.198   9.936
 5861SOL     OW18118   3.701   3.896  10.278
 5861SOL    HW118119   3.731   3.810  10.250
 5861SOL    HW218120   3.616   3.907  10.237
 5862SOL     OW18121   2.124   4.041  10.028
 5862SOL    HW118122   2.037   4.072  10.003
 5862SOL    HW218123   2.120   4.030  10.123
 5863SOL     OW18124   2.769   0.090   9.527
 5863SOL    HW118125   2.850   0.131   9.497
 5863SOL    HW218126   2.791   0.054   9.613
 5864SOL     OW18127   2.928   0.299  10.052
 5864SOL    HW118128   2.851   0.286   9.996
 5864SOL    HW218129   2.992   0.235  10.020
 5865SOL     OW18130   2.882   3.964  10.275
 5865SOL    HW118131   2.877   3.916  10.193
 5865SOL    HW218132   2.877   3.897  10.343
 5866SOL     OW18133   3.580   4.116  10.691
 5866SOL    HW118134   3.651   4.179  10.691
 5866SOL    HW218135   3.610   4.046  10.634
 5867SOL     OW18136   2.536   3.917  10.804
 5867SOL    HW118137   2.618   3.897  10.759
 5867SOL    HW218138   2.563   3.955  10.887
 5868SOL     OW18139   1.937   4.042   9.339
 5868SOL    HW118140   1.850   4.037   9.300
 5868SOL    HW218141   1.969   4.129   9.313
 5869SOL     OW18142   1.931   3.880   9.621
 5869SOL    HW118143   1.916   3.960   9.570
 5869SOL    HW218144   2.015   3.848   9.590
 5870SOL     OW18145   2.581   4.299  11.024
 5870SOL    HW118146   2.623   4.344  11.098
 5870SOL    HW218147   2.618   4.211  11.026
 5871SOL     OW18148   3.080   4.042   9.764
 5871SOL    HW118149   3.143   3.970   9.756
 5871SOL    HW218150   3.109   4.090   9.842
 5872SOL     OW18151   3.615   4.051  10.956
 5872SOL    HW118152   3.593   4.081  10.868
 5872SOL    HW218153   3.532   4.057  11.004
 5873SOL     OW18154   2.973   0.228   9.413
 5873SOL    HW118155   2.958   0.269   9.328
 5873SOL    HW218156   3.057   0.183   9.403
 5874SOL     OW18157   3.672   3.907  10.549
 5874SOL    HW118158   3.682   3.813  10.562
 5874SOL    HW218159   3.682   3.920  10.454
 5875SOL     OW18160   2.303   4.157   9.847
 5875SOL    HW118161   2.325   4.087   9.785
 5875SOL    HW218162   2.249   4.114   9.913
 5876SOL     OW18163   2.183   4.264  10.604
 5876SOL    HW118164   2.240   4.210  10.659
 5876SOL    HW218165   2.205   4.237  10.514
 5877SOL     OW18166   3.293   3.948  10.427
 5877SOL    HW118167   3.322   3.869  10.474
 5877SOL    HW218168   3.242   3.997  10.492
 5878SOL     OW18169   2.871   3.743  10.453
 5878SOL    HW118170   2.817   3.676  10.412
 5878SOL    HW218171   2.959   3.706  10.455
 5879SOL     OW18172   3.214   3.778   9.474
 5879SOL    HW118173   3.242   3.714   9.409
 5879SOL    HW218174   3.127   3.748   9.501
 5880SOL     OW18175   3.161   4.175   9.991
 5880SOL    HW118176   3.124   4.263  10.005
 5880SOL    HW218177   3.160   4.135  10.078
 5881SOL     OW18178   3.448   3.926  10.187
 5881SOL    HW118179   3.388   3.948  10.258
 5881SOL    HW218180   3.449   4.005  10.132
 5882SOL     OW18181   3.947   0.611   0.114
 5882SOL    HW118182   3.863   0.619   0.161
 5882SOL    HW218183   3.928   0.644   0.026
 5883SOL     OW18184   3.930   0.303   0.989
 5883SOL    HW118185   3.964   0.272   1.073
 5883SOL    HW218186   3.850   0.252   0.976
 5884SOL     OW18187   3.730   0.386   0.637
 5884SOL    HW118188   3.644   0.406   0.675
 5884SOL    HW218189   3.715   0.310   0.581
 5885SOL     OW18190   4.266   1.245   1.147
 5885SOL    HW118191   4.197   1.307   1.123
 5885SOL    HW218192   4.333   1.299   1.188
 5886SOL     OW18193   0.021   0.777   1.857
 5886SOL    HW118194   0.069   0.824   1.926
 5886SOL    HW218195   0.063   0.806   1.776
 5887SOL     OW18196   4.396   0.989   0.638
 5887SOL    HW118197   4.474   0.992   0.693
 5887SOL    HW218198   4.335   1.050   0.679
 5888SOL     OW18199   4.419   1.161   1.813
 5888SOL    HW118200   4.459   1.242   1.781
 5888SOL    HW218201   4.327   1.169   1.789
 5889SOL     OW18202   4.061   1.432   1.069
 5889SOL    HW118203   3.988   1.389   1.023
 5889SOL    HW218204   4.106   1.481   1.000
 5890SOL     OW18205   4.163   0.396   1.486
 5890SOL    HW118206   4.242   0.342   1.487
 5890SOL    HW218207   4.092   0.333   1.500
 5891SOL     OW18208   3.942   1.713   0.475
 5891SOL    HW118209   3.962   1.791   0.527
 5891SOL    HW218210   4.012   1.708   0.411
 5892SOL     OW18211   3.951   1.440   0.532
 5892SOL    HW118212   3.936   1.535   0.537
 5892SOL    HW218213   3.892   1.403   0.597
 5893SOL     OW18214   3.975   1.088   0.886
 5893SOL    HW118215   3.979   1.004   0.931
 5893SOL    HW218216   3.923   1.144   0.945
 5894SOL     OW18217   4.361   1.798   1.454
 5894SOL    HW118218   4.274   1.764   1.478
 5894SOL    HW218219   4.350   1.893   1.454
 5895SOL     OW18220   4.298   1.005   0.139
 5895SOL    HW118221   4.313   1.072   0.072
 5895SOL    HW218222   4.379   1.004   0.190
 5896SOL     OW18223   3.838   0.652   0.560
 5896SOL    HW118224   3.808   0.564   0.583
 5896SOL    HW218225   3.830   0.701   0.641
 5897SOL     OW18226   3.770   1.601   0.120
 5897SOL    HW118227   3.741   1.513   0.143
 5897SOL    HW218228   3.743   1.656   0.194
 5898SOL     OW18229   3.845   0.744   1.584
 5898SOL    HW118230   3.937   0.770   1.594
 5898SOL    HW218231   3.796   0.826   1.591
 5899SOL     OW18232   4.310   1.388   0.738
 5899SOL    HW118233   4.275   1.299   0.741
 5899SOL    HW218234   4.311   1.409   0.645
 5900SOL     OW18235   0.015   0.006   0.500
 5900SOL    HW118236   0.047   0.075   0.441
 5900SOL    HW218237   4.428   0.035   0.526
 5901SOL     OW18238   3.912   0.965   1.272
 5901SOL    HW118239   3.998   0.926   1.254
 5901SOL    HW218240   3.850   0.912   1.222
 5902SOL     OW18241   4.039   0.252   1.784
 5902SOL    HW118242   4.101   0.318   1.814
 5902SOL    HW218243   3.965   0.259   1.844
 5903SOL     OW18244   4.308   0.717   0.269
 5903SOL    HW118245   4.330   0.794   0.217
 5903SOL    HW218246   4.246   0.749   0.334
 5904SOL     OW18247   3.813   0.821   0.775
 5904SOL    HW118248   3.893   0.813   0.826
 5904SOL    HW218249   3.770   0.900   0.810
 5905SOL     OW18250   3.853   1.846   1.577
 5905SOL    HW118251   3.852   1.826   1.671
 5905SOL    HW218252   3.761   1.840   1.551
 5906SOL     OW18253   4.245   0.204   0.895
 5906SOL    HW118254   4.283   0.219   0.981
 5906SOL    HW218255   4.262   0.284   0.846
 5907SOL     OW18256   4.082   1.812   0.863
 5907SOL    HW118257   4.132   1.730   0.870
 5907SOL    HW218258   4.148   1.881   0.874
 5908SOL     OW18259   4.040   0.960   0.275
 5908SOL    HW118260   4.120   0.983   0.227
 5908SOL    HW218261   4.014   0.876   0.237
 5909SOL     OW18262   4.178   1.252   1.735
 5909SOL    HW118263   4.151   1.264   1.644
 5909SOL    HW218264   4.097   1.262   1.785
 5910SOL     OW18265   3.912   0.269   1.512
 5910SOL    HW118266   3.845   0.336   1.495
 5910SOL    HW218267   3.924   0.270   1.607
 5911SOL     OW18268   4.191   1.732   0.326
 5911SOL    HW118269   4.223   1.795   0.391
 5911SOL    HW218270   4.265   1.720   0.266
 5912SOL     OW18271   3.979   1.793   1.232
 5912SOL    HW118272   4.027   1.723   1.277
 5912SOL    HW218273   3.966   1.760   1.143
 5913SOL     OW18274   4.108   0.694   0.475
 5913SOL    HW118275   4.135   0.603   0.488
 5913SOL    HW218276   4.015   0.695   0.498
 5914SOL     OW18277   4.344   0.130   0.104
 5914SOL    HW118278   4.428   0.097   0.135
 5914SOL    HW218279   4.323   0.076   0.028
 5915SOL     OW18280   0.021   1.420   0.911
 5915SOL    HW118281   0.081   1.468   0.854
 5915SOL    HW218282   4.445   1.402   0.856
 5916SOL     OW18283   4.273   0.109   0.539
 5916SOL    HW118284   4.188   0.074   0.567
 5916SOL    HW218285   4.253   0.158   0.458
 5917SOL     OW18286   4.011   0.054   0.200
 5917SOL    HW118287   4.076   0.108   0.156
 5917SOL    HW218288   4.059   0.008   0.268
 5918SOL     OW18289   0.324   0.678   1.457
 5918SOL    HW118290   0.254   0.615   1.440
 5918SOL    HW218291   0.405   0.628   1.446
 5919SOL     OW18292   4.191   1.145   0.735
 5919SOL    HW118293   4.122   1.126   0.799
 5919SOL    HW218294   4.150   1.131   0.650
 5920SOL     OW18295   3.806   0.550   1.395
 5920SOL    HW118296   3.897   0.554   1.364
 5920SOL    HW218297   3.799   0.622   1.457
 5921SOL     OW18298   4.296   0.236   1.158
 5921SOL    HW118299   4.304   0.144   1.181
 5921SOL    HW218300   4.209   0.261   1.189
 5922SOL     OW18301   4.236   1.400   0.191
 5922SOL    HW118302   4.151   1.386   0.232
 5922SOL    HW218303   4.222   1.381   0.098
 5923SOL     OW18304   4.242   0.265   0.317
 5923SOL    HW118305   4.285   0.214   0.249
 5923SOL    HW218306   4.223   0.349   0.275
 5924SOL     OW18307   4.140   0.814   1.250
 5924SOL    HW118308   4.207   0.824   1.317
 5924SOL    HW218309   4.106   0.726   1.263
 5925SOL     OW18310   3.793   1.573   1.353
 5925SOL    HW118311   3.761   1.645   1.298
 5925SOL    HW218312   3.889   1.579   1.346
 5926SOL     OW18313   4.069   1.117   0.496
 5926SOL    HW118314   4.071   1.190   0.435
 5926SOL    HW218315   4.065   1.039   0.441
 5927SOL     OW18316   4.303   0.538   0.862
 5927SOL    HW118317   4.302   0.604   0.793
 5927SOL    HW218318   4.365   0.571   0.927
 5928SOL     OW18319   4.072   1.534   1.316
 5928SOL    HW118320   4.066   1.490   1.231
 5928SOL    HW218321   4.166   1.535   1.336
 5929SOL     OW18322   4.138   0.740   1.605
 5929SOL    HW118323   4.195   0.787   1.544
 5929SOL    HW218324   4.184   0.659   1.625
 5930SOL     OW18325   4.239   0.071   1.725
 5930SOL    HW118326   4.206   4.486   1.696
 5930SOL    HW218327   4.160   0.123   1.742
 5931SOL     OW18328   4.290   0.890   1.026
 5931SOL    HW118329   4.319   0.980   1.040
 5931SOL    HW218330   4.243   0.867   1.106
 5932SOL     OW18331   4.014   0.237   1.240
 5932SOL    HW118332   3.970   0.249   1.325
 5932SOL    HW218333   4.051   0.149   1.245
 5933SOL     OW18334   3.770   1.311   1.277
 5933SOL    HW118335   3.803   1.256   1.348
 5933SOL    HW218336   3.776   1.400   1.310
 5934SOL     OW18337   4.018   0.058   0.655
 5934SOL    HW118338   4.008   0.153   0.659
 5934SOL    HW218339   4.030   0.031   0.747
 5935SOL     OW18340   4.077   0.916   1.808
 5935SOL    HW118341   4.158   0.931   1.856
 5935SOL    HW218342   4.099   0.851   1.741
 5936SOL     OW18343   4.031   0.809   0.946
 5936SOL    HW118344   4.122   0.837   0.946
 5936SOL    HW218345   4.034   0.719   0.978
 5937SOL     OW18346   4.068   0.532   1.010
 5937SOL    HW118347   4.025   0.449   0.991
 5937SOL    HW218348   4.147   0.531   0.955
 5938SOL     OW18349   3.732   1.327   0.194
 5938SOL    HW118350   3.645   1.339   0.156
 5938SOL    HW218351   3.732   1.237   0.225
 5939SOL     OW18352   3.816   1.788   0.939
 5939SOL    HW118353   3.786   1.708   0.894
 5939SOL    HW218354   3.905   1.800   0.907
 5940SOL     OW18355   4.232   1.583   0.906
 5940SOL    HW118356   4.318   1.614   0.935
 5940SOL    HW218357   4.252   1.513   0.843
 5941SOL     OW18358   3.757   0.544   1.118
 5941SOL    HW118359   3.833   0.519   1.065
 5941SOL    HW218360   3.791   0.547   1.207
 5942SOL     OW18361   3.909   0.519   1.721
 5942SOL    HW118362   3.984   0.500   1.665
 5942SOL    HW218363   3.867   0.594   1.680
 5943SOL     OW18364   0.026   0.543   0.265
 5943SOL    HW118365   0.019   0.489   0.343
 5943SOL    HW218366   4.463   0.614   0.279
 5944SOL     OW18367   3.970   1.553   1.728
 5944SOL    HW118368   3.943   1.617   1.794
 5944SOL    HW218369   3.967   1.469   1.773
 5945SOL     OW18370   4.188   0.489   0.174
 5945SOL    HW118371   4.245   0.560   0.204
 5945SOL    HW218372   4.102   0.529   0.166
 5946SOL     OW18373   3.870   1.140   1.473
 5946SOL    HW118374   3.872   1.088   1.553
 5946SOL    HW218375   3.886   1.077   1.403
 5947SOL     OW18376   3.808   1.269   1.013
 5947SOL    HW118377   3.793   1.279   1.107
 5947SOL    HW218378   3.737   1.213   0.983
 5948SOL     OW18379   4.389   1.651   1.701
 5948SOL    HW118380   4.355   1.737   1.728
 5948SOL    HW218381   4.431   1.667   1.616
 5949SOL     OW18382   3.861   1.797   1.843
 5949SOL    HW118383   3.810   1.732   1.892
 5949SOL    HW218384   3.908   1.845   1.911
 5950SOL     OW18385   3.988   0.326   0.716
 5950SOL    HW118386   3.901   0.358   0.692
 5950SOL    HW218387   3.984   0.315   0.811
 5951SOL     OW18388   4.088   1.307   1.491
 5951SOL    HW118389   4.069   1.383   1.435
 5951SOL    HW218390   4.015   1.247   1.474
 5952SOL     OW18391   4.325   1.490   0.481
 5952SOL    HW118392   4.343   1.434   0.406
 5952SOL    HW218393   4.257   1.550   0.450
 5953SOL     OW18394   3.991   1.342   0.288
 5953SOL    HW118395   3.903   1.342   0.250
 5953SOL    HW218396   3.979   1.380   0.375
 5954SOL     OW18397   3.836   1.022   1.720
 5954SOL    HW118398   3.760   0.999   1.772
 5954SOL    HW218399   3.910   0.985   1.767
 5955SOL     OW18400   4.369   0.205   1.489
 5955SOL    HW118401   4.460   0.223   1.464
 5955SOL    HW218402   4.374   0.175   1.579
 5956SOL     OW18403   3.801   0.341   0.054
 5956SOL    HW118404   3.725   0.310   0.004
 5956SOL    HW218405   3.817   0.429   0.019
 5957SOL     OW18406   3.790   0.181   0.324
 5957SOL    HW118407   3.784   0.248   0.255
 5957SOL    HW218408   3.861   0.124   0.297
 5958SOL     OW18409   4.338   0.840   1.435
 5958SOL    HW118410   4.378   0.926   1.420
 5958SOL    HW218411   4.412   0.782   1.454
 5959SOL     OW18412   4.397   0.560   1.732
 5959SOL    HW118413   4.420   0.634   1.788
 5959SOL    HW218414   4.480   0.520   1.708
 5960SOL     OW18415   4.107   1.739   1.560
 5960SOL    HW118416   4.022   1.780   1.547
 5960SOL    HW218417   4.088   1.657   1.607
 5961SOL     OW18418   4.310   0.729   0.665
 5961SOL    HW118419   4.350   0.815   0.656
 5961SOL    HW218420   4.239   0.728   0.601
 5962SOL     OW18421   3.943   1.307   1.855
 5962SOL    HW118422   3.878   1.243   1.827
 5962SOL    HW218423   3.928   1.317   1.948
 5963SOL     OW18424   3.808   1.233   0.666
 5963SOL    HW118425   3.813   1.184   0.748
 5963SOL    HW218426   3.879   1.197   0.612
 5964SOL     OW18427   4.417   1.386   1.660
 5964SOL    HW118428   4.327   1.354   1.654
 5964SOL    HW218429   4.407   1.480   1.675
 5965SOL     OW18430   4.163   0.433   0.530
 5965SOL    HW118431   4.182   0.361   0.469
 5965SOL    HW218432   4.108   0.394   0.598
 5966SOL     OW18433   4.053   0.556   1.289
 5966SOL    HW118434   4.106   0.498   1.344
 5966SOL    HW218435   4.073   0.529   1.199
 5967SOL     OW18436   0.035   1.598   0.687
 5967SOL    HW118437   0.063   1.659   0.618
 5967SOL    HW218438   4.465   1.547   0.647
 5968SOL     OW18439   3.766   1.071   0.300
 5968SOL    HW118440   3.862   1.065   0.297
 5968SOL    HW218441   3.738   0.983   0.326
 5969SOL     OW18442   3.954   0.626   1.982
 5969SOL    HW118443   3.867   0.619   2.022
 5969SOL    HW218444   3.942   0.595   1.892
 5970SOL     OW18445   3.929   0.303   2.851
 5970SOL    HW118446   3.964   0.272   2.935
 5970SOL    HW218447   3.850   0.252   2.838
 5971SOL     OW18448   3.731   0.387   2.500
 5971SOL    HW118449   3.644   0.405   2.537
 5971SOL    HW218450   3.717   0.312   2.442
 5972SOL     OW18451   4.267   1.246   3.007
 5972SOL    HW118452   4.197   1.307   2.985
 5972SOL    HW218453   4.333   1.299   3.051
 5973SOL     OW18454   0.021   0.777   3.719
 5973SOL    HW118455   0.069   0.824   3.788
 5973SOL    HW218456   0.063   0.805   3.638
 5974SOL     OW18457   4.398   0.991   2.499
 5974SOL    HW118458   4.472   0.987   2.559
 5974SOL    HW218459   4.336   1.050   2.541
 5975SOL     OW18460   4.419   1.161   3.675
 5975SOL    HW118461   4.459   1.242   3.642
 5975SOL    HW218462   4.327   1.169   3.651
 5976SOL     OW18463   4.060   1.432   2.931
 5976SOL    HW118464   3.988   1.389   2.886
 5976SOL    HW218465   4.106   1.481   2.862
 5977SOL     OW18466   4.163   0.396   3.349
 5977SOL    HW118467   4.242   0.342   3.349
 5977SOL    HW218468   4.091   0.333   3.362
 5978SOL     OW18469   3.942   1.714   2.336
 5978SOL    HW118470   3.963   1.791   2.389
 5978SOL    HW218471   4.016   1.706   2.276
 5979SOL     OW18472   3.954   1.441   2.396
 5979SOL    HW118473   3.935   1.535   2.402
 5979SOL    HW218474   3.895   1.401   2.460
 5980SOL     OW18475   3.976   1.088   2.748
 5980SOL    HW118476   3.979   1.004   2.793
 5980SOL    HW218477   3.923   1.143   2.807
 5981SOL     OW18478   4.361   1.798   3.316
 5981SOL    HW118479   4.274   1.764   3.340
 5981SOL    HW218480   4.350   1.893   3.316
 5982SOL     OW18481   4.310   0.985   2.000
 5982SOL    HW118482   4.340   1.038   1.926
 5982SOL    HW218483   4.377   0.998   2.067
 5983SOL     OW18484   3.840   0.653   2.422
 5983SOL    HW118485   3.810   0.564   2.444
 5983SOL    HW218486   3.831   0.702   2.503
 5984SOL     OW18487   3.757   1.595   1.986
 5984SOL    HW118488   3.738   1.503   2.005
 5984SOL    HW218489   3.732   1.642   2.065
 5985SOL     OW18490   3.845   0.744   3.447
 5985SOL    HW118491   3.936   0.771   3.456
 5985SOL    HW218492   3.796   0.826   3.453
 5986SOL     OW18493   4.310   1.387   2.600
 5986SOL    HW118494   4.274   1.299   2.603
 5986SOL    HW218495   4.312   1.409   2.506
 5987SOL     OW18496   0.018   0.016   2.373
 5987SOL    HW118497   0.048   0.079   2.307
 5987SOL    HW218498   4.428   0.042   2.392
 5988SOL     OW18499   3.912   0.965   3.134
 5988SOL    HW118500   3.998   0.926   3.116
 5988SOL    HW218501   3.850   0.913   3.084
 5989SOL     OW18502   4.039   0.252   3.646
 5989SOL    HW118503   4.100   0.319   3.675
 5989SOL    HW218504   3.965   0.259   3.706
 5990SOL     OW18505   4.312   0.728   2.132
 5990SOL    HW118506   4.309   0.806   2.077
 5990SOL    HW218507   4.245   0.743   2.198
 5991SOL     OW18508   3.812   0.821   2.638
 5991SOL    HW118509   3.893   0.813   2.688
 5991SOL    HW218510   3.770   0.900   2.672
 5992SOL     OW18511   3.853   1.846   3.439
 5992SOL    HW118512   3.852   1.826   3.533
 5992SOL    HW218513   3.761   1.839   3.413
 5993SOL     OW18514   4.243   0.203   2.759
 5993SOL    HW118515   4.284   0.220   2.843
 5993SOL    HW218516   4.262   0.280   2.706
 5994SOL     OW18517   4.082   1.812   2.724
 5994SOL    HW118518   4.132   1.730   2.732
 5994SOL    HW218519   4.148   1.881   2.736
 5995SOL     OW18520   4.043   0.958   2.112
 5995SOL    HW118521   4.125   0.976   2.067
 5995SOL    HW218522   4.013   0.875   2.074
 5996SOL     OW18523   4.178   1.252   3.597
 5996SOL    HW118524   4.151   1.264   3.505
 5996SOL    HW218525   4.097   1.262   3.647
 5997SOL     OW18526   3.912   0.269   3.374
 5997SOL    HW118527   3.845   0.336   3.357
 5997SOL    HW218528   3.923   0.271   3.469
 5998SOL     OW18529   4.192   1.735   2.187
 5998SOL    HW118530   4.224   1.795   2.254
 5998SOL    HW218531   4.261   1.732   2.121
 5999SOL     OW18532   3.980   1.793   3.094
 5999SOL    HW118533   4.027   1.723   3.139
 5999SOL    HW218534   3.966   1.759   3.006
 6000SOL     OW18535   4.111   0.694   2.334
 6000SOL    HW118536   4.136   0.602   2.349
 6000SOL    HW218537   4.018   0.697   2.356
 6001SOL     OW18538   4.327   0.120   1.979
 6001SOL    HW118539   4.412   0.079   1.991
 6001SOL    HW218540   4.303   0.100   1.889
 6002SOL     OW18541   0.020   1.421   2.774
 6002SOL    HW118542   0.082   1.466   2.716
 6002SOL    HW218543   4.444   1.403   2.718
 6003SOL     OW18544   4.271   0.109   2.401
 6003SOL    HW118545   4.187   0.069   2.423
 6003SOL    HW218546   4.254   0.160   2.322
 6004SOL     OW18547   4.024   0.071   2.060
 6004SOL    HW118548   4.103   0.121   2.042
 6004SOL    HW218549   4.052   4.500   2.117
 6005SOL     OW18550   0.324   0.678   3.320
 6005SOL    HW118551   0.254   0.615   3.302
 6005SOL    HW218552   0.404   0.629   3.308
 6006SOL     OW18553   4.190   1.145   2.595
 6006SOL    HW118554   4.121   1.126   2.659
 6006SOL    HW218555   4.149   1.128   2.510
 6007SOL     OW18556   3.807   0.550   3.257
 6007SOL    HW118557   3.897   0.554   3.226
 6007SOL    HW218558   3.799   0.622   3.319
 6008SOL     OW18559   4.297   0.237   3.022
 6008SOL    HW118560   4.304   0.144   3.042
 6008SOL    HW218561   4.209   0.261   3.051
 6009SOL     OW18562   4.230   1.386   2.035
 6009SOL    HW118563   4.146   1.372   2.077
 6009SOL    HW218564   4.209   1.402   1.943
 6010SOL     OW18565   4.244   0.271   2.185
 6010SOL    HW118566   4.284   0.215   2.119
 6010SOL    HW218567   4.224   0.352   2.139
 6011SOL     OW18568   4.140   0.814   3.112
 6011SOL    HW118569   4.208   0.824   3.179
 6011SOL    HW218570   4.106   0.726   3.124
 6012SOL     OW18571   3.793   1.573   3.215
 6012SOL    HW118572   3.761   1.644   3.160
 6012SOL    HW218573   3.889   1.579   3.208
 6013SOL     OW18574   4.070   1.109   2.352
 6013SOL    HW118575   4.072   1.182   2.289
 6013SOL    HW218576   4.069   1.031   2.297
 6014SOL     OW18577   4.302   0.539   2.725
 6014SOL    HW118578   4.301   0.604   2.655
 6014SOL    HW218579   4.366   0.572   2.788
 6015SOL     OW18580   4.072   1.534   3.178
 6015SOL    HW118581   4.066   1.490   3.093
 6015SOL    HW218582   4.165   1.535   3.198
 6016SOL     OW18583   4.137   0.741   3.467
 6016SOL    HW118584   4.195   0.787   3.406
 6016SOL    HW218585   4.184   0.659   3.487
 6017SOL     OW18586   4.239   0.070   3.588
 6017SOL    HW118587   4.205   4.486   3.557
 6017SOL    HW218588   4.160   0.123   3.604
 6018SOL     OW18589   4.290   0.890   2.888
 6018SOL    HW118590   4.319   0.981   2.903
 6018SOL    HW218591   4.243   0.867   2.968
 6019SOL     OW18592   4.014   0.237   3.103
 6019SOL    HW118593   3.970   0.249   3.187
 6019SOL    HW218594   4.052   0.149   3.107
 6020SOL     OW18595   3.771   1.311   3.139
 6020SOL    HW118596   3.803   1.256   3.210
 6020SOL    HW218597   3.776   1.400   3.172
 6021SOL     OW18598   4.013   0.054   2.519
 6021SOL    HW118599   4.007   0.150   2.520
 6021SOL    HW218600   4.027   0.031   2.611
 6022SOL     OW18601   4.077   0.916   3.670
 6022SOL    HW118602   4.158   0.931   3.718
 6022SOL    HW218603   4.099   0.851   3.603
 6023SOL     OW18604   4.031   0.809   2.808
 6023SOL    HW118605   4.123   0.837   2.808
 6023SOL    HW218606   4.034   0.719   2.839
 6024SOL     OW18607   4.068   0.532   2.872
 6024SOL    HW118608   4.024   0.449   2.853
 6024SOL    HW218609   4.147   0.531   2.817
 6025SOL     OW18610   3.729   1.321   2.057
 6025SOL    HW118611   3.642   1.335   2.019
 6025SOL    HW218612   3.727   1.232   2.091
 6026SOL     OW18613   3.816   1.787   2.801
 6026SOL    HW118614   3.786   1.708   2.756
 6026SOL    HW218615   3.905   1.800   2.769
 6027SOL     OW18616   4.232   1.583   2.767
 6027SOL    HW118617   4.318   1.613   2.797
 6027SOL    HW218618   4.252   1.513   2.705
 6028SOL     OW18619   3.757   0.544   2.980
 6028SOL    HW118620   3.832   0.519   2.926
 6028SOL    HW218621   3.791   0.547   3.069
 6029SOL     OW18622   3.909   0.519   3.583
 6029SOL    HW118623   3.984   0.500   3.527
 6029SOL    HW218624   3.867   0.594   3.542
 6030SOL     OW18625   0.029   0.550   2.124
 6030SOL    HW118626   0.020   0.489   2.198
 6030SOL    HW218627   4.463   0.617   2.142
 6031SOL     OW18628   3.970   1.553   3.590
 6031SOL    HW118629   3.943   1.617   3.656
 6031SOL    HW218630   3.967   1.469   3.635
 6032SOL     OW18631   4.190   0.495   2.046
 6032SOL    HW118632   4.248   0.568   2.068
 6032SOL    HW218633   4.104   0.535   2.034
 6033SOL     OW18634   3.871   1.140   3.335
 6033SOL    HW118635   3.872   1.088   3.415
 6033SOL    HW218636   3.886   1.077   3.265
 6034SOL     OW18637   3.809   1.269   2.875
 6034SOL    HW118638   3.793   1.279   2.969
 6034SOL    HW218639   3.737   1.213   2.845
 6035SOL     OW18640   4.389   1.651   3.563
 6035SOL    HW118641   4.355   1.737   3.589
 6035SOL    HW218642   4.430   1.667   3.478
 6036SOL     OW18643   3.861   1.797   3.705
 6036SOL    HW118644   3.810   1.732   3.754
 6036SOL    HW218645   3.908   1.845   3.773
 6037SOL     OW18646   3.988   0.325   2.578
 6037SOL    HW118647   3.902   0.358   2.554
 6037SOL    HW218648   3.985   0.315   2.673
 6038SOL     OW18649   4.088   1.307   3.352
 6038SOL    HW118650   4.069   1.383   3.297
 6038SOL    HW218651   4.016   1.246   3.337
 6039SOL     OW18652   4.326   1.490   2.342
 6039SOL    HW118653   4.343   1.431   2.269
 6039SOL    HW218654   4.259   1.550   2.309
 6040SOL     OW18655   3.984   1.349   2.148
 6040SOL    HW118656   3.891   1.345   2.126
 6040SOL    HW218657   3.986   1.385   2.237
 6041SOL     OW18658   3.836   1.023   3.582
 6041SOL    HW118659   3.759   0.999   3.634
 6041SOL    HW218660   3.910   0.985   3.629
 6042SOL     OW18661   4.369   0.205   3.351
 6042SOL    HW118662   4.459   0.224   3.326
 6042SOL    HW218663   4.375   0.175   3.442
 6043SOL     OW18664   3.805   0.339   1.910
 6043SOL    HW118665   3.734   0.285   1.874
 6043SOL    HW218666   3.818   0.408   1.845
 6044SOL     OW18667   3.788   0.183   2.181
 6044SOL    HW118668   3.787   0.249   2.112
 6044SOL    HW218669   3.864   0.128   2.160
 6045SOL     OW18670   4.338   0.840   3.297
 6045SOL    HW118671   4.378   0.925   3.282
 6045SOL    HW218672   4.412   0.782   3.315
 6046SOL     OW18673   4.397   0.559   3.595
 6046SOL    HW118674   4.421   0.634   3.650
 6046SOL    HW218675   4.481   0.520   3.570
 6047SOL     OW18676   4.107   1.739   3.423
 6047SOL    HW118677   4.022   1.780   3.409
 6047SOL    HW218678   4.088   1.657   3.469
 6048SOL     OW18679   4.309   0.730   2.528
 6048SOL    HW118680   4.350   0.816   2.517
 6048SOL    HW218681   4.240   0.728   2.462
 6049SOL     OW18682   3.943   1.307   3.716
 6049SOL    HW118683   3.878   1.243   3.688
 6049SOL    HW218684   3.927   1.318   3.810
 6050SOL     OW18685   3.809   1.234   2.527
 6050SOL    HW118686   3.812   1.185   2.610
 6050SOL    HW218687   3.877   1.194   2.473
 6051SOL     OW18688   4.417   1.386   3.522
 6051SOL    HW118689   4.327   1.354   3.516
 6051SOL    HW218690   4.407   1.480   3.537
 6052SOL     OW18691   4.165   0.435   2.395
 6052SOL    HW118692   4.184   0.366   2.331
 6052SOL    HW218693   4.109   0.393   2.460
 6053SOL     OW18694   4.054   0.556   3.151
 6053SOL    HW118695   4.106   0.497   3.205
 6053SOL    HW218696   4.073   0.530   3.061
 6054SOL     OW18697   0.036   1.599   2.548
 6054SOL    HW118698   0.060   1.661   2.479
 6054SOL    HW218699   4.466   1.546   2.510
 6055SOL     OW18700   3.768   1.071   2.167
 6055SOL    HW118701   3.862   1.061   2.150
 6055SOL    HW218702   3.739   0.983   2.191
 6056SOL     OW18703   3.954   0.626   3.844
 6056SOL    HW118704   3.867   0.619   3.884
 6056SOL    HW218705   3.942   0.595   3.754
 6057SOL     OW18706   3.929   0.303   4.713
 6057SOL    HW118707   3.964   0.272   4.797
 6057SOL    HW218708   3.850   0.252   4.700
 6058SOL     OW18709   3.731   0.387   4.362
 6058SOL    HW118710   3.644   0.405   4.399
 6058SOL    HW218711   3.717   0.312   4.304
 6059SOL     OW18712   4.267   1.246   4.869
 6059SOL    HW118713   4.196   1.306   4.847
 6059SOL    HW218714   4.333   1.300   4.912
 6060SOL     OW18715   0.021   0.778   5.581
 6060SOL    HW118716   0.069   0.824   5.650
 6060SOL    HW218717   0.062   0.805   5.500
 6061SOL     OW18718   4.398   0.991   4.361
 6061SOL    HW118719   4.472   0.986   4.422
 6061SOL    HW218720   4.336   1.050   4.403
 6062SOL     OW18721   4.419   1.161   5.537
 6062SOL    HW118722   4.459   1.242   5.504
 6062SOL    HW218723   4.327   1.169   5.513
 6063SOL     OW18724   4.060   1.432   4.793
 6063SOL    HW118725   3.988   1.389   4.748
 6063SOL    HW218726   4.106   1.480   4.724
 6064SOL     OW18727   4.163   0.396   5.211
 6064SOL    HW118728   4.242   0.342   5.211
 6064SOL    HW218729   4.091   0.333   5.223
 6065SOL     OW18730   3.942   1.714   4.198
 6065SOL    HW118731   3.963   1.791   4.251
 6065SOL    HW218732   4.016   1.706   4.138
 6066SOL     OW18733   3.955   1.441   4.258
 6066SOL    HW118734   3.935   1.535   4.264
 6066SOL    HW218735   3.895   1.400   4.321
 6067SOL     OW18736   3.976   1.089   4.611
 6067SOL    HW118737   3.979   1.004   4.655
 6067SOL    HW218738   3.923   1.144   4.668
 6068SOL     OW18739   4.361   1.798   5.179
 6068SOL    HW118740   4.274   1.764   5.202
 6068SOL    HW218741   4.350   1.893   5.178
 6069SOL     OW18742   4.310   0.985   3.862
 6069SOL    HW118743   4.340   1.038   3.788
 6069SOL    HW218744   4.377   0.998   3.929
 6070SOL     OW18745   3.840   0.652   4.284
 6070SOL    HW118746   3.810   0.564   4.306
 6070SOL    HW218747   3.831   0.702   4.365
 6071SOL     OW18748   3.757   1.595   3.848
 6071SOL    HW118749   3.738   1.503   3.867
 6071SOL    HW218750   3.732   1.642   3.927
 6072SOL     OW18751   3.845   0.744   5.309
 6072SOL    HW118752   3.936   0.771   5.318
 6072SOL    HW218753   3.795   0.826   5.314
 6073SOL     OW18754   4.310   1.387   4.462
 6073SOL    HW118755   4.274   1.299   4.465
 6073SOL    HW218756   4.312   1.409   4.368
 6074SOL     OW18757   0.019   0.017   4.236
 6074SOL    HW118758   0.048   0.079   4.169
 6074SOL    HW218759   4.428   0.042   4.254
 6075SOL     OW18760   3.912   0.965   4.997
 6075SOL    HW118761   3.997   0.926   4.978
 6075SOL    HW218762   3.850   0.914   4.945
 6076SOL     OW18763   4.039   0.252   5.508
 6076SOL    HW118764   4.100   0.319   5.537
 6076SOL    HW218765   3.965   0.259   5.568
 6077SOL     OW18766   4.312   0.728   3.994
 6077SOL    HW118767   4.308   0.806   3.938
 6077SOL    HW218768   4.245   0.743   4.060
 6078SOL     OW18769   3.812   0.821   4.500
 6078SOL    HW118770   3.893   0.814   4.550
 6078SOL    HW218771   3.770   0.899   4.534
 6079SOL     OW18772   3.853   1.846   5.301
 6079SOL    HW118773   3.852   1.826   5.395
 6079SOL    HW218774   3.762   1.839   5.274
 6080SOL     OW18775   4.243   0.202   4.621
 6080SOL    HW118776   4.284   0.220   4.706
 6080SOL    HW218777   4.261   0.280   4.568
 6081SOL     OW18778   4.082   1.812   4.586
 6081SOL    HW118779   4.131   1.730   4.594
 6081SOL    HW218780   4.148   1.881   4.598
 6082SOL     OW18781   4.043   0.958   3.974
 6082SOL    HW118782   4.125   0.976   3.929
 6082SOL    HW218783   4.012   0.876   3.936
 6083SOL     OW18784   4.178   1.252   5.459
 6083SOL    HW118785   4.151   1.264   5.367
 6083SOL    HW218786   4.097   1.262   5.509
 6084SOL     OW18787   3.912   0.269   5.236
 6084SOL    HW118788   3.845   0.336   5.218
 6084SOL    HW218789   3.923   0.271   5.331
 6085SOL     OW18790   4.191   1.735   4.049
 6085SOL    HW118791   4.224   1.795   4.116
 6085SOL    HW218792   4.261   1.732   3.983
 6086SOL     OW18793   3.980   1.793   4.956
 6086SOL    HW118794   4.027   1.722   5.001
 6086SOL    HW218795   3.965   1.759   4.868
 6087SOL     OW18796   4.111   0.694   4.197
 6087SOL    HW118797   4.136   0.602   4.211
 6087SOL    HW218798   4.018   0.697   4.218
 6088SOL     OW18799   4.327   0.120   3.841
 6088SOL    HW118800   4.413   0.079   3.852
 6088SOL    HW218801   4.302   0.100   3.751
 6089SOL     OW18802   0.020   1.421   4.636
 6089SOL    HW118803   0.082   1.466   4.578
 6089SOL    HW218804   4.444   1.403   4.580
 6090SOL     OW18805   4.271   0.109   4.263
 6090SOL    HW118806   4.187   0.069   4.284
 6090SOL    HW218807   4.254   0.160   4.184
 6091SOL     OW18808   4.023   0.071   3.922
 6091SOL    HW118809   4.103   0.121   3.903
 6091SOL    HW218810   4.052   0.000   3.979
 6092SOL     OW18811   0.324   0.678   5.183
 6092SOL    HW118812   0.253   0.616   5.164
 6092SOL    HW218813   0.404   0.628   5.169
 6093SOL     OW18814   4.190   1.145   4.457
 6093SOL    HW118815   4.122   1.126   4.521
 6093SOL    HW218816   4.149   1.128   4.372
 6094SOL     OW18817   3.807   0.550   5.119
 6094SOL    HW118818   3.897   0.554   5.088
 6094SOL    HW218819   3.799   0.622   5.182
 6095SOL     OW18820   4.297   0.237   4.885
 6095SOL    HW118821   4.304   0.144   4.904
 6095SOL    HW218822   4.209   0.261   4.913
 6096SOL     OW18823   4.230   1.386   3.897
 6096SOL    HW118824   4.146   1.372   3.939
 6096SOL    HW218825   4.209   1.401   3.805
 6097SOL     OW18826   4.244   0.271   4.047
 6097SOL    HW118827   4.284   0.215   3.981
 6097SOL    HW218828   4.224   0.352   4.001
 6098SOL     OW18829   4.141   0.814   4.973
 6098SOL    HW118830   4.207   0.824   5.041
 6098SOL    HW218831   4.106   0.726   4.986
 6099SOL     OW18832   3.793   1.573   5.077
 6099SOL    HW118833   3.760   1.644   5.022
 6099SOL    HW218834   3.888   1.580   5.070
 6100SOL     OW18835   4.071   1.109   4.214
 6100SOL    HW118836   4.072   1.182   4.151
 6100SOL    HW218837   4.069   1.031   4.159
 6101SOL     OW18838   4.302   0.539   4.587
 6101SOL    HW118839   4.301   0.604   4.517
 6101SOL    HW218840   4.365   0.573   4.650
 6102SOL     OW18841   4.072   1.534   5.040
 6102SOL    HW118842   4.066   1.490   4.955
 6102SOL    HW218843   4.166   1.535   5.060
 6103SOL     OW18844   4.137   0.741   5.329
 6103SOL    HW118845   4.195   0.787   5.268
 6103SOL    HW218846   4.184   0.659   5.349
 6104SOL     OW18847   4.238   0.070   5.450
 6104SOL    HW118848   4.205   4.486   5.419
 6104SOL    HW218849   4.160   0.123   5.466
 6105SOL     OW18850   4.291   0.890   4.750
 6105SOL    HW118851   4.318   0.981   4.765
 6105SOL    HW218852   4.243   0.867   4.830
 6106SOL     OW18853   4.015   0.237   4.965
 6106SOL    HW118854   3.970   0.249   5.049
 6106SOL    HW218855   4.052   0.149   4.968
 6107SOL     OW18856   3.773   1.311   5.001
 6107SOL    HW118857   3.803   1.256   5.073
 6107SOL    HW218858   3.776   1.400   5.035
 6108SOL     OW18859   4.013   0.055   4.382
 6108SOL    HW118860   4.007   0.150   4.382
 6108SOL    HW218861   4.027   0.031   4.473
 6109SOL     OW18862   4.077   0.916   5.532
 6109SOL    HW118863   4.158   0.930   5.580
 6109SOL    HW218864   4.099   0.851   5.465
 6110SOL     OW18865   4.031   0.809   4.670
 6110SOL    HW118866   4.123   0.837   4.670
 6110SOL    HW218867   4.034   0.719   4.701
 6111SOL     OW18868   4.069   0.532   4.734
 6111SOL    HW118869   4.024   0.449   4.715
 6111SOL    HW218870   4.147   0.531   4.679
 6112SOL     OW18871   3.729   1.321   3.919
 6112SOL    HW118872   3.643   1.335   3.881
 6112SOL    HW218873   3.727   1.232   3.953
 6113SOL     OW18874   3.816   1.787   4.663
 6113SOL    HW118875   3.786   1.708   4.618
 6113SOL    HW218876   3.905   1.799   4.631
 6114SOL     OW18877   4.232   1.583   4.629
 6114SOL    HW118878   4.318   1.613   4.659
 6114SOL    HW218879   4.251   1.513   4.567
 6115SOL     OW18880   3.757   0.543   4.842
 6115SOL    HW118881   3.832   0.519   4.788
 6115SOL    HW218882   3.791   0.547   4.931
 6116SOL     OW18883   3.909   0.519   5.445
 6116SOL    HW118884   3.984   0.499   5.389
 6116SOL    HW218885   3.867   0.594   5.404
 6117SOL     OW18886   0.029   0.550   3.987
 6117SOL    HW118887   0.020   0.488   4.059
 6117SOL    HW218888   4.463   0.617   4.004
 6118SOL     OW18889   3.971   1.553   5.452
 6118SOL    HW118890   3.943   1.617   5.518
 6118SOL    HW218891   3.967   1.469   5.497
 6119SOL     OW18892   4.190   0.495   3.908
 6119SOL    HW118893   4.248   0.568   3.930
 6119SOL    HW218894   4.104   0.535   3.896
 6120SOL     OW18895   3.871   1.140   5.197
 6120SOL    HW118896   3.871   1.088   5.277
 6120SOL    HW218897   3.886   1.077   5.127
 6121SOL     OW18898   3.809   1.269   4.737
 6121SOL    HW118899   3.794   1.279   4.831
 6121SOL    HW218900   3.737   1.213   4.707
 6122SOL     OW18901   4.390   1.652   5.425
 6122SOL    HW118902   4.354   1.737   5.451
 6122SOL    HW218903   4.429   1.668   5.339
 6123SOL     OW18904   3.861   1.796   5.567
 6123SOL    HW118905   3.810   1.732   5.616
 6123SOL    HW218906   3.908   1.845   5.635
 6124SOL     OW18907   3.988   0.325   4.440
 6124SOL    HW118908   3.902   0.358   4.416
 6124SOL    HW218909   3.984   0.315   4.535
 6125SOL     OW18910   4.088   1.307   5.214
 6125SOL    HW118911   4.069   1.383   5.159
 6125SOL    HW218912   4.016   1.246   5.199
 6126SOL     OW18913   4.326   1.490   4.204
 6126SOL    HW118914   4.342   1.430   4.131
 6126SOL    HW218915   4.259   1.550   4.171
 6127SOL     OW18916   3.984   1.349   4.010
 6127SOL    HW118917   3.891   1.345   3.988
 6127SOL    HW218918   3.986   1.385   4.099
 6128SOL     OW18919   3.836   1.023   5.444
 6128SOL    HW118920   3.760   0.999   5.496
 6128SOL    HW218921   3.910   0.985   5.491
 6129SOL     OW18922   4.369   0.205   5.213
 6129SOL    HW118923   4.459   0.223   5.187
 6129SOL    HW218924   4.375   0.175   5.304
 6130SOL     OW18925   3.805   0.339   3.772
 6130SOL    HW118926   3.734   0.285   3.736
 6130SOL    HW218927   3.818   0.408   3.707
 6131SOL     OW18928   3.788   0.182   4.043
 6131SOL    HW118929   3.787   0.249   3.975
 6131SOL    HW218930   3.864   0.128   4.022
 6132SOL     OW18931   4.338   0.840   5.159
 6132SOL    HW118932   4.378   0.925   5.143
 6132SOL    HW218933   4.412   0.782   5.177
 6133SOL     OW18934   4.397   0.559   5.457
 6133SOL    HW118935   4.420   0.634   5.512
 6133SOL    HW218936   4.481   0.520   5.432
 6134SOL     OW18937   4.108   1.739   5.285
 6134SOL    HW118938   4.022   1.780   5.271
 6134SOL    HW218939   4.087   1.657   5.331
 6135SOL     OW18940   4.309   0.730   4.390
 6135SOL    HW118941   4.350   0.816   4.378
 6135SOL    HW218942   4.240   0.728   4.325
 6136SOL     OW18943   3.943   1.307   5.578
 6136SOL    HW118944   3.878   1.243   5.550
 6136SOL    HW218945   3.927   1.317   5.672
 6137SOL     OW18946   3.809   1.234   4.389
 6137SOL    HW118947   3.811   1.186   4.472
 6137SOL    HW218948   3.877   1.193   4.336
 6138SOL     OW18949   4.417   1.386   5.384
 6138SOL    HW118950   4.327   1.354   5.378
 6138SOL    HW218951   4.408   1.480   5.399
 6139SOL     OW18952   4.165   0.435   4.257
 6139SOL    HW118953   4.184   0.366   4.193
 6139SOL    HW218954   4.109   0.393   4.322
 6140SOL     OW18955   4.054   0.557   5.013
 6140SOL    HW118956   4.106   0.497   5.067
 6140SOL    HW218957   4.072   0.530   4.923
 6141SOL     OW18958   0.036   1.599   4.410
 6141SOL    HW118959   0.060   1.661   4.341
 6141SOL    HW218960   4.466   1.546   4.373
 6142SOL     OW18961   3.768   1.071   4.029
 6142SOL    HW118962   3.862   1.061   4.012
 6142SOL    HW218963   3.739   0.983   4.053
 6143SOL     OW18964   3.954   0.626   5.706
 6143SOL    HW118965   3.867   0.619   5.745
 6143SOL    HW218966   3.942   0.595   5.616
 6144SOL     OW18967   3.929   0.303   6.575
 6144SOL    HW118968   3.964   0.272   6.659
 6144SOL    HW218969   3.850   0.252   6.562
 6145SOL     OW18970   3.731   0.387   6.224
 6145SOL    HW118971   3.644   0.405   6.260
 6145SOL    HW218972   3.717   0.312   6.166
 6146SOL     OW18973   4.266   1.246   6.732
 6146SOL    HW118974   4.197   1.307   6.709
 6146SOL    HW218975   4.333   1.299   6.774
 6147SOL     OW18976   0.021   0.778   7.443
 6147SOL    HW118977   0.070   0.824   7.512
 6147SOL    HW218978   0.063   0.805   7.362
 6148SOL     OW18979   4.398   0.991   6.223
 6148SOL    HW118980   4.472   0.986   6.283
 6148SOL    HW218981   4.336   1.050   6.265
 6149SOL     OW18982   4.419   1.161   7.399
 6149SOL    HW118983   4.459   1.242   7.367
 6149SOL    HW218984   4.327   1.169   7.375
 6150SOL     OW18985   4.060   1.432   6.655
 6150SOL    HW118986   3.988   1.389   6.610
 6150SOL    HW218987   4.106   1.481   6.586
 6151SOL     OW18988   4.163   0.396   7.073
 6151SOL    HW118989   4.242   0.342   7.073
 6151SOL    HW218990   4.091   0.333   7.086
 6152SOL     OW18991   3.942   1.714   6.060
 6152SOL    HW118992   3.963   1.790   6.113
 6152SOL    HW218993   4.016   1.706   5.999
 6153SOL     OW18994   3.954   1.441   6.120
 6153SOL    HW118995   3.936   1.535   6.126
 6153SOL    HW218996   3.895   1.401   6.184
 6154SOL     OW18997   3.975   1.088   6.472
 6154SOL    HW118998   3.980   1.004   6.517
 6154SOL    HW218999   3.923   1.143   6.531
 6155SOL     OW19000   4.361   1.798   7.040
 6155SOL    HW119001   4.274   1.764   7.064
 6155SOL    HW219002   4.350   1.893   7.040
 6156SOL     OW19003   4.309   0.986   5.724
 6156SOL    HW119004   4.340   1.038   5.650
 6156SOL    HW219005   4.377   0.998   5.791
 6157SOL     OW19006   3.839   0.652   6.146
 6157SOL    HW119007   3.810   0.564   6.168
 6157SOL    HW219008   3.831   0.702   6.228
 6158SOL     OW19009   3.757   1.595   5.710
 6158SOL    HW119010   3.738   1.503   5.729
 6158SOL    HW219011   3.732   1.642   5.790
 6159SOL     OW19012   3.845   0.744   7.171
 6159SOL    HW119013   3.937   0.770   7.180
 6159SOL    HW219014   3.796   0.826   7.177
 6160SOL     OW19015   4.310   1.387   6.323
 6160SOL    HW119016   4.274   1.299   6.327
 6160SOL    HW219017   4.311   1.409   6.230
 6161SOL     OW19018   0.019   0.017   6.098
 6161SOL    HW119019   0.048   0.079   6.031
 6161SOL    HW219020   4.428   0.042   6.116
 6162SOL     OW19021   3.912   0.965   6.858
 6162SOL    HW119022   3.998   0.926   6.840
 6162SOL    HW219023   3.850   0.912   6.808
 6163SOL     OW19024   4.038   0.252   7.370
 6163SOL    HW119025   4.101   0.318   7.399
 6163SOL    HW219026   3.965   0.259   7.430
 6164SOL     OW19027   4.312   0.728   5.856
 6164SOL    HW119028   4.309   0.806   5.800
 6164SOL    HW219029   4.245   0.743   5.922
 6165SOL     OW19030   3.812   0.821   6.362
 6165SOL    HW119031   3.893   0.813   6.412
 6165SOL    HW219032   3.770   0.900   6.396
 6166SOL     OW19033   3.853   1.846   7.163
 6166SOL    HW119034   3.852   1.826   7.257
 6166SOL    HW219035   3.761   1.839   7.137
 6167SOL     OW19036   4.243   0.202   6.483
 6167SOL    HW119037   4.284   0.220   6.568
 6167SOL    HW219038   4.262   0.280   6.430
 6168SOL     OW19039   4.082   1.812   6.449
 6168SOL    HW119040   4.132   1.731   6.456
 6168SOL    HW219041   4.148   1.881   6.460
 6169SOL     OW19042   4.043   0.958   5.836
 6169SOL    HW119043   4.125   0.976   5.791
 6169SOL    HW219044   4.012   0.876   5.798
 6170SOL     OW19045   4.178   1.252   7.321
 6170SOL    HW119046   4.151   1.264   7.230
 6170SOL    HW219047   4.097   1.262   7.371
 6171SOL     OW19048   3.912   0.269   7.098
 6171SOL    HW119049   3.845   0.336   7.081
 6171SOL    HW219050   3.924   0.271   7.193
 6172SOL     OW19051   4.192   1.735   5.911
 6172SOL    HW119052   4.224   1.795   5.978
 6172SOL    HW219053   4.261   1.733   5.845
 6173SOL     OW19054   3.979   1.793   6.818
 6173SOL    HW119055   4.027   1.723   6.863
 6173SOL    HW219056   3.966   1.760   6.729
 6174SOL     OW19057   4.111   0.694   6.059
 6174SOL    HW119058   4.136   0.602   6.073
 6174SOL    HW219059   4.018   0.697   6.079
 6175SOL     OW19060   4.327   0.120   5.703
 6175SOL    HW119061   4.413   0.079   5.714
 6175SOL    HW219062   4.302   0.100   5.613
 6176SOL     OW19063   0.020   1.421   6.498
 6176SOL    HW119064   0.082   1.466   6.440
 6176SOL    HW219065   4.444   1.403   6.442
 6177SOL     OW19066   4.271   0.109   6.125
 6177SOL    HW119067   4.187   0.068   6.146
 6177SOL    HW219068   4.254   0.160   6.046
 6178SOL     OW19069   4.023   0.071   5.784
 6178SOL    HW119070   4.103   0.121   5.765
 6178SOL    HW219071   4.052   0.000   5.841
 6179SOL     OW19072   0.323   0.678   7.045
 6179SOL    HW119073   0.254   0.615   7.026
 6179SOL    HW219074   0.404   0.629   7.032
 6180SOL     OW19075   4.190   1.145   6.319
 6180SOL    HW119076   4.121   1.126   6.383
 6180SOL    HW219077   4.149   1.128   6.234
 6181SOL     OW19078   3.807   0.550   6.981
 6181SOL    HW119079   3.897   0.554   6.950
 6181SOL    HW219080   3.799   0.622   7.044
 6182SOL     OW19081   4.297   0.237   6.746
 6182SOL    HW119082   4.304   0.144   6.766
 6182SOL    HW219083   4.209   0.261   6.775
 6183SOL     OW19084   4.231   1.386   5.759
 6183SOL    HW119085   4.146   1.372   5.801
 6183SOL    HW219086   4.209   1.401   5.666
 6184SOL     OW19087   4.244   0.271   5.909
 6184SOL    HW119088   4.284   0.215   5.843
 6184SOL    HW219089   4.224   0.352   5.863
 6185SOL     OW19090   4.140   0.814   6.836
 6185SOL    HW119091   4.208   0.824   6.903
 6185SOL    HW219092   4.106   0.726   6.848
 6186SOL     OW19093   3.793   1.573   6.939
 6186SOL    HW119094   3.761   1.644   6.883
 6186SOL    HW219095   3.889   1.579   6.932
 6187SOL     OW19096   4.071   1.109   6.076
 6187SOL    HW119097   4.072   1.182   6.013
 6187SOL    HW219098   4.069   1.031   6.021
 6188SOL     OW19099   4.302   0.539   6.449
 6188SOL    HW119100   4.301   0.605   6.379
 6188SOL    HW219101   4.366   0.572   6.512
 6189SOL     OW19102   4.072   1.534   6.902
 6189SOL    HW119103   4.066   1.490   6.817
 6189SOL    HW219104   4.165   1.535   6.922
 6190SOL     OW19105   4.137   0.741   7.191
 6190SOL    HW119106   4.195   0.787   7.130
 6190SOL    HW219107   4.184   0.659   7.211
 6191SOL     OW19108   4.239   0.070   7.312
 6191SOL    HW119109   4.206   4.486   7.281
 6191SOL    HW219110   4.160   0.123   7.328
 6192SOL     OW19111   4.290   0.891   6.612
 6192SOL    HW119112   4.319   0.981   6.627
 6192SOL    HW219113   4.243   0.867   6.692
 6193SOL     OW19114   4.014   0.237   6.827
 6193SOL    HW119115   3.970   0.249   6.911
 6193SOL    HW219116   4.052   0.149   6.831
 6194SOL     OW19117   3.770   1.311   6.863
 6194SOL    HW119118   3.803   1.256   6.934
 6194SOL    HW219119   3.776   1.400   6.896
 6195SOL     OW19120   4.012   0.054   6.244
 6195SOL    HW119121   4.007   0.150   6.244
 6195SOL    HW219122   4.027   0.031   6.335
 6196SOL     OW19123   4.077   0.916   7.393
 6196SOL    HW119124   4.158   0.931   7.442
 6196SOL    HW219125   4.099   0.851   7.327
 6197SOL     OW19126   4.031   0.809   6.532
 6197SOL    HW119127   4.123   0.837   6.532
 6197SOL    HW219128   4.034   0.719   6.563
 6198SOL     OW19129   4.068   0.532   6.596
 6198SOL    HW119130   4.024   0.449   6.577
 6198SOL    HW219131   4.147   0.531   6.541
 6199SOL     OW19132   3.730   1.321   5.782
 6199SOL    HW119133   3.643   1.335   5.744
 6199SOL    HW219134   3.727   1.232   5.815
 6200SOL     OW19135   3.816   1.787   6.525
 6200SOL    HW119136   3.786   1.708   6.481
 6200SOL    HW219137   3.905   1.800   6.493
 6201SOL     OW19138   4.232   1.583   6.491
 6201SOL    HW119139   4.318   1.614   6.521
 6201SOL    HW219140   4.252   1.513   6.429
 6202SOL     OW19141   3.757   0.544   6.704
 6202SOL    HW119142   3.832   0.518   6.650
 6202SOL    HW219143   3.791   0.547   6.793
 6203SOL     OW19144   3.909   0.519   7.307
 6203SOL    HW119145   3.984   0.499   7.251
 6203SOL    HW219146   3.867   0.594   7.266
 6204SOL     OW19147   0.029   0.550   5.849
 6204SOL    HW119148   0.020   0.488   5.921
 6204SOL    HW219149   4.463   0.617   5.866
 6205SOL     OW19150   3.970   1.553   7.314
 6205SOL    HW119151   3.943   1.617   7.380
 6205SOL    HW219152   3.967   1.469   7.359
 6206SOL     OW19153   4.190   0.495   5.770
 6206SOL    HW119154   4.248   0.568   5.792
 6206SOL    HW219155   4.104   0.535   5.758
 6207SOL     OW19156   3.870   1.140   7.058
 6207SOL    HW119157   3.872   1.088   7.139
 6207SOL    HW219158   3.886   1.076   6.989
 6208SOL     OW19159   3.809   1.269   6.599
 6208SOL    HW119160   3.793   1.279   6.693
 6208SOL    HW219161   3.738   1.212   6.568
 6209SOL     OW19162   4.389   1.651   7.287
 6209SOL    HW119163   4.355   1.737   7.314
 6209SOL    HW219164   4.431   1.667   7.203
 6210SOL     OW19165   3.861   1.797   7.429
 6210SOL    HW119166   3.810   1.732   7.478
 6210SOL    HW219167   3.908   1.845   7.497
 6211SOL     OW19168   3.988   0.325   6.302
 6211SOL    HW119169   3.902   0.358   6.278
 6211SOL    HW219170   3.985   0.315   6.397
 6212SOL     OW19171   4.088   1.307   7.076
 6212SOL    HW119172   4.069   1.383   7.021
 6212SOL    HW219173   4.015   1.246   7.060
 6213SOL     OW19174   4.326   1.490   6.066
 6213SOL    HW119175   4.342   1.431   5.993
 6213SOL    HW219176   4.259   1.551   6.033
 6214SOL     OW19177   3.984   1.349   5.873
 6214SOL    HW119178   3.891   1.345   5.850
 6214SOL    HW219179   3.986   1.385   5.961
 6215SOL     OW19180   3.836   1.023   7.306
 6215SOL    HW119181   3.760   0.999   7.358
 6215SOL    HW219182   3.910   0.985   7.353
 6216SOL     OW19183   4.369   0.206   7.075
 6216SOL    HW119184   4.459   0.223   7.050
 6216SOL    HW219185   4.375   0.175   7.166
 6217SOL     OW19186   3.805   0.339   5.634
 6217SOL    HW119187   3.734   0.285   5.598
 6217SOL    HW219188   3.818   0.408   5.569
 6218SOL     OW19189   3.788   0.183   5.905
 6218SOL    HW119190   3.787   0.249   5.836
 6218SOL    HW219191   3.864   0.128   5.884
 6219SOL     OW19192   4.338   0.840   7.021
 6219SOL    HW119193   4.378   0.925   7.006
 6219SOL    HW219194   4.412   0.782   7.039
 6220SOL     OW19195   4.397   0.560   7.319
 6220SOL    HW119196   4.420   0.634   7.374
 6220SOL    HW219197   4.481   0.520   7.294
 6221SOL     OW19198   4.107   1.739   7.146
 6221SOL    HW119199   4.022   1.780   7.133
 6221SOL    HW219200   4.088   1.657   7.193
 6222SOL     OW19201   4.309   0.730   6.252
 6222SOL    HW119202   4.350   0.816   6.240
 6222SOL    HW219203   4.240   0.728   6.187
 6223SOL     OW19204   3.943   1.307   7.440
 6223SOL    HW119205   3.878   1.243   7.413
 6223SOL    HW219206   3.928   1.317   7.534
 6224SOL     OW19207   3.809   1.234   6.251
 6224SOL    HW119208   3.812   1.185   6.334
 6224SOL    HW219209   3.877   1.194   6.197
 6225SOL     OW19210   4.417   1.386   7.245
 6225SOL    HW119211   4.327   1.353   7.240
 6225SOL    HW219212   4.407   1.480   7.261
 6226SOL     OW19213   4.165   0.435   6.119
 6226SOL    HW119214   4.184   0.366   6.055
 6226SOL    HW219215   4.109   0.393   6.184
 6227SOL     OW19216   4.054   0.556   6.875
 6227SOL    HW119217   4.106   0.497   6.929
 6227SOL    HW219218   4.072   0.530   6.785
 6228SOL     OW19219   0.036   1.599   6.272
 6228SOL    HW119220   0.059   1.661   6.203
 6228SOL    HW219221   4.466   1.546   6.234
 6229SOL     OW19222   3.768   1.071   5.892
 6229SOL    HW119223   3.862   1.061   5.874
 6229SOL    HW219224   3.739   0.983   5.915
 6230SOL     OW19225   3.954   0.627   7.568
 6230SOL    HW119226   3.867   0.619   7.608
 6230SOL    HW219227   3.942   0.595   7.478
 6231SOL     OW19228   3.929   0.303   8.437
 6231SOL    HW119229   3.964   0.272   8.521
 6231SOL    HW219230   3.850   0.252   8.424
 6232SOL     OW19231   3.731   0.387   8.086
 6232SOL    HW119232   3.644   0.405   8.122
 6232SOL    HW219233   3.717   0.312   8.028
 6233SOL     OW19234   4.267   1.246   8.593
 6233SOL    HW119235   4.197   1.307   8.571
 6233SOL    HW219236   4.333   1.299   8.637
 6234SOL     OW19237   0.021   0.778   9.305
 6234SOL    HW119238   0.070   0.824   9.374
 6234SOL    HW219239   0.063   0.805   9.224
 6235SOL     OW19240   4.398   0.991   8.085
 6235SOL    HW119241   4.472   0.987   8.145
 6235SOL    HW219242   4.336   1.050   8.127
 6236SOL     OW19243   4.419   1.161   9.261
 6236SOL    HW119244   4.459   1.242   9.229
 6236SOL    HW219245   4.327   1.169   9.237
 6237SOL     OW19246   4.060   1.432   8.517
 6237SOL    HW119247   3.988   1.389   8.472
 6237SOL    HW219248   4.106   1.481   8.448
 6238SOL     OW19249   4.163   0.396   8.935
 6238SOL    HW119250   4.242   0.342   8.935
 6238SOL    HW219251   4.092   0.333   8.948
 6239SOL     OW19252   3.942   1.714   7.921
 6239SOL    HW119253   3.963   1.791   7.975
 6239SOL    HW219254   4.016   1.706   7.862
 6240SOL     OW19255   3.954   1.441   7.982
 6240SOL    HW119256   3.935   1.535   7.988
 6240SOL    HW219257   3.895   1.401   8.046
 6241SOL     OW19258   3.975   1.088   8.334
 6241SOL    HW119259   3.980   1.004   8.379
 6241SOL    HW219260   3.923   1.143   8.393
 6242SOL     OW19261   4.361   1.798   8.902
 6242SOL    HW119262   4.274   1.764   8.926
 6242SOL    HW219263   4.350   1.893   8.902
 6243SOL     OW19264   4.309   0.986   7.586
 6243SOL    HW119265   4.339   1.038   7.512
 6243SOL    HW219266   4.377   0.997   7.653
 6244SOL     OW19267   3.839   0.653   8.008
 6244SOL    HW119268   3.810   0.564   8.030
 6244SOL    HW219269   3.831   0.702   8.090
 6245SOL     OW19270   3.756   1.595   7.572
 6245SOL    HW119271   3.738   1.503   7.591
 6245SOL    HW219272   3.732   1.642   7.652
 6246SOL     OW19273   3.845   0.744   9.033
 6246SOL    HW119274   3.937   0.770   9.042
 6246SOL    HW219275   3.796   0.826   9.039
 6247SOL     OW19276   4.310   1.387   8.185
 6247SOL    HW119277   4.274   1.299   8.189
 6247SOL    HW219278   4.312   1.409   8.092
 6248SOL     OW19279   0.018   0.016   7.959
 6248SOL    HW119280   0.048   0.079   7.893
 6248SOL    HW219281   4.428   0.042   7.978
 6249SOL     OW19282   3.912   0.965   8.720
 6249SOL    HW119283   3.998   0.926   8.702
 6249SOL    HW219284   3.850   0.912   8.670
 6250SOL     OW19285   4.038   0.252   9.232
 6250SOL    HW119286   4.101   0.318   9.261
 6250SOL    HW219287   3.965   0.259   9.292
 6251SOL     OW19288   4.312   0.728   7.718
 6251SOL    HW119289   4.309   0.806   7.662
 6251SOL    HW219290   4.245   0.743   7.784
 6252SOL     OW19291   3.812   0.821   8.224
 6252SOL    HW119292   3.893   0.813   8.274
 6252SOL    HW219293   3.770   0.900   8.258
 6253SOL     OW19294   3.853   1.846   9.025
 6253SOL    HW119295   3.852   1.826   9.119
 6253SOL    HW219296   3.761   1.839   8.999
 6254SOL     OW19297   4.243   0.203   8.345
 6254SOL    HW119298   4.284   0.220   8.429
 6254SOL    HW219299   4.262   0.280   8.292
 6255SOL     OW19300   4.082   1.812   8.311
 6255SOL    HW119301   4.132   1.730   8.318
 6255SOL    HW219302   4.148   1.881   8.322
 6256SOL     OW19303   4.043   0.958   7.698
 6256SOL    HW119304   4.125   0.976   7.653
 6256SOL    HW219305   4.013   0.875   7.660
 6257SOL     OW19306   4.178   1.252   9.183
 6257SOL    HW119307   4.151   1.264   9.091
 6257SOL    HW219308   4.097   1.262   9.233
 6258SOL     OW19309   3.912   0.269   8.960
 6258SOL    HW119310   3.845   0.336   8.943
 6258SOL    HW219311   3.924   0.271   9.055
 6259SOL     OW19312   4.191   1.735   7.773
 6259SOL    HW119313   4.224   1.795   7.840
 6259SOL    HW219314   4.261   1.732   7.707
 6260SOL     OW19315   3.979   1.793   8.680
 6260SOL    HW119316   4.027   1.723   8.726
 6260SOL    HW219317   3.966   1.759   8.591
 6261SOL     OW19318   4.111   0.694   7.920
 6261SOL    HW119319   4.136   0.602   7.935
 6261SOL    HW219320   4.018   0.697   7.942
 6262SOL     OW19321   4.327   0.120   7.565
 6262SOL    HW119322   4.413   0.079   7.576
 6262SOL    HW219323   4.302   0.100   7.475
 6263SOL     OW19324   0.020   1.421   8.360
 6263SOL    HW119325   0.082   1.466   8.302
 6263SOL    HW219326   4.444   1.403   8.304
 6264SOL     OW19327   4.271   0.109   7.987
 6264SOL    HW119328   4.187   0.069   8.008
 6264SOL    HW219329   4.254   0.160   7.908
 6265SOL     OW19330   4.023   0.071   7.646
 6265SOL    HW119331   4.103   0.121   7.627
 6265SOL    HW219332   4.052   0.000   7.703
 6266SOL     OW19333   0.323   0.678   8.906
 6266SOL    HW119334   0.254   0.615   8.888
 6266SOL    HW219335   0.404   0.629   8.894
 6267SOL     OW19336   4.190   1.145   8.181
 6267SOL    HW119337   4.121   1.126   8.245
 6267SOL    HW219338   4.149   1.128   8.096
 6268SOL     OW19339   3.807   0.550   8.843
 6268SOL    HW119340   3.897   0.554   8.812
 6268SOL    HW219341   3.799   0.622   8.906
 6269SOL     OW19342   4.297   0.237   8.608
 6269SOL    HW119343   4.304   0.144   8.628
 6269SOL    HW219344   4.209   0.261   8.637
 6270SOL     OW19345   4.230   1.386   7.621
 6270SOL    HW119346   4.146   1.372   7.663
 6270SOL    HW219347   4.210   1.401   7.529
 6271SOL     OW19348   4.244   0.271   7.771
 6271SOL    HW119349   4.284   0.215   7.705
 6271SOL    HW219350   4.224   0.352   7.725
 6272SOL     OW19351   4.140   0.814   8.698
 6272SOL    HW119352   4.208   0.824   8.765
 6272SOL    HW219353   4.106   0.726   8.711
 6273SOL     OW19354   3.793   1.573   8.801
 6273SOL    HW119355   3.761   1.645   8.746
 6273SOL    HW219356   3.889   1.579   8.794
 6274SOL     OW19357   4.070   1.109   7.938
 6274SOL    HW119358   4.073   1.182   7.875
 6274SOL    HW219359   4.069   1.031   7.883
 6275SOL     OW19360   4.302   0.539   8.311
 6275SOL    HW119361   4.301   0.604   8.241
 6275SOL    HW219362   4.366   0.572   8.374
 6276SOL     OW19363   4.072   1.534   8.764
 6276SOL    HW119364   4.066   1.490   8.679
 6276SOL    HW219365   4.165   1.535   8.785
 6277SOL     OW19366   4.137   0.741   9.053
 6277SOL    HW119367   4.195   0.787   8.992
 6277SOL    HW219368   4.184   0.659   9.073
 6278SOL     OW19369   4.239   0.071   9.174
 6278SOL    HW119370   4.206   4.486   9.143
 6278SOL    HW219371   4.160   0.123   9.190
 6279SOL     OW19372   4.290   0.891   8.474
 6279SOL    HW119373   4.319   0.981   8.489
 6279SOL    HW219374   4.243   0.867   8.554
 6280SOL     OW19375   4.014   0.237   8.689
 6280SOL    HW119376   3.970   0.249   8.773
 6280SOL    HW219377   4.052   0.149   8.693
 6281SOL     OW19378   3.771   1.311   8.725
 6281SOL    HW119379   3.803   1.256   8.796
 6281SOL    HW219380   3.776   1.400   8.758
 6282SOL     OW19381   4.013   0.054   8.105
 6282SOL    HW119382   4.007   0.150   8.106
 6282SOL    HW219383   4.027   0.031   8.197
 6283SOL     OW19384   4.077   0.916   9.255
 6283SOL    HW119385   4.158   0.931   9.304
 6283SOL    HW219386   4.099   0.851   9.189
 6284SOL     OW19387   4.031   0.809   8.394
 6284SOL    HW119388   4.123   0.837   8.394
 6284SOL    HW219389   4.034   0.719   8.425
 6285SOL     OW19390   4.068   0.532   8.458
 6285SOL    HW119391   4.024   0.449   8.439
 6285SOL    HW219392   4.147   0.531   8.403
 6286SOL     OW19393   3.729   1.321   7.643
 6286SOL    HW119394   3.642   1.335   7.606
 6286SOL    HW219395   3.727   1.232   7.677
 6287SOL     OW19396   3.816   1.788   8.387
 6287SOL    HW119397   3.786   1.708   8.342
 6287SOL    HW219398   3.905   1.800   8.355
 6288SOL     OW19399   4.232   1.583   8.353
 6288SOL    HW119400   4.318   1.613   8.383
 6288SOL    HW219401   4.252   1.513   8.291
 6289SOL     OW19402   3.757   0.544   8.566
 6289SOL    HW119403   3.832   0.518   8.512
 6289SOL    HW219404   3.791   0.547   8.655
 6290SOL     OW19405   3.909   0.519   9.169
 6290SOL    HW119406   3.984   0.499   9.113
 6290SOL    HW219407   3.867   0.594   9.128
 6291SOL     OW19408   0.029   0.550   7.710
 6291SOL    HW119409   0.020   0.488   7.783
 6291SOL    HW219410   4.463   0.617   7.728
 6292SOL     OW19411   3.970   1.553   9.176
 6292SOL    HW119412   3.943   1.617   9.242
 6292SOL    HW219413   3.967   1.469   9.221
 6293SOL     OW19414   4.190   0.495   7.632
 6293SOL    HW119415   4.248   0.568   7.654
 6293SOL    HW219416   4.104   0.535   7.620
 6294SOL     OW19417   3.870   1.140   8.920
 6294SOL    HW119418   3.872   1.088   9.001
 6294SOL    HW219419   3.886   1.076   8.851
 6295SOL     OW19420   3.808   1.269   8.461
 6295SOL    HW119421   3.793   1.279   8.554
 6295SOL    HW219422   3.738   1.212   8.431
 6296SOL     OW19423   4.389   1.651   9.149
 6296SOL    HW119424   4.355   1.737   9.176
 6296SOL    HW219425   4.431   1.667   9.065
 6297SOL     OW19426   3.861   1.797   9.291
 6297SOL    HW119427   3.810   1.732   9.340
 6297SOL    HW219428   3.908   1.845   9.359
 6298SOL     OW19429   3.988   0.325   8.164
 6298SOL    HW119430   3.902   0.358   8.140
 6298SOL    HW219431   3.985   0.315   8.259
 6299SOL     OW19432   4.088   1.307   8.938
 6299SOL    HW119433   4.069   1.383   8.883
 6299SOL    HW219434   4.015   1.246   8.922
 6300SOL     OW19435   4.326   1.490   7.928
 6300SOL    HW119436   4.343   1.431   7.855
 6300SOL    HW219437   4.259   1.550   7.895
 6301SOL     OW19438   3.984   1.349   7.734
 6301SOL    HW119439   3.891   1.345   7.712
 6301SOL    HW219440   3.986   1.385   7.823
 6302SOL     OW19441   3.836   1.023   9.168
 6302SOL    HW119442   3.760   0.999   9.220
 6302SOL    HW219443   3.910   0.985   9.215
 6303SOL     OW19444   4.369   0.206   8.937
 6303SOL    HW119445   4.459   0.223   8.912
 6303SOL    HW219446   4.375   0.175   9.028
 6304SOL     OW19447   3.805   0.339   7.496
 6304SOL    HW119448   3.735   0.285   7.460
 6304SOL    HW219449   3.818   0.408   7.431
 6305SOL     OW19450   3.788   0.183   7.767
 6305SOL    HW119451   3.787   0.249   7.698
 6305SOL    HW219452   3.864   0.128   7.746
 6306SOL     OW19453   4.338   0.840   8.883
 6306SOL    HW119454   4.378   0.925   8.868
 6306SOL    HW219455   4.412   0.782   8.902
 6307SOL     OW19456   4.397   0.560   9.181
 6307SOL    HW119457   4.420   0.634   9.236
 6307SOL    HW219458   4.480   0.520   9.156
 6308SOL     OW19459   4.107   1.739   9.008
 6308SOL    HW119460   4.022   1.780   8.995
 6308SOL    HW219461   4.088   1.657   9.055
 6309SOL     OW19462   4.309   0.730   8.114
 6309SOL    HW119463   4.350   0.816   8.103
 6309SOL    HW219464   4.240   0.728   8.049
 6310SOL     OW19465   3.943   1.307   9.302
 6310SOL    HW119466   3.878   1.243   9.275
 6310SOL    HW219467   3.928   1.317   9.396
 6311SOL     OW19468   3.809   1.234   8.113
 6311SOL    HW119469   3.812   1.185   8.196
 6311SOL    HW219470   3.877   1.194   8.059
 6312SOL     OW19471   4.417   1.386   9.107
 6312SOL    HW119472   4.327   1.353   9.102
 6312SOL    HW219473   4.407   1.480   9.123
 6313SOL     OW19474   4.165   0.435   7.981
 6313SOL    HW119475   4.184   0.366   7.917
 6313SOL    HW219476   4.109   0.393   8.046
 6314SOL     OW19477   4.054   0.556   8.737
 6314SOL    HW119478   4.106   0.498   8.791
 6314SOL    HW219479   4.073   0.530   8.647
 6315SOL     OW19480   0.036   1.599   8.134
 6315SOL    HW119481   0.060   1.661   8.065
 6315SOL    HW219482   4.466   1.546   8.096
 6316SOL     OW19483   3.768   1.071   7.753
 6316SOL    HW119484   3.862   1.061   7.736
 6316SOL    HW219485   3.739   0.983   7.777
 6317SOL     OW19486   3.954   0.627   9.430
 6317SOL    HW119487   3.867   0.619   9.470
 6317SOL    HW219488   3.942   0.595   9.340
 6318SOL     OW19489   3.929   0.303  10.299
 6318SOL    HW119490   3.964   0.272  10.382
 6318SOL    HW219491   3.849   0.252  10.286
 6319SOL     OW19492   3.731   0.387   9.948
 6319SOL    HW119493   3.645   0.405   9.985
 6319SOL    HW219494   3.717   0.312   9.890
 6320SOL     OW19495   4.267   1.245  10.456
 6320SOL    HW119496   4.197   1.307  10.433
 6320SOL    HW219497   4.333   1.300  10.499
 6321SOL     OW19498   0.024   0.812   0.080
 6321SOL    HW119499   0.102   0.847   0.121
 6321SOL    HW219500   0.051   0.792  11.090
 6322SOL     OW19501   4.398   0.991   9.947
 6322SOL    HW119502   4.472   0.986  10.007
 6322SOL    HW219503   4.336   1.050   9.990
 6323SOL     OW19504   4.061   1.432  10.379
 6323SOL    HW119505   3.988   1.389  10.334
 6323SOL    HW219506   4.106   1.481  10.310
 6324SOL     OW19507   4.175   0.397  10.793
 6324SOL    HW119508   4.244   0.331  10.796
 6324SOL    HW219509   4.096   0.350  10.818
 6325SOL     OW19510   3.942   1.714   9.783
 6325SOL    HW119511   3.963   1.790   9.837
 6325SOL    HW219512   4.016   1.706   9.724
 6326SOL     OW19513   3.954   1.441   9.844
 6326SOL    HW119514   3.935   1.535   9.850
 6326SOL    HW219515   3.895   1.401   9.908
 6327SOL     OW19516   3.975   1.088  10.196
 6327SOL    HW119517   3.979   1.004  10.241
 6327SOL    HW219518   3.923   1.144  10.255
 6328SOL     OW19519   4.355   1.801  10.754
 6328SOL    HW119520   4.268   1.771  10.781
 6328SOL    HW219521   4.352   1.896  10.766
 6329SOL     OW19522   4.309   0.986   9.448
 6329SOL    HW119523   4.339   1.038   9.374
 6329SOL    HW219524   4.377   0.997   9.515
 6330SOL     OW19525   3.839   0.653   9.870
 6330SOL    HW119526   3.810   0.564   9.892
 6330SOL    HW219527   3.831   0.702   9.952
 6331SOL     OW19528   3.757   1.595   9.434
 6331SOL    HW119529   3.738   1.503   9.453
 6331SOL    HW219530   3.732   1.642   9.513
 6332SOL     OW19531   3.849   0.726  10.915
 6332SOL    HW119532   3.941   0.750  10.906
 6332SOL    HW219533   3.802   0.810  10.908
 6333SOL     OW19534   4.310   1.387  10.048
 6333SOL    HW119535   4.275   1.299  10.051
 6333SOL    HW219536   4.312   1.409   9.954
 6334SOL     OW19537   0.018   0.016   9.820
 6334SOL    HW119538   0.048   0.078   9.754
 6334SOL    HW219539   4.428   0.042   9.840
 6335SOL     OW19540   3.912   0.964  10.580
 6335SOL    HW119541   3.997   0.924  10.561
 6335SOL    HW219542   3.849   0.910  10.531
 6336SOL     OW19543   4.057   0.277  11.088
 6336SOL    HW119544   4.115   0.337   0.036
 6336SOL    HW219545   3.973   0.284   0.033
 6337SOL     OW19546   4.312   0.728   9.580
 6337SOL    HW119547   4.309   0.806   9.524
 6337SOL    HW219548   4.245   0.743   9.646
 6338SOL     OW19549   3.812   0.821  10.086
 6338SOL    HW119550   3.893   0.813  10.136
 6338SOL    HW219551   3.770   0.900  10.120
 6339SOL     OW19552   3.854   1.845  10.897
 6339SOL    HW119553   3.837   1.806  10.982
 6339SOL    HW219554   3.771   1.840  10.851
 6340SOL     OW19555   4.242   0.204  10.211
 6340SOL    HW119556   4.288   0.223  10.293
 6340SOL    HW219557   4.261   0.279  10.155
 6341SOL     OW19558   4.082   1.812  10.173
 6341SOL    HW119559   4.132   1.730  10.180
 6341SOL    HW219560   4.148   1.881  10.184
 6342SOL     OW19561   4.043   0.958   9.560
 6342SOL    HW119562   4.125   0.976   9.515
 6342SOL    HW219563   4.013   0.875   9.522
 6343SOL     OW19564   4.178   1.263  11.055
 6343SOL    HW119565   4.152   1.276  10.963
 6343SOL    HW219566   4.107   1.210  11.092
 6344SOL     OW19567   3.922   0.272  10.815
 6344SOL    HW119568   3.848   0.332  10.808
 6344SOL    HW219569   3.936   0.262  10.909
 6345SOL     OW19570   4.191   1.735   9.635
 6345SOL    HW119571   4.224   1.795   9.702
 6345SOL    HW219572   4.261   1.732   9.569
 6346SOL     OW19573   3.979   1.793  10.543
 6346SOL    HW119574   4.027   1.723  10.589
 6346SOL    HW219575   3.967   1.759  10.455
 6347SOL     OW19576   4.111   0.694   9.782
 6347SOL    HW119577   4.136   0.603   9.797
 6347SOL    HW219578   4.018   0.697   9.804
 6348SOL     OW19579   4.327   0.120   9.427
 6348SOL    HW119580   4.413   0.079   9.439
 6348SOL    HW219581   4.302   0.100   9.337
 6349SOL     OW19582   0.020   1.421  10.222
 6349SOL    HW119583   0.082   1.466  10.164
 6349SOL    HW219584   4.444   1.403  10.166
 6350SOL     OW19585   4.271   0.110   9.850
 6350SOL    HW119586   4.187   0.068   9.870
 6350SOL    HW219587   4.254   0.160   9.770
 6351SOL     OW19588   4.023   0.071   9.508
 6351SOL    HW119589   4.103   0.121   9.489
 6351SOL    HW219590   4.052   0.000   9.565
 6352SOL     OW19591   0.310   0.681  10.771
 6352SOL    HW119592   0.250   0.607  10.768
 6352SOL    HW219593   0.397   0.642  10.758
 6353SOL     OW19594   4.190   1.145  10.043
 6353SOL    HW119595   4.121   1.126  10.107
 6353SOL    HW219596   4.149   1.128   9.958
 6354SOL     OW19597   3.805   0.549  10.708
 6354SOL    HW119598   3.896   0.554  10.677
 6354SOL    HW219599   3.800   0.614  10.778
 6355SOL     OW19600   4.298   0.236  10.478
 6355SOL    HW119601   4.299   0.140  10.483
 6355SOL    HW219602   4.208   0.260  10.499
 6356SOL     OW19603   4.230   1.386   9.483
 6356SOL    HW119604   4.146   1.372   9.525
 6356SOL    HW219605   4.209   1.402   9.391
 6357SOL     OW19606   4.244   0.271   9.633
 6357SOL    HW119607   4.284   0.215   9.567
 6357SOL    HW219608   4.224   0.352   9.587
 6358SOL     OW19609   4.141   0.814  10.559
 6358SOL    HW119610   4.208   0.823  10.627
 6358SOL    HW219611   4.106   0.725  10.572
 6359SOL     OW19612   3.794   1.576  10.662
 6359SOL    HW119613   3.762   1.645  10.604
 6359SOL    HW219614   3.889   1.579  10.654
 6360SOL     OW19615   4.070   1.109   9.800
 6360SOL    HW119616   4.073   1.182   9.737
 6360SOL    HW219617   4.069   1.031   9.745
 6361SOL     OW19618   4.302   0.539  10.174
 6361SOL    HW119619   4.302   0.605  10.104
 6361SOL    HW219620   4.367   0.570  10.237
 6362SOL     OW19621   4.072   1.532  10.626
 6362SOL    HW119622   4.067   1.489  10.541
 6362SOL    HW219623   4.165   1.535  10.647
 6363SOL     OW19624   4.135   0.735  10.904
 6363SOL    HW119625   4.198   0.780  10.848
 6363SOL    HW219626   4.163   0.644  10.904
 6364SOL     OW19627   4.291   0.891  10.336
 6364SOL    HW119628   4.319   0.981  10.351
 6364SOL    HW219629   4.243   0.867  10.415
 6365SOL     OW19630   4.015   0.237  10.549
 6365SOL    HW119631   3.975   0.251  10.635
 6365SOL    HW219632   4.050   0.148  10.553
 6366SOL     OW19633   3.774   1.312  10.585
 6366SOL    HW119634   3.801   1.256  10.658
 6366SOL    HW219635   3.775   1.401  10.622
 6367SOL     OW19636   4.012   0.054   9.967
 6367SOL    HW119637   4.007   0.150   9.968
 6367SOL    HW219638   4.027   0.031  10.059
 6368SOL     OW19639   4.081   0.917  11.094
 6368SOL    HW119640   4.164   0.934   0.038
 6368SOL    HW219641   4.101   0.851  11.029
 6369SOL     OW19642   4.031   0.809  10.256
 6369SOL    HW119643   4.123   0.837  10.255
 6369SOL    HW219644   4.034   0.718  10.287
 6370SOL     OW19645   4.068   0.532  10.321
 6370SOL    HW119646   4.024   0.450  10.301
 6370SOL    HW219647   4.147   0.532  10.266
 6371SOL     OW19648   3.729   1.321   9.505
 6371SOL    HW119649   3.642   1.335   9.467
 6371SOL    HW219650   3.727   1.232   9.539
 6372SOL     OW19651   3.816   1.788  10.249
 6372SOL    HW119652   3.786   1.708  10.204
 6372SOL    HW219653   3.905   1.800  10.217
 6373SOL     OW19654   4.232   1.584  10.215
 6373SOL    HW119655   4.318   1.614  10.245
 6373SOL    HW219656   4.252   1.513  10.153
 6374SOL     OW19657   3.757   0.544  10.428
 6374SOL    HW119658   3.833   0.519  10.375
 6374SOL    HW219659   3.791   0.547  10.518
 6375SOL     OW19660   0.029   0.550   9.572
 6375SOL    HW119661   0.021   0.489   9.646
 6375SOL    HW219662   4.463   0.617   9.590
 6376SOL     OW19663   3.977   1.567  11.052
 6376SOL    HW119664   3.920   1.598   0.021
 6376SOL    HW219665   3.984   1.472  11.067
 6377SOL     OW19666   4.190   0.495   9.494
 6377SOL    HW119667   4.248   0.567   9.516
 6377SOL    HW219668   4.104   0.535   9.482
 6378SOL     OW19669   3.876   1.138  10.780
 6378SOL    HW119670   3.869   1.083  10.858
 6378SOL    HW219671   3.889   1.075  10.708
 6379SOL     OW19672   3.809   1.270  10.322
 6379SOL    HW119673   3.795   1.280  10.416
 6379SOL    HW219674   3.738   1.212  10.293
 6380SOL     OW19675   4.392   1.667  11.003
 6380SOL    HW119676   4.311   1.715  10.985
 6380SOL    HW219677   4.429   1.650  10.917
 6381SOL     OW19678   3.989   0.325  10.026
 6381SOL    HW119679   3.902   0.358  10.002
 6381SOL    HW219680   3.985   0.315  10.121
 6382SOL     OW19681   4.083   1.310  10.811
 6382SOL    HW119682   4.071   1.382  10.748
 6382SOL    HW219683   4.014   1.247  10.789
 6383SOL     OW19684   4.326   1.490   9.790
 6383SOL    HW119685   4.343   1.431   9.717
 6383SOL    HW219686   4.259   1.550   9.757
 6384SOL     OW19687   3.984   1.349   9.596
 6384SOL    HW119688   3.891   1.345   9.574
 6384SOL    HW219689   3.986   1.385   9.685
 6385SOL     OW19690   3.838   1.013  11.019
 6385SOL    HW119691   3.769   1.000  11.083
 6385SOL    HW219692   3.918   0.982  11.062
 6386SOL     OW19693   4.376   0.187  10.816
 6386SOL    HW119694   4.442   0.208  10.750
 6386SOL    HW219695   4.416   0.212  10.900
 6387SOL     OW19696   3.805   0.339   9.358
 6387SOL    HW119697   3.734   0.285   9.322
 6387SOL    HW219698   3.818   0.408   9.293
 6388SOL     OW19699   3.788   0.183   9.629
 6388SOL    HW119700   3.787   0.249   9.560
 6388SOL    HW219701   3.864   0.128   9.608
 6389SOL     OW19702   4.338   0.839  10.745
 6389SOL    HW119703   4.375   0.926  10.729
 6389SOL    HW219704   4.414   0.782  10.755
 6390SOL     OW19705   4.115   1.734  10.874
 6390SOL    HW119706   4.037   1.788  10.864
 6390SOL    HW219707   4.086   1.660  10.926
 6391SOL     OW19708   4.309   0.730   9.977
 6391SOL    HW119709   4.350   0.816   9.964
 6391SOL    HW219710   4.240   0.728   9.911
 6392SOL     OW19711   3.809   1.234   9.975
 6392SOL    HW119712   3.812   1.186  10.058
 6392SOL    HW219713   3.877   1.194   9.921
 6393SOL     OW19714   4.407   1.391  10.944
 6393SOL    HW119715   4.331   1.343  10.976
 6393SOL    HW219716   4.400   1.477  10.985
 6394SOL     OW19717   4.165   0.435   9.843
 6394SOL    HW119718   4.184   0.366   9.779
 6394SOL    HW219719   4.109   0.393   9.908
 6395SOL     OW19720   4.054   0.556  10.600
 6395SOL    HW119721   4.107   0.496  10.652
 6395SOL    HW219722   4.071   0.530  10.509
 6396SOL     OW19723   0.036   1.599   9.996
 6396SOL    HW119724   0.059   1.661   9.927
 6396SOL    HW219725   4.466   1.546   9.958
 6397SOL     OW19726   3.768   1.071   9.615
 6397SOL    HW119727   3.862   1.061   9.598
 6397SOL    HW219728   3.739   0.983   9.639
 6398SOL     OW19729   3.948   2.475   0.115
 6398SOL    HW119730   3.863   2.480   0.160
 6398SOL    HW219731   3.929   2.505   0.026
 6399SOL     OW19732   3.947   2.147   0.991
 6399SOL    HW119733   3.979   2.111   1.074
 6399SOL    HW219734   3.858   2.113   0.983
 6400SOL     OW19735   3.728   2.245   0.638
 6400SOL    HW119736   3.645   2.269   0.679
 6400SOL    HW219737   3.708   2.165   0.589
 6401SOL     OW19738   4.266   3.107   1.147
 6401SOL    HW119739   4.197   3.169   1.123
 6401SOL    HW219740   4.333   3.161   1.188
 6402SOL     OW19741   0.019   2.642   1.857
 6402SOL    HW119742   0.071   2.684   1.925
 6402SOL    HW219743   0.064   2.665   1.775
 6403SOL     OW19744   4.397   2.852   0.636
 6403SOL    HW119745   4.473   2.850   0.694
 6403SOL    HW219746   4.336   2.912   0.679
 6404SOL     OW19747   4.419   3.023   1.813
 6404SOL    HW119748   4.459   3.104   1.780
 6404SOL    HW219749   4.327   3.031   1.789
 6405SOL     OW19750   4.061   3.294   1.069
 6405SOL    HW119751   3.988   3.251   1.023
 6405SOL    HW219752   4.106   3.343   1.000
 6406SOL     OW19753   4.171   2.261   1.484
 6406SOL    HW119754   4.246   2.201   1.489
 6406SOL    HW219755   4.094   2.206   1.499
 6407SOL     OW19756   3.942   3.575   0.475
 6407SOL    HW119757   3.963   3.653   0.527
 6407SOL    HW219758   4.012   3.570   0.411
 6408SOL     OW19759   3.951   3.302   0.532
 6408SOL    HW119760   3.936   3.397   0.536
 6408SOL    HW219761   3.891   3.266   0.597
 6409SOL     OW19762   3.975   2.950   0.886
 6409SOL    HW119763   3.979   2.866   0.931
 6409SOL    HW219764   3.923   3.006   0.945
 6410SOL     OW19765   4.361   3.659   1.454
 6410SOL    HW119766   4.275   3.626   1.478
 6410SOL    HW219767   4.352   3.755   1.455
 6411SOL     OW19768   4.298   2.867   0.139
 6411SOL    HW119769   4.313   2.934   0.072
 6411SOL    HW219770   4.379   2.866   0.190
 6412SOL     OW19771   3.838   2.513   0.560
 6412SOL    HW119772   3.808   2.425   0.582
 6412SOL    HW219773   3.830   2.563   0.641
 6413SOL     OW19774   3.770   3.463   0.119
 6413SOL    HW119775   3.742   3.375   0.144
 6413SOL    HW219776   3.743   3.518   0.193
 6414SOL     OW19777   3.846   2.604   1.586
 6414SOL    HW119778   3.938   2.629   1.595
 6414SOL    HW219779   3.798   2.686   1.592
 6415SOL     OW19780   4.310   3.250   0.738
 6415SOL    HW119781   4.275   3.161   0.741
 6415SOL    HW219782   4.311   3.271   0.645
 6416SOL     OW19783   0.021   1.872   0.531
 6416SOL    HW119784   0.053   1.929   0.460
 6416SOL    HW219785   4.426   1.885   0.531
 6417SOL     OW19786   3.912   2.827   1.272
 6417SOL    HW119787   3.998   2.788   1.254
 6417SOL    HW219788   3.850   2.773   1.223
 6418SOL     OW19789   4.058   2.112   1.810
 6418SOL    HW119790   4.101   2.196   1.827
 6418SOL    HW219791   3.968   2.125   1.842
 6419SOL     OW19792   4.309   2.580   0.269
 6419SOL    HW119793   4.329   2.656   0.216
 6419SOL    HW219794   4.245   2.611   0.334
 6420SOL     OW19795   3.812   2.684   0.775
 6420SOL    HW119796   3.893   2.675   0.825
 6420SOL    HW219797   3.770   2.762   0.810
 6421SOL     OW19798   3.853   3.709   1.577
 6421SOL    HW119799   3.853   3.688   1.671
 6421SOL    HW219800   3.761   3.700   1.551
 6422SOL     OW19801   4.251   2.053   0.880
 6422SOL    HW119802   4.271   2.059   0.974
 6422SOL    HW219803   4.261   2.142   0.848
 6423SOL     OW19804   4.082   3.674   0.863
 6423SOL    HW119805   4.131   3.592   0.870
 6423SOL    HW219806   4.148   3.743   0.874
 6424SOL     OW19807   4.040   2.822   0.275
 6424SOL    HW119808   4.120   2.845   0.227
 6424SOL    HW219809   4.014   2.738   0.237
 6425SOL     OW19810   4.178   3.114   1.735
 6425SOL    HW119811   4.151   3.126   1.644
 6425SOL    HW219812   4.097   3.124   1.785
 6426SOL     OW19813   3.924   2.144   1.502
 6426SOL    HW119814   3.842   2.193   1.495
 6426SOL    HW219815   3.906   2.075   1.566
 6427SOL     OW19816   4.193   3.594   0.328
 6427SOL    HW119817   4.224   3.657   0.392
 6427SOL    HW219818   4.264   3.585   0.265
 6428SOL     OW19819   3.979   3.655   1.232
 6428SOL    HW119820   4.027   3.585   1.277
 6428SOL    HW219821   3.966   3.622   1.143
 6429SOL     OW19822   4.108   2.556   0.475
 6429SOL    HW119823   4.135   2.465   0.489
 6429SOL    HW219824   4.015   2.558   0.498
 6430SOL     OW19825   4.347   1.990   0.111
 6430SOL    HW119826   4.434   1.954   0.126
 6430SOL    HW219827   4.318   1.949   0.030
 6431SOL     OW19828   0.020   3.283   0.911
 6431SOL    HW119829   0.081   3.329   0.854
 6431SOL    HW219830   4.444   3.265   0.856
 6432SOL     OW19831   4.260   1.927   0.500
 6432SOL    HW119832   4.180   1.930   0.553
 6432SOL    HW219833   4.256   2.005   0.446
 6433SOL     OW19834   4.009   1.911   0.199
 6433SOL    HW119835   4.052   1.965   0.133
 6433SOL    HW219836   4.075   1.847   0.226
 6434SOL     OW19837   0.325   2.536   1.448
 6434SOL    HW119838   0.255   2.471   1.440
 6434SOL    HW219839   0.406   2.484   1.449
 6435SOL     OW19840   4.191   3.007   0.736
 6435SOL    HW119841   4.122   2.988   0.799
 6435SOL    HW219842   4.150   2.992   0.650
 6436SOL     OW19843   3.803   2.416   1.392
 6436SOL    HW119844   3.894   2.415   1.364
 6436SOL    HW219845   3.798   2.486   1.457
 6437SOL     OW19846   4.283   2.073   1.149
 6437SOL    HW119847   4.326   2.007   1.203
 6437SOL    HW219848   4.196   2.083   1.188
 6438SOL     OW19849   4.237   3.262   0.190
 6438SOL    HW119850   4.151   3.248   0.232
 6438SOL    HW219851   4.221   3.243   0.098
 6439SOL     OW19852   4.249   2.132   0.324
 6439SOL    HW119853   4.285   2.076   0.255
 6439SOL    HW219854   4.226   2.213   0.279
 6440SOL     OW19855   4.140   2.675   1.250
 6440SOL    HW119856   4.207   2.685   1.317
 6440SOL    HW219857   4.105   2.586   1.264
 6441SOL     OW19858   3.794   3.435   1.353
 6441SOL    HW119859   3.761   3.506   1.297
 6441SOL    HW219860   3.889   3.441   1.346
 6442SOL     OW19861   4.069   2.979   0.496
 6442SOL    HW119862   4.071   3.052   0.435
 6442SOL    HW219863   4.065   2.901   0.441
 6443SOL     OW19864   4.300   2.400   0.864
 6443SOL    HW119865   4.301   2.466   0.795
 6443SOL    HW219866   4.365   2.431   0.927
 6444SOL     OW19867   4.072   3.396   1.316
 6444SOL    HW119868   4.066   3.352   1.231
 6444SOL    HW219869   4.165   3.397   1.336
 6445SOL     OW19870   4.137   2.604   1.604
 6445SOL    HW119871   4.196   2.649   1.544
 6445SOL    HW219872   4.179   2.520   1.623
 6446SOL     OW19873   4.232   1.914   1.734
 6446SOL    HW119874   4.186   1.854   1.675
 6446SOL    HW219875   4.167   1.981   1.754
 6447SOL     OW19876   4.290   2.752   1.026
 6447SOL    HW119877   4.319   2.842   1.041
 6447SOL    HW219878   4.243   2.729   1.106
 6448SOL     OW19879   4.024   2.062   1.247
 6448SOL    HW119880   3.985   2.094   1.329
 6448SOL    HW219881   4.004   1.968   1.247
 6449SOL     OW19882   3.770   3.173   1.277
 6449SOL    HW119883   3.803   3.118   1.348
 6449SOL    HW219884   3.776   3.262   1.310
 6450SOL     OW19885   4.020   1.928   0.626
 6450SOL    HW119886   4.004   2.019   0.650
 6450SOL    HW219887   4.032   1.883   0.709
 6451SOL     OW19888   4.076   2.777   1.809
 6451SOL    HW119889   4.158   2.792   1.855
 6451SOL    HW219890   4.099   2.713   1.741
 6452SOL     OW19891   4.031   2.670   0.946
 6452SOL    HW119892   4.122   2.698   0.946
 6452SOL    HW219893   4.033   2.580   0.977
 6453SOL     OW19894   4.063   2.389   1.009
 6453SOL    HW119895   4.027   2.302   0.993
 6453SOL    HW219896   4.143   2.392   0.955
 6454SOL     OW19897   3.732   3.189   0.194
 6454SOL    HW119898   3.645   3.201   0.156
 6454SOL    HW219899   3.732   3.099   0.226
 6455SOL     OW19900   3.816   3.649   0.939
 6455SOL    HW119901   3.786   3.570   0.895
 6455SOL    HW219902   3.906   3.662   0.907
 6456SOL     OW19903   4.232   3.445   0.905
 6456SOL    HW119904   4.318   3.476   0.935
 6456SOL    HW219905   4.251   3.375   0.843
 6457SOL     OW19906   3.759   2.406   1.116
 6457SOL    HW119907   3.839   2.390   1.066
 6457SOL    HW219908   3.788   2.410   1.207
 6458SOL     OW19909   3.915   2.381   1.727
 6458SOL    HW119910   3.972   2.343   1.660
 6458SOL    HW219911   3.871   2.454   1.684
 6459SOL     OW19912   0.027   2.407   0.265
 6459SOL    HW119913   0.020   2.351   0.343
 6459SOL    HW219914   4.464   2.477   0.280
 6460SOL     OW19915   3.970   3.415   1.728
 6460SOL    HW119916   3.943   3.479   1.794
 6460SOL    HW219917   3.967   3.331   1.773
 6461SOL     OW19918   4.187   2.351   0.177
 6461SOL    HW119919   4.244   2.423   0.206
 6461SOL    HW219920   4.101   2.392   0.167
 6462SOL     OW19921   3.870   3.002   1.472
 6462SOL    HW119922   3.872   2.950   1.553
 6462SOL    HW219923   3.886   2.939   1.402
 6463SOL     OW19924   3.808   3.131   1.013
 6463SOL    HW119925   3.793   3.141   1.107
 6463SOL    HW219926   3.737   3.074   0.983
 6464SOL     OW19927   4.389   3.513   1.701
 6464SOL    HW119928   4.355   3.599   1.728
 6464SOL    HW219929   4.432   3.530   1.617
 6465SOL     OW19930   3.861   3.658   1.843
 6465SOL    HW119931   3.810   3.594   1.892
 6465SOL    HW219932   3.908   3.708   1.910
 6466SOL     OW19933   3.986   2.182   0.716
 6466SOL    HW119934   3.899   2.215   0.694
 6466SOL    HW219935   3.984   2.171   0.811
 6467SOL     OW19936   4.088   3.169   1.491
 6467SOL    HW119937   4.069   3.244   1.435
 6467SOL    HW219938   4.015   3.108   1.474
 6468SOL     OW19939   4.324   3.352   0.481
 6468SOL    HW119940   4.343   3.296   0.406
 6468SOL    HW219941   4.257   3.413   0.450
 6469SOL     OW19942   3.991   3.204   0.288
 6469SOL    HW119943   3.903   3.204   0.250
 6469SOL    HW219944   3.979   3.242   0.375
 6470SOL     OW19945   3.836   2.885   1.720
 6470SOL    HW119946   3.760   2.861   1.772
 6470SOL    HW219947   3.910   2.846   1.767
 6471SOL     OW19948   4.390   2.068   1.494
 6471SOL    HW119949   4.479   2.066   1.457
 6471SOL    HW219950   4.402   2.056   1.588
 6472SOL     OW19951   3.807   2.205   0.048
 6472SOL    HW119952   3.731   2.171   0.001
 6472SOL    HW219953   3.824   2.291   0.008
 6473SOL     OW19954   3.790   2.021   0.314
 6473SOL    HW119955   3.781   2.102   0.264
 6473SOL    HW219956   3.872   1.983   0.284
 6474SOL     OW19957   4.337   2.701   1.435
 6474SOL    HW119958   4.380   2.786   1.420
 6474SOL    HW219959   4.409   2.640   1.450
 6475SOL     OW19960   4.398   2.419   1.738
 6475SOL    HW119961   4.420   2.496   1.790
 6475SOL    HW219962   4.482   2.384   1.708
 6476SOL     OW19963   4.107   3.601   1.560
 6476SOL    HW119964   4.022   3.642   1.547
 6476SOL    HW219965   4.088   3.519   1.606
 6477SOL     OW19966   4.309   2.592   0.667
 6477SOL    HW119967   4.350   2.677   0.656
 6477SOL    HW219968   4.239   2.591   0.601
 6478SOL     OW19969   3.943   3.169   1.854
 6478SOL    HW119970   3.878   3.105   1.826
 6478SOL    HW219971   3.928   3.179   1.948
 6479SOL     OW19972   3.808   3.095   0.666
 6479SOL    HW119973   3.814   3.046   0.748
 6479SOL    HW219974   3.879   3.059   0.612
 6480SOL     OW19975   4.417   3.248   1.659
 6480SOL    HW119976   4.327   3.215   1.654
 6480SOL    HW219977   4.407   3.342   1.675
 6481SOL     OW19978   4.161   2.296   0.532
 6481SOL    HW119979   4.181   2.226   0.469
 6481SOL    HW219980   4.104   2.253   0.597
 6482SOL     OW19981   4.053   2.416   1.289
 6482SOL    HW119982   4.107   2.360   1.345
 6482SOL    HW219983   4.074   2.388   1.200
 6483SOL     OW19984   0.035   3.461   0.687
 6483SOL    HW119985   0.062   3.521   0.618
 6483SOL    HW219986   4.465   3.409   0.647
 6484SOL     OW19987   3.766   2.933   0.301
 6484SOL    HW119988   3.861   2.927   0.297
 6484SOL    HW219989   3.738   2.845   0.326
 6485SOL     OW19990   3.954   2.485   1.985
 6485SOL    HW119991   3.865   2.484   2.019
 6485SOL    HW219992   3.945   2.459   1.893
 6486SOL     OW19993   3.947   2.147   2.853
 6486SOL    HW119994   3.979   2.111   2.936
 6486SOL    HW219995   3.858   2.113   2.844
 6487SOL     OW19996   3.727   2.245   2.500
 6487SOL    HW119997   3.645   2.270   2.541
 6487SOL    HW219998   3.706   2.165   2.452
 6488SOL     OW19999   4.267   3.108   3.007
 6488SOL    HW120000   4.197   3.169   2.985
 6488SOL    HW220001   4.333   3.161   3.051
 6489SOL     OW20002   0.019   2.642   3.719
 6489SOL    HW120003   0.071   2.684   3.787
 6489SOL    HW220004   0.064   2.665   3.637
 6490SOL     OW20005   4.398   2.854   2.498
 6490SOL    HW120006   4.472   2.847   2.559
 6490SOL    HW220007   4.337   2.912   2.542
 6491SOL     OW20008   4.419   3.023   3.675
 6491SOL    HW120009   4.459   3.104   3.642
 6491SOL    HW220010   4.327   3.031   3.651
 6492SOL     OW20011   4.060   3.294   2.931
 6492SOL    HW120012   3.988   3.251   2.886
 6492SOL    HW220013   4.106   3.343   2.862
 6493SOL     OW20014   4.171   2.261   3.346
 6493SOL    HW120015   4.246   2.201   3.351
 6493SOL    HW220016   4.095   2.206   3.361
 6494SOL     OW20017   3.942   3.576   2.336
 6494SOL    HW120018   3.963   3.652   2.389
 6494SOL    HW220019   4.016   3.568   2.276
 6495SOL     OW20020   3.954   3.303   2.396
 6495SOL    HW120021   3.936   3.397   2.402
 6495SOL    HW220022   3.895   3.263   2.460
 6496SOL     OW20023   3.975   2.950   2.748
 6496SOL    HW120024   3.980   2.866   2.792
 6496SOL    HW220025   3.923   3.005   2.807
 6497SOL     OW20026   4.361   3.659   3.316
 6497SOL    HW120027   4.275   3.626   3.340
 6497SOL    HW220028   4.352   3.755   3.317
 6498SOL     OW20029   4.309   2.848   2.001
 6498SOL    HW120030   4.340   2.899   1.926
 6498SOL    HW220031   4.377   2.860   2.067
 6499SOL     OW20032   3.839   2.514   2.422
 6499SOL    HW120033   3.808   2.426   2.443
 6499SOL    HW220034   3.831   2.563   2.504
 6500SOL     OW20035   3.756   3.457   1.986
 6500SOL    HW120036   3.738   3.365   2.006
 6500SOL    HW220037   3.732   3.504   2.066
 6501SOL     OW20038   3.846   2.604   3.448
 6501SOL    HW120039   3.938   2.629   3.457
 6501SOL    HW220040   3.798   2.687   3.454
 6502SOL     OW20041   4.310   3.249   2.599
 6502SOL    HW120042   4.274   3.161   2.603
 6502SOL    HW220043   4.311   3.271   2.506
 6503SOL     OW20044   0.022   1.870   2.388
 6503SOL    HW120045   0.053   1.931   2.321
 6503SOL    HW220046   4.427   1.884   2.391
 6504SOL     OW20047   3.912   2.827   3.134
 6504SOL    HW120048   3.998   2.788   3.116
 6504SOL    HW220049   3.850   2.773   3.085
 6505SOL     OW20050   4.058   2.112   3.673
 6505SOL    HW120051   4.101   2.196   3.689
 6505SOL    HW220052   3.968   2.125   3.704
 6506SOL     OW20053   4.312   2.590   2.132
 6506SOL    HW120054   4.309   2.667   2.076
 6506SOL    HW220055   4.244   2.606   2.198
 6507SOL     OW20056   3.812   2.683   2.637
 6507SOL    HW120057   3.893   2.675   2.688
 6507SOL    HW220058   3.770   2.762   2.672
 6508SOL     OW20059   3.853   3.708   3.439
 6508SOL    HW120060   3.853   3.688   3.533
 6508SOL    HW220061   3.761   3.701   3.413
 6509SOL     OW20062   4.251   2.052   2.742
 6509SOL    HW120063   4.271   2.059   2.836
 6509SOL    HW220064   4.261   2.142   2.710
 6510SOL     OW20065   4.082   3.674   2.725
 6510SOL    HW120066   4.132   3.592   2.732
 6510SOL    HW220067   4.147   3.743   2.736
 6511SOL     OW20068   4.043   2.820   2.112
 6511SOL    HW120069   4.126   2.839   2.068
 6511SOL    HW220070   4.013   2.738   2.074
 6512SOL     OW20071   4.178   3.114   3.597
 6512SOL    HW120072   4.151   3.126   3.505
 6512SOL    HW220073   4.097   3.124   3.647
 6513SOL     OW20074   3.924   2.144   3.364
 6513SOL    HW120075   3.842   2.193   3.357
 6513SOL    HW220076   3.906   2.075   3.427
 6514SOL     OW20077   4.192   3.597   2.188
 6514SOL    HW120078   4.225   3.657   2.255
 6514SOL    HW220079   4.261   3.596   2.121
 6515SOL     OW20080   3.979   3.655   3.094
 6515SOL    HW120081   4.027   3.585   3.139
 6515SOL    HW220082   3.966   3.621   3.006
 6516SOL     OW20083   4.111   2.556   2.335
 6516SOL    HW120084   4.136   2.464   2.350
 6516SOL    HW220085   4.018   2.558   2.356
 6517SOL     OW20086   4.340   1.971   1.980
 6517SOL    HW120087   4.435   1.957   1.979
 6517SOL    HW220088   4.312   1.948   1.891
 6518SOL     OW20089   0.020   3.283   2.774
 6518SOL    HW120090   0.082   3.328   2.716
 6518SOL    HW220091   4.444   3.265   2.718
 6519SOL     OW20092   4.260   1.927   2.363
 6519SOL    HW120093   4.181   1.931   2.417
 6519SOL    HW220094   4.256   2.005   2.308
 6520SOL     OW20095   4.017   1.910   2.047
 6520SOL    HW120096   4.078   1.973   2.009
 6520SOL    HW220097   4.073   1.846   2.090
 6521SOL     OW20098   0.325   2.536   3.311
 6521SOL    HW120099   0.255   2.471   3.301
 6521SOL    HW220100   0.406   2.484   3.311
 6522SOL     OW20101   4.190   3.007   2.595
 6522SOL    HW120102   4.121   2.988   2.659
 6522SOL    HW220103   4.149   2.990   2.510
 6523SOL     OW20104   3.803   2.416   3.254
 6523SOL    HW120105   3.895   2.415   3.226
 6523SOL    HW220106   3.798   2.486   3.319
 6524SOL     OW20107   4.283   2.073   3.011
 6524SOL    HW120108   4.326   2.007   3.065
 6524SOL    HW220109   4.196   2.083   3.050
 6525SOL     OW20110   4.231   3.248   2.035
 6525SOL    HW120111   4.146   3.234   2.076
 6525SOL    HW220112   4.210   3.264   1.943
 6526SOL     OW20113   4.245   2.128   2.184
 6526SOL    HW120114   4.286   2.073   2.117
 6526SOL    HW220115   4.225   2.210   2.139
 6527SOL     OW20116   4.140   2.675   3.112
 6527SOL    HW120117   4.207   2.685   3.179
 6527SOL    HW220118   4.105   2.586   3.125
 6528SOL     OW20119   3.794   3.435   3.215
 6528SOL    HW120120   3.761   3.506   3.160
 6528SOL    HW220121   3.889   3.441   3.208
 6529SOL     OW20122   4.070   2.971   2.352
 6529SOL    HW120123   4.073   3.044   2.289
 6529SOL    HW220124   4.069   2.893   2.297
 6530SOL     OW20125   4.300   2.400   2.726
 6530SOL    HW120126   4.300   2.467   2.657
 6530SOL    HW220127   4.365   2.431   2.789
 6531SOL     OW20128   4.072   3.396   3.178
 6531SOL    HW120129   4.066   3.352   3.093
 6531SOL    HW220130   4.165   3.397   3.199
 6532SOL     OW20131   4.136   2.605   3.466
 6532SOL    HW120132   4.196   2.649   3.406
 6532SOL    HW220133   4.178   2.520   3.484
 6533SOL     OW20134   4.232   1.914   3.596
 6533SOL    HW120135   4.186   1.854   3.537
 6533SOL    HW220136   4.167   1.981   3.616
 6534SOL     OW20137   4.290   2.753   2.888
 6534SOL    HW120138   4.319   2.843   2.904
 6534SOL    HW220139   4.243   2.729   2.968
 6535SOL     OW20140   4.024   2.062   3.109
 6535SOL    HW120141   3.985   2.094   3.191
 6535SOL    HW220142   4.005   1.969   3.109
 6536SOL     OW20143   3.770   3.173   3.139
 6536SOL    HW120144   3.803   3.118   3.210
 6536SOL    HW220145   3.776   3.262   3.172
 6537SOL     OW20146   4.020   1.928   2.488
 6537SOL    HW120147   4.004   2.019   2.511
 6537SOL    HW220148   4.032   1.883   2.571
 6538SOL     OW20149   4.076   2.777   3.671
 6538SOL    HW120150   4.158   2.792   3.717
 6538SOL    HW220151   4.099   2.713   3.603
 6539SOL     OW20152   4.031   2.670   2.808
 6539SOL    HW120153   4.122   2.698   2.808
 6539SOL    HW220154   4.033   2.580   2.839
 6540SOL     OW20155   4.063   2.389   2.871
 6540SOL    HW120156   4.027   2.302   2.855
 6540SOL    HW220157   4.143   2.392   2.817
 6541SOL     OW20158   3.729   3.183   2.058
 6541SOL    HW120159   3.642   3.197   2.020
 6541SOL    HW220160   3.727   3.094   2.091
 6542SOL     OW20161   3.816   3.649   2.801
 6542SOL    HW120162   3.786   3.570   2.756
 6542SOL    HW220163   3.905   3.662   2.769
 6543SOL     OW20164   4.232   3.445   2.767
 6543SOL    HW120165   4.318   3.475   2.797
 6543SOL    HW220166   4.252   3.375   2.705
 6544SOL     OW20167   3.759   2.406   2.978
 6544SOL    HW120168   3.839   2.390   2.928
 6544SOL    HW220169   3.789   2.410   3.069
 6545SOL     OW20170   3.915   2.381   3.590
 6545SOL    HW120171   3.971   2.343   3.522
 6545SOL    HW220172   3.872   2.454   3.546
 6546SOL     OW20173   0.031   2.417   2.125
 6546SOL    HW120174   0.020   2.350   2.192
 6546SOL    HW220175   4.464   2.482   2.144
 6547SOL     OW20176   3.970   3.415   3.590
 6547SOL    HW120177   3.943   3.479   3.656
 6547SOL    HW220178   3.967   3.331   3.635
 6548SOL     OW20179   4.189   2.355   2.050
 6548SOL    HW120180   4.248   2.428   2.070
 6548SOL    HW220181   4.104   2.395   2.036
 6549SOL     OW20182   3.870   3.002   3.334
 6549SOL    HW120183   3.872   2.950   3.415
 6549SOL    HW220184   3.886   2.938   3.264
 6550SOL     OW20185   3.808   3.131   2.875
 6550SOL    HW120186   3.793   3.141   2.969
 6550SOL    HW220187   3.738   3.074   2.845
 6551SOL     OW20188   4.389   3.513   3.563
 6551SOL    HW120189   4.355   3.599   3.590
 6551SOL    HW220190   4.432   3.530   3.479
 6552SOL     OW20191   3.861   3.658   3.705
 6552SOL    HW120192   3.810   3.594   3.754
 6552SOL    HW220193   3.907   3.708   3.772
 6553SOL     OW20194   3.986   2.182   2.577
 6553SOL    HW120195   3.899   2.215   2.556
 6553SOL    HW220196   3.985   2.171   2.673
 6554SOL     OW20197   4.088   3.169   3.352
 6554SOL    HW120198   4.069   3.245   3.297
 6554SOL    HW220199   4.015   3.108   3.336
 6555SOL     OW20200   4.326   3.352   2.342
 6555SOL    HW120201   4.343   3.293   2.269
 6555SOL    HW220202   4.260   3.413   2.309
 6556SOL     OW20203   3.984   3.211   2.148
 6556SOL    HW120204   3.891   3.207   2.126
 6556SOL    HW220205   3.986   3.247   2.237
 6557SOL     OW20206   3.836   2.885   3.582
 6557SOL    HW120207   3.760   2.861   3.634
 6557SOL    HW220208   3.910   2.846   3.628
 6558SOL     OW20209   4.390   2.068   3.356
 6558SOL    HW120210   4.478   2.066   3.319
 6558SOL    HW220211   4.402   2.056   3.450
 6559SOL     OW20212   3.803   2.195   1.897
 6559SOL    HW120213   3.715   2.176   1.864
 6559SOL    HW220214   3.832   2.270   1.845
 6560SOL     OW20215   3.793   2.018   2.172
 6560SOL    HW120216   3.778   2.098   2.122
 6560SOL    HW220217   3.878   1.986   2.142
 6561SOL     OW20218   4.337   2.701   3.297
 6561SOL    HW120219   4.380   2.785   3.282
 6561SOL    HW220220   4.409   2.640   3.312
 6562SOL     OW20221   4.398   2.419   3.600
 6562SOL    HW120222   4.420   2.496   3.652
 6562SOL    HW220223   4.482   2.384   3.570
 6563SOL     OW20224   4.107   3.601   3.422
 6563SOL    HW120225   4.022   3.642   3.409
 6563SOL    HW220226   4.088   3.519   3.468
 6564SOL     OW20227   4.308   2.593   2.529
 6564SOL    HW120228   4.351   2.678   2.517
 6564SOL    HW220229   4.239   2.590   2.463
 6565SOL     OW20230   3.943   3.169   3.716
 6565SOL    HW120231   3.878   3.104   3.688
 6565SOL    HW220232   3.928   3.179   3.810
 6566SOL     OW20233   3.809   3.096   2.527
 6566SOL    HW120234   3.813   3.047   2.610
 6566SOL    HW220235   3.877   3.056   2.473
 6567SOL     OW20236   4.417   3.248   3.521
 6567SOL    HW120237   4.327   3.215   3.516
 6567SOL    HW220238   4.407   3.342   3.537
 6568SOL     OW20239   4.164   2.295   2.395
 6568SOL    HW120240   4.180   2.227   2.330
 6568SOL    HW220241   4.106   2.253   2.459
 6569SOL     OW20242   4.053   2.416   3.151
 6569SOL    HW120243   4.107   2.360   3.206
 6569SOL    HW220244   4.074   2.388   3.062
 6570SOL     OW20245   0.036   3.461   2.548
 6570SOL    HW120246   0.059   3.523   2.479
 6570SOL    HW220247   4.466   3.408   2.510
 6571SOL     OW20248   3.768   2.933   2.168
 6571SOL    HW120249   3.861   2.924   2.150
 6571SOL    HW220250   3.739   2.845   2.191
 6572SOL     OW20251   3.954   2.486   3.847
 6572SOL    HW120252   3.865   2.484   3.881
 6572SOL    HW220253   3.945   2.459   3.755
 6573SOL     OW20254   3.948   2.147   4.715
 6573SOL    HW120255   3.979   2.111   4.798
 6573SOL    HW220256   3.859   2.113   4.706
 6574SOL     OW20257   3.728   2.244   4.362
 6574SOL    HW120258   3.645   2.269   4.403
 6574SOL    HW220259   3.707   2.165   4.313
 6575SOL     OW20260   4.267   3.108   4.868
 6575SOL    HW120261   4.197   3.169   4.847
 6575SOL    HW220262   4.333   3.161   4.913
 6576SOL     OW20263   0.020   2.641   5.581
 6576SOL    HW120264   0.070   2.685   5.650
 6576SOL    HW220265   0.064   2.666   5.499
 6577SOL     OW20266   4.398   2.854   4.360
 6577SOL    HW120267   4.472   2.847   4.421
 6577SOL    HW220268   4.337   2.912   4.404
 6578SOL     OW20269   4.419   3.023   5.536
 6578SOL    HW120270   4.459   3.104   5.504
 6578SOL    HW220271   4.327   3.031   5.513
 6579SOL     OW20272   4.060   3.294   4.793
 6579SOL    HW120273   3.988   3.251   4.748
 6579SOL    HW220274   4.106   3.343   4.724
 6580SOL     OW20275   4.171   2.261   5.208
 6580SOL    HW120276   4.245   2.201   5.213
 6580SOL    HW220277   4.094   2.206   5.223
 6581SOL     OW20278   3.942   3.576   4.198
 6581SOL    HW120279   3.963   3.652   4.251
 6581SOL    HW220280   4.016   3.568   4.138
 6582SOL     OW20281   3.954   3.303   4.258
 6582SOL    HW120282   3.936   3.397   4.263
 6582SOL    HW220283   3.894   3.263   4.322
 6583SOL     OW20284   3.975   2.950   4.610
 6583SOL    HW120285   3.980   2.866   4.654
 6583SOL    HW220286   3.923   3.005   4.669
 6584SOL     OW20287   4.361   3.659   5.178
 6584SOL    HW120288   4.275   3.626   5.202
 6584SOL    HW220289   4.352   3.754   5.179
 6585SOL     OW20290   4.309   2.848   3.863
 6585SOL    HW120291   4.340   2.899   3.788
 6585SOL    HW220292   4.377   2.860   3.929
 6586SOL     OW20293   3.839   2.514   4.284
 6586SOL    HW120294   3.808   2.426   4.305
 6586SOL    HW220295   3.831   2.562   4.366
 6587SOL     OW20296   3.756   3.457   3.848
 6587SOL    HW120297   3.738   3.365   3.868
 6587SOL    HW220298   3.732   3.504   3.928
 6588SOL     OW20299   3.845   2.604   5.310
 6588SOL    HW120300   3.937   2.630   5.320
 6588SOL    HW220301   3.796   2.685   5.315
 6589SOL     OW20302   4.310   3.249   4.462
 6589SOL    HW120303   4.274   3.161   4.465
 6589SOL    HW220304   4.311   3.271   4.368
 6590SOL     OW20305   0.022   1.870   4.250
 6590SOL    HW120306   0.053   1.932   4.183
 6590SOL    HW220307   4.427   1.884   4.253
 6591SOL     OW20308   3.913   2.828   4.995
 6591SOL    HW120309   3.998   2.788   4.978
 6591SOL    HW220310   3.850   2.773   4.948
 6592SOL     OW20311   4.058   2.112   5.536
 6592SOL    HW120312   4.100   2.196   5.550
 6592SOL    HW220313   3.968   2.125   5.566
 6593SOL     OW20314   4.312   2.590   3.994
 6593SOL    HW120315   4.309   2.667   3.938
 6593SOL    HW220316   4.244   2.606   4.060
 6594SOL     OW20317   3.811   2.684   4.499
 6594SOL    HW120318   3.893   2.675   4.549
 6594SOL    HW220319   3.770   2.763   4.534
 6595SOL     OW20320   3.853   3.709   5.301
 6595SOL    HW120321   3.853   3.688   5.395
 6595SOL    HW220322   3.761   3.700   5.275
 6596SOL     OW20323   4.252   2.052   4.604
 6596SOL    HW120324   4.271   2.059   4.698
 6596SOL    HW220325   4.261   2.142   4.572
 6597SOL     OW20326   4.082   3.674   4.587
 6597SOL    HW120327   4.132   3.592   4.594
 6597SOL    HW220328   4.147   3.743   4.598
 6598SOL     OW20329   4.043   2.820   3.974
 6598SOL    HW120330   4.126   2.839   3.930
 6598SOL    HW220331   4.013   2.738   3.936
 6599SOL     OW20332   4.178   3.114   5.459
 6599SOL    HW120333   4.151   3.126   5.367
 6599SOL    HW220334   4.097   3.124   5.509
 6600SOL     OW20335   3.924   2.145   5.226
 6600SOL    HW120336   3.842   2.193   5.219
 6600SOL    HW220337   3.905   2.075   5.289
 6601SOL     OW20338   4.192   3.597   4.050
 6601SOL    HW120339   4.225   3.657   4.117
 6601SOL    HW220340   4.261   3.596   3.983
 6602SOL     OW20341   3.979   3.655   4.956
 6602SOL    HW120342   4.026   3.585   5.001
 6602SOL    HW220343   3.966   3.621   4.868
 6603SOL     OW20344   4.111   2.556   4.197
 6603SOL    HW120345   4.136   2.464   4.212
 6603SOL    HW220346   4.018   2.558   4.218
 6604SOL     OW20347   4.340   1.971   3.841
 6604SOL    HW120348   4.435   1.956   3.841
 6604SOL    HW220349   4.312   1.948   3.753
 6605SOL     OW20350   0.020   3.283   4.636
 6605SOL    HW120351   0.082   3.328   4.578
 6605SOL    HW220352   4.444   3.265   4.580
 6606SOL     OW20353   4.260   1.927   4.225
 6606SOL    HW120354   4.181   1.931   4.279
 6606SOL    HW220355   4.256   2.005   4.170
 6607SOL     OW20356   4.017   1.910   3.909
 6607SOL    HW120357   4.078   1.973   3.871
 6607SOL    HW220358   4.073   1.846   3.952
 6608SOL     OW20359   0.326   2.536   5.173
 6608SOL    HW120360   0.254   2.472   5.164
 6608SOL    HW220361   0.405   2.483   5.173
 6609SOL     OW20362   4.190   3.007   4.457
 6609SOL    HW120363   4.121   2.988   4.521
 6609SOL    HW220364   4.149   2.990   4.372
 6610SOL     OW20365   3.803   2.417   5.115
 6610SOL    HW120366   3.895   2.416   5.088
 6610SOL    HW220367   3.798   2.486   5.181
 6611SOL     OW20368   4.283   2.073   4.873
 6611SOL    HW120369   4.326   2.007   4.927
 6611SOL    HW220370   4.196   2.084   4.912
 6612SOL     OW20371   4.231   3.248   3.897
 6612SOL    HW120372   4.146   3.234   3.939
 6612SOL    HW220373   4.210   3.264   3.805
 6613SOL     OW20374   4.245   2.128   4.046
 6613SOL    HW120375   4.287   2.073   3.979
 6613SOL    HW220376   4.225   2.210   4.001
 6614SOL     OW20377   4.140   2.675   4.973
 6614SOL    HW120378   4.206   2.685   5.041
 6614SOL    HW220379   4.105   2.586   4.987
 6615SOL     OW20380   3.794   3.435   5.077
 6615SOL    HW120381   3.761   3.507   5.022
 6615SOL    HW220382   3.889   3.441   5.070
 6616SOL     OW20383   4.070   2.971   4.214
 6616SOL    HW120384   4.073   3.044   4.151
 6616SOL    HW220385   4.069   2.893   4.159
 6617SOL     OW20386   4.300   2.400   4.588
 6617SOL    HW120387   4.300   2.466   4.519
 6617SOL    HW220388   4.365   2.431   4.651
 6618SOL     OW20389   4.072   3.396   5.040
 6618SOL    HW120390   4.066   3.352   4.955
 6618SOL    HW220391   4.165   3.397   5.061
 6619SOL     OW20392   4.137   2.605   5.329
 6619SOL    HW120393   4.197   2.649   5.268
 6619SOL    HW220394   4.178   2.520   5.346
 6620SOL     OW20395   4.232   1.914   5.458
 6620SOL    HW120396   4.186   1.854   5.399
 6620SOL    HW220397   4.167   1.981   5.479
 6621SOL     OW20398   4.290   2.753   4.751
 6621SOL    HW120399   4.318   2.843   4.766
 6621SOL    HW220400   4.243   2.729   4.830
 6622SOL     OW20401   4.024   2.062   4.971
 6622SOL    HW120402   3.985   2.095   5.053
 6622SOL    HW220403   4.005   1.969   4.971
 6623SOL     OW20404   3.771   3.173   5.001
 6623SOL    HW120405   3.803   3.118   5.072
 6623SOL    HW220406   3.776   3.262   5.035
 6624SOL     OW20407   4.020   1.928   4.349
 6624SOL    HW120408   4.004   2.019   4.373
 6624SOL    HW220409   4.032   1.883   4.433
 6625SOL     OW20410   4.076   2.777   5.533
 6625SOL    HW120411   4.158   2.792   5.580
 6625SOL    HW220412   4.098   2.713   5.465
 6626SOL     OW20413   4.031   2.670   4.669
 6626SOL    HW120414   4.123   2.698   4.670
 6626SOL    HW220415   4.033   2.580   4.701
 6627SOL     OW20416   4.063   2.389   4.733
 6627SOL    HW120417   4.027   2.302   4.717
 6627SOL    HW220418   4.143   2.392   4.679
 6628SOL     OW20419   3.729   3.183   3.920
 6628SOL    HW120420   3.642   3.197   3.882
 6628SOL    HW220421   3.727   3.094   3.953
 6629SOL     OW20422   3.816   3.649   4.663
 6629SOL    HW120423   3.786   3.570   4.618
 6629SOL    HW220424   3.905   3.662   4.631
 6630SOL     OW20425   4.232   3.445   4.629
 6630SOL    HW120426   4.318   3.475   4.660
 6630SOL    HW220427   4.252   3.375   4.567
 6631SOL     OW20428   3.759   2.404   4.841
 6631SOL    HW120429   3.839   2.390   4.791
 6631SOL    HW220430   3.788   2.409   4.932
 6632SOL     OW20431   3.915   2.381   5.452
 6632SOL    HW120432   3.971   2.343   5.384
 6632SOL    HW220433   3.871   2.454   5.408
 6633SOL     OW20434   0.032   2.417   3.987
 6633SOL    HW120435   0.020   2.350   4.054
 6633SOL    HW220436   4.464   2.482   4.006
 6634SOL     OW20437   3.970   3.415   5.452
 6634SOL    HW120438   3.943   3.479   5.518
 6634SOL    HW220439   3.967   3.331   5.497
 6635SOL     OW20440   4.189   2.355   3.912
 6635SOL    HW120441   4.248   2.428   3.932
 6635SOL    HW220442   4.104   2.396   3.898
 6636SOL     OW20443   3.871   3.002   5.196
 6636SOL    HW120444   3.872   2.950   5.276
 6636SOL    HW220445   3.887   2.938   5.126
 6637SOL     OW20446   3.809   3.131   4.737
 6637SOL    HW120447   3.794   3.142   4.831
 6637SOL    HW220448   3.738   3.074   4.707
 6638SOL     OW20449   4.389   3.514   5.425
 6638SOL    HW120450   4.355   3.599   5.452
 6638SOL    HW220451   4.431   3.530   5.341
 6639SOL     OW20452   3.861   3.658   5.567
 6639SOL    HW120453   3.810   3.594   5.616
 6639SOL    HW220454   3.907   3.708   5.634
 6640SOL     OW20455   3.986   2.182   4.440
 6640SOL    HW120456   3.899   2.215   4.418
 6640SOL    HW220457   3.985   2.171   4.535
 6641SOL     OW20458   4.088   3.169   5.214
 6641SOL    HW120459   4.068   3.245   5.159
 6641SOL    HW220460   4.016   3.108   5.199
 6642SOL     OW20461   4.325   3.352   4.204
 6642SOL    HW120462   4.342   3.293   4.131
 6642SOL    HW220463   4.260   3.413   4.171
 6643SOL     OW20464   3.984   3.211   4.010
 6643SOL    HW120465   3.891   3.207   3.988
 6643SOL    HW220466   3.986   3.247   4.099
 6644SOL     OW20467   3.836   2.886   5.444
 6644SOL    HW120468   3.759   2.862   5.496
 6644SOL    HW220469   3.910   2.847   5.491
 6645SOL     OW20470   4.390   2.068   5.218
 6645SOL    HW120471   4.478   2.066   5.182
 6645SOL    HW220472   4.402   2.056   5.312
 6646SOL     OW20473   3.803   2.195   3.759
 6646SOL    HW120474   3.715   2.176   3.726
 6646SOL    HW220475   3.832   2.270   3.707
 6647SOL     OW20476   3.793   2.018   4.035
 6647SOL    HW120477   3.778   2.098   3.984
 6647SOL    HW220478   3.878   1.986   4.004
 6648SOL     OW20479   4.337   2.701   5.159
 6648SOL    HW120480   4.380   2.786   5.144
 6648SOL    HW220481   4.409   2.640   5.174
 6649SOL     OW20482   4.398   2.418   5.462
 6649SOL    HW120483   4.420   2.495   5.514
 6649SOL    HW220484   4.482   2.384   5.432
 6650SOL     OW20485   4.107   3.601   5.284
 6650SOL    HW120486   4.022   3.642   5.271
 6650SOL    HW220487   4.088   3.519   5.331
 6651SOL     OW20488   4.308   2.593   4.391
 6651SOL    HW120489   4.351   2.678   4.379
 6651SOL    HW220490   4.240   2.590   4.325
 6652SOL     OW20491   3.943   3.168   5.578
 6652SOL    HW120492   3.878   3.104   5.550
 6652SOL    HW220493   3.927   3.179   5.672
 6653SOL     OW20494   3.808   3.095   4.389
 6653SOL    HW120495   3.814   3.047   4.472
 6653SOL    HW220496   3.877   3.056   4.334
 6654SOL     OW20497   4.417   3.248   5.384
 6654SOL    HW120498   4.327   3.215   5.378
 6654SOL    HW220499   4.407   3.342   5.399
 6655SOL     OW20500   4.163   2.295   4.257
 6655SOL    HW120501   4.180   2.227   4.192
 6655SOL    HW220502   4.106   2.253   4.321
 6656SOL     OW20503   4.053   2.416   5.013
 6656SOL    HW120504   4.107   2.360   5.069
 6656SOL    HW220505   4.074   2.388   4.924
 6657SOL     OW20506   0.036   3.461   4.410
 6657SOL    HW120507   0.059   3.523   4.341
 6657SOL    HW220508   4.466   3.408   4.372
 6658SOL     OW20509   3.767   2.933   4.030
 6658SOL    HW120510   3.861   2.924   4.012
 6658SOL    HW220511   3.739   2.845   4.053
 6659SOL     OW20512   3.954   2.485   5.709
 6659SOL    HW120513   3.865   2.484   5.743
 6659SOL    HW220514   3.945   2.459   5.617
 6660SOL     OW20515   3.947   2.147   6.577
 6660SOL    HW120516   3.979   2.111   6.660
 6660SOL    HW220517   3.858   2.113   6.568
 6661SOL     OW20518   3.730   2.244   6.222
 6661SOL    HW120519   3.648   2.272   6.263
 6661SOL    HW220520   3.707   2.164   6.175
 6662SOL     OW20521   4.267   3.108   6.731
 6662SOL    HW120522   4.197   3.169   6.709
 6662SOL    HW220523   4.333   3.161   6.775
 6663SOL     OW20524   0.019   2.642   7.443
 6663SOL    HW120525   0.070   2.684   7.512
 6663SOL    HW220526   0.064   2.666   7.361
 6664SOL     OW20527   4.399   2.854   6.222
 6664SOL    HW120528   4.472   2.847   6.284
 6664SOL    HW220529   4.337   2.912   6.265
 6665SOL     OW20530   4.419   3.023   7.399
 6665SOL    HW120531   4.459   3.104   7.366
 6665SOL    HW220532   4.327   3.031   7.375
 6666SOL     OW20533   4.060   3.294   6.655
 6666SOL    HW120534   3.988   3.251   6.610
 6666SOL    HW220535   4.106   3.343   6.586
 6667SOL     OW20536   4.171   2.261   7.070
 6667SOL    HW120537   4.246   2.201   7.075
 6667SOL    HW220538   4.094   2.206   7.085
 6668SOL     OW20539   3.942   3.576   6.060
 6668SOL    HW120540   3.963   3.653   6.113
 6668SOL    HW220541   4.016   3.568   6.000
 6669SOL     OW20542   3.954   3.303   6.120
 6669SOL    HW120543   3.935   3.397   6.126
 6669SOL    HW220544   3.895   3.263   6.184
 6670SOL     OW20545   3.976   2.951   6.473
 6670SOL    HW120546   3.979   2.866   6.517
 6670SOL    HW220547   3.923   3.006   6.531
 6671SOL     OW20548   4.361   3.659   7.040
 6671SOL    HW120549   4.275   3.626   7.064
 6671SOL    HW220550   4.352   3.755   7.041
 6672SOL     OW20551   4.309   2.848   5.724
 6672SOL    HW120552   4.340   2.899   5.650
 6672SOL    HW220553   4.377   2.860   5.791
 6673SOL     OW20554   3.840   2.513   6.146
 6673SOL    HW120555   3.808   2.425   6.167
 6673SOL    HW220556   3.831   2.562   6.228
 6674SOL     OW20557   3.756   3.457   5.710
 6674SOL    HW120558   3.738   3.365   5.729
 6674SOL    HW220559   3.732   3.504   5.790
 6675SOL     OW20560   3.846   2.604   7.172
 6675SOL    HW120561   3.938   2.629   7.181
 6675SOL    HW220562   3.798   2.687   7.178
 6676SOL     OW20563   4.310   3.249   6.323
 6676SOL    HW120564   4.274   3.161   6.327
 6676SOL    HW220565   4.311   3.271   6.230
 6677SOL     OW20566   0.022   1.870   6.112
 6677SOL    HW120567   0.053   1.932   6.045
 6677SOL    HW220568   4.427   1.884   6.115
 6678SOL     OW20569   3.912   2.827   6.858
 6678SOL    HW120570   3.998   2.788   6.840
 6678SOL    HW220571   3.850   2.774   6.808
 6679SOL     OW20572   4.058   2.112   7.397
 6679SOL    HW120573   4.101   2.196   7.413
 6679SOL    HW220574   3.968   2.125   7.428
 6680SOL     OW20575   4.312   2.590   5.856
 6680SOL    HW120576   4.309   2.667   5.800
 6680SOL    HW220577   4.244   2.606   5.922
 6681SOL     OW20578   3.813   2.682   6.362
 6681SOL    HW120579   3.894   2.675   6.413
 6681SOL    HW220580   3.771   2.761   6.395
 6682SOL     OW20581   3.853   3.709   7.163
 6682SOL    HW120582   3.853   3.688   7.257
 6682SOL    HW220583   3.761   3.700   7.137
 6683SOL     OW20584   4.251   2.052   6.466
 6683SOL    HW120585   4.271   2.059   6.560
 6683SOL    HW220586   4.261   2.141   6.433
 6684SOL     OW20587   4.082   3.674   6.449
 6684SOL    HW120588   4.132   3.592   6.456
 6684SOL    HW220589   4.147   3.743   6.460
 6685SOL     OW20590   4.043   2.820   5.836
 6685SOL    HW120591   4.126   2.839   5.791
 6685SOL    HW220592   4.013   2.738   5.798
 6686SOL     OW20593   4.178   3.114   7.321
 6686SOL    HW120594   4.151   3.126   7.229
 6686SOL    HW220595   4.097   3.124   7.371
 6687SOL     OW20596   3.924   2.144   7.088
 6687SOL    HW120597   3.843   2.194   7.081
 6687SOL    HW220598   3.905   2.075   7.152
 6688SOL     OW20599   4.192   3.597   5.912
 6688SOL    HW120600   4.225   3.657   5.979
 6688SOL    HW220601   4.261   3.596   5.845
 6689SOL     OW20602   3.979   3.655   6.818
 6689SOL    HW120603   4.027   3.585   6.863
 6689SOL    HW220604   3.966   3.622   6.730
 6690SOL     OW20605   4.112   2.555   6.059
 6690SOL    HW120606   4.137   2.464   6.074
 6690SOL    HW220607   4.018   2.558   6.080
 6691SOL     OW20608   4.340   1.971   5.704
 6691SOL    HW120609   4.435   1.956   5.702
 6691SOL    HW220610   4.311   1.948   5.615
 6692SOL     OW20611   0.020   3.283   6.498
 6692SOL    HW120612   0.082   3.328   6.440
 6692SOL    HW220613   4.444   3.265   6.442
 6693SOL     OW20614   4.260   1.927   6.087
 6693SOL    HW120615   4.181   1.931   6.141
 6693SOL    HW220616   4.256   2.005   6.032
 6694SOL     OW20617   4.017   1.910   5.771
 6694SOL    HW120618   4.077   1.973   5.732
 6694SOL    HW220619   4.074   1.846   5.814
 6695SOL     OW20620   0.325   2.536   7.034
 6695SOL    HW120621   0.255   2.472   7.026
 6695SOL    HW220622   0.405   2.484   7.035
 6696SOL     OW20623   4.190   3.007   6.319
 6696SOL    HW120624   4.121   2.988   6.383
 6696SOL    HW220625   4.149   2.990   6.234
 6697SOL     OW20626   3.803   2.416   6.979
 6697SOL    HW120627   3.895   2.415   6.950
 6697SOL    HW220628   3.798   2.486   7.043
 6698SOL     OW20629   4.283   2.073   6.735
 6698SOL    HW120630   4.326   2.007   6.790
 6698SOL    HW220631   4.196   2.083   6.774
 6699SOL     OW20632   4.231   3.248   5.759
 6699SOL    HW120633   4.146   3.234   5.801
 6699SOL    HW220634   4.209   3.263   5.667
 6700SOL     OW20635   4.245   2.128   5.907
 6700SOL    HW120636   4.286   2.073   5.840
 6700SOL    HW220637   4.225   2.210   5.863
 6701SOL     OW20638   4.140   2.675   6.836
 6701SOL    HW120639   4.207   2.685   6.903
 6701SOL    HW220640   4.105   2.586   6.849
 6702SOL     OW20641   3.794   3.435   6.939
 6702SOL    HW120642   3.761   3.506   6.883
 6702SOL    HW220643   3.889   3.441   6.932
 6703SOL     OW20644   4.071   2.971   6.076
 6703SOL    HW120645   4.072   3.044   6.013
 6703SOL    HW220646   4.069   2.893   6.021
 6704SOL     OW20647   4.300   2.400   6.450
 6704SOL    HW120648   4.300   2.467   6.381
 6704SOL    HW220649   4.365   2.431   6.513
 6705SOL     OW20650   4.072   3.396   6.902
 6705SOL    HW120651   4.066   3.352   6.817
 6705SOL    HW220652   4.165   3.397   6.922
 6706SOL     OW20653   4.137   2.604   7.190
 6706SOL    HW120654   4.196   2.649   7.130
 6706SOL    HW220655   4.179   2.520   7.208
 6707SOL     OW20656   4.232   1.914   7.320
 6707SOL    HW120657   4.186   1.854   7.261
 6707SOL    HW220658   4.167   1.981   7.340
 6708SOL     OW20659   4.291   2.752   6.613
 6708SOL    HW120660   4.318   2.843   6.628
 6708SOL    HW220661   4.243   2.729   6.692
 6709SOL     OW20662   4.024   2.062   6.833
 6709SOL    HW120663   3.985   2.094   6.915
 6709SOL    HW220664   4.004   1.968   6.833
 6710SOL     OW20665   3.770   3.173   6.863
 6710SOL    HW120666   3.803   3.118   6.934
 6710SOL    HW220667   3.776   3.262   6.896
 6711SOL     OW20668   4.020   1.928   6.211
 6711SOL    HW120669   4.004   2.019   6.235
 6711SOL    HW220670   4.032   1.883   6.295
 6712SOL     OW20671   4.076   2.777   7.395
 6712SOL    HW120672   4.158   2.792   7.441
 6712SOL    HW220673   4.099   2.713   7.327
 6713SOL     OW20674   4.031   2.671   6.532
 6713SOL    HW120675   4.123   2.698   6.532
 6713SOL    HW220676   4.033   2.580   6.563
 6714SOL     OW20677   4.063   2.389   6.595
 6714SOL    HW120678   4.027   2.302   6.579
 6714SOL    HW220679   4.143   2.392   6.541
 6715SOL     OW20680   3.729   3.183   5.781
 6715SOL    HW120681   3.642   3.197   5.743
 6715SOL    HW220682   3.727   3.094   5.815
 6716SOL     OW20683   3.816   3.649   6.525
 6716SOL    HW120684   3.786   3.570   6.481
 6716SOL    HW220685   3.906   3.662   6.493
 6717SOL     OW20686   4.232   3.445   6.491
 6717SOL    HW120687   4.318   3.475   6.521
 6717SOL    HW220688   4.252   3.375   6.429
 6718SOL     OW20689   3.759   2.405   6.702
 6718SOL    HW120690   3.839   2.390   6.651
 6718SOL    HW220691   3.789   2.410   6.793
 6719SOL     OW20692   3.915   2.381   7.313
 6719SOL    HW120693   3.972   2.344   7.247
 6719SOL    HW220694   3.872   2.454   7.270
 6720SOL     OW20695   0.032   2.417   5.849
 6720SOL    HW120696   0.019   2.350   5.916
 6720SOL    HW220697   4.464   2.482   5.868
 6721SOL     OW20698   3.970   3.415   7.314
 6721SOL    HW120699   3.943   3.479   7.380
 6721SOL    HW220700   3.967   3.331   7.359
 6722SOL     OW20701   4.189   2.355   5.775
 6722SOL    HW120702   4.248   2.428   5.794
 6722SOL    HW220703   4.104   2.395   5.760
 6723SOL     OW20704   3.870   3.002   7.058
 6723SOL    HW120705   3.872   2.950   7.139
 6723SOL    HW220706   3.886   2.939   6.989
 6724SOL     OW20707   3.809   3.132   6.599
 6724SOL    HW120708   3.793   3.141   6.692
 6724SOL    HW220709   3.738   3.074   6.568
 6725SOL     OW20710   4.389   3.513   7.287
 6725SOL    HW120711   4.355   3.599   7.314
 6725SOL    HW220712   4.431   3.530   7.203
 6726SOL     OW20713   3.861   3.658   7.429
 6726SOL    HW120714   3.810   3.594   7.478
 6726SOL    HW220715   3.907   3.708   7.496
 6727SOL     OW20716   3.986   2.182   6.301
 6727SOL    HW120717   3.899   2.215   6.279
 6727SOL    HW220718   3.984   2.171   6.397
 6728SOL     OW20719   4.088   3.169   7.076
 6728SOL    HW120720   4.069   3.245   7.021
 6728SOL    HW220721   4.015   3.108   7.060
 6729SOL     OW20722   4.326   3.352   6.066
 6729SOL    HW120723   4.342   3.293   5.993
 6729SOL    HW220724   4.259   3.413   6.033
 6730SOL     OW20725   3.984   3.211   5.872
 6730SOL    HW120726   3.891   3.207   5.850
 6730SOL    HW220727   3.986   3.247   5.961
 6731SOL     OW20728   3.836   2.885   7.306
 6731SOL    HW120729   3.760   2.861   7.358
 6731SOL    HW220730   3.910   2.846   7.353
 6732SOL     OW20731   4.390   2.068   7.080
 6732SOL    HW120732   4.479   2.066   7.043
 6732SOL    HW220733   4.402   2.056   7.174
 6733SOL     OW20734   3.802   2.195   5.620
 6733SOL    HW120735   3.715   2.176   5.586
 6733SOL    HW220736   3.832   2.271   5.570
 6734SOL     OW20737   3.792   2.018   5.896
 6734SOL    HW120738   3.778   2.098   5.846
 6734SOL    HW220739   3.877   1.986   5.866
 6735SOL     OW20740   4.337   2.701   7.021
 6735SOL    HW120741   4.380   2.786   7.006
 6735SOL    HW220742   4.409   2.640   7.036
 6736SOL     OW20743   4.398   2.419   7.324
 6736SOL    HW120744   4.420   2.495   7.376
 6736SOL    HW220745   4.482   2.384   7.294
 6737SOL     OW20746   4.107   3.601   7.146
 6737SOL    HW120747   4.022   3.642   7.133
 6737SOL    HW220748   4.088   3.519   7.192
 6738SOL     OW20749   4.309   2.593   6.253
 6738SOL    HW120750   4.351   2.678   6.241
 6738SOL    HW220751   4.240   2.590   6.187
 6739SOL     OW20752   3.943   3.169   7.440
 6739SOL    HW120753   3.878   3.105   7.412
 6739SOL    HW220754   3.928   3.179   7.534
 6740SOL     OW20755   3.809   3.096   6.251
 6740SOL    HW120756   3.811   3.047   6.333
 6740SOL    HW220757   3.877   3.056   6.197
 6741SOL     OW20758   4.417   3.248   7.245
 6741SOL    HW120759   4.327   3.215   7.240
 6741SOL    HW220760   4.407   3.342   7.261
 6742SOL     OW20761   4.164   2.295   6.120
 6742SOL    HW120762   4.180   2.227   6.054
 6742SOL    HW220763   4.106   2.253   6.183
 6743SOL     OW20764   4.053   2.416   6.875
 6743SOL    HW120765   4.107   2.360   6.930
 6743SOL    HW220766   4.074   2.389   6.785
 6744SOL     OW20767   0.036   3.461   6.272
 6744SOL    HW120768   0.059   3.523   6.203
 6744SOL    HW220769   4.466   3.408   6.234
 6745SOL     OW20770   3.768   2.933   5.892
 6745SOL    HW120771   3.862   2.923   5.874
 6745SOL    HW220772   3.738   2.845   5.915
 6746SOL     OW20773   3.954   2.485   7.571
 6746SOL    HW120774   3.865   2.484   7.605
 6746SOL    HW220775   3.945   2.459   7.479
 6747SOL     OW20776   3.947   2.147   8.439
 6747SOL    HW120777   3.979   2.111   8.522
 6747SOL    HW220778   3.858   2.113   8.430
 6748SOL     OW20779   3.727   2.245   8.086
 6748SOL    HW120780   3.645   2.270   8.127
 6748SOL    HW220781   3.707   2.165   8.038
 6749SOL     OW20782   4.267   3.108   8.593
 6749SOL    HW120783   4.197   3.169   8.571
 6749SOL    HW220784   4.333   3.161   8.637
 6750SOL     OW20785   0.019   2.642   9.305
 6750SOL    HW120786   0.070   2.684   9.374
 6750SOL    HW220787   0.064   2.665   9.223
 6751SOL     OW20788   4.398   2.853   8.084
 6751SOL    HW120789   4.472   2.847   8.145
 6751SOL    HW220790   4.336   2.912   8.128
 6752SOL     OW20791   4.419   3.023   9.261
 6752SOL    HW120792   4.459   3.104   9.228
 6752SOL    HW220793   4.327   3.031   9.237
 6753SOL     OW20794   4.060   3.294   8.517
 6753SOL    HW120795   3.988   3.251   8.472
 6753SOL    HW220796   4.106   3.343   8.448
 6754SOL     OW20797   4.171   2.261   8.932
 6754SOL    HW120798   4.246   2.201   8.937
 6754SOL    HW220799   4.095   2.206   8.947
 6755SOL     OW20800   3.942   3.576   7.921
 6755SOL    HW120801   3.963   3.652   7.975
 6755SOL    HW220802   4.016   3.568   7.862
 6756SOL     OW20803   3.954   3.303   7.982
 6756SOL    HW120804   3.936   3.397   7.988
 6756SOL    HW220805   3.894   3.263   8.046
 6757SOL     OW20806   3.975   2.950   8.334
 6757SOL    HW120807   3.980   2.866   8.378
 6757SOL    HW220808   3.923   3.005   8.393
 6758SOL     OW20809   4.361   3.659   8.902
 6758SOL    HW120810   4.275   3.626   8.926
 6758SOL    HW220811   4.352   3.755   8.903
 6759SOL     OW20812   4.309   2.848   7.587
 6759SOL    HW120813   4.340   2.899   7.512
 6759SOL    HW220814   4.377   2.860   7.653
 6760SOL     OW20815   3.839   2.514   8.008
 6760SOL    HW120816   3.808   2.426   8.029
 6760SOL    HW220817   3.831   2.563   8.090
 6761SOL     OW20818   3.756   3.457   7.572
 6761SOL    HW120819   3.738   3.365   7.592
 6761SOL    HW220820   3.732   3.504   7.652
 6762SOL     OW20821   3.846   2.604   9.034
 6762SOL    HW120822   3.938   2.629   9.043
 6762SOL    HW220823   3.798   2.687   9.041
 6763SOL     OW20824   4.310   3.249   8.185
 6763SOL    HW120825   4.274   3.161   8.189
 6763SOL    HW220826   4.311   3.271   8.092
 6764SOL     OW20827   0.022   1.870   7.974
 6764SOL    HW120828   0.053   1.931   7.907
 6764SOL    HW220829   4.427   1.884   7.977
 6765SOL     OW20830   3.912   2.827   8.720
 6765SOL    HW120831   3.998   2.788   8.702
 6765SOL    HW220832   3.850   2.773   8.671
 6766SOL     OW20833   4.058   2.112   9.258
 6766SOL    HW120834   4.101   2.196   9.275
 6766SOL    HW220835   3.968   2.125   9.290
 6767SOL     OW20836   4.312   2.590   7.718
 6767SOL    HW120837   4.309   2.667   7.662
 6767SOL    HW220838   4.244   2.606   7.784
 6768SOL     OW20839   3.812   2.683   8.224
 6768SOL    HW120840   3.893   2.675   8.274
 6768SOL    HW220841   3.770   2.762   8.258
 6769SOL     OW20842   3.853   3.708   9.025
 6769SOL    HW120843   3.853   3.688   9.119
 6769SOL    HW220844   3.761   3.701   8.999
 6770SOL     OW20845   4.251   2.052   8.328
 6770SOL    HW120846   4.271   2.058   8.422
 6770SOL    HW220847   4.262   2.142   8.296
 6771SOL     OW20848   4.082   3.674   8.311
 6771SOL    HW120849   4.132   3.592   8.318
 6771SOL    HW220850   4.147   3.743   8.322
 6772SOL     OW20851   4.043   2.820   7.698
 6772SOL    HW120852   4.126   2.839   7.654
 6772SOL    HW220853   4.013   2.738   7.660
 6773SOL     OW20854   4.178   3.114   9.183
 6773SOL    HW120855   4.151   3.126   9.091
 6773SOL    HW220856   4.097   3.124   9.233
 6774SOL     OW20857   3.924   2.144   8.950
 6774SOL    HW120858   3.843   2.193   8.944
 6774SOL    HW220859   3.906   2.075   9.014
 6775SOL     OW20860   4.192   3.597   7.774
 6775SOL    HW120861   4.225   3.657   7.841
 6775SOL    HW220862   4.261   3.596   7.707
 6776SOL     OW20863   3.979   3.655   8.680
 6776SOL    HW120864   4.027   3.585   8.726
 6776SOL    HW220865   3.966   3.621   8.592
 6777SOL     OW20866   4.111   2.556   7.921
 6777SOL    HW120867   4.136   2.464   7.935
 6777SOL    HW220868   4.018   2.558   7.942
 6778SOL     OW20869   4.340   1.971   7.566
 6778SOL    HW120870   4.435   1.957   7.565
 6778SOL    HW220871   4.312   1.948   7.477
 6779SOL     OW20872   0.020   3.283   8.360
 6779SOL    HW120873   0.082   3.328   8.302
 6779SOL    HW220874   4.444   3.265   8.304
 6780SOL     OW20875   4.260   1.927   7.949
 6780SOL    HW120876   4.181   1.931   8.003
 6780SOL    HW220877   4.256   2.005   7.894
 6781SOL     OW20878   4.017   1.910   7.633
 6781SOL    HW120879   4.078   1.973   7.595
 6781SOL    HW220880   4.073   1.846   7.676
 6782SOL     OW20881   0.325   2.536   8.896
 6782SOL    HW120882   0.255   2.471   8.888
 6782SOL    HW220883   0.406   2.484   8.897
 6783SOL     OW20884   4.190   3.007   8.181
 6783SOL    HW120885   4.121   2.988   8.245
 6783SOL    HW220886   4.149   2.990   8.096
 6784SOL     OW20887   3.803   2.416   8.840
 6784SOL    HW120888   3.894   2.415   8.812
 6784SOL    HW220889   3.798   2.486   8.905
 6785SOL     OW20890   4.283   2.073   8.597
 6785SOL    HW120891   4.327   2.007   8.652
 6785SOL    HW220892   4.196   2.083   8.636
 6786SOL     OW20893   4.231   3.248   7.621
 6786SOL    HW120894   4.146   3.234   7.663
 6786SOL    HW220895   4.210   3.264   7.529
 6787SOL     OW20896   4.245   2.128   7.770
 6787SOL    HW120897   4.286   2.073   7.703
 6787SOL    HW220898   4.225   2.210   7.725
 6788SOL     OW20899   4.140   2.675   8.698
 6788SOL    HW120900   4.207   2.685   8.765
 6788SOL    HW220901   4.105   2.586   8.712
 6789SOL     OW20902   3.794   3.435   8.801
 6789SOL    HW120903   3.762   3.507   8.746
 6789SOL    HW220904   3.889   3.441   8.794
 6790SOL     OW20905   4.070   2.971   7.938
 6790SOL    HW120906   4.073   3.044   7.875
 6790SOL    HW220907   4.069   2.893   7.883
 6791SOL     OW20908   4.299   2.400   8.312
 6791SOL    HW120909   4.300   2.467   8.243
 6791SOL    HW220910   4.365   2.430   8.375
 6792SOL     OW20911   4.072   3.396   8.764
 6792SOL    HW120912   4.066   3.352   8.679
 6792SOL    HW220913   4.165   3.397   8.785
 6793SOL     OW20914   4.137   2.604   9.052
 6793SOL    HW120915   4.196   2.649   8.992
 6793SOL    HW220916   4.179   2.520   9.071
 6794SOL     OW20917   4.232   1.914   9.182
 6794SOL    HW120918   4.186   1.854   9.123
 6794SOL    HW220919   4.167   1.981   9.202
 6795SOL     OW20920   4.290   2.753   8.474
 6795SOL    HW120921   4.319   2.843   8.490
 6795SOL    HW220922   4.243   2.729   8.554
 6796SOL     OW20923   4.024   2.062   8.695
 6796SOL    HW120924   3.985   2.094   8.777
 6796SOL    HW220925   4.004   1.968   8.695
 6797SOL     OW20926   3.770   3.173   8.725
 6797SOL    HW120927   3.803   3.118   8.796
 6797SOL    HW220928   3.776   3.262   8.758
 6798SOL     OW20929   4.019   1.928   8.074
 6798SOL    HW120930   4.004   2.019   8.097
 6798SOL    HW220931   4.032   1.883   8.157
 6799SOL     OW20932   4.076   2.777   9.256
 6799SOL    HW120933   4.158   2.792   9.303
 6799SOL    HW220934   4.099   2.713   9.189
 6800SOL     OW20935   4.031   2.670   8.394
 6800SOL    HW120936   4.122   2.698   8.394
 6800SOL    HW220937   4.033   2.580   8.425
 6801SOL     OW20938   4.063   2.389   8.457
 6801SOL    HW120939   4.027   2.302   8.441
 6801SOL    HW220940   4.143   2.392   8.403
 6802SOL     OW20941   3.729   3.183   7.644
 6802SOL    HW120942   3.642   3.197   7.606
 6802SOL    HW220943   3.727   3.094   7.677
 6803SOL     OW20944   3.816   3.649   8.387
 6803SOL    HW120945   3.786   3.570   8.342
 6803SOL    HW220946   3.905   3.662   8.355
 6804SOL     OW20947   4.232   3.445   8.353
 6804SOL    HW120948   4.318   3.475   8.384
 6804SOL    HW220949   4.252   3.375   8.291
 6805SOL     OW20950   3.759   2.406   8.564
 6805SOL    HW120951   3.839   2.390   8.514
 6805SOL    HW220952   3.789   2.410   8.655
 6806SOL     OW20953   3.915   2.381   9.175
 6806SOL    HW120954   3.972   2.343   9.109
 6806SOL    HW220955   3.871   2.454   9.132
 6807SOL     OW20956   0.031   2.417   7.711
 6807SOL    HW120957   0.021   2.350   7.778
 6807SOL    HW220958   4.464   2.482   7.730
 6808SOL     OW20959   3.970   3.415   9.176
 6808SOL    HW120960   3.943   3.479   9.242
 6808SOL    HW220961   3.967   3.331   9.221
 6809SOL     OW20962   4.189   2.355   7.636
 6809SOL    HW120963   4.248   2.428   7.656
 6809SOL    HW220964   4.104   2.396   7.622
 6810SOL     OW20965   3.870   3.002   8.920
 6810SOL    HW120966   3.872   2.950   9.001
 6810SOL    HW220967   3.886   2.938   8.850
 6811SOL     OW20968   3.809   3.131   8.461
 6811SOL    HW120969   3.793   3.141   8.555
 6811SOL    HW220970   3.738   3.074   8.431
 6812SOL     OW20971   4.388   3.513   9.149
 6812SOL    HW120972   4.355   3.599   9.176
 6812SOL    HW220973   4.432   3.530   9.066
 6813SOL     OW20974   3.861   3.658   9.291
 6813SOL    HW120975   3.810   3.594   9.340
 6813SOL    HW220976   3.908   3.708   9.358
 6814SOL     OW20977   3.986   2.182   8.163
 6814SOL    HW120978   3.899   2.215   8.142
 6814SOL    HW220979   3.985   2.171   8.259
 6815SOL     OW20980   4.088   3.169   8.938
 6815SOL    HW120981   4.069   3.245   8.883
 6815SOL    HW220982   4.015   3.108   8.922
 6816SOL     OW20983   4.325   3.352   7.928
 6816SOL    HW120984   4.343   3.293   7.855
 6816SOL    HW220985   4.260   3.413   7.895
 6817SOL     OW20986   3.984   3.211   7.734
 6817SOL    HW120987   3.891   3.207   7.712
 6817SOL    HW220988   3.986   3.247   7.823
 6818SOL     OW20989   3.836   2.885   9.168
 6818SOL    HW120990   3.760   2.861   9.220
 6818SOL    HW220991   3.910   2.846   9.214
 6819SOL     OW20992   4.390   2.068   8.942
 6819SOL    HW120993   4.479   2.066   8.905
 6819SOL    HW220994   4.402   2.056   9.036
 6820SOL     OW20995   3.802   2.195   7.483
 6820SOL    HW120996   3.715   2.176   7.450
 6820SOL    HW220997   3.832   2.270   7.431
 6821SOL     OW20998   3.793   2.018   7.758
 6821SOL    HW120999   3.778   2.098   7.708
 6821SOL    HW221000   3.878   1.986   7.728
 6822SOL     OW21001   4.337   2.701   8.883
 6822SOL    HW121002   4.380   2.785   8.868
 6822SOL    HW221003   4.409   2.640   8.898
 6823SOL     OW21004   4.398   2.419   9.186
 6823SOL    HW121005   4.420   2.496   9.238
 6823SOL    HW221006   4.482   2.384   9.156
 6824SOL     OW21007   4.107   3.601   9.008
 6824SOL    HW121008   4.022   3.642   8.995
 6824SOL    HW221009   4.088   3.519   9.054
 6825SOL     OW21010   4.308   2.593   8.115
 6825SOL    HW121011   4.351   2.677   8.103
 6825SOL    HW221012   4.240   2.590   8.049
 6826SOL     OW21013   3.943   3.169   9.303
 6826SOL    HW121014   3.878   3.105   9.275
 6826SOL    HW221015   3.928   3.179   9.396
 6827SOL     OW21016   3.809   3.095   8.113
 6827SOL    HW121017   3.813   3.047   8.196
 6827SOL    HW221018   3.877   3.056   8.059
 6828SOL     OW21019   4.417   3.248   9.107
 6828SOL    HW121020   4.327   3.215   9.102
 6828SOL    HW221021   4.407   3.342   9.123
 6829SOL     OW21022   4.163   2.295   7.981
 6829SOL    HW121023   4.180   2.227   7.916
 6829SOL    HW221024   4.106   2.253   8.045
 6830SOL     OW21025   4.053   2.416   8.737
 6830SOL    HW121026   4.107   2.360   8.793
 6830SOL    HW221027   4.074   2.388   8.648
 6831SOL     OW21028   0.036   3.461   8.134
 6831SOL    HW121029   0.059   3.523   8.065
 6831SOL    HW221030   4.466   3.408   8.096
 6832SOL     OW21031   3.768   2.933   7.754
 6832SOL    HW121032   3.861   2.924   7.736
 6832SOL    HW221033   3.739   2.845   7.777
 6833SOL     OW21034   3.954   2.485   9.433
 6833SOL    HW121035   3.865   2.484   9.467
 6833SOL    HW221036   3.945   2.459   9.341
 6834SOL     OW21037   3.947   2.147  10.301
 6834SOL    HW121038   3.979   2.111  10.384
 6834SOL    HW221039   3.858   2.113  10.292
 6835SOL     OW21040   3.727   2.245   9.948
 6835SOL    HW121041   3.645   2.270   9.989
 6835SOL    HW221042   3.707   2.165   9.900
 6836SOL     OW21043   4.267   3.108  10.456
 6836SOL    HW121044   4.197   3.169  10.433
 6836SOL    HW221045   4.333   3.162  10.499
 6837SOL     OW21046   0.024   2.674   0.079
 6837SOL    HW121047   0.102   2.708   0.121
 6837SOL    HW221048   0.052   2.654  11.089
 6838SOL     OW21049   4.398   2.854   9.946
 6838SOL    HW121050   4.472   2.847  10.007
 6838SOL    HW221051   4.337   2.912   9.990
 6839SOL     OW21052   4.061   3.294  10.379
 6839SOL    HW121053   3.988   3.251  10.334
 6839SOL    HW221054   4.106   3.343  10.310
 6840SOL     OW21055   4.177   2.263  10.796
 6840SOL    HW121056   4.246   2.196  10.798
 6840SOL    HW221057   4.097   2.216  10.816
 6841SOL     OW21058   3.942   3.576   9.783
 6841SOL    HW121059   3.963   3.652   9.837
 6841SOL    HW221060   4.017   3.568   9.724
 6842SOL     OW21061   3.954   3.303   9.844
 6842SOL    HW121062   3.936   3.397   9.850
 6842SOL    HW221063   3.894   3.263   9.908
 6843SOL     OW21064   3.975   2.950  10.196
 6843SOL    HW121065   3.979   2.866  10.241
 6843SOL    HW221066   3.923   3.006  10.255
 6844SOL     OW21067   4.356   3.663  10.754
 6844SOL    HW121068   4.269   3.633  10.781
 6844SOL    HW221069   4.353   3.758  10.767
 6845SOL     OW21070   4.309   2.848   9.449
 6845SOL    HW121071   4.340   2.899   9.374
 6845SOL    HW221072   4.377   2.860   9.515
 6846SOL     OW21073   3.839   2.514   9.870
 6846SOL    HW121074   3.808   2.426   9.891
 6846SOL    HW221075   3.831   2.563   9.952
 6847SOL     OW21076   3.756   3.457   9.434
 6847SOL    HW121077   3.738   3.365   9.454
 6847SOL    HW221078   3.732   3.504   9.514
 6848SOL     OW21079   3.849   2.588  10.915
 6848SOL    HW121080   3.942   2.611  10.906
 6848SOL    HW221081   3.803   2.672  10.908
 6849SOL     OW21082   4.310   3.249  10.048
 6849SOL    HW121083   4.274   3.161  10.051
 6849SOL    HW221084   4.311   3.271   9.954
 6850SOL     OW21085   0.022   1.870   9.836
 6850SOL    HW121086   0.053   1.931   9.769
 6850SOL    HW221087   4.427   1.884   9.839
 6851SOL     OW21088   3.912   2.826  10.579
 6851SOL    HW121089   3.997   2.786  10.561
 6851SOL    HW221090   3.849   2.771  10.532
 6852SOL     OW21091   4.066   2.119   0.016
 6852SOL    HW121092   4.116   2.194   0.048
 6852SOL    HW221093   3.975   2.142   0.034
 6853SOL     OW21094   4.312   2.590   9.580
 6853SOL    HW121095   4.309   2.667   9.524
 6853SOL    HW221096   4.244   2.606   9.646
 6854SOL     OW21097   3.812   2.683  10.085
 6854SOL    HW121098   3.893   2.675  10.136
 6854SOL    HW221099   3.770   2.762  10.120
 6855SOL     OW21100   3.855   3.704  10.896
 6855SOL    HW121101   3.837   3.670  10.983
 6855SOL    HW221102   3.770   3.704  10.852
 6856SOL     OW21103   4.251   2.053  10.191
 6856SOL    HW121104   4.271   2.059  10.284
 6856SOL    HW221105   4.262   2.142  10.158
 6857SOL     OW21106   4.082   3.674  10.173
 6857SOL    HW121107   4.132   3.593  10.180
 6857SOL    HW221108   4.147   3.743  10.184
 6858SOL     OW21109   4.043   2.820   9.560
 6858SOL    HW121110   4.126   2.839   9.516
 6858SOL    HW221111   4.013   2.738   9.522
 6859SOL     OW21112   4.178   3.125  11.054
 6859SOL    HW121113   4.152   3.138  10.963
 6859SOL    HW221114   4.107   3.072  11.092
 6860SOL     OW21115   3.928   2.143  10.807
 6860SOL    HW121116   3.846   2.192  10.803
 6860SOL    HW221117   3.913   2.076  10.874
 6861SOL     OW21118   4.192   3.597   9.636
 6861SOL    HW121119   4.225   3.657   9.703
 6861SOL    HW221120   4.261   3.596   9.569
 6862SOL     OW21121   3.980   3.655  10.543
 6862SOL    HW121122   4.026   3.585  10.589
 6862SOL    HW221123   3.967   3.620  10.455
 6863SOL     OW21124   4.111   2.556   9.783
 6863SOL    HW121125   4.136   2.464   9.798
 6863SOL    HW221126   4.018   2.558   9.804
 6864SOL     OW21127   4.340   1.971   9.428
 6864SOL    HW121128   4.435   1.957   9.427
 6864SOL    HW221129   4.312   1.948   9.339
 6865SOL     OW21130   0.020   3.284  10.222
 6865SOL    HW121131   0.082   3.328  10.164
 6865SOL    HW221132   4.444   3.265  10.166
 6866SOL     OW21133   4.260   1.927   9.811
 6866SOL    HW121134   4.181   1.931   9.865
 6866SOL    HW221135   4.256   2.005   9.756
 6867SOL     OW21136   4.017   1.910   9.495
 6867SOL    HW121137   4.078   1.973   9.457
 6867SOL    HW221138   4.073   1.846   9.538
 6868SOL     OW21139   0.311   2.538  10.762
 6868SOL    HW121140   0.251   2.464  10.769
 6868SOL    HW221141   0.398   2.498  10.760
 6869SOL     OW21142   4.190   3.007  10.043
 6869SOL    HW121143   4.121   2.988  10.107
 6869SOL    HW221144   4.149   2.990   9.958
 6870SOL     OW21145   3.802   2.415  10.704
 6870SOL    HW121146   3.894   2.415  10.677
 6870SOL    HW221147   3.799   2.477  10.777
 6871SOL     OW21148   4.284   2.073  10.460
 6871SOL    HW121149   4.324   2.003  10.511
 6871SOL    HW221150   4.196   2.083  10.498
 6872SOL     OW21151   4.231   3.248   9.483
 6872SOL    HW121152   4.146   3.234   9.525
 6872SOL    HW221153   4.210   3.264   9.391
 6873SOL     OW21154   4.245   2.128   9.632
 6873SOL    HW121155   4.286   2.073   9.565
 6873SOL    HW221156   4.225   2.210   9.587
 6874SOL     OW21157   4.140   2.674  10.559
 6874SOL    HW121158   4.207   2.684  10.627
 6874SOL    HW221159   4.106   2.586  10.573
 6875SOL     OW21160   3.794   3.438  10.662
 6875SOL    HW121161   3.763   3.508  10.605
 6875SOL    HW221162   3.889   3.441  10.654
 6876SOL     OW21163   4.070   2.971   9.800
 6876SOL    HW121164   4.073   3.044   9.737
 6876SOL    HW221165   4.069   2.893   9.745
 6877SOL     OW21166   4.299   2.400  10.174
 6877SOL    HW121167   4.301   2.467  10.106
 6877SOL    HW221168   4.365   2.429  10.237
 6878SOL     OW21169   4.072   3.394  10.626
 6878SOL    HW121170   4.067   3.351  10.541
 6878SOL    HW221171   4.165   3.397  10.647
 6879SOL     OW21172   4.135   2.597  10.904
 6879SOL    HW121173   4.198   2.641  10.848
 6879SOL    HW221174   4.162   2.505  10.903
 6880SOL     OW21175   4.290   2.753  10.336
 6880SOL    HW121176   4.318   2.843  10.351
 6880SOL    HW221177   4.242   2.729  10.416
 6881SOL     OW21178   4.025   2.062  10.556
 6881SOL    HW121179   3.989   2.095  10.638
 6881SOL    HW221180   4.005   1.969  10.557
 6882SOL     OW21181   3.774   3.174  10.585
 6882SOL    HW121182   3.801   3.118  10.658
 6882SOL    HW221183   3.775   3.263  10.622
 6883SOL     OW21184   4.020   1.928   9.936
 6883SOL    HW121185   4.004   2.019   9.959
 6883SOL    HW221186   4.032   1.883  10.019
 6884SOL     OW21187   4.081   2.780  11.094
 6884SOL    HW121188   4.164   2.796   0.038
 6884SOL    HW221189   4.101   2.712  11.029
 6885SOL     OW21190   4.031   2.670  10.256
 6885SOL    HW121191   4.123   2.698  10.255
 6885SOL    HW221192   4.033   2.580  10.287
 6886SOL     OW21193   4.063   2.389  10.319
 6886SOL    HW121194   4.027   2.302  10.304
 6886SOL    HW221195   4.143   2.392  10.266
 6887SOL     OW21196   3.729   3.183   9.505
 6887SOL    HW121197   3.642   3.197   9.468
 6887SOL    HW221198   3.727   3.094   9.539
 6888SOL     OW21199   3.816   3.649  10.248
 6888SOL    HW121200   3.786   3.570  10.204
 6888SOL    HW221201   3.905   3.662  10.217
 6889SOL     OW21202   4.232   3.446  10.215
 6889SOL    HW121203   4.318   3.476  10.245
 6889SOL    HW221204   4.252   3.375  10.153
 6890SOL     OW21205   3.759   2.407  10.427
 6890SOL    HW121206   3.840   2.391  10.377
 6890SOL    HW221207   3.788   2.410  10.518
 6891SOL     OW21208   0.031   2.417   9.573
 6891SOL    HW121209   0.021   2.350   9.641
 6891SOL    HW221210   4.464   2.482   9.592
 6892SOL     OW21211   3.979   3.428  11.053
 6892SOL    HW121212   3.920   3.461   0.021
 6892SOL    HW221213   3.983   3.334  11.067
 6893SOL     OW21214   4.189   2.355   9.498
 6893SOL    HW121215   4.248   2.428   9.518
 6893SOL    HW221216   4.104   2.396   9.484
 6894SOL     OW21217   3.876   3.000  10.780
 6894SOL    HW121218   3.869   2.945  10.858
 6894SOL    HW221219   3.889   2.937  10.708
 6895SOL     OW21220   3.809   3.132  10.322
 6895SOL    HW121221   3.795   3.142  10.416
 6895SOL    HW221222   3.738   3.074  10.294
 6896SOL     OW21223   4.393   3.529  11.003
 6896SOL    HW121224   4.312   3.577  10.988
 6896SOL    HW221225   4.428   3.513  10.915
 6897SOL     OW21226   3.986   2.182  10.025
 6897SOL    HW121227   3.899   2.215  10.004
 6897SOL    HW221228   3.985   2.171  10.121
 6898SOL     OW21229   4.083   3.172  10.810
 6898SOL    HW121230   4.070   3.244  10.748
 6898SOL    HW221231   4.014   3.109  10.789
 6899SOL     OW21232   4.325   3.352   9.790
 6899SOL    HW121233   4.342   3.293   9.717
 6899SOL    HW221234   4.260   3.413   9.757
 6900SOL     OW21235   3.984   3.211   9.596
 6900SOL    HW121236   3.891   3.207   9.574
 6900SOL    HW221237   3.986   3.247   9.685
 6901SOL     OW21238   3.838   2.875  11.019
 6901SOL    HW121239   3.769   2.861  11.083
 6901SOL    HW221240   3.918   2.844  11.062
 6902SOL     OW21241   4.396   2.066  10.809
 6902SOL    HW121242   4.475   2.073  10.755
 6902SOL    HW221243   4.428   2.076  10.898
 6903SOL     OW21244   3.803   2.195   9.345
 6903SOL    HW121245   3.715   2.176   9.312
 6903SOL    HW221246   3.832   2.270   9.293
 6904SOL     OW21247   3.793   2.018   9.620
 6904SOL    HW121248   3.778   2.098   9.570
 6904SOL    HW221249   3.878   1.986   9.590
 6905SOL     OW21250   4.338   2.701  10.745
 6905SOL    HW121251   4.378   2.786  10.729
 6905SOL    HW221252   4.412   2.640  10.751
 6906SOL     OW21253   4.115   3.596  10.873
 6906SOL    HW121254   4.037   3.649  10.863
 6906SOL    HW221255   4.087   3.522  10.927
 6907SOL     OW21256   4.308   2.593   9.977
 6907SOL    HW121257   4.351   2.678   9.965
 6907SOL    HW221258   4.240   2.590   9.911
 6908SOL     OW21259   3.808   3.095   9.975
 6908SOL    HW121260   3.813   3.048  10.058
 6908SOL    HW221261   3.877   3.056   9.921
 6909SOL     OW21262   4.407   3.253  10.944
 6909SOL    HW121263   4.331   3.205  10.976
 6909SOL    HW221264   4.400   3.339  10.985
 6910SOL     OW21265   4.163   2.295   9.843
 6910SOL    HW121266   4.180   2.227   9.778
 6910SOL    HW221267   4.106   2.253   9.907
 6911SOL     OW21268   4.053   2.415  10.600
 6911SOL    HW121269   4.107   2.358  10.654
 6911SOL    HW221270   4.073   2.388  10.510
 6912SOL     OW21271   0.036   3.461   9.996
 6912SOL    HW121272   0.059   3.523   9.927
 6912SOL    HW221273   4.466   3.408   9.958
 6913SOL     OW21274   3.768   2.933   9.615
 6913SOL    HW121275   3.861   2.924   9.598
 6913SOL    HW221276   3.739   2.845   9.639
 6914SOL     OW21277   3.924   4.297   0.088
 6914SOL    HW121278   3.899   4.354   0.161
 6914SOL    HW221279   3.938   4.356   0.015
 6915SOL     OW21280   3.947   4.006   0.990
 6915SOL    HW121281   3.978   3.970   1.074
 6915SOL    HW221282   3.857   3.973   0.982
 6916SOL     OW21283   3.728   4.102   0.643
 6916SOL    HW121284   3.645   4.130   0.682
 6916SOL    HW221285   3.705   4.025   0.591
 6917SOL     OW21286   0.060   0.010   1.858
 6917SOL    HW121287   0.115   0.075   1.903
 6917SOL    HW221288   0.075   0.026   1.765
 6918SOL     OW21289   4.172   4.117   1.480
 6918SOL    HW121290   4.248   4.059   1.489
 6918SOL    HW221291   4.097   4.062   1.500
 6919SOL     OW21292   3.811   4.367   0.559
 6919SOL    HW121293   3.795   4.278   0.589
 6919SOL    HW221294   3.868   4.406   0.626
 6920SOL     OW21295   3.841   4.475   1.583
 6920SOL    HW121296   3.909   4.494   1.648
 6920SOL    HW221297   3.808   0.062   1.558
 6921SOL     OW21298   0.022   3.735   0.531
 6921SOL    HW121299   0.053   3.792   0.461
 6921SOL    HW221300   4.427   3.746   0.531
 6922SOL     OW21301   4.058   3.975   1.808
 6922SOL    HW121302   4.100   4.058   1.831
 6922SOL    HW221303   3.968   3.984   1.839
 6923SOL     OW21304   4.251   3.913   0.881
 6923SOL    HW121305   4.270   3.919   0.974
 6923SOL    HW221306   4.261   4.002   0.848
 6924SOL     OW21307   3.923   4.006   1.505
 6924SOL    HW121308   3.838   4.049   1.495
 6924SOL    HW221309   3.907   3.935   1.567
 6925SOL     OW21310   4.092   4.388   0.410
 6925SOL    HW121311   4.129   4.313   0.458
 6925SOL    HW221312   4.021   4.419   0.466
 6926SOL     OW21313   4.343   3.842   0.118
 6926SOL    HW121314   4.434   3.815   0.122
 6926SOL    HW221315   4.315   3.817   0.030
 6927SOL     OW21316   4.261   3.790   0.500
 6927SOL    HW121317   4.181   3.792   0.553
 6927SOL    HW221318   4.255   3.868   0.445
 6928SOL     OW21319   4.010   3.772   0.200
 6928SOL    HW121320   4.052   3.826   0.134
 6928SOL    HW221321   4.076   3.708   0.225
 6929SOL     OW21322   0.362   4.393   1.524
 6929SOL    HW121323   0.302   4.370   1.454
 6929SOL    HW221324   0.431   4.327   1.520
 6930SOL     OW21325   3.800   4.280   1.393
 6930SOL    HW121326   3.891   4.272   1.364
 6930SOL    HW221327   3.800   4.353   1.454
 6931SOL     OW21328   4.283   3.934   1.149
 6931SOL    HW121329   4.327   3.870   1.204
 6931SOL    HW221330   4.197   3.946   1.188
 6932SOL     OW21331   4.248   3.994   0.324
 6932SOL    HW121332   4.281   3.934   0.257
 6932SOL    HW221333   4.228   4.075   0.277
 6933SOL     OW21334   4.155   0.010   1.272
 6933SOL    HW121335   4.219   0.007   1.343
 6933SOL    HW221336   4.113   4.424   1.273
 6934SOL     OW21337   4.305   4.263   0.872
 6934SOL    HW121338   4.314   4.333   0.807
 6934SOL    HW221339   4.372   4.282   0.937
 6935SOL     OW21340   4.232   3.776   1.734
 6935SOL    HW121341   4.186   3.716   1.675
 6935SOL    HW221342   4.167   3.844   1.754
 6936SOL     OW21343   4.024   3.924   1.247
 6936SOL    HW121344   3.985   3.956   1.329
 6936SOL    HW221345   4.004   3.830   1.247
 6937SOL     OW21346   4.021   3.790   0.626
 6937SOL    HW121347   4.004   3.881   0.650
 6937SOL    HW221348   4.032   3.745   0.709
 6938SOL     OW21349   4.040   0.013   0.921
 6938SOL    HW121350   4.117   0.070   0.927
 6938SOL    HW221351   4.060   4.440   0.979
 6939SOL     OW21352   4.070   4.242   1.017
 6939SOL    HW121353   4.030   4.158   0.997
 6939SOL    HW221354   4.147   4.246   0.961
 6940SOL     OW21355   3.759   4.272   1.115
 6940SOL    HW121356   3.839   4.254   1.065
 6940SOL    HW221357   3.788   4.274   1.206
 6941SOL     OW21358   3.916   4.245   1.719
 6941SOL    HW121359   3.970   4.196   1.658
 6941SOL    HW221360   3.862   4.302   1.664
 6942SOL     OW21361   0.001   4.294   0.282
 6942SOL    HW121362   0.028   4.214   0.327
 6942SOL    HW221363   4.488   4.357   0.353
 6943SOL     OW21364   4.195   4.215   0.175
 6943SOL    HW121365   4.248   4.284   0.216
 6943SOL    HW221366   4.106   4.249   0.176
 6944SOL     OW21367   3.986   4.045   0.717
 6944SOL    HW121368   3.897   4.073   0.694
 6944SOL    HW221369   3.984   4.032   0.812
 6945SOL     OW21370   4.391   3.929   1.494
 6945SOL    HW121371   4.480   3.932   1.459
 6945SOL    HW221372   4.402   3.922   1.589
 6946SOL     OW21373   3.803   4.050   0.056
 6946SOL    HW121374   3.736   4.047  11.088
 6946SOL    HW221375   3.832   4.141   0.058
 6947SOL     OW21376   3.790   3.883   0.313
 6947SOL    HW121377   3.776   3.957   0.255
 6947SOL    HW221378   3.873   3.845   0.285
 6948SOL     OW21379   4.406   4.272   1.746
 6948SOL    HW121380   4.425   4.354   1.790
 6948SOL    HW221381   4.492   4.239   1.717
 6949SOL     OW21382   4.172   4.155   0.542
 6949SOL    HW121383   4.188   4.087   0.476
 6949SOL    HW221384   4.110   4.115   0.603
 6950SOL     OW21385   4.047   4.264   1.291
 6950SOL    HW121386   4.102   4.208   1.345
 6950SOL    HW221387   4.069   4.239   1.201
 6951SOL     OW21388   3.950   4.293   1.987
 6951SOL    HW121389   3.890   4.358   2.022
 6951SOL    HW221390   3.938   4.297   1.892
 6952SOL     OW21391   3.947   4.005   2.852
 6952SOL    HW121392   3.978   3.970   2.936
 6952SOL    HW221393   3.857   3.973   2.844
 6953SOL     OW21394   3.728   4.101   2.506
 6953SOL    HW121395   3.646   4.131   2.544
 6953SOL    HW221396   3.704   4.024   2.454
 6954SOL     OW21397   0.061   0.010   3.721
 6954SOL    HW121398   0.115   0.075   3.765
 6954SOL    HW221399   0.075   0.026   3.627
 6955SOL     OW21400   4.172   4.117   3.342
 6955SOL    HW121401   4.248   4.058   3.351
 6955SOL    HW221402   4.097   4.062   3.362
 6956SOL     OW21403   3.800   4.373   2.429
 6956SOL    HW121404   3.796   4.280   2.453
 6956SOL    HW221405   3.868   4.409   2.485
 6957SOL     OW21406   3.841   4.475   3.445
 6957SOL    HW121407   3.909   4.494   3.510
 6957SOL    HW221408   3.808   0.062   3.420
 6958SOL     OW21409   0.022   3.731   2.388
 6958SOL    HW121410   0.053   3.793   2.322
 6958SOL    HW221411   4.427   3.745   2.390
 6959SOL     OW21412   4.058   3.975   3.670
 6959SOL    HW121413   4.100   4.058   3.693
 6959SOL    HW221414   3.968   3.984   3.701
 6960SOL     OW21415   4.251   3.912   2.743
 6960SOL    HW121416   4.270   3.919   2.836
 6960SOL    HW221417   4.262   4.001   2.709
 6961SOL     OW21418   3.923   4.006   3.367
 6961SOL    HW121419   3.838   4.049   3.357
 6961SOL    HW221420   3.907   3.936   3.430
 6962SOL     OW21421   4.091   4.393   2.276
 6962SOL    HW121422   4.128   4.316   2.320
 6962SOL    HW221423   4.021   4.422   2.334
 6963SOL     OW21424   4.339   3.829   1.981
 6963SOL    HW121425   4.434   3.822   1.978
 6963SOL    HW221426   4.310   3.809   1.892
 6964SOL     OW21427   4.261   3.789   2.364
 6964SOL    HW121428   4.181   3.793   2.417
 6964SOL    HW221429   4.255   3.866   2.308
 6965SOL     OW21430   4.017   3.772   2.047
 6965SOL    HW121431   4.078   3.836   2.010
 6965SOL    HW221432   4.074   3.707   2.090
 6966SOL     OW21433   0.362   4.393   3.386
 6966SOL    HW121434   0.301   4.370   3.316
 6966SOL    HW221435   0.431   4.327   3.382
 6967SOL     OW21436   3.800   4.279   3.255
 6967SOL    HW121437   3.891   4.272   3.226
 6967SOL    HW221438   3.800   4.353   3.316
 6968SOL     OW21439   4.283   3.934   3.011
 6968SOL    HW121440   4.327   3.870   3.067
 6968SOL    HW221441   4.197   3.946   3.050
 6969SOL     OW21442   4.245   3.988   2.185
 6969SOL    HW121443   4.285   3.933   2.118
 6969SOL    HW221444   4.229   4.072   2.140
 6970SOL     OW21445   4.155   0.010   3.133
 6970SOL    HW121446   4.219   0.007   3.204
 6970SOL    HW221447   4.113   4.424   3.135
 6971SOL     OW21448   4.304   4.263   2.734
 6971SOL    HW121449   4.312   4.333   2.669
 6971SOL    HW221450   4.372   4.283   2.799
 6972SOL     OW21451   4.232   3.776   3.596
 6972SOL    HW121452   4.186   3.716   3.537
 6972SOL    HW221453   4.167   3.844   3.616
 6973SOL     OW21454   4.024   3.924   3.109
 6973SOL    HW121455   3.985   3.956   3.191
 6973SOL    HW221456   4.004   3.830   3.109
 6974SOL     OW21457   4.020   3.790   2.488
 6974SOL    HW121458   4.004   3.881   2.511
 6974SOL    HW221459   4.032   3.745   2.571
 6975SOL     OW21460   4.040   0.013   2.785
 6975SOL    HW121461   4.116   0.071   2.790
 6975SOL    HW221462   4.062   4.440   2.843
 6976SOL     OW21463   4.070   4.242   2.880
 6976SOL    HW121464   4.030   4.158   2.859
 6976SOL    HW221465   4.147   4.246   2.823
 6977SOL     OW21466   3.759   4.271   2.977
 6977SOL    HW121467   3.839   4.255   2.927
 6977SOL    HW221468   3.788   4.273   3.068
 6978SOL     OW21469   3.916   4.245   3.581
 6978SOL    HW121470   3.971   4.196   3.519
 6978SOL    HW221471   3.863   4.302   3.526
 6979SOL     OW21472   0.003   4.296   2.139
 6979SOL    HW121473   0.027   4.211   2.177
 6979SOL    HW221474   4.478   4.349   2.214
 6980SOL     OW21475   4.202   4.213   2.050
 6980SOL    HW121476   4.253   4.292   2.066
 6980SOL    HW221477   4.112   4.244   2.041
 6981SOL     OW21478   3.986   4.044   2.578
 6981SOL    HW121479   3.897   4.073   2.557
 6981SOL    HW221480   3.984   4.031   2.673
 6982SOL     OW21481   4.391   3.928   3.356
 6982SOL    HW121482   4.480   3.933   3.321
 6982SOL    HW221483   4.403   3.922   3.451
 6983SOL     OW21484   3.799   4.044   1.891
 6983SOL    HW121485   3.712   4.036   1.853
 6983SOL    HW221486   3.831   4.129   1.862
 6984SOL     OW21487   3.793   3.880   2.173
 6984SOL    HW121488   3.778   3.960   2.122
 6984SOL    HW221489   3.878   3.848   2.142
 6985SOL     OW21490   4.406   4.271   3.608
 6985SOL    HW121491   4.425   4.354   3.652
 6985SOL    HW221492   4.492   4.239   3.580
 6986SOL     OW21493   4.175   4.154   2.406
 6986SOL    HW121494   4.185   4.089   2.335
 6986SOL    HW221495   4.111   4.114   2.465
 6987SOL     OW21496   4.047   4.264   3.153
 6987SOL    HW121497   4.103   4.208   3.207
 6987SOL    HW221498   4.068   4.239   3.063
 6988SOL     OW21499   3.950   4.292   3.849
 6988SOL    HW121500   3.890   4.358   3.884
 6988SOL    HW221501   3.938   4.297   3.754
 6989SOL     OW21502   3.947   4.005   4.714
 6989SOL    HW121503   3.978   3.970   4.798
 6989SOL    HW221504   3.857   3.973   4.706
 6990SOL     OW21505   3.728   4.101   4.368
 6990SOL    HW121506   3.646   4.131   4.406
 6990SOL    HW221507   3.704   4.024   4.316
 6991SOL     OW21508   0.060   0.010   5.583
 6991SOL    HW121509   0.115   0.075   5.627
 6991SOL    HW221510   0.075   0.026   5.489
 6992SOL     OW21511   4.173   4.117   5.204
 6992SOL    HW121512   4.248   4.058   5.213
 6992SOL    HW221513   4.097   4.062   5.224
 6993SOL     OW21514   3.801   4.372   4.290
 6993SOL    HW121515   3.796   4.280   4.316
 6993SOL    HW221516   3.869   4.409   4.348
 6994SOL     OW21517   3.841   4.475   5.307
 6994SOL    HW121518   3.909   4.494   5.372
 6994SOL    HW221519   3.808   0.061   5.282
 6995SOL     OW21520   0.022   3.731   4.250
 6995SOL    HW121521   0.053   3.793   4.184
 6995SOL    HW221522   4.427   3.745   4.252
 6996SOL     OW21523   4.058   3.975   5.532
 6996SOL    HW121524   4.100   4.058   5.555
 6996SOL    HW221525   3.968   3.984   5.564
 6997SOL     OW21526   4.251   3.912   4.605
 6997SOL    HW121527   4.270   3.919   4.698
 6997SOL    HW221528   4.262   4.001   4.571
 6998SOL     OW21529   3.923   4.006   5.229
 6998SOL    HW121530   3.838   4.049   5.219
 6998SOL    HW221531   3.907   3.935   5.291
 6999SOL     OW21532   4.091   4.393   4.139
 6999SOL    HW121533   4.128   4.316   4.182
 6999SOL    HW221534   4.020   4.421   4.196
 7000SOL     OW21535   4.339   3.829   3.844
 7000SOL    HW121536   4.434   3.822   3.840
 7000SOL    HW221537   4.310   3.809   3.754
 7001SOL     OW21538   4.261   3.789   4.226
 7001SOL    HW121539   4.181   3.793   4.279
 7001SOL    HW221540   4.256   3.866   4.170
 7002SOL     OW21541   4.017   3.772   3.909
 7002SOL    HW121542   4.078   3.836   3.872
 7002SOL    HW221543   4.074   3.707   3.952
 7003SOL     OW21544   0.362   4.393   5.248
 7003SOL    HW121545   0.301   4.369   5.178
 7003SOL    HW221546   0.431   4.327   5.244
 7004SOL     OW21547   3.800   4.279   5.117
 7004SOL    HW121548   3.891   4.272   5.088
 7004SOL    HW221549   3.800   4.353   5.178
 7005SOL     OW21550   4.283   3.934   4.873
 7005SOL    HW121551   4.327   3.870   4.929
 7005SOL    HW221552   4.197   3.946   4.912
 7006SOL     OW21553   4.245   3.988   4.047
 7006SOL    HW121554   4.285   3.933   3.980
 7006SOL    HW221555   4.229   4.072   4.002
 7007SOL     OW21556   4.155   0.010   4.995
 7007SOL    HW121557   4.219   0.007   5.066
 7007SOL    HW221558   4.113   4.424   4.997
 7008SOL     OW21559   4.304   4.263   4.596
 7008SOL    HW121560   4.312   4.332   4.531
 7008SOL    HW221561   4.372   4.284   4.661
 7009SOL     OW21562   4.232   3.776   5.458
 7009SOL    HW121563   4.186   3.716   5.399
 7009SOL    HW221564   4.167   3.844   5.478
 7010SOL     OW21565   4.024   3.924   4.971
 7010SOL    HW121566   3.985   3.956   5.053
 7010SOL    HW221567   4.004   3.830   4.971
 7011SOL     OW21568   4.020   3.790   4.350
 7011SOL    HW121569   4.003   3.881   4.373
 7011SOL    HW221570   4.032   3.745   4.433
 7012SOL     OW21571   4.040   0.013   4.647
 7012SOL    HW121572   4.116   0.071   4.652
 7012SOL    HW221573   4.062   4.440   4.705
 7013SOL     OW21574   4.070   4.242   4.742
 7013SOL    HW121575   4.030   4.158   4.721
 7013SOL    HW221576   4.147   4.246   4.685
 7014SOL     OW21577   3.759   4.271   4.839
 7014SOL    HW121578   3.839   4.255   4.789
 7014SOL    HW221579   3.788   4.273   4.930
 7015SOL     OW21580   3.916   4.245   5.443
 7015SOL    HW121581   3.970   4.196   5.381
 7015SOL    HW221582   3.863   4.302   5.388
 7016SOL     OW21583   0.003   4.296   4.001
 7016SOL    HW121584   0.027   4.211   4.039
 7016SOL    HW221585   4.477   4.349   4.076
 7017SOL     OW21586   4.202   4.213   3.912
 7017SOL    HW121587   4.253   4.292   3.927
 7017SOL    HW221588   4.112   4.244   3.903
 7018SOL     OW21589   3.986   4.044   4.440
 7018SOL    HW121590   3.897   4.073   4.418
 7018SOL    HW221591   3.984   4.031   4.535
 7019SOL     OW21592   4.391   3.928   5.218
 7019SOL    HW121593   4.480   3.933   5.183
 7019SOL    HW221594   4.402   3.922   5.313
 7020SOL     OW21595   3.799   4.044   3.753
 7020SOL    HW121596   3.712   4.037   3.715
 7020SOL    HW221597   3.831   4.129   3.724
 7021SOL     OW21598   3.793   3.880   4.035
 7021SOL    HW121599   3.778   3.960   3.984
 7021SOL    HW221600   3.878   3.848   4.004
 7022SOL     OW21601   4.406   4.271   5.470
 7022SOL    HW121602   4.425   4.354   5.514
 7022SOL    HW221603   4.492   4.239   5.442
 7023SOL     OW21604   4.175   4.153   4.268
 7023SOL    HW121605   4.185   4.089   4.197
 7023SOL    HW221606   4.111   4.114   4.327
 7024SOL     OW21607   4.047   4.264   5.015
 7024SOL    HW121608   4.103   4.208   5.069
 7024SOL    HW221609   4.068   4.239   4.925
 7025SOL     OW21610   3.951   4.293   5.711
 7025SOL    HW121611   3.890   4.358   5.746
 7025SOL    HW221612   3.938   4.297   5.616
 7026SOL     OW21613   3.947   4.006   6.576
 7026SOL    HW121614   3.978   3.970   6.660
 7026SOL    HW221615   3.857   3.973   6.568
 7027SOL     OW21616   3.728   4.100   6.230
 7027SOL    HW121617   3.646   4.130   6.268
 7027SOL    HW221618   3.704   4.023   6.178
 7028SOL     OW21619   0.060   0.010   7.445
 7028SOL    HW121620   0.115   0.075   7.489
 7028SOL    HW221621   0.075   0.026   7.351
 7029SOL     OW21622   4.173   4.117   7.066
 7029SOL    HW121623   4.248   4.058   7.075
 7029SOL    HW221624   4.097   4.062   7.086
 7030SOL     OW21625   3.800   4.373   6.153
 7030SOL    HW121626   3.796   4.280   6.177
 7030SOL    HW221627   3.868   4.409   6.209
 7031SOL     OW21628   3.841   4.475   7.169
 7031SOL    HW121629   3.909   4.494   7.234
 7031SOL    HW221630   3.809   0.062   7.144
 7032SOL     OW21631   0.022   3.731   6.112
 7032SOL    HW121632   0.053   3.793   6.046
 7032SOL    HW221633   4.427   3.745   6.114
 7033SOL     OW21634   4.058   3.975   7.394
 7033SOL    HW121635   4.100   4.058   7.417
 7033SOL    HW221636   3.968   3.984   7.426
 7034SOL     OW21637   4.251   3.912   6.467
 7034SOL    HW121638   4.270   3.919   6.560
 7034SOL    HW221639   4.262   4.001   6.433
 7035SOL     OW21640   3.923   4.006   7.091
 7035SOL    HW121641   3.838   4.049   7.081
 7035SOL    HW221642   3.907   3.935   7.153
 7036SOL     OW21643   4.091   4.393   6.001
 7036SOL    HW121644   4.128   4.316   6.044
 7036SOL    HW221645   4.020   4.421   6.058
 7037SOL     OW21646   4.339   3.829   5.705
 7037SOL    HW121647   4.434   3.822   5.702
 7037SOL    HW221648   4.310   3.809   5.616
 7038SOL     OW21649   4.261   3.789   6.088
 7038SOL    HW121650   4.181   3.793   6.141
 7038SOL    HW221651   4.256   3.866   6.032
 7039SOL     OW21652   4.017   3.772   5.771
 7039SOL    HW121653   4.078   3.836   5.734
 7039SOL    HW221654   4.073   3.707   5.814
 7040SOL     OW21655   0.362   4.393   7.110
 7040SOL    HW121656   0.301   4.369   7.040
 7040SOL    HW221657   0.431   4.327   7.106
 7041SOL     OW21658   3.800   4.279   6.979
 7041SOL    HW121659   3.891   4.272   6.950
 7041SOL    HW221660   3.800   4.353   7.040
 7042SOL     OW21661   4.283   3.934   6.735
 7042SOL    HW121662   4.327   3.870   6.791
 7042SOL    HW221663   4.197   3.946   6.774
 7043SOL     OW21664   4.245   3.988   5.909
 7043SOL    HW121665   4.285   3.933   5.842
 7043SOL    HW221666   4.229   4.072   5.864
 7044SOL     OW21667   4.155   0.010   6.857
 7044SOL    HW121668   4.219   0.007   6.928
 7044SOL    HW221669   4.113   4.424   6.859
 7045SOL     OW21670   4.304   4.263   6.458
 7045SOL    HW121671   4.312   4.333   6.393
 7045SOL    HW221672   4.372   4.283   6.523
 7046SOL     OW21673   4.232   3.776   7.320
 7046SOL    HW121674   4.186   3.716   7.261
 7046SOL    HW221675   4.167   3.844   7.340
 7047SOL     OW21676   4.024   3.924   6.833
 7047SOL    HW121677   3.985   3.956   6.915
 7047SOL    HW221678   4.004   3.830   6.833
 7048SOL     OW21679   4.020   3.790   6.212
 7048SOL    HW121680   4.004   3.881   6.235
 7048SOL    HW221681   4.032   3.745   6.295
 7049SOL     OW21682   4.040   0.013   6.509
 7049SOL    HW121683   4.116   0.071   6.514
 7049SOL    HW221684   4.062   4.440   6.567
 7050SOL     OW21685   4.070   4.242   6.604
 7050SOL    HW121686   4.030   4.158   6.583
 7050SOL    HW221687   4.147   4.246   6.547
 7051SOL     OW21688   3.759   4.271   6.701
 7051SOL    HW121689   3.839   4.254   6.651
 7051SOL    HW221690   3.788   4.273   6.792
 7052SOL     OW21691   3.916   4.245   7.305
 7052SOL    HW121692   3.970   4.196   7.243
 7052SOL    HW221693   3.863   4.302   7.250
 7053SOL     OW21694   0.003   4.295   5.863
 7053SOL    HW121695   0.027   4.211   5.901
 7053SOL    HW221696   4.477   4.349   5.937
 7054SOL     OW21697   4.202   4.213   5.774
 7054SOL    HW121698   4.253   4.293   5.789
 7054SOL    HW221699   4.112   4.244   5.765
 7055SOL     OW21700   3.986   4.044   6.302
 7055SOL    HW121701   3.897   4.073   6.281
 7055SOL    HW221702   3.984   4.031   6.397
 7056SOL     OW21703   4.391   3.929   7.080
 7056SOL    HW121704   4.480   3.933   7.045
 7056SOL    HW221705   4.402   3.922   7.175
 7057SOL     OW21706   3.799   4.044   5.615
 7057SOL    HW121707   3.712   4.036   5.577
 7057SOL    HW221708   3.831   4.129   5.585
 7058SOL     OW21709   3.793   3.880   5.897
 7058SOL    HW121710   3.778   3.960   5.846
 7058SOL    HW221711   3.878   3.848   5.866
 7059SOL     OW21712   4.406   4.272   7.332
 7059SOL    HW121713   4.425   4.354   7.376
 7059SOL    HW221714   4.492   4.239   7.304
 7060SOL     OW21715   4.175   4.153   6.130
 7060SOL    HW121716   4.185   4.089   6.059
 7060SOL    HW221717   4.111   4.113   6.189
 7061SOL     OW21718   4.047   4.264   6.877
 7061SOL    HW121719   4.103   4.208   6.931
 7061SOL    HW221720   4.068   4.239   6.787
 7062SOL     OW21721   3.950   4.293   7.573
 7062SOL    HW121722   3.890   4.358   7.608
 7062SOL    HW221723   3.938   4.297   7.478
 7063SOL     OW21724   3.947   4.005   8.438
 7063SOL    HW121725   3.978   3.970   8.522
 7063SOL    HW221726   3.857   3.973   8.430
 7064SOL     OW21727   3.728   4.100   8.092
 7064SOL    HW121728   3.646   4.130   8.130
 7064SOL    HW221729   3.704   4.024   8.040
 7065SOL     OW21730   0.060   0.010   9.307
 7065SOL    HW121731   0.115   0.075   9.351
 7065SOL    HW221732   0.075   0.027   9.213
 7066SOL     OW21733   4.172   4.117   8.928
 7066SOL    HW121734   4.248   4.058   8.937
 7066SOL    HW221735   4.097   4.062   8.948
 7067SOL     OW21736   3.800   4.373   8.015
 7067SOL    HW121737   3.796   4.280   8.039
 7067SOL    HW221738   3.868   4.409   8.071
 7068SOL     OW21739   3.841   4.475   9.031
 7068SOL    HW121740   3.909   4.494   9.096
 7068SOL    HW221741   3.809   0.062   9.006
 7069SOL     OW21742   0.022   3.731   7.973
 7069SOL    HW121743   0.053   3.793   7.908
 7069SOL    HW221744   4.427   3.745   7.976
 7070SOL     OW21745   4.058   3.975   9.256
 7070SOL    HW121746   4.100   4.058   9.279
 7070SOL    HW221747   3.968   3.984   9.287
 7071SOL     OW21748   4.251   3.912   8.329
 7071SOL    HW121749   4.270   3.919   8.422
 7071SOL    HW221750   4.262   4.001   8.295
 7072SOL     OW21751   3.923   4.006   8.953
 7072SOL    HW121752   3.838   4.049   8.943
 7072SOL    HW221753   3.907   3.936   9.016
 7073SOL     OW21754   4.091   4.393   7.863
 7073SOL    HW121755   4.128   4.316   7.906
 7073SOL    HW221756   4.021   4.422   7.921
 7074SOL     OW21757   4.339   3.829   7.567
 7074SOL    HW121758   4.434   3.822   7.564
 7074SOL    HW221759   4.310   3.809   7.478
 7075SOL     OW21760   4.261   3.789   7.950
 7075SOL    HW121761   4.181   3.793   8.003
 7075SOL    HW221762   4.255   3.866   7.894
 7076SOL     OW21763   4.017   3.772   7.633
 7076SOL    HW121764   4.078   3.836   7.596
 7076SOL    HW221765   4.074   3.707   7.676
 7077SOL     OW21766   0.362   4.393   8.972
 7077SOL    HW121767   0.302   4.370   8.902
 7077SOL    HW221768   0.431   4.327   8.968
 7078SOL     OW21769   3.800   4.279   8.841
 7078SOL    HW121770   3.891   4.272   8.812
 7078SOL    HW221771   3.800   4.353   8.902
 7079SOL     OW21772   4.283   3.934   8.597
 7079SOL    HW121773   4.327   3.870   8.653
 7079SOL    HW221774   4.197   3.946   8.636
 7080SOL     OW21775   4.245   3.988   7.771
 7080SOL    HW121776   4.285   3.933   7.704
 7080SOL    HW221777   4.229   4.072   7.726
 7081SOL     OW21778   4.155   0.010   8.719
 7081SOL    HW121779   4.219   0.007   8.790
 7081SOL    HW221780   4.113   4.424   8.721
 7082SOL     OW21781   4.304   4.263   8.320
 7082SOL    HW121782   4.312   4.333   8.255
 7082SOL    HW221783   4.372   4.283   8.385
 7083SOL     OW21784   4.232   3.776   9.182
 7083SOL    HW121785   4.186   3.716   9.123
 7083SOL    HW221786   4.167   3.844   9.202
 7084SOL     OW21787   4.024   3.924   8.695
 7084SOL    HW121788   3.985   3.956   8.777
 7084SOL    HW221789   4.004   3.830   8.695
 7085SOL     OW21790   4.020   3.790   8.074
 7085SOL    HW121791   4.004   3.881   8.097
 7085SOL    HW221792   4.032   3.745   8.157
 7086SOL     OW21793   4.040   0.013   8.371
 7086SOL    HW121794   4.116   0.071   8.376
 7086SOL    HW221795   4.062   4.440   8.429
 7087SOL     OW21796   4.070   4.242   8.466
 7087SOL    HW121797   4.030   4.158   8.445
 7087SOL    HW221798   4.147   4.246   8.409
 7088SOL     OW21799   3.759   4.271   8.563
 7088SOL    HW121800   3.839   4.255   8.513
 7088SOL    HW221801   3.788   4.273   8.654
 7089SOL     OW21802   3.916   4.245   9.167
 7089SOL    HW121803   3.971   4.196   9.105
 7089SOL    HW221804   3.863   4.302   9.112
 7090SOL     OW21805   0.003   4.295   7.725
 7090SOL    HW121806   0.027   4.211   7.763
 7090SOL    HW221807   4.478   4.349   7.800
 7091SOL     OW21808   4.202   4.213   7.636
 7091SOL    HW121809   4.253   4.292   7.652
 7091SOL    HW221810   4.112   4.244   7.627
 7092SOL     OW21811   3.986   4.044   8.164
 7092SOL    HW121812   3.897   4.073   8.143
 7092SOL    HW221813   3.984   4.031   8.259
 7093SOL     OW21814   4.391   3.928   8.942
 7093SOL    HW121815   4.480   3.933   8.907
 7093SOL    HW221816   4.402   3.922   9.037
 7094SOL     OW21817   3.799   4.044   7.477
 7094SOL    HW121818   3.712   4.036   7.439
 7094SOL    HW221819   3.831   4.129   7.448
 7095SOL     OW21820   3.793   3.880   7.759
 7095SOL    HW121821   3.778   3.960   7.708
 7095SOL    HW221822   3.878   3.848   7.728
 7096SOL     OW21823   4.406   4.272   9.194
 7096SOL    HW121824   4.425   4.354   9.238
 7096SOL    HW221825   4.492   4.239   9.166
 7097SOL     OW21826   4.175   4.154   7.992
 7097SOL    HW121827   4.185   4.089   7.921
 7097SOL    HW221828   4.111   4.113   8.051
 7098SOL     OW21829   4.047   4.264   8.739
 7098SOL    HW121830   4.103   4.208   8.793
 7098SOL    HW221831   4.069   4.239   8.649
 7099SOL     OW21832   3.950   4.293   9.435
 7099SOL    HW121833   3.890   4.358   9.470
 7099SOL    HW221834   3.938   4.297   9.340
 7100SOL     OW21835   3.947   4.005  10.300
 7100SOL    HW121836   3.978   3.971  10.384
 7100SOL    HW221837   3.857   3.973  10.292
 7101SOL     OW21838   3.728   4.100   9.954
 7101SOL    HW121839   3.646   4.130   9.992
 7101SOL    HW221840   3.704   4.023   9.902
 7102SOL     OW21841   4.180   4.122  10.796
 7102SOL    HW121842   4.247   4.054  10.799
 7102SOL    HW221843   4.098   4.076  10.818
 7103SOL     OW21844   3.799   4.373   9.878
 7103SOL    HW121845   3.796   4.281   9.901
 7103SOL    HW221846   3.868   4.410   9.933
 7104SOL     OW21847   3.852   4.459  10.905
 7104SOL    HW121848   3.947   4.465  10.911
 7104SOL    HW221849   3.822   0.049  10.895
 7105SOL     OW21850   0.022   3.730   9.835
 7105SOL    HW121851   0.053   3.793   9.770
 7105SOL    HW221852   4.427   3.745   9.838
 7106SOL     OW21853   4.066   3.979   0.015
 7106SOL    HW121854   4.110   4.060   0.043
 7106SOL    HW221855   3.973   3.995   0.031
 7107SOL     OW21856   4.251   3.912  10.192
 7107SOL    HW121857   4.270   3.920  10.285
 7107SOL    HW221858   4.262   4.001  10.157
 7108SOL     OW21859   3.927   4.005  10.807
 7108SOL    HW121860   3.846   4.056  10.807
 7108SOL    HW221861   3.915   3.941  10.878
 7109SOL     OW21862   4.091   4.393   9.725
 7109SOL    HW121863   4.128   4.316   9.768
 7109SOL    HW221864   4.021   4.422   9.783
 7110SOL     OW21865   4.339   3.829   9.430
 7110SOL    HW121866   4.434   3.822   9.426
 7110SOL    HW221867   4.310   3.809   9.340
 7111SOL     OW21868   4.261   3.789   9.812
 7111SOL    HW121869   4.181   3.793   9.865
 7111SOL    HW221870   4.255   3.866   9.756
 7112SOL     OW21871   4.018   3.772   9.495
 7112SOL    HW121872   4.078   3.836   9.458
 7112SOL    HW221873   4.074   3.707   9.538
 7113SOL     OW21874   0.327   4.395  10.803
 7113SOL    HW121875   0.239   4.359  10.803
 7113SOL    HW221876   0.383   4.323  10.773
 7114SOL     OW21877   3.798   4.279  10.705
 7114SOL    HW121878   3.890   4.272  10.677
 7114SOL    HW221879   3.801   4.340  10.780
 7115SOL     OW21880   4.284   3.935  10.460
 7115SOL    HW121881   4.324   3.865  10.511
 7115SOL    HW221882   4.196   3.945  10.498
 7116SOL     OW21883   4.244   3.988   9.633
 7116SOL    HW121884   4.285   3.933   9.566
 7116SOL    HW221885   4.229   4.072   9.589
 7117SOL     OW21886   4.154   0.008  10.575
 7117SOL    HW121887   4.222   0.002  10.643
 7117SOL    HW221888   4.109   4.424  10.580
 7118SOL     OW21889   4.304   4.263  10.182
 7118SOL    HW121890   4.314   4.333  10.117
 7118SOL    HW221891   4.372   4.281  10.247
 7119SOL     OW21892   4.125   4.463  10.912
 7119SOL    HW121893   4.191   0.027  10.885
 7119SOL    HW221894   4.171   4.378  10.908
 7120SOL     OW21895   4.025   3.924  10.556
 7120SOL    HW121896   3.988   3.957  10.638
 7120SOL    HW221897   4.005   3.830  10.557
 7121SOL     OW21898   4.020   3.790   9.936
 7121SOL    HW121899   4.003   3.881   9.959
 7121SOL    HW221900   4.032   3.745  10.019
 7122SOL     OW21901   4.040   0.013  10.233
 7122SOL    HW121902   4.116   0.071  10.238
 7122SOL    HW221903   4.061   4.440  10.290
 7123SOL     OW21904   4.070   4.242  10.328
 7123SOL    HW121905   4.030   4.158  10.307
 7123SOL    HW221906   4.147   4.246  10.272
 7124SOL     OW21907   3.760   4.273  10.426
 7124SOL    HW121908   3.840   4.255  10.377
 7124SOL    HW221909   3.787   4.275  10.518
 7125SOL     OW21910   0.003   4.295   9.587
 7125SOL    HW121911   0.027   4.211   9.625
 7125SOL    HW221912   4.478   4.350   9.662
 7126SOL     OW21913   4.202   4.213   9.498
 7126SOL    HW121914   4.254   4.292   9.514
 7126SOL    HW221915   4.112   4.244   9.489
 7127SOL     OW21916   3.986   4.044  10.027
 7127SOL    HW121917   3.897   4.073  10.005
 7127SOL    HW221918   3.984   4.031  10.121
 7128SOL     OW21919   4.397   3.928  10.810
 7128SOL    HW121920   4.475   3.936  10.756
 7128SOL    HW221921   4.429   3.942  10.900
 7129SOL     OW21922   3.799   4.044   9.339
 7129SOL    HW121923   3.712   4.036   9.301
 7129SOL    HW221924   3.831   4.129   9.310
 7130SOL     OW21925   3.793   3.880   9.621
 7130SOL    HW121926   3.778   3.960   9.570
 7130SOL    HW221927   3.878   3.848   9.590
 7131SOL     OW21928   4.174   4.154   9.853
 7131SOL    HW121929   4.185   4.089   9.783
 7131SOL    HW221930   4.111   4.114   9.913
 7132SOL     OW21931   4.047   4.262  10.601
 7132SOL    HW121932   4.103   4.206  10.655
 7132SOL    HW221933   4.068   4.237  10.511
   4.50000   4.50000  11.10000
