Built with Packmol
22017
    1LIG      O    1   2.347   2.340   0.011
    1LIG      C    2   2.412   2.390   0.121
    1LIG     C1    3   2.341   2.337   0.237
    1LIG     O1    4   2.405   2.387   0.348
    1LIG     C2    5   2.340   2.338   0.457
    1LIG     C3    6   2.411   2.393   0.571
    1LIG     O2    7   2.347   2.345   0.681
    1LIG     C4    8   2.410   2.395   0.791
    1LIG     C5    9   2.338   2.340   0.906
    1LIG     O3   10   2.401   2.390   1.016
    1LIG     C6   11   2.336   2.341   1.125
    1LIG     C7   12   2.408   2.397   1.239
    1LIG     O4   13   2.344   2.349   1.350
    1LIG     C8   14   2.408   2.399   1.460
    1LIG     C9   15   2.335   2.343   1.573
    1LIG     O5   16   2.398   2.393   1.683
    1LIG    C10   17   2.334   2.344   1.793
    1LIG    C11   18   2.407   2.400   1.907
    1LIG     O6   19   2.343   2.351   2.017
    1LIG    C12   20   2.406   2.400   2.127
    1LIG    C13   21   2.333   2.345   2.241
    1LIG     O7   22   2.397   2.394   2.351
    1LIG    C14   23   2.333   2.345   2.461
    1LIG    C15   24   2.405   2.400   2.576
    1LIG     O8   25   2.341   2.351   2.686
    1LIG    C16   26   2.405   2.401   2.795
    1LIG    C17   27   2.334   2.346   2.910
    1LIG     O9   28   2.397   2.395   3.021
    1LIG    C18   29   2.332   2.346   3.130
    1LIG    C19   30   2.404   2.401   3.243
    1LIG    O10   31   2.340   2.352   3.354
    1LIG    C20   32   2.404   2.402   3.463
    1LIG    C21   33   2.332   2.346   3.577
    1LIG    O11   34   2.396   2.395   3.687
    1LIG    C22   35   2.332   2.346   3.797
    1LIG    C23   36   2.404   2.402   3.911
    1LIG    O12   37   2.340   2.353   4.021
    1LIG    C24   38   2.404   2.402   4.131
    1LIG    C25   39   2.332   2.347   4.246
    1LIG    O13   40   2.395   2.396   4.356
    1LIG    C26   41   2.331   2.347   4.466
    1LIG    C27   42   2.403   2.402   4.579
    1LIG    O14   43   2.339   2.353   4.689
    1LIG    C28   44   2.404   2.402   4.800
    1LIG    C29   45   2.332   2.346   4.914
    1LIG    O15   46   2.396   2.395   5.024
    1LIG    C30   47   2.332   2.346   5.134
    1LIG    C31   48   2.404   2.401   5.247
    1LIG    O16   49   2.340   2.352   5.356
    1LIG    C32   50   2.404   2.401   5.467
    1LIG    C33   51   2.332   2.346   5.581
    1LIG    O17   52   2.396   2.395   5.691
    1LIG    C34   53   2.332   2.345   5.801
    1LIG    C35   54   2.403   2.400   5.915
    1LIG    O18   55   2.340   2.351   6.026
    1LIG    C36   56   2.404   2.400   6.135
    1LIG    C37   57   2.333   2.345   6.250
    1LIG    O19   58   2.397   2.394   6.360
    1LIG    C38   59   2.333   2.344   6.469
    1LIG    C39   60   2.404   2.399   6.584
    1LIG    O20   61   2.341   2.350   6.694
    1LIG    C40   62   2.405   2.399   6.804
    1LIG    C41   63   2.334   2.344   6.918
    1LIG    O21   64   2.397   2.393   7.029
    1LIG    C42   65   2.333   2.343   7.138
    1LIG    C43   66   2.405   2.398   7.252
    1LIG    O22   67   2.342   2.349   7.362
    1LIG    C44   68   2.406   2.398   7.472
    1LIG    C45   69   2.334   2.342   7.586
    1LIG    O23   70   2.397   2.391   7.696
    1LIG    C46   71   2.334   2.342   7.806
    1LIG    C47   72   2.406   2.398   7.920
    1LIG    O24   73   2.343   2.348   8.029
    1LIG    C48   74   2.406   2.397   8.140
    1LIG    C49   75   2.334   2.341   8.253
    1LIG    O25   76   2.398   2.390   8.363
    1LIG    C50   77   2.335   2.341   8.473
    1LIG    C51   78   2.407   2.397   8.587
    1LIG    O26   79   2.343   2.347   8.697
    1LIG    C52   80   2.407   2.396   8.807
    1LIG    C53   81   2.335   2.339   8.921
    1LIG    O27   82   2.399   2.389   9.030
    1LIG    C54   83   2.336   2.339   9.141
    1LIG    C55   84   2.408   2.395   9.255
    1LIG    O28   85   2.344   2.345   9.366
    1LIG    C56   86   2.408   2.394   9.476
    1LIG    C57   87   2.337   2.338   9.591
    1LIG    O29   88   2.401   2.387   9.701
    1LIG    C58   89   2.337   2.337   9.811
    1LIG    C59   90   2.408   2.392   9.926
    1LIG      H   91   2.409   2.500   0.119
    1LIG     H1   92   2.517   2.359   0.120
    1LIG     H2   93   2.344   2.228   0.237
    1LIG     H3   94   2.236   2.368   0.236
    1LIG     H4   95   2.342   2.228   0.459
    1LIG     H5   96   2.235   2.369   0.458
    1LIG     H6   97   2.409   2.503   0.569
    1LIG     H7   98   2.516   2.362   0.570
    1LIG     H8   99   2.408   2.504   0.792
    1LIG     H9  100   2.515   2.364   0.793
    1LIG    H10  101   2.341   2.231   0.905
    1LIG    H11  102   2.233   2.371   0.904
    1LIG    H12  103   2.339   2.232   1.127
    1LIG    H13  104   2.231   2.372   1.126
    1LIG    H14  105   2.405   2.507   1.237
    1LIG    H15  106   2.513   2.366   1.238
    1LIG    H16  107   2.405   2.508   1.461
    1LIG    H17  108   2.513   2.368   1.462
    1LIG    H18  109   2.338   2.234   1.572
    1LIG    H19  110   2.230   2.374   1.571
    1LIG    H20  111   2.337   2.234   1.795
    1LIG    H21  112   2.229   2.375   1.795
    1LIG    H22  113   2.404   2.509   1.905
    1LIG    H23  114   2.512   2.369   1.906
    1LIG    H24  115   2.403   2.509   2.128
    1LIG    H25  116   2.511   2.369   2.129
    1LIG    H26  117   2.336   2.235   2.240
    1LIG    H27  118   2.228   2.376   2.239
    1LIG    H28  119   2.336   2.235   2.462
    1LIG    H29  120   2.228   2.376   2.462
    1LIG    H30  121   2.402   2.510   2.574
    1LIG    H31  122   2.510   2.369   2.574
    1LIG    H32  123   2.402   2.511   2.796
    1LIG    H33  124   2.510   2.370   2.797
    1LIG    H34  125   2.336   2.237   2.909
    1LIG    H35  126   2.228   2.377   2.908
    1LIG    H36  127   2.335   2.236   3.131
    1LIG    H37  128   2.227   2.377   3.131
    1LIG    H38  129   2.401   2.511   3.242
    1LIG    H39  130   2.509   2.370   3.242
    1LIG    H40  131   2.402   2.511   3.465
    1LIG    H41  132   2.510   2.371   3.465
    1LIG    H42  133   2.335   2.237   3.576
    1LIG    H43  134   2.227   2.377   3.576
    1LIG    H44  135   2.335   2.237   3.799
    1LIG    H45  136   2.227   2.377   3.798
    1LIG    H46  137   2.401   2.512   3.909
    1LIG    H47  138   2.509   2.371   3.910
    1LIG    H48  139   2.401   2.511   4.133
    1LIG    H49  140   2.509   2.371   4.133
    1LIG    H50  141   2.334   2.237   4.244
    1LIG    H51  142   2.227   2.378   4.244
    1LIG    H52  143   2.334   2.237   4.467
    1LIG    H53  144   2.226   2.378   4.467
    1LIG    H54  145   2.400   2.512   4.578
    1LIG    H55  146   2.508   2.371   4.578
    1LIG    H56  147   2.401   2.511   4.801
    1LIG    H57  148   2.509   2.371   4.801
    1LIG    H58  149   2.335   2.237   4.912
    1LIG    H59  150   2.227   2.377   4.913
    1LIG    H60  151   2.335   2.236   5.135
    1LIG    H61  152   2.227   2.377   5.135
    1LIG    H62  153   2.401   2.511   5.246
    1LIG    H63  154   2.509   2.370   5.246
    1LIG    H64  155   2.401   2.510   5.468
    1LIG    H65  156   2.509   2.370   5.468
    1LIG    H66  157   2.335   2.236   5.580
    1LIG    H67  158   2.227   2.377   5.580
    1LIG    H68  159   2.335   2.236   5.802
    1LIG    H69  160   2.227   2.376   5.802
    1LIG    H70  161   2.400   2.510   5.914
    1LIG    H71  162   2.509   2.370   5.914
    1LIG    H72  163   2.401   2.510   6.136
    1LIG    H73  164   2.509   2.370   6.136
    1LIG    H74  165   2.336   2.236   6.248
    1LIG    H75  166   2.228   2.376   6.249
    1LIG    H76  167   2.336   2.235   6.470
    1LIG    H77  168   2.227   2.375   6.471
    1LIG    H78  169   2.401   2.508   6.583
    1LIG    H79  170   2.509   2.368   6.583
    1LIG    H80  171   2.402   2.509   6.805
    1LIG    H81  172   2.510   2.369   6.805
    1LIG    H82  173   2.337   2.234   6.917
    1LIG    H83  174   2.228   2.374   6.917
    1LIG    H84  175   2.337   2.233   7.139
    1LIG    H85  176   2.228   2.373   7.139
    1LIG    H86  177   2.402   2.508   7.250
    1LIG    H87  178   2.511   2.368   7.250
    1LIG    H88  179   2.403   2.508   7.473
    1LIG    H89  180   2.511   2.368   7.473
    1LIG    H90  181   2.337   2.233   7.584
    1LIG    H91  182   2.229   2.373   7.584
    1LIG    H92  183   2.337   2.232   7.807
    1LIG    H93  184   2.229   2.372   7.808
    1LIG    H94  185   2.403   2.507   7.918
    1LIG    H95  186   2.512   2.367   7.918
    1LIG    H96  187   2.403   2.506   8.141
    1LIG    H97  188   2.511   2.366   8.141
    1LIG    H98  189   2.337   2.231   8.252
    1LIG    H99  190   2.229   2.371   8.252
    1LIG   H100  191   2.338   2.231   8.475
    1LIG   H101  192   2.230   2.371   8.475
    1LIG   H102  193   2.404   2.506   8.586
    1LIG   H103  194   2.512   2.366   8.585
    1LIG   H104  195   2.404   2.505   8.809
    1LIG   H105  196   2.512   2.365   8.809
    1LIG   H106  197   2.339   2.230   8.919
    1LIG   H107  198   2.230   2.370   8.920
    1LIG   H108  199   2.339   2.230   9.142
    1LIG   H109  200   2.231   2.370   9.142
    1LIG   H110  201   2.404   2.504   9.255
    1LIG   H111  202   2.513   2.364   9.254
    1LIG   H112  203   2.405   2.504   9.477
    1LIG   H113  204   2.514   2.364   9.477
    1LIG   H114  205   2.341   2.229   9.589
    1LIG   H115  206   2.232   2.369   9.590
    1LIG   H116  207   2.341   2.227   9.811
    1LIG   H117  208   2.232   2.369   9.812
    1LIG   H118  209   2.513   2.362   9.925
    1LIG   H119  210   2.361   2.355  10.011
    1MOL     C1  211   1.690   2.568   4.984
    1MOL     H1  212   1.585   2.538   4.992
    1MOL     O1  213   1.723   2.627   5.108
    1MOL     C2  214   1.856   2.680   5.117
    1MOL     H2  215   1.929   2.598   5.105
    1MOL     C3  216   1.874   2.737   5.257
    1MOL     H3  217   1.981   2.758   5.272
    1MOL     H4  218   1.843   2.660   5.330
    1MOL     O2  219   1.796   2.855   5.270
    1MOL     H5  220   1.819   2.897   5.354
    1MOL     C4  221   1.709   2.668   4.869
    1MOL     H6  222   1.640   2.752   4.888
    1MOL     O3  223   1.675   2.617   4.742
    1MOL     H7  224   1.707   2.525   4.733
    1MOL     C5  225   1.851   2.723   4.871
    1MOL     H8  226   1.922   2.641   4.852
    1MOL     O4  227   1.866   2.823   4.770
    1MOL     H9  228   1.818   2.789   4.692
    1MOL     C6  229   1.881   2.785   5.006
    1MOL    H10  230   1.813   2.870   5.022
    1MOL     O5  231   2.017   2.829   5.007
    1MOL     C7  232   2.046   2.956   5.063
    1MOL    H11  233   1.956   2.998   5.110
    1MOL     O6  234   2.140   2.944   5.167
    1MOL     C8  235   2.268   2.892   5.127
    1MOL    H12  236   2.254   2.793   5.081
    1MOL     C9  237   2.354   2.873   5.254
    1MOL    H13  238   2.426   2.793   5.234
    1MOL    H14  239   2.287   2.839   5.334
    1MOL     O7  240   2.419   2.991   5.299
    1MOL    H15  241   2.507   2.994   5.256
    1MOL    C10  242   2.098   3.048   4.952
    1MOL    H16  243   2.110   3.148   4.994
    1MOL     O8  244   2.010   3.062   4.842
    1MOL    H17  245   1.977   2.973   4.815
    1MOL    C11  246   2.236   3.000   4.905
    1MOL    H18  247   2.226   2.901   4.858
    1MOL     O9  248   2.293   3.092   4.812
    1MOL    H19  249   2.220   3.115   4.751
    1MOL    C12  250   2.329   2.989   5.025
    1MOL    H20  251   2.339   3.087   5.073
    1MOL    O10  252   2.457   2.944   4.979
    1MOL    C13  253   2.569   3.025   5.006
    1MOL    H21  254   2.537   3.125   5.038
    1MOL    O11  255   2.646   2.974   5.114
    1MOL    C14  256   2.700   2.842   5.090
    1MOL    H22  257   2.617   2.773   5.068
    1MOL    C15  258   2.769   2.794   5.219
    1MOL    H23  259   2.763   2.684   5.223
    1MOL    H24  260   2.711   2.833   5.304
    1MOL    O12  261   2.903   2.838   5.234
    1MOL    H25  262   2.960   2.767   5.199
    1MOL    C16  263   2.654   3.035   4.879
    1MOL    H26  264   2.736   3.105   4.898
    1MOL    O13  265   2.582   3.085   4.767
    1MOL    H27  266   2.487   3.063   4.777
    1MOL    C17  267   2.716   2.898   4.848
    1MOL    H28  268   2.636   2.826   4.825
    1MOL    O14  269   2.805   2.908   4.737
    1MOL    H29  270   2.757   2.958   4.668
    1MOL    C18  271   2.794   2.849   4.969
    1MOL    H30  272   2.874   2.920   4.992
    1MOL    O15  273   2.849   2.721   4.937
    1MOL    C19  274   2.988   2.703   4.952
    1MOL    H31  275   3.039   2.799   4.966
    1MOL    O16  276   3.018   2.627   5.068
    1MOL    C20  277   2.961   2.494   5.069
    1MOL    H32  278   2.852   2.503   5.058
    1MOL    C21  279   2.991   2.428   5.205
    1MOL    H33  280   2.908   2.360   5.228
    1MOL    H34  281   2.989   2.508   5.281
    1MOL    O17  282   3.116   2.363   5.213
    1MOL    H35  283   3.100   2.269   5.192
    1MOL    C22  284   3.040   2.632   4.826
    1MOL    H36  285   3.149   2.625   4.834
    1MOL    O18  286   3.012   2.703   4.707
    1MOL    H37  287   2.928   2.752   4.717
    1MOL    C23  288   2.984   2.490   4.820
    1MOL    H38  289   2.875   2.494   4.809
    1MOL    O19  290   3.041   2.418   4.711
    1MOL    H39  291   3.036   2.478   4.634
    1MOL    C24  292   3.018   2.416   4.949
    1MOL    H40  293   3.126   2.410   4.961
    1MOL    O20  294   2.961   2.285   4.942
    1MOL    C25  295   3.046   2.174   4.960
    1MOL    H41  296   3.151   2.205   4.958
    1MOL    O21  297   3.026   2.114   5.087
    1MOL    C26  298   2.893   2.063   5.109
    1MOL    H42  299   2.821   2.145   5.103
    1MOL    C27  300   2.887   2.006   5.250
    1MOL    H43  301   2.782   1.986   5.274
    1MOL    H44  302   2.925   2.082   5.320
    1MOL    O22  303   2.965   1.887   5.256
    1MOL    H45  304   2.956   1.850   5.345
    1MOL    C28  305   3.018   2.074   4.848
    1MOL    H46  306   3.088   1.990   4.860
    1MOL    O23  307   3.040   2.126   4.718
    1MOL    H47  308   3.017   2.221   4.717
    1MOL    C29  309   2.876   2.019   4.862
    1MOL    H48  310   2.804   2.102   4.849
    1MOL    O24  311   2.852   1.919   4.764
    1MOL    H49  312   2.890   1.953   4.681
    1MOL    C30  313   2.857   1.959   5.001
    1MOL    H50  314   2.921   1.871   5.011
    1MOL    O25  315   2.720   1.922   5.013
    1MOL    C31  316   2.689   1.797   5.075
    1MOL    H51  317   2.777   1.758   5.126
    1MOL    O26  318   2.591   1.816   5.175
    1MOL    C32  319   2.464   1.867   5.128
    1MOL    H52  320   2.481   1.963   5.077
    1MOL    C33  321   2.375   1.892   5.250
    1MOL    H53  322   2.299   1.966   5.222
    1MOL    H54  323   2.439   1.938   5.327
    1MOL    O27  324   2.315   1.775   5.301
    1MOL    H55  325   2.219   1.786   5.294
    1MOL    C34  326   2.639   1.699   4.967
    1MOL    H56  327   2.625   1.602   5.015
    1MOL    O28  328   2.731   1.678   4.862
    1MOL    H57  329   2.759   1.765   4.825
    1MOL    C35  330   2.504   1.746   4.913
    1MOL    H58  331   2.517   1.842   4.862
    1MOL    O29  332   2.450   1.650   4.822
    1MOL    H59  333   2.525   1.622   4.767
    1MOL    C36  334   2.406   1.766   5.028
    1MOL    H60  335   2.391   1.671   5.082
    1MOL    O30  336   2.281   1.811   4.974
    1MOL    C37  337   2.174   1.720   4.977
    1MOL    H61  338   2.210   1.618   4.996
    1MOL    O31  339   2.084   1.748   5.082
    1MOL    C38  340   2.023   1.878   5.077
    1MOL    H62  341   2.101   1.955   5.074
    1MOL    C39  342   1.946   1.894   5.206
    1MOL    H63  343   1.878   1.808   5.219
    1MOL    H64  344   1.888   1.986   5.205
    1MOL    O32  345   2.044   1.896   5.311
    1MOL    H65  346   2.000   1.918   5.394
    1MOL    C40  347   2.100   1.726   4.843
    1MOL    H66  348   2.022   1.649   4.846
    1MOL    O33  349   2.181   1.702   4.730
    1MOL    H67  350   2.275   1.701   4.756
    1MOL    C41  351   2.031   1.862   4.829
    1MOL    H68  352   2.108   1.940   4.825
    1MOL    O34  353   1.952   1.865   4.710
    1MOL    H69  354   2.010   1.831   4.639
    1MOL    C42  355   1.940   1.889   4.948
    1MOL    H70  356   1.859   1.814   4.950
    1MOL    O35  357   1.885   2.020   4.932
    1MOL    C43  358   1.745   2.036   4.936
    1MOL    H71  359   1.695   1.939   4.939
    1MOL    O36  360   1.704   2.103   5.054
    1MOL    C44  361   1.755   2.236   5.071
    1MOL    H72  362   1.865   2.233   5.073
    1MOL    C45  363   1.705   2.285   5.205
    1MOL    H73  364   1.597   2.265   5.212
    1MOL    H74  365   1.722   2.393   5.213
    1MOL    O37  366   1.778   2.215   5.307
    1MOL    H75  367   1.740   2.241   5.392
    1MOL    C46  368   1.701   2.116   4.813
    1MOL    H76  369   1.592   2.121   4.813
    1MOL    O38  370   1.738   2.057   4.690
    1MOL    H77  371   1.824   2.010   4.700
    1MOL    C47  372   1.755   2.259   4.822
    1MOL    H78  373   1.865   2.256   4.820
    1MOL    O39  374   1.707   2.336   4.712
    1MOL    H79  375   1.718   2.280   4.634
    1MOL    C48  376   1.711   2.325   4.952
    1MOL    H80  377   1.602   2.335   4.952
    1MOL    O40  378   1.772   2.454   4.959
    2SOL     OW  379   0.230   0.628   0.113
    2SOL    HW1  380   0.137   0.626   0.150
    2SOL    HW2  381   0.231   0.589   0.021
    3SOL     OW  382   0.225   0.275   0.996
    3SOL    HW1  383   0.260   0.258   1.088
    3SOL    HW2  384   0.137   0.230   0.984
    4SOL     OW  385   0.019   0.368   0.647
    4SOL    HW1  386  -0.063   0.411   0.686
    4SOL    HW2  387  -0.009   0.295   0.584
    5SOL     OW  388   0.569   1.275   1.165
    5SOL    HW1  389   0.476   1.268   1.128
    5SOL    HW2  390   0.580   1.364   1.209
    6SOL     OW  391   1.555   1.511   0.703
    6SOL    HW1  392   1.498   1.495   0.784
    6SOL    HW2  393   1.496   1.521   0.623
    7SOL     OW  394   1.135   0.703   0.717
    7SOL    HW1  395   1.192   0.781   0.692
    7SOL    HW2  396   1.075   0.729   0.793
    8SOL     OW  397   1.755   0.607   0.231
    8SOL    HW1  398   1.743   0.594   0.132
    8SOL    HW2  399   1.725   0.526   0.280
    9SOL     OW  400   0.768   1.144   1.023
    9SOL    HW1  401   0.690   1.161   1.083
    9SOL    HW2  402   0.802   1.231   0.987
   10SOL     OW  403   0.850   0.798   1.823
   10SOL    HW1  404   0.846   0.874   1.888
   10SOL    HW2  405   0.872   0.834   1.732
   11SOL     OW  406   0.685   1.012   0.665
   11SOL    HW1  407   0.754   0.996   0.735
   11SOL    HW2  408   0.612   1.069   0.703
   12SOL     OW  409   0.686   1.161   1.803
   12SOL    HW1  410   0.746   1.240   1.817
   12SOL    HW2  411   0.600   1.192   1.762
   13SOL     OW  412   0.335   1.435   1.061
   13SOL    HW1  413   0.257   1.404   1.008
   13SOL    HW2  414   0.393   1.493   1.004
   14SOL     OW  415   1.460   1.505   1.339
   14SOL    HW1  416   1.484   1.599   1.365
   14SOL    HW2  417   1.444   1.451   1.421
   15SOL     OW  418   0.438   0.392   1.499
   15SOL    HW1  419   0.520   0.336   1.508
   15SOL    HW2  420   0.357   0.334   1.503
   16SOL     OW  421   1.603   0.447   0.737
   16SOL    HW1  422   1.529   0.493   0.687
   16SOL    HW2  423   1.654   0.515   0.790
   17SOL     OW  424   0.231   1.713   0.483
   17SOL    HW1  425   0.265   1.790   0.537
   17SOL    HW2  426   0.275   1.713   0.393
   18SOL     OW  427   1.127   1.341   1.690
   18SOL    HW1  428   1.174   1.341   1.778
   18SOL    HW2  429   1.079   1.254   1.679
   19SOL     OW  430   0.230   1.434   0.538
   19SOL    HW1  431   0.204   1.530   0.538
   19SOL    HW2  432   0.159   1.380   0.583
   20SOL     OW  433   0.240   1.091   0.886
   20SOL    HW1  434   0.254   1.007   0.938
   20SOL    HW2  435   0.185   1.155   0.941
   21SOL     OW  436   0.620   1.786   1.439
   21SOL    HW1  437   0.528   1.769   1.474
   21SOL    HW2  438   0.648   1.878   1.465
   22SOL     OW  439   0.606   0.964   0.123
   22SOL    HW1  440   0.613   1.048   0.069
   22SOL    HW2  441   0.652   0.977   0.211
   23SOL     OW  442   1.594   0.114   1.480
   23SOL    HW1  443   1.576   0.181   1.408
   23SOL    HW2  444   1.591   0.160   1.569
   24SOL     OW  445   0.122   0.643   0.563
   24SOL    HW1  446   0.077   0.555   0.580
   24SOL    HW2  447   0.121   0.697   0.647
   25SOL     OW  448   1.842   1.767   0.359
   25SOL    HW1  449   1.896   1.738   0.439
   25SOL    HW2  450   1.872   1.857   0.330
   26SOL     OW  451   0.027   1.596   0.117
   26SOL    HW1  452   0.008   1.500   0.138
   26SOL    HW2  453  -0.006   1.654   0.192
   27SOL     OW  454   1.689   0.922   0.612
   27SOL    HW1  455   1.784   0.893   0.620
   27SOL    HW2  456   1.681   0.987   0.537
   28SOL     OW  457   1.641   1.108   0.432
   28SOL    HW1  458   1.727   1.110   0.380
   28SOL    HW2  459   1.655   1.155   0.520
   29SOL     OW  460   0.113   0.737   1.597
   29SOL    HW1  461   0.201   0.724   1.642
   29SOL    HW2  462   0.100   0.834   1.575
   30SOL     OW  463   0.613   1.365   0.726
   30SOL    HW1  464   0.564   1.278   0.735
   30SOL    HW2  465   0.590   1.408   0.639
   31SOL     OW  466   1.293   1.228   1.423
   31SOL    HW1  467   1.330   1.155   1.365
   31SOL    HW2  468   1.345   1.233   1.508
   32SOL     OW  469   0.809   0.004   0.502
   32SOL    HW1  470   0.849   0.095   0.493
   32SOL    HW2  471   0.709   0.012   0.508
   33SOL     OW  472   0.197   0.976   1.264
   33SOL    HW1  473   0.286   0.931   1.250
   33SOL    HW2  474   0.124   0.911   1.245
   34SOL     OW  475   1.525   0.999   0.190
   34SOL    HW1  476   1.462   0.923   0.203
   34SOL    HW2  477   1.573   1.017   0.276
   35SOL     OW  478   1.187   1.792   1.616
   35SOL    HW1  479   1.211   1.852   1.540
   35SOL    HW2  480   1.194   1.697   1.586
   36SOL     OW  481   0.317   0.251   1.801
   36SOL    HW1  482   0.388   0.322   1.807
   36SOL    HW2  483   0.229   0.290   1.829
   37SOL     OW  484   1.466   1.417   0.953
   37SOL    HW1  485   1.407   1.423   1.033
   37SOL    HW2  486   1.451   1.329   0.907
   38SOL     OW  487   1.667   1.714   0.572
   38SOL    HW1  488   1.626   1.691   0.484
   38SOL    HW2  489   1.649   1.640   0.637
   39SOL     OW  490   0.598   0.729   0.270
   39SOL    HW1  491   0.622   0.798   0.202
   39SOL    HW2  492   0.520   0.762   0.324
   40SOL     OW  493   1.281   0.345   0.944
   40SOL    HW1  494   1.195   0.295   0.931
   40SOL    HW2  495   1.343   0.291   1.000
   41SOL     OW  496   1.576   1.662   0.307
   41SOL    HW1  497   1.665   1.708   0.310
   41SOL    HW2  498   1.555   1.638   0.212
   42SOL     OW  499   0.807   0.605   1.465
   42SOL    HW1  500   0.760   0.602   1.554
   42SOL    HW2  501   0.756   0.550   1.399
   43SOL     OW  502   1.394   0.469   1.674
   43SOL    HW1  503   1.374   0.512   1.762
   43SOL    HW2  504   1.472   0.407   1.683
   44SOL     OW  505   0.973   0.890   1.572
   44SOL    HW1  506   1.019   0.806   1.543
   44SOL    HW2  507   0.917   0.924   1.497
   45SOL     OW  508   0.991   0.410   1.242
   45SOL    HW1  509   0.914   0.444   1.296
   45SOL    HW2  510   0.957   0.359   1.163
   46SOL     OW  511   1.041   0.701   0.429
   46SOL    HW1  512   1.067   0.697   0.525
   46SOL    HW2  513   0.956   0.650   0.415
   47SOL     OW  514   0.076   0.811   0.789
   47SOL    HW1  515   0.175   0.799   0.798
   47SOL    HW2  516   0.052   0.906   0.810
   48SOL     OW  517   0.130   1.821   1.571
   48SOL    HW1  518   0.120   1.806   1.670
   48SOL    HW2  519   0.044   1.857   1.535
   49SOL     OW  520   0.865   0.348   0.195
   49SOL    HW1  521   0.924   0.411   0.146
   49SOL    HW2  522   0.884   0.254   0.166
   50SOL     OW  523   1.719   0.585   1.831
   50SOL    HW1  524   1.693   0.674   1.795
   50SOL    HW2  525   1.717   0.517   1.758
   51SOL     OW  526   1.362   1.144   0.545
   51SOL    HW1  527   1.445   1.115   0.497
   51SOL    HW2  528   1.313   1.211   0.489
   52SOL     OW  529   0.550   0.196   0.885
   52SOL    HW1  530   0.545   0.191   0.985
   52SOL    HW2  531   0.552   0.292   0.856
   53SOL     OW  532   1.008   1.456   0.477
   53SOL    HW1  533   0.962   1.528   0.425
   53SOL    HW2  534   1.004   1.476   0.575
   54SOL     OW  535   0.351   1.801   0.853
   54SOL    HW1  536   0.401   1.715   0.859
   54SOL    HW2  537   0.416   1.878   0.850
   55SOL     OW  538   1.795   1.066   0.873
   55SOL    HW1  539   1.733   1.051   0.797
   55SOL    HW2  540   1.743   1.077   0.958
   56SOL     OW  541   1.227   1.550   1.506
   56SOL    HW1  542   1.233   1.473   1.570
   56SOL    HW2  543   1.175   1.524   1.426
   57SOL     OW  544   0.321   0.943   0.242
   57SOL    HW1  545   0.403   0.982   0.200
   57SOL    HW2  546   0.294   0.861   0.193
   58SOL     OW  547   1.458   0.735   0.728
   58SOL    HW1  548   1.453   0.670   0.803
   58SOL    HW2  549   1.538   0.794   0.741
   59SOL     OW  550   0.461   1.266   1.727
   59SOL    HW1  551   0.411   1.267   1.641
   59SOL    HW2  552   0.398   1.248   1.803
   60SOL     OW  553   1.111   1.776   0.237
   60SOL    HW1  554   1.051   1.714   0.287
   60SOL    HW2  555   1.142   1.732   0.152
   61SOL     OW  556   0.202   0.285   1.498
   61SOL    HW1  557   0.122   0.345   1.485
   61SOL    HW2  558   0.192   0.236   1.584
   62SOL     OW  559   1.632   1.377   0.081
   62SOL    HW1  560   1.600   1.471   0.071
   62SOL    HW2  561   1.556   1.314   0.069
   63SOL     OW  562   0.464   1.743   0.323
   63SOL    HW1  563   0.497   1.782   0.409
   63SOL    HW2  564   0.540   1.736   0.258
   64SOL     OW  565   1.400   0.107   0.426
   64SOL    HW1  566   1.376   0.070   0.336
   64SOL    HW2  567   1.499   0.123   0.430
   65SOL     OW  568   0.249   1.785   1.241
   65SOL    HW1  569   0.306   1.720   1.291
   65SOL    HW2  570   0.233   1.752   1.148
   66SOL     OW  571   0.940   1.698   0.904
   66SOL    HW1  572   1.020   1.641   0.925
   66SOL    HW2  573   0.891   1.658   0.827
   67SOL     OW  574   0.382   0.700   0.480
   67SOL    HW1  575   0.427   0.610   0.477
   67SOL    HW2  576   0.288   0.689   0.513
   68SOL     OW  577   1.547   0.222   1.729
   68SOL    HW1  578   1.542   0.259   1.821
   68SOL    HW2  579   1.475   0.153   1.717
   69SOL     OW  580   0.614   0.122   0.117
   69SOL    HW1  581   0.712   0.100   0.124
   69SOL    HW2  582   0.583   0.105   0.024
   70SOL     OW  583   0.781   0.264   1.749
   70SOL    HW1  584   0.848   0.203   1.792
   70SOL    HW2  585   0.708   0.283   1.814
   71SOL     OW  586   0.888   1.514   1.195
   71SOL    HW1  587   0.865   1.489   1.101
   71SOL    HW2  588   0.949   1.445   1.234
   72SOL     OW  589   1.351   0.590   1.433
   72SOL    HW1  590   1.379   0.547   1.518
   72SOL    HW2  591   1.376   0.686   1.434
   73SOL     OW  592   0.803   1.402   0.924
   73SOL    HW1  593   0.893   1.416   0.882
   73SOL    HW2  594   0.732   1.404   0.853
   74SOL     OW  595   0.922   0.503   0.899
   74SOL    HW1  596   0.897   0.494   0.803
   74SOL    HW2  597   0.970   0.421   0.930
   75SOL     OW  598   0.539   0.064   0.512
   75SOL    HW1  599   0.458   0.065   0.570
   75SOL    HW2  600   0.542   0.147   0.457
   76SOL     OW  601   1.434   1.188   0.041
   76SOL    HW1  602   1.466   1.112   0.098
   76SOL    HW2  603   1.342   1.215   0.071
   77SOL     OW  604   0.297   0.035   0.171
   77SOL    HW1  605   0.346   0.119   0.150
   77SOL    HW2  606   0.359  -0.030   0.216
   78SOL     OW  607   0.935   0.236   0.480
   78SOL    HW1  608   0.887   0.277   0.402
   78SOL    HW2  609   1.034   0.234   0.461
   79SOL     OW  610   1.076   0.683   1.464
   79SOL    HW1  611   0.996   0.622   1.467
   79SOL    HW2  612   1.157   0.630   1.440
   80SOL     OW  613   1.227   1.570   0.793
   80SOL    HW1  614   1.248   1.644   0.728
   80SOL    HW2  615   1.295   1.570   0.866
   81SOL     OW  616   0.459   1.152   0.741
   81SOL    HW1  617   0.388   1.125   0.806
   81SOL    HW2  618   0.433   1.124   0.648
   82SOL     OW  619   1.271   1.797   0.591
   82SOL    HW1  620   1.315   1.861   0.527
   82SOL    HW2  621   1.221   1.849   0.661
   83SOL     OW  622   1.032   0.549   0.016
   83SOL    HW1  623   0.991   0.631  -0.023
   83SOL    HW2  624   1.096   0.575   0.089
   84SOL     OW  625   0.078   0.556   1.386
   84SOL    HW1  626   0.170   0.555   1.345
   84SOL    HW2  627   0.072   0.630   1.453
   85SOL     OW  628   0.561   0.222   1.147
   85SOL    HW1  629   0.599   0.138   1.184
   85SOL    HW2  630   0.473   0.241   1.191
   86SOL     OW  631   0.866   0.454   0.642
   86SOL    HW1  632   0.834   0.526   0.580
   86SOL    HW2  633   0.890   0.373   0.589
   87SOL     OW  634   1.017   0.039   0.753
   87SOL    HW1  635   0.945   0.044   0.684
   87SOL    HW2  636   0.993  -0.030   0.822
   88SOL     OW  637   1.429   1.173   0.867
   88SOL    HW1  638   1.374   1.089   0.860
   88SOL    HW2  639   1.455   1.202   0.775
   89SOL     OW  640   1.466   0.590   0.992
   89SOL    HW1  641   1.436   0.495   0.999
   89SOL    HW2  642   1.539   0.606   1.058
   90SOL     OW  643   1.857   0.833   0.377
   90SOL    HW1  644   1.899   0.769   0.441
   90SOL    HW2  645   1.819   0.782   0.299
   91SOL     OW  646   0.488   1.385   0.174
   91SOL    HW1  647   0.401   1.370   0.221
   91SOL    HW2  648   0.471   1.411   0.079
   92SOL     OW  649   1.664   1.280   0.657
   92SOL    HW1  650   1.763   1.288   0.671
   92SOL    HW2  651   1.619   1.364   0.688
   93SOL     OW  652   1.390   0.575   0.078
   93SOL    HW1  653   1.336   0.554   0.159
   93SOL    HW2  654   1.481   0.534   0.087
   94SOL     OW  655   0.527   0.256   0.328
   94SOL    HW1  656   0.554   0.197   0.253
   94SOL    HW2  657   0.527   0.351   0.297
   95SOL     OW  658   1.754   1.223   1.588
   95SOL    HW1  659   1.845   1.184   1.575
   95SOL    HW2  660   1.762   1.319   1.612
   96SOL     OW  661   1.064   1.347   1.340
   96SOL    HW1  662   0.984   1.324   1.395
   96SOL    HW2  663   1.147   1.321   1.389
   97SOL     OW  664   1.592   1.629   1.625
   97SOL    HW1  665   1.619   1.663   1.535
   97SOL    HW2  666   1.671   1.591   1.671
   98SOL     OW  667   1.111   1.195   1.100
   98SOL    HW1  668   1.071   1.239   1.181
   98SOL    HW2  669   1.070   1.232   1.017
   99SOL     OW  670   1.638   1.099   1.079
   99SOL    HW1  671   1.643   1.180   1.138
   99SOL    HW2  672   1.552   1.101   1.028
  100SOL     OW  673   0.915   0.089   1.402
  100SOL    HW1  674   0.940   0.069   1.307
  100SOL    HW2  675   0.987   0.145   1.444
  101SOL     OW  676   0.980   1.116   1.719
  101SOL    HW1  677   0.881   1.122   1.729
  101SOL    HW2  678   1.003   1.036   1.663
  102SOL     OW  679   0.705   1.050   0.368
  102SOL    HW1  680   0.691   1.057   0.467
  102SOL    HW2  681   0.789   0.999   0.350
  103SOL     OW  682   0.410   0.813   1.251
  103SOL    HW1  683   0.496   0.825   1.301
  103SOL    HW2  684   0.368   0.726   1.278
  104SOL     OW  685   1.274   0.386   1.262
  104SOL    HW1  686   1.295   0.460   1.326
  104SOL    HW2  687   1.185   0.403   1.219
  105SOL     OW  688   0.064   1.564   1.331
  105SOL    HW1  689   0.018   1.646   1.297
  105SOL    HW2  690   0.162   1.583   1.340
  106SOL     OW  691   0.367   1.100   0.501
  106SOL    HW1  692   0.360   1.183   0.445
  106SOL    HW2  693   0.371   1.020   0.441
  107SOL     OW  694   0.566   0.537   0.865
  107SOL    HW1  695   0.578   0.603   0.791
  107SOL    HW2  696   0.612   0.571   0.948
  108SOL     OW  697   1.252   1.348   0.388
  108SOL    HW1  698   1.302   1.425   0.428
  108SOL    HW2  699   1.157   1.350   0.420
  109SOL     OW  700   1.272   1.445   1.142
  109SOL    HW1  701   1.319   1.458   1.229
  109SOL    HW2  702   1.206   1.371   1.151
  110SOL     OW  703   1.582   0.639   0.472
  110SOL    HW1  704   1.551   0.700   0.545
  110SOL    HW2  705   1.632   0.691   0.403
  111SOL     OW  706   0.354   1.510   1.329
  111SOL    HW1  707   0.333   1.466   1.242
  111SOL    HW2  708   0.451   1.536   1.332
  112SOL     OW  709   0.402   0.751   1.598
  112SOL    HW1  710   0.470   0.806   1.551
  112SOL    HW2  711   0.442   0.663   1.625
  113SOL     OW  712   1.587   0.779   1.670
  113SOL    HW1  713   1.495   0.817   1.665
  113SOL    HW2  714   1.647   0.826   1.605
  114SOL     OW  715   1.013   0.105   1.770
  114SOL    HW1  716   1.019   0.190   1.718
  114SOL    HW2  717   1.045   0.029   1.713
  115SOL     OW  718   0.504   0.050   1.740
  115SOL    HW1  719   0.462  -0.007   1.670
  115SOL    HW2  720   0.438   0.119   1.772
  116SOL     OW  721   0.573   0.870   1.029
  116SOL    HW1  722   0.617   0.959   1.020
  116SOL    HW2  723   0.510   0.870   1.106
  117SOL     OW  724   1.360   0.862   1.045
  117SOL    HW1  725   1.285   0.862   0.979
  117SOL    HW2  726   1.397   0.770   1.054
  118SOL     OW  727   1.209   0.525   0.275
  118SOL    HW1  728   1.222   0.441   0.329
  118SOL    HW2  729   1.180   0.599   0.335
  119SOL     OW  730   0.307   0.213   1.231
  119SOL    HW1  731   0.284   0.250   1.321
  119SOL    HW2  732   0.277   0.118   1.225
  120SOL     OW  733   0.037   1.310   1.282
  120SOL    HW1  734   0.090   1.261   1.350
  120SOL    HW2  735   0.059   1.408   1.287
  121SOL     OW  736   0.732   0.634   1.064
  121SOL    HW1  737   0.791   0.608   0.988
  121SOL    HW2  738   0.704   0.730   1.053
  122SOL     OW  739   1.728   0.935   1.854
  122SOL    HW1  740   1.682   0.928   1.765
  122SOL    HW2  741   1.666   0.979   1.920
  123SOL     OW  742   0.307   0.063   0.618
  123SOL    HW1  743   0.296   0.157   0.651
  123SOL    HW2  744   0.302   0.000   0.695
  124SOL     OW  745   1.622   0.367   0.374
  124SOL    HW1  746   1.624   0.291   0.438
  124SOL    HW2  747   1.574   0.444   0.414
  125SOL     OW  748   1.023   0.766   0.966
  125SOL    HW1  749   1.038   0.787   1.062
  125SOL    HW2  750   0.993   0.671   0.957
  126SOL     OW  751   0.980   1.573   1.700
  126SOL    HW1  752   0.960   1.617   1.612
  126SOL    HW2  753   1.019   1.482   1.684
  127SOL     OW  754   1.859   1.518   1.605
  127SOL    HW1  755   1.873   1.545   1.510
  127SOL    HW2  756   1.942   1.540   1.658
  128SOL     OW  757   0.350   0.898   1.804
  128SOL    HW1  758   0.426   0.942   1.852
  128SOL    HW2  759   0.385   0.851   1.722
  129SOL     OW  760   1.540   0.274   0.125
  129SOL    HW1  761   1.479   0.199   0.148
  129SOL    HW2  762   1.562   0.326   0.208
  130SOL     OW  763   1.303   0.838   0.042
  130SOL    HW1  764   1.337   0.745   0.057
  130SOL    HW2  765   1.321   0.865  -0.053
  131SOL     OW  766   1.068   1.333   0.849
  131SOL    HW1  767   1.075   1.249   0.794
  131SOL    HW2  768   1.130   1.402   0.813
  132SOL     OW  769   0.319   0.810   0.949
  132SOL    HW1  770   0.412   0.846   0.954
  132SOL    HW2  771   0.313   0.725   1.001
  133SOL     OW  772   0.339   0.509   1.006
  133SOL    HW1  773   0.287   0.426   0.989
  133SOL    HW2  774   0.416   0.514   0.942
  134SOL     OW  775   1.138   0.380   1.678
  134SOL    HW1  776   1.093   0.443   1.742
  134SOL    HW2  777   1.231   0.411   1.661
  135SOL     OW  778   1.160   0.207   1.477
  135SOL    HW1  779   1.160   0.271   1.554
  135SOL    HW2  780   1.188   0.255   1.394
  136SOL     OW  781   0.008   1.326   0.200
  136SOL    HW1  782  -0.085   1.347   0.169
  136SOL    HW2  783   0.018   1.227   0.213
  137SOL     OW  784   0.088   1.801   0.927
  137SOL    HW1  785   0.046   1.715   0.900
  137SOL    HW2  786   0.182   1.804   0.893
  138SOL     OW  787   0.504   1.568   0.910
  138SOL    HW1  788   0.570   1.642   0.919
  138SOL    HW2  789   0.548   1.489   0.868
  139SOL     OW  790   1.002   0.796   1.238
  139SOL    HW1  791   1.043   0.764   1.324
  139SOL    HW2  792   0.906   0.769   1.235
  140SOL     OW  793   0.040   0.544   1.114
  140SOL    HW1  794   0.125   0.511   1.073
  140SOL    HW2  795   0.053   0.559   1.212
  141SOL     OW  796   0.189   0.520   1.722
  141SOL    HW1  797   0.248   0.480   1.652
  141SOL    HW2  798   0.131   0.591   1.681
  142SOL     OW  799   1.369   0.950   1.660
  142SOL    HW1  800   1.408   1.039   1.680
  142SOL    HW2  801   1.379   0.930   1.563
  143SOL     OW  802   0.815   0.572   0.325
  143SOL    HW1  803   0.822   0.483   0.279
  143SOL    HW2  804   0.721   0.606   0.317
  144SOL     OW  805   1.657   0.604   1.206
  144SOL    HW1  806   1.619   0.535   1.268
  144SOL    HW2  807   1.739   0.568   1.162
  145SOL     OW  808   0.252   1.564   1.744
  145SOL    HW1  809   0.222   1.621   1.820
  145SOL    HW2  810   0.245   1.467   1.770
  146SOL     OW  811   0.671   0.464   1.269
  146SOL    HW1  812   0.637   0.375   1.239
  146SOL    HW2  813   0.697   0.518   1.189
  147SOL     OW  814   0.930   1.678   1.465
  147SOL    HW1  815   0.906   1.660   1.370
  147SOL    HW2  816   0.960   1.772   1.475
  148SOL     OW  817   0.473   0.500   0.191
  148SOL    HW1  818   0.534   0.580   0.195
  148SOL    HW2  819   0.378   0.531   0.198
  149SOL     OW  820   0.159   1.137   1.466
  149SOL    HW1  821   0.181   1.076   1.542
  149SOL    HW2  822   0.169   1.088   1.380
  150SOL     OW  823   1.347   1.059   1.234
  150SOL    HW1  824   1.371   0.996   1.160
  150SOL    HW2  825   1.257   1.099   1.216
  151SOL     OW  826   1.302   0.855   0.309
  151SOL    HW1  827   1.216   0.824   0.351
  151SOL    HW2  828   1.298   0.841   0.210
  152SOL     OW  829   1.759   1.747   1.154
  152SOL    HW1  830   1.820   1.777   1.081
  152SOL    HW2  831   1.721   1.658   1.132
  153SOL     OW  832   1.252   1.731   1.128
  153SOL    HW1  833   1.336   1.736   1.074
  153SOL    HW2  834   1.229   1.635   1.146
  154SOL     OW  835   0.083   1.258   1.022
  154SOL    HW1  836   0.078   1.257   1.122
  154SOL    HW2  837   0.000   1.217   0.984
  155SOL     OW  838   0.688   1.662   1.716
  155SOL    HW1  839   0.632   1.743   1.725
  155SOL    HW2  840   0.740   1.666   1.630
  156SOL     OW  841   0.903   0.086   0.133
  156SOL    HW1  842   0.954   0.087   0.047
  156SOL    HW2  843   0.959   0.044   0.204
  157SOL     OW  844   1.726   0.135   0.523
  157SOL    HW1  845   1.799   0.118   0.456
  157SOL    HW2  846   1.695   0.048   0.561
  158SOL     OW  847   1.388   1.573   0.477
  158SOL    HW1  848   1.455   1.585   0.403
  158SOL    HW2  849   1.348   1.662   0.500
  159SOL     OW  850   0.130   1.794   1.851
  159SOL    HW1  851   0.089   1.720   1.904
  159SOL    HW2  852   0.194   1.845   1.909
  160SOL     OW  853   1.280   0.927   0.672
  160SOL    HW1  854   1.340   0.846   0.674
  160SOL    HW2  855   1.320   0.996   0.612
  161SOL     OW  856   0.830   1.273   1.422
  161SOL    HW1  857   0.825   1.306   1.517
  161SOL    HW2  858   0.744   1.292   1.376
  162SOL     OW  859   0.672   1.616   0.154
  162SOL    HW1  860   0.681   1.626   0.055
  162SOL    HW2  861   0.632   1.527   0.175
  163SOL     OW  862   1.650   1.720   1.394
  163SOL    HW1  863   1.703   1.730   1.310
  163SOL    HW2  864   1.623   1.810   1.428
  164SOL     OW  865   1.841   0.175   0.963
  164SOL    HW1  866   1.880   0.090   0.927
  164SOL    HW2  867   1.743   0.177   0.944
  165SOL     OW  868   0.263   0.326   0.720
  165SOL    HW1  869   0.184   0.377   0.686
  165SOL    HW2  870   0.254   0.311   0.818
  166SOL     OW  871   1.194   1.612   0.031
  166SOL    HW1  872   1.200   1.519   0.068
  166SOL    HW2  873   1.135   1.612  -0.049
  167SOL     OW  874   0.822   1.002   1.372
  167SOL    HW1  875   0.862   1.001   1.280
  167SOL    HW2  876   0.832   1.094   1.412
  168SOL     OW  877   0.916   0.910   0.291
  168SOL    HW1  878   0.979   0.948   0.223
  168SOL    HW2  879   0.956   0.827   0.330
  169SOL     OW  880   1.504   1.607   0.044
  169SOL    HW1  881   1.412   1.644   0.051
  169SOL    HW2  882   1.542   1.627  -0.046
  170SOL     OW  883   0.372   1.288   1.490
  170SOL    HW1  884   0.359   1.381   1.456
  170SOL    HW2  885   0.288   1.236   1.477
  171SOL     OW  886   1.614   1.292   1.289
  171SOL    HW1  887   1.674   1.295   1.369
  171SOL    HW2  888   1.539   1.356   1.302
  172SOL     OW  889   1.039   1.098   0.696
  172SOL    HW1  890   0.969   1.051   0.750
  172SOL    HW2  891   1.098   1.030   0.653
  173SOL     OW  892   1.014   0.236   0.971
  173SOL    HW1  893   1.006   0.200   0.878
  173SOL    HW2  894   1.012   0.160   1.036
  174SOL     OW  895   0.590   1.487   0.491
  174SOL    HW1  896   0.632   1.429   0.421
  174SOL    HW2  897   0.546   1.566   0.447
  175SOL     OW  898   1.709   0.385   1.381
  175SOL    HW1  899   1.782   0.454   1.385
  175SOL    HW2  900   1.737   0.310   1.322
  176SOL     OW  901   0.255   1.348   0.290
  176SOL    HW1  902   0.159   1.349   0.263
  176SOL    HW2  903   0.267   1.401   0.374
  177SOL     OW  904   0.105   1.013   1.726
  177SOL    HW1  905   0.028   0.980   1.780
  177SOL    HW2  906   0.190   0.983   1.768
  178SOL     OW  907   0.672   0.203   1.489
  178SOL    HW1  908   0.762   0.187   1.449
  178SOL    HW2  909   0.680   0.208   1.588
  179SOL     OW  910   0.075   0.345   0.033
  179SOL    HW1  911  -0.017   0.317   0.004
  179SOL    HW2  912   0.106   0.422  -0.023
  180SOL     OW  913   1.440   0.856   1.398
  180SOL    HW1  914   1.383   0.908   1.335
  180SOL    HW2  915   1.536   0.868   1.374
  181SOL     OW  916   0.072   0.166   0.318
  181SOL    HW1  917   0.055   0.249   0.264
  181SOL    HW2  918   0.162   0.129   0.296
  182SOL     OW  919   1.183   1.335   0.119
  182SOL    HW1  920   1.084   1.324   0.121
  182SOL    HW2  921   1.217   1.350   0.212
  183SOL     OW  922   0.613   0.842   1.431
  183SOL    HW1  923   0.669   0.923   1.414
  183SOL    HW2  924   0.672   0.762   1.434
  184SOL     OW  925   1.493   1.767   0.959
  184SOL    HW1  926   1.526   1.831   0.890
  184SOL    HW2  927   1.559   1.761   1.034
  185SOL     OW  928   0.716   0.565   1.708
  185SOL    HW1  929   0.735   0.630   1.782
  185SOL    HW2  930   0.776   0.485   1.717
  186SOL     OW  931   1.450   1.220   1.633
  186SOL    HW1  932   1.441   1.210   1.732
  186SOL    HW2  933   1.546   1.213   1.607
  187SOL     OW  934   0.390   1.741   1.560
  187SOL    HW1  935   0.299   1.782   1.558
  187SOL    HW2  936   0.383   1.647   1.592
  188SOL     OW  937   1.674   0.883   1.254
  188SOL    HW1  938   1.647   0.794   1.217
  188SOL    HW2  939   1.675   0.951   1.181
  189SOL     OW  940   1.225   0.325   0.449
  189SOL    HW1  941   1.290   0.251   0.438
  189SOL    HW2  942   1.245   0.375   0.533
  190SOL     OW  943   0.594   0.745   0.652
  190SOL    HW1  944   0.644   0.830   0.633
  190SOL    HW2  945   0.506   0.747   0.604
  191SOL     OW  946   1.777   0.342   1.642
  191SOL    HW1  947   1.760   0.373   1.548
  191SOL    HW2  948   1.693   0.305   1.680
  192SOL     OW  949   1.730   0.934   1.517
  192SOL    HW1  950   1.768   1.025   1.532
  192SOL    HW2  951   1.722   0.917   1.418
  193SOL     OW  952   0.859   1.374   0.016
  193SOL    HW1  953   0.813   1.389   0.104
  193SOL    HW2  954   0.903   1.459  -0.014
  194SOL     OW  955   0.661   1.790   0.953
  194SOL    HW1  956   0.615   1.878   0.940
  194SOL    HW2  957   0.760   1.802   0.946
  195SOL     OW  958   0.859   0.956   0.861
  195SOL    HW1  959   0.913   0.887   0.909
  195SOL    HW2  960   0.827   1.025   0.927
  196SOL     OW  961   1.083   0.984   0.087
  196SOL    HW1  962   1.060   1.037   0.005
  196SOL    HW2  963   1.164   0.928   0.068
  197SOL     OW  964   1.861   1.569   0.851
  197SOL    HW1  965   1.790   1.557   0.781
  197SOL    HW2  966   1.862   1.490   0.911
  198SOL     OW  967   0.221   1.314   1.844
  198SOL    HW1  968   0.156   1.241   1.823
  198SOL    HW2  969   0.225   1.328   1.942
  199SOL     OW  970   0.079   1.240   0.653
  199SOL    HW1  971   0.078   1.193   0.741
  199SOL    HW2  972   0.161   1.212   0.602
  200SOL     OW  973   0.672   1.391   1.624
  200SOL    HW1  974   0.594   1.341   1.662
  200SOL    HW2  975   0.669   1.486   1.655
  201SOL     OW  976   1.824   0.192   1.227
  201SOL    HW1  977   1.820   0.102   1.271
  201SOL    HW2  978   1.827   0.181   1.128
  202SOL     OW  979   0.428   0.424   0.520
  202SOL    HW1  980   0.458   0.352   0.458
  202SOL    HW2  981   0.389   0.384   0.603
  203SOL     OW  982   1.705   1.487   1.104
  203SOL    HW1  983   1.612   1.462   1.077
  203SOL    HW2  984   1.731   1.437   1.186
  204SOL     OW  985   0.317   0.547   1.280
  204SOL    HW1  986   0.355   0.488   1.352
  204SOL    HW2  987   0.357   0.521   1.192
  205SOL     OW  988   0.812   1.586   0.687
  205SOL    HW1  989   0.844   1.596   0.593
  205SOL    HW2  990   0.733   1.524   0.689
  206SOL     OW  991   1.424   0.214   1.112
  206SOL    HW1  992   1.476   0.149   1.167
  206SOL    HW2  993   1.375   0.277   1.173
  207SOL     OW  994   1.001   0.034   1.154
  207SOL    HW1  995   0.938  -0.038   1.123
  207SOL    HW2  996   1.094  -0.002   1.154
  208SOL     OW  997   0.770   1.330   0.301
  208SOL    HW1  998   0.724   1.243   0.318
  208SOL    HW2  999   0.861   1.327   0.342
  209SOL     OW 1000   0.618   1.567   1.284
  209SOL    HW1 1001   0.613   1.649   1.341
  209SOL    HW2 1002   0.707   1.564   1.239
  210SOL     OW 1003   1.352   0.052   0.168
  210SOL    HW1 1004   1.387   0.011   0.084
  210SOL    HW2 1005   1.262   0.014   0.188
  211SOL     OW 1006   1.300   0.453   0.691
  211SOL    HW1 1007   1.241   0.533   0.695
  211SOL    HW2 1008   1.315   0.418   0.784
  212SOL     OW 1009   1.593   0.221   0.882
  212SOL    HW1 1010   1.509   0.220   0.936
  212SOL    HW2 1011   1.595   0.304   0.826
  213SOL     OW 1012   0.039   1.077   0.300
  213SOL    HW1 1013   0.138   1.066   0.291
  213SOL    HW2 1014  -0.001   0.991   0.332
  214SOL     OW 1015   0.875   1.646   0.337
  214SOL    HW1 1016   0.798   1.611   0.283
  214SOL    HW2 1017   0.843   1.717   0.399
  215SOL     OW 1018   0.230   0.628   1.975
  215SOL    HW1 1019   0.137   0.626   2.012
  215SOL    HW2 1020   0.231   0.589   1.883
  216SOL     OW 1021   0.225   0.275   2.858
  216SOL    HW1 1022   0.260   0.258   2.950
  216SOL    HW2 1023   0.137   0.230   2.846
  217SOL     OW 1024   0.019   0.368   2.509
  217SOL    HW1 1025  -0.063   0.411   2.548
  217SOL    HW2 1026  -0.009   0.295   2.446
  218SOL     OW 1027   0.569   1.275   3.027
  218SOL    HW1 1028   0.476   1.268   2.990
  218SOL    HW2 1029   0.580   1.364   3.071
  219SOL     OW 1030   1.555   1.511   2.565
  219SOL    HW1 1031   1.498   1.495   2.646
  219SOL    HW2 1032   1.496   1.521   2.485
  220SOL     OW 1033   1.135   0.703   2.579
  220SOL    HW1 1034   1.192   0.781   2.554
  220SOL    HW2 1035   1.075   0.729   2.655
  221SOL     OW 1036   1.755   0.607   2.093
  221SOL    HW1 1037   1.743   0.594   1.994
  221SOL    HW2 1038   1.725   0.526   2.142
  222SOL     OW 1039   0.768   1.144   2.885
  222SOL    HW1 1040   0.690   1.161   2.945
  222SOL    HW2 1041   0.802   1.231   2.849
  223SOL     OW 1042   0.850   0.798   3.685
  223SOL    HW1 1043   0.846   0.874   3.750
  223SOL    HW2 1044   0.872   0.834   3.594
  224SOL     OW 1045   0.685   1.012   2.527
  224SOL    HW1 1046   0.754   0.996   2.597
  224SOL    HW2 1047   0.612   1.069   2.565
  225SOL     OW 1048   0.686   1.161   3.665
  225SOL    HW1 1049   0.746   1.240   3.679
  225SOL    HW2 1050   0.600   1.192   3.624
  226SOL     OW 1051   0.335   1.435   2.923
  226SOL    HW1 1052   0.257   1.404   2.870
  226SOL    HW2 1053   0.393   1.493   2.866
  227SOL     OW 1054   1.460   1.505   3.201
  227SOL    HW1 1055   1.484   1.599   3.227
  227SOL    HW2 1056   1.444   1.451   3.283
  228SOL     OW 1057   0.438   0.392   3.361
  228SOL    HW1 1058   0.520   0.336   3.370
  228SOL    HW2 1059   0.357   0.334   3.365
  229SOL     OW 1060   1.603   0.447   2.599
  229SOL    HW1 1061   1.529   0.493   2.549
  229SOL    HW2 1062   1.654   0.515   2.652
  230SOL     OW 1063   0.231   1.713   2.345
  230SOL    HW1 1064   0.265   1.790   2.399
  230SOL    HW2 1065   0.275   1.713   2.255
  231SOL     OW 1066   1.127   1.341   3.552
  231SOL    HW1 1067   1.174   1.341   3.640
  231SOL    HW2 1068   1.079   1.254   3.541
  232SOL     OW 1069   0.230   1.434   2.400
  232SOL    HW1 1070   0.204   1.530   2.400
  232SOL    HW2 1071   0.159   1.380   2.445
  233SOL     OW 1072   0.240   1.091   2.748
  233SOL    HW1 1073   0.254   1.007   2.800
  233SOL    HW2 1074   0.185   1.155   2.803
  234SOL     OW 1075   0.620   1.786   3.301
  234SOL    HW1 1076   0.528   1.769   3.336
  234SOL    HW2 1077   0.648   1.878   3.327
  235SOL     OW 1078   0.606   0.964   1.985
  235SOL    HW1 1079   0.613   1.048   1.931
  235SOL    HW2 1080   0.652   0.977   2.073
  236SOL     OW 1081   1.594   0.114   3.342
  236SOL    HW1 1082   1.576   0.181   3.270
  236SOL    HW2 1083   1.591   0.160   3.431
  237SOL     OW 1084   0.122   0.643   2.425
  237SOL    HW1 1085   0.077   0.555   2.442
  237SOL    HW2 1086   0.121   0.697   2.509
  238SOL     OW 1087   1.842   1.767   2.221
  238SOL    HW1 1088   1.896   1.738   2.301
  238SOL    HW2 1089   1.872   1.857   2.192
  239SOL     OW 1090   0.027   1.596   1.979
  239SOL    HW1 1091   0.008   1.500   2.000
  239SOL    HW2 1092  -0.006   1.654   2.054
  240SOL     OW 1093   1.689   0.922   2.474
  240SOL    HW1 1094   1.784   0.893   2.482
  240SOL    HW2 1095   1.681   0.987   2.399
  241SOL     OW 1096   1.641   1.108   2.294
  241SOL    HW1 1097   1.727   1.110   2.242
  241SOL    HW2 1098   1.655   1.155   2.382
  242SOL     OW 1099   0.113   0.737   3.459
  242SOL    HW1 1100   0.201   0.724   3.504
  242SOL    HW2 1101   0.100   0.834   3.437
  243SOL     OW 1102   0.613   1.365   2.588
  243SOL    HW1 1103   0.564   1.278   2.597
  243SOL    HW2 1104   0.590   1.408   2.501
  244SOL     OW 1105   1.293   1.228   3.285
  244SOL    HW1 1106   1.330   1.155   3.227
  244SOL    HW2 1107   1.345   1.233   3.370
  245SOL     OW 1108   0.809   0.004   2.364
  245SOL    HW1 1109   0.849   0.095   2.355
  245SOL    HW2 1110   0.709   0.012   2.370
  246SOL     OW 1111   0.197   0.976   3.126
  246SOL    HW1 1112   0.286   0.931   3.112
  246SOL    HW2 1113   0.124   0.911   3.107
  247SOL     OW 1114   1.525   0.999   2.052
  247SOL    HW1 1115   1.462   0.923   2.065
  247SOL    HW2 1116   1.573   1.017   2.138
  248SOL     OW 1117   1.187   1.792   3.478
  248SOL    HW1 1118   1.211   1.852   3.402
  248SOL    HW2 1119   1.194   1.697   3.448
  249SOL     OW 1120   0.317   0.251   3.663
  249SOL    HW1 1121   0.388   0.322   3.669
  249SOL    HW2 1122   0.229   0.290   3.691
  250SOL     OW 1123   1.466   1.417   2.815
  250SOL    HW1 1124   1.407   1.423   2.895
  250SOL    HW2 1125   1.451   1.329   2.769
  251SOL     OW 1126   1.667   1.714   2.434
  251SOL    HW1 1127   1.626   1.691   2.346
  251SOL    HW2 1128   1.649   1.640   2.499
  252SOL     OW 1129   0.598   0.729   2.132
  252SOL    HW1 1130   0.622   0.798   2.064
  252SOL    HW2 1131   0.520   0.762   2.186
  253SOL     OW 1132   1.281   0.345   2.806
  253SOL    HW1 1133   1.195   0.295   2.793
  253SOL    HW2 1134   1.343   0.291   2.862
  254SOL     OW 1135   1.576   1.662   2.169
  254SOL    HW1 1136   1.665   1.708   2.172
  254SOL    HW2 1137   1.555   1.638   2.074
  255SOL     OW 1138   0.807   0.605   3.327
  255SOL    HW1 1139   0.760   0.602   3.416
  255SOL    HW2 1140   0.756   0.550   3.261
  256SOL     OW 1141   1.394   0.469   3.536
  256SOL    HW1 1142   1.374   0.512   3.624
  256SOL    HW2 1143   1.472   0.407   3.545
  257SOL     OW 1144   0.973   0.890   3.434
  257SOL    HW1 1145   1.019   0.806   3.405
  257SOL    HW2 1146   0.917   0.924   3.359
  258SOL     OW 1147   0.991   0.410   3.104
  258SOL    HW1 1148   0.914   0.444   3.158
  258SOL    HW2 1149   0.957   0.359   3.025
  259SOL     OW 1150   1.041   0.701   2.291
  259SOL    HW1 1151   1.067   0.697   2.387
  259SOL    HW2 1152   0.956   0.650   2.277
  260SOL     OW 1153   0.076   0.811   2.651
  260SOL    HW1 1154   0.175   0.799   2.660
  260SOL    HW2 1155   0.052   0.906   2.672
  261SOL     OW 1156   0.130   1.821   3.433
  261SOL    HW1 1157   0.120   1.806   3.532
  261SOL    HW2 1158   0.044   1.857   3.397
  262SOL     OW 1159   0.865   0.348   2.057
  262SOL    HW1 1160   0.924   0.411   2.008
  262SOL    HW2 1161   0.884   0.254   2.028
  263SOL     OW 1162   1.719   0.585   3.693
  263SOL    HW1 1163   1.693   0.674   3.657
  263SOL    HW2 1164   1.717   0.517   3.620
  264SOL     OW 1165   1.362   1.144   2.407
  264SOL    HW1 1166   1.445   1.115   2.359
  264SOL    HW2 1167   1.313   1.211   2.351
  265SOL     OW 1168   0.550   0.196   2.747
  265SOL    HW1 1169   0.545   0.191   2.847
  265SOL    HW2 1170   0.552   0.292   2.718
  266SOL     OW 1171   1.008   1.456   2.339
  266SOL    HW1 1172   0.962   1.528   2.287
  266SOL    HW2 1173   1.004   1.476   2.437
  267SOL     OW 1174   0.351   1.801   2.715
  267SOL    HW1 1175   0.401   1.715   2.721
  267SOL    HW2 1176   0.416   1.878   2.712
  268SOL     OW 1177   1.795   1.066   2.735
  268SOL    HW1 1178   1.733   1.051   2.659
  268SOL    HW2 1179   1.743   1.077   2.820
  269SOL     OW 1180   1.227   1.550   3.368
  269SOL    HW1 1181   1.233   1.473   3.432
  269SOL    HW2 1182   1.175   1.524   3.288
  270SOL     OW 1183   0.321   0.943   2.104
  270SOL    HW1 1184   0.403   0.982   2.062
  270SOL    HW2 1185   0.294   0.861   2.055
  271SOL     OW 1186   1.458   0.735   2.590
  271SOL    HW1 1187   1.453   0.670   2.665
  271SOL    HW2 1188   1.538   0.794   2.603
  272SOL     OW 1189   0.461   1.266   3.589
  272SOL    HW1 1190   0.411   1.267   3.503
  272SOL    HW2 1191   0.398   1.248   3.665
  273SOL     OW 1192   1.111   1.776   2.099
  273SOL    HW1 1193   1.051   1.714   2.149
  273SOL    HW2 1194   1.142   1.732   2.014
  274SOL     OW 1195   0.202   0.285   3.360
  274SOL    HW1 1196   0.122   0.345   3.347
  274SOL    HW2 1197   0.192   0.236   3.446
  275SOL     OW 1198   1.632   1.377   1.943
  275SOL    HW1 1199   1.600   1.471   1.933
  275SOL    HW2 1200   1.556   1.314   1.931
  276SOL     OW 1201   0.464   1.743   2.185
  276SOL    HW1 1202   0.497   1.782   2.271
  276SOL    HW2 1203   0.540   1.736   2.120
  277SOL     OW 1204   1.400   0.107   2.288
  277SOL    HW1 1205   1.376   0.070   2.198
  277SOL    HW2 1206   1.499   0.123   2.292
  278SOL     OW 1207   0.249   1.785   3.103
  278SOL    HW1 1208   0.306   1.720   3.153
  278SOL    HW2 1209   0.233   1.752   3.010
  279SOL     OW 1210   0.940   1.698   2.766
  279SOL    HW1 1211   1.020   1.641   2.787
  279SOL    HW2 1212   0.891   1.658   2.689
  280SOL     OW 1213   0.382   0.700   2.342
  280SOL    HW1 1214   0.427   0.610   2.339
  280SOL    HW2 1215   0.288   0.689   2.375
  281SOL     OW 1216   1.547   0.222   3.591
  281SOL    HW1 1217   1.542   0.259   3.683
  281SOL    HW2 1218   1.475   0.153   3.579
  282SOL     OW 1219   0.614   0.122   1.979
  282SOL    HW1 1220   0.712   0.100   1.986
  282SOL    HW2 1221   0.583   0.105   1.886
  283SOL     OW 1222   0.781   0.264   3.611
  283SOL    HW1 1223   0.848   0.203   3.654
  283SOL    HW2 1224   0.708   0.283   3.676
  284SOL     OW 1225   0.888   1.514   3.057
  284SOL    HW1 1226   0.865   1.489   2.963
  284SOL    HW2 1227   0.949   1.445   3.096
  285SOL     OW 1228   1.351   0.590   3.295
  285SOL    HW1 1229   1.379   0.547   3.380
  285SOL    HW2 1230   1.376   0.686   3.296
  286SOL     OW 1231   0.803   1.402   2.786
  286SOL    HW1 1232   0.893   1.416   2.744
  286SOL    HW2 1233   0.732   1.404   2.715
  287SOL     OW 1234   0.922   0.503   2.761
  287SOL    HW1 1235   0.897   0.494   2.665
  287SOL    HW2 1236   0.970   0.421   2.792
  288SOL     OW 1237   0.539   0.064   2.374
  288SOL    HW1 1238   0.458   0.065   2.432
  288SOL    HW2 1239   0.542   0.147   2.319
  289SOL     OW 1240   1.434   1.188   1.903
  289SOL    HW1 1241   1.466   1.112   1.960
  289SOL    HW2 1242   1.342   1.215   1.933
  290SOL     OW 1243   0.297   0.035   2.033
  290SOL    HW1 1244   0.346   0.119   2.012
  290SOL    HW2 1245   0.359  -0.030   2.078
  291SOL     OW 1246   0.935   0.236   2.342
  291SOL    HW1 1247   0.887   0.277   2.264
  291SOL    HW2 1248   1.034   0.234   2.323
  292SOL     OW 1249   1.076   0.683   3.326
  292SOL    HW1 1250   0.996   0.622   3.329
  292SOL    HW2 1251   1.157   0.630   3.302
  293SOL     OW 1252   1.227   1.570   2.655
  293SOL    HW1 1253   1.248   1.644   2.590
  293SOL    HW2 1254   1.295   1.570   2.728
  294SOL     OW 1255   0.459   1.152   2.603
  294SOL    HW1 1256   0.388   1.125   2.668
  294SOL    HW2 1257   0.433   1.124   2.510
  295SOL     OW 1258   1.271   1.797   2.453
  295SOL    HW1 1259   1.315   1.861   2.389
  295SOL    HW2 1260   1.221   1.849   2.523
  296SOL     OW 1261   1.032   0.549   1.878
  296SOL    HW1 1262   0.991   0.631   1.839
  296SOL    HW2 1263   1.096   0.575   1.951
  297SOL     OW 1264   0.078   0.556   3.248
  297SOL    HW1 1265   0.170   0.555   3.207
  297SOL    HW2 1266   0.072   0.630   3.315
  298SOL     OW 1267   0.561   0.222   3.009
  298SOL    HW1 1268   0.599   0.138   3.046
  298SOL    HW2 1269   0.473   0.241   3.053
  299SOL     OW 1270   0.866   0.454   2.504
  299SOL    HW1 1271   0.834   0.526   2.442
  299SOL    HW2 1272   0.890   0.373   2.451
  300SOL     OW 1273   1.017   0.039   2.615
  300SOL    HW1 1274   0.945   0.044   2.546
  300SOL    HW2 1275   0.993  -0.030   2.684
  301SOL     OW 1276   1.429   1.173   2.729
  301SOL    HW1 1277   1.374   1.089   2.722
  301SOL    HW2 1278   1.455   1.202   2.637
  302SOL     OW 1279   1.466   0.590   2.854
  302SOL    HW1 1280   1.436   0.495   2.861
  302SOL    HW2 1281   1.539   0.606   2.920
  303SOL     OW 1282   1.857   0.833   2.239
  303SOL    HW1 1283   1.899   0.769   2.303
  303SOL    HW2 1284   1.819   0.782   2.161
  304SOL     OW 1285   0.488   1.385   2.036
  304SOL    HW1 1286   0.401   1.370   2.083
  304SOL    HW2 1287   0.471   1.411   1.941
  305SOL     OW 1288   1.664   1.280   2.519
  305SOL    HW1 1289   1.763   1.288   2.533
  305SOL    HW2 1290   1.619   1.364   2.550
  306SOL     OW 1291   1.390   0.575   1.940
  306SOL    HW1 1292   1.336   0.554   2.021
  306SOL    HW2 1293   1.481   0.534   1.949
  307SOL     OW 1294   0.527   0.256   2.190
  307SOL    HW1 1295   0.554   0.197   2.115
  307SOL    HW2 1296   0.527   0.351   2.159
  308SOL     OW 1297   1.754   1.223   3.450
  308SOL    HW1 1298   1.845   1.184   3.437
  308SOL    HW2 1299   1.762   1.319   3.474
  309SOL     OW 1300   1.064   1.347   3.202
  309SOL    HW1 1301   0.984   1.324   3.257
  309SOL    HW2 1302   1.147   1.321   3.251
  310SOL     OW 1303   1.592   1.629   3.487
  310SOL    HW1 1304   1.619   1.663   3.397
  310SOL    HW2 1305   1.671   1.591   3.533
  311SOL     OW 1306   1.111   1.195   2.962
  311SOL    HW1 1307   1.071   1.239   3.043
  311SOL    HW2 1308   1.070   1.232   2.879
  312SOL     OW 1309   1.638   1.099   2.941
  312SOL    HW1 1310   1.643   1.180   3.000
  312SOL    HW2 1311   1.552   1.101   2.890
  313SOL     OW 1312   0.915   0.089   3.264
  313SOL    HW1 1313   0.940   0.069   3.169
  313SOL    HW2 1314   0.987   0.145   3.306
  314SOL     OW 1315   0.980   1.116   3.581
  314SOL    HW1 1316   0.881   1.122   3.591
  314SOL    HW2 1317   1.003   1.036   3.525
  315SOL     OW 1318   0.705   1.050   2.230
  315SOL    HW1 1319   0.691   1.057   2.329
  315SOL    HW2 1320   0.789   0.999   2.212
  316SOL     OW 1321   0.410   0.813   3.113
  316SOL    HW1 1322   0.496   0.825   3.163
  316SOL    HW2 1323   0.368   0.726   3.140
  317SOL     OW 1324   1.274   0.386   3.124
  317SOL    HW1 1325   1.295   0.460   3.188
  317SOL    HW2 1326   1.185   0.403   3.081
  318SOL     OW 1327   0.064   1.564   3.193
  318SOL    HW1 1328   0.018   1.646   3.159
  318SOL    HW2 1329   0.162   1.583   3.202
  319SOL     OW 1330   0.367   1.100   2.363
  319SOL    HW1 1331   0.360   1.183   2.307
  319SOL    HW2 1332   0.371   1.020   2.303
  320SOL     OW 1333   0.566   0.537   2.727
  320SOL    HW1 1334   0.578   0.603   2.653
  320SOL    HW2 1335   0.612   0.571   2.810
  321SOL     OW 1336   1.252   1.348   2.250
  321SOL    HW1 1337   1.302   1.425   2.290
  321SOL    HW2 1338   1.157   1.350   2.282
  322SOL     OW 1339   1.272   1.445   3.004
  322SOL    HW1 1340   1.319   1.458   3.091
  322SOL    HW2 1341   1.206   1.371   3.013
  323SOL     OW 1342   1.582   0.639   2.334
  323SOL    HW1 1343   1.551   0.700   2.407
  323SOL    HW2 1344   1.632   0.691   2.265
  324SOL     OW 1345   0.354   1.510   3.191
  324SOL    HW1 1346   0.333   1.466   3.104
  324SOL    HW2 1347   0.451   1.536   3.194
  325SOL     OW 1348   0.402   0.751   3.460
  325SOL    HW1 1349   0.470   0.806   3.413
  325SOL    HW2 1350   0.442   0.663   3.487
  326SOL     OW 1351   1.587   0.779   3.532
  326SOL    HW1 1352   1.495   0.817   3.527
  326SOL    HW2 1353   1.647   0.826   3.467
  327SOL     OW 1354   1.013   0.105   3.632
  327SOL    HW1 1355   1.019   0.190   3.580
  327SOL    HW2 1356   1.045   0.029   3.575
  328SOL     OW 1357   0.504   0.050   3.602
  328SOL    HW1 1358   0.462  -0.007   3.532
  328SOL    HW2 1359   0.438   0.119   3.634
  329SOL     OW 1360   0.573   0.870   2.891
  329SOL    HW1 1361   0.617   0.959   2.882
  329SOL    HW2 1362   0.510   0.870   2.968
  330SOL     OW 1363   1.360   0.862   2.907
  330SOL    HW1 1364   1.285   0.862   2.841
  330SOL    HW2 1365   1.397   0.770   2.916
  331SOL     OW 1366   1.209   0.525   2.137
  331SOL    HW1 1367   1.222   0.441   2.191
  331SOL    HW2 1368   1.180   0.599   2.197
  332SOL     OW 1369   0.307   0.213   3.093
  332SOL    HW1 1370   0.284   0.250   3.183
  332SOL    HW2 1371   0.277   0.118   3.087
  333SOL     OW 1372   0.037   1.310   3.144
  333SOL    HW1 1373   0.090   1.261   3.212
  333SOL    HW2 1374   0.059   1.408   3.149
  334SOL     OW 1375   0.732   0.634   2.926
  334SOL    HW1 1376   0.791   0.608   2.850
  334SOL    HW2 1377   0.704   0.730   2.915
  335SOL     OW 1378   1.728   0.935   3.716
  335SOL    HW1 1379   1.682   0.928   3.627
  335SOL    HW2 1380   1.666   0.979   3.782
  336SOL     OW 1381   0.307   0.063   2.480
  336SOL    HW1 1382   0.296   0.157   2.513
  336SOL    HW2 1383   0.302   0.000   2.557
  337SOL     OW 1384   1.622   0.367   2.236
  337SOL    HW1 1385   1.624   0.291   2.300
  337SOL    HW2 1386   1.574   0.444   2.276
  338SOL     OW 1387   1.023   0.766   2.828
  338SOL    HW1 1388   1.038   0.787   2.924
  338SOL    HW2 1389   0.993   0.671   2.819
  339SOL     OW 1390   0.980   1.573   3.562
  339SOL    HW1 1391   0.960   1.617   3.474
  339SOL    HW2 1392   1.019   1.482   3.546
  340SOL     OW 1393   1.859   1.518   3.467
  340SOL    HW1 1394   1.873   1.545   3.372
  340SOL    HW2 1395   1.942   1.540   3.520
  341SOL     OW 1396   0.350   0.898   3.666
  341SOL    HW1 1397   0.426   0.942   3.714
  341SOL    HW2 1398   0.385   0.851   3.584
  342SOL     OW 1399   1.540   0.274   1.987
  342SOL    HW1 1400   1.479   0.199   2.010
  342SOL    HW2 1401   1.562   0.326   2.070
  343SOL     OW 1402   1.303   0.838   1.904
  343SOL    HW1 1403   1.337   0.745   1.919
  343SOL    HW2 1404   1.321   0.865   1.809
  344SOL     OW 1405   1.068   1.333   2.711
  344SOL    HW1 1406   1.075   1.249   2.656
  344SOL    HW2 1407   1.130   1.402   2.675
  345SOL     OW 1408   0.319   0.810   2.811
  345SOL    HW1 1409   0.412   0.846   2.816
  345SOL    HW2 1410   0.313   0.725   2.863
  346SOL     OW 1411   0.339   0.509   2.868
  346SOL    HW1 1412   0.287   0.426   2.851
  346SOL    HW2 1413   0.416   0.514   2.804
  347SOL     OW 1414   1.138   0.380   3.540
  347SOL    HW1 1415   1.093   0.443   3.604
  347SOL    HW2 1416   1.231   0.411   3.523
  348SOL     OW 1417   1.160   0.207   3.339
  348SOL    HW1 1418   1.160   0.271   3.416
  348SOL    HW2 1419   1.188   0.255   3.256
  349SOL     OW 1420   0.008   1.326   2.062
  349SOL    HW1 1421  -0.085   1.347   2.031
  349SOL    HW2 1422   0.018   1.227   2.075
  350SOL     OW 1423   0.088   1.801   2.789
  350SOL    HW1 1424   0.046   1.715   2.762
  350SOL    HW2 1425   0.182   1.804   2.755
  351SOL     OW 1426   0.504   1.568   2.772
  351SOL    HW1 1427   0.570   1.642   2.781
  351SOL    HW2 1428   0.548   1.489   2.730
  352SOL     OW 1429   1.002   0.796   3.100
  352SOL    HW1 1430   1.043   0.764   3.186
  352SOL    HW2 1431   0.906   0.769   3.097
  353SOL     OW 1432   0.040   0.544   2.976
  353SOL    HW1 1433   0.125   0.511   2.935
  353SOL    HW2 1434   0.053   0.559   3.074
  354SOL     OW 1435   0.189   0.520   3.584
  354SOL    HW1 1436   0.248   0.480   3.514
  354SOL    HW2 1437   0.131   0.591   3.543
  355SOL     OW 1438   1.369   0.950   3.522
  355SOL    HW1 1439   1.408   1.039   3.542
  355SOL    HW2 1440   1.379   0.930   3.425
  356SOL     OW 1441   0.815   0.572   2.187
  356SOL    HW1 1442   0.822   0.483   2.141
  356SOL    HW2 1443   0.721   0.606   2.179
  357SOL     OW 1444   1.657   0.604   3.068
  357SOL    HW1 1445   1.619   0.535   3.130
  357SOL    HW2 1446   1.739   0.568   3.024
  358SOL     OW 1447   0.252   1.564   3.606
  358SOL    HW1 1448   0.222   1.621   3.682
  358SOL    HW2 1449   0.245   1.467   3.632
  359SOL     OW 1450   0.671   0.464   3.131
  359SOL    HW1 1451   0.637   0.375   3.101
  359SOL    HW2 1452   0.697   0.518   3.051
  360SOL     OW 1453   0.930   1.678   3.327
  360SOL    HW1 1454   0.906   1.660   3.232
  360SOL    HW2 1455   0.960   1.772   3.337
  361SOL     OW 1456   0.473   0.500   2.053
  361SOL    HW1 1457   0.534   0.580   2.057
  361SOL    HW2 1458   0.378   0.531   2.060
  362SOL     OW 1459   0.159   1.137   3.328
  362SOL    HW1 1460   0.181   1.076   3.404
  362SOL    HW2 1461   0.169   1.088   3.242
  363SOL     OW 1462   1.347   1.059   3.096
  363SOL    HW1 1463   1.371   0.996   3.022
  363SOL    HW2 1464   1.257   1.099   3.078
  364SOL     OW 1465   1.302   0.855   2.171
  364SOL    HW1 1466   1.216   0.824   2.213
  364SOL    HW2 1467   1.298   0.841   2.072
  365SOL     OW 1468   1.759   1.747   3.016
  365SOL    HW1 1469   1.820   1.777   2.943
  365SOL    HW2 1470   1.721   1.658   2.994
  366SOL     OW 1471   1.252   1.731   2.990
  366SOL    HW1 1472   1.336   1.736   2.936
  366SOL    HW2 1473   1.229   1.635   3.008
  367SOL     OW 1474   0.083   1.258   2.884
  367SOL    HW1 1475   0.078   1.257   2.984
  367SOL    HW2 1476   0.000   1.217   2.846
  368SOL     OW 1477   0.688   1.662   3.578
  368SOL    HW1 1478   0.632   1.743   3.587
  368SOL    HW2 1479   0.740   1.666   3.492
  369SOL     OW 1480   1.726   0.135   2.385
  369SOL    HW1 1481   1.799   0.118   2.318
  369SOL    HW2 1482   1.695   0.048   2.423
  370SOL     OW 1483   1.388   1.573   2.339
  370SOL    HW1 1484   1.455   1.585   2.265
  370SOL    HW2 1485   1.348   1.662   2.362
  371SOL     OW 1486   0.130   1.794   3.713
  371SOL    HW1 1487   0.089   1.720   3.766
  371SOL    HW2 1488   0.194   1.845   3.771
  372SOL     OW 1489   1.280   0.927   2.534
  372SOL    HW1 1490   1.340   0.846   2.536
  372SOL    HW2 1491   1.320   0.996   2.474
  373SOL     OW 1492   0.830   1.273   3.284
  373SOL    HW1 1493   0.825   1.306   3.379
  373SOL    HW2 1494   0.744   1.292   3.238
  374SOL     OW 1495   0.672   1.616   2.016
  374SOL    HW1 1496   0.681   1.626   1.917
  374SOL    HW2 1497   0.632   1.527   2.037
  375SOL     OW 1498   1.650   1.720   3.256
  375SOL    HW1 1499   1.703   1.730   3.172
  375SOL    HW2 1500   1.623   1.810   3.290
  376SOL     OW 1501   1.841   0.175   2.825
  376SOL    HW1 1502   1.880   0.090   2.789
  376SOL    HW2 1503   1.743   0.177   2.806
  377SOL     OW 1504   0.263   0.326   2.582
  377SOL    HW1 1505   0.184   0.377   2.548
  377SOL    HW2 1506   0.254   0.311   2.680
  378SOL     OW 1507   1.194   1.612   1.893
  378SOL    HW1 1508   1.200   1.519   1.930
  378SOL    HW2 1509   1.135   1.612   1.813
  379SOL     OW 1510   0.822   1.002   3.234
  379SOL    HW1 1511   0.862   1.001   3.142
  379SOL    HW2 1512   0.832   1.094   3.274
  380SOL     OW 1513   0.916   0.910   2.153
  380SOL    HW1 1514   0.979   0.948   2.085
  380SOL    HW2 1515   0.956   0.827   2.192
  381SOL     OW 1516   1.504   1.607   1.906
  381SOL    HW1 1517   1.412   1.644   1.913
  381SOL    HW2 1518   1.542   1.627   1.816
  382SOL     OW 1519   0.372   1.288   3.352
  382SOL    HW1 1520   0.359   1.381   3.318
  382SOL    HW2 1521   0.288   1.236   3.339
  383SOL     OW 1522   1.614   1.292   3.151
  383SOL    HW1 1523   1.674   1.295   3.231
  383SOL    HW2 1524   1.539   1.356   3.164
  384SOL     OW 1525   1.039   1.098   2.558
  384SOL    HW1 1526   0.969   1.051   2.612
  384SOL    HW2 1527   1.098   1.030   2.515
  385SOL     OW 1528   1.014   0.236   2.833
  385SOL    HW1 1529   1.006   0.200   2.740
  385SOL    HW2 1530   1.012   0.160   2.898
  386SOL     OW 1531   0.590   1.487   2.353
  386SOL    HW1 1532   0.632   1.429   2.283
  386SOL    HW2 1533   0.546   1.566   2.309
  387SOL     OW 1534   1.709   0.385   3.243
  387SOL    HW1 1535   1.782   0.454   3.247
  387SOL    HW2 1536   1.737   0.310   3.184
  388SOL     OW 1537   0.255   1.348   2.152
  388SOL    HW1 1538   0.159   1.349   2.125
  388SOL    HW2 1539   0.267   1.401   2.236
  389SOL     OW 1540   0.105   1.013   3.588
  389SOL    HW1 1541   0.028   0.980   3.642
  389SOL    HW2 1542   0.190   0.983   3.630
  390SOL     OW 1543   0.672   0.203   3.351
  390SOL    HW1 1544   0.762   0.187   3.311
  390SOL    HW2 1545   0.680   0.208   3.450
  391SOL     OW 1546   0.075   0.345   1.895
  391SOL    HW1 1547  -0.017   0.317   1.866
  391SOL    HW2 1548   0.106   0.422   1.839
  392SOL     OW 1549   1.440   0.856   3.260
  392SOL    HW1 1550   1.383   0.908   3.197
  392SOL    HW2 1551   1.536   0.868   3.236
  393SOL     OW 1552   0.072   0.166   2.180
  393SOL    HW1 1553   0.055   0.249   2.126
  393SOL    HW2 1554   0.162   0.129   2.158
  394SOL     OW 1555   1.183   1.335   1.981
  394SOL    HW1 1556   1.084   1.324   1.983
  394SOL    HW2 1557   1.217   1.350   2.074
  395SOL     OW 1558   0.613   0.842   3.293
  395SOL    HW1 1559   0.669   0.923   3.276
  395SOL    HW2 1560   0.672   0.762   3.296
  396SOL     OW 1561   1.493   1.767   2.821
  396SOL    HW1 1562   1.526   1.831   2.752
  396SOL    HW2 1563   1.559   1.761   2.896
  397SOL     OW 1564   0.716   0.565   3.570
  397SOL    HW1 1565   0.735   0.630   3.644
  397SOL    HW2 1566   0.776   0.485   3.579
  398SOL     OW 1567   1.450   1.220   3.495
  398SOL    HW1 1568   1.441   1.210   3.594
  398SOL    HW2 1569   1.546   1.213   3.469
  399SOL     OW 1570   0.390   1.741   3.422
  399SOL    HW1 1571   0.299   1.782   3.420
  399SOL    HW2 1572   0.383   1.647   3.454
  400SOL     OW 1573   1.674   0.883   3.116
  400SOL    HW1 1574   1.647   0.794   3.079
  400SOL    HW2 1575   1.675   0.951   3.043
  401SOL     OW 1576   1.225   0.325   2.311
  401SOL    HW1 1577   1.290   0.251   2.300
  401SOL    HW2 1578   1.245   0.375   2.395
  402SOL     OW 1579   0.594   0.745   2.514
  402SOL    HW1 1580   0.644   0.830   2.495
  402SOL    HW2 1581   0.506   0.747   2.466
  403SOL     OW 1582   1.777   0.342   3.504
  403SOL    HW1 1583   1.760   0.373   3.410
  403SOL    HW2 1584   1.693   0.305   3.542
  404SOL     OW 1585   1.730   0.934   3.379
  404SOL    HW1 1586   1.768   1.025   3.394
  404SOL    HW2 1587   1.722   0.917   3.280
  405SOL     OW 1588   0.859   1.374   1.878
  405SOL    HW1 1589   0.813   1.389   1.966
  405SOL    HW2 1590   0.903   1.459   1.848
  406SOL     OW 1591   0.661   1.790   2.815
  406SOL    HW1 1592   0.615   1.878   2.802
  406SOL    HW2 1593   0.760   1.802   2.808
  407SOL     OW 1594   0.859   0.956   2.723
  407SOL    HW1 1595   0.913   0.887   2.771
  407SOL    HW2 1596   0.827   1.025   2.789
  408SOL     OW 1597   1.083   0.984   1.949
  408SOL    HW1 1598   1.060   1.037   1.867
  408SOL    HW2 1599   1.164   0.928   1.930
  409SOL     OW 1600   1.861   1.569   2.713
  409SOL    HW1 1601   1.790   1.557   2.643
  409SOL    HW2 1602   1.862   1.490   2.773
  410SOL     OW 1603   0.221   1.314   3.706
  410SOL    HW1 1604   0.156   1.241   3.685
  410SOL    HW2 1605   0.225   1.328   3.804
  411SOL     OW 1606   0.079   1.240   2.515
  411SOL    HW1 1607   0.078   1.193   2.603
  411SOL    HW2 1608   0.161   1.212   2.464
  412SOL     OW 1609   0.672   1.391   3.486
  412SOL    HW1 1610   0.594   1.341   3.524
  412SOL    HW2 1611   0.669   1.486   3.517
  413SOL     OW 1612   1.824   0.192   3.089
  413SOL    HW1 1613   1.820   0.102   3.133
  413SOL    HW2 1614   1.827   0.181   2.990
  414SOL     OW 1615   0.428   0.424   2.382
  414SOL    HW1 1616   0.458   0.352   2.320
  414SOL    HW2 1617   0.389   0.384   2.465
  415SOL     OW 1618   1.705   1.487   2.966
  415SOL    HW1 1619   1.612   1.462   2.939
  415SOL    HW2 1620   1.731   1.437   3.048
  416SOL     OW 1621   0.317   0.547   3.142
  416SOL    HW1 1622   0.355   0.488   3.214
  416SOL    HW2 1623   0.357   0.521   3.054
  417SOL     OW 1624   0.812   1.586   2.549
  417SOL    HW1 1625   0.844   1.596   2.455
  417SOL    HW2 1626   0.733   1.524   2.551
  418SOL     OW 1627   1.424   0.214   2.974
  418SOL    HW1 1628   1.476   0.149   3.029
  418SOL    HW2 1629   1.375   0.277   3.035
  419SOL     OW 1630   1.001   0.034   3.016
  419SOL    HW1 1631   0.938  -0.038   2.985
  419SOL    HW2 1632   1.094  -0.002   3.016
  420SOL     OW 1633   0.770   1.330   2.163
  420SOL    HW1 1634   0.724   1.243   2.180
  420SOL    HW2 1635   0.861   1.327   2.204
  421SOL     OW 1636   0.618   1.567   3.146
  421SOL    HW1 1637   0.613   1.649   3.203
  421SOL    HW2 1638   0.707   1.564   3.101
  422SOL     OW 1639   1.352   0.052   2.030
  422SOL    HW1 1640   1.387   0.011   1.946
  422SOL    HW2 1641   1.262   0.014   2.050
  423SOL     OW 1642   1.300   0.453   2.553
  423SOL    HW1 1643   1.241   0.533   2.557
  423SOL    HW2 1644   1.315   0.418   2.646
  424SOL     OW 1645   1.593   0.221   2.744
  424SOL    HW1 1646   1.509   0.220   2.798
  424SOL    HW2 1647   1.595   0.304   2.688
  425SOL     OW 1648   0.039   1.077   2.162
  425SOL    HW1 1649   0.138   1.066   2.153
  425SOL    HW2 1650  -0.001   0.991   2.194
  426SOL     OW 1651   0.875   1.646   2.199
  426SOL    HW1 1652   0.798   1.611   2.145
  426SOL    HW2 1653   0.843   1.717   2.261
  427SOL     OW 1654   0.230   0.628   3.837
  427SOL    HW1 1655   0.137   0.626   3.874
  427SOL    HW2 1656   0.231   0.589   3.745
  428SOL     OW 1657   0.225   0.275   4.720
  428SOL    HW1 1658   0.260   0.258   4.812
  428SOL    HW2 1659   0.137   0.230   4.708
  429SOL     OW 1660   0.019   0.368   4.371
  429SOL    HW1 1661  -0.063   0.411   4.410
  429SOL    HW2 1662  -0.009   0.295   4.308
  430SOL     OW 1663   0.569   1.275   4.889
  430SOL    HW1 1664   0.476   1.268   4.852
  430SOL    HW2 1665   0.580   1.364   4.933
  431SOL     OW 1666   1.555   1.511   4.427
  431SOL    HW1 1667   1.498   1.495   4.508
  431SOL    HW2 1668   1.496   1.521   4.347
  432SOL     OW 1669   1.135   0.703   4.441
  432SOL    HW1 1670   1.192   0.781   4.416
  432SOL    HW2 1671   1.075   0.729   4.517
  433SOL     OW 1672   1.755   0.607   3.955
  433SOL    HW1 1673   1.743   0.594   3.856
  433SOL    HW2 1674   1.725   0.526   4.004
  434SOL     OW 1675   0.768   1.144   4.747
  434SOL    HW1 1676   0.690   1.161   4.807
  434SOL    HW2 1677   0.802   1.231   4.711
  435SOL     OW 1678   0.850   0.798   5.547
  435SOL    HW1 1679   0.846   0.874   5.612
  435SOL    HW2 1680   0.872   0.834   5.456
  436SOL     OW 1681   0.685   1.012   4.389
  436SOL    HW1 1682   0.754   0.996   4.459
  436SOL    HW2 1683   0.612   1.069   4.427
  437SOL     OW 1684   0.686   1.161   5.527
  437SOL    HW1 1685   0.746   1.240   5.541
  437SOL    HW2 1686   0.600   1.192   5.486
  438SOL     OW 1687   0.335   1.435   4.785
  438SOL    HW1 1688   0.257   1.404   4.732
  438SOL    HW2 1689   0.393   1.493   4.728
  439SOL     OW 1690   1.460   1.505   5.063
  439SOL    HW1 1691   1.484   1.599   5.089
  439SOL    HW2 1692   1.444   1.451   5.145
  440SOL     OW 1693   0.438   0.392   5.223
  440SOL    HW1 1694   0.520   0.336   5.232
  440SOL    HW2 1695   0.357   0.334   5.227
  441SOL     OW 1696   1.603   0.447   4.461
  441SOL    HW1 1697   1.529   0.493   4.411
  441SOL    HW2 1698   1.654   0.515   4.514
  442SOL     OW 1699   0.231   1.713   4.207
  442SOL    HW1 1700   0.265   1.790   4.261
  442SOL    HW2 1701   0.275   1.713   4.117
  443SOL     OW 1702   1.127   1.341   5.414
  443SOL    HW1 1703   1.174   1.341   5.502
  443SOL    HW2 1704   1.079   1.254   5.403
  444SOL     OW 1705   0.230   1.434   4.262
  444SOL    HW1 1706   0.204   1.530   4.262
  444SOL    HW2 1707   0.159   1.380   4.307
  445SOL     OW 1708   0.240   1.091   4.610
  445SOL    HW1 1709   0.254   1.007   4.662
  445SOL    HW2 1710   0.185   1.155   4.665
  446SOL     OW 1711   0.620   1.786   5.163
  446SOL    HW1 1712   0.528   1.769   5.198
  446SOL    HW2 1713   0.648   1.878   5.189
  447SOL     OW 1714   0.606   0.964   3.847
  447SOL    HW1 1715   0.613   1.048   3.793
  447SOL    HW2 1716   0.652   0.977   3.935
  448SOL     OW 1717   1.594   0.114   5.204
  448SOL    HW1 1718   1.576   0.181   5.132
  448SOL    HW2 1719   1.591   0.160   5.293
  449SOL     OW 1720   0.122   0.643   4.287
  449SOL    HW1 1721   0.077   0.555   4.304
  449SOL    HW2 1722   0.121   0.697   4.371
  450SOL     OW 1723   1.842   1.767   4.083
  450SOL    HW1 1724   1.896   1.738   4.163
  450SOL    HW2 1725   1.872   1.857   4.054
  451SOL     OW 1726   0.027   1.596   3.841
  451SOL    HW1 1727   0.008   1.500   3.862
  451SOL    HW2 1728  -0.006   1.654   3.916
  452SOL     OW 1729   1.689   0.922   4.336
  452SOL    HW1 1730   1.784   0.893   4.344
  452SOL    HW2 1731   1.681   0.987   4.261
  453SOL     OW 1732   1.641   1.108   4.156
  453SOL    HW1 1733   1.727   1.110   4.104
  453SOL    HW2 1734   1.655   1.155   4.244
  454SOL     OW 1735   0.113   0.737   5.321
  454SOL    HW1 1736   0.201   0.724   5.366
  454SOL    HW2 1737   0.100   0.834   5.299
  455SOL     OW 1738   0.613   1.365   4.450
  455SOL    HW1 1739   0.564   1.278   4.459
  455SOL    HW2 1740   0.590   1.408   4.363
  456SOL     OW 1741   1.293   1.228   5.147
  456SOL    HW1 1742   1.330   1.155   5.089
  456SOL    HW2 1743   1.345   1.233   5.232
  457SOL     OW 1744   0.809   0.004   4.226
  457SOL    HW1 1745   0.849   0.095   4.217
  457SOL    HW2 1746   0.709   0.012   4.232
  458SOL     OW 1747   0.197   0.976   4.988
  458SOL    HW1 1748   0.286   0.931   4.974
  458SOL    HW2 1749   0.124   0.911   4.969
  459SOL     OW 1750   1.525   0.999   3.914
  459SOL    HW1 1751   1.462   0.923   3.927
  459SOL    HW2 1752   1.573   1.017   4.000
  460SOL     OW 1753   1.187   1.792   5.340
  460SOL    HW1 1754   1.211   1.852   5.264
  460SOL    HW2 1755   1.194   1.697   5.310
  461SOL     OW 1756   0.317   0.251   5.525
  461SOL    HW1 1757   0.388   0.322   5.531
  461SOL    HW2 1758   0.229   0.290   5.553
  462SOL     OW 1759   1.466   1.417   4.677
  462SOL    HW1 1760   1.407   1.423   4.757
  462SOL    HW2 1761   1.451   1.329   4.631
  463SOL     OW 1762   1.667   1.714   4.296
  463SOL    HW1 1763   1.626   1.691   4.208
  463SOL    HW2 1764   1.649   1.640   4.361
  464SOL     OW 1765   0.598   0.729   3.994
  464SOL    HW1 1766   0.622   0.798   3.926
  464SOL    HW2 1767   0.520   0.762   4.048
  465SOL     OW 1768   1.281   0.345   4.668
  465SOL    HW1 1769   1.195   0.295   4.655
  465SOL    HW2 1770   1.343   0.291   4.724
  466SOL     OW 1771   1.576   1.662   4.031
  466SOL    HW1 1772   1.665   1.708   4.034
  466SOL    HW2 1773   1.555   1.638   3.936
  467SOL     OW 1774   0.807   0.605   5.189
  467SOL    HW1 1775   0.760   0.602   5.278
  467SOL    HW2 1776   0.756   0.550   5.123
  468SOL     OW 1777   1.394   0.469   5.398
  468SOL    HW1 1778   1.374   0.512   5.486
  468SOL    HW2 1779   1.472   0.407   5.407
  469SOL     OW 1780   0.973   0.890   5.296
  469SOL    HW1 1781   1.019   0.806   5.267
  469SOL    HW2 1782   0.917   0.924   5.221
  470SOL     OW 1783   0.991   0.410   4.966
  470SOL    HW1 1784   0.914   0.444   5.020
  470SOL    HW2 1785   0.957   0.359   4.887
  471SOL     OW 1786   1.041   0.701   4.153
  471SOL    HW1 1787   1.067   0.697   4.249
  471SOL    HW2 1788   0.956   0.650   4.139
  472SOL     OW 1789   0.076   0.811   4.513
  472SOL    HW1 1790   0.175   0.799   4.522
  472SOL    HW2 1791   0.052   0.906   4.534
  473SOL     OW 1792   0.130   1.821   5.295
  473SOL    HW1 1793   0.120   1.806   5.394
  473SOL    HW2 1794   0.044   1.857   5.259
  474SOL     OW 1795   0.865   0.348   3.919
  474SOL    HW1 1796   0.924   0.411   3.870
  474SOL    HW2 1797   0.884   0.254   3.890
  475SOL     OW 1798   1.719   0.585   5.555
  475SOL    HW1 1799   1.693   0.674   5.519
  475SOL    HW2 1800   1.717   0.517   5.482
  476SOL     OW 1801   1.362   1.144   4.269
  476SOL    HW1 1802   1.445   1.115   4.221
  476SOL    HW2 1803   1.313   1.211   4.213
  477SOL     OW 1804   0.550   0.196   4.609
  477SOL    HW1 1805   0.545   0.191   4.709
  477SOL    HW2 1806   0.552   0.292   4.580
  478SOL     OW 1807   1.008   1.456   4.201
  478SOL    HW1 1808   0.962   1.528   4.149
  478SOL    HW2 1809   1.004   1.476   4.299
  479SOL     OW 1810   0.351   1.801   4.577
  479SOL    HW1 1811   0.401   1.715   4.583
  479SOL    HW2 1812   0.416   1.878   4.574
  480SOL     OW 1813   1.795   1.066   4.597
  480SOL    HW1 1814   1.733   1.051   4.521
  480SOL    HW2 1815   1.743   1.077   4.682
  481SOL     OW 1816   1.227   1.550   5.230
  481SOL    HW1 1817   1.233   1.473   5.294
  481SOL    HW2 1818   1.175   1.524   5.150
  482SOL     OW 1819   0.321   0.943   3.966
  482SOL    HW1 1820   0.403   0.982   3.924
  482SOL    HW2 1821   0.294   0.861   3.917
  483SOL     OW 1822   1.458   0.735   4.452
  483SOL    HW1 1823   1.453   0.670   4.527
  483SOL    HW2 1824   1.538   0.794   4.465
  484SOL     OW 1825   0.461   1.266   5.451
  484SOL    HW1 1826   0.411   1.267   5.365
  484SOL    HW2 1827   0.398   1.248   5.527
  485SOL     OW 1828   1.111   1.776   3.961
  485SOL    HW1 1829   1.051   1.714   4.011
  485SOL    HW2 1830   1.142   1.732   3.876
  486SOL     OW 1831   0.202   0.285   5.222
  486SOL    HW1 1832   0.122   0.345   5.209
  486SOL    HW2 1833   0.192   0.236   5.308
  487SOL     OW 1834   1.632   1.377   3.805
  487SOL    HW1 1835   1.600   1.471   3.795
  487SOL    HW2 1836   1.556   1.314   3.793
  488SOL     OW 1837   0.464   1.743   4.047
  488SOL    HW1 1838   0.497   1.782   4.133
  488SOL    HW2 1839   0.540   1.736   3.982
  489SOL     OW 1840   1.400   0.107   4.150
  489SOL    HW1 1841   1.376   0.070   4.060
  489SOL    HW2 1842   1.499   0.123   4.154
  490SOL     OW 1843   0.249   1.785   4.965
  490SOL    HW1 1844   0.306   1.720   5.015
  490SOL    HW2 1845   0.233   1.752   4.872
  491SOL     OW 1846   0.940   1.698   4.628
  491SOL    HW1 1847   1.020   1.641   4.649
  491SOL    HW2 1848   0.891   1.658   4.551
  492SOL     OW 1849   0.382   0.700   4.204
  492SOL    HW1 1850   0.427   0.610   4.201
  492SOL    HW2 1851   0.288   0.689   4.237
  493SOL     OW 1852   1.547   0.222   5.453
  493SOL    HW1 1853   1.542   0.259   5.545
  493SOL    HW2 1854   1.475   0.153   5.441
  494SOL     OW 1855   0.614   0.122   3.841
  494SOL    HW1 1856   0.712   0.100   3.848
  494SOL    HW2 1857   0.583   0.105   3.748
  495SOL     OW 1858   0.781   0.264   5.473
  495SOL    HW1 1859   0.848   0.203   5.516
  495SOL    HW2 1860   0.708   0.283   5.538
  496SOL     OW 1861   0.888   1.514   4.919
  496SOL    HW1 1862   0.865   1.489   4.825
  496SOL    HW2 1863   0.949   1.445   4.958
  497SOL     OW 1864   1.351   0.590   5.157
  497SOL    HW1 1865   1.379   0.547   5.242
  497SOL    HW2 1866   1.376   0.686   5.158
  498SOL     OW 1867   0.803   1.402   4.648
  498SOL    HW1 1868   0.893   1.416   4.606
  498SOL    HW2 1869   0.732   1.404   4.577
  499SOL     OW 1870   0.922   0.503   4.623
  499SOL    HW1 1871   0.897   0.494   4.527
  499SOL    HW2 1872   0.970   0.421   4.654
  500SOL     OW 1873   0.539   0.064   4.236
  500SOL    HW1 1874   0.458   0.065   4.294
  500SOL    HW2 1875   0.542   0.147   4.181
  501SOL     OW 1876   1.434   1.188   3.765
  501SOL    HW1 1877   1.466   1.112   3.822
  501SOL    HW2 1878   1.342   1.215   3.795
  502SOL     OW 1879   0.297   0.035   3.895
  502SOL    HW1 1880   0.346   0.119   3.874
  502SOL    HW2 1881   0.359  -0.030   3.940
  503SOL     OW 1882   0.935   0.236   4.204
  503SOL    HW1 1883   0.887   0.277   4.126
  503SOL    HW2 1884   1.034   0.234   4.185
  504SOL     OW 1885   1.076   0.683   5.188
  504SOL    HW1 1886   0.996   0.622   5.191
  504SOL    HW2 1887   1.157   0.630   5.164
  505SOL     OW 1888   1.227   1.570   4.517
  505SOL    HW1 1889   1.248   1.644   4.452
  505SOL    HW2 1890   1.295   1.570   4.590
  506SOL     OW 1891   0.459   1.152   4.465
  506SOL    HW1 1892   0.388   1.125   4.530
  506SOL    HW2 1893   0.433   1.124   4.372
  507SOL     OW 1894   1.271   1.797   4.315
  507SOL    HW1 1895   1.315   1.861   4.251
  507SOL    HW2 1896   1.221   1.849   4.385
  508SOL     OW 1897   1.032   0.549   3.740
  508SOL    HW1 1898   0.991   0.631   3.701
  508SOL    HW2 1899   1.096   0.575   3.813
  509SOL     OW 1900   0.078   0.556   5.110
  509SOL    HW1 1901   0.170   0.555   5.069
  509SOL    HW2 1902   0.072   0.630   5.177
  510SOL     OW 1903   0.561   0.222   4.871
  510SOL    HW1 1904   0.599   0.138   4.908
  510SOL    HW2 1905   0.473   0.241   4.915
  511SOL     OW 1906   0.866   0.454   4.366
  511SOL    HW1 1907   0.834   0.526   4.304
  511SOL    HW2 1908   0.890   0.373   4.313
  512SOL     OW 1909   1.017   0.039   4.477
  512SOL    HW1 1910   0.945   0.044   4.408
  512SOL    HW2 1911   0.993  -0.030   4.546
  513SOL     OW 1912   1.429   1.173   4.591
  513SOL    HW1 1913   1.374   1.089   4.584
  513SOL    HW2 1914   1.455   1.202   4.499
  514SOL     OW 1915   1.466   0.590   4.716
  514SOL    HW1 1916   1.436   0.495   4.723
  514SOL    HW2 1917   1.539   0.606   4.782
  515SOL     OW 1918   1.857   0.833   4.101
  515SOL    HW1 1919   1.899   0.769   4.165
  515SOL    HW2 1920   1.819   0.782   4.023
  516SOL     OW 1921   0.488   1.385   3.898
  516SOL    HW1 1922   0.401   1.370   3.945
  516SOL    HW2 1923   0.471   1.411   3.803
  517SOL     OW 1924   1.664   1.280   4.381
  517SOL    HW1 1925   1.763   1.288   4.395
  517SOL    HW2 1926   1.619   1.364   4.412
  518SOL     OW 1927   1.390   0.575   3.802
  518SOL    HW1 1928   1.336   0.554   3.883
  518SOL    HW2 1929   1.481   0.534   3.811
  519SOL     OW 1930   0.527   0.256   4.052
  519SOL    HW1 1931   0.554   0.197   3.977
  519SOL    HW2 1932   0.527   0.351   4.021
  520SOL     OW 1933   1.754   1.223   5.312
  520SOL    HW1 1934   1.845   1.184   5.299
  520SOL    HW2 1935   1.762   1.319   5.336
  521SOL     OW 1936   1.064   1.347   5.064
  521SOL    HW1 1937   0.984   1.324   5.119
  521SOL    HW2 1938   1.147   1.321   5.113
  522SOL     OW 1939   1.592   1.629   5.349
  522SOL    HW1 1940   1.619   1.663   5.259
  522SOL    HW2 1941   1.671   1.591   5.395
  523SOL     OW 1942   1.111   1.195   4.824
  523SOL    HW1 1943   1.071   1.239   4.905
  523SOL    HW2 1944   1.070   1.232   4.741
  524SOL     OW 1945   1.638   1.099   4.803
  524SOL    HW1 1946   1.643   1.180   4.862
  524SOL    HW2 1947   1.552   1.101   4.752
  525SOL     OW 1948   0.915   0.089   5.126
  525SOL    HW1 1949   0.940   0.069   5.031
  525SOL    HW2 1950   0.987   0.145   5.168
  526SOL     OW 1951   0.980   1.116   5.443
  526SOL    HW1 1952   0.881   1.122   5.453
  526SOL    HW2 1953   1.003   1.036   5.387
  527SOL     OW 1954   0.705   1.050   4.092
  527SOL    HW1 1955   0.691   1.057   4.191
  527SOL    HW2 1956   0.789   0.999   4.074
  528SOL     OW 1957   0.410   0.813   4.975
  528SOL    HW1 1958   0.496   0.825   5.025
  528SOL    HW2 1959   0.368   0.726   5.002
  529SOL     OW 1960   1.274   0.386   4.986
  529SOL    HW1 1961   1.295   0.460   5.050
  529SOL    HW2 1962   1.185   0.403   4.943
  530SOL     OW 1963   0.064   1.564   5.055
  530SOL    HW1 1964   0.018   1.646   5.021
  530SOL    HW2 1965   0.162   1.583   5.064
  531SOL     OW 1966   0.367   1.100   4.225
  531SOL    HW1 1967   0.360   1.183   4.169
  531SOL    HW2 1968   0.371   1.020   4.165
  532SOL     OW 1969   0.566   0.537   4.589
  532SOL    HW1 1970   0.578   0.603   4.515
  532SOL    HW2 1971   0.612   0.571   4.672
  533SOL     OW 1972   1.252   1.348   4.112
  533SOL    HW1 1973   1.302   1.425   4.152
  533SOL    HW2 1974   1.157   1.350   4.144
  534SOL     OW 1975   1.272   1.445   4.866
  534SOL    HW1 1976   1.319   1.458   4.953
  534SOL    HW2 1977   1.206   1.371   4.875
  535SOL     OW 1978   1.582   0.639   4.196
  535SOL    HW1 1979   1.551   0.700   4.269
  535SOL    HW2 1980   1.632   0.691   4.127
  536SOL     OW 1981   0.354   1.510   5.053
  536SOL    HW1 1982   0.333   1.466   4.966
  536SOL    HW2 1983   0.451   1.536   5.056
  537SOL     OW 1984   0.402   0.751   5.322
  537SOL    HW1 1985   0.470   0.806   5.275
  537SOL    HW2 1986   0.442   0.663   5.349
  538SOL     OW 1987   1.587   0.779   5.394
  538SOL    HW1 1988   1.495   0.817   5.389
  538SOL    HW2 1989   1.647   0.826   5.329
  539SOL     OW 1990   1.013   0.105   5.494
  539SOL    HW1 1991   1.019   0.190   5.442
  539SOL    HW2 1992   1.045   0.029   5.437
  540SOL     OW 1993   0.504   0.050   5.464
  540SOL    HW1 1994   0.462  -0.007   5.394
  540SOL    HW2 1995   0.438   0.119   5.496
  541SOL     OW 1996   0.573   0.870   4.753
  541SOL    HW1 1997   0.617   0.959   4.744
  541SOL    HW2 1998   0.510   0.870   4.830
  542SOL     OW 1999   1.360   0.862   4.769
  542SOL    HW1 2000   1.285   0.862   4.703
  542SOL    HW2 2001   1.397   0.770   4.778
  543SOL     OW 2002   1.209   0.525   3.999
  543SOL    HW1 2003   1.222   0.441   4.053
  543SOL    HW2 2004   1.180   0.599   4.059
  544SOL     OW 2005   0.307   0.213   4.955
  544SOL    HW1 2006   0.284   0.250   5.045
  544SOL    HW2 2007   0.277   0.118   4.949
  545SOL     OW 2008   0.037   1.310   5.006
  545SOL    HW1 2009   0.090   1.261   5.074
  545SOL    HW2 2010   0.059   1.408   5.011
  546SOL     OW 2011   0.732   0.634   4.788
  546SOL    HW1 2012   0.791   0.608   4.712
  546SOL    HW2 2013   0.704   0.730   4.777
  547SOL     OW 2014   1.728   0.935   5.578
  547SOL    HW1 2015   1.682   0.928   5.489
  547SOL    HW2 2016   1.666   0.979   5.644
  548SOL     OW 2017   0.307   0.063   4.342
  548SOL    HW1 2018   0.296   0.157   4.375
  548SOL    HW2 2019   0.302   0.000   4.419
  549SOL     OW 2020   1.622   0.367   4.098
  549SOL    HW1 2021   1.624   0.291   4.162
  549SOL    HW2 2022   1.574   0.444   4.138
  550SOL     OW 2023   1.023   0.766   4.690
  550SOL    HW1 2024   1.038   0.787   4.786
  550SOL    HW2 2025   0.993   0.671   4.681
  551SOL     OW 2026   0.980   1.573   5.424
  551SOL    HW1 2027   0.960   1.617   5.336
  551SOL    HW2 2028   1.019   1.482   5.408
  552SOL     OW 2029   1.859   1.518   5.329
  552SOL    HW1 2030   1.873   1.545   5.234
  552SOL    HW2 2031   1.942   1.540   5.382
  553SOL     OW 2032   0.350   0.898   5.528
  553SOL    HW1 2033   0.426   0.942   5.576
  553SOL    HW2 2034   0.385   0.851   5.446
  554SOL     OW 2035   1.540   0.274   3.849
  554SOL    HW1 2036   1.479   0.199   3.872
  554SOL    HW2 2037   1.562   0.326   3.932
  555SOL     OW 2038   1.303   0.838   3.766
  555SOL    HW1 2039   1.337   0.745   3.781
  555SOL    HW2 2040   1.321   0.865   3.671
  556SOL     OW 2041   1.068   1.333   4.573
  556SOL    HW1 2042   1.075   1.249   4.518
  556SOL    HW2 2043   1.130   1.402   4.537
  557SOL     OW 2044   0.319   0.810   4.673
  557SOL    HW1 2045   0.412   0.846   4.678
  557SOL    HW2 2046   0.313   0.725   4.725
  558SOL     OW 2047   0.339   0.509   4.730
  558SOL    HW1 2048   0.287   0.426   4.713
  558SOL    HW2 2049   0.416   0.514   4.666
  559SOL     OW 2050   1.138   0.380   5.402
  559SOL    HW1 2051   1.093   0.443   5.466
  559SOL    HW2 2052   1.231   0.411   5.385
  560SOL     OW 2053   1.160   0.207   5.201
  560SOL    HW1 2054   1.160   0.271   5.278
  560SOL    HW2 2055   1.188   0.255   5.118
  561SOL     OW 2056   0.008   1.326   3.924
  561SOL    HW1 2057  -0.085   1.347   3.893
  561SOL    HW2 2058   0.018   1.227   3.937
  562SOL     OW 2059   0.088   1.801   4.651
  562SOL    HW1 2060   0.046   1.715   4.624
  562SOL    HW2 2061   0.182   1.804   4.617
  563SOL     OW 2062   0.504   1.568   4.634
  563SOL    HW1 2063   0.570   1.642   4.643
  563SOL    HW2 2064   0.548   1.489   4.592
  564SOL     OW 2065   1.002   0.796   4.962
  564SOL    HW1 2066   1.043   0.764   5.048
  564SOL    HW2 2067   0.906   0.769   4.959
  565SOL     OW 2068   0.040   0.544   4.838
  565SOL    HW1 2069   0.125   0.511   4.797
  565SOL    HW2 2070   0.053   0.559   4.936
  566SOL     OW 2071   0.189   0.520   5.446
  566SOL    HW1 2072   0.248   0.480   5.376
  566SOL    HW2 2073   0.131   0.591   5.405
  567SOL     OW 2074   1.369   0.950   5.384
  567SOL    HW1 2075   1.408   1.039   5.404
  567SOL    HW2 2076   1.379   0.930   5.287
  568SOL     OW 2077   0.815   0.572   4.049
  568SOL    HW1 2078   0.822   0.483   4.003
  568SOL    HW2 2079   0.721   0.606   4.041
  569SOL     OW 2080   1.657   0.604   4.930
  569SOL    HW1 2081   1.619   0.535   4.992
  569SOL    HW2 2082   1.739   0.568   4.886
  570SOL     OW 2083   0.252   1.564   5.468
  570SOL    HW1 2084   0.222   1.621   5.544
  570SOL    HW2 2085   0.245   1.467   5.494
  571SOL     OW 2086   0.671   0.464   4.993
  571SOL    HW1 2087   0.637   0.375   4.963
  571SOL    HW2 2088   0.697   0.518   4.913
  572SOL     OW 2089   0.930   1.678   5.189
  572SOL    HW1 2090   0.906   1.660   5.094
  572SOL    HW2 2091   0.960   1.772   5.199
  573SOL     OW 2092   0.473   0.500   3.915
  573SOL    HW1 2093   0.534   0.580   3.919
  573SOL    HW2 2094   0.378   0.531   3.922
  574SOL     OW 2095   0.159   1.137   5.190
  574SOL    HW1 2096   0.181   1.076   5.266
  574SOL    HW2 2097   0.169   1.088   5.104
  575SOL     OW 2098   1.347   1.059   4.958
  575SOL    HW1 2099   1.371   0.996   4.884
  575SOL    HW2 2100   1.257   1.099   4.940
  576SOL     OW 2101   1.302   0.855   4.033
  576SOL    HW1 2102   1.216   0.824   4.075
  576SOL    HW2 2103   1.298   0.841   3.934
  577SOL     OW 2104   1.252   1.731   4.852
  577SOL    HW1 2105   1.336   1.736   4.798
  577SOL    HW2 2106   1.229   1.635   4.870
  578SOL     OW 2107   0.083   1.258   4.746
  578SOL    HW1 2108   0.078   1.257   4.846
  578SOL    HW2 2109   0.000   1.217   4.708
  579SOL     OW 2110   0.688   1.662   5.440
  579SOL    HW1 2111   0.632   1.743   5.449
  579SOL    HW2 2112   0.740   1.666   5.354
  580SOL     OW 2113   1.726   0.135   4.247
  580SOL    HW1 2114   1.799   0.118   4.180
  580SOL    HW2 2115   1.695   0.048   4.285
  581SOL     OW 2116   1.388   1.573   4.201
  581SOL    HW1 2117   1.455   1.585   4.127
  581SOL    HW2 2118   1.348   1.662   4.224
  582SOL     OW 2119   0.130   1.794   5.575
  582SOL    HW1 2120   0.089   1.720   5.628
  582SOL    HW2 2121   0.194   1.845   5.633
  583SOL     OW 2122   1.280   0.927   4.396
  583SOL    HW1 2123   1.340   0.846   4.398
  583SOL    HW2 2124   1.320   0.996   4.336
  584SOL     OW 2125   0.830   1.273   5.146
  584SOL    HW1 2126   0.825   1.306   5.241
  584SOL    HW2 2127   0.744   1.292   5.100
  585SOL     OW 2128   0.672   1.616   3.878
  585SOL    HW1 2129   0.681   1.626   3.779
  585SOL    HW2 2130   0.632   1.527   3.899
  586SOL     OW 2131   1.650   1.720   5.118
  586SOL    HW1 2132   1.703   1.730   5.034
  586SOL    HW2 2133   1.623   1.810   5.152
  587SOL     OW 2134   1.841   0.175   4.687
  587SOL    HW1 2135   1.880   0.090   4.651
  587SOL    HW2 2136   1.743   0.177   4.668
  588SOL     OW 2137   0.263   0.326   4.444
  588SOL    HW1 2138   0.184   0.377   4.410
  588SOL    HW2 2139   0.254   0.311   4.542
  589SOL     OW 2140   1.194   1.612   3.755
  589SOL    HW1 2141   1.200   1.519   3.792
  589SOL    HW2 2142   1.135   1.612   3.675
  590SOL     OW 2143   0.822   1.002   5.096
  590SOL    HW1 2144   0.862   1.001   5.004
  590SOL    HW2 2145   0.832   1.094   5.136
  591SOL     OW 2146   0.916   0.910   4.015
  591SOL    HW1 2147   0.979   0.948   3.947
  591SOL    HW2 2148   0.956   0.827   4.054
  592SOL     OW 2149   1.504   1.607   3.768
  592SOL    HW1 2150   1.412   1.644   3.775
  592SOL    HW2 2151   1.542   1.627   3.678
  593SOL     OW 2152   0.372   1.288   5.214
  593SOL    HW1 2153   0.359   1.381   5.180
  593SOL    HW2 2154   0.288   1.236   5.201
  594SOL     OW 2155   1.614   1.292   5.013
  594SOL    HW1 2156   1.674   1.295   5.093
  594SOL    HW2 2157   1.539   1.356   5.026
  595SOL     OW 2158   1.039   1.098   4.420
  595SOL    HW1 2159   0.969   1.051   4.474
  595SOL    HW2 2160   1.098   1.030   4.377
  596SOL     OW 2161   1.014   0.236   4.695
  596SOL    HW1 2162   1.006   0.200   4.602
  596SOL    HW2 2163   1.012   0.160   4.760
  597SOL     OW 2164   0.590   1.487   4.215
  597SOL    HW1 2165   0.632   1.429   4.145
  597SOL    HW2 2166   0.546   1.566   4.171
  598SOL     OW 2167   1.709   0.385   5.105
  598SOL    HW1 2168   1.782   0.454   5.109
  598SOL    HW2 2169   1.737   0.310   5.046
  599SOL     OW 2170   0.255   1.348   4.014
  599SOL    HW1 2171   0.159   1.349   3.987
  599SOL    HW2 2172   0.267   1.401   4.098
  600SOL     OW 2173   0.105   1.013   5.450
  600SOL    HW1 2174   0.028   0.980   5.504
  600SOL    HW2 2175   0.190   0.983   5.492
  601SOL     OW 2176   0.672   0.203   5.213
  601SOL    HW1 2177   0.762   0.187   5.173
  601SOL    HW2 2178   0.680   0.208   5.312
  602SOL     OW 2179   0.075   0.345   3.757
  602SOL    HW1 2180  -0.017   0.317   3.728
  602SOL    HW2 2181   0.106   0.422   3.701
  603SOL     OW 2182   1.440   0.856   5.122
  603SOL    HW1 2183   1.383   0.908   5.059
  603SOL    HW2 2184   1.536   0.868   5.098
  604SOL     OW 2185   0.072   0.166   4.042
  604SOL    HW1 2186   0.055   0.249   3.988
  604SOL    HW2 2187   0.162   0.129   4.020
  605SOL     OW 2188   1.183   1.335   3.843
  605SOL    HW1 2189   1.084   1.324   3.845
  605SOL    HW2 2190   1.217   1.350   3.936
  606SOL     OW 2191   0.613   0.842   5.155
  606SOL    HW1 2192   0.669   0.923   5.138
  606SOL    HW2 2193   0.672   0.762   5.158
  607SOL     OW 2194   1.493   1.767   4.683
  607SOL    HW1 2195   1.526   1.831   4.614
  607SOL    HW2 2196   1.559   1.761   4.758
  608SOL     OW 2197   0.716   0.565   5.432
  608SOL    HW1 2198   0.735   0.630   5.506
  608SOL    HW2 2199   0.776   0.485   5.441
  609SOL     OW 2200   1.450   1.220   5.357
  609SOL    HW1 2201   1.441   1.210   5.456
  609SOL    HW2 2202   1.546   1.213   5.331
  610SOL     OW 2203   0.390   1.741   5.284
  610SOL    HW1 2204   0.299   1.782   5.282
  610SOL    HW2 2205   0.383   1.647   5.316
  611SOL     OW 2206   1.674   0.883   4.978
  611SOL    HW1 2207   1.647   0.794   4.941
  611SOL    HW2 2208   1.675   0.951   4.905
  612SOL     OW 2209   1.225   0.325   4.173
  612SOL    HW1 2210   1.290   0.251   4.162
  612SOL    HW2 2211   1.245   0.375   4.257
  613SOL     OW 2212   0.594   0.745   4.376
  613SOL    HW1 2213   0.644   0.830   4.357
  613SOL    HW2 2214   0.506   0.747   4.328
  614SOL     OW 2215   1.777   0.342   5.366
  614SOL    HW1 2216   1.760   0.373   5.272
  614SOL    HW2 2217   1.693   0.305   5.404
  615SOL     OW 2218   1.730   0.934   5.241
  615SOL    HW1 2219   1.768   1.025   5.256
  615SOL    HW2 2220   1.722   0.917   5.142
  616SOL     OW 2221   0.859   1.374   3.740
  616SOL    HW1 2222   0.813   1.389   3.828
  616SOL    HW2 2223   0.903   1.459   3.710
  617SOL     OW 2224   0.661   1.790   4.677
  617SOL    HW1 2225   0.615   1.878   4.664
  617SOL    HW2 2226   0.760   1.802   4.670
  618SOL     OW 2227   0.859   0.956   4.585
  618SOL    HW1 2228   0.913   0.887   4.633
  618SOL    HW2 2229   0.827   1.025   4.651
  619SOL     OW 2230   1.083   0.984   3.811
  619SOL    HW1 2231   1.060   1.037   3.729
  619SOL    HW2 2232   1.164   0.928   3.792
  620SOL     OW 2233   1.861   1.569   4.575
  620SOL    HW1 2234   1.790   1.557   4.505
  620SOL    HW2 2235   1.862   1.490   4.635
  621SOL     OW 2236   0.221   1.314   5.568
  621SOL    HW1 2237   0.156   1.241   5.547
  621SOL    HW2 2238   0.225   1.328   5.666
  622SOL     OW 2239   0.079   1.240   4.377
  622SOL    HW1 2240   0.078   1.193   4.465
  622SOL    HW2 2241   0.161   1.212   4.326
  623SOL     OW 2242   0.672   1.391   5.348
  623SOL    HW1 2243   0.594   1.341   5.386
  623SOL    HW2 2244   0.669   1.486   5.379
  624SOL     OW 2245   1.824   0.192   4.951
  624SOL    HW1 2246   1.820   0.102   4.995
  624SOL    HW2 2247   1.827   0.181   4.852
  625SOL     OW 2248   0.428   0.424   4.244
  625SOL    HW1 2249   0.458   0.352   4.182
  625SOL    HW2 2250   0.389   0.384   4.327
  626SOL     OW 2251   1.705   1.487   4.828
  626SOL    HW1 2252   1.612   1.462   4.801
  626SOL    HW2 2253   1.731   1.437   4.910
  627SOL     OW 2254   0.317   0.547   5.004
  627SOL    HW1 2255   0.355   0.488   5.076
  627SOL    HW2 2256   0.357   0.521   4.916
  628SOL     OW 2257   0.812   1.586   4.411
  628SOL    HW1 2258   0.844   1.596   4.317
  628SOL    HW2 2259   0.733   1.524   4.413
  629SOL     OW 2260   1.424   0.214   4.836
  629SOL    HW1 2261   1.476   0.149   4.891
  629SOL    HW2 2262   1.375   0.277   4.897
  630SOL     OW 2263   1.001   0.034   4.878
  630SOL    HW1 2264   0.938  -0.038   4.847
  630SOL    HW2 2265   1.094  -0.002   4.878
  631SOL     OW 2266   0.770   1.330   4.025
  631SOL    HW1 2267   0.724   1.243   4.042
  631SOL    HW2 2268   0.861   1.327   4.066
  632SOL     OW 2269   0.618   1.567   5.008
  632SOL    HW1 2270   0.613   1.649   5.065
  632SOL    HW2 2271   0.707   1.564   4.963
  633SOL     OW 2272   1.352   0.052   3.892
  633SOL    HW1 2273   1.387   0.011   3.808
  633SOL    HW2 2274   1.262   0.014   3.912
  634SOL     OW 2275   1.300   0.453   4.415
  634SOL    HW1 2276   1.241   0.533   4.419
  634SOL    HW2 2277   1.315   0.418   4.508
  635SOL     OW 2278   1.593   0.221   4.606
  635SOL    HW1 2279   1.509   0.220   4.660
  635SOL    HW2 2280   1.595   0.304   4.550
  636SOL     OW 2281   0.039   1.077   4.024
  636SOL    HW1 2282   0.138   1.066   4.015
  636SOL    HW2 2283  -0.001   0.991   4.056
  637SOL     OW 2284   0.875   1.646   4.061
  637SOL    HW1 2285   0.798   1.611   4.007
  637SOL    HW2 2286   0.843   1.717   4.123
  638SOL     OW 2287   0.230   0.628   5.699
  638SOL    HW1 2288   0.137   0.626   5.736
  638SOL    HW2 2289   0.231   0.589   5.607
  639SOL     OW 2290   0.225   0.275   6.582
  639SOL    HW1 2291   0.260   0.258   6.674
  639SOL    HW2 2292   0.137   0.230   6.570
  640SOL     OW 2293   0.019   0.368   6.233
  640SOL    HW1 2294  -0.063   0.411   6.272
  640SOL    HW2 2295  -0.009   0.295   6.170
  641SOL     OW 2296   0.569   1.275   6.751
  641SOL    HW1 2297   0.476   1.268   6.714
  641SOL    HW2 2298   0.580   1.364   6.795
  642SOL     OW 2299   1.555   1.511   6.289
  642SOL    HW1 2300   1.498   1.495   6.370
  642SOL    HW2 2301   1.496   1.521   6.209
  643SOL     OW 2302   1.135   0.703   6.303
  643SOL    HW1 2303   1.192   0.781   6.278
  643SOL    HW2 2304   1.075   0.729   6.379
  644SOL     OW 2305   1.755   0.607   5.817
  644SOL    HW1 2306   1.743   0.594   5.718
  644SOL    HW2 2307   1.725   0.526   5.866
  645SOL     OW 2308   0.768   1.144   6.609
  645SOL    HW1 2309   0.690   1.161   6.669
  645SOL    HW2 2310   0.802   1.231   6.573
  646SOL     OW 2311   0.850   0.798   7.409
  646SOL    HW1 2312   0.846   0.874   7.474
  646SOL    HW2 2313   0.872   0.834   7.318
  647SOL     OW 2314   0.685   1.012   6.251
  647SOL    HW1 2315   0.754   0.996   6.321
  647SOL    HW2 2316   0.612   1.069   6.289
  648SOL     OW 2317   0.686   1.161   7.389
  648SOL    HW1 2318   0.746   1.240   7.403
  648SOL    HW2 2319   0.600   1.192   7.348
  649SOL     OW 2320   0.335   1.435   6.647
  649SOL    HW1 2321   0.257   1.404   6.594
  649SOL    HW2 2322   0.393   1.493   6.590
  650SOL     OW 2323   1.460   1.505   6.925
  650SOL    HW1 2324   1.484   1.599   6.951
  650SOL    HW2 2325   1.444   1.451   7.007
  651SOL     OW 2326   0.438   0.392   7.085
  651SOL    HW1 2327   0.520   0.336   7.094
  651SOL    HW2 2328   0.357   0.334   7.089
  652SOL     OW 2329   1.603   0.447   6.323
  652SOL    HW1 2330   1.529   0.493   6.273
  652SOL    HW2 2331   1.654   0.515   6.376
  653SOL     OW 2332   0.231   1.713   6.069
  653SOL    HW1 2333   0.265   1.790   6.123
  653SOL    HW2 2334   0.275   1.713   5.979
  654SOL     OW 2335   1.127   1.341   7.276
  654SOL    HW1 2336   1.174   1.341   7.364
  654SOL    HW2 2337   1.079   1.254   7.265
  655SOL     OW 2338   0.230   1.434   6.124
  655SOL    HW1 2339   0.204   1.530   6.124
  655SOL    HW2 2340   0.159   1.380   6.169
  656SOL     OW 2341   0.240   1.091   6.472
  656SOL    HW1 2342   0.254   1.007   6.524
  656SOL    HW2 2343   0.185   1.155   6.527
  657SOL     OW 2344   0.620   1.786   7.025
  657SOL    HW1 2345   0.528   1.769   7.060
  657SOL    HW2 2346   0.648   1.878   7.051
  658SOL     OW 2347   0.606   0.964   5.709
  658SOL    HW1 2348   0.613   1.048   5.655
  658SOL    HW2 2349   0.652   0.977   5.797
  659SOL     OW 2350   1.594   0.114   7.066
  659SOL    HW1 2351   1.576   0.181   6.994
  659SOL    HW2 2352   1.591   0.160   7.155
  660SOL     OW 2353   0.122   0.643   6.149
  660SOL    HW1 2354   0.077   0.555   6.166
  660SOL    HW2 2355   0.121   0.697   6.233
  661SOL     OW 2356   1.842   1.767   5.945
  661SOL    HW1 2357   1.896   1.738   6.025
  661SOL    HW2 2358   1.872   1.857   5.916
  662SOL     OW 2359   0.027   1.596   5.703
  662SOL    HW1 2360   0.008   1.500   5.724
  662SOL    HW2 2361  -0.006   1.654   5.778
  663SOL     OW 2362   1.689   0.922   6.198
  663SOL    HW1 2363   1.784   0.893   6.206
  663SOL    HW2 2364   1.681   0.987   6.123
  664SOL     OW 2365   1.641   1.108   6.018
  664SOL    HW1 2366   1.727   1.110   5.966
  664SOL    HW2 2367   1.655   1.155   6.106
  665SOL     OW 2368   0.113   0.737   7.183
  665SOL    HW1 2369   0.201   0.724   7.228
  665SOL    HW2 2370   0.100   0.834   7.161
  666SOL     OW 2371   0.613   1.365   6.312
  666SOL    HW1 2372   0.564   1.278   6.321
  666SOL    HW2 2373   0.590   1.408   6.225
  667SOL     OW 2374   1.293   1.228   7.009
  667SOL    HW1 2375   1.330   1.155   6.951
  667SOL    HW2 2376   1.345   1.233   7.094
  668SOL     OW 2377   0.809   0.004   6.088
  668SOL    HW1 2378   0.849   0.095   6.079
  668SOL    HW2 2379   0.709   0.012   6.094
  669SOL     OW 2380   0.197   0.976   6.850
  669SOL    HW1 2381   0.286   0.931   6.836
  669SOL    HW2 2382   0.124   0.911   6.831
  670SOL     OW 2383   1.525   0.999   5.776
  670SOL    HW1 2384   1.462   0.923   5.789
  670SOL    HW2 2385   1.573   1.017   5.862
  671SOL     OW 2386   1.187   1.792   7.202
  671SOL    HW1 2387   1.211   1.852   7.126
  671SOL    HW2 2388   1.194   1.697   7.172
  672SOL     OW 2389   0.317   0.251   7.387
  672SOL    HW1 2390   0.388   0.322   7.393
  672SOL    HW2 2391   0.229   0.290   7.415
  673SOL     OW 2392   1.466   1.417   6.539
  673SOL    HW1 2393   1.407   1.423   6.619
  673SOL    HW2 2394   1.451   1.329   6.493
  674SOL     OW 2395   1.667   1.714   6.158
  674SOL    HW1 2396   1.626   1.691   6.070
  674SOL    HW2 2397   1.649   1.640   6.223
  675SOL     OW 2398   0.598   0.729   5.856
  675SOL    HW1 2399   0.622   0.798   5.788
  675SOL    HW2 2400   0.520   0.762   5.910
  676SOL     OW 2401   1.281   0.345   6.530
  676SOL    HW1 2402   1.195   0.295   6.517
  676SOL    HW2 2403   1.343   0.291   6.586
  677SOL     OW 2404   1.576   1.662   5.893
  677SOL    HW1 2405   1.665   1.708   5.896
  677SOL    HW2 2406   1.555   1.638   5.798
  678SOL     OW 2407   0.807   0.605   7.051
  678SOL    HW1 2408   0.760   0.602   7.140
  678SOL    HW2 2409   0.756   0.550   6.985
  679SOL     OW 2410   1.394   0.469   7.260
  679SOL    HW1 2411   1.374   0.512   7.348
  679SOL    HW2 2412   1.472   0.407   7.269
  680SOL     OW 2413   0.973   0.890   7.158
  680SOL    HW1 2414   1.019   0.806   7.129
  680SOL    HW2 2415   0.917   0.924   7.083
  681SOL     OW 2416   0.991   0.410   6.828
  681SOL    HW1 2417   0.914   0.444   6.882
  681SOL    HW2 2418   0.957   0.359   6.749
  682SOL     OW 2419   1.041   0.701   6.015
  682SOL    HW1 2420   1.067   0.697   6.111
  682SOL    HW2 2421   0.956   0.650   6.001
  683SOL     OW 2422   0.076   0.811   6.375
  683SOL    HW1 2423   0.175   0.799   6.384
  683SOL    HW2 2424   0.052   0.906   6.396
  684SOL     OW 2425   0.130   1.821   7.157
  684SOL    HW1 2426   0.120   1.806   7.256
  684SOL    HW2 2427   0.044   1.857   7.121
  685SOL     OW 2428   0.865   0.348   5.781
  685SOL    HW1 2429   0.924   0.411   5.732
  685SOL    HW2 2430   0.884   0.254   5.752
  686SOL     OW 2431   1.719   0.585   7.417
  686SOL    HW1 2432   1.693   0.674   7.381
  686SOL    HW2 2433   1.717   0.517   7.344
  687SOL     OW 2434   1.362   1.144   6.131
  687SOL    HW1 2435   1.445   1.115   6.083
  687SOL    HW2 2436   1.313   1.211   6.075
  688SOL     OW 2437   0.550   0.196   6.471
  688SOL    HW1 2438   0.545   0.191   6.571
  688SOL    HW2 2439   0.552   0.292   6.442
  689SOL     OW 2440   1.008   1.456   6.063
  689SOL    HW1 2441   0.962   1.528   6.011
  689SOL    HW2 2442   1.004   1.476   6.161
  690SOL     OW 2443   0.351   1.801   6.439
  690SOL    HW1 2444   0.401   1.715   6.445
  690SOL    HW2 2445   0.416   1.878   6.436
  691SOL     OW 2446   1.795   1.066   6.459
  691SOL    HW1 2447   1.733   1.051   6.383
  691SOL    HW2 2448   1.743   1.077   6.544
  692SOL     OW 2449   1.227   1.550   7.092
  692SOL    HW1 2450   1.233   1.473   7.156
  692SOL    HW2 2451   1.175   1.524   7.012
  693SOL     OW 2452   0.321   0.943   5.828
  693SOL    HW1 2453   0.403   0.982   5.786
  693SOL    HW2 2454   0.294   0.861   5.779
  694SOL     OW 2455   1.458   0.735   6.314
  694SOL    HW1 2456   1.453   0.670   6.389
  694SOL    HW2 2457   1.538   0.794   6.327
  695SOL     OW 2458   0.461   1.266   7.313
  695SOL    HW1 2459   0.411   1.267   7.227
  695SOL    HW2 2460   0.398   1.248   7.389
  696SOL     OW 2461   1.111   1.776   5.823
  696SOL    HW1 2462   1.051   1.714   5.873
  696SOL    HW2 2463   1.142   1.732   5.738
  697SOL     OW 2464   0.202   0.285   7.084
  697SOL    HW1 2465   0.122   0.345   7.071
  697SOL    HW2 2466   0.192   0.236   7.170
  698SOL     OW 2467   1.632   1.377   5.667
  698SOL    HW1 2468   1.600   1.471   5.657
  698SOL    HW2 2469   1.556   1.314   5.655
  699SOL     OW 2470   0.464   1.743   5.909
  699SOL    HW1 2471   0.497   1.782   5.995
  699SOL    HW2 2472   0.540   1.736   5.844
  700SOL     OW 2473   1.400   0.107   6.012
  700SOL    HW1 2474   1.376   0.070   5.922
  700SOL    HW2 2475   1.499   0.123   6.016
  701SOL     OW 2476   0.249   1.785   6.827
  701SOL    HW1 2477   0.306   1.720   6.877
  701SOL    HW2 2478   0.233   1.752   6.734
  702SOL     OW 2479   0.940   1.698   6.490
  702SOL    HW1 2480   1.020   1.641   6.511
  702SOL    HW2 2481   0.891   1.658   6.413
  703SOL     OW 2482   0.382   0.700   6.066
  703SOL    HW1 2483   0.427   0.610   6.063
  703SOL    HW2 2484   0.288   0.689   6.099
  704SOL     OW 2485   1.547   0.222   7.315
  704SOL    HW1 2486   1.542   0.259   7.407
  704SOL    HW2 2487   1.475   0.153   7.303
  705SOL     OW 2488   0.614   0.122   5.703
  705SOL    HW1 2489   0.712   0.100   5.710
  705SOL    HW2 2490   0.583   0.105   5.610
  706SOL     OW 2491   0.781   0.264   7.335
  706SOL    HW1 2492   0.848   0.203   7.378
  706SOL    HW2 2493   0.708   0.283   7.400
  707SOL     OW 2494   0.888   1.514   6.781
  707SOL    HW1 2495   0.865   1.489   6.687
  707SOL    HW2 2496   0.949   1.445   6.820
  708SOL     OW 2497   1.351   0.590   7.019
  708SOL    HW1 2498   1.379   0.547   7.104
  708SOL    HW2 2499   1.376   0.686   7.020
  709SOL     OW 2500   0.803   1.402   6.510
  709SOL    HW1 2501   0.893   1.416   6.468
  709SOL    HW2 2502   0.732   1.404   6.439
  710SOL     OW 2503   0.922   0.503   6.485
  710SOL    HW1 2504   0.897   0.494   6.389
  710SOL    HW2 2505   0.970   0.421   6.516
  711SOL     OW 2506   0.539   0.064   6.098
  711SOL    HW1 2507   0.458   0.065   6.156
  711SOL    HW2 2508   0.542   0.147   6.043
  712SOL     OW 2509   1.434   1.188   5.627
  712SOL    HW1 2510   1.466   1.112   5.684
  712SOL    HW2 2511   1.342   1.215   5.657
  713SOL     OW 2512   0.297   0.035   5.757
  713SOL    HW1 2513   0.346   0.119   5.736
  713SOL    HW2 2514   0.359  -0.030   5.802
  714SOL     OW 2515   0.935   0.236   6.066
  714SOL    HW1 2516   0.887   0.277   5.988
  714SOL    HW2 2517   1.034   0.234   6.047
  715SOL     OW 2518   1.076   0.683   7.050
  715SOL    HW1 2519   0.996   0.622   7.053
  715SOL    HW2 2520   1.157   0.630   7.026
  716SOL     OW 2521   1.227   1.570   6.379
  716SOL    HW1 2522   1.248   1.644   6.314
  716SOL    HW2 2523   1.295   1.570   6.452
  717SOL     OW 2524   0.459   1.152   6.327
  717SOL    HW1 2525   0.388   1.125   6.392
  717SOL    HW2 2526   0.433   1.124   6.234
  718SOL     OW 2527   1.271   1.797   6.177
  718SOL    HW1 2528   1.315   1.861   6.113
  718SOL    HW2 2529   1.221   1.849   6.247
  719SOL     OW 2530   1.032   0.549   5.602
  719SOL    HW1 2531   0.991   0.631   5.563
  719SOL    HW2 2532   1.096   0.575   5.675
  720SOL     OW 2533   0.078   0.556   6.972
  720SOL    HW1 2534   0.170   0.555   6.931
  720SOL    HW2 2535   0.072   0.630   7.039
  721SOL     OW 2536   0.561   0.222   6.733
  721SOL    HW1 2537   0.599   0.138   6.770
  721SOL    HW2 2538   0.473   0.241   6.777
  722SOL     OW 2539   0.866   0.454   6.228
  722SOL    HW1 2540   0.834   0.526   6.166
  722SOL    HW2 2541   0.890   0.373   6.175
  723SOL     OW 2542   1.017   0.039   6.339
  723SOL    HW1 2543   0.945   0.044   6.270
  723SOL    HW2 2544   0.993  -0.030   6.408
  724SOL     OW 2545   1.429   1.173   6.453
  724SOL    HW1 2546   1.374   1.089   6.446
  724SOL    HW2 2547   1.455   1.202   6.361
  725SOL     OW 2548   1.466   0.590   6.578
  725SOL    HW1 2549   1.436   0.495   6.585
  725SOL    HW2 2550   1.539   0.606   6.644
  726SOL     OW 2551   1.857   0.833   5.963
  726SOL    HW1 2552   1.899   0.769   6.027
  726SOL    HW2 2553   1.819   0.782   5.885
  727SOL     OW 2554   0.488   1.385   5.760
  727SOL    HW1 2555   0.401   1.370   5.807
  727SOL    HW2 2556   0.471   1.411   5.665
  728SOL     OW 2557   1.664   1.280   6.243
  728SOL    HW1 2558   1.763   1.288   6.257
  728SOL    HW2 2559   1.619   1.364   6.274
  729SOL     OW 2560   1.390   0.575   5.664
  729SOL    HW1 2561   1.336   0.554   5.745
  729SOL    HW2 2562   1.481   0.534   5.673
  730SOL     OW 2563   0.527   0.256   5.914
  730SOL    HW1 2564   0.554   0.197   5.839
  730SOL    HW2 2565   0.527   0.351   5.883
  731SOL     OW 2566   1.754   1.223   7.174
  731SOL    HW1 2567   1.845   1.184   7.161
  731SOL    HW2 2568   1.762   1.319   7.198
  732SOL     OW 2569   1.064   1.347   6.926
  732SOL    HW1 2570   0.984   1.324   6.981
  732SOL    HW2 2571   1.147   1.321   6.975
  733SOL     OW 2572   1.592   1.629   7.211
  733SOL    HW1 2573   1.619   1.663   7.121
  733SOL    HW2 2574   1.671   1.591   7.257
  734SOL     OW 2575   1.111   1.195   6.686
  734SOL    HW1 2576   1.071   1.239   6.767
  734SOL    HW2 2577   1.070   1.232   6.603
  735SOL     OW 2578   1.638   1.099   6.665
  735SOL    HW1 2579   1.643   1.180   6.724
  735SOL    HW2 2580   1.552   1.101   6.614
  736SOL     OW 2581   0.915   0.089   6.988
  736SOL    HW1 2582   0.940   0.069   6.893
  736SOL    HW2 2583   0.987   0.145   7.030
  737SOL     OW 2584   0.980   1.116   7.305
  737SOL    HW1 2585   0.881   1.122   7.315
  737SOL    HW2 2586   1.003   1.036   7.249
  738SOL     OW 2587   0.705   1.050   5.954
  738SOL    HW1 2588   0.691   1.057   6.053
  738SOL    HW2 2589   0.789   0.999   5.936
  739SOL     OW 2590   0.410   0.813   6.837
  739SOL    HW1 2591   0.496   0.825   6.887
  739SOL    HW2 2592   0.368   0.726   6.864
  740SOL     OW 2593   1.274   0.386   6.848
  740SOL    HW1 2594   1.295   0.460   6.912
  740SOL    HW2 2595   1.185   0.403   6.805
  741SOL     OW 2596   0.064   1.564   6.917
  741SOL    HW1 2597   0.018   1.646   6.883
  741SOL    HW2 2598   0.162   1.583   6.926
  742SOL     OW 2599   0.367   1.100   6.087
  742SOL    HW1 2600   0.360   1.183   6.031
  742SOL    HW2 2601   0.371   1.020   6.027
  743SOL     OW 2602   0.566   0.537   6.451
  743SOL    HW1 2603   0.578   0.603   6.377
  743SOL    HW2 2604   0.612   0.571   6.534
  744SOL     OW 2605   1.252   1.348   5.974
  744SOL    HW1 2606   1.302   1.425   6.014
  744SOL    HW2 2607   1.157   1.350   6.006
  745SOL     OW 2608   1.272   1.445   6.728
  745SOL    HW1 2609   1.319   1.458   6.815
  745SOL    HW2 2610   1.206   1.371   6.737
  746SOL     OW 2611   1.582   0.639   6.058
  746SOL    HW1 2612   1.551   0.700   6.131
  746SOL    HW2 2613   1.632   0.691   5.989
  747SOL     OW 2614   0.354   1.510   6.915
  747SOL    HW1 2615   0.333   1.466   6.828
  747SOL    HW2 2616   0.451   1.536   6.918
  748SOL     OW 2617   0.402   0.751   7.184
  748SOL    HW1 2618   0.470   0.806   7.137
  748SOL    HW2 2619   0.442   0.663   7.211
  749SOL     OW 2620   1.587   0.779   7.256
  749SOL    HW1 2621   1.495   0.817   7.251
  749SOL    HW2 2622   1.647   0.826   7.191
  750SOL     OW 2623   1.013   0.105   7.356
  750SOL    HW1 2624   1.019   0.190   7.304
  750SOL    HW2 2625   1.045   0.029   7.299
  751SOL     OW 2626   0.504   0.050   7.326
  751SOL    HW1 2627   0.462  -0.007   7.256
  751SOL    HW2 2628   0.438   0.119   7.358
  752SOL     OW 2629   0.573   0.870   6.615
  752SOL    HW1 2630   0.617   0.959   6.606
  752SOL    HW2 2631   0.510   0.870   6.692
  753SOL     OW 2632   1.360   0.862   6.631
  753SOL    HW1 2633   1.285   0.862   6.565
  753SOL    HW2 2634   1.397   0.770   6.640
  754SOL     OW 2635   1.209   0.525   5.861
  754SOL    HW1 2636   1.222   0.441   5.915
  754SOL    HW2 2637   1.180   0.599   5.921
  755SOL     OW 2638   0.307   0.213   6.817
  755SOL    HW1 2639   0.284   0.250   6.907
  755SOL    HW2 2640   0.277   0.118   6.811
  756SOL     OW 2641   0.037   1.310   6.868
  756SOL    HW1 2642   0.090   1.261   6.936
  756SOL    HW2 2643   0.059   1.408   6.873
  757SOL     OW 2644   0.732   0.634   6.650
  757SOL    HW1 2645   0.791   0.608   6.574
  757SOL    HW2 2646   0.704   0.730   6.639
  758SOL     OW 2647   1.728   0.935   7.440
  758SOL    HW1 2648   1.682   0.928   7.351
  758SOL    HW2 2649   1.666   0.979   7.506
  759SOL     OW 2650   0.307   0.063   6.204
  759SOL    HW1 2651   0.296   0.157   6.237
  759SOL    HW2 2652   0.302   0.000   6.281
  760SOL     OW 2653   1.622   0.367   5.960
  760SOL    HW1 2654   1.624   0.291   6.024
  760SOL    HW2 2655   1.574   0.444   6.000
  761SOL     OW 2656   1.023   0.766   6.552
  761SOL    HW1 2657   1.038   0.787   6.648
  761SOL    HW2 2658   0.993   0.671   6.543
  762SOL     OW 2659   0.980   1.573   7.286
  762SOL    HW1 2660   0.960   1.617   7.198
  762SOL    HW2 2661   1.019   1.482   7.270
  763SOL     OW 2662   1.859   1.518   7.191
  763SOL    HW1 2663   1.873   1.545   7.096
  763SOL    HW2 2664   1.942   1.540   7.244
  764SOL     OW 2665   0.350   0.898   7.390
  764SOL    HW1 2666   0.426   0.942   7.438
  764SOL    HW2 2667   0.385   0.851   7.308
  765SOL     OW 2668   1.540   0.274   5.711
  765SOL    HW1 2669   1.479   0.199   5.734
  765SOL    HW2 2670   1.562   0.326   5.794
  766SOL     OW 2671   1.303   0.838   5.628
  766SOL    HW1 2672   1.337   0.745   5.643
  766SOL    HW2 2673   1.321   0.865   5.533
  767SOL     OW 2674   1.068   1.333   6.435
  767SOL    HW1 2675   1.075   1.249   6.380
  767SOL    HW2 2676   1.130   1.402   6.399
  768SOL     OW 2677   0.319   0.810   6.535
  768SOL    HW1 2678   0.412   0.846   6.540
  768SOL    HW2 2679   0.313   0.725   6.587
  769SOL     OW 2680   0.339   0.509   6.592
  769SOL    HW1 2681   0.287   0.426   6.575
  769SOL    HW2 2682   0.416   0.514   6.528
  770SOL     OW 2683   1.138   0.380   7.264
  770SOL    HW1 2684   1.093   0.443   7.328
  770SOL    HW2 2685   1.231   0.411   7.247
  771SOL     OW 2686   1.160   0.207   7.063
  771SOL    HW1 2687   1.160   0.271   7.140
  771SOL    HW2 2688   1.188   0.255   6.980
  772SOL     OW 2689   0.008   1.326   5.786
  772SOL    HW1 2690  -0.085   1.347   5.755
  772SOL    HW2 2691   0.018   1.227   5.799
  773SOL     OW 2692   0.088   1.801   6.513
  773SOL    HW1 2693   0.046   1.715   6.486
  773SOL    HW2 2694   0.182   1.804   6.479
  774SOL     OW 2695   0.504   1.568   6.496
  774SOL    HW1 2696   0.570   1.642   6.505
  774SOL    HW2 2697   0.548   1.489   6.454
  775SOL     OW 2698   1.002   0.796   6.824
  775SOL    HW1 2699   1.043   0.764   6.910
  775SOL    HW2 2700   0.906   0.769   6.821
  776SOL     OW 2701   0.040   0.544   6.700
  776SOL    HW1 2702   0.125   0.511   6.659
  776SOL    HW2 2703   0.053   0.559   6.798
  777SOL     OW 2704   0.189   0.520   7.308
  777SOL    HW1 2705   0.248   0.480   7.238
  777SOL    HW2 2706   0.131   0.591   7.267
  778SOL     OW 2707   1.369   0.950   7.246
  778SOL    HW1 2708   1.408   1.039   7.266
  778SOL    HW2 2709   1.379   0.930   7.149
  779SOL     OW 2710   0.815   0.572   5.911
  779SOL    HW1 2711   0.822   0.483   5.865
  779SOL    HW2 2712   0.721   0.606   5.903
  780SOL     OW 2713   1.657   0.604   6.792
  780SOL    HW1 2714   1.619   0.535   6.854
  780SOL    HW2 2715   1.739   0.568   6.748
  781SOL     OW 2716   0.252   1.564   7.330
  781SOL    HW1 2717   0.222   1.621   7.406
  781SOL    HW2 2718   0.245   1.467   7.356
  782SOL     OW 2719   0.671   0.464   6.855
  782SOL    HW1 2720   0.637   0.375   6.825
  782SOL    HW2 2721   0.697   0.518   6.775
  783SOL     OW 2722   0.930   1.678   7.051
  783SOL    HW1 2723   0.906   1.660   6.956
  783SOL    HW2 2724   0.960   1.772   7.061
  784SOL     OW 2725   0.473   0.500   5.777
  784SOL    HW1 2726   0.534   0.580   5.781
  784SOL    HW2 2727   0.378   0.531   5.784
  785SOL     OW 2728   0.159   1.137   7.052
  785SOL    HW1 2729   0.181   1.076   7.128
  785SOL    HW2 2730   0.169   1.088   6.966
  786SOL     OW 2731   1.347   1.059   6.820
  786SOL    HW1 2732   1.371   0.996   6.746
  786SOL    HW2 2733   1.257   1.099   6.802
  787SOL     OW 2734   1.302   0.855   5.895
  787SOL    HW1 2735   1.216   0.824   5.937
  787SOL    HW2 2736   1.298   0.841   5.796
  788SOL     OW 2737   1.759   1.747   6.740
  788SOL    HW1 2738   1.820   1.777   6.667
  788SOL    HW2 2739   1.721   1.658   6.718
  789SOL     OW 2740   1.252   1.731   6.714
  789SOL    HW1 2741   1.336   1.736   6.660
  789SOL    HW2 2742   1.229   1.635   6.732
  790SOL     OW 2743   0.083   1.258   6.608
  790SOL    HW1 2744   0.078   1.257   6.708
  790SOL    HW2 2745   0.000   1.217   6.570
  791SOL     OW 2746   0.688   1.662   7.302
  791SOL    HW1 2747   0.632   1.743   7.311
  791SOL    HW2 2748   0.740   1.666   7.216
  792SOL     OW 2749   1.726   0.135   6.109
  792SOL    HW1 2750   1.799   0.118   6.042
  792SOL    HW2 2751   1.695   0.048   6.147
  793SOL     OW 2752   1.388   1.573   6.063
  793SOL    HW1 2753   1.455   1.585   5.989
  793SOL    HW2 2754   1.348   1.662   6.086
  794SOL     OW 2755   0.130   1.794   7.437
  794SOL    HW1 2756   0.089   1.720   7.490
  794SOL    HW2 2757   0.194   1.845   7.495
  795SOL     OW 2758   1.280   0.927   6.258
  795SOL    HW1 2759   1.340   0.846   6.260
  795SOL    HW2 2760   1.320   0.996   6.198
  796SOL     OW 2761   0.830   1.273   7.008
  796SOL    HW1 2762   0.825   1.306   7.103
  796SOL    HW2 2763   0.744   1.292   6.962
  797SOL     OW 2764   0.672   1.616   5.740
  797SOL    HW1 2765   0.681   1.626   5.641
  797SOL    HW2 2766   0.632   1.527   5.761
  798SOL     OW 2767   1.650   1.720   6.980
  798SOL    HW1 2768   1.703   1.730   6.896
  798SOL    HW2 2769   1.623   1.810   7.014
  799SOL     OW 2770   1.841   0.175   6.549
  799SOL    HW1 2771   1.880   0.090   6.513
  799SOL    HW2 2772   1.743   0.177   6.530
  800SOL     OW 2773   0.263   0.326   6.306
  800SOL    HW1 2774   0.184   0.377   6.272
  800SOL    HW2 2775   0.254   0.311   6.404
  801SOL     OW 2776   1.194   1.612   5.617
  801SOL    HW1 2777   1.200   1.519   5.654
  801SOL    HW2 2778   1.135   1.612   5.537
  802SOL     OW 2779   0.822   1.002   6.958
  802SOL    HW1 2780   0.862   1.001   6.866
  802SOL    HW2 2781   0.832   1.094   6.998
  803SOL     OW 2782   0.916   0.910   5.877
  803SOL    HW1 2783   0.979   0.948   5.809
  803SOL    HW2 2784   0.956   0.827   5.916
  804SOL     OW 2785   1.504   1.607   5.630
  804SOL    HW1 2786   1.412   1.644   5.637
  804SOL    HW2 2787   1.542   1.627   5.540
  805SOL     OW 2788   0.372   1.288   7.076
  805SOL    HW1 2789   0.359   1.381   7.042
  805SOL    HW2 2790   0.288   1.236   7.063
  806SOL     OW 2791   1.614   1.292   6.875
  806SOL    HW1 2792   1.674   1.295   6.955
  806SOL    HW2 2793   1.539   1.356   6.888
  807SOL     OW 2794   1.039   1.098   6.282
  807SOL    HW1 2795   0.969   1.051   6.336
  807SOL    HW2 2796   1.098   1.030   6.239
  808SOL     OW 2797   1.014   0.236   6.557
  808SOL    HW1 2798   1.006   0.200   6.464
  808SOL    HW2 2799   1.012   0.160   6.622
  809SOL     OW 2800   0.590   1.487   6.077
  809SOL    HW1 2801   0.632   1.429   6.007
  809SOL    HW2 2802   0.546   1.566   6.033
  810SOL     OW 2803   1.709   0.385   6.967
  810SOL    HW1 2804   1.782   0.454   6.971
  810SOL    HW2 2805   1.737   0.310   6.908
  811SOL     OW 2806   0.255   1.348   5.876
  811SOL    HW1 2807   0.159   1.349   5.849
  811SOL    HW2 2808   0.267   1.401   5.960
  812SOL     OW 2809   0.105   1.013   7.312
  812SOL    HW1 2810   0.028   0.980   7.366
  812SOL    HW2 2811   0.190   0.983   7.354
  813SOL     OW 2812   0.672   0.203   7.075
  813SOL    HW1 2813   0.762   0.187   7.035
  813SOL    HW2 2814   0.680   0.208   7.174
  814SOL     OW 2815   0.075   0.345   5.619
  814SOL    HW1 2816  -0.017   0.317   5.590
  814SOL    HW2 2817   0.106   0.422   5.563
  815SOL     OW 2818   1.440   0.856   6.984
  815SOL    HW1 2819   1.383   0.908   6.921
  815SOL    HW2 2820   1.536   0.868   6.960
  816SOL     OW 2821   0.072   0.166   5.904
  816SOL    HW1 2822   0.055   0.249   5.850
  816SOL    HW2 2823   0.162   0.129   5.882
  817SOL     OW 2824   1.183   1.335   5.705
  817SOL    HW1 2825   1.084   1.324   5.707
  817SOL    HW2 2826   1.217   1.350   5.798
  818SOL     OW 2827   0.613   0.842   7.017
  818SOL    HW1 2828   0.669   0.923   7.000
  818SOL    HW2 2829   0.672   0.762   7.020
  819SOL     OW 2830   1.493   1.767   6.545
  819SOL    HW1 2831   1.526   1.831   6.476
  819SOL    HW2 2832   1.559   1.761   6.620
  820SOL     OW 2833   0.716   0.565   7.294
  820SOL    HW1 2834   0.735   0.630   7.368
  820SOL    HW2 2835   0.776   0.485   7.303
  821SOL     OW 2836   1.450   1.220   7.219
  821SOL    HW1 2837   1.441   1.210   7.318
  821SOL    HW2 2838   1.546   1.213   7.193
  822SOL     OW 2839   0.390   1.741   7.146
  822SOL    HW1 2840   0.299   1.782   7.144
  822SOL    HW2 2841   0.383   1.647   7.178
  823SOL     OW 2842   1.674   0.883   6.840
  823SOL    HW1 2843   1.647   0.794   6.803
  823SOL    HW2 2844   1.675   0.951   6.767
  824SOL     OW 2845   1.225   0.325   6.035
  824SOL    HW1 2846   1.290   0.251   6.024
  824SOL    HW2 2847   1.245   0.375   6.119
  825SOL     OW 2848   0.594   0.745   6.238
  825SOL    HW1 2849   0.644   0.830   6.219
  825SOL    HW2 2850   0.506   0.747   6.190
  826SOL     OW 2851   1.777   0.342   7.228
  826SOL    HW1 2852   1.760   0.373   7.134
  826SOL    HW2 2853   1.693   0.305   7.266
  827SOL     OW 2854   1.730   0.934   7.103
  827SOL    HW1 2855   1.768   1.025   7.118
  827SOL    HW2 2856   1.722   0.917   7.004
  828SOL     OW 2857   0.859   1.374   5.602
  828SOL    HW1 2858   0.813   1.389   5.690
  828SOL    HW2 2859   0.903   1.459   5.572
  829SOL     OW 2860   0.661   1.790   6.539
  829SOL    HW1 2861   0.615   1.878   6.526
  829SOL    HW2 2862   0.760   1.802   6.532
  830SOL     OW 2863   0.859   0.956   6.447
  830SOL    HW1 2864   0.913   0.887   6.495
  830SOL    HW2 2865   0.827   1.025   6.513
  831SOL     OW 2866   1.083   0.984   5.673
  831SOL    HW1 2867   1.060   1.037   5.591
  831SOL    HW2 2868   1.164   0.928   5.654
  832SOL     OW 2869   1.861   1.569   6.437
  832SOL    HW1 2870   1.790   1.557   6.367
  832SOL    HW2 2871   1.862   1.490   6.497
  833SOL     OW 2872   0.221   1.314   7.430
  833SOL    HW1 2873   0.156   1.241   7.409
  833SOL    HW2 2874   0.225   1.328   7.528
  834SOL     OW 2875   0.079   1.240   6.239
  834SOL    HW1 2876   0.078   1.193   6.327
  834SOL    HW2 2877   0.161   1.212   6.188
  835SOL     OW 2878   0.672   1.391   7.210
  835SOL    HW1 2879   0.594   1.341   7.248
  835SOL    HW2 2880   0.669   1.486   7.241
  836SOL     OW 2881   1.824   0.192   6.813
  836SOL    HW1 2882   1.820   0.102   6.857
  836SOL    HW2 2883   1.827   0.181   6.714
  837SOL     OW 2884   0.428   0.424   6.106
  837SOL    HW1 2885   0.458   0.352   6.044
  837SOL    HW2 2886   0.389   0.384   6.189
  838SOL     OW 2887   1.705   1.487   6.690
  838SOL    HW1 2888   1.612   1.462   6.663
  838SOL    HW2 2889   1.731   1.437   6.772
  839SOL     OW 2890   0.317   0.547   6.866
  839SOL    HW1 2891   0.355   0.488   6.938
  839SOL    HW2 2892   0.357   0.521   6.778
  840SOL     OW 2893   0.812   1.586   6.273
  840SOL    HW1 2894   0.844   1.596   6.179
  840SOL    HW2 2895   0.733   1.524   6.275
  841SOL     OW 2896   1.424   0.214   6.698
  841SOL    HW1 2897   1.476   0.149   6.753
  841SOL    HW2 2898   1.375   0.277   6.759
  842SOL     OW 2899   1.001   0.034   6.740
  842SOL    HW1 2900   0.938  -0.038   6.709
  842SOL    HW2 2901   1.094  -0.002   6.740
  843SOL     OW 2902   0.770   1.330   5.887
  843SOL    HW1 2903   0.724   1.243   5.904
  843SOL    HW2 2904   0.861   1.327   5.928
  844SOL     OW 2905   0.618   1.567   6.870
  844SOL    HW1 2906   0.613   1.649   6.927
  844SOL    HW2 2907   0.707   1.564   6.825
  845SOL     OW 2908   1.352   0.052   5.754
  845SOL    HW1 2909   1.387   0.011   5.670
  845SOL    HW2 2910   1.262   0.014   5.774
  846SOL     OW 2911   1.300   0.453   6.277
  846SOL    HW1 2912   1.241   0.533   6.281
  846SOL    HW2 2913   1.315   0.418   6.370
  847SOL     OW 2914   1.593   0.221   6.468
  847SOL    HW1 2915   1.509   0.220   6.522
  847SOL    HW2 2916   1.595   0.304   6.412
  848SOL     OW 2917   0.039   1.077   5.886
  848SOL    HW1 2918   0.138   1.066   5.877
  848SOL    HW2 2919  -0.001   0.991   5.918
  849SOL     OW 2920   0.875   1.646   5.923
  849SOL    HW1 2921   0.798   1.611   5.869
  849SOL    HW2 2922   0.843   1.717   5.985
  850SOL     OW 2923   0.230   0.628   7.561
  850SOL    HW1 2924   0.137   0.626   7.598
  850SOL    HW2 2925   0.231   0.589   7.469
  851SOL     OW 2926   0.225   0.275   8.444
  851SOL    HW1 2927   0.260   0.258   8.536
  851SOL    HW2 2928   0.137   0.230   8.432
  852SOL     OW 2929   0.019   0.368   8.095
  852SOL    HW1 2930  -0.063   0.411   8.134
  852SOL    HW2 2931  -0.009   0.295   8.032
  853SOL     OW 2932   0.569   1.275   8.613
  853SOL    HW1 2933   0.476   1.268   8.576
  853SOL    HW2 2934   0.580   1.364   8.657
  854SOL     OW 2935   1.555   1.511   8.151
  854SOL    HW1 2936   1.498   1.495   8.232
  854SOL    HW2 2937   1.496   1.521   8.071
  855SOL     OW 2938   1.135   0.703   8.165
  855SOL    HW1 2939   1.192   0.781   8.140
  855SOL    HW2 2940   1.075   0.729   8.241
  856SOL     OW 2941   1.755   0.607   7.679
  856SOL    HW1 2942   1.743   0.594   7.580
  856SOL    HW2 2943   1.725   0.526   7.728
  857SOL     OW 2944   0.768   1.144   8.471
  857SOL    HW1 2945   0.690   1.161   8.531
  857SOL    HW2 2946   0.802   1.231   8.435
  858SOL     OW 2947   0.850   0.798   9.271
  858SOL    HW1 2948   0.846   0.874   9.336
  858SOL    HW2 2949   0.872   0.834   9.180
  859SOL     OW 2950   0.685   1.012   8.113
  859SOL    HW1 2951   0.754   0.996   8.183
  859SOL    HW2 2952   0.612   1.069   8.151
  860SOL     OW 2953   0.686   1.161   9.251
  860SOL    HW1 2954   0.746   1.240   9.265
  860SOL    HW2 2955   0.600   1.192   9.210
  861SOL     OW 2956   0.335   1.435   8.509
  861SOL    HW1 2957   0.257   1.404   8.456
  861SOL    HW2 2958   0.393   1.493   8.452
  862SOL     OW 2959   1.460   1.505   8.787
  862SOL    HW1 2960   1.484   1.599   8.813
  862SOL    HW2 2961   1.444   1.451   8.869
  863SOL     OW 2962   0.438   0.392   8.947
  863SOL    HW1 2963   0.520   0.336   8.956
  863SOL    HW2 2964   0.357   0.334   8.951
  864SOL     OW 2965   1.603   0.447   8.185
  864SOL    HW1 2966   1.529   0.493   8.135
  864SOL    HW2 2967   1.654   0.515   8.238
  865SOL     OW 2968   0.231   1.713   7.931
  865SOL    HW1 2969   0.265   1.790   7.985
  865SOL    HW2 2970   0.275   1.713   7.841
  866SOL     OW 2971   1.127   1.341   9.138
  866SOL    HW1 2972   1.174   1.341   9.226
  866SOL    HW2 2973   1.079   1.254   9.127
  867SOL     OW 2974   0.230   1.434   7.986
  867SOL    HW1 2975   0.204   1.530   7.986
  867SOL    HW2 2976   0.159   1.380   8.031
  868SOL     OW 2977   0.240   1.091   8.334
  868SOL    HW1 2978   0.254   1.007   8.386
  868SOL    HW2 2979   0.185   1.155   8.389
  869SOL     OW 2980   0.620   1.786   8.887
  869SOL    HW1 2981   0.528   1.769   8.922
  869SOL    HW2 2982   0.648   1.878   8.913
  870SOL     OW 2983   0.606   0.964   7.571
  870SOL    HW1 2984   0.613   1.048   7.517
  870SOL    HW2 2985   0.652   0.977   7.659
  871SOL     OW 2986   1.594   0.114   8.928
  871SOL    HW1 2987   1.576   0.181   8.856
  871SOL    HW2 2988   1.591   0.160   9.017
  872SOL     OW 2989   0.122   0.643   8.011
  872SOL    HW1 2990   0.077   0.555   8.028
  872SOL    HW2 2991   0.121   0.697   8.095
  873SOL     OW 2992   1.842   1.767   7.807
  873SOL    HW1 2993   1.896   1.738   7.887
  873SOL    HW2 2994   1.872   1.857   7.778
  874SOL     OW 2995   0.027   1.596   7.565
  874SOL    HW1 2996   0.008   1.500   7.586
  874SOL    HW2 2997  -0.006   1.654   7.640
  875SOL     OW 2998   1.689   0.922   8.060
  875SOL    HW1 2999   1.784   0.893   8.068
  875SOL    HW2 3000   1.681   0.987   7.985
  876SOL     OW 3001   1.641   1.108   7.880
  876SOL    HW1 3002   1.727   1.110   7.828
  876SOL    HW2 3003   1.655   1.155   7.968
  877SOL     OW 3004   0.113   0.737   9.045
  877SOL    HW1 3005   0.201   0.724   9.090
  877SOL    HW2 3006   0.100   0.834   9.023
  878SOL     OW 3007   0.613   1.365   8.174
  878SOL    HW1 3008   0.564   1.278   8.183
  878SOL    HW2 3009   0.590   1.408   8.087
  879SOL     OW 3010   1.293   1.228   8.871
  879SOL    HW1 3011   1.330   1.155   8.813
  879SOL    HW2 3012   1.345   1.233   8.956
  880SOL     OW 3013   0.809   0.004   7.950
  880SOL    HW1 3014   0.849   0.095   7.941
  880SOL    HW2 3015   0.709   0.012   7.956
  881SOL     OW 3016   0.197   0.976   8.712
  881SOL    HW1 3017   0.286   0.931   8.698
  881SOL    HW2 3018   0.124   0.911   8.693
  882SOL     OW 3019   1.525   0.999   7.638
  882SOL    HW1 3020   1.462   0.923   7.651
  882SOL    HW2 3021   1.573   1.017   7.724
  883SOL     OW 3022   1.187   1.792   9.064
  883SOL    HW1 3023   1.211   1.852   8.988
  883SOL    HW2 3024   1.194   1.697   9.034
  884SOL     OW 3025   0.317   0.251   9.249
  884SOL    HW1 3026   0.388   0.322   9.255
  884SOL    HW2 3027   0.229   0.290   9.277
  885SOL     OW 3028   1.466   1.417   8.401
  885SOL    HW1 3029   1.407   1.423   8.481
  885SOL    HW2 3030   1.451   1.329   8.355
  886SOL     OW 3031   1.667   1.714   8.020
  886SOL    HW1 3032   1.626   1.691   7.932
  886SOL    HW2 3033   1.649   1.640   8.085
  887SOL     OW 3034   0.598   0.729   7.718
  887SOL    HW1 3035   0.622   0.798   7.650
  887SOL    HW2 3036   0.520   0.762   7.772
  888SOL     OW 3037   1.281   0.345   8.392
  888SOL    HW1 3038   1.195   0.295   8.379
  888SOL    HW2 3039   1.343   0.291   8.448
  889SOL     OW 3040   1.576   1.662   7.755
  889SOL    HW1 3041   1.665   1.708   7.758
  889SOL    HW2 3042   1.555   1.638   7.660
  890SOL     OW 3043   0.807   0.605   8.913
  890SOL    HW1 3044   0.760   0.602   9.002
  890SOL    HW2 3045   0.756   0.550   8.847
  891SOL     OW 3046   1.394   0.469   9.122
  891SOL    HW1 3047   1.374   0.512   9.210
  891SOL    HW2 3048   1.472   0.407   9.131
  892SOL     OW 3049   0.973   0.890   9.020
  892SOL    HW1 3050   1.019   0.806   8.991
  892SOL    HW2 3051   0.917   0.924   8.945
  893SOL     OW 3052   0.991   0.410   8.690
  893SOL    HW1 3053   0.914   0.444   8.744
  893SOL    HW2 3054   0.957   0.359   8.611
  894SOL     OW 3055   1.041   0.701   7.877
  894SOL    HW1 3056   1.067   0.697   7.973
  894SOL    HW2 3057   0.956   0.650   7.863
  895SOL     OW 3058   0.076   0.811   8.237
  895SOL    HW1 3059   0.175   0.799   8.246
  895SOL    HW2 3060   0.052   0.906   8.258
  896SOL     OW 3061   0.130   1.821   9.019
  896SOL    HW1 3062   0.120   1.806   9.118
  896SOL    HW2 3063   0.044   1.857   8.983
  897SOL     OW 3064   0.865   0.348   7.643
  897SOL    HW1 3065   0.924   0.411   7.594
  897SOL    HW2 3066   0.884   0.254   7.614
  898SOL     OW 3067   1.719   0.585   9.279
  898SOL    HW1 3068   1.693   0.674   9.243
  898SOL    HW2 3069   1.717   0.517   9.206
  899SOL     OW 3070   1.362   1.144   7.993
  899SOL    HW1 3071   1.445   1.115   7.945
  899SOL    HW2 3072   1.313   1.211   7.937
  900SOL     OW 3073   0.550   0.196   8.333
  900SOL    HW1 3074   0.545   0.191   8.433
  900SOL    HW2 3075   0.552   0.292   8.304
  901SOL     OW 3076   1.008   1.456   7.925
  901SOL    HW1 3077   0.962   1.528   7.873
  901SOL    HW2 3078   1.004   1.476   8.023
  902SOL     OW 3079   0.351   1.801   8.301
  902SOL    HW1 3080   0.401   1.715   8.307
  902SOL    HW2 3081   0.416   1.878   8.298
  903SOL     OW 3082   1.795   1.066   8.321
  903SOL    HW1 3083   1.733   1.051   8.245
  903SOL    HW2 3084   1.743   1.077   8.406
  904SOL     OW 3085   1.227   1.550   8.954
  904SOL    HW1 3086   1.233   1.473   9.018
  904SOL    HW2 3087   1.175   1.524   8.874
  905SOL     OW 3088   0.321   0.943   7.690
  905SOL    HW1 3089   0.403   0.982   7.648
  905SOL    HW2 3090   0.294   0.861   7.641
  906SOL     OW 3091   1.458   0.735   8.176
  906SOL    HW1 3092   1.453   0.670   8.251
  906SOL    HW2 3093   1.538   0.794   8.189
  907SOL     OW 3094   0.461   1.266   9.175
  907SOL    HW1 3095   0.411   1.267   9.089
  907SOL    HW2 3096   0.398   1.248   9.251
  908SOL     OW 3097   1.111   1.776   7.685
  908SOL    HW1 3098   1.051   1.714   7.735
  908SOL    HW2 3099   1.142   1.732   7.600
  909SOL     OW 3100   0.202   0.285   8.946
  909SOL    HW1 3101   0.122   0.345   8.933
  909SOL    HW2 3102   0.192   0.236   9.032
  910SOL     OW 3103   1.632   1.377   7.529
  910SOL    HW1 3104   1.600   1.471   7.519
  910SOL    HW2 3105   1.556   1.314   7.517
  911SOL     OW 3106   0.464   1.743   7.771
  911SOL    HW1 3107   0.497   1.782   7.857
  911SOL    HW2 3108   0.540   1.736   7.706
  912SOL     OW 3109   1.400   0.107   7.874
  912SOL    HW1 3110   1.376   0.070   7.784
  912SOL    HW2 3111   1.499   0.123   7.878
  913SOL     OW 3112   0.249   1.785   8.689
  913SOL    HW1 3113   0.306   1.720   8.739
  913SOL    HW2 3114   0.233   1.752   8.596
  914SOL     OW 3115   0.940   1.698   8.352
  914SOL    HW1 3116   1.020   1.641   8.373
  914SOL    HW2 3117   0.891   1.658   8.275
  915SOL     OW 3118   0.382   0.700   7.928
  915SOL    HW1 3119   0.427   0.610   7.925
  915SOL    HW2 3120   0.288   0.689   7.961
  916SOL     OW 3121   1.547   0.222   9.177
  916SOL    HW1 3122   1.542   0.259   9.269
  916SOL    HW2 3123   1.475   0.153   9.165
  917SOL     OW 3124   0.614   0.122   7.565
  917SOL    HW1 3125   0.712   0.100   7.572
  917SOL    HW2 3126   0.583   0.105   7.472
  918SOL     OW 3127   0.781   0.264   9.197
  918SOL    HW1 3128   0.848   0.203   9.240
  918SOL    HW2 3129   0.708   0.283   9.262
  919SOL     OW 3130   0.888   1.514   8.643
  919SOL    HW1 3131   0.865   1.489   8.549
  919SOL    HW2 3132   0.949   1.445   8.682
  920SOL     OW 3133   1.351   0.590   8.881
  920SOL    HW1 3134   1.379   0.547   8.966
  920SOL    HW2 3135   1.376   0.686   8.882
  921SOL     OW 3136   0.803   1.402   8.372
  921SOL    HW1 3137   0.893   1.416   8.330
  921SOL    HW2 3138   0.732   1.404   8.301
  922SOL     OW 3139   0.922   0.503   8.347
  922SOL    HW1 3140   0.897   0.494   8.251
  922SOL    HW2 3141   0.970   0.421   8.378
  923SOL     OW 3142   0.539   0.064   7.960
  923SOL    HW1 3143   0.458   0.065   8.018
  923SOL    HW2 3144   0.542   0.147   7.905
  924SOL     OW 3145   1.434   1.188   7.489
  924SOL    HW1 3146   1.466   1.112   7.546
  924SOL    HW2 3147   1.342   1.215   7.519
  925SOL     OW 3148   0.297   0.035   7.619
  925SOL    HW1 3149   0.346   0.119   7.598
  925SOL    HW2 3150   0.359  -0.030   7.664
  926SOL     OW 3151   0.935   0.236   7.928
  926SOL    HW1 3152   0.887   0.277   7.850
  926SOL    HW2 3153   1.034   0.234   7.909
  927SOL     OW 3154   1.076   0.683   8.912
  927SOL    HW1 3155   0.996   0.622   8.915
  927SOL    HW2 3156   1.157   0.630   8.888
  928SOL     OW 3157   1.227   1.570   8.241
  928SOL    HW1 3158   1.248   1.644   8.176
  928SOL    HW2 3159   1.295   1.570   8.314
  929SOL     OW 3160   0.459   1.152   8.189
  929SOL    HW1 3161   0.388   1.125   8.254
  929SOL    HW2 3162   0.433   1.124   8.096
  930SOL     OW 3163   1.271   1.797   8.039
  930SOL    HW1 3164   1.315   1.861   7.975
  930SOL    HW2 3165   1.221   1.849   8.109
  931SOL     OW 3166   1.032   0.549   7.464
  931SOL    HW1 3167   0.991   0.631   7.425
  931SOL    HW2 3168   1.096   0.575   7.537
  932SOL     OW 3169   0.078   0.556   8.834
  932SOL    HW1 3170   0.170   0.555   8.793
  932SOL    HW2 3171   0.072   0.630   8.901
  933SOL     OW 3172   0.561   0.222   8.595
  933SOL    HW1 3173   0.599   0.138   8.632
  933SOL    HW2 3174   0.473   0.241   8.639
  934SOL     OW 3175   0.866   0.454   8.090
  934SOL    HW1 3176   0.834   0.526   8.028
  934SOL    HW2 3177   0.890   0.373   8.037
  935SOL     OW 3178   1.017   0.039   8.201
  935SOL    HW1 3179   0.945   0.044   8.132
  935SOL    HW2 3180   0.993  -0.030   8.270
  936SOL     OW 3181   1.429   1.173   8.315
  936SOL    HW1 3182   1.374   1.089   8.308
  936SOL    HW2 3183   1.455   1.202   8.223
  937SOL     OW 3184   1.466   0.590   8.440
  937SOL    HW1 3185   1.436   0.495   8.447
  937SOL    HW2 3186   1.539   0.606   8.506
  938SOL     OW 3187   1.857   0.833   7.825
  938SOL    HW1 3188   1.899   0.769   7.889
  938SOL    HW2 3189   1.819   0.782   7.747
  939SOL     OW 3190   0.488   1.385   7.622
  939SOL    HW1 3191   0.401   1.370   7.669
  939SOL    HW2 3192   0.471   1.411   7.527
  940SOL     OW 3193   1.664   1.280   8.105
  940SOL    HW1 3194   1.763   1.288   8.119
  940SOL    HW2 3195   1.619   1.364   8.136
  941SOL     OW 3196   1.390   0.575   7.526
  941SOL    HW1 3197   1.336   0.554   7.607
  941SOL    HW2 3198   1.481   0.534   7.535
  942SOL     OW 3199   0.527   0.256   7.776
  942SOL    HW1 3200   0.554   0.197   7.701
  942SOL    HW2 3201   0.527   0.351   7.745
  943SOL     OW 3202   1.754   1.223   9.036
  943SOL    HW1 3203   1.845   1.184   9.023
  943SOL    HW2 3204   1.762   1.319   9.060
  944SOL     OW 3205   1.064   1.347   8.788
  944SOL    HW1 3206   0.984   1.324   8.843
  944SOL    HW2 3207   1.147   1.321   8.837
  945SOL     OW 3208   1.592   1.629   9.073
  945SOL    HW1 3209   1.619   1.663   8.983
  945SOL    HW2 3210   1.671   1.591   9.119
  946SOL     OW 3211   1.111   1.195   8.548
  946SOL    HW1 3212   1.071   1.239   8.629
  946SOL    HW2 3213   1.070   1.232   8.465
  947SOL     OW 3214   1.638   1.099   8.527
  947SOL    HW1 3215   1.643   1.180   8.586
  947SOL    HW2 3216   1.552   1.101   8.476
  948SOL     OW 3217   0.915   0.089   8.850
  948SOL    HW1 3218   0.940   0.069   8.755
  948SOL    HW2 3219   0.987   0.145   8.892
  949SOL     OW 3220   0.980   1.116   9.167
  949SOL    HW1 3221   0.881   1.122   9.177
  949SOL    HW2 3222   1.003   1.036   9.111
  950SOL     OW 3223   0.705   1.050   7.816
  950SOL    HW1 3224   0.691   1.057   7.915
  950SOL    HW2 3225   0.789   0.999   7.798
  951SOL     OW 3226   0.410   0.813   8.699
  951SOL    HW1 3227   0.496   0.825   8.749
  951SOL    HW2 3228   0.368   0.726   8.726
  952SOL     OW 3229   1.274   0.386   8.710
  952SOL    HW1 3230   1.295   0.460   8.774
  952SOL    HW2 3231   1.185   0.403   8.667
  953SOL     OW 3232   0.064   1.564   8.779
  953SOL    HW1 3233   0.018   1.646   8.745
  953SOL    HW2 3234   0.162   1.583   8.788
  954SOL     OW 3235   0.367   1.100   7.949
  954SOL    HW1 3236   0.360   1.183   7.893
  954SOL    HW2 3237   0.371   1.020   7.889
  955SOL     OW 3238   0.566   0.537   8.313
  955SOL    HW1 3239   0.578   0.603   8.239
  955SOL    HW2 3240   0.612   0.571   8.396
  956SOL     OW 3241   1.252   1.348   7.836
  956SOL    HW1 3242   1.302   1.425   7.876
  956SOL    HW2 3243   1.157   1.350   7.868
  957SOL     OW 3244   1.272   1.445   8.590
  957SOL    HW1 3245   1.319   1.458   8.677
  957SOL    HW2 3246   1.206   1.371   8.599
  958SOL     OW 3247   1.582   0.639   7.920
  958SOL    HW1 3248   1.551   0.700   7.993
  958SOL    HW2 3249   1.632   0.691   7.851
  959SOL     OW 3250   0.354   1.510   8.777
  959SOL    HW1 3251   0.333   1.466   8.690
  959SOL    HW2 3252   0.451   1.536   8.780
  960SOL     OW 3253   0.402   0.751   9.046
  960SOL    HW1 3254   0.470   0.806   8.999
  960SOL    HW2 3255   0.442   0.663   9.073
  961SOL     OW 3256   1.587   0.779   9.118
  961SOL    HW1 3257   1.495   0.817   9.113
  961SOL    HW2 3258   1.647   0.826   9.053
  962SOL     OW 3259   1.013   0.105   9.218
  962SOL    HW1 3260   1.019   0.190   9.166
  962SOL    HW2 3261   1.045   0.029   9.161
  963SOL     OW 3262   0.504   0.050   9.188
  963SOL    HW1 3263   0.462  -0.007   9.118
  963SOL    HW2 3264   0.438   0.119   9.220
  964SOL     OW 3265   0.573   0.870   8.477
  964SOL    HW1 3266   0.617   0.959   8.468
  964SOL    HW2 3267   0.510   0.870   8.554
  965SOL     OW 3268   1.360   0.862   8.493
  965SOL    HW1 3269   1.285   0.862   8.427
  965SOL    HW2 3270   1.397   0.770   8.502
  966SOL     OW 3271   1.209   0.525   7.723
  966SOL    HW1 3272   1.222   0.441   7.777
  966SOL    HW2 3273   1.180   0.599   7.783
  967SOL     OW 3274   0.307   0.213   8.679
  967SOL    HW1 3275   0.284   0.250   8.769
  967SOL    HW2 3276   0.277   0.118   8.673
  968SOL     OW 3277   0.037   1.310   8.730
  968SOL    HW1 3278   0.090   1.261   8.798
  968SOL    HW2 3279   0.059   1.408   8.735
  969SOL     OW 3280   0.732   0.634   8.512
  969SOL    HW1 3281   0.791   0.608   8.436
  969SOL    HW2 3282   0.704   0.730   8.501
  970SOL     OW 3283   1.728   0.935   9.302
  970SOL    HW1 3284   1.682   0.928   9.213
  970SOL    HW2 3285   1.666   0.979   9.368
  971SOL     OW 3286   0.307   0.063   8.066
  971SOL    HW1 3287   0.296   0.157   8.099
  971SOL    HW2 3288   0.302   0.000   8.143
  972SOL     OW 3289   1.622   0.367   7.822
  972SOL    HW1 3290   1.624   0.291   7.886
  972SOL    HW2 3291   1.574   0.444   7.862
  973SOL     OW 3292   1.023   0.766   8.414
  973SOL    HW1 3293   1.038   0.787   8.510
  973SOL    HW2 3294   0.993   0.671   8.405
  974SOL     OW 3295   0.980   1.573   9.148
  974SOL    HW1 3296   0.960   1.617   9.060
  974SOL    HW2 3297   1.019   1.482   9.132
  975SOL     OW 3298   1.859   1.518   9.053
  975SOL    HW1 3299   1.873   1.545   8.958
  975SOL    HW2 3300   1.942   1.540   9.106
  976SOL     OW 3301   0.350   0.898   9.252
  976SOL    HW1 3302   0.426   0.942   9.300
  976SOL    HW2 3303   0.385   0.851   9.170
  977SOL     OW 3304   1.540   0.274   7.573
  977SOL    HW1 3305   1.479   0.199   7.596
  977SOL    HW2 3306   1.562   0.326   7.656
  978SOL     OW 3307   1.303   0.838   7.490
  978SOL    HW1 3308   1.337   0.745   7.505
  978SOL    HW2 3309   1.321   0.865   7.395
  979SOL     OW 3310   1.068   1.333   8.297
  979SOL    HW1 3311   1.075   1.249   8.242
  979SOL    HW2 3312   1.130   1.402   8.261
  980SOL     OW 3313   0.319   0.810   8.397
  980SOL    HW1 3314   0.412   0.846   8.402
  980SOL    HW2 3315   0.313   0.725   8.449
  981SOL     OW 3316   0.339   0.509   8.454
  981SOL    HW1 3317   0.287   0.426   8.437
  981SOL    HW2 3318   0.416   0.514   8.390
  982SOL     OW 3319   1.138   0.380   9.126
  982SOL    HW1 3320   1.093   0.443   9.190
  982SOL    HW2 3321   1.231   0.411   9.109
  983SOL     OW 3322   1.160   0.207   8.925
  983SOL    HW1 3323   1.160   0.271   9.002
  983SOL    HW2 3324   1.188   0.255   8.842
  984SOL     OW 3325   0.008   1.326   7.648
  984SOL    HW1 3326  -0.085   1.347   7.617
  984SOL    HW2 3327   0.018   1.227   7.661
  985SOL     OW 3328   0.088   1.801   8.375
  985SOL    HW1 3329   0.046   1.715   8.348
  985SOL    HW2 3330   0.182   1.804   8.341
  986SOL     OW 3331   0.504   1.568   8.358
  986SOL    HW1 3332   0.570   1.642   8.367
  986SOL    HW2 3333   0.548   1.489   8.316
  987SOL     OW 3334   1.002   0.796   8.686
  987SOL    HW1 3335   1.043   0.764   8.772
  987SOL    HW2 3336   0.906   0.769   8.683
  988SOL     OW 3337   0.040   0.544   8.562
  988SOL    HW1 3338   0.125   0.511   8.521
  988SOL    HW2 3339   0.053   0.559   8.660
  989SOL     OW 3340   0.189   0.520   9.170
  989SOL    HW1 3341   0.248   0.480   9.100
  989SOL    HW2 3342   0.131   0.591   9.129
  990SOL     OW 3343   1.369   0.950   9.108
  990SOL    HW1 3344   1.408   1.039   9.128
  990SOL    HW2 3345   1.379   0.930   9.011
  991SOL     OW 3346   0.815   0.572   7.773
  991SOL    HW1 3347   0.822   0.483   7.727
  991SOL    HW2 3348   0.721   0.606   7.765
  992SOL     OW 3349   1.657   0.604   8.654
  992SOL    HW1 3350   1.619   0.535   8.716
  992SOL    HW2 3351   1.739   0.568   8.610
  993SOL     OW 3352   0.252   1.564   9.192
  993SOL    HW1 3353   0.222   1.621   9.268
  993SOL    HW2 3354   0.245   1.467   9.218
  994SOL     OW 3355   0.671   0.464   8.717
  994SOL    HW1 3356   0.637   0.375   8.687
  994SOL    HW2 3357   0.697   0.518   8.637
  995SOL     OW 3358   0.930   1.678   8.913
  995SOL    HW1 3359   0.906   1.660   8.818
  995SOL    HW2 3360   0.960   1.772   8.923
  996SOL     OW 3361   0.473   0.500   7.639
  996SOL    HW1 3362   0.534   0.580   7.643
  996SOL    HW2 3363   0.378   0.531   7.646
  997SOL     OW 3364   0.159   1.137   8.914
  997SOL    HW1 3365   0.181   1.076   8.990
  997SOL    HW2 3366   0.169   1.088   8.828
  998SOL     OW 3367   1.347   1.059   8.682
  998SOL    HW1 3368   1.371   0.996   8.608
  998SOL    HW2 3369   1.257   1.099   8.664
  999SOL     OW 3370   1.302   0.855   7.757
  999SOL    HW1 3371   1.216   0.824   7.799
  999SOL    HW2 3372   1.298   0.841   7.658
 1000SOL     OW 3373   1.759   1.747   8.602
 1000SOL    HW1 3374   1.820   1.777   8.529
 1000SOL    HW2 3375   1.721   1.658   8.580
 1001SOL     OW 3376   1.252   1.731   8.576
 1001SOL    HW1 3377   1.336   1.736   8.522
 1001SOL    HW2 3378   1.229   1.635   8.594
 1002SOL     OW 3379   0.083   1.258   8.470
 1002SOL    HW1 3380   0.078   1.257   8.570
 1002SOL    HW2 3381   0.000   1.217   8.432
 1003SOL     OW 3382   0.688   1.662   9.164
 1003SOL    HW1 3383   0.632   1.743   9.173
 1003SOL    HW2 3384   0.740   1.666   9.078
 1004SOL     OW 3385   1.726   0.135   7.971
 1004SOL    HW1 3386   1.799   0.118   7.904
 1004SOL    HW2 3387   1.695   0.048   8.009
 1005SOL     OW 3388   1.388   1.573   7.925
 1005SOL    HW1 3389   1.455   1.585   7.851
 1005SOL    HW2 3390   1.348   1.662   7.948
 1006SOL     OW 3391   0.130   1.794   9.299
 1006SOL    HW1 3392   0.089   1.720   9.352
 1006SOL    HW2 3393   0.194   1.845   9.357
 1007SOL     OW 3394   1.280   0.927   8.120
 1007SOL    HW1 3395   1.340   0.846   8.122
 1007SOL    HW2 3396   1.320   0.996   8.060
 1008SOL     OW 3397   0.830   1.273   8.870
 1008SOL    HW1 3398   0.825   1.306   8.965
 1008SOL    HW2 3399   0.744   1.292   8.824
 1009SOL     OW 3400   0.672   1.616   7.602
 1009SOL    HW1 3401   0.681   1.626   7.503
 1009SOL    HW2 3402   0.632   1.527   7.623
 1010SOL     OW 3403   1.650   1.720   8.842
 1010SOL    HW1 3404   1.703   1.730   8.758
 1010SOL    HW2 3405   1.623   1.810   8.876
 1011SOL     OW 3406   1.841   0.175   8.411
 1011SOL    HW1 3407   1.880   0.090   8.375
 1011SOL    HW2 3408   1.743   0.177   8.392
 1012SOL     OW 3409   0.263   0.326   8.168
 1012SOL    HW1 3410   0.184   0.377   8.134
 1012SOL    HW2 3411   0.254   0.311   8.266
 1013SOL     OW 3412   1.194   1.612   7.479
 1013SOL    HW1 3413   1.200   1.519   7.516
 1013SOL    HW2 3414   1.135   1.612   7.399
 1014SOL     OW 3415   0.822   1.002   8.820
 1014SOL    HW1 3416   0.862   1.001   8.728
 1014SOL    HW2 3417   0.832   1.094   8.860
 1015SOL     OW 3418   0.916   0.910   7.739
 1015SOL    HW1 3419   0.979   0.948   7.671
 1015SOL    HW2 3420   0.956   0.827   7.778
 1016SOL     OW 3421   1.504   1.607   7.492
 1016SOL    HW1 3422   1.412   1.644   7.499
 1016SOL    HW2 3423   1.542   1.627   7.402
 1017SOL     OW 3424   0.372   1.288   8.938
 1017SOL    HW1 3425   0.359   1.381   8.904
 1017SOL    HW2 3426   0.288   1.236   8.925
 1018SOL     OW 3427   1.614   1.292   8.737
 1018SOL    HW1 3428   1.674   1.295   8.817
 1018SOL    HW2 3429   1.539   1.356   8.750
 1019SOL     OW 3430   1.039   1.098   8.144
 1019SOL    HW1 3431   0.969   1.051   8.198
 1019SOL    HW2 3432   1.098   1.030   8.101
 1020SOL     OW 3433   1.014   0.236   8.419
 1020SOL    HW1 3434   1.006   0.200   8.326
 1020SOL    HW2 3435   1.012   0.160   8.484
 1021SOL     OW 3436   0.590   1.487   7.939
 1021SOL    HW1 3437   0.632   1.429   7.869
 1021SOL    HW2 3438   0.546   1.566   7.895
 1022SOL     OW 3439   1.709   0.385   8.829
 1022SOL    HW1 3440   1.782   0.454   8.833
 1022SOL    HW2 3441   1.737   0.310   8.770
 1023SOL     OW 3442   0.255   1.348   7.738
 1023SOL    HW1 3443   0.159   1.349   7.711
 1023SOL    HW2 3444   0.267   1.401   7.822
 1024SOL     OW 3445   0.105   1.013   9.174
 1024SOL    HW1 3446   0.028   0.980   9.228
 1024SOL    HW2 3447   0.190   0.983   9.216
 1025SOL     OW 3448   0.672   0.203   8.937
 1025SOL    HW1 3449   0.762   0.187   8.897
 1025SOL    HW2 3450   0.680   0.208   9.036
 1026SOL     OW 3451   0.075   0.345   7.481
 1026SOL    HW1 3452  -0.017   0.317   7.452
 1026SOL    HW2 3453   0.106   0.422   7.425
 1027SOL     OW 3454   1.440   0.856   8.846
 1027SOL    HW1 3455   1.383   0.908   8.783
 1027SOL    HW2 3456   1.536   0.868   8.822
 1028SOL     OW 3457   0.072   0.166   7.766
 1028SOL    HW1 3458   0.055   0.249   7.712
 1028SOL    HW2 3459   0.162   0.129   7.744
 1029SOL     OW 3460   1.183   1.335   7.567
 1029SOL    HW1 3461   1.084   1.324   7.569
 1029SOL    HW2 3462   1.217   1.350   7.660
 1030SOL     OW 3463   0.613   0.842   8.879
 1030SOL    HW1 3464   0.669   0.923   8.862
 1030SOL    HW2 3465   0.672   0.762   8.882
 1031SOL     OW 3466   1.493   1.767   8.407
 1031SOL    HW1 3467   1.526   1.831   8.338
 1031SOL    HW2 3468   1.559   1.761   8.482
 1032SOL     OW 3469   0.716   0.565   9.156
 1032SOL    HW1 3470   0.735   0.630   9.230
 1032SOL    HW2 3471   0.776   0.485   9.165
 1033SOL     OW 3472   1.450   1.220   9.081
 1033SOL    HW1 3473   1.441   1.210   9.180
 1033SOL    HW2 3474   1.546   1.213   9.055
 1034SOL     OW 3475   0.390   1.741   9.008
 1034SOL    HW1 3476   0.299   1.782   9.006
 1034SOL    HW2 3477   0.383   1.647   9.040
 1035SOL     OW 3478   1.674   0.883   8.702
 1035SOL    HW1 3479   1.647   0.794   8.665
 1035SOL    HW2 3480   1.675   0.951   8.629
 1036SOL     OW 3481   1.225   0.325   7.897
 1036SOL    HW1 3482   1.290   0.251   7.886
 1036SOL    HW2 3483   1.245   0.375   7.981
 1037SOL     OW 3484   0.594   0.745   8.100
 1037SOL    HW1 3485   0.644   0.830   8.081
 1037SOL    HW2 3486   0.506   0.747   8.052
 1038SOL     OW 3487   1.777   0.342   9.090
 1038SOL    HW1 3488   1.760   0.373   8.996
 1038SOL    HW2 3489   1.693   0.305   9.128
 1039SOL     OW 3490   1.730   0.934   8.965
 1039SOL    HW1 3491   1.768   1.025   8.980
 1039SOL    HW2 3492   1.722   0.917   8.866
 1040SOL     OW 3493   0.859   1.374   7.464
 1040SOL    HW1 3494   0.813   1.389   7.552
 1040SOL    HW2 3495   0.903   1.459   7.434
 1041SOL     OW 3496   0.661   1.790   8.401
 1041SOL    HW1 3497   0.615   1.878   8.388
 1041SOL    HW2 3498   0.760   1.802   8.394
 1042SOL     OW 3499   0.859   0.956   8.309
 1042SOL    HW1 3500   0.913   0.887   8.357
 1042SOL    HW2 3501   0.827   1.025   8.375
 1043SOL     OW 3502   1.083   0.984   7.535
 1043SOL    HW1 3503   1.060   1.037   7.453
 1043SOL    HW2 3504   1.164   0.928   7.516
 1044SOL     OW 3505   1.861   1.569   8.299
 1044SOL    HW1 3506   1.790   1.557   8.229
 1044SOL    HW2 3507   1.862   1.490   8.359
 1045SOL     OW 3508   0.221   1.314   9.292
 1045SOL    HW1 3509   0.156   1.241   9.271
 1045SOL    HW2 3510   0.225   1.328   9.390
 1046SOL     OW 3511   0.079   1.240   8.101
 1046SOL    HW1 3512   0.078   1.193   8.189
 1046SOL    HW2 3513   0.161   1.212   8.050
 1047SOL     OW 3514   0.672   1.391   9.072
 1047SOL    HW1 3515   0.594   1.341   9.110
 1047SOL    HW2 3516   0.669   1.486   9.103
 1048SOL     OW 3517   1.824   0.192   8.675
 1048SOL    HW1 3518   1.820   0.102   8.719
 1048SOL    HW2 3519   1.827   0.181   8.576
 1049SOL     OW 3520   0.428   0.424   7.968
 1049SOL    HW1 3521   0.458   0.352   7.906
 1049SOL    HW2 3522   0.389   0.384   8.051
 1050SOL     OW 3523   1.705   1.487   8.552
 1050SOL    HW1 3524   1.612   1.462   8.525
 1050SOL    HW2 3525   1.731   1.437   8.634
 1051SOL     OW 3526   0.317   0.547   8.728
 1051SOL    HW1 3527   0.355   0.488   8.800
 1051SOL    HW2 3528   0.357   0.521   8.640
 1052SOL     OW 3529   0.812   1.586   8.135
 1052SOL    HW1 3530   0.844   1.596   8.041
 1052SOL    HW2 3531   0.733   1.524   8.137
 1053SOL     OW 3532   1.424   0.214   8.560
 1053SOL    HW1 3533   1.476   0.149   8.615
 1053SOL    HW2 3534   1.375   0.277   8.621
 1054SOL     OW 3535   1.001   0.034   8.602
 1054SOL    HW1 3536   0.938  -0.038   8.571
 1054SOL    HW2 3537   1.094  -0.002   8.602
 1055SOL     OW 3538   0.770   1.330   7.749
 1055SOL    HW1 3539   0.724   1.243   7.766
 1055SOL    HW2 3540   0.861   1.327   7.790
 1056SOL     OW 3541   0.618   1.567   8.732
 1056SOL    HW1 3542   0.613   1.649   8.789
 1056SOL    HW2 3543   0.707   1.564   8.687
 1057SOL     OW 3544   1.352   0.052   7.616
 1057SOL    HW1 3545   1.387   0.011   7.532
 1057SOL    HW2 3546   1.262   0.014   7.636
 1058SOL     OW 3547   1.300   0.453   8.139
 1058SOL    HW1 3548   1.241   0.533   8.143
 1058SOL    HW2 3549   1.315   0.418   8.232
 1059SOL     OW 3550   1.593   0.221   8.330
 1059SOL    HW1 3551   1.509   0.220   8.384
 1059SOL    HW2 3552   1.595   0.304   8.274
 1060SOL     OW 3553   0.039   1.077   7.748
 1060SOL    HW1 3554   0.138   1.066   7.739
 1060SOL    HW2 3555  -0.001   0.991   7.780
 1061SOL     OW 3556   0.875   1.646   7.785
 1061SOL    HW1 3557   0.798   1.611   7.731
 1061SOL    HW2 3558   0.843   1.717   7.847
 1062SOL     OW 3559   0.230   0.628   9.423
 1062SOL    HW1 3560   0.137   0.626   9.460
 1062SOL    HW2 3561   0.231   0.589   9.331
 1063SOL     OW 3562   1.755   0.607   9.541
 1063SOL    HW1 3563   1.743   0.594   9.442
 1063SOL    HW2 3564   1.725   0.526   9.590
 1064SOL     OW 3565   0.231   1.713   9.793
 1064SOL    HW1 3566   0.265   1.790   9.847
 1064SOL    HW2 3567   0.275   1.713   9.703
 1065SOL     OW 3568   0.230   1.434   9.848
 1065SOL    HW1 3569   0.204   1.530   9.848
 1065SOL    HW2 3570   0.159   1.380   9.893
 1066SOL     OW 3571   0.606   0.964   9.433
 1066SOL    HW1 3572   0.613   1.048   9.379
 1066SOL    HW2 3573   0.652   0.977   9.521
 1067SOL     OW 3574   0.122   0.643   9.873
 1067SOL    HW1 3575   0.077   0.555   9.890
 1067SOL    HW2 3576   0.121   0.697   9.957
 1068SOL     OW 3577   1.842   1.767   9.669
 1068SOL    HW1 3578   1.896   1.738   9.749
 1068SOL    HW2 3579   1.872   1.857   9.640
 1069SOL     OW 3580   0.027   1.596   9.427
 1069SOL    HW1 3581   0.008   1.500   9.448
 1069SOL    HW2 3582  -0.006   1.654   9.502
 1070SOL     OW 3583   1.689   0.922   9.922
 1070SOL    HW1 3584   1.784   0.893   9.930
 1070SOL    HW2 3585   1.681   0.987   9.847
 1071SOL     OW 3586   1.641   1.108   9.742
 1071SOL    HW1 3587   1.727   1.110   9.690
 1071SOL    HW2 3588   1.655   1.155   9.830
 1072SOL     OW 3589   0.613   1.365  10.036
 1072SOL    HW1 3590   0.564   1.278  10.045
 1072SOL    HW2 3591   0.590   1.408   9.949
 1073SOL     OW 3592   0.809   0.004   9.812
 1073SOL    HW1 3593   0.849   0.095   9.803
 1073SOL    HW2 3594   0.709   0.012   9.818
 1074SOL     OW 3595   1.525   0.999   9.500
 1074SOL    HW1 3596   1.462   0.923   9.513
 1074SOL    HW2 3597   1.573   1.017   9.586
 1075SOL     OW 3598   0.598   0.729   9.580
 1075SOL    HW1 3599   0.622   0.798   9.512
 1075SOL    HW2 3600   0.520   0.762   9.634
 1076SOL     OW 3601   1.576   1.662   9.617
 1076SOL    HW1 3602   1.665   1.708   9.620
 1076SOL    HW2 3603   1.555   1.638   9.522
 1077SOL     OW 3604   1.041   0.701   9.739
 1077SOL    HW1 3605   1.067   0.697   9.835
 1077SOL    HW2 3606   0.956   0.650   9.725
 1078SOL     OW 3607   0.076   0.811  10.099
 1078SOL    HW1 3608   0.175   0.799  10.108
 1078SOL    HW2 3609   0.052   0.906  10.120
 1079SOL     OW 3610   0.865   0.348   9.505
 1079SOL    HW1 3611   0.924   0.411   9.456
 1079SOL    HW2 3612   0.884   0.254   9.476
 1080SOL     OW 3613   1.362   1.144   9.855
 1080SOL    HW1 3614   1.445   1.115   9.807
 1080SOL    HW2 3615   1.313   1.211   9.799
 1081SOL     OW 3616   1.008   1.456   9.787
 1081SOL    HW1 3617   0.962   1.528   9.735
 1081SOL    HW2 3618   1.004   1.476   9.885
 1082SOL     OW 3619   0.321   0.943   9.552
 1082SOL    HW1 3620   0.403   0.982   9.510
 1082SOL    HW2 3621   0.294   0.861   9.503
 1083SOL     OW 3622   1.111   1.776   9.547
 1083SOL    HW1 3623   1.051   1.714   9.597
 1083SOL    HW2 3624   1.142   1.732   9.462
 1084SOL     OW 3625   1.632   1.377   9.391
 1084SOL    HW1 3626   1.600   1.471   9.381
 1084SOL    HW2 3627   1.556   1.314   9.379
 1085SOL     OW 3628   0.464   1.743   9.633
 1085SOL    HW1 3629   0.497   1.782   9.719
 1085SOL    HW2 3630   0.540   1.736   9.568
 1086SOL     OW 3631   1.400   0.107   9.736
 1086SOL    HW1 3632   1.376   0.070   9.646
 1086SOL    HW2 3633   1.499   0.123   9.740
 1087SOL     OW 3634   0.382   0.700   9.790
 1087SOL    HW1 3635   0.427   0.610   9.787
 1087SOL    HW2 3636   0.288   0.689   9.823
 1088SOL     OW 3637   0.614   0.122   9.427
 1088SOL    HW1 3638   0.712   0.100   9.434
 1088SOL    HW2 3639   0.583   0.105   9.334
 1089SOL     OW 3640   0.539   0.064   9.822
 1089SOL    HW1 3641   0.458   0.065   9.880
 1089SOL    HW2 3642   0.542   0.147   9.767
 1090SOL     OW 3643   1.434   1.188   9.351
 1090SOL    HW1 3644   1.466   1.112   9.408
 1090SOL    HW2 3645   1.342   1.215   9.381
 1091SOL     OW 3646   0.297   0.035   9.481
 1091SOL    HW1 3647   0.346   0.119   9.460
 1091SOL    HW2 3648   0.359  -0.030   9.526
 1092SOL     OW 3649   0.935   0.236   9.790
 1092SOL    HW1 3650   0.887   0.277   9.712
 1092SOL    HW2 3651   1.034   0.234   9.771
 1093SOL     OW 3652   0.459   1.152  10.051
 1093SOL    HW1 3653   0.388   1.125  10.116
 1093SOL    HW2 3654   0.433   1.124   9.958
 1094SOL     OW 3655   1.271   1.797   9.901
 1094SOL    HW1 3656   1.315   1.861   9.837
 1094SOL    HW2 3657   1.221   1.849   9.971
 1095SOL     OW 3658   1.032   0.549   9.326
 1095SOL    HW1 3659   0.991   0.631   9.287
 1095SOL    HW2 3660   1.096   0.575   9.399
 1096SOL     OW 3661   0.866   0.454   9.952
 1096SOL    HW1 3662   0.834   0.526   9.890
 1096SOL    HW2 3663   0.890   0.373   9.899
 1097SOL     OW 3664   1.857   0.833   9.687
 1097SOL    HW1 3665   1.899   0.769   9.751
 1097SOL    HW2 3666   1.819   0.782   9.609
 1098SOL     OW 3667   0.488   1.385   9.484
 1098SOL    HW1 3668   0.401   1.370   9.531
 1098SOL    HW2 3669   0.471   1.411   9.389
 1099SOL     OW 3670   1.390   0.575   9.388
 1099SOL    HW1 3671   1.336   0.554   9.469
 1099SOL    HW2 3672   1.481   0.534   9.397
 1100SOL     OW 3673   0.527   0.256   9.638
 1100SOL    HW1 3674   0.554   0.197   9.563
 1100SOL    HW2 3675   0.527   0.351   9.607
 1101SOL     OW 3676   0.705   1.050   9.678
 1101SOL    HW1 3677   0.691   1.057   9.777
 1101SOL    HW2 3678   0.789   0.999   9.660
 1102SOL     OW 3679   0.367   1.100   9.811
 1102SOL    HW1 3680   0.360   1.183   9.755
 1102SOL    HW2 3681   0.371   1.020   9.751
 1103SOL     OW 3682   1.252   1.348   9.698
 1103SOL    HW1 3683   1.302   1.425   9.738
 1103SOL    HW2 3684   1.157   1.350   9.730
 1104SOL     OW 3685   1.582   0.639   9.782
 1104SOL    HW1 3686   1.551   0.700   9.855
 1104SOL    HW2 3687   1.632   0.691   9.713
 1105SOL     OW 3688   1.209   0.525   9.585
 1105SOL    HW1 3689   1.222   0.441   9.639
 1105SOL    HW2 3690   1.180   0.599   9.645
 1106SOL     OW 3691   0.307   0.063   9.928
 1106SOL    HW1 3692   0.296   0.157   9.961
 1106SOL    HW2 3693   0.302   0.000  10.005
 1107SOL     OW 3694   1.622   0.367   9.684
 1107SOL    HW1 3695   1.624   0.291   9.748
 1107SOL    HW2 3696   1.574   0.444   9.724
 1108SOL     OW 3697   1.540   0.274   9.435
 1108SOL    HW1 3698   1.479   0.199   9.458
 1108SOL    HW2 3699   1.562   0.326   9.518
 1109SOL     OW 3700   1.303   0.838   9.352
 1109SOL    HW1 3701   1.337   0.745   9.367
 1109SOL    HW2 3702   1.321   0.865   9.257
 1110SOL     OW 3703   0.008   1.326   9.510
 1110SOL    HW1 3704  -0.085   1.347   9.479
 1110SOL    HW2 3705   0.018   1.227   9.523
 1111SOL     OW 3706   0.815   0.572   9.635
 1111SOL    HW1 3707   0.822   0.483   9.589
 1111SOL    HW2 3708   0.721   0.606   9.627
 1112SOL     OW 3709   0.473   0.500   9.501
 1112SOL    HW1 3710   0.534   0.580   9.505
 1112SOL    HW2 3711   0.378   0.531   9.508
 1113SOL     OW 3712   1.302   0.855   9.619
 1113SOL    HW1 3713   1.216   0.824   9.661
 1113SOL    HW2 3714   1.298   0.841   9.520
 1114SOL     OW 3715   1.726   0.135   9.833
 1114SOL    HW1 3716   1.799   0.118   9.766
 1114SOL    HW2 3717   1.695   0.048   9.871
 1115SOL     OW 3718   1.388   1.573   9.787
 1115SOL    HW1 3719   1.455   1.585   9.713
 1115SOL    HW2 3720   1.348   1.662   9.810
 1116SOL     OW 3721   0.672   1.616   9.464
 1116SOL    HW1 3722   0.681   1.626   9.365
 1116SOL    HW2 3723   0.632   1.527   9.485
 1117SOL     OW 3724   1.841   0.175  10.273
 1117SOL    HW1 3725   1.880   0.090  10.237
 1117SOL    HW2 3726   1.743   0.177  10.254
 1118SOL     OW 3727   1.194   1.612   9.341
 1118SOL    HW1 3728   1.200   1.519   9.378
 1118SOL    HW2 3729   1.135   1.612   9.261
 1119SOL     OW 3730   0.916   0.910   9.601
 1119SOL    HW1 3731   0.979   0.948   9.533
 1119SOL    HW2 3732   0.956   0.827   9.640
 1120SOL     OW 3733   1.504   1.607   9.354
 1120SOL    HW1 3734   1.412   1.644   9.361
 1120SOL    HW2 3735   1.542   1.627   9.264
 1121SOL     OW 3736   0.590   1.487   9.801
 1121SOL    HW1 3737   0.632   1.429   9.731
 1121SOL    HW2 3738   0.546   1.566   9.757
 1122SOL     OW 3739   0.255   1.348   9.600
 1122SOL    HW1 3740   0.159   1.349   9.573
 1122SOL    HW2 3741   0.267   1.401   9.684
 1123SOL     OW 3742   0.075   0.345   9.343
 1123SOL    HW1 3743  -0.017   0.317   9.314
 1123SOL    HW2 3744   0.106   0.422   9.287
 1124SOL     OW 3745   0.072   0.166   9.628
 1124SOL    HW1 3746   0.055   0.249   9.574
 1124SOL    HW2 3747   0.162   0.129   9.606
 1125SOL     OW 3748   1.183   1.335   9.429
 1125SOL    HW1 3749   1.084   1.324   9.431
 1125SOL    HW2 3750   1.217   1.350   9.522
 1126SOL     OW 3751   1.225   0.325   9.759
 1126SOL    HW1 3752   1.290   0.251   9.748
 1126SOL    HW2 3753   1.245   0.375   9.843
 1127SOL     OW 3754   0.594   0.745   9.962
 1127SOL    HW1 3755   0.644   0.830   9.943
 1127SOL    HW2 3756   0.506   0.747   9.914
 1128SOL     OW 3757   0.859   1.374   9.326
 1128SOL    HW1 3758   0.813   1.389   9.414
 1128SOL    HW2 3759   0.903   1.459   9.296
 1129SOL     OW 3760   1.083   0.984   9.397
 1129SOL    HW1 3761   1.060   1.037   9.315
 1129SOL    HW2 3762   1.164   0.928   9.378
 1130SOL     OW 3763   0.079   1.240   9.963
 1130SOL    HW1 3764   0.078   1.193  10.051
 1130SOL    HW2 3765   0.161   1.212   9.912
 1131SOL     OW 3766   0.428   0.424   9.830
 1131SOL    HW1 3767   0.458   0.352   9.768
 1131SOL    HW2 3768   0.389   0.384   9.913
 1132SOL     OW 3769   0.770   1.330   9.611
 1132SOL    HW1 3770   0.724   1.243   9.628
 1132SOL    HW2 3771   0.861   1.327   9.652
 1133SOL     OW 3772   1.352   0.052   9.478
 1133SOL    HW1 3773   1.387   0.011   9.394
 1133SOL    HW2 3774   1.262   0.014   9.498
 1134SOL     OW 3775   0.039   1.077   9.610
 1134SOL    HW1 3776   0.138   1.066   9.601
 1134SOL    HW2 3777  -0.001   0.991   9.642
 1135SOL     OW 3778   0.875   1.646   9.647
 1135SOL    HW1 3779   0.798   1.611   9.593
 1135SOL    HW2 3780   0.843   1.717   9.709
 1136SOL     OW 3781   0.230   2.490   0.113
 1136SOL    HW1 3782   0.137   2.488   0.150
 1136SOL    HW2 3783   0.231   2.451   0.021
 1137SOL     OW 3784   0.225   2.137   0.996
 1137SOL    HW1 3785   0.260   2.120   1.088
 1137SOL    HW2 3786   0.137   2.092   0.984
 1138SOL     OW 3787   0.019   2.230   0.647
 1138SOL    HW1 3788  -0.063   2.273   0.686
 1138SOL    HW2 3789  -0.009   2.157   0.584
 1139SOL     OW 3790   0.569   3.137   1.165
 1139SOL    HW1 3791   0.476   3.130   1.128
 1139SOL    HW2 3792   0.580   3.226   1.209
 1140SOL     OW 3793   1.555   3.373   0.703
 1140SOL    HW1 3794   1.498   3.357   0.784
 1140SOL    HW2 3795   1.496   3.383   0.623
 1141SOL     OW 3796   1.135   2.565   0.717
 1141SOL    HW1 3797   1.192   2.643   0.692
 1141SOL    HW2 3798   1.075   2.591   0.793
 1142SOL     OW 3799   1.755   2.469   0.231
 1142SOL    HW1 3800   1.743   2.456   0.132
 1142SOL    HW2 3801   1.725   2.388   0.280
 1143SOL     OW 3802   0.768   3.006   1.023
 1143SOL    HW1 3803   0.690   3.023   1.083
 1143SOL    HW2 3804   0.802   3.093   0.987
 1144SOL     OW 3805   0.850   2.660   1.823
 1144SOL    HW1 3806   0.846   2.736   1.888
 1144SOL    HW2 3807   0.872   2.696   1.732
 1145SOL     OW 3808   0.685   2.874   0.665
 1145SOL    HW1 3809   0.754   2.858   0.735
 1145SOL    HW2 3810   0.612   2.931   0.703
 1146SOL     OW 3811   0.686   3.023   1.803
 1146SOL    HW1 3812   0.746   3.102   1.817
 1146SOL    HW2 3813   0.600   3.054   1.762
 1147SOL     OW 3814   0.335   3.297   1.061
 1147SOL    HW1 3815   0.257   3.266   1.008
 1147SOL    HW2 3816   0.393   3.355   1.004
 1148SOL     OW 3817   1.460   3.367   1.339
 1148SOL    HW1 3818   1.484   3.461   1.365
 1148SOL    HW2 3819   1.444   3.313   1.421
 1149SOL     OW 3820   0.438   2.254   1.499
 1149SOL    HW1 3821   0.520   2.198   1.508
 1149SOL    HW2 3822   0.357   2.196   1.503
 1150SOL     OW 3823   1.603   2.309   0.737
 1150SOL    HW1 3824   1.529   2.355   0.687
 1150SOL    HW2 3825   1.654   2.377   0.790
 1151SOL     OW 3826   0.231   3.575   0.483
 1151SOL    HW1 3827   0.265   3.652   0.537
 1151SOL    HW2 3828   0.275   3.575   0.393
 1152SOL     OW 3829   1.127   3.203   1.690
 1152SOL    HW1 3830   1.174   3.203   1.778
 1152SOL    HW2 3831   1.079   3.116   1.679
 1153SOL     OW 3832   0.230   3.296   0.538
 1153SOL    HW1 3833   0.204   3.392   0.538
 1153SOL    HW2 3834   0.159   3.242   0.583
 1154SOL     OW 3835   0.240   2.953   0.886
 1154SOL    HW1 3836   0.254   2.869   0.938
 1154SOL    HW2 3837   0.185   3.017   0.941
 1155SOL     OW 3838   0.620   3.648   1.439
 1155SOL    HW1 3839   0.528   3.631   1.474
 1155SOL    HW2 3840   0.648   3.740   1.465
 1156SOL     OW 3841   0.606   2.826   0.123
 1156SOL    HW1 3842   0.613   2.910   0.069
 1156SOL    HW2 3843   0.652   2.839   0.211
 1157SOL     OW 3844   1.594   1.976   1.480
 1157SOL    HW1 3845   1.576   2.043   1.408
 1157SOL    HW2 3846   1.591   2.022   1.569
 1158SOL     OW 3847   0.122   2.505   0.563
 1158SOL    HW1 3848   0.077   2.417   0.580
 1158SOL    HW2 3849   0.121   2.559   0.647
 1159SOL     OW 3850   1.842   3.629   0.359
 1159SOL    HW1 3851   1.896   3.600   0.439
 1159SOL    HW2 3852   1.872   3.719   0.330
 1160SOL     OW 3853   0.027   3.458   0.117
 1160SOL    HW1 3854   0.008   3.362   0.138
 1160SOL    HW2 3855  -0.006   3.516   0.192
 1161SOL     OW 3856   1.689   2.784   0.612
 1161SOL    HW1 3857   1.784   2.755   0.620
 1161SOL    HW2 3858   1.681   2.849   0.537
 1162SOL     OW 3859   1.641   2.970   0.432
 1162SOL    HW1 3860   1.727   2.972   0.380
 1162SOL    HW2 3861   1.655   3.017   0.520
 1163SOL     OW 3862   0.113   2.599   1.597
 1163SOL    HW1 3863   0.201   2.586   1.642
 1163SOL    HW2 3864   0.100   2.696   1.575
 1164SOL     OW 3865   0.613   3.227   0.726
 1164SOL    HW1 3866   0.564   3.140   0.735
 1164SOL    HW2 3867   0.590   3.270   0.639
 1165SOL     OW 3868   1.293   3.090   1.423
 1165SOL    HW1 3869   1.330   3.017   1.365
 1165SOL    HW2 3870   1.345   3.095   1.508
 1166SOL     OW 3871   0.809   1.866   0.502
 1166SOL    HW1 3872   0.849   1.957   0.493
 1166SOL    HW2 3873   0.709   1.874   0.508
 1167SOL     OW 3874   0.197   2.838   1.264
 1167SOL    HW1 3875   0.286   2.793   1.250
 1167SOL    HW2 3876   0.124   2.773   1.245
 1168SOL     OW 3877   1.525   2.861   0.190
 1168SOL    HW1 3878   1.462   2.785   0.203
 1168SOL    HW2 3879   1.573   2.879   0.276
 1169SOL     OW 3880   1.187   3.654   1.616
 1169SOL    HW1 3881   1.211   3.714   1.540
 1169SOL    HW2 3882   1.194   3.559   1.586
 1170SOL     OW 3883   0.317   2.113   1.801
 1170SOL    HW1 3884   0.388   2.184   1.807
 1170SOL    HW2 3885   0.229   2.152   1.829
 1171SOL     OW 3886   1.466   3.279   0.953
 1171SOL    HW1 3887   1.407   3.285   1.033
 1171SOL    HW2 3888   1.451   3.191   0.907
 1172SOL     OW 3889   1.667   3.576   0.572
 1172SOL    HW1 3890   1.626   3.553   0.484
 1172SOL    HW2 3891   1.649   3.502   0.637
 1173SOL     OW 3892   0.598   2.591   0.270
 1173SOL    HW1 3893   0.622   2.660   0.202
 1173SOL    HW2 3894   0.520   2.624   0.324
 1174SOL     OW 3895   1.281   2.207   0.944
 1174SOL    HW1 3896   1.195   2.157   0.931
 1174SOL    HW2 3897   1.343   2.153   1.000
 1175SOL     OW 3898   1.576   3.524   0.307
 1175SOL    HW1 3899   1.665   3.570   0.310
 1175SOL    HW2 3900   1.555   3.500   0.212
 1176SOL     OW 3901   0.807   2.467   1.465
 1176SOL    HW1 3902   0.760   2.464   1.554
 1176SOL    HW2 3903   0.756   2.412   1.399
 1177SOL     OW 3904   1.394   2.331   1.674
 1177SOL    HW1 3905   1.374   2.374   1.762
 1177SOL    HW2 3906   1.472   2.269   1.683
 1178SOL     OW 3907   0.973   2.752   1.572
 1178SOL    HW1 3908   1.019   2.668   1.543
 1178SOL    HW2 3909   0.917   2.786   1.497
 1179SOL     OW 3910   0.991   2.272   1.242
 1179SOL    HW1 3911   0.914   2.306   1.296
 1179SOL    HW2 3912   0.957   2.221   1.163
 1180SOL     OW 3913   1.041   2.563   0.429
 1180SOL    HW1 3914   1.067   2.559   0.525
 1180SOL    HW2 3915   0.956   2.512   0.415
 1181SOL     OW 3916   0.076   2.673   0.789
 1181SOL    HW1 3917   0.175   2.661   0.798
 1181SOL    HW2 3918   0.052   2.768   0.810
 1182SOL     OW 3919   0.130   3.683   1.571
 1182SOL    HW1 3920   0.120   3.668   1.670
 1182SOL    HW2 3921   0.044   3.719   1.535
 1183SOL     OW 3922   0.865   2.210   0.195
 1183SOL    HW1 3923   0.924   2.273   0.146
 1183SOL    HW2 3924   0.884   2.116   0.166
 1184SOL     OW 3925   1.719   2.447   1.831
 1184SOL    HW1 3926   1.693   2.536   1.795
 1184SOL    HW2 3927   1.717   2.379   1.758
 1185SOL     OW 3928   1.362   3.006   0.545
 1185SOL    HW1 3929   1.445   2.977   0.497
 1185SOL    HW2 3930   1.313   3.073   0.489
 1186SOL     OW 3931   0.550   2.058   0.885
 1186SOL    HW1 3932   0.545   2.053   0.985
 1186SOL    HW2 3933   0.552   2.154   0.856
 1187SOL     OW 3934   1.008   3.318   0.477
 1187SOL    HW1 3935   0.962   3.390   0.425
 1187SOL    HW2 3936   1.004   3.338   0.575
 1188SOL     OW 3937   0.351   3.663   0.853
 1188SOL    HW1 3938   0.401   3.577   0.859
 1188SOL    HW2 3939   0.416   3.740   0.850
 1189SOL     OW 3940   1.795   2.928   0.873
 1189SOL    HW1 3941   1.733   2.913   0.797
 1189SOL    HW2 3942   1.743   2.939   0.958
 1190SOL     OW 3943   1.227   3.412   1.506
 1190SOL    HW1 3944   1.233   3.335   1.570
 1190SOL    HW2 3945   1.175   3.386   1.426
 1191SOL     OW 3946   0.321   2.805   0.242
 1191SOL    HW1 3947   0.403   2.844   0.200
 1191SOL    HW2 3948   0.294   2.723   0.193
 1192SOL     OW 3949   1.458   2.597   0.728
 1192SOL    HW1 3950   1.453   2.532   0.803
 1192SOL    HW2 3951   1.538   2.656   0.741
 1193SOL     OW 3952   0.461   3.128   1.727
 1193SOL    HW1 3953   0.411   3.129   1.641
 1193SOL    HW2 3954   0.398   3.110   1.803
 1194SOL     OW 3955   1.111   3.638   0.237
 1194SOL    HW1 3956   1.051   3.576   0.287
 1194SOL    HW2 3957   1.142   3.594   0.152
 1195SOL     OW 3958   0.202   2.147   1.498
 1195SOL    HW1 3959   0.122   2.207   1.485
 1195SOL    HW2 3960   0.192   2.098   1.584
 1196SOL     OW 3961   1.632   3.239   0.081
 1196SOL    HW1 3962   1.600   3.333   0.071
 1196SOL    HW2 3963   1.556   3.176   0.069
 1197SOL     OW 3964   0.464   3.605   0.323
 1197SOL    HW1 3965   0.497   3.644   0.409
 1197SOL    HW2 3966   0.540   3.598   0.258
 1198SOL     OW 3967   1.400   1.969   0.426
 1198SOL    HW1 3968   1.376   1.932   0.336
 1198SOL    HW2 3969   1.499   1.985   0.430
 1199SOL     OW 3970   0.249   3.647   1.241
 1199SOL    HW1 3971   0.306   3.582   1.291
 1199SOL    HW2 3972   0.233   3.614   1.148
 1200SOL     OW 3973   0.940   3.560   0.904
 1200SOL    HW1 3974   1.020   3.503   0.925
 1200SOL    HW2 3975   0.891   3.520   0.827
 1201SOL     OW 3976   0.382   2.562   0.480
 1201SOL    HW1 3977   0.427   2.472   0.477
 1201SOL    HW2 3978   0.288   2.551   0.513
 1202SOL     OW 3979   1.547   2.084   1.729
 1202SOL    HW1 3980   1.542   2.121   1.821
 1202SOL    HW2 3981   1.475   2.015   1.717
 1203SOL     OW 3982   0.614   1.984   0.117
 1203SOL    HW1 3983   0.712   1.962   0.124
 1203SOL    HW2 3984   0.583   1.967   0.024
 1204SOL     OW 3985   0.781   2.126   1.749
 1204SOL    HW1 3986   0.848   2.065   1.792
 1204SOL    HW2 3987   0.708   2.145   1.814
 1205SOL     OW 3988   0.888   3.376   1.195
 1205SOL    HW1 3989   0.865   3.351   1.101
 1205SOL    HW2 3990   0.949   3.307   1.234
 1206SOL     OW 3991   1.351   2.452   1.433
 1206SOL    HW1 3992   1.379   2.409   1.518
 1206SOL    HW2 3993   1.376   2.548   1.434
 1207SOL     OW 3994   0.803   3.264   0.924
 1207SOL    HW1 3995   0.893   3.278   0.882
 1207SOL    HW2 3996   0.732   3.266   0.853
 1208SOL     OW 3997   0.922   2.365   0.899
 1208SOL    HW1 3998   0.897   2.356   0.803
 1208SOL    HW2 3999   0.970   2.283   0.930
 1209SOL     OW 4000   0.539   1.926   0.512
 1209SOL    HW1 4001   0.458   1.927   0.570
 1209SOL    HW2 4002   0.542   2.009   0.457
 1210SOL     OW 4003   1.434   3.050   0.041
 1210SOL    HW1 4004   1.466   2.974   0.098
 1210SOL    HW2 4005   1.342   3.077   0.071
 1211SOL     OW 4006   0.297   1.897   0.171
 1211SOL    HW1 4007   0.346   1.981   0.150
 1211SOL    HW2 4008   0.359   1.832   0.216
 1212SOL     OW 4009   0.935   2.098   0.480
 1212SOL    HW1 4010   0.887   2.139   0.402
 1212SOL    HW2 4011   1.034   2.096   0.461
 1213SOL     OW 4012   1.076   2.545   1.464
 1213SOL    HW1 4013   0.996   2.484   1.467
 1213SOL    HW2 4014   1.157   2.492   1.440
 1214SOL     OW 4015   1.227   3.432   0.793
 1214SOL    HW1 4016   1.248   3.506   0.728
 1214SOL    HW2 4017   1.295   3.432   0.866
 1215SOL     OW 4018   0.459   3.014   0.741
 1215SOL    HW1 4019   0.388   2.987   0.806
 1215SOL    HW2 4020   0.433   2.986   0.648
 1216SOL     OW 4021   1.271   3.659   0.591
 1216SOL    HW1 4022   1.315   3.723   0.527
 1216SOL    HW2 4023   1.221   3.711   0.661
 1217SOL     OW 4024   1.032   2.411   0.016
 1217SOL    HW1 4025   0.991   2.493  -0.023
 1217SOL    HW2 4026   1.096   2.437   0.089
 1218SOL     OW 4027   0.078   2.418   1.386
 1218SOL    HW1 4028   0.170   2.417   1.345
 1218SOL    HW2 4029   0.072   2.492   1.453
 1219SOL     OW 4030   0.561   2.084   1.147
 1219SOL    HW1 4031   0.599   2.000   1.184
 1219SOL    HW2 4032   0.473   2.103   1.191
 1220SOL     OW 4033   0.866   2.316   0.642
 1220SOL    HW1 4034   0.834   2.388   0.580
 1220SOL    HW2 4035   0.890   2.235   0.589
 1221SOL     OW 4036   1.017   1.901   0.753
 1221SOL    HW1 4037   0.945   1.906   0.684
 1221SOL    HW2 4038   0.993   1.832   0.822
 1222SOL     OW 4039   1.429   3.035   0.867
 1222SOL    HW1 4040   1.374   2.951   0.860
 1222SOL    HW2 4041   1.455   3.064   0.775
 1223SOL     OW 4042   1.466   2.452   0.992
 1223SOL    HW1 4043   1.436   2.357   0.999
 1223SOL    HW2 4044   1.539   2.468   1.058
 1224SOL     OW 4045   1.857   2.695   0.377
 1224SOL    HW1 4046   1.899   2.631   0.441
 1224SOL    HW2 4047   1.819   2.644   0.299
 1225SOL     OW 4048   0.488   3.247   0.174
 1225SOL    HW1 4049   0.401   3.232   0.221
 1225SOL    HW2 4050   0.471   3.273   0.079
 1226SOL     OW 4051   1.664   3.142   0.657
 1226SOL    HW1 4052   1.763   3.150   0.671
 1226SOL    HW2 4053   1.619   3.226   0.688
 1227SOL     OW 4054   1.390   2.437   0.078
 1227SOL    HW1 4055   1.336   2.416   0.159
 1227SOL    HW2 4056   1.481   2.396   0.087
 1228SOL     OW 4057   0.527   2.118   0.328
 1228SOL    HW1 4058   0.554   2.059   0.253
 1228SOL    HW2 4059   0.527   2.213   0.297
 1229SOL     OW 4060   1.754   3.085   1.588
 1229SOL    HW1 4061   1.845   3.046   1.575
 1229SOL    HW2 4062   1.762   3.181   1.612
 1230SOL     OW 4063   1.064   3.209   1.340
 1230SOL    HW1 4064   0.984   3.186   1.395
 1230SOL    HW2 4065   1.147   3.183   1.389
 1231SOL     OW 4066   1.592   3.491   1.625
 1231SOL    HW1 4067   1.619   3.525   1.535
 1231SOL    HW2 4068   1.671   3.453   1.671
 1232SOL     OW 4069   1.111   3.057   1.100
 1232SOL    HW1 4070   1.071   3.101   1.181
 1232SOL    HW2 4071   1.070   3.094   1.017
 1233SOL     OW 4072   1.638   2.961   1.079
 1233SOL    HW1 4073   1.643   3.042   1.138
 1233SOL    HW2 4074   1.552   2.963   1.028
 1234SOL     OW 4075   0.915   1.951   1.402
 1234SOL    HW1 4076   0.940   1.931   1.307
 1234SOL    HW2 4077   0.987   2.007   1.444
 1235SOL     OW 4078   0.980   2.978   1.719
 1235SOL    HW1 4079   0.881   2.984   1.729
 1235SOL    HW2 4080   1.003   2.898   1.663
 1236SOL     OW 4081   0.705   2.912   0.368
 1236SOL    HW1 4082   0.691   2.919   0.467
 1236SOL    HW2 4083   0.789   2.861   0.350
 1237SOL     OW 4084   0.410   2.675   1.251
 1237SOL    HW1 4085   0.496   2.687   1.301
 1237SOL    HW2 4086   0.368   2.588   1.278
 1238SOL     OW 4087   1.274   2.248   1.262
 1238SOL    HW1 4088   1.295   2.322   1.326
 1238SOL    HW2 4089   1.185   2.265   1.219
 1239SOL     OW 4090   0.064   3.426   1.331
 1239SOL    HW1 4091   0.018   3.508   1.297
 1239SOL    HW2 4092   0.162   3.445   1.340
 1240SOL     OW 4093   0.367   2.962   0.501
 1240SOL    HW1 4094   0.360   3.045   0.445
 1240SOL    HW2 4095   0.371   2.882   0.441
 1241SOL     OW 4096   0.566   2.399   0.865
 1241SOL    HW1 4097   0.578   2.465   0.791
 1241SOL    HW2 4098   0.612   2.433   0.948
 1242SOL     OW 4099   1.252   3.210   0.388
 1242SOL    HW1 4100   1.302   3.287   0.428
 1242SOL    HW2 4101   1.157   3.212   0.420
 1243SOL     OW 4102   1.272   3.307   1.142
 1243SOL    HW1 4103   1.319   3.320   1.229
 1243SOL    HW2 4104   1.206   3.233   1.151
 1244SOL     OW 4105   1.582   2.501   0.472
 1244SOL    HW1 4106   1.551   2.562   0.545
 1244SOL    HW2 4107   1.632   2.553   0.403
 1245SOL     OW 4108   0.354   3.372   1.329
 1245SOL    HW1 4109   0.333   3.328   1.242
 1245SOL    HW2 4110   0.451   3.398   1.332
 1246SOL     OW 4111   0.402   2.613   1.598
 1246SOL    HW1 4112   0.470   2.668   1.551
 1246SOL    HW2 4113   0.442   2.525   1.625
 1247SOL     OW 4114   1.587   2.641   1.670
 1247SOL    HW1 4115   1.495   2.679   1.665
 1247SOL    HW2 4116   1.647   2.688   1.605
 1248SOL     OW 4117   1.013   1.967   1.770
 1248SOL    HW1 4118   1.019   2.052   1.718
 1248SOL    HW2 4119   1.045   1.891   1.713
 1249SOL     OW 4120   0.504   1.912   1.740
 1249SOL    HW1 4121   0.462   1.855   1.670
 1249SOL    HW2 4122   0.438   1.981   1.772
 1250SOL     OW 4123   0.573   2.732   1.029
 1250SOL    HW1 4124   0.617   2.821   1.020
 1250SOL    HW2 4125   0.510   2.732   1.106
 1251SOL     OW 4126   1.360   2.724   1.045
 1251SOL    HW1 4127   1.285   2.724   0.979
 1251SOL    HW2 4128   1.397   2.632   1.054
 1252SOL     OW 4129   1.209   2.387   0.275
 1252SOL    HW1 4130   1.222   2.303   0.329
 1252SOL    HW2 4131   1.180   2.461   0.335
 1253SOL     OW 4132   0.307   2.075   1.231
 1253SOL    HW1 4133   0.284   2.112   1.321
 1253SOL    HW2 4134   0.277   1.980   1.225
 1254SOL     OW 4135   0.037   3.172   1.282
 1254SOL    HW1 4136   0.090   3.123   1.350
 1254SOL    HW2 4137   0.059   3.270   1.287
 1255SOL     OW 4138   0.732   2.496   1.064
 1255SOL    HW1 4139   0.791   2.470   0.988
 1255SOL    HW2 4140   0.704   2.592   1.053
 1256SOL     OW 4141   1.728   2.797   1.854
 1256SOL    HW1 4142   1.682   2.790   1.765
 1256SOL    HW2 4143   1.666   2.841   1.920
 1257SOL     OW 4144   0.307   1.925   0.618
 1257SOL    HW1 4145   0.296   2.019   0.651
 1257SOL    HW2 4146   0.302   1.862   0.695
 1258SOL     OW 4147   1.622   2.229   0.374
 1258SOL    HW1 4148   1.624   2.153   0.438
 1258SOL    HW2 4149   1.574   2.306   0.414
 1259SOL     OW 4150   1.023   2.628   0.966
 1259SOL    HW1 4151   1.038   2.649   1.062
 1259SOL    HW2 4152   0.993   2.533   0.957
 1260SOL     OW 4153   0.980   3.435   1.700
 1260SOL    HW1 4154   0.960   3.479   1.612
 1260SOL    HW2 4155   1.019   3.344   1.684
 1261SOL     OW 4156   1.859   3.380   1.605
 1261SOL    HW1 4157   1.873   3.407   1.510
 1261SOL    HW2 4158   1.942   3.402   1.658
 1262SOL     OW 4159   0.350   2.760   1.804
 1262SOL    HW1 4160   0.426   2.804   1.852
 1262SOL    HW2 4161   0.385   2.713   1.722
 1263SOL     OW 4162   1.540   2.136   0.125
 1263SOL    HW1 4163   1.479   2.061   0.148
 1263SOL    HW2 4164   1.562   2.188   0.208
 1264SOL     OW 4165   1.303   2.700   0.042
 1264SOL    HW1 4166   1.337   2.607   0.057
 1264SOL    HW2 4167   1.321   2.727  -0.053
 1265SOL     OW 4168   1.068   3.195   0.849
 1265SOL    HW1 4169   1.075   3.111   0.794
 1265SOL    HW2 4170   1.130   3.264   0.813
 1266SOL     OW 4171   0.319   2.672   0.949
 1266SOL    HW1 4172   0.412   2.708   0.954
 1266SOL    HW2 4173   0.313   2.587   1.001
 1267SOL     OW 4174   0.339   2.371   1.006
 1267SOL    HW1 4175   0.287   2.288   0.989
 1267SOL    HW2 4176   0.416   2.376   0.942
 1268SOL     OW 4177   1.138   2.242   1.678
 1268SOL    HW1 4178   1.093   2.305   1.742
 1268SOL    HW2 4179   1.231   2.273   1.661
 1269SOL     OW 4180   1.160   2.069   1.477
 1269SOL    HW1 4181   1.160   2.133   1.554
 1269SOL    HW2 4182   1.188   2.117   1.394
 1270SOL     OW 4183   0.008   3.188   0.200
 1270SOL    HW1 4184  -0.085   3.209   0.169
 1270SOL    HW2 4185   0.018   3.089   0.213
 1271SOL     OW 4186   0.088   3.663   0.927
 1271SOL    HW1 4187   0.046   3.577   0.900
 1271SOL    HW2 4188   0.182   3.666   0.893
 1272SOL     OW 4189   0.504   3.430   0.910
 1272SOL    HW1 4190   0.570   3.504   0.919
 1272SOL    HW2 4191   0.548   3.351   0.868
 1273SOL     OW 4192   1.002   2.658   1.238
 1273SOL    HW1 4193   1.043   2.626   1.324
 1273SOL    HW2 4194   0.906   2.631   1.235
 1274SOL     OW 4195   0.040   2.406   1.114
 1274SOL    HW1 4196   0.125   2.373   1.073
 1274SOL    HW2 4197   0.053   2.421   1.212
 1275SOL     OW 4198   0.189   2.382   1.722
 1275SOL    HW1 4199   0.248   2.342   1.652
 1275SOL    HW2 4200   0.131   2.453   1.681
 1276SOL     OW 4201   1.369   2.812   1.660
 1276SOL    HW1 4202   1.408   2.901   1.680
 1276SOL    HW2 4203   1.379   2.792   1.563
 1277SOL     OW 4204   0.815   2.434   0.325
 1277SOL    HW1 4205   0.822   2.345   0.279
 1277SOL    HW2 4206   0.721   2.468   0.317
 1278SOL     OW 4207   1.657   2.466   1.206
 1278SOL    HW1 4208   1.619   2.397   1.268
 1278SOL    HW2 4209   1.739   2.430   1.162
 1279SOL     OW 4210   0.252   3.426   1.744
 1279SOL    HW1 4211   0.222   3.483   1.820
 1279SOL    HW2 4212   0.245   3.329   1.770
 1280SOL     OW 4213   0.671   2.326   1.269
 1280SOL    HW1 4214   0.637   2.237   1.239
 1280SOL    HW2 4215   0.697   2.380   1.189
 1281SOL     OW 4216   0.930   3.540   1.465
 1281SOL    HW1 4217   0.906   3.522   1.370
 1281SOL    HW2 4218   0.960   3.634   1.475
 1282SOL     OW 4219   0.473   2.362   0.191
 1282SOL    HW1 4220   0.534   2.442   0.195
 1282SOL    HW2 4221   0.378   2.393   0.198
 1283SOL     OW 4222   0.159   2.999   1.466
 1283SOL    HW1 4223   0.181   2.938   1.542
 1283SOL    HW2 4224   0.169   2.950   1.380
 1284SOL     OW 4225   1.347   2.921   1.234
 1284SOL    HW1 4226   1.371   2.858   1.160
 1284SOL    HW2 4227   1.257   2.961   1.216
 1285SOL     OW 4228   1.302   2.717   0.309
 1285SOL    HW1 4229   1.216   2.686   0.351
 1285SOL    HW2 4230   1.298   2.703   0.210
 1286SOL     OW 4231   1.759   3.609   1.154
 1286SOL    HW1 4232   1.820   3.639   1.081
 1286SOL    HW2 4233   1.721   3.520   1.132
 1287SOL     OW 4234   1.252   3.593   1.128
 1287SOL    HW1 4235   1.336   3.598   1.074
 1287SOL    HW2 4236   1.229   3.497   1.146
 1288SOL     OW 4237   0.083   3.120   1.022
 1288SOL    HW1 4238   0.078   3.119   1.122
 1288SOL    HW2 4239   0.000   3.079   0.984
 1289SOL     OW 4240   0.688   3.524   1.716
 1289SOL    HW1 4241   0.632   3.605   1.725
 1289SOL    HW2 4242   0.740   3.528   1.630
 1290SOL     OW 4243   0.903   1.948   0.133
 1290SOL    HW1 4244   0.954   1.949   0.047
 1290SOL    HW2 4245   0.959   1.906   0.204
 1291SOL     OW 4246   1.726   1.997   0.523
 1291SOL    HW1 4247   1.799   1.980   0.456
 1291SOL    HW2 4248   1.695   1.910   0.561
 1292SOL     OW 4249   1.388   3.435   0.477
 1292SOL    HW1 4250   1.455   3.447   0.403
 1292SOL    HW2 4251   1.348   3.524   0.500
 1293SOL     OW 4252   0.130   3.656   1.851
 1293SOL    HW1 4253   0.089   3.582   1.904
 1293SOL    HW2 4254   0.194   3.707   1.909
 1294SOL     OW 4255   1.280   2.789   0.672
 1294SOL    HW1 4256   1.340   2.708   0.674
 1294SOL    HW2 4257   1.320   2.858   0.612
 1295SOL     OW 4258   0.830   3.135   1.422
 1295SOL    HW1 4259   0.825   3.168   1.517
 1295SOL    HW2 4260   0.744   3.154   1.376
 1296SOL     OW 4261   0.672   3.478   0.154
 1296SOL    HW1 4262   0.681   3.488   0.055
 1296SOL    HW2 4263   0.632   3.389   0.175
 1297SOL     OW 4264   1.650   3.582   1.394
 1297SOL    HW1 4265   1.703   3.592   1.310
 1297SOL    HW2 4266   1.623   3.672   1.428
 1298SOL     OW 4267   1.841   2.037   0.963
 1298SOL    HW1 4268   1.880   1.952   0.927
 1298SOL    HW2 4269   1.743   2.039   0.944
 1299SOL     OW 4270   0.263   2.188   0.720
 1299SOL    HW1 4271   0.184   2.239   0.686
 1299SOL    HW2 4272   0.254   2.173   0.818
 1300SOL     OW 4273   1.194   3.474   0.031
 1300SOL    HW1 4274   1.200   3.381   0.068
 1300SOL    HW2 4275   1.135   3.474  -0.049
 1301SOL     OW 4276   0.822   2.864   1.372
 1301SOL    HW1 4277   0.862   2.863   1.280
 1301SOL    HW2 4278   0.832   2.956   1.412
 1302SOL     OW 4279   0.916   2.772   0.291
 1302SOL    HW1 4280   0.979   2.810   0.223
 1302SOL    HW2 4281   0.956   2.689   0.330
 1303SOL     OW 4282   1.504   3.469   0.044
 1303SOL    HW1 4283   1.412   3.506   0.051
 1303SOL    HW2 4284   1.542   3.489  -0.046
 1304SOL     OW 4285   0.372   3.150   1.490
 1304SOL    HW1 4286   0.359   3.243   1.456
 1304SOL    HW2 4287   0.288   3.098   1.477
 1305SOL     OW 4288   1.614   3.154   1.289
 1305SOL    HW1 4289   1.674   3.157   1.369
 1305SOL    HW2 4290   1.539   3.218   1.302
 1306SOL     OW 4291   1.039   2.960   0.696
 1306SOL    HW1 4292   0.969   2.913   0.750
 1306SOL    HW2 4293   1.098   2.892   0.653
 1307SOL     OW 4294   1.014   2.098   0.971
 1307SOL    HW1 4295   1.006   2.062   0.878
 1307SOL    HW2 4296   1.012   2.022   1.036
 1308SOL     OW 4297   0.590   3.349   0.491
 1308SOL    HW1 4298   0.632   3.291   0.421
 1308SOL    HW2 4299   0.546   3.428   0.447
 1309SOL     OW 4300   1.709   2.247   1.381
 1309SOL    HW1 4301   1.782   2.316   1.385
 1309SOL    HW2 4302   1.737   2.172   1.322
 1310SOL     OW 4303   0.255   3.210   0.290
 1310SOL    HW1 4304   0.159   3.211   0.263
 1310SOL    HW2 4305   0.267   3.263   0.374
 1311SOL     OW 4306   0.105   2.875   1.726
 1311SOL    HW1 4307   0.028   2.842   1.780
 1311SOL    HW2 4308   0.190   2.845   1.768
 1312SOL     OW 4309   0.672   2.065   1.489
 1312SOL    HW1 4310   0.762   2.049   1.449
 1312SOL    HW2 4311   0.680   2.070   1.588
 1313SOL     OW 4312   0.075   2.207   0.033
 1313SOL    HW1 4313  -0.017   2.179   0.004
 1313SOL    HW2 4314   0.106   2.284  -0.023
 1314SOL     OW 4315   1.440   2.718   1.398
 1314SOL    HW1 4316   1.383   2.770   1.335
 1314SOL    HW2 4317   1.536   2.730   1.374
 1315SOL     OW 4318   0.072   2.028   0.318
 1315SOL    HW1 4319   0.055   2.111   0.264
 1315SOL    HW2 4320   0.162   1.991   0.296
 1316SOL     OW 4321   1.183   3.197   0.119
 1316SOL    HW1 4322   1.084   3.186   0.121
 1316SOL    HW2 4323   1.217   3.212   0.212
 1317SOL     OW 4324   0.613   2.704   1.431
 1317SOL    HW1 4325   0.669   2.785   1.414
 1317SOL    HW2 4326   0.672   2.624   1.434
 1318SOL     OW 4327   1.493   3.629   0.959
 1318SOL    HW1 4328   1.526   3.693   0.890
 1318SOL    HW2 4329   1.559   3.623   1.034
 1319SOL     OW 4330   0.716   2.427   1.708
 1319SOL    HW1 4331   0.735   2.492   1.782
 1319SOL    HW2 4332   0.776   2.347   1.717
 1320SOL     OW 4333   1.450   3.082   1.633
 1320SOL    HW1 4334   1.441   3.072   1.732
 1320SOL    HW2 4335   1.546   3.075   1.607
 1321SOL     OW 4336   0.390   3.603   1.560
 1321SOL    HW1 4337   0.299   3.644   1.558
 1321SOL    HW2 4338   0.383   3.509   1.592
 1322SOL     OW 4339   1.674   2.745   1.254
 1322SOL    HW1 4340   1.647   2.656   1.217
 1322SOL    HW2 4341   1.675   2.813   1.181
 1323SOL     OW 4342   1.225   2.187   0.449
 1323SOL    HW1 4343   1.290   2.113   0.438
 1323SOL    HW2 4344   1.245   2.237   0.533
 1324SOL     OW 4345   0.594   2.607   0.652
 1324SOL    HW1 4346   0.644   2.692   0.633
 1324SOL    HW2 4347   0.506   2.609   0.604
 1325SOL     OW 4348   1.777   2.204   1.642
 1325SOL    HW1 4349   1.760   2.235   1.548
 1325SOL    HW2 4350   1.693   2.167   1.680
 1326SOL     OW 4351   1.730   2.796   1.517
 1326SOL    HW1 4352   1.768   2.887   1.532
 1326SOL    HW2 4353   1.722   2.779   1.418
 1327SOL     OW 4354   0.859   3.236   0.016
 1327SOL    HW1 4355   0.813   3.251   0.104
 1327SOL    HW2 4356   0.903   3.321  -0.014
 1328SOL     OW 4357   0.661   3.652   0.953
 1328SOL    HW1 4358   0.615   3.740   0.940
 1328SOL    HW2 4359   0.760   3.664   0.946
 1329SOL     OW 4360   0.859   2.818   0.861
 1329SOL    HW1 4361   0.913   2.749   0.909
 1329SOL    HW2 4362   0.827   2.887   0.927
 1330SOL     OW 4363   1.083   2.846   0.087
 1330SOL    HW1 4364   1.060   2.899   0.005
 1330SOL    HW2 4365   1.164   2.790   0.068
 1331SOL     OW 4366   1.861   3.431   0.851
 1331SOL    HW1 4367   1.790   3.419   0.781
 1331SOL    HW2 4368   1.862   3.352   0.911
 1332SOL     OW 4369   0.221   3.176   1.844
 1332SOL    HW1 4370   0.156   3.103   1.823
 1332SOL    HW2 4371   0.225   3.190   1.942
 1333SOL     OW 4372   0.079   3.102   0.653
 1333SOL    HW1 4373   0.078   3.055   0.741
 1333SOL    HW2 4374   0.161   3.074   0.602
 1334SOL     OW 4375   0.672   3.253   1.624
 1334SOL    HW1 4376   0.594   3.203   1.662
 1334SOL    HW2 4377   0.669   3.348   1.655
 1335SOL     OW 4378   1.824   2.054   1.227
 1335SOL    HW1 4379   1.820   1.964   1.271
 1335SOL    HW2 4380   1.827   2.043   1.128
 1336SOL     OW 4381   0.428   2.286   0.520
 1336SOL    HW1 4382   0.458   2.214   0.458
 1336SOL    HW2 4383   0.389   2.246   0.603
 1337SOL     OW 4384   1.705   3.349   1.104
 1337SOL    HW1 4385   1.612   3.324   1.077
 1337SOL    HW2 4386   1.731   3.299   1.186
 1338SOL     OW 4387   0.317   2.409   1.280
 1338SOL    HW1 4388   0.355   2.350   1.352
 1338SOL    HW2 4389   0.357   2.383   1.192
 1339SOL     OW 4390   0.812   3.448   0.687
 1339SOL    HW1 4391   0.844   3.458   0.593
 1339SOL    HW2 4392   0.733   3.386   0.689
 1340SOL     OW 4393   1.424   2.076   1.112
 1340SOL    HW1 4394   1.476   2.011   1.167
 1340SOL    HW2 4395   1.375   2.139   1.173
 1341SOL     OW 4396   1.001   1.896   1.154
 1341SOL    HW1 4397   0.938   1.824   1.123
 1341SOL    HW2 4398   1.094   1.860   1.154
 1342SOL     OW 4399   0.770   3.192   0.301
 1342SOL    HW1 4400   0.724   3.105   0.318
 1342SOL    HW2 4401   0.861   3.189   0.342
 1343SOL     OW 4402   0.618   3.429   1.284
 1343SOL    HW1 4403   0.613   3.511   1.341
 1343SOL    HW2 4404   0.707   3.426   1.239
 1344SOL     OW 4405   1.352   1.914   0.168
 1344SOL    HW1 4406   1.387   1.873   0.084
 1344SOL    HW2 4407   1.262   1.876   0.188
 1345SOL     OW 4408   1.300   2.315   0.691
 1345SOL    HW1 4409   1.241   2.395   0.695
 1345SOL    HW2 4410   1.315   2.280   0.784
 1346SOL     OW 4411   1.593   2.083   0.882
 1346SOL    HW1 4412   1.509   2.082   0.936
 1346SOL    HW2 4413   1.595   2.166   0.826
 1347SOL     OW 4414   0.039   2.939   0.300
 1347SOL    HW1 4415   0.138   2.928   0.291
 1347SOL    HW2 4416  -0.001   2.853   0.332
 1348SOL     OW 4417   0.875   3.508   0.337
 1348SOL    HW1 4418   0.798   3.473   0.283
 1348SOL    HW2 4419   0.843   3.579   0.399
 1349SOL     OW 4420   0.230   2.490   1.975
 1349SOL    HW1 4421   0.137   2.488   2.012
 1349SOL    HW2 4422   0.231   2.451   1.883
 1350SOL     OW 4423   0.225   2.137   2.858
 1350SOL    HW1 4424   0.260   2.120   2.950
 1350SOL    HW2 4425   0.137   2.092   2.846
 1351SOL     OW 4426   0.019   2.230   2.509
 1351SOL    HW1 4427  -0.063   2.273   2.548
 1351SOL    HW2 4428  -0.009   2.157   2.446
 1352SOL     OW 4429   0.569   3.137   3.027
 1352SOL    HW1 4430   0.476   3.130   2.990
 1352SOL    HW2 4431   0.580   3.226   3.071
 1353SOL     OW 4432   1.555   3.373   2.565
 1353SOL    HW1 4433   1.498   3.357   2.646
 1353SOL    HW2 4434   1.496   3.383   2.485
 1354SOL     OW 4435   1.135   2.565   2.579
 1354SOL    HW1 4436   1.192   2.643   2.554
 1354SOL    HW2 4437   1.075   2.591   2.655
 1355SOL     OW 4438   1.755   2.469   2.093
 1355SOL    HW1 4439   1.743   2.456   1.994
 1355SOL    HW2 4440   1.725   2.388   2.142
 1356SOL     OW 4441   0.768   3.006   2.885
 1356SOL    HW1 4442   0.690   3.023   2.945
 1356SOL    HW2 4443   0.802   3.093   2.849
 1357SOL     OW 4444   0.850   2.660   3.685
 1357SOL    HW1 4445   0.846   2.736   3.750
 1357SOL    HW2 4446   0.872   2.696   3.594
 1358SOL     OW 4447   0.685   2.874   2.527
 1358SOL    HW1 4448   0.754   2.858   2.597
 1358SOL    HW2 4449   0.612   2.931   2.565
 1359SOL     OW 4450   0.686   3.023   3.665
 1359SOL    HW1 4451   0.746   3.102   3.679
 1359SOL    HW2 4452   0.600   3.054   3.624
 1360SOL     OW 4453   0.335   3.297   2.923
 1360SOL    HW1 4454   0.257   3.266   2.870
 1360SOL    HW2 4455   0.393   3.355   2.866
 1361SOL     OW 4456   1.460   3.367   3.201
 1361SOL    HW1 4457   1.484   3.461   3.227
 1361SOL    HW2 4458   1.444   3.313   3.283
 1362SOL     OW 4459   0.438   2.254   3.361
 1362SOL    HW1 4460   0.520   2.198   3.370
 1362SOL    HW2 4461   0.357   2.196   3.365
 1363SOL     OW 4462   1.603   2.309   2.599
 1363SOL    HW1 4463   1.529   2.355   2.549
 1363SOL    HW2 4464   1.654   2.377   2.652
 1364SOL     OW 4465   0.231   3.575   2.345
 1364SOL    HW1 4466   0.265   3.652   2.399
 1364SOL    HW2 4467   0.275   3.575   2.255
 1365SOL     OW 4468   1.127   3.203   3.552
 1365SOL    HW1 4469   1.174   3.203   3.640
 1365SOL    HW2 4470   1.079   3.116   3.541
 1366SOL     OW 4471   0.230   3.296   2.400
 1366SOL    HW1 4472   0.204   3.392   2.400
 1366SOL    HW2 4473   0.159   3.242   2.445
 1367SOL     OW 4474   0.240   2.953   2.748
 1367SOL    HW1 4475   0.254   2.869   2.800
 1367SOL    HW2 4476   0.185   3.017   2.803
 1368SOL     OW 4477   0.620   3.648   3.301
 1368SOL    HW1 4478   0.528   3.631   3.336
 1368SOL    HW2 4479   0.648   3.740   3.327
 1369SOL     OW 4480   0.606   2.826   1.985
 1369SOL    HW1 4481   0.613   2.910   1.931
 1369SOL    HW2 4482   0.652   2.839   2.073
 1370SOL     OW 4483   1.594   1.976   3.342
 1370SOL    HW1 4484   1.576   2.043   3.270
 1370SOL    HW2 4485   1.591   2.022   3.431
 1371SOL     OW 4486   0.122   2.505   2.425
 1371SOL    HW1 4487   0.077   2.417   2.442
 1371SOL    HW2 4488   0.121   2.559   2.509
 1372SOL     OW 4489   1.842   3.629   2.221
 1372SOL    HW1 4490   1.896   3.600   2.301
 1372SOL    HW2 4491   1.872   3.719   2.192
 1373SOL     OW 4492   0.027   3.458   1.979
 1373SOL    HW1 4493   0.008   3.362   2.000
 1373SOL    HW2 4494  -0.006   3.516   2.054
 1374SOL     OW 4495   1.689   2.784   2.474
 1374SOL    HW1 4496   1.784   2.755   2.482
 1374SOL    HW2 4497   1.681   2.849   2.399
 1375SOL     OW 4498   1.641   2.970   2.294
 1375SOL    HW1 4499   1.727   2.972   2.242
 1375SOL    HW2 4500   1.655   3.017   2.382
 1376SOL     OW 4501   0.113   2.599   3.459
 1376SOL    HW1 4502   0.201   2.586   3.504
 1376SOL    HW2 4503   0.100   2.696   3.437
 1377SOL     OW 4504   0.613   3.227   2.588
 1377SOL    HW1 4505   0.564   3.140   2.597
 1377SOL    HW2 4506   0.590   3.270   2.501
 1378SOL     OW 4507   1.293   3.090   3.285
 1378SOL    HW1 4508   1.330   3.017   3.227
 1378SOL    HW2 4509   1.345   3.095   3.370
 1379SOL     OW 4510   0.809   1.866   2.364
 1379SOL    HW1 4511   0.849   1.957   2.355
 1379SOL    HW2 4512   0.709   1.874   2.370
 1380SOL     OW 4513   0.197   2.838   3.126
 1380SOL    HW1 4514   0.286   2.793   3.112
 1380SOL    HW2 4515   0.124   2.773   3.107
 1381SOL     OW 4516   1.525   2.861   2.052
 1381SOL    HW1 4517   1.462   2.785   2.065
 1381SOL    HW2 4518   1.573   2.879   2.138
 1382SOL     OW 4519   1.187   3.654   3.478
 1382SOL    HW1 4520   1.211   3.714   3.402
 1382SOL    HW2 4521   1.194   3.559   3.448
 1383SOL     OW 4522   0.317   2.113   3.663
 1383SOL    HW1 4523   0.388   2.184   3.669
 1383SOL    HW2 4524   0.229   2.152   3.691
 1384SOL     OW 4525   1.466   3.279   2.815
 1384SOL    HW1 4526   1.407   3.285   2.895
 1384SOL    HW2 4527   1.451   3.191   2.769
 1385SOL     OW 4528   1.667   3.576   2.434
 1385SOL    HW1 4529   1.626   3.553   2.346
 1385SOL    HW2 4530   1.649   3.502   2.499
 1386SOL     OW 4531   0.598   2.591   2.132
 1386SOL    HW1 4532   0.622   2.660   2.064
 1386SOL    HW2 4533   0.520   2.624   2.186
 1387SOL     OW 4534   1.281   2.207   2.806
 1387SOL    HW1 4535   1.195   2.157   2.793
 1387SOL    HW2 4536   1.343   2.153   2.862
 1388SOL     OW 4537   1.576   3.524   2.169
 1388SOL    HW1 4538   1.665   3.570   2.172
 1388SOL    HW2 4539   1.555   3.500   2.074
 1389SOL     OW 4540   0.807   2.467   3.327
 1389SOL    HW1 4541   0.760   2.464   3.416
 1389SOL    HW2 4542   0.756   2.412   3.261
 1390SOL     OW 4543   1.394   2.331   3.536
 1390SOL    HW1 4544   1.374   2.374   3.624
 1390SOL    HW2 4545   1.472   2.269   3.545
 1391SOL     OW 4546   0.973   2.752   3.434
 1391SOL    HW1 4547   1.019   2.668   3.405
 1391SOL    HW2 4548   0.917   2.786   3.359
 1392SOL     OW 4549   0.991   2.272   3.104
 1392SOL    HW1 4550   0.914   2.306   3.158
 1392SOL    HW2 4551   0.957   2.221   3.025
 1393SOL     OW 4552   1.041   2.563   2.291
 1393SOL    HW1 4553   1.067   2.559   2.387
 1393SOL    HW2 4554   0.956   2.512   2.277
 1394SOL     OW 4555   0.076   2.673   2.651
 1394SOL    HW1 4556   0.175   2.661   2.660
 1394SOL    HW2 4557   0.052   2.768   2.672
 1395SOL     OW 4558   0.130   3.683   3.433
 1395SOL    HW1 4559   0.120   3.668   3.532
 1395SOL    HW2 4560   0.044   3.719   3.397
 1396SOL     OW 4561   0.865   2.210   2.057
 1396SOL    HW1 4562   0.924   2.273   2.008
 1396SOL    HW2 4563   0.884   2.116   2.028
 1397SOL     OW 4564   1.719   2.447   3.693
 1397SOL    HW1 4565   1.693   2.536   3.657
 1397SOL    HW2 4566   1.717   2.379   3.620
 1398SOL     OW 4567   1.362   3.006   2.407
 1398SOL    HW1 4568   1.445   2.977   2.359
 1398SOL    HW2 4569   1.313   3.073   2.351
 1399SOL     OW 4570   0.550   2.058   2.747
 1399SOL    HW1 4571   0.545   2.053   2.847
 1399SOL    HW2 4572   0.552   2.154   2.718
 1400SOL     OW 4573   1.008   3.318   2.339
 1400SOL    HW1 4574   0.962   3.390   2.287
 1400SOL    HW2 4575   1.004   3.338   2.437
 1401SOL     OW 4576   0.351   3.663   2.715
 1401SOL    HW1 4577   0.401   3.577   2.721
 1401SOL    HW2 4578   0.416   3.740   2.712
 1402SOL     OW 4579   1.795   2.928   2.735
 1402SOL    HW1 4580   1.733   2.913   2.659
 1402SOL    HW2 4581   1.743   2.939   2.820
 1403SOL     OW 4582   1.227   3.412   3.368
 1403SOL    HW1 4583   1.233   3.335   3.432
 1403SOL    HW2 4584   1.175   3.386   3.288
 1404SOL     OW 4585   0.321   2.805   2.104
 1404SOL    HW1 4586   0.403   2.844   2.062
 1404SOL    HW2 4587   0.294   2.723   2.055
 1405SOL     OW 4588   1.458   2.597   2.590
 1405SOL    HW1 4589   1.453   2.532   2.665
 1405SOL    HW2 4590   1.538   2.656   2.603
 1406SOL     OW 4591   0.461   3.128   3.589
 1406SOL    HW1 4592   0.411   3.129   3.503
 1406SOL    HW2 4593   0.398   3.110   3.665
 1407SOL     OW 4594   1.111   3.638   2.099
 1407SOL    HW1 4595   1.051   3.576   2.149
 1407SOL    HW2 4596   1.142   3.594   2.014
 1408SOL     OW 4597   0.202   2.147   3.360
 1408SOL    HW1 4598   0.122   2.207   3.347
 1408SOL    HW2 4599   0.192   2.098   3.446
 1409SOL     OW 4600   1.632   3.239   1.943
 1409SOL    HW1 4601   1.600   3.333   1.933
 1409SOL    HW2 4602   1.556   3.176   1.931
 1410SOL     OW 4603   0.464   3.605   2.185
 1410SOL    HW1 4604   0.497   3.644   2.271
 1410SOL    HW2 4605   0.540   3.598   2.120
 1411SOL     OW 4606   1.400   1.969   2.288
 1411SOL    HW1 4607   1.376   1.932   2.198
 1411SOL    HW2 4608   1.499   1.985   2.292
 1412SOL     OW 4609   0.249   3.647   3.103
 1412SOL    HW1 4610   0.306   3.582   3.153
 1412SOL    HW2 4611   0.233   3.614   3.010
 1413SOL     OW 4612   0.940   3.560   2.766
 1413SOL    HW1 4613   1.020   3.503   2.787
 1413SOL    HW2 4614   0.891   3.520   2.689
 1414SOL     OW 4615   0.382   2.562   2.342
 1414SOL    HW1 4616   0.427   2.472   2.339
 1414SOL    HW2 4617   0.288   2.551   2.375
 1415SOL     OW 4618   1.547   2.084   3.591
 1415SOL    HW1 4619   1.542   2.121   3.683
 1415SOL    HW2 4620   1.475   2.015   3.579
 1416SOL     OW 4621   0.614   1.984   1.979
 1416SOL    HW1 4622   0.712   1.962   1.986
 1416SOL    HW2 4623   0.583   1.967   1.886
 1417SOL     OW 4624   0.781   2.126   3.611
 1417SOL    HW1 4625   0.848   2.065   3.654
 1417SOL    HW2 4626   0.708   2.145   3.676
 1418SOL     OW 4627   0.888   3.376   3.057
 1418SOL    HW1 4628   0.865   3.351   2.963
 1418SOL    HW2 4629   0.949   3.307   3.096
 1419SOL     OW 4630   1.351   2.452   3.295
 1419SOL    HW1 4631   1.379   2.409   3.380
 1419SOL    HW2 4632   1.376   2.548   3.296
 1420SOL     OW 4633   0.803   3.264   2.786
 1420SOL    HW1 4634   0.893   3.278   2.744
 1420SOL    HW2 4635   0.732   3.266   2.715
 1421SOL     OW 4636   0.922   2.365   2.761
 1421SOL    HW1 4637   0.897   2.356   2.665
 1421SOL    HW2 4638   0.970   2.283   2.792
 1422SOL     OW 4639   0.539   1.926   2.374
 1422SOL    HW1 4640   0.458   1.927   2.432
 1422SOL    HW2 4641   0.542   2.009   2.319
 1423SOL     OW 4642   1.434   3.050   1.903
 1423SOL    HW1 4643   1.466   2.974   1.960
 1423SOL    HW2 4644   1.342   3.077   1.933
 1424SOL     OW 4645   0.297   1.897   2.033
 1424SOL    HW1 4646   0.346   1.981   2.012
 1424SOL    HW2 4647   0.359   1.832   2.078
 1425SOL     OW 4648   0.935   2.098   2.342
 1425SOL    HW1 4649   0.887   2.139   2.264
 1425SOL    HW2 4650   1.034   2.096   2.323
 1426SOL     OW 4651   1.076   2.545   3.326
 1426SOL    HW1 4652   0.996   2.484   3.329
 1426SOL    HW2 4653   1.157   2.492   3.302
 1427SOL     OW 4654   1.227   3.432   2.655
 1427SOL    HW1 4655   1.248   3.506   2.590
 1427SOL    HW2 4656   1.295   3.432   2.728
 1428SOL     OW 4657   0.459   3.014   2.603
 1428SOL    HW1 4658   0.388   2.987   2.668
 1428SOL    HW2 4659   0.433   2.986   2.510
 1429SOL     OW 4660   1.271   3.659   2.453
 1429SOL    HW1 4661   1.315   3.723   2.389
 1429SOL    HW2 4662   1.221   3.711   2.523
 1430SOL     OW 4663   1.032   2.411   1.878
 1430SOL    HW1 4664   0.991   2.493   1.839
 1430SOL    HW2 4665   1.096   2.437   1.951
 1431SOL     OW 4666   0.078   2.418   3.248
 1431SOL    HW1 4667   0.170   2.417   3.207
 1431SOL    HW2 4668   0.072   2.492   3.315
 1432SOL     OW 4669   0.561   2.084   3.009
 1432SOL    HW1 4670   0.599   2.000   3.046
 1432SOL    HW2 4671   0.473   2.103   3.053
 1433SOL     OW 4672   0.866   2.316   2.504
 1433SOL    HW1 4673   0.834   2.388   2.442
 1433SOL    HW2 4674   0.890   2.235   2.451
 1434SOL     OW 4675   1.017   1.901   2.615
 1434SOL    HW1 4676   0.945   1.906   2.546
 1434SOL    HW2 4677   0.993   1.832   2.684
 1435SOL     OW 4678   1.429   3.035   2.729
 1435SOL    HW1 4679   1.374   2.951   2.722
 1435SOL    HW2 4680   1.455   3.064   2.637
 1436SOL     OW 4681   1.466   2.452   2.854
 1436SOL    HW1 4682   1.436   2.357   2.861
 1436SOL    HW2 4683   1.539   2.468   2.920
 1437SOL     OW 4684   1.857   2.695   2.239
 1437SOL    HW1 4685   1.899   2.631   2.303
 1437SOL    HW2 4686   1.819   2.644   2.161
 1438SOL     OW 4687   0.488   3.247   2.036
 1438SOL    HW1 4688   0.401   3.232   2.083
 1438SOL    HW2 4689   0.471   3.273   1.941
 1439SOL     OW 4690   1.664   3.142   2.519
 1439SOL    HW1 4691   1.763   3.150   2.533
 1439SOL    HW2 4692   1.619   3.226   2.550
 1440SOL     OW 4693   1.390   2.437   1.940
 1440SOL    HW1 4694   1.336   2.416   2.021
 1440SOL    HW2 4695   1.481   2.396   1.949
 1441SOL     OW 4696   0.527   2.118   2.190
 1441SOL    HW1 4697   0.554   2.059   2.115
 1441SOL    HW2 4698   0.527   2.213   2.159
 1442SOL     OW 4699   1.754   3.085   3.450
 1442SOL    HW1 4700   1.845   3.046   3.437
 1442SOL    HW2 4701   1.762   3.181   3.474
 1443SOL     OW 4702   1.064   3.209   3.202
 1443SOL    HW1 4703   0.984   3.186   3.257
 1443SOL    HW2 4704   1.147   3.183   3.251
 1444SOL     OW 4705   1.592   3.491   3.487
 1444SOL    HW1 4706   1.619   3.525   3.397
 1444SOL    HW2 4707   1.671   3.453   3.533
 1445SOL     OW 4708   1.111   3.057   2.962
 1445SOL    HW1 4709   1.071   3.101   3.043
 1445SOL    HW2 4710   1.070   3.094   2.879
 1446SOL     OW 4711   1.638   2.961   2.941
 1446SOL    HW1 4712   1.643   3.042   3.000
 1446SOL    HW2 4713   1.552   2.963   2.890
 1447SOL     OW 4714   0.915   1.951   3.264
 1447SOL    HW1 4715   0.940   1.931   3.169
 1447SOL    HW2 4716   0.987   2.007   3.306
 1448SOL     OW 4717   0.980   2.978   3.581
 1448SOL    HW1 4718   0.881   2.984   3.591
 1448SOL    HW2 4719   1.003   2.898   3.525
 1449SOL     OW 4720   0.705   2.912   2.230
 1449SOL    HW1 4721   0.691   2.919   2.329
 1449SOL    HW2 4722   0.789   2.861   2.212
 1450SOL     OW 4723   0.410   2.675   3.113
 1450SOL    HW1 4724   0.496   2.687   3.163
 1450SOL    HW2 4725   0.368   2.588   3.140
 1451SOL     OW 4726   1.274   2.248   3.124
 1451SOL    HW1 4727   1.295   2.322   3.188
 1451SOL    HW2 4728   1.185   2.265   3.081
 1452SOL     OW 4729   0.064   3.426   3.193
 1452SOL    HW1 4730   0.018   3.508   3.159
 1452SOL    HW2 4731   0.162   3.445   3.202
 1453SOL     OW 4732   0.367   2.962   2.363
 1453SOL    HW1 4733   0.360   3.045   2.307
 1453SOL    HW2 4734   0.371   2.882   2.303
 1454SOL     OW 4735   0.566   2.399   2.727
 1454SOL    HW1 4736   0.578   2.465   2.653
 1454SOL    HW2 4737   0.612   2.433   2.810
 1455SOL     OW 4738   1.252   3.210   2.250
 1455SOL    HW1 4739   1.302   3.287   2.290
 1455SOL    HW2 4740   1.157   3.212   2.282
 1456SOL     OW 4741   1.272   3.307   3.004
 1456SOL    HW1 4742   1.319   3.320   3.091
 1456SOL    HW2 4743   1.206   3.233   3.013
 1457SOL     OW 4744   1.582   2.501   2.334
 1457SOL    HW1 4745   1.551   2.562   2.407
 1457SOL    HW2 4746   1.632   2.553   2.265
 1458SOL     OW 4747   0.354   3.372   3.191
 1458SOL    HW1 4748   0.333   3.328   3.104
 1458SOL    HW2 4749   0.451   3.398   3.194
 1459SOL     OW 4750   0.402   2.613   3.460
 1459SOL    HW1 4751   0.470   2.668   3.413
 1459SOL    HW2 4752   0.442   2.525   3.487
 1460SOL     OW 4753   1.587   2.641   3.532
 1460SOL    HW1 4754   1.495   2.679   3.527
 1460SOL    HW2 4755   1.647   2.688   3.467
 1461SOL     OW 4756   1.013   1.967   3.632
 1461SOL    HW1 4757   1.019   2.052   3.580
 1461SOL    HW2 4758   1.045   1.891   3.575
 1462SOL     OW 4759   0.504   1.912   3.602
 1462SOL    HW1 4760   0.462   1.855   3.532
 1462SOL    HW2 4761   0.438   1.981   3.634
 1463SOL     OW 4762   0.573   2.732   2.891
 1463SOL    HW1 4763   0.617   2.821   2.882
 1463SOL    HW2 4764   0.510   2.732   2.968
 1464SOL     OW 4765   1.360   2.724   2.907
 1464SOL    HW1 4766   1.285   2.724   2.841
 1464SOL    HW2 4767   1.397   2.632   2.916
 1465SOL     OW 4768   1.209   2.387   2.137
 1465SOL    HW1 4769   1.222   2.303   2.191
 1465SOL    HW2 4770   1.180   2.461   2.197
 1466SOL     OW 4771   0.307   2.075   3.093
 1466SOL    HW1 4772   0.284   2.112   3.183
 1466SOL    HW2 4773   0.277   1.980   3.087
 1467SOL     OW 4774   0.037   3.172   3.144
 1467SOL    HW1 4775   0.090   3.123   3.212
 1467SOL    HW2 4776   0.059   3.270   3.149
 1468SOL     OW 4777   0.732   2.496   2.926
 1468SOL    HW1 4778   0.791   2.470   2.850
 1468SOL    HW2 4779   0.704   2.592   2.915
 1469SOL     OW 4780   1.728   2.797   3.716
 1469SOL    HW1 4781   1.682   2.790   3.627
 1469SOL    HW2 4782   1.666   2.841   3.782
 1470SOL     OW 4783   0.307   1.925   2.480
 1470SOL    HW1 4784   0.296   2.019   2.513
 1470SOL    HW2 4785   0.302   1.862   2.557
 1471SOL     OW 4786   1.622   2.229   2.236
 1471SOL    HW1 4787   1.624   2.153   2.300
 1471SOL    HW2 4788   1.574   2.306   2.276
 1472SOL     OW 4789   1.023   2.628   2.828
 1472SOL    HW1 4790   1.038   2.649   2.924
 1472SOL    HW2 4791   0.993   2.533   2.819
 1473SOL     OW 4792   0.980   3.435   3.562
 1473SOL    HW1 4793   0.960   3.479   3.474
 1473SOL    HW2 4794   1.019   3.344   3.546
 1474SOL     OW 4795   1.859   3.380   3.467
 1474SOL    HW1 4796   1.873   3.407   3.372
 1474SOL    HW2 4797   1.942   3.402   3.520
 1475SOL     OW 4798   0.350   2.760   3.666
 1475SOL    HW1 4799   0.426   2.804   3.714
 1475SOL    HW2 4800   0.385   2.713   3.584
 1476SOL     OW 4801   1.540   2.136   1.987
 1476SOL    HW1 4802   1.479   2.061   2.010
 1476SOL    HW2 4803   1.562   2.188   2.070
 1477SOL     OW 4804   1.303   2.700   1.904
 1477SOL    HW1 4805   1.337   2.607   1.919
 1477SOL    HW2 4806   1.321   2.727   1.809
 1478SOL     OW 4807   1.068   3.195   2.711
 1478SOL    HW1 4808   1.075   3.111   2.656
 1478SOL    HW2 4809   1.130   3.264   2.675
 1479SOL     OW 4810   0.319   2.672   2.811
 1479SOL    HW1 4811   0.412   2.708   2.816
 1479SOL    HW2 4812   0.313   2.587   2.863
 1480SOL     OW 4813   0.339   2.371   2.868
 1480SOL    HW1 4814   0.287   2.288   2.851
 1480SOL    HW2 4815   0.416   2.376   2.804
 1481SOL     OW 4816   1.138   2.242   3.540
 1481SOL    HW1 4817   1.093   2.305   3.604
 1481SOL    HW2 4818   1.231   2.273   3.523
 1482SOL     OW 4819   1.160   2.069   3.339
 1482SOL    HW1 4820   1.160   2.133   3.416
 1482SOL    HW2 4821   1.188   2.117   3.256
 1483SOL     OW 4822   0.008   3.188   2.062
 1483SOL    HW1 4823  -0.085   3.209   2.031
 1483SOL    HW2 4824   0.018   3.089   2.075
 1484SOL     OW 4825   0.088   3.663   2.789
 1484SOL    HW1 4826   0.046   3.577   2.762
 1484SOL    HW2 4827   0.182   3.666   2.755
 1485SOL     OW 4828   0.504   3.430   2.772
 1485SOL    HW1 4829   0.570   3.504   2.781
 1485SOL    HW2 4830   0.548   3.351   2.730
 1486SOL     OW 4831   1.002   2.658   3.100
 1486SOL    HW1 4832   1.043   2.626   3.186
 1486SOL    HW2 4833   0.906   2.631   3.097
 1487SOL     OW 4834   0.040   2.406   2.976
 1487SOL    HW1 4835   0.125   2.373   2.935
 1487SOL    HW2 4836   0.053   2.421   3.074
 1488SOL     OW 4837   0.189   2.382   3.584
 1488SOL    HW1 4838   0.248   2.342   3.514
 1488SOL    HW2 4839   0.131   2.453   3.543
 1489SOL     OW 4840   1.369   2.812   3.522
 1489SOL    HW1 4841   1.408   2.901   3.542
 1489SOL    HW2 4842   1.379   2.792   3.425
 1490SOL     OW 4843   0.815   2.434   2.187
 1490SOL    HW1 4844   0.822   2.345   2.141
 1490SOL    HW2 4845   0.721   2.468   2.179
 1491SOL     OW 4846   1.657   2.466   3.068
 1491SOL    HW1 4847   1.619   2.397   3.130
 1491SOL    HW2 4848   1.739   2.430   3.024
 1492SOL     OW 4849   0.252   3.426   3.606
 1492SOL    HW1 4850   0.222   3.483   3.682
 1492SOL    HW2 4851   0.245   3.329   3.632
 1493SOL     OW 4852   0.671   2.326   3.131
 1493SOL    HW1 4853   0.637   2.237   3.101
 1493SOL    HW2 4854   0.697   2.380   3.051
 1494SOL     OW 4855   0.930   3.540   3.327
 1494SOL    HW1 4856   0.906   3.522   3.232
 1494SOL    HW2 4857   0.960   3.634   3.337
 1495SOL     OW 4858   0.473   2.362   2.053
 1495SOL    HW1 4859   0.534   2.442   2.057
 1495SOL    HW2 4860   0.378   2.393   2.060
 1496SOL     OW 4861   0.159   2.999   3.328
 1496SOL    HW1 4862   0.181   2.938   3.404
 1496SOL    HW2 4863   0.169   2.950   3.242
 1497SOL     OW 4864   1.347   2.921   3.096
 1497SOL    HW1 4865   1.371   2.858   3.022
 1497SOL    HW2 4866   1.257   2.961   3.078
 1498SOL     OW 4867   1.302   2.717   2.171
 1498SOL    HW1 4868   1.216   2.686   2.213
 1498SOL    HW2 4869   1.298   2.703   2.072
 1499SOL     OW 4870   1.759   3.609   3.016
 1499SOL    HW1 4871   1.820   3.639   2.943
 1499SOL    HW2 4872   1.721   3.520   2.994
 1500SOL     OW 4873   1.252   3.593   2.990
 1500SOL    HW1 4874   1.336   3.598   2.936
 1500SOL    HW2 4875   1.229   3.497   3.008
 1501SOL     OW 4876   0.083   3.120   2.884
 1501SOL    HW1 4877   0.078   3.119   2.984
 1501SOL    HW2 4878   0.000   3.079   2.846
 1502SOL     OW 4879   0.688   3.524   3.578
 1502SOL    HW1 4880   0.632   3.605   3.587
 1502SOL    HW2 4881   0.740   3.528   3.492
 1503SOL     OW 4882   1.726   1.997   2.385
 1503SOL    HW1 4883   1.799   1.980   2.318
 1503SOL    HW2 4884   1.695   1.910   2.423
 1504SOL     OW 4885   1.388   3.435   2.339
 1504SOL    HW1 4886   1.455   3.447   2.265
 1504SOL    HW2 4887   1.348   3.524   2.362
 1505SOL     OW 4888   0.130   3.656   3.713
 1505SOL    HW1 4889   0.089   3.582   3.766
 1505SOL    HW2 4890   0.194   3.707   3.771
 1506SOL     OW 4891   1.280   2.789   2.534
 1506SOL    HW1 4892   1.340   2.708   2.536
 1506SOL    HW2 4893   1.320   2.858   2.474
 1507SOL     OW 4894   0.830   3.135   3.284
 1507SOL    HW1 4895   0.825   3.168   3.379
 1507SOL    HW2 4896   0.744   3.154   3.238
 1508SOL     OW 4897   0.672   3.478   2.016
 1508SOL    HW1 4898   0.681   3.488   1.917
 1508SOL    HW2 4899   0.632   3.389   2.037
 1509SOL     OW 4900   1.650   3.582   3.256
 1509SOL    HW1 4901   1.703   3.592   3.172
 1509SOL    HW2 4902   1.623   3.672   3.290
 1510SOL     OW 4903   1.841   2.037   2.825
 1510SOL    HW1 4904   1.880   1.952   2.789
 1510SOL    HW2 4905   1.743   2.039   2.806
 1511SOL     OW 4906   0.263   2.188   2.582
 1511SOL    HW1 4907   0.184   2.239   2.548
 1511SOL    HW2 4908   0.254   2.173   2.680
 1512SOL     OW 4909   1.194   3.474   1.893
 1512SOL    HW1 4910   1.200   3.381   1.930
 1512SOL    HW2 4911   1.135   3.474   1.813
 1513SOL     OW 4912   0.822   2.864   3.234
 1513SOL    HW1 4913   0.862   2.863   3.142
 1513SOL    HW2 4914   0.832   2.956   3.274
 1514SOL     OW 4915   0.916   2.772   2.153
 1514SOL    HW1 4916   0.979   2.810   2.085
 1514SOL    HW2 4917   0.956   2.689   2.192
 1515SOL     OW 4918   1.504   3.469   1.906
 1515SOL    HW1 4919   1.412   3.506   1.913
 1515SOL    HW2 4920   1.542   3.489   1.816
 1516SOL     OW 4921   0.372   3.150   3.352
 1516SOL    HW1 4922   0.359   3.243   3.318
 1516SOL    HW2 4923   0.288   3.098   3.339
 1517SOL     OW 4924   1.614   3.154   3.151
 1517SOL    HW1 4925   1.674   3.157   3.231
 1517SOL    HW2 4926   1.539   3.218   3.164
 1518SOL     OW 4927   1.039   2.960   2.558
 1518SOL    HW1 4928   0.969   2.913   2.612
 1518SOL    HW2 4929   1.098   2.892   2.515
 1519SOL     OW 4930   1.014   2.098   2.833
 1519SOL    HW1 4931   1.006   2.062   2.740
 1519SOL    HW2 4932   1.012   2.022   2.898
 1520SOL     OW 4933   0.590   3.349   2.353
 1520SOL    HW1 4934   0.632   3.291   2.283
 1520SOL    HW2 4935   0.546   3.428   2.309
 1521SOL     OW 4936   1.709   2.247   3.243
 1521SOL    HW1 4937   1.782   2.316   3.247
 1521SOL    HW2 4938   1.737   2.172   3.184
 1522SOL     OW 4939   0.255   3.210   2.152
 1522SOL    HW1 4940   0.159   3.211   2.125
 1522SOL    HW2 4941   0.267   3.263   2.236
 1523SOL     OW 4942   0.105   2.875   3.588
 1523SOL    HW1 4943   0.028   2.842   3.642
 1523SOL    HW2 4944   0.190   2.845   3.630
 1524SOL     OW 4945   0.672   2.065   3.351
 1524SOL    HW1 4946   0.762   2.049   3.311
 1524SOL    HW2 4947   0.680   2.070   3.450
 1525SOL     OW 4948   0.075   2.207   1.895
 1525SOL    HW1 4949  -0.017   2.179   1.866
 1525SOL    HW2 4950   0.106   2.284   1.839
 1526SOL     OW 4951   1.440   2.718   3.260
 1526SOL    HW1 4952   1.383   2.770   3.197
 1526SOL    HW2 4953   1.536   2.730   3.236
 1527SOL     OW 4954   0.072   2.028   2.180
 1527SOL    HW1 4955   0.055   2.111   2.126
 1527SOL    HW2 4956   0.162   1.991   2.158
 1528SOL     OW 4957   1.183   3.197   1.981
 1528SOL    HW1 4958   1.084   3.186   1.983
 1528SOL    HW2 4959   1.217   3.212   2.074
 1529SOL     OW 4960   0.613   2.704   3.293
 1529SOL    HW1 4961   0.669   2.785   3.276
 1529SOL    HW2 4962   0.672   2.624   3.296
 1530SOL     OW 4963   1.493   3.629   2.821
 1530SOL    HW1 4964   1.526   3.693   2.752
 1530SOL    HW2 4965   1.559   3.623   2.896
 1531SOL     OW 4966   0.716   2.427   3.570
 1531SOL    HW1 4967   0.735   2.492   3.644
 1531SOL    HW2 4968   0.776   2.347   3.579
 1532SOL     OW 4969   1.450   3.082   3.495
 1532SOL    HW1 4970   1.441   3.072   3.594
 1532SOL    HW2 4971   1.546   3.075   3.469
 1533SOL     OW 4972   0.390   3.603   3.422
 1533SOL    HW1 4973   0.299   3.644   3.420
 1533SOL    HW2 4974   0.383   3.509   3.454
 1534SOL     OW 4975   1.674   2.745   3.116
 1534SOL    HW1 4976   1.647   2.656   3.079
 1534SOL    HW2 4977   1.675   2.813   3.043
 1535SOL     OW 4978   1.225   2.187   2.311
 1535SOL    HW1 4979   1.290   2.113   2.300
 1535SOL    HW2 4980   1.245   2.237   2.395
 1536SOL     OW 4981   0.594   2.607   2.514
 1536SOL    HW1 4982   0.644   2.692   2.495
 1536SOL    HW2 4983   0.506   2.609   2.466
 1537SOL     OW 4984   1.777   2.204   3.504
 1537SOL    HW1 4985   1.760   2.235   3.410
 1537SOL    HW2 4986   1.693   2.167   3.542
 1538SOL     OW 4987   1.730   2.796   3.379
 1538SOL    HW1 4988   1.768   2.887   3.394
 1538SOL    HW2 4989   1.722   2.779   3.280
 1539SOL     OW 4990   0.859   3.236   1.878
 1539SOL    HW1 4991   0.813   3.251   1.966
 1539SOL    HW2 4992   0.903   3.321   1.848
 1540SOL     OW 4993   0.661   3.652   2.815
 1540SOL    HW1 4994   0.615   3.740   2.802
 1540SOL    HW2 4995   0.760   3.664   2.808
 1541SOL     OW 4996   0.859   2.818   2.723
 1541SOL    HW1 4997   0.913   2.749   2.771
 1541SOL    HW2 4998   0.827   2.887   2.789
 1542SOL     OW 4999   1.083   2.846   1.949
 1542SOL    HW1 5000   1.060   2.899   1.867
 1542SOL    HW2 5001   1.164   2.790   1.930
 1543SOL     OW 5002   1.861   3.431   2.713
 1543SOL    HW1 5003   1.790   3.419   2.643
 1543SOL    HW2 5004   1.862   3.352   2.773
 1544SOL     OW 5005   0.221   3.176   3.706
 1544SOL    HW1 5006   0.156   3.103   3.685
 1544SOL    HW2 5007   0.225   3.190   3.804
 1545SOL     OW 5008   0.079   3.102   2.515
 1545SOL    HW1 5009   0.078   3.055   2.603
 1545SOL    HW2 5010   0.161   3.074   2.464
 1546SOL     OW 5011   0.672   3.253   3.486
 1546SOL    HW1 5012   0.594   3.203   3.524
 1546SOL    HW2 5013   0.669   3.348   3.517
 1547SOL     OW 5014   1.824   2.054   3.089
 1547SOL    HW1 5015   1.820   1.964   3.133
 1547SOL    HW2 5016   1.827   2.043   2.990
 1548SOL     OW 5017   0.428   2.286   2.382
 1548SOL    HW1 5018   0.458   2.214   2.320
 1548SOL    HW2 5019   0.389   2.246   2.465
 1549SOL     OW 5020   1.705   3.349   2.966
 1549SOL    HW1 5021   1.612   3.324   2.939
 1549SOL    HW2 5022   1.731   3.299   3.048
 1550SOL     OW 5023   0.317   2.409   3.142
 1550SOL    HW1 5024   0.355   2.350   3.214
 1550SOL    HW2 5025   0.357   2.383   3.054
 1551SOL     OW 5026   0.812   3.448   2.549
 1551SOL    HW1 5027   0.844   3.458   2.455
 1551SOL    HW2 5028   0.733   3.386   2.551
 1552SOL     OW 5029   1.424   2.076   2.974
 1552SOL    HW1 5030   1.476   2.011   3.029
 1552SOL    HW2 5031   1.375   2.139   3.035
 1553SOL     OW 5032   1.001   1.896   3.016
 1553SOL    HW1 5033   0.938   1.824   2.985
 1553SOL    HW2 5034   1.094   1.860   3.016
 1554SOL     OW 5035   0.770   3.192   2.163
 1554SOL    HW1 5036   0.724   3.105   2.180
 1554SOL    HW2 5037   0.861   3.189   2.204
 1555SOL     OW 5038   0.618   3.429   3.146
 1555SOL    HW1 5039   0.613   3.511   3.203
 1555SOL    HW2 5040   0.707   3.426   3.101
 1556SOL     OW 5041   1.352   1.914   2.030
 1556SOL    HW1 5042   1.387   1.873   1.946
 1556SOL    HW2 5043   1.262   1.876   2.050
 1557SOL     OW 5044   1.300   2.315   2.553
 1557SOL    HW1 5045   1.241   2.395   2.557
 1557SOL    HW2 5046   1.315   2.280   2.646
 1558SOL     OW 5047   1.593   2.083   2.744
 1558SOL    HW1 5048   1.509   2.082   2.798
 1558SOL    HW2 5049   1.595   2.166   2.688
 1559SOL     OW 5050   0.039   2.939   2.162
 1559SOL    HW1 5051   0.138   2.928   2.153
 1559SOL    HW2 5052  -0.001   2.853   2.194
 1560SOL     OW 5053   0.875   3.508   2.199
 1560SOL    HW1 5054   0.798   3.473   2.145
 1560SOL    HW2 5055   0.843   3.579   2.261
 1561SOL     OW 5056   0.230   2.490   3.837
 1561SOL    HW1 5057   0.137   2.488   3.874
 1561SOL    HW2 5058   0.231   2.451   3.745
 1562SOL     OW 5059   0.225   2.137   4.720
 1562SOL    HW1 5060   0.260   2.120   4.812
 1562SOL    HW2 5061   0.137   2.092   4.708
 1563SOL     OW 5062   0.019   2.230   4.371
 1563SOL    HW1 5063  -0.063   2.273   4.410
 1563SOL    HW2 5064  -0.009   2.157   4.308
 1564SOL     OW 5065   0.569   3.137   4.889
 1564SOL    HW1 5066   0.476   3.130   4.852
 1564SOL    HW2 5067   0.580   3.226   4.933
 1565SOL     OW 5068   1.555   3.373   4.427
 1565SOL    HW1 5069   1.498   3.357   4.508
 1565SOL    HW2 5070   1.496   3.383   4.347
 1566SOL     OW 5071   1.135   2.565   4.441
 1566SOL    HW1 5072   1.192   2.643   4.416
 1566SOL    HW2 5073   1.075   2.591   4.517
 1567SOL     OW 5074   1.755   2.469   3.955
 1567SOL    HW1 5075   1.743   2.456   3.856
 1567SOL    HW2 5076   1.725   2.388   4.004
 1568SOL     OW 5077   0.768   3.006   4.747
 1568SOL    HW1 5078   0.690   3.023   4.807
 1568SOL    HW2 5079   0.802   3.093   4.711
 1569SOL     OW 5080   0.850   2.660   5.547
 1569SOL    HW1 5081   0.846   2.736   5.612
 1569SOL    HW2 5082   0.872   2.696   5.456
 1570SOL     OW 5083   0.685   2.874   4.389
 1570SOL    HW1 5084   0.754   2.858   4.459
 1570SOL    HW2 5085   0.612   2.931   4.427
 1571SOL     OW 5086   0.686   3.023   5.527
 1571SOL    HW1 5087   0.746   3.102   5.541
 1571SOL    HW2 5088   0.600   3.054   5.486
 1572SOL     OW 5089   0.335   3.297   4.785
 1572SOL    HW1 5090   0.257   3.266   4.732
 1572SOL    HW2 5091   0.393   3.355   4.728
 1573SOL     OW 5092   1.460   3.367   5.063
 1573SOL    HW1 5093   1.484   3.461   5.089
 1573SOL    HW2 5094   1.444   3.313   5.145
 1574SOL     OW 5095   0.438   2.254   5.223
 1574SOL    HW1 5096   0.520   2.198   5.232
 1574SOL    HW2 5097   0.357   2.196   5.227
 1575SOL     OW 5098   1.603   2.309   4.461
 1575SOL    HW1 5099   1.529   2.355   4.411
 1575SOL    HW2 5100   1.654   2.377   4.514
 1576SOL     OW 5101   0.231   3.575   4.207
 1576SOL    HW1 5102   0.265   3.652   4.261
 1576SOL    HW2 5103   0.275   3.575   4.117
 1577SOL     OW 5104   1.127   3.203   5.414
 1577SOL    HW1 5105   1.174   3.203   5.502
 1577SOL    HW2 5106   1.079   3.116   5.403
 1578SOL     OW 5107   0.230   3.296   4.262
 1578SOL    HW1 5108   0.204   3.392   4.262
 1578SOL    HW2 5109   0.159   3.242   4.307
 1579SOL     OW 5110   0.240   2.953   4.610
 1579SOL    HW1 5111   0.254   2.869   4.662
 1579SOL    HW2 5112   0.185   3.017   4.665
 1580SOL     OW 5113   0.620   3.648   5.163
 1580SOL    HW1 5114   0.528   3.631   5.198
 1580SOL    HW2 5115   0.648   3.740   5.189
 1581SOL     OW 5116   0.606   2.826   3.847
 1581SOL    HW1 5117   0.613   2.910   3.793
 1581SOL    HW2 5118   0.652   2.839   3.935
 1582SOL     OW 5119   1.594   1.976   5.204
 1582SOL    HW1 5120   1.576   2.043   5.132
 1582SOL    HW2 5121   1.591   2.022   5.293
 1583SOL     OW 5122   0.122   2.505   4.287
 1583SOL    HW1 5123   0.077   2.417   4.304
 1583SOL    HW2 5124   0.121   2.559   4.371
 1584SOL     OW 5125   1.842   3.629   4.083
 1584SOL    HW1 5126   1.896   3.600   4.163
 1584SOL    HW2 5127   1.872   3.719   4.054
 1585SOL     OW 5128   0.027   3.458   3.841
 1585SOL    HW1 5129   0.008   3.362   3.862
 1585SOL    HW2 5130  -0.006   3.516   3.916
 1586SOL     OW 5131   1.689   2.784   4.336
 1586SOL    HW1 5132   1.784   2.755   4.344
 1586SOL    HW2 5133   1.681   2.849   4.261
 1587SOL     OW 5134   1.641   2.970   4.156
 1587SOL    HW1 5135   1.727   2.972   4.104
 1587SOL    HW2 5136   1.655   3.017   4.244
 1588SOL     OW 5137   0.113   2.599   5.321
 1588SOL    HW1 5138   0.201   2.586   5.366
 1588SOL    HW2 5139   0.100   2.696   5.299
 1589SOL     OW 5140   0.613   3.227   4.450
 1589SOL    HW1 5141   0.564   3.140   4.459
 1589SOL    HW2 5142   0.590   3.270   4.363
 1590SOL     OW 5143   1.293   3.090   5.147
 1590SOL    HW1 5144   1.330   3.017   5.089
 1590SOL    HW2 5145   1.345   3.095   5.232
 1591SOL     OW 5146   0.809   1.866   4.226
 1591SOL    HW1 5147   0.849   1.957   4.217
 1591SOL    HW2 5148   0.709   1.874   4.232
 1592SOL     OW 5149   0.197   2.838   4.988
 1592SOL    HW1 5150   0.286   2.793   4.974
 1592SOL    HW2 5151   0.124   2.773   4.969
 1593SOL     OW 5152   1.525   2.861   3.914
 1593SOL    HW1 5153   1.462   2.785   3.927
 1593SOL    HW2 5154   1.573   2.879   4.000
 1594SOL     OW 5155   1.187   3.654   5.340
 1594SOL    HW1 5156   1.211   3.714   5.264
 1594SOL    HW2 5157   1.194   3.559   5.310
 1595SOL     OW 5158   0.317   2.113   5.525
 1595SOL    HW1 5159   0.388   2.184   5.531
 1595SOL    HW2 5160   0.229   2.152   5.553
 1596SOL     OW 5161   1.466   3.279   4.677
 1596SOL    HW1 5162   1.407   3.285   4.757
 1596SOL    HW2 5163   1.451   3.191   4.631
 1597SOL     OW 5164   1.667   3.576   4.296
 1597SOL    HW1 5165   1.626   3.553   4.208
 1597SOL    HW2 5166   1.649   3.502   4.361
 1598SOL     OW 5167   0.598   2.591   3.994
 1598SOL    HW1 5168   0.622   2.660   3.926
 1598SOL    HW2 5169   0.520   2.624   4.048
 1599SOL     OW 5170   1.281   2.207   4.668
 1599SOL    HW1 5171   1.195   2.157   4.655
 1599SOL    HW2 5172   1.343   2.153   4.724
 1600SOL     OW 5173   1.576   3.524   4.031
 1600SOL    HW1 5174   1.665   3.570   4.034
 1600SOL    HW2 5175   1.555   3.500   3.936
 1601SOL     OW 5176   0.807   2.467   5.189
 1601SOL    HW1 5177   0.760   2.464   5.278
 1601SOL    HW2 5178   0.756   2.412   5.123
 1602SOL     OW 5179   1.394   2.331   5.398
 1602SOL    HW1 5180   1.374   2.374   5.486
 1602SOL    HW2 5181   1.472   2.269   5.407
 1603SOL     OW 5182   0.973   2.752   5.296
 1603SOL    HW1 5183   1.019   2.668   5.267
 1603SOL    HW2 5184   0.917   2.786   5.221
 1604SOL     OW 5185   0.991   2.272   4.966
 1604SOL    HW1 5186   0.914   2.306   5.020
 1604SOL    HW2 5187   0.957   2.221   4.887
 1605SOL     OW 5188   1.041   2.563   4.153
 1605SOL    HW1 5189   1.067   2.559   4.249
 1605SOL    HW2 5190   0.956   2.512   4.139
 1606SOL     OW 5191   0.076   2.673   4.513
 1606SOL    HW1 5192   0.175   2.661   4.522
 1606SOL    HW2 5193   0.052   2.768   4.534
 1607SOL     OW 5194   0.130   3.683   5.295
 1607SOL    HW1 5195   0.120   3.668   5.394
 1607SOL    HW2 5196   0.044   3.719   5.259
 1608SOL     OW 5197   0.865   2.210   3.919
 1608SOL    HW1 5198   0.924   2.273   3.870
 1608SOL    HW2 5199   0.884   2.116   3.890
 1609SOL     OW 5200   1.719   2.447   5.555
 1609SOL    HW1 5201   1.693   2.536   5.519
 1609SOL    HW2 5202   1.717   2.379   5.482
 1610SOL     OW 5203   1.362   3.006   4.269
 1610SOL    HW1 5204   1.445   2.977   4.221
 1610SOL    HW2 5205   1.313   3.073   4.213
 1611SOL     OW 5206   0.550   2.058   4.609
 1611SOL    HW1 5207   0.545   2.053   4.709
 1611SOL    HW2 5208   0.552   2.154   4.580
 1612SOL     OW 5209   1.008   3.318   4.201
 1612SOL    HW1 5210   0.962   3.390   4.149
 1612SOL    HW2 5211   1.004   3.338   4.299
 1613SOL     OW 5212   0.351   3.663   4.577
 1613SOL    HW1 5213   0.401   3.577   4.583
 1613SOL    HW2 5214   0.416   3.740   4.574
 1614SOL     OW 5215   1.795   2.928   4.597
 1614SOL    HW1 5216   1.733   2.913   4.521
 1614SOL    HW2 5217   1.743   2.939   4.682
 1615SOL     OW 5218   1.227   3.412   5.230
 1615SOL    HW1 5219   1.233   3.335   5.294
 1615SOL    HW2 5220   1.175   3.386   5.150
 1616SOL     OW 5221   0.321   2.805   3.966
 1616SOL    HW1 5222   0.403   2.844   3.924
 1616SOL    HW2 5223   0.294   2.723   3.917
 1617SOL     OW 5224   1.458   2.597   4.452
 1617SOL    HW1 5225   1.453   2.532   4.527
 1617SOL    HW2 5226   1.538   2.656   4.465
 1618SOL     OW 5227   0.461   3.128   5.451
 1618SOL    HW1 5228   0.411   3.129   5.365
 1618SOL    HW2 5229   0.398   3.110   5.527
 1619SOL     OW 5230   1.111   3.638   3.961
 1619SOL    HW1 5231   1.051   3.576   4.011
 1619SOL    HW2 5232   1.142   3.594   3.876
 1620SOL     OW 5233   0.202   2.147   5.222
 1620SOL    HW1 5234   0.122   2.207   5.209
 1620SOL    HW2 5235   0.192   2.098   5.308
 1621SOL     OW 5236   1.632   3.239   3.805
 1621SOL    HW1 5237   1.600   3.333   3.795
 1621SOL    HW2 5238   1.556   3.176   3.793
 1622SOL     OW 5239   0.464   3.605   4.047
 1622SOL    HW1 5240   0.497   3.644   4.133
 1622SOL    HW2 5241   0.540   3.598   3.982
 1623SOL     OW 5242   1.400   1.969   4.150
 1623SOL    HW1 5243   1.376   1.932   4.060
 1623SOL    HW2 5244   1.499   1.985   4.154
 1624SOL     OW 5245   0.249   3.647   4.965
 1624SOL    HW1 5246   0.306   3.582   5.015
 1624SOL    HW2 5247   0.233   3.614   4.872
 1625SOL     OW 5248   0.940   3.560   4.628
 1625SOL    HW1 5249   1.020   3.503   4.649
 1625SOL    HW2 5250   0.891   3.520   4.551
 1626SOL     OW 5251   0.382   2.562   4.204
 1626SOL    HW1 5252   0.427   2.472   4.201
 1626SOL    HW2 5253   0.288   2.551   4.237
 1627SOL     OW 5254   1.547   2.084   5.453
 1627SOL    HW1 5255   1.542   2.121   5.545
 1627SOL    HW2 5256   1.475   2.015   5.441
 1628SOL     OW 5257   0.614   1.984   3.841
 1628SOL    HW1 5258   0.712   1.962   3.848
 1628SOL    HW2 5259   0.583   1.967   3.748
 1629SOL     OW 5260   0.781   2.126   5.473
 1629SOL    HW1 5261   0.848   2.065   5.516
 1629SOL    HW2 5262   0.708   2.145   5.538
 1630SOL     OW 5263   0.888   3.376   4.919
 1630SOL    HW1 5264   0.865   3.351   4.825
 1630SOL    HW2 5265   0.949   3.307   4.958
 1631SOL     OW 5266   1.351   2.452   5.157
 1631SOL    HW1 5267   1.379   2.409   5.242
 1631SOL    HW2 5268   1.376   2.548   5.158
 1632SOL     OW 5269   0.803   3.264   4.648
 1632SOL    HW1 5270   0.893   3.278   4.606
 1632SOL    HW2 5271   0.732   3.266   4.577
 1633SOL     OW 5272   0.922   2.365   4.623
 1633SOL    HW1 5273   0.897   2.356   4.527
 1633SOL    HW2 5274   0.970   2.283   4.654
 1634SOL     OW 5275   0.539   1.926   4.236
 1634SOL    HW1 5276   0.458   1.927   4.294
 1634SOL    HW2 5277   0.542   2.009   4.181
 1635SOL     OW 5278   1.434   3.050   3.765
 1635SOL    HW1 5279   1.466   2.974   3.822
 1635SOL    HW2 5280   1.342   3.077   3.795
 1636SOL     OW 5281   0.297   1.897   3.895
 1636SOL    HW1 5282   0.346   1.981   3.874
 1636SOL    HW2 5283   0.359   1.832   3.940
 1637SOL     OW 5284   0.935   2.098   4.204
 1637SOL    HW1 5285   0.887   2.139   4.126
 1637SOL    HW2 5286   1.034   2.096   4.185
 1638SOL     OW 5287   1.076   2.545   5.188
 1638SOL    HW1 5288   0.996   2.484   5.191
 1638SOL    HW2 5289   1.157   2.492   5.164
 1639SOL     OW 5290   1.227   3.432   4.517
 1639SOL    HW1 5291   1.248   3.506   4.452
 1639SOL    HW2 5292   1.295   3.432   4.590
 1640SOL     OW 5293   0.459   3.014   4.465
 1640SOL    HW1 5294   0.388   2.987   4.530
 1640SOL    HW2 5295   0.433   2.986   4.372
 1641SOL     OW 5296   1.271   3.659   4.315
 1641SOL    HW1 5297   1.315   3.723   4.251
 1641SOL    HW2 5298   1.221   3.711   4.385
 1642SOL     OW 5299   1.032   2.411   3.740
 1642SOL    HW1 5300   0.991   2.493   3.701
 1642SOL    HW2 5301   1.096   2.437   3.813
 1643SOL     OW 5302   0.078   2.418   5.110
 1643SOL    HW1 5303   0.170   2.417   5.069
 1643SOL    HW2 5304   0.072   2.492   5.177
 1644SOL     OW 5305   0.561   2.084   4.871
 1644SOL    HW1 5306   0.599   2.000   4.908
 1644SOL    HW2 5307   0.473   2.103   4.915
 1645SOL     OW 5308   0.866   2.316   4.366
 1645SOL    HW1 5309   0.834   2.388   4.304
 1645SOL    HW2 5310   0.890   2.235   4.313
 1646SOL     OW 5311   1.017   1.901   4.477
 1646SOL    HW1 5312   0.945   1.906   4.408
 1646SOL    HW2 5313   0.993   1.832   4.546
 1647SOL     OW 5314   1.429   3.035   4.591
 1647SOL    HW1 5315   1.374   2.951   4.584
 1647SOL    HW2 5316   1.455   3.064   4.499
 1648SOL     OW 5317   1.466   2.452   4.716
 1648SOL    HW1 5318   1.436   2.357   4.723
 1648SOL    HW2 5319   1.539   2.468   4.782
 1649SOL     OW 5320   1.857   2.695   4.101
 1649SOL    HW1 5321   1.899   2.631   4.165
 1649SOL    HW2 5322   1.819   2.644   4.023
 1650SOL     OW 5323   0.488   3.247   3.898
 1650SOL    HW1 5324   0.401   3.232   3.945
 1650SOL    HW2 5325   0.471   3.273   3.803
 1651SOL     OW 5326   1.664   3.142   4.381
 1651SOL    HW1 5327   1.763   3.150   4.395
 1651SOL    HW2 5328   1.619   3.226   4.412
 1652SOL     OW 5329   1.390   2.437   3.802
 1652SOL    HW1 5330   1.336   2.416   3.883
 1652SOL    HW2 5331   1.481   2.396   3.811
 1653SOL     OW 5332   0.527   2.118   4.052
 1653SOL    HW1 5333   0.554   2.059   3.977
 1653SOL    HW2 5334   0.527   2.213   4.021
 1654SOL     OW 5335   1.754   3.085   5.312
 1654SOL    HW1 5336   1.845   3.046   5.299
 1654SOL    HW2 5337   1.762   3.181   5.336
 1655SOL     OW 5338   1.064   3.209   5.064
 1655SOL    HW1 5339   0.984   3.186   5.119
 1655SOL    HW2 5340   1.147   3.183   5.113
 1656SOL     OW 5341   1.592   3.491   5.349
 1656SOL    HW1 5342   1.619   3.525   5.259
 1656SOL    HW2 5343   1.671   3.453   5.395
 1657SOL     OW 5344   1.111   3.057   4.824
 1657SOL    HW1 5345   1.071   3.101   4.905
 1657SOL    HW2 5346   1.070   3.094   4.741
 1658SOL     OW 5347   1.638   2.961   4.803
 1658SOL    HW1 5348   1.643   3.042   4.862
 1658SOL    HW2 5349   1.552   2.963   4.752
 1659SOL     OW 5350   0.915   1.951   5.126
 1659SOL    HW1 5351   0.940   1.931   5.031
 1659SOL    HW2 5352   0.987   2.007   5.168
 1660SOL     OW 5353   0.980   2.978   5.443
 1660SOL    HW1 5354   0.881   2.984   5.453
 1660SOL    HW2 5355   1.003   2.898   5.387
 1661SOL     OW 5356   0.705   2.912   4.092
 1661SOL    HW1 5357   0.691   2.919   4.191
 1661SOL    HW2 5358   0.789   2.861   4.074
 1662SOL     OW 5359   0.410   2.675   4.975
 1662SOL    HW1 5360   0.496   2.687   5.025
 1662SOL    HW2 5361   0.368   2.588   5.002
 1663SOL     OW 5362   1.274   2.248   4.986
 1663SOL    HW1 5363   1.295   2.322   5.050
 1663SOL    HW2 5364   1.185   2.265   4.943
 1664SOL     OW 5365   0.064   3.426   5.055
 1664SOL    HW1 5366   0.018   3.508   5.021
 1664SOL    HW2 5367   0.162   3.445   5.064
 1665SOL     OW 5368   0.367   2.962   4.225
 1665SOL    HW1 5369   0.360   3.045   4.169
 1665SOL    HW2 5370   0.371   2.882   4.165
 1666SOL     OW 5371   0.566   2.399   4.589
 1666SOL    HW1 5372   0.578   2.465   4.515
 1666SOL    HW2 5373   0.612   2.433   4.672
 1667SOL     OW 5374   1.252   3.210   4.112
 1667SOL    HW1 5375   1.302   3.287   4.152
 1667SOL    HW2 5376   1.157   3.212   4.144
 1668SOL     OW 5377   1.272   3.307   4.866
 1668SOL    HW1 5378   1.319   3.320   4.953
 1668SOL    HW2 5379   1.206   3.233   4.875
 1669SOL     OW 5380   1.582   2.501   4.196
 1669SOL    HW1 5381   1.551   2.562   4.269
 1669SOL    HW2 5382   1.632   2.553   4.127
 1670SOL     OW 5383   0.354   3.372   5.053
 1670SOL    HW1 5384   0.333   3.328   4.966
 1670SOL    HW2 5385   0.451   3.398   5.056
 1671SOL     OW 5386   0.402   2.613   5.322
 1671SOL    HW1 5387   0.470   2.668   5.275
 1671SOL    HW2 5388   0.442   2.525   5.349
 1672SOL     OW 5389   1.587   2.641   5.394
 1672SOL    HW1 5390   1.495   2.679   5.389
 1672SOL    HW2 5391   1.647   2.688   5.329
 1673SOL     OW 5392   1.013   1.967   5.494
 1673SOL    HW1 5393   1.019   2.052   5.442
 1673SOL    HW2 5394   1.045   1.891   5.437
 1674SOL     OW 5395   0.504   1.912   5.464
 1674SOL    HW1 5396   0.462   1.855   5.394
 1674SOL    HW2 5397   0.438   1.981   5.496
 1675SOL     OW 5398   0.573   2.732   4.753
 1675SOL    HW1 5399   0.617   2.821   4.744
 1675SOL    HW2 5400   0.510   2.732   4.830
 1676SOL     OW 5401   1.360   2.724   4.769
 1676SOL    HW1 5402   1.285   2.724   4.703
 1676SOL    HW2 5403   1.397   2.632   4.778
 1677SOL     OW 5404   1.209   2.387   3.999
 1677SOL    HW1 5405   1.222   2.303   4.053
 1677SOL    HW2 5406   1.180   2.461   4.059
 1678SOL     OW 5407   0.307   2.075   4.955
 1678SOL    HW1 5408   0.284   2.112   5.045
 1678SOL    HW2 5409   0.277   1.980   4.949
 1679SOL     OW 5410   0.037   3.172   5.006
 1679SOL    HW1 5411   0.090   3.123   5.074
 1679SOL    HW2 5412   0.059   3.270   5.011
 1680SOL     OW 5413   0.732   2.496   4.788
 1680SOL    HW1 5414   0.791   2.470   4.712
 1680SOL    HW2 5415   0.704   2.592   4.777
 1681SOL     OW 5416   1.728   2.797   5.578
 1681SOL    HW1 5417   1.682   2.790   5.489
 1681SOL    HW2 5418   1.666   2.841   5.644
 1682SOL     OW 5419   0.307   1.925   4.342
 1682SOL    HW1 5420   0.296   2.019   4.375
 1682SOL    HW2 5421   0.302   1.862   4.419
 1683SOL     OW 5422   1.622   2.229   4.098
 1683SOL    HW1 5423   1.624   2.153   4.162
 1683SOL    HW2 5424   1.574   2.306   4.138
 1684SOL     OW 5425   1.023   2.628   4.690
 1684SOL    HW1 5426   1.038   2.649   4.786
 1684SOL    HW2 5427   0.993   2.533   4.681
 1685SOL     OW 5428   0.980   3.435   5.424
 1685SOL    HW1 5429   0.960   3.479   5.336
 1685SOL    HW2 5430   1.019   3.344   5.408
 1686SOL     OW 5431   1.859   3.380   5.329
 1686SOL    HW1 5432   1.873   3.407   5.234
 1686SOL    HW2 5433   1.942   3.402   5.382
 1687SOL     OW 5434   0.350   2.760   5.528
 1687SOL    HW1 5435   0.426   2.804   5.576
 1687SOL    HW2 5436   0.385   2.713   5.446
 1688SOL     OW 5437   1.540   2.136   3.849
 1688SOL    HW1 5438   1.479   2.061   3.872
 1688SOL    HW2 5439   1.562   2.188   3.932
 1689SOL     OW 5440   1.303   2.700   3.766
 1689SOL    HW1 5441   1.337   2.607   3.781
 1689SOL    HW2 5442   1.321   2.727   3.671
 1690SOL     OW 5443   1.068   3.195   4.573
 1690SOL    HW1 5444   1.075   3.111   4.518
 1690SOL    HW2 5445   1.130   3.264   4.537
 1691SOL     OW 5446   0.319   2.672   4.673
 1691SOL    HW1 5447   0.412   2.708   4.678
 1691SOL    HW2 5448   0.313   2.587   4.725
 1692SOL     OW 5449   0.339   2.371   4.730
 1692SOL    HW1 5450   0.287   2.288   4.713
 1692SOL    HW2 5451   0.416   2.376   4.666
 1693SOL     OW 5452   1.138   2.242   5.402
 1693SOL    HW1 5453   1.093   2.305   5.466
 1693SOL    HW2 5454   1.231   2.273   5.385
 1694SOL     OW 5455   1.160   2.069   5.201
 1694SOL    HW1 5456   1.160   2.133   5.278
 1694SOL    HW2 5457   1.188   2.117   5.118
 1695SOL     OW 5458   0.008   3.188   3.924
 1695SOL    HW1 5459  -0.085   3.209   3.893
 1695SOL    HW2 5460   0.018   3.089   3.937
 1696SOL     OW 5461   0.088   3.663   4.651
 1696SOL    HW1 5462   0.046   3.577   4.624
 1696SOL    HW2 5463   0.182   3.666   4.617
 1697SOL     OW 5464   0.504   3.430   4.634
 1697SOL    HW1 5465   0.570   3.504   4.643
 1697SOL    HW2 5466   0.548   3.351   4.592
 1698SOL     OW 5467   1.002   2.658   4.962
 1698SOL    HW1 5468   1.043   2.626   5.048
 1698SOL    HW2 5469   0.906   2.631   4.959
 1699SOL     OW 5470   0.040   2.406   4.838
 1699SOL    HW1 5471   0.125   2.373   4.797
 1699SOL    HW2 5472   0.053   2.421   4.936
 1700SOL     OW 5473   0.189   2.382   5.446
 1700SOL    HW1 5474   0.248   2.342   5.376
 1700SOL    HW2 5475   0.131   2.453   5.405
 1701SOL     OW 5476   1.369   2.812   5.384
 1701SOL    HW1 5477   1.408   2.901   5.404
 1701SOL    HW2 5478   1.379   2.792   5.287
 1702SOL     OW 5479   0.815   2.434   4.049
 1702SOL    HW1 5480   0.822   2.345   4.003
 1702SOL    HW2 5481   0.721   2.468   4.041
 1703SOL     OW 5482   0.252   3.426   5.468
 1703SOL    HW1 5483   0.222   3.483   5.544
 1703SOL    HW2 5484   0.245   3.329   5.494
 1704SOL     OW 5485   0.671   2.326   4.993
 1704SOL    HW1 5486   0.637   2.237   4.963
 1704SOL    HW2 5487   0.697   2.380   4.913
 1705SOL     OW 5488   0.930   3.540   5.189
 1705SOL    HW1 5489   0.906   3.522   5.094
 1705SOL    HW2 5490   0.960   3.634   5.199
 1706SOL     OW 5491   0.473   2.362   3.915
 1706SOL    HW1 5492   0.534   2.442   3.919
 1706SOL    HW2 5493   0.378   2.393   3.922
 1707SOL     OW 5494   0.159   2.999   5.190
 1707SOL    HW1 5495   0.181   2.938   5.266
 1707SOL    HW2 5496   0.169   2.950   5.104
 1708SOL     OW 5497   1.347   2.921   4.958
 1708SOL    HW1 5498   1.371   2.858   4.884
 1708SOL    HW2 5499   1.257   2.961   4.940
 1709SOL     OW 5500   1.302   2.717   4.033
 1709SOL    HW1 5501   1.216   2.686   4.075
 1709SOL    HW2 5502   1.298   2.703   3.934
 1710SOL     OW 5503   1.759   3.609   4.878
 1710SOL    HW1 5504   1.820   3.639   4.805
 1710SOL    HW2 5505   1.721   3.520   4.856
 1711SOL     OW 5506   1.252   3.593   4.852
 1711SOL    HW1 5507   1.336   3.598   4.798
 1711SOL    HW2 5508   1.229   3.497   4.870
 1712SOL     OW 5509   0.083   3.120   4.746
 1712SOL    HW1 5510   0.078   3.119   4.846
 1712SOL    HW2 5511   0.000   3.079   4.708
 1713SOL     OW 5512   0.688   3.524   5.440
 1713SOL    HW1 5513   0.632   3.605   5.449
 1713SOL    HW2 5514   0.740   3.528   5.354
 1714SOL     OW 5515   1.726   1.997   4.247
 1714SOL    HW1 5516   1.799   1.980   4.180
 1714SOL    HW2 5517   1.695   1.910   4.285
 1715SOL     OW 5518   1.388   3.435   4.201
 1715SOL    HW1 5519   1.455   3.447   4.127
 1715SOL    HW2 5520   1.348   3.524   4.224
 1716SOL     OW 5521   0.130   3.656   5.575
 1716SOL    HW1 5522   0.089   3.582   5.628
 1716SOL    HW2 5523   0.194   3.707   5.633
 1717SOL     OW 5524   1.280   2.789   4.396
 1717SOL    HW1 5525   1.340   2.708   4.398
 1717SOL    HW2 5526   1.320   2.858   4.336
 1718SOL     OW 5527   0.830   3.135   5.146
 1718SOL    HW1 5528   0.825   3.168   5.241
 1718SOL    HW2 5529   0.744   3.154   5.100
 1719SOL     OW 5530   0.672   3.478   3.878
 1719SOL    HW1 5531   0.681   3.488   3.779
 1719SOL    HW2 5532   0.632   3.389   3.899
 1720SOL     OW 5533   1.650   3.582   5.118
 1720SOL    HW1 5534   1.703   3.592   5.034
 1720SOL    HW2 5535   1.623   3.672   5.152
 1721SOL     OW 5536   0.263   2.188   4.444
 1721SOL    HW1 5537   0.184   2.239   4.410
 1721SOL    HW2 5538   0.254   2.173   4.542
 1722SOL     OW 5539   1.194   3.474   3.755
 1722SOL    HW1 5540   1.200   3.381   3.792
 1722SOL    HW2 5541   1.135   3.474   3.675
 1723SOL     OW 5542   0.822   2.864   5.096
 1723SOL    HW1 5543   0.862   2.863   5.004
 1723SOL    HW2 5544   0.832   2.956   5.136
 1724SOL     OW 5545   0.916   2.772   4.015
 1724SOL    HW1 5546   0.979   2.810   3.947
 1724SOL    HW2 5547   0.956   2.689   4.054
 1725SOL     OW 5548   1.504   3.469   3.768
 1725SOL    HW1 5549   1.412   3.506   3.775
 1725SOL    HW2 5550   1.542   3.489   3.678
 1726SOL     OW 5551   0.372   3.150   5.214
 1726SOL    HW1 5552   0.359   3.243   5.180
 1726SOL    HW2 5553   0.288   3.098   5.201
 1727SOL     OW 5554   1.614   3.154   5.013
 1727SOL    HW1 5555   1.674   3.157   5.093
 1727SOL    HW2 5556   1.539   3.218   5.026
 1728SOL     OW 5557   1.039   2.960   4.420
 1728SOL    HW1 5558   0.969   2.913   4.474
 1728SOL    HW2 5559   1.098   2.892   4.377
 1729SOL     OW 5560   1.014   2.098   4.695
 1729SOL    HW1 5561   1.006   2.062   4.602
 1729SOL    HW2 5562   1.012   2.022   4.760
 1730SOL     OW 5563   0.590   3.349   4.215
 1730SOL    HW1 5564   0.632   3.291   4.145
 1730SOL    HW2 5565   0.546   3.428   4.171
 1731SOL     OW 5566   0.255   3.210   4.014
 1731SOL    HW1 5567   0.159   3.211   3.987
 1731SOL    HW2 5568   0.267   3.263   4.098
 1732SOL     OW 5569   0.105   2.875   5.450
 1732SOL    HW1 5570   0.028   2.842   5.504
 1732SOL    HW2 5571   0.190   2.845   5.492
 1733SOL     OW 5572   0.672   2.065   5.213
 1733SOL    HW1 5573   0.762   2.049   5.173
 1733SOL    HW2 5574   0.680   2.070   5.312
 1734SOL     OW 5575   0.075   2.207   3.757
 1734SOL    HW1 5576  -0.017   2.179   3.728
 1734SOL    HW2 5577   0.106   2.284   3.701
 1735SOL     OW 5578   1.440   2.718   5.122
 1735SOL    HW1 5579   1.383   2.770   5.059
 1735SOL    HW2 5580   1.536   2.730   5.098
 1736SOL     OW 5581   0.072   2.028   4.042
 1736SOL    HW1 5582   0.055   2.111   3.988
 1736SOL    HW2 5583   0.162   1.991   4.020
 1737SOL     OW 5584   1.183   3.197   3.843
 1737SOL    HW1 5585   1.084   3.186   3.845
 1737SOL    HW2 5586   1.217   3.212   3.936
 1738SOL     OW 5587   0.613   2.704   5.155
 1738SOL    HW1 5588   0.669   2.785   5.138
 1738SOL    HW2 5589   0.672   2.624   5.158
 1739SOL     OW 5590   1.493   3.629   4.683
 1739SOL    HW1 5591   1.526   3.693   4.614
 1739SOL    HW2 5592   1.559   3.623   4.758
 1740SOL     OW 5593   0.716   2.427   5.432
 1740SOL    HW1 5594   0.735   2.492   5.506
 1740SOL    HW2 5595   0.776   2.347   5.441
 1741SOL     OW 5596   1.450   3.082   5.357
 1741SOL    HW1 5597   1.441   3.072   5.456
 1741SOL    HW2 5598   1.546   3.075   5.331
 1742SOL     OW 5599   0.390   3.603   5.284
 1742SOL    HW1 5600   0.299   3.644   5.282
 1742SOL    HW2 5601   0.383   3.509   5.316
 1743SOL     OW 5602   1.225   2.187   4.173
 1743SOL    HW1 5603   1.290   2.113   4.162
 1743SOL    HW2 5604   1.245   2.237   4.257
 1744SOL     OW 5605   0.594   2.607   4.376
 1744SOL    HW1 5606   0.644   2.692   4.357
 1744SOL    HW2 5607   0.506   2.609   4.328
 1745SOL     OW 5608   0.859   3.236   3.740
 1745SOL    HW1 5609   0.813   3.251   3.828
 1745SOL    HW2 5610   0.903   3.321   3.710
 1746SOL     OW 5611   0.661   3.652   4.677
 1746SOL    HW1 5612   0.615   3.740   4.664
 1746SOL    HW2 5613   0.760   3.664   4.670
 1747SOL     OW 5614   0.859   2.818   4.585
 1747SOL    HW1 5615   0.913   2.749   4.633
 1747SOL    HW2 5616   0.827   2.887   4.651
 1748SOL     OW 5617   1.083   2.846   3.811
 1748SOL    HW1 5618   1.060   2.899   3.729
 1748SOL    HW2 5619   1.164   2.790   3.792
 1749SOL     OW 5620   1.861   3.431   4.575
 1749SOL    HW1 5621   1.790   3.419   4.505
 1749SOL    HW2 5622   1.862   3.352   4.635
 1750SOL     OW 5623   0.221   3.176   5.568
 1750SOL    HW1 5624   0.156   3.103   5.547
 1750SOL    HW2 5625   0.225   3.190   5.666
 1751SOL     OW 5626   0.079   3.102   4.377
 1751SOL    HW1 5627   0.078   3.055   4.465
 1751SOL    HW2 5628   0.161   3.074   4.326
 1752SOL     OW 5629   0.672   3.253   5.348
 1752SOL    HW1 5630   0.594   3.203   5.386
 1752SOL    HW2 5631   0.669   3.348   5.379
 1753SOL     OW 5632   0.428   2.286   4.244
 1753SOL    HW1 5633   0.458   2.214   4.182
 1753SOL    HW2 5634   0.389   2.246   4.327
 1754SOL     OW 5635   1.705   3.349   4.828
 1754SOL    HW1 5636   1.612   3.324   4.801
 1754SOL    HW2 5637   1.731   3.299   4.910
 1755SOL     OW 5638   0.317   2.409   5.004
 1755SOL    HW1 5639   0.355   2.350   5.076
 1755SOL    HW2 5640   0.357   2.383   4.916
 1756SOL     OW 5641   0.812   3.448   4.411
 1756SOL    HW1 5642   0.844   3.458   4.317
 1756SOL    HW2 5643   0.733   3.386   4.413
 1757SOL     OW 5644   1.424   2.076   4.836
 1757SOL    HW1 5645   1.476   2.011   4.891
 1757SOL    HW2 5646   1.375   2.139   4.897
 1758SOL     OW 5647   1.001   1.896   4.878
 1758SOL    HW1 5648   0.938   1.824   4.847
 1758SOL    HW2 5649   1.094   1.860   4.878
 1759SOL     OW 5650   0.770   3.192   4.025
 1759SOL    HW1 5651   0.724   3.105   4.042
 1759SOL    HW2 5652   0.861   3.189   4.066
 1760SOL     OW 5653   0.618   3.429   5.008
 1760SOL    HW1 5654   0.613   3.511   5.065
 1760SOL    HW2 5655   0.707   3.426   4.963
 1761SOL     OW 5656   1.352   1.914   3.892
 1761SOL    HW1 5657   1.387   1.873   3.808
 1761SOL    HW2 5658   1.262   1.876   3.912
 1762SOL     OW 5659   1.300   2.315   4.415
 1762SOL    HW1 5660   1.241   2.395   4.419
 1762SOL    HW2 5661   1.315   2.280   4.508
 1763SOL     OW 5662   0.039   2.939   4.024
 1763SOL    HW1 5663   0.138   2.928   4.015
 1763SOL    HW2 5664  -0.001   2.853   4.056
 1764SOL     OW 5665   0.875   3.508   4.061
 1764SOL    HW1 5666   0.798   3.473   4.007
 1764SOL    HW2 5667   0.843   3.579   4.123
 1765SOL     OW 5668   0.230   2.490   5.699
 1765SOL    HW1 5669   0.137   2.488   5.736
 1765SOL    HW2 5670   0.231   2.451   5.607
 1766SOL     OW 5671   0.225   2.137   6.582
 1766SOL    HW1 5672   0.260   2.120   6.674
 1766SOL    HW2 5673   0.137   2.092   6.570
 1767SOL     OW 5674   0.019   2.230   6.233
 1767SOL    HW1 5675  -0.063   2.273   6.272
 1767SOL    HW2 5676  -0.009   2.157   6.170
 1768SOL     OW 5677   0.569   3.137   6.751
 1768SOL    HW1 5678   0.476   3.130   6.714
 1768SOL    HW2 5679   0.580   3.226   6.795
 1769SOL     OW 5680   1.555   3.373   6.289
 1769SOL    HW1 5681   1.498   3.357   6.370
 1769SOL    HW2 5682   1.496   3.383   6.209
 1770SOL     OW 5683   1.135   2.565   6.303
 1770SOL    HW1 5684   1.192   2.643   6.278
 1770SOL    HW2 5685   1.075   2.591   6.379
 1771SOL     OW 5686   1.755   2.469   5.817
 1771SOL    HW1 5687   1.743   2.456   5.718
 1771SOL    HW2 5688   1.725   2.388   5.866
 1772SOL     OW 5689   0.768   3.006   6.609
 1772SOL    HW1 5690   0.690   3.023   6.669
 1772SOL    HW2 5691   0.802   3.093   6.573
 1773SOL     OW 5692   0.850   2.660   7.409
 1773SOL    HW1 5693   0.846   2.736   7.474
 1773SOL    HW2 5694   0.872   2.696   7.318
 1774SOL     OW 5695   0.685   2.874   6.251
 1774SOL    HW1 5696   0.754   2.858   6.321
 1774SOL    HW2 5697   0.612   2.931   6.289
 1775SOL     OW 5698   0.686   3.023   7.389
 1775SOL    HW1 5699   0.746   3.102   7.403
 1775SOL    HW2 5700   0.600   3.054   7.348
 1776SOL     OW 5701   0.335   3.297   6.647
 1776SOL    HW1 5702   0.257   3.266   6.594
 1776SOL    HW2 5703   0.393   3.355   6.590
 1777SOL     OW 5704   1.460   3.367   6.925
 1777SOL    HW1 5705   1.484   3.461   6.951
 1777SOL    HW2 5706   1.444   3.313   7.007
 1778SOL     OW 5707   0.438   2.254   7.085
 1778SOL    HW1 5708   0.520   2.198   7.094
 1778SOL    HW2 5709   0.357   2.196   7.089
 1779SOL     OW 5710   1.603   2.309   6.323
 1779SOL    HW1 5711   1.529   2.355   6.273
 1779SOL    HW2 5712   1.654   2.377   6.376
 1780SOL     OW 5713   0.231   3.575   6.069
 1780SOL    HW1 5714   0.265   3.652   6.123
 1780SOL    HW2 5715   0.275   3.575   5.979
 1781SOL     OW 5716   1.127   3.203   7.276
 1781SOL    HW1 5717   1.174   3.203   7.364
 1781SOL    HW2 5718   1.079   3.116   7.265
 1782SOL     OW 5719   0.230   3.296   6.124
 1782SOL    HW1 5720   0.204   3.392   6.124
 1782SOL    HW2 5721   0.159   3.242   6.169
 1783SOL     OW 5722   0.240   2.953   6.472
 1783SOL    HW1 5723   0.254   2.869   6.524
 1783SOL    HW2 5724   0.185   3.017   6.527
 1784SOL     OW 5725   0.620   3.648   7.025
 1784SOL    HW1 5726   0.528   3.631   7.060
 1784SOL    HW2 5727   0.648   3.740   7.051
 1785SOL     OW 5728   0.606   2.826   5.709
 1785SOL    HW1 5729   0.613   2.910   5.655
 1785SOL    HW2 5730   0.652   2.839   5.797
 1786SOL     OW 5731   1.594   1.976   7.066
 1786SOL    HW1 5732   1.576   2.043   6.994
 1786SOL    HW2 5733   1.591   2.022   7.155
 1787SOL     OW 5734   0.122   2.505   6.149
 1787SOL    HW1 5735   0.077   2.417   6.166
 1787SOL    HW2 5736   0.121   2.559   6.233
 1788SOL     OW 5737   1.842   3.629   5.945
 1788SOL    HW1 5738   1.896   3.600   6.025
 1788SOL    HW2 5739   1.872   3.719   5.916
 1789SOL     OW 5740   0.027   3.458   5.703
 1789SOL    HW1 5741   0.008   3.362   5.724
 1789SOL    HW2 5742  -0.006   3.516   5.778
 1790SOL     OW 5743   1.689   2.784   6.198
 1790SOL    HW1 5744   1.784   2.755   6.206
 1790SOL    HW2 5745   1.681   2.849   6.123
 1791SOL     OW 5746   1.641   2.970   6.018
 1791SOL    HW1 5747   1.727   2.972   5.966
 1791SOL    HW2 5748   1.655   3.017   6.106
 1792SOL     OW 5749   0.113   2.599   7.183
 1792SOL    HW1 5750   0.201   2.586   7.228
 1792SOL    HW2 5751   0.100   2.696   7.161
 1793SOL     OW 5752   0.613   3.227   6.312
 1793SOL    HW1 5753   0.564   3.140   6.321
 1793SOL    HW2 5754   0.590   3.270   6.225
 1794SOL     OW 5755   1.293   3.090   7.009
 1794SOL    HW1 5756   1.330   3.017   6.951
 1794SOL    HW2 5757   1.345   3.095   7.094
 1795SOL     OW 5758   0.809   1.866   6.088
 1795SOL    HW1 5759   0.849   1.957   6.079
 1795SOL    HW2 5760   0.709   1.874   6.094
 1796SOL     OW 5761   0.197   2.838   6.850
 1796SOL    HW1 5762   0.286   2.793   6.836
 1796SOL    HW2 5763   0.124   2.773   6.831
 1797SOL     OW 5764   1.525   2.861   5.776
 1797SOL    HW1 5765   1.462   2.785   5.789
 1797SOL    HW2 5766   1.573   2.879   5.862
 1798SOL     OW 5767   1.187   3.654   7.202
 1798SOL    HW1 5768   1.211   3.714   7.126
 1798SOL    HW2 5769   1.194   3.559   7.172
 1799SOL     OW 5770   0.317   2.113   7.387
 1799SOL    HW1 5771   0.388   2.184   7.393
 1799SOL    HW2 5772   0.229   2.152   7.415
 1800SOL     OW 5773   1.466   3.279   6.539
 1800SOL    HW1 5774   1.407   3.285   6.619
 1800SOL    HW2 5775   1.451   3.191   6.493
 1801SOL     OW 5776   1.667   3.576   6.158
 1801SOL    HW1 5777   1.626   3.553   6.070
 1801SOL    HW2 5778   1.649   3.502   6.223
 1802SOL     OW 5779   0.598   2.591   5.856
 1802SOL    HW1 5780   0.622   2.660   5.788
 1802SOL    HW2 5781   0.520   2.624   5.910
 1803SOL     OW 5782   1.281   2.207   6.530
 1803SOL    HW1 5783   1.195   2.157   6.517
 1803SOL    HW2 5784   1.343   2.153   6.586
 1804SOL     OW 5785   1.576   3.524   5.893
 1804SOL    HW1 5786   1.665   3.570   5.896
 1804SOL    HW2 5787   1.555   3.500   5.798
 1805SOL     OW 5788   0.807   2.467   7.051
 1805SOL    HW1 5789   0.760   2.464   7.140
 1805SOL    HW2 5790   0.756   2.412   6.985
 1806SOL     OW 5791   1.394   2.331   7.260
 1806SOL    HW1 5792   1.374   2.374   7.348
 1806SOL    HW2 5793   1.472   2.269   7.269
 1807SOL     OW 5794   0.973   2.752   7.158
 1807SOL    HW1 5795   1.019   2.668   7.129
 1807SOL    HW2 5796   0.917   2.786   7.083
 1808SOL     OW 5797   0.991   2.272   6.828
 1808SOL    HW1 5798   0.914   2.306   6.882
 1808SOL    HW2 5799   0.957   2.221   6.749
 1809SOL     OW 5800   1.041   2.563   6.015
 1809SOL    HW1 5801   1.067   2.559   6.111
 1809SOL    HW2 5802   0.956   2.512   6.001
 1810SOL     OW 5803   0.076   2.673   6.375
 1810SOL    HW1 5804   0.175   2.661   6.384
 1810SOL    HW2 5805   0.052   2.768   6.396
 1811SOL     OW 5806   0.130   3.683   7.157
 1811SOL    HW1 5807   0.120   3.668   7.256
 1811SOL    HW2 5808   0.044   3.719   7.121
 1812SOL     OW 5809   0.865   2.210   5.781
 1812SOL    HW1 5810   0.924   2.273   5.732
 1812SOL    HW2 5811   0.884   2.116   5.752
 1813SOL     OW 5812   1.719   2.447   7.417
 1813SOL    HW1 5813   1.693   2.536   7.381
 1813SOL    HW2 5814   1.717   2.379   7.344
 1814SOL     OW 5815   1.362   3.006   6.131
 1814SOL    HW1 5816   1.445   2.977   6.083
 1814SOL    HW2 5817   1.313   3.073   6.075
 1815SOL     OW 5818   0.550   2.058   6.471
 1815SOL    HW1 5819   0.545   2.053   6.571
 1815SOL    HW2 5820   0.552   2.154   6.442
 1816SOL     OW 5821   1.008   3.318   6.063
 1816SOL    HW1 5822   0.962   3.390   6.011
 1816SOL    HW2 5823   1.004   3.338   6.161
 1817SOL     OW 5824   0.351   3.663   6.439
 1817SOL    HW1 5825   0.401   3.577   6.445
 1817SOL    HW2 5826   0.416   3.740   6.436
 1818SOL     OW 5827   1.795   2.928   6.459
 1818SOL    HW1 5828   1.733   2.913   6.383
 1818SOL    HW2 5829   1.743   2.939   6.544
 1819SOL     OW 5830   1.227   3.412   7.092
 1819SOL    HW1 5831   1.233   3.335   7.156
 1819SOL    HW2 5832   1.175   3.386   7.012
 1820SOL     OW 5833   0.321   2.805   5.828
 1820SOL    HW1 5834   0.403   2.844   5.786
 1820SOL    HW2 5835   0.294   2.723   5.779
 1821SOL     OW 5836   1.458   2.597   6.314
 1821SOL    HW1 5837   1.453   2.532   6.389
 1821SOL    HW2 5838   1.538   2.656   6.327
 1822SOL     OW 5839   0.461   3.128   7.313
 1822SOL    HW1 5840   0.411   3.129   7.227
 1822SOL    HW2 5841   0.398   3.110   7.389
 1823SOL     OW 5842   1.111   3.638   5.823
 1823SOL    HW1 5843   1.051   3.576   5.873
 1823SOL    HW2 5844   1.142   3.594   5.738
 1824SOL     OW 5845   0.202   2.147   7.084
 1824SOL    HW1 5846   0.122   2.207   7.071
 1824SOL    HW2 5847   0.192   2.098   7.170
 1825SOL     OW 5848   1.632   3.239   5.667
 1825SOL    HW1 5849   1.600   3.333   5.657
 1825SOL    HW2 5850   1.556   3.176   5.655
 1826SOL     OW 5851   0.464   3.605   5.909
 1826SOL    HW1 5852   0.497   3.644   5.995
 1826SOL    HW2 5853   0.540   3.598   5.844
 1827SOL     OW 5854   1.400   1.969   6.012
 1827SOL    HW1 5855   1.376   1.932   5.922
 1827SOL    HW2 5856   1.499   1.985   6.016
 1828SOL     OW 5857   0.249   3.647   6.827
 1828SOL    HW1 5858   0.306   3.582   6.877
 1828SOL    HW2 5859   0.233   3.614   6.734
 1829SOL     OW 5860   0.940   3.560   6.490
 1829SOL    HW1 5861   1.020   3.503   6.511
 1829SOL    HW2 5862   0.891   3.520   6.413
 1830SOL     OW 5863   0.382   2.562   6.066
 1830SOL    HW1 5864   0.427   2.472   6.063
 1830SOL    HW2 5865   0.288   2.551   6.099
 1831SOL     OW 5866   1.547   2.084   7.315
 1831SOL    HW1 5867   1.542   2.121   7.407
 1831SOL    HW2 5868   1.475   2.015   7.303
 1832SOL     OW 5869   0.614   1.984   5.703
 1832SOL    HW1 5870   0.712   1.962   5.710
 1832SOL    HW2 5871   0.583   1.967   5.610
 1833SOL     OW 5872   0.781   2.126   7.335
 1833SOL    HW1 5873   0.848   2.065   7.378
 1833SOL    HW2 5874   0.708   2.145   7.400
 1834SOL     OW 5875   0.888   3.376   6.781
 1834SOL    HW1 5876   0.865   3.351   6.687
 1834SOL    HW2 5877   0.949   3.307   6.820
 1835SOL     OW 5878   1.351   2.452   7.019
 1835SOL    HW1 5879   1.379   2.409   7.104
 1835SOL    HW2 5880   1.376   2.548   7.020
 1836SOL     OW 5881   0.803   3.264   6.510
 1836SOL    HW1 5882   0.893   3.278   6.468
 1836SOL    HW2 5883   0.732   3.266   6.439
 1837SOL     OW 5884   0.922   2.365   6.485
 1837SOL    HW1 5885   0.897   2.356   6.389
 1837SOL    HW2 5886   0.970   2.283   6.516
 1838SOL     OW 5887   0.539   1.926   6.098
 1838SOL    HW1 5888   0.458   1.927   6.156
 1838SOL    HW2 5889   0.542   2.009   6.043
 1839SOL     OW 5890   1.434   3.050   5.627
 1839SOL    HW1 5891   1.466   2.974   5.684
 1839SOL    HW2 5892   1.342   3.077   5.657
 1840SOL     OW 5893   0.297   1.897   5.757
 1840SOL    HW1 5894   0.346   1.981   5.736
 1840SOL    HW2 5895   0.359   1.832   5.802
 1841SOL     OW 5896   0.935   2.098   6.066
 1841SOL    HW1 5897   0.887   2.139   5.988
 1841SOL    HW2 5898   1.034   2.096   6.047
 1842SOL     OW 5899   1.076   2.545   7.050
 1842SOL    HW1 5900   0.996   2.484   7.053
 1842SOL    HW2 5901   1.157   2.492   7.026
 1843SOL     OW 5902   1.227   3.432   6.379
 1843SOL    HW1 5903   1.248   3.506   6.314
 1843SOL    HW2 5904   1.295   3.432   6.452
 1844SOL     OW 5905   0.459   3.014   6.327
 1844SOL    HW1 5906   0.388   2.987   6.392
 1844SOL    HW2 5907   0.433   2.986   6.234
 1845SOL     OW 5908   1.271   3.659   6.177
 1845SOL    HW1 5909   1.315   3.723   6.113
 1845SOL    HW2 5910   1.221   3.711   6.247
 1846SOL     OW 5911   1.032   2.411   5.602
 1846SOL    HW1 5912   0.991   2.493   5.563
 1846SOL    HW2 5913   1.096   2.437   5.675
 1847SOL     OW 5914   0.078   2.418   6.972
 1847SOL    HW1 5915   0.170   2.417   6.931
 1847SOL    HW2 5916   0.072   2.492   7.039
 1848SOL     OW 5917   0.561   2.084   6.733
 1848SOL    HW1 5918   0.599   2.000   6.770
 1848SOL    HW2 5919   0.473   2.103   6.777
 1849SOL     OW 5920   0.866   2.316   6.228
 1849SOL    HW1 5921   0.834   2.388   6.166
 1849SOL    HW2 5922   0.890   2.235   6.175
 1850SOL     OW 5923   1.017   1.901   6.339
 1850SOL    HW1 5924   0.945   1.906   6.270
 1850SOL    HW2 5925   0.993   1.832   6.408
 1851SOL     OW 5926   1.429   3.035   6.453
 1851SOL    HW1 5927   1.374   2.951   6.446
 1851SOL    HW2 5928   1.455   3.064   6.361
 1852SOL     OW 5929   1.466   2.452   6.578
 1852SOL    HW1 5930   1.436   2.357   6.585
 1852SOL    HW2 5931   1.539   2.468   6.644
 1853SOL     OW 5932   1.857   2.695   5.963
 1853SOL    HW1 5933   1.899   2.631   6.027
 1853SOL    HW2 5934   1.819   2.644   5.885
 1854SOL     OW 5935   0.488   3.247   5.760
 1854SOL    HW1 5936   0.401   3.232   5.807
 1854SOL    HW2 5937   0.471   3.273   5.665
 1855SOL     OW 5938   1.664   3.142   6.243
 1855SOL    HW1 5939   1.763   3.150   6.257
 1855SOL    HW2 5940   1.619   3.226   6.274
 1856SOL     OW 5941   1.390   2.437   5.664
 1856SOL    HW1 5942   1.336   2.416   5.745
 1856SOL    HW2 5943   1.481   2.396   5.673
 1857SOL     OW 5944   0.527   2.118   5.914
 1857SOL    HW1 5945   0.554   2.059   5.839
 1857SOL    HW2 5946   0.527   2.213   5.883
 1858SOL     OW 5947   1.754   3.085   7.174
 1858SOL    HW1 5948   1.845   3.046   7.161
 1858SOL    HW2 5949   1.762   3.181   7.198
 1859SOL     OW 5950   1.064   3.209   6.926
 1859SOL    HW1 5951   0.984   3.186   6.981
 1859SOL    HW2 5952   1.147   3.183   6.975
 1860SOL     OW 5953   1.592   3.491   7.211
 1860SOL    HW1 5954   1.619   3.525   7.121
 1860SOL    HW2 5955   1.671   3.453   7.257
 1861SOL     OW 5956   1.111   3.057   6.686
 1861SOL    HW1 5957   1.071   3.101   6.767
 1861SOL    HW2 5958   1.070   3.094   6.603
 1862SOL     OW 5959   1.638   2.961   6.665
 1862SOL    HW1 5960   1.643   3.042   6.724
 1862SOL    HW2 5961   1.552   2.963   6.614
 1863SOL     OW 5962   0.915   1.951   6.988
 1863SOL    HW1 5963   0.940   1.931   6.893
 1863SOL    HW2 5964   0.987   2.007   7.030
 1864SOL     OW 5965   0.980   2.978   7.305
 1864SOL    HW1 5966   0.881   2.984   7.315
 1864SOL    HW2 5967   1.003   2.898   7.249
 1865SOL     OW 5968   0.705   2.912   5.954
 1865SOL    HW1 5969   0.691   2.919   6.053
 1865SOL    HW2 5970   0.789   2.861   5.936
 1866SOL     OW 5971   0.410   2.675   6.837
 1866SOL    HW1 5972   0.496   2.687   6.887
 1866SOL    HW2 5973   0.368   2.588   6.864
 1867SOL     OW 5974   1.274   2.248   6.848
 1867SOL    HW1 5975   1.295   2.322   6.912
 1867SOL    HW2 5976   1.185   2.265   6.805
 1868SOL     OW 5977   0.064   3.426   6.917
 1868SOL    HW1 5978   0.018   3.508   6.883
 1868SOL    HW2 5979   0.162   3.445   6.926
 1869SOL     OW 5980   0.367   2.962   6.087
 1869SOL    HW1 5981   0.360   3.045   6.031
 1869SOL    HW2 5982   0.371   2.882   6.027
 1870SOL     OW 5983   0.566   2.399   6.451
 1870SOL    HW1 5984   0.578   2.465   6.377
 1870SOL    HW2 5985   0.612   2.433   6.534
 1871SOL     OW 5986   1.252   3.210   5.974
 1871SOL    HW1 5987   1.302   3.287   6.014
 1871SOL    HW2 5988   1.157   3.212   6.006
 1872SOL     OW 5989   1.272   3.307   6.728
 1872SOL    HW1 5990   1.319   3.320   6.815
 1872SOL    HW2 5991   1.206   3.233   6.737
 1873SOL     OW 5992   1.582   2.501   6.058
 1873SOL    HW1 5993   1.551   2.562   6.131
 1873SOL    HW2 5994   1.632   2.553   5.989
 1874SOL     OW 5995   0.354   3.372   6.915
 1874SOL    HW1 5996   0.333   3.328   6.828
 1874SOL    HW2 5997   0.451   3.398   6.918
 1875SOL     OW 5998   0.402   2.613   7.184
 1875SOL    HW1 5999   0.470   2.668   7.137
 1875SOL    HW2 6000   0.442   2.525   7.211
 1876SOL     OW 6001   1.587   2.641   7.256
 1876SOL    HW1 6002   1.495   2.679   7.251
 1876SOL    HW2 6003   1.647   2.688   7.191
 1877SOL     OW 6004   1.013   1.967   7.356
 1877SOL    HW1 6005   1.019   2.052   7.304
 1877SOL    HW2 6006   1.045   1.891   7.299
 1878SOL     OW 6007   0.504   1.912   7.326
 1878SOL    HW1 6008   0.462   1.855   7.256
 1878SOL    HW2 6009   0.438   1.981   7.358
 1879SOL     OW 6010   0.573   2.732   6.615
 1879SOL    HW1 6011   0.617   2.821   6.606
 1879SOL    HW2 6012   0.510   2.732   6.692
 1880SOL     OW 6013   1.360   2.724   6.631
 1880SOL    HW1 6014   1.285   2.724   6.565
 1880SOL    HW2 6015   1.397   2.632   6.640
 1881SOL     OW 6016   1.209   2.387   5.861
 1881SOL    HW1 6017   1.222   2.303   5.915
 1881SOL    HW2 6018   1.180   2.461   5.921
 1882SOL     OW 6019   0.307   2.075   6.817
 1882SOL    HW1 6020   0.284   2.112   6.907
 1882SOL    HW2 6021   0.277   1.980   6.811
 1883SOL     OW 6022   0.037   3.172   6.868
 1883SOL    HW1 6023   0.090   3.123   6.936
 1883SOL    HW2 6024   0.059   3.270   6.873
 1884SOL     OW 6025   0.732   2.496   6.650
 1884SOL    HW1 6026   0.791   2.470   6.574
 1884SOL    HW2 6027   0.704   2.592   6.639
 1885SOL     OW 6028   1.728   2.797   7.440
 1885SOL    HW1 6029   1.682   2.790   7.351
 1885SOL    HW2 6030   1.666   2.841   7.506
 1886SOL     OW 6031   0.307   1.925   6.204
 1886SOL    HW1 6032   0.296   2.019   6.237
 1886SOL    HW2 6033   0.302   1.862   6.281
 1887SOL     OW 6034   1.622   2.229   5.960
 1887SOL    HW1 6035   1.624   2.153   6.024
 1887SOL    HW2 6036   1.574   2.306   6.000
 1888SOL     OW 6037   1.023   2.628   6.552
 1888SOL    HW1 6038   1.038   2.649   6.648
 1888SOL    HW2 6039   0.993   2.533   6.543
 1889SOL     OW 6040   0.980   3.435   7.286
 1889SOL    HW1 6041   0.960   3.479   7.198
 1889SOL    HW2 6042   1.019   3.344   7.270
 1890SOL     OW 6043   1.859   3.380   7.191
 1890SOL    HW1 6044   1.873   3.407   7.096
 1890SOL    HW2 6045   1.942   3.402   7.244
 1891SOL     OW 6046   0.350   2.760   7.390
 1891SOL    HW1 6047   0.426   2.804   7.438
 1891SOL    HW2 6048   0.385   2.713   7.308
 1892SOL     OW 6049   1.540   2.136   5.711
 1892SOL    HW1 6050   1.479   2.061   5.734
 1892SOL    HW2 6051   1.562   2.188   5.794
 1893SOL     OW 6052   1.303   2.700   5.628
 1893SOL    HW1 6053   1.337   2.607   5.643
 1893SOL    HW2 6054   1.321   2.727   5.533
 1894SOL     OW 6055   1.068   3.195   6.435
 1894SOL    HW1 6056   1.075   3.111   6.380
 1894SOL    HW2 6057   1.130   3.264   6.399
 1895SOL     OW 6058   0.319   2.672   6.535
 1895SOL    HW1 6059   0.412   2.708   6.540
 1895SOL    HW2 6060   0.313   2.587   6.587
 1896SOL     OW 6061   0.339   2.371   6.592
 1896SOL    HW1 6062   0.287   2.288   6.575
 1896SOL    HW2 6063   0.416   2.376   6.528
 1897SOL     OW 6064   1.138   2.242   7.264
 1897SOL    HW1 6065   1.093   2.305   7.328
 1897SOL    HW2 6066   1.231   2.273   7.247
 1898SOL     OW 6067   1.160   2.069   7.063
 1898SOL    HW1 6068   1.160   2.133   7.140
 1898SOL    HW2 6069   1.188   2.117   6.980
 1899SOL     OW 6070   0.008   3.188   5.786
 1899SOL    HW1 6071  -0.085   3.209   5.755
 1899SOL    HW2 6072   0.018   3.089   5.799
 1900SOL     OW 6073   0.088   3.663   6.513
 1900SOL    HW1 6074   0.046   3.577   6.486
 1900SOL    HW2 6075   0.182   3.666   6.479
 1901SOL     OW 6076   0.504   3.430   6.496
 1901SOL    HW1 6077   0.570   3.504   6.505
 1901SOL    HW2 6078   0.548   3.351   6.454
 1902SOL     OW 6079   1.002   2.658   6.824
 1902SOL    HW1 6080   1.043   2.626   6.910
 1902SOL    HW2 6081   0.906   2.631   6.821
 1903SOL     OW 6082   0.040   2.406   6.700
 1903SOL    HW1 6083   0.125   2.373   6.659
 1903SOL    HW2 6084   0.053   2.421   6.798
 1904SOL     OW 6085   0.189   2.382   7.308
 1904SOL    HW1 6086   0.248   2.342   7.238
 1904SOL    HW2 6087   0.131   2.453   7.267
 1905SOL     OW 6088   1.369   2.812   7.246
 1905SOL    HW1 6089   1.408   2.901   7.266
 1905SOL    HW2 6090   1.379   2.792   7.149
 1906SOL     OW 6091   0.815   2.434   5.911
 1906SOL    HW1 6092   0.822   2.345   5.865
 1906SOL    HW2 6093   0.721   2.468   5.903
 1907SOL     OW 6094   1.657   2.466   6.792
 1907SOL    HW1 6095   1.619   2.397   6.854
 1907SOL    HW2 6096   1.739   2.430   6.748
 1908SOL     OW 6097   0.252   3.426   7.330
 1908SOL    HW1 6098   0.222   3.483   7.406
 1908SOL    HW2 6099   0.245   3.329   7.356
 1909SOL     OW 6100   0.671   2.326   6.855
 1909SOL    HW1 6101   0.637   2.237   6.825
 1909SOL    HW2 6102   0.697   2.380   6.775
 1910SOL     OW 6103   0.930   3.540   7.051
 1910SOL    HW1 6104   0.906   3.522   6.956
 1910SOL    HW2 6105   0.960   3.634   7.061
 1911SOL     OW 6106   0.473   2.362   5.777
 1911SOL    HW1 6107   0.534   2.442   5.781
 1911SOL    HW2 6108   0.378   2.393   5.784
 1912SOL     OW 6109   0.159   2.999   7.052
 1912SOL    HW1 6110   0.181   2.938   7.128
 1912SOL    HW2 6111   0.169   2.950   6.966
 1913SOL     OW 6112   1.347   2.921   6.820
 1913SOL    HW1 6113   1.371   2.858   6.746
 1913SOL    HW2 6114   1.257   2.961   6.802
 1914SOL     OW 6115   1.302   2.717   5.895
 1914SOL    HW1 6116   1.216   2.686   5.937
 1914SOL    HW2 6117   1.298   2.703   5.796
 1915SOL     OW 6118   1.759   3.609   6.740
 1915SOL    HW1 6119   1.820   3.639   6.667
 1915SOL    HW2 6120   1.721   3.520   6.718
 1916SOL     OW 6121   1.252   3.593   6.714
 1916SOL    HW1 6122   1.336   3.598   6.660
 1916SOL    HW2 6123   1.229   3.497   6.732
 1917SOL     OW 6124   0.083   3.120   6.608
 1917SOL    HW1 6125   0.078   3.119   6.708
 1917SOL    HW2 6126   0.000   3.079   6.570
 1918SOL     OW 6127   0.688   3.524   7.302
 1918SOL    HW1 6128   0.632   3.605   7.311
 1918SOL    HW2 6129   0.740   3.528   7.216
 1919SOL     OW 6130   1.726   1.997   6.109
 1919SOL    HW1 6131   1.799   1.980   6.042
 1919SOL    HW2 6132   1.695   1.910   6.147
 1920SOL     OW 6133   1.388   3.435   6.063
 1920SOL    HW1 6134   1.455   3.447   5.989
 1920SOL    HW2 6135   1.348   3.524   6.086
 1921SOL     OW 6136   0.130   3.656   7.437
 1921SOL    HW1 6137   0.089   3.582   7.490
 1921SOL    HW2 6138   0.194   3.707   7.495
 1922SOL     OW 6139   1.280   2.789   6.258
 1922SOL    HW1 6140   1.340   2.708   6.260
 1922SOL    HW2 6141   1.320   2.858   6.198
 1923SOL     OW 6142   0.830   3.135   7.008
 1923SOL    HW1 6143   0.825   3.168   7.103
 1923SOL    HW2 6144   0.744   3.154   6.962
 1924SOL     OW 6145   0.672   3.478   5.740
 1924SOL    HW1 6146   0.681   3.488   5.641
 1924SOL    HW2 6147   0.632   3.389   5.761
 1925SOL     OW 6148   1.650   3.582   6.980
 1925SOL    HW1 6149   1.703   3.592   6.896
 1925SOL    HW2 6150   1.623   3.672   7.014
 1926SOL     OW 6151   1.841   2.037   6.549
 1926SOL    HW1 6152   1.880   1.952   6.513
 1926SOL    HW2 6153   1.743   2.039   6.530
 1927SOL     OW 6154   0.263   2.188   6.306
 1927SOL    HW1 6155   0.184   2.239   6.272
 1927SOL    HW2 6156   0.254   2.173   6.404
 1928SOL     OW 6157   1.194   3.474   5.617
 1928SOL    HW1 6158   1.200   3.381   5.654
 1928SOL    HW2 6159   1.135   3.474   5.537
 1929SOL     OW 6160   0.822   2.864   6.958
 1929SOL    HW1 6161   0.862   2.863   6.866
 1929SOL    HW2 6162   0.832   2.956   6.998
 1930SOL     OW 6163   0.916   2.772   5.877
 1930SOL    HW1 6164   0.979   2.810   5.809
 1930SOL    HW2 6165   0.956   2.689   5.916
 1931SOL     OW 6166   1.504   3.469   5.630
 1931SOL    HW1 6167   1.412   3.506   5.637
 1931SOL    HW2 6168   1.542   3.489   5.540
 1932SOL     OW 6169   0.372   3.150   7.076
 1932SOL    HW1 6170   0.359   3.243   7.042
 1932SOL    HW2 6171   0.288   3.098   7.063
 1933SOL     OW 6172   1.614   3.154   6.875
 1933SOL    HW1 6173   1.674   3.157   6.955
 1933SOL    HW2 6174   1.539   3.218   6.888
 1934SOL     OW 6175   1.039   2.960   6.282
 1934SOL    HW1 6176   0.969   2.913   6.336
 1934SOL    HW2 6177   1.098   2.892   6.239
 1935SOL     OW 6178   1.014   2.098   6.557
 1935SOL    HW1 6179   1.006   2.062   6.464
 1935SOL    HW2 6180   1.012   2.022   6.622
 1936SOL     OW 6181   0.590   3.349   6.077
 1936SOL    HW1 6182   0.632   3.291   6.007
 1936SOL    HW2 6183   0.546   3.428   6.033
 1937SOL     OW 6184   1.709   2.247   6.967
 1937SOL    HW1 6185   1.782   2.316   6.971
 1937SOL    HW2 6186   1.737   2.172   6.908
 1938SOL     OW 6187   0.255   3.210   5.876
 1938SOL    HW1 6188   0.159   3.211   5.849
 1938SOL    HW2 6189   0.267   3.263   5.960
 1939SOL     OW 6190   0.105   2.875   7.312
 1939SOL    HW1 6191   0.028   2.842   7.366
 1939SOL    HW2 6192   0.190   2.845   7.354
 1940SOL     OW 6193   0.672   2.065   7.075
 1940SOL    HW1 6194   0.762   2.049   7.035
 1940SOL    HW2 6195   0.680   2.070   7.174
 1941SOL     OW 6196   0.075   2.207   5.619
 1941SOL    HW1 6197  -0.017   2.179   5.590
 1941SOL    HW2 6198   0.106   2.284   5.563
 1942SOL     OW 6199   1.440   2.718   6.984
 1942SOL    HW1 6200   1.383   2.770   6.921
 1942SOL    HW2 6201   1.536   2.730   6.960
 1943SOL     OW 6202   0.072   2.028   5.904
 1943SOL    HW1 6203   0.055   2.111   5.850
 1943SOL    HW2 6204   0.162   1.991   5.882
 1944SOL     OW 6205   1.183   3.197   5.705
 1944SOL    HW1 6206   1.084   3.186   5.707
 1944SOL    HW2 6207   1.217   3.212   5.798
 1945SOL     OW 6208   0.613   2.704   7.017
 1945SOL    HW1 6209   0.669   2.785   7.000
 1945SOL    HW2 6210   0.672   2.624   7.020
 1946SOL     OW 6211   1.493   3.629   6.545
 1946SOL    HW1 6212   1.526   3.693   6.476
 1946SOL    HW2 6213   1.559   3.623   6.620
 1947SOL     OW 6214   0.716   2.427   7.294
 1947SOL    HW1 6215   0.735   2.492   7.368
 1947SOL    HW2 6216   0.776   2.347   7.303
 1948SOL     OW 6217   1.450   3.082   7.219
 1948SOL    HW1 6218   1.441   3.072   7.318
 1948SOL    HW2 6219   1.546   3.075   7.193
 1949SOL     OW 6220   0.390   3.603   7.146
 1949SOL    HW1 6221   0.299   3.644   7.144
 1949SOL    HW2 6222   0.383   3.509   7.178
 1950SOL     OW 6223   1.674   2.745   6.840
 1950SOL    HW1 6224   1.647   2.656   6.803
 1950SOL    HW2 6225   1.675   2.813   6.767
 1951SOL     OW 6226   1.225   2.187   6.035
 1951SOL    HW1 6227   1.290   2.113   6.024
 1951SOL    HW2 6228   1.245   2.237   6.119
 1952SOL     OW 6229   0.594   2.607   6.238
 1952SOL    HW1 6230   0.644   2.692   6.219
 1952SOL    HW2 6231   0.506   2.609   6.190
 1953SOL     OW 6232   1.777   2.204   7.228
 1953SOL    HW1 6233   1.760   2.235   7.134
 1953SOL    HW2 6234   1.693   2.167   7.266
 1954SOL     OW 6235   1.730   2.796   7.103
 1954SOL    HW1 6236   1.768   2.887   7.118
 1954SOL    HW2 6237   1.722   2.779   7.004
 1955SOL     OW 6238   0.859   3.236   5.602
 1955SOL    HW1 6239   0.813   3.251   5.690
 1955SOL    HW2 6240   0.903   3.321   5.572
 1956SOL     OW 6241   0.661   3.652   6.539
 1956SOL    HW1 6242   0.615   3.740   6.526
 1956SOL    HW2 6243   0.760   3.664   6.532
 1957SOL     OW 6244   0.859   2.818   6.447
 1957SOL    HW1 6245   0.913   2.749   6.495
 1957SOL    HW2 6246   0.827   2.887   6.513
 1958SOL     OW 6247   1.083   2.846   5.673
 1958SOL    HW1 6248   1.060   2.899   5.591
 1958SOL    HW2 6249   1.164   2.790   5.654
 1959SOL     OW 6250   1.861   3.431   6.437
 1959SOL    HW1 6251   1.790   3.419   6.367
 1959SOL    HW2 6252   1.862   3.352   6.497
 1960SOL     OW 6253   0.221   3.176   7.430
 1960SOL    HW1 6254   0.156   3.103   7.409
 1960SOL    HW2 6255   0.225   3.190   7.528
 1961SOL     OW 6256   0.079   3.102   6.239
 1961SOL    HW1 6257   0.078   3.055   6.327
 1961SOL    HW2 6258   0.161   3.074   6.188
 1962SOL     OW 6259   0.672   3.253   7.210
 1962SOL    HW1 6260   0.594   3.203   7.248
 1962SOL    HW2 6261   0.669   3.348   7.241
 1963SOL     OW 6262   1.824   2.054   6.813
 1963SOL    HW1 6263   1.820   1.964   6.857
 1963SOL    HW2 6264   1.827   2.043   6.714
 1964SOL     OW 6265   0.428   2.286   6.106
 1964SOL    HW1 6266   0.458   2.214   6.044
 1964SOL    HW2 6267   0.389   2.246   6.189
 1965SOL     OW 6268   1.705   3.349   6.690
 1965SOL    HW1 6269   1.612   3.324   6.663
 1965SOL    HW2 6270   1.731   3.299   6.772
 1966SOL     OW 6271   0.317   2.409   6.866
 1966SOL    HW1 6272   0.355   2.350   6.938
 1966SOL    HW2 6273   0.357   2.383   6.778
 1967SOL     OW 6274   0.812   3.448   6.273
 1967SOL    HW1 6275   0.844   3.458   6.179
 1967SOL    HW2 6276   0.733   3.386   6.275
 1968SOL     OW 6277   1.424   2.076   6.698
 1968SOL    HW1 6278   1.476   2.011   6.753
 1968SOL    HW2 6279   1.375   2.139   6.759
 1969SOL     OW 6280   1.001   1.896   6.740
 1969SOL    HW1 6281   0.938   1.824   6.709
 1969SOL    HW2 6282   1.094   1.860   6.740
 1970SOL     OW 6283   0.770   3.192   5.887
 1970SOL    HW1 6284   0.724   3.105   5.904
 1970SOL    HW2 6285   0.861   3.189   5.928
 1971SOL     OW 6286   0.618   3.429   6.870
 1971SOL    HW1 6287   0.613   3.511   6.927
 1971SOL    HW2 6288   0.707   3.426   6.825
 1972SOL     OW 6289   1.352   1.914   5.754
 1972SOL    HW1 6290   1.387   1.873   5.670
 1972SOL    HW2 6291   1.262   1.876   5.774
 1973SOL     OW 6292   1.300   2.315   6.277
 1973SOL    HW1 6293   1.241   2.395   6.281
 1973SOL    HW2 6294   1.315   2.280   6.370
 1974SOL     OW 6295   1.593   2.083   6.468
 1974SOL    HW1 6296   1.509   2.082   6.522
 1974SOL    HW2 6297   1.595   2.166   6.412
 1975SOL     OW 6298   0.039   2.939   5.886
 1975SOL    HW1 6299   0.138   2.928   5.877
 1975SOL    HW2 6300  -0.001   2.853   5.918
 1976SOL     OW 6301   0.875   3.508   5.923
 1976SOL    HW1 6302   0.798   3.473   5.869
 1976SOL    HW2 6303   0.843   3.579   5.985
 1977SOL     OW 6304   0.230   2.490   7.561
 1977SOL    HW1 6305   0.137   2.488   7.598
 1977SOL    HW2 6306   0.231   2.451   7.469
 1978SOL     OW 6307   0.225   2.137   8.444
 1978SOL    HW1 6308   0.260   2.120   8.536
 1978SOL    HW2 6309   0.137   2.092   8.432
 1979SOL     OW 6310   0.019   2.230   8.095
 1979SOL    HW1 6311  -0.063   2.273   8.134
 1979SOL    HW2 6312  -0.009   2.157   8.032
 1980SOL     OW 6313   0.569   3.137   8.613
 1980SOL    HW1 6314   0.476   3.130   8.576
 1980SOL    HW2 6315   0.580   3.226   8.657
 1981SOL     OW 6316   1.555   3.373   8.151
 1981SOL    HW1 6317   1.498   3.357   8.232
 1981SOL    HW2 6318   1.496   3.383   8.071
 1982SOL     OW 6319   1.135   2.565   8.165
 1982SOL    HW1 6320   1.192   2.643   8.140
 1982SOL    HW2 6321   1.075   2.591   8.241
 1983SOL     OW 6322   1.755   2.469   7.679
 1983SOL    HW1 6323   1.743   2.456   7.580
 1983SOL    HW2 6324   1.725   2.388   7.728
 1984SOL     OW 6325   0.768   3.006   8.471
 1984SOL    HW1 6326   0.690   3.023   8.531
 1984SOL    HW2 6327   0.802   3.093   8.435
 1985SOL     OW 6328   0.850   2.660   9.271
 1985SOL    HW1 6329   0.846   2.736   9.336
 1985SOL    HW2 6330   0.872   2.696   9.180
 1986SOL     OW 6331   0.685   2.874   8.113
 1986SOL    HW1 6332   0.754   2.858   8.183
 1986SOL    HW2 6333   0.612   2.931   8.151
 1987SOL     OW 6334   0.686   3.023   9.251
 1987SOL    HW1 6335   0.746   3.102   9.265
 1987SOL    HW2 6336   0.600   3.054   9.210
 1988SOL     OW 6337   0.335   3.297   8.509
 1988SOL    HW1 6338   0.257   3.266   8.456
 1988SOL    HW2 6339   0.393   3.355   8.452
 1989SOL     OW 6340   1.460   3.367   8.787
 1989SOL    HW1 6341   1.484   3.461   8.813
 1989SOL    HW2 6342   1.444   3.313   8.869
 1990SOL     OW 6343   0.438   2.254   8.947
 1990SOL    HW1 6344   0.520   2.198   8.956
 1990SOL    HW2 6345   0.357   2.196   8.951
 1991SOL     OW 6346   1.603   2.309   8.185
 1991SOL    HW1 6347   1.529   2.355   8.135
 1991SOL    HW2 6348   1.654   2.377   8.238
 1992SOL     OW 6349   0.231   3.575   7.931
 1992SOL    HW1 6350   0.265   3.652   7.985
 1992SOL    HW2 6351   0.275   3.575   7.841
 1993SOL     OW 6352   1.127   3.203   9.138
 1993SOL    HW1 6353   1.174   3.203   9.226
 1993SOL    HW2 6354   1.079   3.116   9.127
 1994SOL     OW 6355   0.230   3.296   7.986
 1994SOL    HW1 6356   0.204   3.392   7.986
 1994SOL    HW2 6357   0.159   3.242   8.031
 1995SOL     OW 6358   0.240   2.953   8.334
 1995SOL    HW1 6359   0.254   2.869   8.386
 1995SOL    HW2 6360   0.185   3.017   8.389
 1996SOL     OW 6361   0.620   3.648   8.887
 1996SOL    HW1 6362   0.528   3.631   8.922
 1996SOL    HW2 6363   0.648   3.740   8.913
 1997SOL     OW 6364   0.606   2.826   7.571
 1997SOL    HW1 6365   0.613   2.910   7.517
 1997SOL    HW2 6366   0.652   2.839   7.659
 1998SOL     OW 6367   1.594   1.976   8.928
 1998SOL    HW1 6368   1.576   2.043   8.856
 1998SOL    HW2 6369   1.591   2.022   9.017
 1999SOL     OW 6370   0.122   2.505   8.011
 1999SOL    HW1 6371   0.077   2.417   8.028
 1999SOL    HW2 6372   0.121   2.559   8.095
 2000SOL     OW 6373   1.842   3.629   7.807
 2000SOL    HW1 6374   1.896   3.600   7.887
 2000SOL    HW2 6375   1.872   3.719   7.778
 2001SOL     OW 6376   0.027   3.458   7.565
 2001SOL    HW1 6377   0.008   3.362   7.586
 2001SOL    HW2 6378  -0.006   3.516   7.640
 2002SOL     OW 6379   1.689   2.784   8.060
 2002SOL    HW1 6380   1.784   2.755   8.068
 2002SOL    HW2 6381   1.681   2.849   7.985
 2003SOL     OW 6382   1.641   2.970   7.880
 2003SOL    HW1 6383   1.727   2.972   7.828
 2003SOL    HW2 6384   1.655   3.017   7.968
 2004SOL     OW 6385   0.113   2.599   9.045
 2004SOL    HW1 6386   0.201   2.586   9.090
 2004SOL    HW2 6387   0.100   2.696   9.023
 2005SOL     OW 6388   0.613   3.227   8.174
 2005SOL    HW1 6389   0.564   3.140   8.183
 2005SOL    HW2 6390   0.590   3.270   8.087
 2006SOL     OW 6391   1.293   3.090   8.871
 2006SOL    HW1 6392   1.330   3.017   8.813
 2006SOL    HW2 6393   1.345   3.095   8.956
 2007SOL     OW 6394   0.809   1.866   7.950
 2007SOL    HW1 6395   0.849   1.957   7.941
 2007SOL    HW2 6396   0.709   1.874   7.956
 2008SOL     OW 6397   0.197   2.838   8.712
 2008SOL    HW1 6398   0.286   2.793   8.698
 2008SOL    HW2 6399   0.124   2.773   8.693
 2009SOL     OW 6400   1.525   2.861   7.638
 2009SOL    HW1 6401   1.462   2.785   7.651
 2009SOL    HW2 6402   1.573   2.879   7.724
 2010SOL     OW 6403   1.187   3.654   9.064
 2010SOL    HW1 6404   1.211   3.714   8.988
 2010SOL    HW2 6405   1.194   3.559   9.034
 2011SOL     OW 6406   0.317   2.113   9.249
 2011SOL    HW1 6407   0.388   2.184   9.255
 2011SOL    HW2 6408   0.229   2.152   9.277
 2012SOL     OW 6409   1.466   3.279   8.401
 2012SOL    HW1 6410   1.407   3.285   8.481
 2012SOL    HW2 6411   1.451   3.191   8.355
 2013SOL     OW 6412   1.667   3.576   8.020
 2013SOL    HW1 6413   1.626   3.553   7.932
 2013SOL    HW2 6414   1.649   3.502   8.085
 2014SOL     OW 6415   0.598   2.591   7.718
 2014SOL    HW1 6416   0.622   2.660   7.650
 2014SOL    HW2 6417   0.520   2.624   7.772
 2015SOL     OW 6418   1.281   2.207   8.392
 2015SOL    HW1 6419   1.195   2.157   8.379
 2015SOL    HW2 6420   1.343   2.153   8.448
 2016SOL     OW 6421   1.576   3.524   7.755
 2016SOL    HW1 6422   1.665   3.570   7.758
 2016SOL    HW2 6423   1.555   3.500   7.660
 2017SOL     OW 6424   0.807   2.467   8.913
 2017SOL    HW1 6425   0.760   2.464   9.002
 2017SOL    HW2 6426   0.756   2.412   8.847
 2018SOL     OW 6427   1.394   2.331   9.122
 2018SOL    HW1 6428   1.374   2.374   9.210
 2018SOL    HW2 6429   1.472   2.269   9.131
 2019SOL     OW 6430   0.973   2.752   9.020
 2019SOL    HW1 6431   1.019   2.668   8.991
 2019SOL    HW2 6432   0.917   2.786   8.945
 2020SOL     OW 6433   0.991   2.272   8.690
 2020SOL    HW1 6434   0.914   2.306   8.744
 2020SOL    HW2 6435   0.957   2.221   8.611
 2021SOL     OW 6436   1.041   2.563   7.877
 2021SOL    HW1 6437   1.067   2.559   7.973
 2021SOL    HW2 6438   0.956   2.512   7.863
 2022SOL     OW 6439   0.076   2.673   8.237
 2022SOL    HW1 6440   0.175   2.661   8.246
 2022SOL    HW2 6441   0.052   2.768   8.258
 2023SOL     OW 6442   0.130   3.683   9.019
 2023SOL    HW1 6443   0.120   3.668   9.118
 2023SOL    HW2 6444   0.044   3.719   8.983
 2024SOL     OW 6445   0.865   2.210   7.643
 2024SOL    HW1 6446   0.924   2.273   7.594
 2024SOL    HW2 6447   0.884   2.116   7.614
 2025SOL     OW 6448   1.719   2.447   9.279
 2025SOL    HW1 6449   1.693   2.536   9.243
 2025SOL    HW2 6450   1.717   2.379   9.206
 2026SOL     OW 6451   1.362   3.006   7.993
 2026SOL    HW1 6452   1.445   2.977   7.945
 2026SOL    HW2 6453   1.313   3.073   7.937
 2027SOL     OW 6454   0.550   2.058   8.333
 2027SOL    HW1 6455   0.545   2.053   8.433
 2027SOL    HW2 6456   0.552   2.154   8.304
 2028SOL     OW 6457   1.008   3.318   7.925
 2028SOL    HW1 6458   0.962   3.390   7.873
 2028SOL    HW2 6459   1.004   3.338   8.023
 2029SOL     OW 6460   0.351   3.663   8.301
 2029SOL    HW1 6461   0.401   3.577   8.307
 2029SOL    HW2 6462   0.416   3.740   8.298
 2030SOL     OW 6463   1.795   2.928   8.321
 2030SOL    HW1 6464   1.733   2.913   8.245
 2030SOL    HW2 6465   1.743   2.939   8.406
 2031SOL     OW 6466   1.227   3.412   8.954
 2031SOL    HW1 6467   1.233   3.335   9.018
 2031SOL    HW2 6468   1.175   3.386   8.874
 2032SOL     OW 6469   0.321   2.805   7.690
 2032SOL    HW1 6470   0.403   2.844   7.648
 2032SOL    HW2 6471   0.294   2.723   7.641
 2033SOL     OW 6472   1.458   2.597   8.176
 2033SOL    HW1 6473   1.453   2.532   8.251
 2033SOL    HW2 6474   1.538   2.656   8.189
 2034SOL     OW 6475   0.461   3.128   9.175
 2034SOL    HW1 6476   0.411   3.129   9.089
 2034SOL    HW2 6477   0.398   3.110   9.251
 2035SOL     OW 6478   1.111   3.638   7.685
 2035SOL    HW1 6479   1.051   3.576   7.735
 2035SOL    HW2 6480   1.142   3.594   7.600
 2036SOL     OW 6481   0.202   2.147   8.946
 2036SOL    HW1 6482   0.122   2.207   8.933
 2036SOL    HW2 6483   0.192   2.098   9.032
 2037SOL     OW 6484   1.632   3.239   7.529
 2037SOL    HW1 6485   1.600   3.333   7.519
 2037SOL    HW2 6486   1.556   3.176   7.517
 2038SOL     OW 6487   0.464   3.605   7.771
 2038SOL    HW1 6488   0.497   3.644   7.857
 2038SOL    HW2 6489   0.540   3.598   7.706
 2039SOL     OW 6490   1.400   1.969   7.874
 2039SOL    HW1 6491   1.376   1.932   7.784
 2039SOL    HW2 6492   1.499   1.985   7.878
 2040SOL     OW 6493   0.249   3.647   8.689
 2040SOL    HW1 6494   0.306   3.582   8.739
 2040SOL    HW2 6495   0.233   3.614   8.596
 2041SOL     OW 6496   0.940   3.560   8.352
 2041SOL    HW1 6497   1.020   3.503   8.373
 2041SOL    HW2 6498   0.891   3.520   8.275
 2042SOL     OW 6499   0.382   2.562   7.928
 2042SOL    HW1 6500   0.427   2.472   7.925
 2042SOL    HW2 6501   0.288   2.551   7.961
 2043SOL     OW 6502   1.547   2.084   9.177
 2043SOL    HW1 6503   1.542   2.121   9.269
 2043SOL    HW2 6504   1.475   2.015   9.165
 2044SOL     OW 6505   0.614   1.984   7.565
 2044SOL    HW1 6506   0.712   1.962   7.572
 2044SOL    HW2 6507   0.583   1.967   7.472
 2045SOL     OW 6508   0.781   2.126   9.197
 2045SOL    HW1 6509   0.848   2.065   9.240
 2045SOL    HW2 6510   0.708   2.145   9.262
 2046SOL     OW 6511   0.888   3.376   8.643
 2046SOL    HW1 6512   0.865   3.351   8.549
 2046SOL    HW2 6513   0.949   3.307   8.682
 2047SOL     OW 6514   1.351   2.452   8.881
 2047SOL    HW1 6515   1.379   2.409   8.966
 2047SOL    HW2 6516   1.376   2.548   8.882
 2048SOL     OW 6517   0.803   3.264   8.372
 2048SOL    HW1 6518   0.893   3.278   8.330
 2048SOL    HW2 6519   0.732   3.266   8.301
 2049SOL     OW 6520   0.922   2.365   8.347
 2049SOL    HW1 6521   0.897   2.356   8.251
 2049SOL    HW2 6522   0.970   2.283   8.378
 2050SOL     OW 6523   0.539   1.926   7.960
 2050SOL    HW1 6524   0.458   1.927   8.018
 2050SOL    HW2 6525   0.542   2.009   7.905
 2051SOL     OW 6526   1.434   3.050   7.489
 2051SOL    HW1 6527   1.466   2.974   7.546
 2051SOL    HW2 6528   1.342   3.077   7.519
 2052SOL     OW 6529   0.297   1.897   7.619
 2052SOL    HW1 6530   0.346   1.981   7.598
 2052SOL    HW2 6531   0.359   1.832   7.664
 2053SOL     OW 6532   0.935   2.098   7.928
 2053SOL    HW1 6533   0.887   2.139   7.850
 2053SOL    HW2 6534   1.034   2.096   7.909
 2054SOL     OW 6535   1.076   2.545   8.912
 2054SOL    HW1 6536   0.996   2.484   8.915
 2054SOL    HW2 6537   1.157   2.492   8.888
 2055SOL     OW 6538   1.227   3.432   8.241
 2055SOL    HW1 6539   1.248   3.506   8.176
 2055SOL    HW2 6540   1.295   3.432   8.314
 2056SOL     OW 6541   0.459   3.014   8.189
 2056SOL    HW1 6542   0.388   2.987   8.254
 2056SOL    HW2 6543   0.433   2.986   8.096
 2057SOL     OW 6544   1.271   3.659   8.039
 2057SOL    HW1 6545   1.315   3.723   7.975
 2057SOL    HW2 6546   1.221   3.711   8.109
 2058SOL     OW 6547   1.032   2.411   7.464
 2058SOL    HW1 6548   0.991   2.493   7.425
 2058SOL    HW2 6549   1.096   2.437   7.537
 2059SOL     OW 6550   0.078   2.418   8.834
 2059SOL    HW1 6551   0.170   2.417   8.793
 2059SOL    HW2 6552   0.072   2.492   8.901
 2060SOL     OW 6553   0.561   2.084   8.595
 2060SOL    HW1 6554   0.599   2.000   8.632
 2060SOL    HW2 6555   0.473   2.103   8.639
 2061SOL     OW 6556   0.866   2.316   8.090
 2061SOL    HW1 6557   0.834   2.388   8.028
 2061SOL    HW2 6558   0.890   2.235   8.037
 2062SOL     OW 6559   1.017   1.901   8.201
 2062SOL    HW1 6560   0.945   1.906   8.132
 2062SOL    HW2 6561   0.993   1.832   8.270
 2063SOL     OW 6562   1.429   3.035   8.315
 2063SOL    HW1 6563   1.374   2.951   8.308
 2063SOL    HW2 6564   1.455   3.064   8.223
 2064SOL     OW 6565   1.466   2.452   8.440
 2064SOL    HW1 6566   1.436   2.357   8.447
 2064SOL    HW2 6567   1.539   2.468   8.506
 2065SOL     OW 6568   1.857   2.695   7.825
 2065SOL    HW1 6569   1.899   2.631   7.889
 2065SOL    HW2 6570   1.819   2.644   7.747
 2066SOL     OW 6571   0.488   3.247   7.622
 2066SOL    HW1 6572   0.401   3.232   7.669
 2066SOL    HW2 6573   0.471   3.273   7.527
 2067SOL     OW 6574   1.664   3.142   8.105
 2067SOL    HW1 6575   1.763   3.150   8.119
 2067SOL    HW2 6576   1.619   3.226   8.136
 2068SOL     OW 6577   1.390   2.437   7.526
 2068SOL    HW1 6578   1.336   2.416   7.607
 2068SOL    HW2 6579   1.481   2.396   7.535
 2069SOL     OW 6580   0.527   2.118   7.776
 2069SOL    HW1 6581   0.554   2.059   7.701
 2069SOL    HW2 6582   0.527   2.213   7.745
 2070SOL     OW 6583   1.754   3.085   9.036
 2070SOL    HW1 6584   1.845   3.046   9.023
 2070SOL    HW2 6585   1.762   3.181   9.060
 2071SOL     OW 6586   1.064   3.209   8.788
 2071SOL    HW1 6587   0.984   3.186   8.843
 2071SOL    HW2 6588   1.147   3.183   8.837
 2072SOL     OW 6589   1.592   3.491   9.073
 2072SOL    HW1 6590   1.619   3.525   8.983
 2072SOL    HW2 6591   1.671   3.453   9.119
 2073SOL     OW 6592   1.111   3.057   8.548
 2073SOL    HW1 6593   1.071   3.101   8.629
 2073SOL    HW2 6594   1.070   3.094   8.465
 2074SOL     OW 6595   1.638   2.961   8.527
 2074SOL    HW1 6596   1.643   3.042   8.586
 2074SOL    HW2 6597   1.552   2.963   8.476
 2075SOL     OW 6598   0.915   1.951   8.850
 2075SOL    HW1 6599   0.940   1.931   8.755
 2075SOL    HW2 6600   0.987   2.007   8.892
 2076SOL     OW 6601   0.980   2.978   9.167
 2076SOL    HW1 6602   0.881   2.984   9.177
 2076SOL    HW2 6603   1.003   2.898   9.111
 2077SOL     OW 6604   0.705   2.912   7.816
 2077SOL    HW1 6605   0.691   2.919   7.915
 2077SOL    HW2 6606   0.789   2.861   7.798
 2078SOL     OW 6607   0.410   2.675   8.699
 2078SOL    HW1 6608   0.496   2.687   8.749
 2078SOL    HW2 6609   0.368   2.588   8.726
 2079SOL     OW 6610   1.274   2.248   8.710
 2079SOL    HW1 6611   1.295   2.322   8.774
 2079SOL    HW2 6612   1.185   2.265   8.667
 2080SOL     OW 6613   0.064   3.426   8.779
 2080SOL    HW1 6614   0.018   3.508   8.745
 2080SOL    HW2 6615   0.162   3.445   8.788
 2081SOL     OW 6616   0.367   2.962   7.949
 2081SOL    HW1 6617   0.360   3.045   7.893
 2081SOL    HW2 6618   0.371   2.882   7.889
 2082SOL     OW 6619   0.566   2.399   8.313
 2082SOL    HW1 6620   0.578   2.465   8.239
 2082SOL    HW2 6621   0.612   2.433   8.396
 2083SOL     OW 6622   1.252   3.210   7.836
 2083SOL    HW1 6623   1.302   3.287   7.876
 2083SOL    HW2 6624   1.157   3.212   7.868
 2084SOL     OW 6625   1.272   3.307   8.590
 2084SOL    HW1 6626   1.319   3.320   8.677
 2084SOL    HW2 6627   1.206   3.233   8.599
 2085SOL     OW 6628   1.582   2.501   7.920
 2085SOL    HW1 6629   1.551   2.562   7.993
 2085SOL    HW2 6630   1.632   2.553   7.851
 2086SOL     OW 6631   0.354   3.372   8.777
 2086SOL    HW1 6632   0.333   3.328   8.690
 2086SOL    HW2 6633   0.451   3.398   8.780
 2087SOL     OW 6634   0.402   2.613   9.046
 2087SOL    HW1 6635   0.470   2.668   8.999
 2087SOL    HW2 6636   0.442   2.525   9.073
 2088SOL     OW 6637   1.587   2.641   9.118
 2088SOL    HW1 6638   1.495   2.679   9.113
 2088SOL    HW2 6639   1.647   2.688   9.053
 2089SOL     OW 6640   1.013   1.967   9.218
 2089SOL    HW1 6641   1.019   2.052   9.166
 2089SOL    HW2 6642   1.045   1.891   9.161
 2090SOL     OW 6643   0.504   1.912   9.188
 2090SOL    HW1 6644   0.462   1.855   9.118
 2090SOL    HW2 6645   0.438   1.981   9.220
 2091SOL     OW 6646   0.573   2.732   8.477
 2091SOL    HW1 6647   0.617   2.821   8.468
 2091SOL    HW2 6648   0.510   2.732   8.554
 2092SOL     OW 6649   1.360   2.724   8.493
 2092SOL    HW1 6650   1.285   2.724   8.427
 2092SOL    HW2 6651   1.397   2.632   8.502
 2093SOL     OW 6652   1.209   2.387   7.723
 2093SOL    HW1 6653   1.222   2.303   7.777
 2093SOL    HW2 6654   1.180   2.461   7.783
 2094SOL     OW 6655   0.307   2.075   8.679
 2094SOL    HW1 6656   0.284   2.112   8.769
 2094SOL    HW2 6657   0.277   1.980   8.673
 2095SOL     OW 6658   0.037   3.172   8.730
 2095SOL    HW1 6659   0.090   3.123   8.798
 2095SOL    HW2 6660   0.059   3.270   8.735
 2096SOL     OW 6661   0.732   2.496   8.512
 2096SOL    HW1 6662   0.791   2.470   8.436
 2096SOL    HW2 6663   0.704   2.592   8.501
 2097SOL     OW 6664   1.728   2.797   9.302
 2097SOL    HW1 6665   1.682   2.790   9.213
 2097SOL    HW2 6666   1.666   2.841   9.368
 2098SOL     OW 6667   0.307   1.925   8.066
 2098SOL    HW1 6668   0.296   2.019   8.099
 2098SOL    HW2 6669   0.302   1.862   8.143
 2099SOL     OW 6670   1.622   2.229   7.822
 2099SOL    HW1 6671   1.624   2.153   7.886
 2099SOL    HW2 6672   1.574   2.306   7.862
 2100SOL     OW 6673   1.023   2.628   8.414
 2100SOL    HW1 6674   1.038   2.649   8.510
 2100SOL    HW2 6675   0.993   2.533   8.405
 2101SOL     OW 6676   0.980   3.435   9.148
 2101SOL    HW1 6677   0.960   3.479   9.060
 2101SOL    HW2 6678   1.019   3.344   9.132
 2102SOL     OW 6679   1.859   3.380   9.053
 2102SOL    HW1 6680   1.873   3.407   8.958
 2102SOL    HW2 6681   1.942   3.402   9.106
 2103SOL     OW 6682   0.350   2.760   9.252
 2103SOL    HW1 6683   0.426   2.804   9.300
 2103SOL    HW2 6684   0.385   2.713   9.170
 2104SOL     OW 6685   1.540   2.136   7.573
 2104SOL    HW1 6686   1.479   2.061   7.596
 2104SOL    HW2 6687   1.562   2.188   7.656
 2105SOL     OW 6688   1.303   2.700   7.490
 2105SOL    HW1 6689   1.337   2.607   7.505
 2105SOL    HW2 6690   1.321   2.727   7.395
 2106SOL     OW 6691   1.068   3.195   8.297
 2106SOL    HW1 6692   1.075   3.111   8.242
 2106SOL    HW2 6693   1.130   3.264   8.261
 2107SOL     OW 6694   0.319   2.672   8.397
 2107SOL    HW1 6695   0.412   2.708   8.402
 2107SOL    HW2 6696   0.313   2.587   8.449
 2108SOL     OW 6697   0.339   2.371   8.454
 2108SOL    HW1 6698   0.287   2.288   8.437
 2108SOL    HW2 6699   0.416   2.376   8.390
 2109SOL     OW 6700   1.138   2.242   9.126
 2109SOL    HW1 6701   1.093   2.305   9.190
 2109SOL    HW2 6702   1.231   2.273   9.109
 2110SOL     OW 6703   1.160   2.069   8.925
 2110SOL    HW1 6704   1.160   2.133   9.002
 2110SOL    HW2 6705   1.188   2.117   8.842
 2111SOL     OW 6706   0.008   3.188   7.648
 2111SOL    HW1 6707  -0.085   3.209   7.617
 2111SOL    HW2 6708   0.018   3.089   7.661
 2112SOL     OW 6709   0.088   3.663   8.375
 2112SOL    HW1 6710   0.046   3.577   8.348
 2112SOL    HW2 6711   0.182   3.666   8.341
 2113SOL     OW 6712   0.504   3.430   8.358
 2113SOL    HW1 6713   0.570   3.504   8.367
 2113SOL    HW2 6714   0.548   3.351   8.316
 2114SOL     OW 6715   1.002   2.658   8.686
 2114SOL    HW1 6716   1.043   2.626   8.772
 2114SOL    HW2 6717   0.906   2.631   8.683
 2115SOL     OW 6718   0.040   2.406   8.562
 2115SOL    HW1 6719   0.125   2.373   8.521
 2115SOL    HW2 6720   0.053   2.421   8.660
 2116SOL     OW 6721   0.189   2.382   9.170
 2116SOL    HW1 6722   0.248   2.342   9.100
 2116SOL    HW2 6723   0.131   2.453   9.129
 2117SOL     OW 6724   1.369   2.812   9.108
 2117SOL    HW1 6725   1.408   2.901   9.128
 2117SOL    HW2 6726   1.379   2.792   9.011
 2118SOL     OW 6727   0.815   2.434   7.773
 2118SOL    HW1 6728   0.822   2.345   7.727
 2118SOL    HW2 6729   0.721   2.468   7.765
 2119SOL     OW 6730   1.657   2.466   8.654
 2119SOL    HW1 6731   1.619   2.397   8.716
 2119SOL    HW2 6732   1.739   2.430   8.610
 2120SOL     OW 6733   0.252   3.426   9.192
 2120SOL    HW1 6734   0.222   3.483   9.268
 2120SOL    HW2 6735   0.245   3.329   9.218
 2121SOL     OW 6736   0.671   2.326   8.717
 2121SOL    HW1 6737   0.637   2.237   8.687
 2121SOL    HW2 6738   0.697   2.380   8.637
 2122SOL     OW 6739   0.930   3.540   8.913
 2122SOL    HW1 6740   0.906   3.522   8.818
 2122SOL    HW2 6741   0.960   3.634   8.923
 2123SOL     OW 6742   0.473   2.362   7.639
 2123SOL    HW1 6743   0.534   2.442   7.643
 2123SOL    HW2 6744   0.378   2.393   7.646
 2124SOL     OW 6745   0.159   2.999   8.914
 2124SOL    HW1 6746   0.181   2.938   8.990
 2124SOL    HW2 6747   0.169   2.950   8.828
 2125SOL     OW 6748   1.347   2.921   8.682
 2125SOL    HW1 6749   1.371   2.858   8.608
 2125SOL    HW2 6750   1.257   2.961   8.664
 2126SOL     OW 6751   1.302   2.717   7.757
 2126SOL    HW1 6752   1.216   2.686   7.799
 2126SOL    HW2 6753   1.298   2.703   7.658
 2127SOL     OW 6754   1.759   3.609   8.602
 2127SOL    HW1 6755   1.820   3.639   8.529
 2127SOL    HW2 6756   1.721   3.520   8.580
 2128SOL     OW 6757   1.252   3.593   8.576
 2128SOL    HW1 6758   1.336   3.598   8.522
 2128SOL    HW2 6759   1.229   3.497   8.594
 2129SOL     OW 6760   0.083   3.120   8.470
 2129SOL    HW1 6761   0.078   3.119   8.570
 2129SOL    HW2 6762   0.000   3.079   8.432
 2130SOL     OW 6763   0.688   3.524   9.164
 2130SOL    HW1 6764   0.632   3.605   9.173
 2130SOL    HW2 6765   0.740   3.528   9.078
 2131SOL     OW 6766   1.726   1.997   7.971
 2131SOL    HW1 6767   1.799   1.980   7.904
 2131SOL    HW2 6768   1.695   1.910   8.009
 2132SOL     OW 6769   1.388   3.435   7.925
 2132SOL    HW1 6770   1.455   3.447   7.851
 2132SOL    HW2 6771   1.348   3.524   7.948
 2133SOL     OW 6772   0.130   3.656   9.299
 2133SOL    HW1 6773   0.089   3.582   9.352
 2133SOL    HW2 6774   0.194   3.707   9.357
 2134SOL     OW 6775   1.280   2.789   8.120
 2134SOL    HW1 6776   1.340   2.708   8.122
 2134SOL    HW2 6777   1.320   2.858   8.060
 2135SOL     OW 6778   0.830   3.135   8.870
 2135SOL    HW1 6779   0.825   3.168   8.965
 2135SOL    HW2 6780   0.744   3.154   8.824
 2136SOL     OW 6781   0.672   3.478   7.602
 2136SOL    HW1 6782   0.681   3.488   7.503
 2136SOL    HW2 6783   0.632   3.389   7.623
 2137SOL     OW 6784   1.650   3.582   8.842
 2137SOL    HW1 6785   1.703   3.592   8.758
 2137SOL    HW2 6786   1.623   3.672   8.876
 2138SOL     OW 6787   1.841   2.037   8.411
 2138SOL    HW1 6788   1.880   1.952   8.375
 2138SOL    HW2 6789   1.743   2.039   8.392
 2139SOL     OW 6790   0.263   2.188   8.168
 2139SOL    HW1 6791   0.184   2.239   8.134
 2139SOL    HW2 6792   0.254   2.173   8.266
 2140SOL     OW 6793   1.194   3.474   7.479
 2140SOL    HW1 6794   1.200   3.381   7.516
 2140SOL    HW2 6795   1.135   3.474   7.399
 2141SOL     OW 6796   0.822   2.864   8.820
 2141SOL    HW1 6797   0.862   2.863   8.728
 2141SOL    HW2 6798   0.832   2.956   8.860
 2142SOL     OW 6799   0.916   2.772   7.739
 2142SOL    HW1 6800   0.979   2.810   7.671
 2142SOL    HW2 6801   0.956   2.689   7.778
 2143SOL     OW 6802   1.504   3.469   7.492
 2143SOL    HW1 6803   1.412   3.506   7.499
 2143SOL    HW2 6804   1.542   3.489   7.402
 2144SOL     OW 6805   0.372   3.150   8.938
 2144SOL    HW1 6806   0.359   3.243   8.904
 2144SOL    HW2 6807   0.288   3.098   8.925
 2145SOL     OW 6808   1.614   3.154   8.737
 2145SOL    HW1 6809   1.674   3.157   8.817
 2145SOL    HW2 6810   1.539   3.218   8.750
 2146SOL     OW 6811   1.039   2.960   8.144
 2146SOL    HW1 6812   0.969   2.913   8.198
 2146SOL    HW2 6813   1.098   2.892   8.101
 2147SOL     OW 6814   1.014   2.098   8.419
 2147SOL    HW1 6815   1.006   2.062   8.326
 2147SOL    HW2 6816   1.012   2.022   8.484
 2148SOL     OW 6817   0.590   3.349   7.939
 2148SOL    HW1 6818   0.632   3.291   7.869
 2148SOL    HW2 6819   0.546   3.428   7.895
 2149SOL     OW 6820   1.709   2.247   8.829
 2149SOL    HW1 6821   1.782   2.316   8.833
 2149SOL    HW2 6822   1.737   2.172   8.770
 2150SOL     OW 6823   0.255   3.210   7.738
 2150SOL    HW1 6824   0.159   3.211   7.711
 2150SOL    HW2 6825   0.267   3.263   7.822
 2151SOL     OW 6826   0.105   2.875   9.174
 2151SOL    HW1 6827   0.028   2.842   9.228
 2151SOL    HW2 6828   0.190   2.845   9.216
 2152SOL     OW 6829   0.672   2.065   8.937
 2152SOL    HW1 6830   0.762   2.049   8.897
 2152SOL    HW2 6831   0.680   2.070   9.036
 2153SOL     OW 6832   0.075   2.207   7.481
 2153SOL    HW1 6833  -0.017   2.179   7.452
 2153SOL    HW2 6834   0.106   2.284   7.425
 2154SOL     OW 6835   1.440   2.718   8.846
 2154SOL    HW1 6836   1.383   2.770   8.783
 2154SOL    HW2 6837   1.536   2.730   8.822
 2155SOL     OW 6838   0.072   2.028   7.766
 2155SOL    HW1 6839   0.055   2.111   7.712
 2155SOL    HW2 6840   0.162   1.991   7.744
 2156SOL     OW 6841   1.183   3.197   7.567
 2156SOL    HW1 6842   1.084   3.186   7.569
 2156SOL    HW2 6843   1.217   3.212   7.660
 2157SOL     OW 6844   0.613   2.704   8.879
 2157SOL    HW1 6845   0.669   2.785   8.862
 2157SOL    HW2 6846   0.672   2.624   8.882
 2158SOL     OW 6847   1.493   3.629   8.407
 2158SOL    HW1 6848   1.526   3.693   8.338
 2158SOL    HW2 6849   1.559   3.623   8.482
 2159SOL     OW 6850   0.716   2.427   9.156
 2159SOL    HW1 6851   0.735   2.492   9.230
 2159SOL    HW2 6852   0.776   2.347   9.165
 2160SOL     OW 6853   1.450   3.082   9.081
 2160SOL    HW1 6854   1.441   3.072   9.180
 2160SOL    HW2 6855   1.546   3.075   9.055
 2161SOL     OW 6856   0.390   3.603   9.008
 2161SOL    HW1 6857   0.299   3.644   9.006
 2161SOL    HW2 6858   0.383   3.509   9.040
 2162SOL     OW 6859   1.674   2.745   8.702
 2162SOL    HW1 6860   1.647   2.656   8.665
 2162SOL    HW2 6861   1.675   2.813   8.629
 2163SOL     OW 6862   1.225   2.187   7.897
 2163SOL    HW1 6863   1.290   2.113   7.886
 2163SOL    HW2 6864   1.245   2.237   7.981
 2164SOL     OW 6865   0.594   2.607   8.100
 2164SOL    HW1 6866   0.644   2.692   8.081
 2164SOL    HW2 6867   0.506   2.609   8.052
 2165SOL     OW 6868   1.777   2.204   9.090
 2165SOL    HW1 6869   1.760   2.235   8.996
 2165SOL    HW2 6870   1.693   2.167   9.128
 2166SOL     OW 6871   1.730   2.796   8.965
 2166SOL    HW1 6872   1.768   2.887   8.980
 2166SOL    HW2 6873   1.722   2.779   8.866
 2167SOL     OW 6874   0.859   3.236   7.464
 2167SOL    HW1 6875   0.813   3.251   7.552
 2167SOL    HW2 6876   0.903   3.321   7.434
 2168SOL     OW 6877   0.661   3.652   8.401
 2168SOL    HW1 6878   0.615   3.740   8.388
 2168SOL    HW2 6879   0.760   3.664   8.394
 2169SOL     OW 6880   0.859   2.818   8.309
 2169SOL    HW1 6881   0.913   2.749   8.357
 2169SOL    HW2 6882   0.827   2.887   8.375
 2170SOL     OW 6883   1.083   2.846   7.535
 2170SOL    HW1 6884   1.060   2.899   7.453
 2170SOL    HW2 6885   1.164   2.790   7.516
 2171SOL     OW 6886   1.861   3.431   8.299
 2171SOL    HW1 6887   1.790   3.419   8.229
 2171SOL    HW2 6888   1.862   3.352   8.359
 2172SOL     OW 6889   0.221   3.176   9.292
 2172SOL    HW1 6890   0.156   3.103   9.271
 2172SOL    HW2 6891   0.225   3.190   9.390
 2173SOL     OW 6892   0.079   3.102   8.101
 2173SOL    HW1 6893   0.078   3.055   8.189
 2173SOL    HW2 6894   0.161   3.074   8.050
 2174SOL     OW 6895   0.672   3.253   9.072
 2174SOL    HW1 6896   0.594   3.203   9.110
 2174SOL    HW2 6897   0.669   3.348   9.103
 2175SOL     OW 6898   1.824   2.054   8.675
 2175SOL    HW1 6899   1.820   1.964   8.719
 2175SOL    HW2 6900   1.827   2.043   8.576
 2176SOL     OW 6901   0.428   2.286   7.968
 2176SOL    HW1 6902   0.458   2.214   7.906
 2176SOL    HW2 6903   0.389   2.246   8.051
 2177SOL     OW 6904   1.705   3.349   8.552
 2177SOL    HW1 6905   1.612   3.324   8.525
 2177SOL    HW2 6906   1.731   3.299   8.634
 2178SOL     OW 6907   0.317   2.409   8.728
 2178SOL    HW1 6908   0.355   2.350   8.800
 2178SOL    HW2 6909   0.357   2.383   8.640
 2179SOL     OW 6910   0.812   3.448   8.135
 2179SOL    HW1 6911   0.844   3.458   8.041
 2179SOL    HW2 6912   0.733   3.386   8.137
 2180SOL     OW 6913   1.424   2.076   8.560
 2180SOL    HW1 6914   1.476   2.011   8.615
 2180SOL    HW2 6915   1.375   2.139   8.621
 2181SOL     OW 6916   1.001   1.896   8.602
 2181SOL    HW1 6917   0.938   1.824   8.571
 2181SOL    HW2 6918   1.094   1.860   8.602
 2182SOL     OW 6919   0.770   3.192   7.749
 2182SOL    HW1 6920   0.724   3.105   7.766
 2182SOL    HW2 6921   0.861   3.189   7.790
 2183SOL     OW 6922   0.618   3.429   8.732
 2183SOL    HW1 6923   0.613   3.511   8.789
 2183SOL    HW2 6924   0.707   3.426   8.687
 2184SOL     OW 6925   1.352   1.914   7.616
 2184SOL    HW1 6926   1.387   1.873   7.532
 2184SOL    HW2 6927   1.262   1.876   7.636
 2185SOL     OW 6928   1.300   2.315   8.139
 2185SOL    HW1 6929   1.241   2.395   8.143
 2185SOL    HW2 6930   1.315   2.280   8.232
 2186SOL     OW 6931   1.593   2.083   8.330
 2186SOL    HW1 6932   1.509   2.082   8.384
 2186SOL    HW2 6933   1.595   2.166   8.274
 2187SOL     OW 6934   0.039   2.939   7.748
 2187SOL    HW1 6935   0.138   2.928   7.739
 2187SOL    HW2 6936  -0.001   2.853   7.780
 2188SOL     OW 6937   0.875   3.508   7.785
 2188SOL    HW1 6938   0.798   3.473   7.731
 2188SOL    HW2 6939   0.843   3.579   7.847
 2189SOL     OW 6940   0.230   2.490   9.423
 2189SOL    HW1 6941   0.137   2.488   9.460
 2189SOL    HW2 6942   0.231   2.451   9.331
 2190SOL     OW 6943   1.755   2.469   9.541
 2190SOL    HW1 6944   1.743   2.456   9.442
 2190SOL    HW2 6945   1.725   2.388   9.590
 2191SOL     OW 6946   0.231   3.575   9.793
 2191SOL    HW1 6947   0.265   3.652   9.847
 2191SOL    HW2 6948   0.275   3.575   9.703
 2192SOL     OW 6949   0.230   3.296   9.848
 2192SOL    HW1 6950   0.204   3.392   9.848
 2192SOL    HW2 6951   0.159   3.242   9.893
 2193SOL     OW 6952   0.606   2.826   9.433
 2193SOL    HW1 6953   0.613   2.910   9.379
 2193SOL    HW2 6954   0.652   2.839   9.521
 2194SOL     OW 6955   0.122   2.505   9.873
 2194SOL    HW1 6956   0.077   2.417   9.890
 2194SOL    HW2 6957   0.121   2.559   9.957
 2195SOL     OW 6958   1.842   3.629   9.669
 2195SOL    HW1 6959   1.896   3.600   9.749
 2195SOL    HW2 6960   1.872   3.719   9.640
 2196SOL     OW 6961   0.027   3.458   9.427
 2196SOL    HW1 6962   0.008   3.362   9.448
 2196SOL    HW2 6963  -0.006   3.516   9.502
 2197SOL     OW 6964   1.689   2.784   9.922
 2197SOL    HW1 6965   1.784   2.755   9.930
 2197SOL    HW2 6966   1.681   2.849   9.847
 2198SOL     OW 6967   1.641   2.970   9.742
 2198SOL    HW1 6968   1.727   2.972   9.690
 2198SOL    HW2 6969   1.655   3.017   9.830
 2199SOL     OW 6970   0.613   3.227  10.036
 2199SOL    HW1 6971   0.564   3.140  10.045
 2199SOL    HW2 6972   0.590   3.270   9.949
 2200SOL     OW 6973   0.809   1.866   9.812
 2200SOL    HW1 6974   0.849   1.957   9.803
 2200SOL    HW2 6975   0.709   1.874   9.818
 2201SOL     OW 6976   1.525   2.861   9.500
 2201SOL    HW1 6977   1.462   2.785   9.513
 2201SOL    HW2 6978   1.573   2.879   9.586
 2202SOL     OW 6979   0.598   2.591   9.580
 2202SOL    HW1 6980   0.622   2.660   9.512
 2202SOL    HW2 6981   0.520   2.624   9.634
 2203SOL     OW 6982   1.576   3.524   9.617
 2203SOL    HW1 6983   1.665   3.570   9.620
 2203SOL    HW2 6984   1.555   3.500   9.522
 2204SOL     OW 6985   1.041   2.563   9.739
 2204SOL    HW1 6986   1.067   2.559   9.835
 2204SOL    HW2 6987   0.956   2.512   9.725
 2205SOL     OW 6988   0.076   2.673  10.099
 2205SOL    HW1 6989   0.175   2.661  10.108
 2205SOL    HW2 6990   0.052   2.768  10.120
 2206SOL     OW 6991   0.865   2.210   9.505
 2206SOL    HW1 6992   0.924   2.273   9.456
 2206SOL    HW2 6993   0.884   2.116   9.476
 2207SOL     OW 6994   1.362   3.006   9.855
 2207SOL    HW1 6995   1.445   2.977   9.807
 2207SOL    HW2 6996   1.313   3.073   9.799
 2208SOL     OW 6997   1.008   3.318   9.787
 2208SOL    HW1 6998   0.962   3.390   9.735
 2208SOL    HW2 6999   1.004   3.338   9.885
 2209SOL     OW 7000   0.351   3.663  10.163
 2209SOL    HW1 7001   0.401   3.577  10.169
 2209SOL    HW2 7002   0.416   3.740  10.160
 2210SOL     OW 7003   0.321   2.805   9.552
 2210SOL    HW1 7004   0.403   2.844   9.510
 2210SOL    HW2 7005   0.294   2.723   9.503
 2211SOL     OW 7006   1.111   3.638   9.547
 2211SOL    HW1 7007   1.051   3.576   9.597
 2211SOL    HW2 7008   1.142   3.594   9.462
 2212SOL     OW 7009   1.632   3.239   9.391
 2212SOL    HW1 7010   1.600   3.333   9.381
 2212SOL    HW2 7011   1.556   3.176   9.379
 2213SOL     OW 7012   0.464   3.605   9.633
 2213SOL    HW1 7013   0.497   3.644   9.719
 2213SOL    HW2 7014   0.540   3.598   9.568
 2214SOL     OW 7015   1.400   1.969   9.736
 2214SOL    HW1 7016   1.376   1.932   9.646
 2214SOL    HW2 7017   1.499   1.985   9.740
 2215SOL     OW 7018   0.382   2.562   9.790
 2215SOL    HW1 7019   0.427   2.472   9.787
 2215SOL    HW2 7020   0.288   2.551   9.823
 2216SOL     OW 7021   0.614   1.984   9.427
 2216SOL    HW1 7022   0.712   1.962   9.434
 2216SOL    HW2 7023   0.583   1.967   9.334
 2217SOL     OW 7024   0.539   1.926   9.822
 2217SOL    HW1 7025   0.458   1.927   9.880
 2217SOL    HW2 7026   0.542   2.009   9.767
 2218SOL     OW 7027   1.434   3.050   9.351
 2218SOL    HW1 7028   1.466   2.974   9.408
 2218SOL    HW2 7029   1.342   3.077   9.381
 2219SOL     OW 7030   0.297   1.897   9.481
 2219SOL    HW1 7031   0.346   1.981   9.460
 2219SOL    HW2 7032   0.359   1.832   9.526
 2220SOL     OW 7033   0.935   2.098   9.790
 2220SOL    HW1 7034   0.887   2.139   9.712
 2220SOL    HW2 7035   1.034   2.096   9.771
 2221SOL     OW 7036   0.459   3.014  10.051
 2221SOL    HW1 7037   0.388   2.987  10.116
 2221SOL    HW2 7038   0.433   2.986   9.958
 2222SOL     OW 7039   1.271   3.659   9.901
 2222SOL    HW1 7040   1.315   3.723   9.837
 2222SOL    HW2 7041   1.221   3.711   9.971
 2223SOL     OW 7042   1.032   2.411   9.326
 2223SOL    HW1 7043   0.991   2.493   9.287
 2223SOL    HW2 7044   1.096   2.437   9.399
 2224SOL     OW 7045   0.866   2.316   9.952
 2224SOL    HW1 7046   0.834   2.388   9.890
 2224SOL    HW2 7047   0.890   2.235   9.899
 2225SOL     OW 7048   1.857   2.695   9.687
 2225SOL    HW1 7049   1.899   2.631   9.751
 2225SOL    HW2 7050   1.819   2.644   9.609
 2226SOL     OW 7051   0.488   3.247   9.484
 2226SOL    HW1 7052   0.401   3.232   9.531
 2226SOL    HW2 7053   0.471   3.273   9.389
 2227SOL     OW 7054   1.390   2.437   9.388
 2227SOL    HW1 7055   1.336   2.416   9.469
 2227SOL    HW2 7056   1.481   2.396   9.397
 2228SOL     OW 7057   0.527   2.118   9.638
 2228SOL    HW1 7058   0.554   2.059   9.563
 2228SOL    HW2 7059   0.527   2.213   9.607
 2229SOL     OW 7060   0.705   2.912   9.678
 2229SOL    HW1 7061   0.691   2.919   9.777
 2229SOL    HW2 7062   0.789   2.861   9.660
 2230SOL     OW 7063   0.367   2.962   9.811
 2230SOL    HW1 7064   0.360   3.045   9.755
 2230SOL    HW2 7065   0.371   2.882   9.751
 2231SOL     OW 7066   1.252   3.210   9.698
 2231SOL    HW1 7067   1.302   3.287   9.738
 2231SOL    HW2 7068   1.157   3.212   9.730
 2232SOL     OW 7069   1.582   2.501   9.782
 2232SOL    HW1 7070   1.551   2.562   9.855
 2232SOL    HW2 7071   1.632   2.553   9.713
 2233SOL     OW 7072   1.209   2.387   9.585
 2233SOL    HW1 7073   1.222   2.303   9.639
 2233SOL    HW2 7074   1.180   2.461   9.645
 2234SOL     OW 7075   0.307   1.925   9.928
 2234SOL    HW1 7076   0.296   2.019   9.961
 2234SOL    HW2 7077   0.302   1.862  10.005
 2235SOL     OW 7078   1.622   2.229   9.684
 2235SOL    HW1 7079   1.624   2.153   9.748
 2235SOL    HW2 7080   1.574   2.306   9.724
 2236SOL     OW 7081   1.540   2.136   9.435
 2236SOL    HW1 7082   1.479   2.061   9.458
 2236SOL    HW2 7083   1.562   2.188   9.518
 2237SOL     OW 7084   1.303   2.700   9.352
 2237SOL    HW1 7085   1.337   2.607   9.367
 2237SOL    HW2 7086   1.321   2.727   9.257
 2238SOL     OW 7087   0.008   3.188   9.510
 2238SOL    HW1 7088  -0.085   3.209   9.479
 2238SOL    HW2 7089   0.018   3.089   9.523
 2239SOL     OW 7090   0.815   2.434   9.635
 2239SOL    HW1 7091   0.822   2.345   9.589
 2239SOL    HW2 7092   0.721   2.468   9.627
 2240SOL     OW 7093   0.473   2.362   9.501
 2240SOL    HW1 7094   0.534   2.442   9.505
 2240SOL    HW2 7095   0.378   2.393   9.508
 2241SOL     OW 7096   1.302   2.717   9.619
 2241SOL    HW1 7097   1.216   2.686   9.661
 2241SOL    HW2 7098   1.298   2.703   9.520
 2242SOL     OW 7099   1.726   1.997   9.833
 2242SOL    HW1 7100   1.799   1.980   9.766
 2242SOL    HW2 7101   1.695   1.910   9.871
 2243SOL     OW 7102   1.388   3.435   9.787
 2243SOL    HW1 7103   1.455   3.447   9.713
 2243SOL    HW2 7104   1.348   3.524   9.810
 2244SOL     OW 7105   0.672   3.478   9.464
 2244SOL    HW1 7106   0.681   3.488   9.365
 2244SOL    HW2 7107   0.632   3.389   9.485
 2245SOL     OW 7108   1.194   3.474   9.341
 2245SOL    HW1 7109   1.200   3.381   9.378
 2245SOL    HW2 7110   1.135   3.474   9.261
 2246SOL     OW 7111   0.916   2.772   9.601
 2246SOL    HW1 7112   0.979   2.810   9.533
 2246SOL    HW2 7113   0.956   2.689   9.640
 2247SOL     OW 7114   1.504   3.469   9.354
 2247SOL    HW1 7115   1.412   3.506   9.361
 2247SOL    HW2 7116   1.542   3.489   9.264
 2248SOL     OW 7117   0.590   3.349   9.801
 2248SOL    HW1 7118   0.632   3.291   9.731
 2248SOL    HW2 7119   0.546   3.428   9.757
 2249SOL     OW 7120   0.255   3.210   9.600
 2249SOL    HW1 7121   0.159   3.211   9.573
 2249SOL    HW2 7122   0.267   3.263   9.684
 2250SOL     OW 7123   0.075   2.207   9.343
 2250SOL    HW1 7124  -0.017   2.179   9.314
 2250SOL    HW2 7125   0.106   2.284   9.287
 2251SOL     OW 7126   0.072   2.028   9.628
 2251SOL    HW1 7127   0.055   2.111   9.574
 2251SOL    HW2 7128   0.162   1.991   9.606
 2252SOL     OW 7129   1.183   3.197   9.429
 2252SOL    HW1 7130   1.084   3.186   9.431
 2252SOL    HW2 7131   1.217   3.212   9.522
 2253SOL     OW 7132   1.225   2.187   9.759
 2253SOL    HW1 7133   1.290   2.113   9.748
 2253SOL    HW2 7134   1.245   2.237   9.843
 2254SOL     OW 7135   0.594   2.607   9.962
 2254SOL    HW1 7136   0.644   2.692   9.943
 2254SOL    HW2 7137   0.506   2.609   9.914
 2255SOL     OW 7138   0.859   3.236   9.326
 2255SOL    HW1 7139   0.813   3.251   9.414
 2255SOL    HW2 7140   0.903   3.321   9.296
 2256SOL     OW 7141   1.083   2.846   9.397
 2256SOL    HW1 7142   1.060   2.899   9.315
 2256SOL    HW2 7143   1.164   2.790   9.378
 2257SOL     OW 7144   0.079   3.102   9.963
 2257SOL    HW1 7145   0.078   3.055  10.051
 2257SOL    HW2 7146   0.161   3.074   9.912
 2258SOL     OW 7147   0.428   2.286   9.830
 2258SOL    HW1 7148   0.458   2.214   9.768
 2258SOL    HW2 7149   0.389   2.246   9.913
 2259SOL     OW 7150   0.770   3.192   9.611
 2259SOL    HW1 7151   0.724   3.105   9.628
 2259SOL    HW2 7152   0.861   3.189   9.652
 2260SOL     OW 7153   1.352   1.914   9.478
 2260SOL    HW1 7154   1.387   1.873   9.394
 2260SOL    HW2 7155   1.262   1.876   9.498
 2261SOL     OW 7156   0.039   2.939   9.610
 2261SOL    HW1 7157   0.138   2.928   9.601
 2261SOL    HW2 7158  -0.001   2.853   9.642
 2262SOL     OW 7159   0.875   3.508   9.647
 2262SOL    HW1 7160   0.798   3.473   9.593
 2262SOL    HW2 7161   0.843   3.579   9.709
 2263SOL     OW 7162   0.230   4.352   0.113
 2263SOL    HW1 7163   0.137   4.350   0.150
 2263SOL    HW2 7164   0.231   4.313   0.021
 2264SOL     OW 7165   0.225   3.999   0.996
 2264SOL    HW1 7166   0.260   3.982   1.088
 2264SOL    HW2 7167   0.137   3.954   0.984
 2265SOL     OW 7168   0.019   4.092   0.647
 2265SOL    HW1 7169  -0.063   4.135   0.686
 2265SOL    HW2 7170  -0.009   4.019   0.584
 2266SOL     OW 7171   1.135   4.427   0.717
 2266SOL    HW1 7172   1.192   4.505   0.692
 2266SOL    HW2 7173   1.075   4.453   0.793
 2267SOL     OW 7174   1.755   4.331   0.231
 2267SOL    HW1 7175   1.743   4.318   0.132
 2267SOL    HW2 7176   1.725   4.250   0.280
 2268SOL     OW 7177   0.850   4.522   1.823
 2268SOL    HW1 7178   0.846   4.598   1.888
 2268SOL    HW2 7179   0.872   4.558   1.732
 2269SOL     OW 7180   0.685   4.736   0.665
 2269SOL    HW1 7181   0.754   4.720   0.735
 2269SOL    HW2 7182   0.612   4.793   0.703
 2270SOL     OW 7183   0.438   4.116   1.499
 2270SOL    HW1 7184   0.520   4.060   1.508
 2270SOL    HW2 7185   0.357   4.058   1.503
 2271SOL     OW 7186   1.603   4.171   0.737
 2271SOL    HW1 7187   1.529   4.217   0.687
 2271SOL    HW2 7188   1.654   4.239   0.790
 2272SOL     OW 7189   1.594   3.838   1.480
 2272SOL    HW1 7190   1.576   3.905   1.408
 2272SOL    HW2 7191   1.591   3.884   1.569
 2273SOL     OW 7192   0.122   4.367   0.563
 2273SOL    HW1 7193   0.077   4.279   0.580
 2273SOL    HW2 7194   0.121   4.421   0.647
 2274SOL     OW 7195   0.113   4.461   1.597
 2274SOL    HW1 7196   0.201   4.448   1.642
 2274SOL    HW2 7197   0.100   4.558   1.575
 2275SOL     OW 7198   0.809   3.728   0.502
 2275SOL    HW1 7199   0.849   3.819   0.493
 2275SOL    HW2 7200   0.709   3.736   0.508
 2276SOL     OW 7201   0.197   4.700   1.264
 2276SOL    HW1 7202   0.286   4.655   1.250
 2276SOL    HW2 7203   0.124   4.635   1.245
 2277SOL     OW 7204   1.525   4.723   0.190
 2277SOL    HW1 7205   1.462   4.647   0.203
 2277SOL    HW2 7206   1.573   4.741   0.276
 2278SOL     OW 7207   0.317   3.975   1.801
 2278SOL    HW1 7208   0.388   4.046   1.807
 2278SOL    HW2 7209   0.229   4.014   1.829
 2279SOL     OW 7210   0.598   4.453   0.270
 2279SOL    HW1 7211   0.622   4.522   0.202
 2279SOL    HW2 7212   0.520   4.486   0.324
 2280SOL     OW 7213   1.281   4.069   0.944
 2280SOL    HW1 7214   1.195   4.019   0.931
 2280SOL    HW2 7215   1.343   4.015   1.000
 2281SOL     OW 7216   0.807   4.329   1.465
 2281SOL    HW1 7217   0.760   4.326   1.554
 2281SOL    HW2 7218   0.756   4.274   1.399
 2282SOL     OW 7219   1.394   4.193   1.674
 2282SOL    HW1 7220   1.374   4.236   1.762
 2282SOL    HW2 7221   1.472   4.131   1.683
 2283SOL     OW 7222   0.973   4.614   1.572
 2283SOL    HW1 7223   1.019   4.530   1.543
 2283SOL    HW2 7224   0.917   4.648   1.497
 2284SOL     OW 7225   0.991   4.134   1.242
 2284SOL    HW1 7226   0.914   4.168   1.296
 2284SOL    HW2 7227   0.957   4.083   1.163
 2285SOL     OW 7228   1.041   4.425   0.429
 2285SOL    HW1 7229   1.067   4.421   0.525
 2285SOL    HW2 7230   0.956   4.374   0.415
 2286SOL     OW 7231   0.076   4.535   0.789
 2286SOL    HW1 7232   0.175   4.523   0.798
 2286SOL    HW2 7233   0.052   4.630   0.810
 2287SOL     OW 7234   0.865   4.072   0.195
 2287SOL    HW1 7235   0.924   4.135   0.146
 2287SOL    HW2 7236   0.884   3.978   0.166
 2288SOL     OW 7237   1.719   4.309   1.831
 2288SOL    HW1 7238   1.693   4.398   1.795
 2288SOL    HW2 7239   1.717   4.241   1.758
 2289SOL     OW 7240   0.550   3.920   0.885
 2289SOL    HW1 7241   0.545   3.915   0.985
 2289SOL    HW2 7242   0.552   4.016   0.856
 2290SOL     OW 7243   1.458   4.459   0.728
 2290SOL    HW1 7244   1.453   4.394   0.803
 2290SOL    HW2 7245   1.538   4.518   0.741
 2291SOL     OW 7246   0.202   4.009   1.498
 2291SOL    HW1 7247   0.122   4.069   1.485
 2291SOL    HW2 7248   0.192   3.960   1.584
 2292SOL     OW 7249   1.400   3.831   0.426
 2292SOL    HW1 7250   1.376   3.794   0.336
 2292SOL    HW2 7251   1.499   3.847   0.430
 2293SOL     OW 7252   0.382   4.424   0.480
 2293SOL    HW1 7253   0.427   4.334   0.477
 2293SOL    HW2 7254   0.288   4.413   0.513
 2294SOL     OW 7255   1.547   3.946   1.729
 2294SOL    HW1 7256   1.542   3.983   1.821
 2294SOL    HW2 7257   1.475   3.877   1.717
 2295SOL     OW 7258   0.614   3.846   0.117
 2295SOL    HW1 7259   0.712   3.824   0.124
 2295SOL    HW2 7260   0.583   3.829   0.024
 2296SOL     OW 7261   0.781   3.988   1.749
 2296SOL    HW1 7262   0.848   3.927   1.792
 2296SOL    HW2 7263   0.708   4.007   1.814
 2297SOL     OW 7264   1.351   4.314   1.433
 2297SOL    HW1 7265   1.379   4.271   1.518
 2297SOL    HW2 7266   1.376   4.410   1.434
 2298SOL     OW 7267   0.922   4.227   0.899
 2298SOL    HW1 7268   0.897   4.218   0.803
 2298SOL    HW2 7269   0.970   4.145   0.930
 2299SOL     OW 7270   0.539   3.788   0.512
 2299SOL    HW1 7271   0.458   3.789   0.570
 2299SOL    HW2 7272   0.542   3.871   0.457
 2300SOL     OW 7273   0.935   3.960   0.480
 2300SOL    HW1 7274   0.887   4.001   0.402
 2300SOL    HW2 7275   1.034   3.958   0.461
 2301SOL     OW 7276   1.076   4.407   1.464
 2301SOL    HW1 7277   0.996   4.346   1.467
 2301SOL    HW2 7278   1.157   4.354   1.440
 2302SOL     OW 7279   1.032   4.273   0.016
 2302SOL    HW1 7280   0.991   4.355  -0.023
 2302SOL    HW2 7281   1.096   4.299   0.089
 2303SOL     OW 7282   0.078   4.280   1.386
 2303SOL    HW1 7283   0.170   4.279   1.345
 2303SOL    HW2 7284   0.072   4.354   1.453
 2304SOL     OW 7285   0.561   3.946   1.147
 2304SOL    HW1 7286   0.599   3.862   1.184
 2304SOL    HW2 7287   0.473   3.965   1.191
 2305SOL     OW 7288   0.866   4.178   0.642
 2305SOL    HW1 7289   0.834   4.250   0.580
 2305SOL    HW2 7290   0.890   4.097   0.589
 2306SOL     OW 7291   1.017   3.763   0.753
 2306SOL    HW1 7292   0.945   3.768   0.684
 2306SOL    HW2 7293   0.993   3.694   0.822
 2307SOL     OW 7294   1.466   4.314   0.992
 2307SOL    HW1 7295   1.436   4.219   0.999
 2307SOL    HW2 7296   1.539   4.330   1.058
 2308SOL     OW 7297   1.857   4.557   0.377
 2308SOL    HW1 7298   1.899   4.493   0.441
 2308SOL    HW2 7299   1.819   4.506   0.299
 2309SOL     OW 7300   1.390   4.299   0.078
 2309SOL    HW1 7301   1.336   4.278   0.159
 2309SOL    HW2 7302   1.481   4.258   0.087
 2310SOL     OW 7303   0.527   3.980   0.328
 2310SOL    HW1 7304   0.554   3.921   0.253
 2310SOL    HW2 7305   0.527   4.075   0.297
 2311SOL     OW 7306   1.638   4.823   1.079
 2311SOL    HW1 7307   1.643   4.904   1.138
 2311SOL    HW2 7308   1.552   4.825   1.028
 2312SOL     OW 7309   0.915   3.813   1.402
 2312SOL    HW1 7310   0.940   3.793   1.307
 2312SOL    HW2 7311   0.987   3.869   1.444
 2313SOL     OW 7312   0.410   4.537   1.251
 2313SOL    HW1 7313   0.496   4.549   1.301
 2313SOL    HW2 7314   0.368   4.450   1.278
 2314SOL     OW 7315   1.274   4.110   1.262
 2314SOL    HW1 7316   1.295   4.184   1.326
 2314SOL    HW2 7317   1.185   4.127   1.219
 2315SOL     OW 7318   0.566   4.261   0.865
 2315SOL    HW1 7319   0.578   4.327   0.791
 2315SOL    HW2 7320   0.612   4.295   0.948
 2316SOL     OW 7321   1.582   4.363   0.472
 2316SOL    HW1 7322   1.551   4.424   0.545
 2316SOL    HW2 7323   1.632   4.415   0.403
 2317SOL     OW 7324   0.402   4.475   1.598
 2317SOL    HW1 7325   0.470   4.530   1.551
 2317SOL    HW2 7326   0.442   4.387   1.625
 2318SOL     OW 7327   1.587   4.503   1.670
 2318SOL    HW1 7328   1.495   4.541   1.665
 2318SOL    HW2 7329   1.647   4.550   1.605
 2319SOL     OW 7330   1.013   3.829   1.770
 2319SOL    HW1 7331   1.019   3.914   1.718
 2319SOL    HW2 7332   1.045   3.753   1.713
 2320SOL     OW 7333   0.504   3.774   1.740
 2320SOL    HW1 7334   0.462   3.717   1.670
 2320SOL    HW2 7335   0.438   3.843   1.772
 2321SOL     OW 7336   0.573   4.594   1.029
 2321SOL    HW1 7337   0.617   4.683   1.020
 2321SOL    HW2 7338   0.510   4.594   1.106
 2322SOL     OW 7339   1.360   4.586   1.045
 2322SOL    HW1 7340   1.285   4.586   0.979
 2322SOL    HW2 7341   1.397   4.494   1.054
 2323SOL     OW 7342   1.209   4.249   0.275
 2323SOL    HW1 7343   1.222   4.165   0.329
 2323SOL    HW2 7344   1.180   4.323   0.335
 2324SOL     OW 7345   0.307   3.937   1.231
 2324SOL    HW1 7346   0.284   3.974   1.321
 2324SOL    HW2 7347   0.277   3.842   1.225
 2325SOL     OW 7348   0.037   5.034   1.282
 2325SOL    HW1 7349   0.090   4.985   1.350
 2325SOL    HW2 7350   0.059   5.132   1.287
 2326SOL     OW 7351   0.732   4.358   1.064
 2326SOL    HW1 7352   0.791   4.332   0.988
 2326SOL    HW2 7353   0.704   4.454   1.053
 2327SOL     OW 7354   1.728   4.659   1.854
 2327SOL    HW1 7355   1.682   4.652   1.765
 2327SOL    HW2 7356   1.666   4.703   1.920
 2328SOL     OW 7357   0.307   3.787   0.618
 2328SOL    HW1 7358   0.296   3.881   0.651
 2328SOL    HW2 7359   0.302   3.724   0.695
 2329SOL     OW 7360   1.622   4.091   0.374
 2329SOL    HW1 7361   1.624   4.015   0.438
 2329SOL    HW2 7362   1.574   4.168   0.414
 2330SOL     OW 7363   1.023   4.490   0.966
 2330SOL    HW1 7364   1.038   4.511   1.062
 2330SOL    HW2 7365   0.993   4.395   0.957
 2331SOL     OW 7366   0.350   4.622   1.804
 2331SOL    HW1 7367   0.426   4.666   1.852
 2331SOL    HW2 7368   0.385   4.575   1.722
 2332SOL     OW 7369   1.540   3.998   0.125
 2332SOL    HW1 7370   1.479   3.923   0.148
 2332SOL    HW2 7371   1.562   4.050   0.208
 2333SOL     OW 7372   1.303   4.562   0.042
 2333SOL    HW1 7373   1.337   4.469   0.057
 2333SOL    HW2 7374   1.321   4.589  -0.053
 2334SOL     OW 7375   0.319   4.534   0.949
 2334SOL    HW1 7376   0.412   4.570   0.954
 2334SOL    HW2 7377   0.313   4.449   1.001
 2335SOL     OW 7378   0.339   4.233   1.006
 2335SOL    HW1 7379   0.287   4.150   0.989
 2335SOL    HW2 7380   0.416   4.238   0.942
 2336SOL     OW 7381   1.138   4.104   1.678
 2336SOL    HW1 7382   1.093   4.167   1.742
 2336SOL    HW2 7383   1.231   4.135   1.661
 2337SOL     OW 7384   1.160   3.931   1.477
 2337SOL    HW1 7385   1.160   3.995   1.554
 2337SOL    HW2 7386   1.188   3.979   1.394
 2338SOL     OW 7387   1.002   4.520   1.238
 2338SOL    HW1 7388   1.043   4.488   1.324
 2338SOL    HW2 7389   0.906   4.493   1.235
 2339SOL     OW 7390   0.040   4.268   1.114
 2339SOL    HW1 7391   0.125   4.235   1.073
 2339SOL    HW2 7392   0.053   4.283   1.212
 2340SOL     OW 7393   0.189   4.244   1.722
 2340SOL    HW1 7394   0.248   4.204   1.652
 2340SOL    HW2 7395   0.131   4.315   1.681
 2341SOL     OW 7396   1.369   4.674   1.660
 2341SOL    HW1 7397   1.408   4.763   1.680
 2341SOL    HW2 7398   1.379   4.654   1.563
 2342SOL     OW 7399   0.815   4.296   0.325
 2342SOL    HW1 7400   0.822   4.207   0.279
 2342SOL    HW2 7401   0.721   4.330   0.317
 2343SOL     OW 7402   1.657   4.328   1.206
 2343SOL    HW1 7403   1.619   4.259   1.268
 2343SOL    HW2 7404   1.739   4.292   1.162
 2344SOL     OW 7405   0.671   4.188   1.269
 2344SOL    HW1 7406   0.637   4.099   1.239
 2344SOL    HW2 7407   0.697   4.242   1.189
 2345SOL     OW 7408   0.473   4.224   0.191
 2345SOL    HW1 7409   0.534   4.304   0.195
 2345SOL    HW2 7410   0.378   4.255   0.198
 2346SOL     OW 7411   1.347   4.783   1.234
 2346SOL    HW1 7412   1.371   4.720   1.160
 2346SOL    HW2 7413   1.257   4.823   1.216
 2347SOL     OW 7414   1.302   4.579   0.309
 2347SOL    HW1 7415   1.216   4.548   0.351
 2347SOL    HW2 7416   1.298   4.565   0.210
 2348SOL     OW 7417   0.903   3.810   0.133
 2348SOL    HW1 7418   0.954   3.811   0.047
 2348SOL    HW2 7419   0.959   3.768   0.204
 2349SOL     OW 7420   1.726   3.859   0.523
 2349SOL    HW1 7421   1.799   3.842   0.456
 2349SOL    HW2 7422   1.695   3.772   0.561
 2350SOL     OW 7423   1.280   4.651   0.672
 2350SOL    HW1 7424   1.340   4.570   0.674
 2350SOL    HW2 7425   1.320   4.720   0.612
 2351SOL     OW 7426   1.841   3.899   0.963
 2351SOL    HW1 7427   1.880   3.814   0.927
 2351SOL    HW2 7428   1.743   3.901   0.944
 2352SOL     OW 7429   0.263   4.050   0.720
 2352SOL    HW1 7430   0.184   4.101   0.686
 2352SOL    HW2 7431   0.254   4.035   0.818
 2353SOL     OW 7432   1.014   3.960   0.971
 2353SOL    HW1 7433   1.006   3.924   0.878
 2353SOL    HW2 7434   1.012   3.884   1.036
 2354SOL     OW 7435   1.709   4.109   1.381
 2354SOL    HW1 7436   1.782   4.178   1.385
 2354SOL    HW2 7437   1.737   4.034   1.322
 2355SOL     OW 7438   0.105   4.737   1.726
 2355SOL    HW1 7439   0.028   4.704   1.780
 2355SOL    HW2 7440   0.190   4.707   1.768
 2356SOL     OW 7441   0.672   3.927   1.489
 2356SOL    HW1 7442   0.762   3.911   1.449
 2356SOL    HW2 7443   0.680   3.932   1.588
 2357SOL     OW 7444   0.075   4.069   0.033
 2357SOL    HW1 7445  -0.017   4.041   0.004
 2357SOL    HW2 7446   0.106   4.146  -0.023
 2358SOL     OW 7447   1.440   4.580   1.398
 2358SOL    HW1 7448   1.383   4.632   1.335
 2358SOL    HW2 7449   1.536   4.592   1.374
 2359SOL     OW 7450   0.072   3.890   0.318
 2359SOL    HW1 7451   0.055   3.973   0.264
 2359SOL    HW2 7452   0.162   3.853   0.296
 2360SOL     OW 7453   0.613   4.566   1.431
 2360SOL    HW1 7454   0.669   4.647   1.414
 2360SOL    HW2 7455   0.672   4.486   1.434
 2361SOL     OW 7456   0.716   4.289   1.708
 2361SOL    HW1 7457   0.735   4.354   1.782
 2361SOL    HW2 7458   0.776   4.209   1.717
 2362SOL     OW 7459   1.674   4.607   1.254
 2362SOL    HW1 7460   1.647   4.518   1.217
 2362SOL    HW2 7461   1.675   4.675   1.181
 2363SOL     OW 7462   1.225   4.049   0.449
 2363SOL    HW1 7463   1.290   3.975   0.438
 2363SOL    HW2 7464   1.245   4.099   0.533
 2364SOL     OW 7465   0.594   4.469   0.652
 2364SOL    HW1 7466   0.644   4.554   0.633
 2364SOL    HW2 7467   0.506   4.471   0.604
 2365SOL     OW 7468   1.777   4.066   1.642
 2365SOL    HW1 7469   1.760   4.097   1.548
 2365SOL    HW2 7470   1.693   4.029   1.680
 2366SOL     OW 7471   1.730   4.658   1.517
 2366SOL    HW1 7472   1.768   4.749   1.532
 2366SOL    HW2 7473   1.722   4.641   1.418
 2367SOL     OW 7474   1.824   3.916   1.227
 2367SOL    HW1 7475   1.820   3.826   1.271
 2367SOL    HW2 7476   1.827   3.905   1.128
 2368SOL     OW 7477   0.428   4.148   0.520
 2368SOL    HW1 7478   0.458   4.076   0.458
 2368SOL    HW2 7479   0.389   4.108   0.603
 2369SOL     OW 7480   0.317   4.271   1.280
 2369SOL    HW1 7481   0.355   4.212   1.352
 2369SOL    HW2 7482   0.357   4.245   1.192
 2370SOL     OW 7483   1.424   3.938   1.112
 2370SOL    HW1 7484   1.476   3.873   1.167
 2370SOL    HW2 7485   1.375   4.001   1.173
 2371SOL     OW 7486   1.001   3.758   1.154
 2371SOL    HW1 7487   0.938   3.686   1.123
 2371SOL    HW2 7488   1.094   3.722   1.154
 2372SOL     OW 7489   1.352   3.776   0.168
 2372SOL    HW1 7490   1.387   3.735   0.084
 2372SOL    HW2 7491   1.262   3.738   0.188
 2373SOL     OW 7492   1.300   4.177   0.691
 2373SOL    HW1 7493   1.241   4.257   0.695
 2373SOL    HW2 7494   1.315   4.142   0.784
 2374SOL     OW 7495   1.593   3.945   0.882
 2374SOL    HW1 7496   1.509   3.944   0.936
 2374SOL    HW2 7497   1.595   4.028   0.826
 2375SOL     OW 7498   0.230   4.352   1.975
 2375SOL    HW1 7499   0.137   4.350   2.012
 2375SOL    HW2 7500   0.231   4.313   1.883
 2376SOL     OW 7501   0.225   3.999   2.858
 2376SOL    HW1 7502   0.260   3.982   2.950
 2376SOL    HW2 7503   0.137   3.954   2.846
 2377SOL     OW 7504   0.019   4.092   2.509
 2377SOL    HW1 7505  -0.063   4.135   2.548
 2377SOL    HW2 7506  -0.009   4.019   2.446
 2378SOL     OW 7507   1.135   4.427   2.579
 2378SOL    HW1 7508   1.192   4.505   2.554
 2378SOL    HW2 7509   1.075   4.453   2.655
 2379SOL     OW 7510   1.755   4.331   2.093
 2379SOL    HW1 7511   1.743   4.318   1.994
 2379SOL    HW2 7512   1.725   4.250   2.142
 2380SOL     OW 7513   0.850   4.522   3.685
 2380SOL    HW1 7514   0.846   4.598   3.750
 2380SOL    HW2 7515   0.872   4.558   3.594
 2381SOL     OW 7516   0.685   4.736   2.527
 2381SOL    HW1 7517   0.754   4.720   2.597
 2381SOL    HW2 7518   0.612   4.793   2.565
 2382SOL     OW 7519   0.438   4.116   3.361
 2382SOL    HW1 7520   0.520   4.060   3.370
 2382SOL    HW2 7521   0.357   4.058   3.365
 2383SOL     OW 7522   1.603   4.171   2.599
 2383SOL    HW1 7523   1.529   4.217   2.549
 2383SOL    HW2 7524   1.654   4.239   2.652
 2384SOL     OW 7525   1.594   3.838   3.342
 2384SOL    HW1 7526   1.576   3.905   3.270
 2384SOL    HW2 7527   1.591   3.884   3.431
 2385SOL     OW 7528   0.122   4.367   2.425
 2385SOL    HW1 7529   0.077   4.279   2.442
 2385SOL    HW2 7530   0.121   4.421   2.509
 2386SOL     OW 7531   0.113   4.461   3.459
 2386SOL    HW1 7532   0.201   4.448   3.504
 2386SOL    HW2 7533   0.100   4.558   3.437
 2387SOL     OW 7534   0.809   3.728   2.364
 2387SOL    HW1 7535   0.849   3.819   2.355
 2387SOL    HW2 7536   0.709   3.736   2.370
 2388SOL     OW 7537   0.197   4.700   3.126
 2388SOL    HW1 7538   0.286   4.655   3.112
 2388SOL    HW2 7539   0.124   4.635   3.107
 2389SOL     OW 7540   1.525   4.723   2.052
 2389SOL    HW1 7541   1.462   4.647   2.065
 2389SOL    HW2 7542   1.573   4.741   2.138
 2390SOL     OW 7543   0.317   3.975   3.663
 2390SOL    HW1 7544   0.388   4.046   3.669
 2390SOL    HW2 7545   0.229   4.014   3.691
 2391SOL     OW 7546   0.598   4.453   2.132
 2391SOL    HW1 7547   0.622   4.522   2.064
 2391SOL    HW2 7548   0.520   4.486   2.186
 2392SOL     OW 7549   1.281   4.069   2.806
 2392SOL    HW1 7550   1.195   4.019   2.793
 2392SOL    HW2 7551   1.343   4.015   2.862
 2393SOL     OW 7552   0.807   4.329   3.327
 2393SOL    HW1 7553   0.760   4.326   3.416
 2393SOL    HW2 7554   0.756   4.274   3.261
 2394SOL     OW 7555   1.394   4.193   3.536
 2394SOL    HW1 7556   1.374   4.236   3.624
 2394SOL    HW2 7557   1.472   4.131   3.545
 2395SOL     OW 7558   0.973   4.614   3.434
 2395SOL    HW1 7559   1.019   4.530   3.405
 2395SOL    HW2 7560   0.917   4.648   3.359
 2396SOL     OW 7561   0.991   4.134   3.104
 2396SOL    HW1 7562   0.914   4.168   3.158
 2396SOL    HW2 7563   0.957   4.083   3.025
 2397SOL     OW 7564   1.041   4.425   2.291
 2397SOL    HW1 7565   1.067   4.421   2.387
 2397SOL    HW2 7566   0.956   4.374   2.277
 2398SOL     OW 7567   0.076   4.535   2.651
 2398SOL    HW1 7568   0.175   4.523   2.660
 2398SOL    HW2 7569   0.052   4.630   2.672
 2399SOL     OW 7570   0.865   4.072   2.057
 2399SOL    HW1 7571   0.924   4.135   2.008
 2399SOL    HW2 7572   0.884   3.978   2.028
 2400SOL     OW 7573   1.719   4.309   3.693
 2400SOL    HW1 7574   1.693   4.398   3.657
 2400SOL    HW2 7575   1.717   4.241   3.620
 2401SOL     OW 7576   0.550   3.920   2.747
 2401SOL    HW1 7577   0.545   3.915   2.847
 2401SOL    HW2 7578   0.552   4.016   2.718
 2402SOL     OW 7579   1.458   4.459   2.590
 2402SOL    HW1 7580   1.453   4.394   2.665
 2402SOL    HW2 7581   1.538   4.518   2.603
 2403SOL     OW 7582   0.202   4.009   3.360
 2403SOL    HW1 7583   0.122   4.069   3.347
 2403SOL    HW2 7584   0.192   3.960   3.446
 2404SOL     OW 7585   1.400   3.831   2.288
 2404SOL    HW1 7586   1.376   3.794   2.198
 2404SOL    HW2 7587   1.499   3.847   2.292
 2405SOL     OW 7588   0.382   4.424   2.342
 2405SOL    HW1 7589   0.427   4.334   2.339
 2405SOL    HW2 7590   0.288   4.413   2.375
 2406SOL     OW 7591   1.547   3.946   3.591
 2406SOL    HW1 7592   1.542   3.983   3.683
 2406SOL    HW2 7593   1.475   3.877   3.579
 2407SOL     OW 7594   0.614   3.846   1.979
 2407SOL    HW1 7595   0.712   3.824   1.986
 2407SOL    HW2 7596   0.583   3.829   1.886
 2408SOL     OW 7597   0.781   3.988   3.611
 2408SOL    HW1 7598   0.848   3.927   3.654
 2408SOL    HW2 7599   0.708   4.007   3.676
 2409SOL     OW 7600   1.351   4.314   3.295
 2409SOL    HW1 7601   1.379   4.271   3.380
 2409SOL    HW2 7602   1.376   4.410   3.296
 2410SOL     OW 7603   0.922   4.227   2.761
 2410SOL    HW1 7604   0.897   4.218   2.665
 2410SOL    HW2 7605   0.970   4.145   2.792
 2411SOL     OW 7606   0.539   3.788   2.374
 2411SOL    HW1 7607   0.458   3.789   2.432
 2411SOL    HW2 7608   0.542   3.871   2.319
 2412SOL     OW 7609   0.297   3.759   2.033
 2412SOL    HW1 7610   0.346   3.843   2.012
 2412SOL    HW2 7611   0.359   3.694   2.078
 2413SOL     OW 7612   0.935   3.960   2.342
 2413SOL    HW1 7613   0.887   4.001   2.264
 2413SOL    HW2 7614   1.034   3.958   2.323
 2414SOL     OW 7615   1.076   4.407   3.326
 2414SOL    HW1 7616   0.996   4.346   3.329
 2414SOL    HW2 7617   1.157   4.354   3.302
 2415SOL     OW 7618   1.032   4.273   1.878
 2415SOL    HW1 7619   0.991   4.355   1.839
 2415SOL    HW2 7620   1.096   4.299   1.951
 2416SOL     OW 7621   0.078   4.280   3.248
 2416SOL    HW1 7622   0.170   4.279   3.207
 2416SOL    HW2 7623   0.072   4.354   3.315
 2417SOL     OW 7624   0.561   3.946   3.009
 2417SOL    HW1 7625   0.599   3.862   3.046
 2417SOL    HW2 7626   0.473   3.965   3.053
 2418SOL     OW 7627   0.866   4.178   2.504
 2418SOL    HW1 7628   0.834   4.250   2.442
 2418SOL    HW2 7629   0.890   4.097   2.451
 2419SOL     OW 7630   1.017   3.763   2.615
 2419SOL    HW1 7631   0.945   3.768   2.546
 2419SOL    HW2 7632   0.993   3.694   2.684
 2420SOL     OW 7633   1.466   4.314   2.854
 2420SOL    HW1 7634   1.436   4.219   2.861
 2420SOL    HW2 7635   1.539   4.330   2.920
 2421SOL     OW 7636   1.857   4.557   2.239
 2421SOL    HW1 7637   1.899   4.493   2.303
 2421SOL    HW2 7638   1.819   4.506   2.161
 2422SOL     OW 7639   1.390   4.299   1.940
 2422SOL    HW1 7640   1.336   4.278   2.021
 2422SOL    HW2 7641   1.481   4.258   1.949
 2423SOL     OW 7642   0.527   3.980   2.190
 2423SOL    HW1 7643   0.554   3.921   2.115
 2423SOL    HW2 7644   0.527   4.075   2.159
 2424SOL     OW 7645   1.638   4.823   2.941
 2424SOL    HW1 7646   1.643   4.904   3.000
 2424SOL    HW2 7647   1.552   4.825   2.890
 2425SOL     OW 7648   0.915   3.813   3.264
 2425SOL    HW1 7649   0.940   3.793   3.169
 2425SOL    HW2 7650   0.987   3.869   3.306
 2426SOL     OW 7651   0.410   4.537   3.113
 2426SOL    HW1 7652   0.496   4.549   3.163
 2426SOL    HW2 7653   0.368   4.450   3.140
 2427SOL     OW 7654   1.274   4.110   3.124
 2427SOL    HW1 7655   1.295   4.184   3.188
 2427SOL    HW2 7656   1.185   4.127   3.081
 2428SOL     OW 7657   0.566   4.261   2.727
 2428SOL    HW1 7658   0.578   4.327   2.653
 2428SOL    HW2 7659   0.612   4.295   2.810
 2429SOL     OW 7660   1.582   4.363   2.334
 2429SOL    HW1 7661   1.551   4.424   2.407
 2429SOL    HW2 7662   1.632   4.415   2.265
 2430SOL     OW 7663   0.402   4.475   3.460
 2430SOL    HW1 7664   0.470   4.530   3.413
 2430SOL    HW2 7665   0.442   4.387   3.487
 2431SOL     OW 7666   1.587   4.503   3.532
 2431SOL    HW1 7667   1.495   4.541   3.527
 2431SOL    HW2 7668   1.647   4.550   3.467
 2432SOL     OW 7669   1.013   3.829   3.632
 2432SOL    HW1 7670   1.019   3.914   3.580
 2432SOL    HW2 7671   1.045   3.753   3.575
 2433SOL     OW 7672   0.504   3.774   3.602
 2433SOL    HW1 7673   0.462   3.717   3.532
 2433SOL    HW2 7674   0.438   3.843   3.634
 2434SOL     OW 7675   0.573   4.594   2.891
 2434SOL    HW1 7676   0.617   4.683   2.882
 2434SOL    HW2 7677   0.510   4.594   2.968
 2435SOL     OW 7678   1.360   4.586   2.907
 2435SOL    HW1 7679   1.285   4.586   2.841
 2435SOL    HW2 7680   1.397   4.494   2.916
 2436SOL     OW 7681   1.209   4.249   2.137
 2436SOL    HW1 7682   1.222   4.165   2.191
 2436SOL    HW2 7683   1.180   4.323   2.197
 2437SOL     OW 7684   0.307   3.937   3.093
 2437SOL    HW1 7685   0.284   3.974   3.183
 2437SOL    HW2 7686   0.277   3.842   3.087
 2438SOL     OW 7687   0.037   5.034   3.144
 2438SOL    HW1 7688   0.090   4.985   3.212
 2438SOL    HW2 7689   0.059   5.132   3.149
 2439SOL     OW 7690   0.732   4.358   2.926
 2439SOL    HW1 7691   0.791   4.332   2.850
 2439SOL    HW2 7692   0.704   4.454   2.915
 2440SOL     OW 7693   1.728   4.659   3.716
 2440SOL    HW1 7694   1.682   4.652   3.627
 2440SOL    HW2 7695   1.666   4.703   3.782
 2441SOL     OW 7696   0.307   3.787   2.480
 2441SOL    HW1 7697   0.296   3.881   2.513
 2441SOL    HW2 7698   0.302   3.724   2.557
 2442SOL     OW 7699   1.622   4.091   2.236
 2442SOL    HW1 7700   1.624   4.015   2.300
 2442SOL    HW2 7701   1.574   4.168   2.276
 2443SOL     OW 7702   1.023   4.490   2.828
 2443SOL    HW1 7703   1.038   4.511   2.924
 2443SOL    HW2 7704   0.993   4.395   2.819
 2444SOL     OW 7705   0.350   4.622   3.666
 2444SOL    HW1 7706   0.426   4.666   3.714
 2444SOL    HW2 7707   0.385   4.575   3.584
 2445SOL     OW 7708   1.540   3.998   1.987
 2445SOL    HW1 7709   1.479   3.923   2.010
 2445SOL    HW2 7710   1.562   4.050   2.070
 2446SOL     OW 7711   1.303   4.562   1.904
 2446SOL    HW1 7712   1.337   4.469   1.919
 2446SOL    HW2 7713   1.321   4.589   1.809
 2447SOL     OW 7714   0.319   4.534   2.811
 2447SOL    HW1 7715   0.412   4.570   2.816
 2447SOL    HW2 7716   0.313   4.449   2.863
 2448SOL     OW 7717   0.339   4.233   2.868
 2448SOL    HW1 7718   0.287   4.150   2.851
 2448SOL    HW2 7719   0.416   4.238   2.804
 2449SOL     OW 7720   1.138   4.104   3.540
 2449SOL    HW1 7721   1.093   4.167   3.604
 2449SOL    HW2 7722   1.231   4.135   3.523
 2450SOL     OW 7723   1.160   3.931   3.339
 2450SOL    HW1 7724   1.160   3.995   3.416
 2450SOL    HW2 7725   1.188   3.979   3.256
 2451SOL     OW 7726   1.002   4.520   3.100
 2451SOL    HW1 7727   1.043   4.488   3.186
 2451SOL    HW2 7728   0.906   4.493   3.097
 2452SOL     OW 7729   0.040   4.268   2.976
 2452SOL    HW1 7730   0.125   4.235   2.935
 2452SOL    HW2 7731   0.053   4.283   3.074
 2453SOL     OW 7732   0.189   4.244   3.584
 2453SOL    HW1 7733   0.248   4.204   3.514
 2453SOL    HW2 7734   0.131   4.315   3.543
 2454SOL     OW 7735   1.369   4.674   3.522
 2454SOL    HW1 7736   1.408   4.763   3.542
 2454SOL    HW2 7737   1.379   4.654   3.425
 2455SOL     OW 7738   0.815   4.296   2.187
 2455SOL    HW1 7739   0.822   4.207   2.141
 2455SOL    HW2 7740   0.721   4.330   2.179
 2456SOL     OW 7741   1.657   4.328   3.068
 2456SOL    HW1 7742   1.619   4.259   3.130
 2456SOL    HW2 7743   1.739   4.292   3.024
 2457SOL     OW 7744   0.671   4.188   3.131
 2457SOL    HW1 7745   0.637   4.099   3.101
 2457SOL    HW2 7746   0.697   4.242   3.051
 2458SOL     OW 7747   0.473   4.224   2.053
 2458SOL    HW1 7748   0.534   4.304   2.057
 2458SOL    HW2 7749   0.378   4.255   2.060
 2459SOL     OW 7750   1.347   4.783   3.096
 2459SOL    HW1 7751   1.371   4.720   3.022
 2459SOL    HW2 7752   1.257   4.823   3.078
 2460SOL     OW 7753   1.302   4.579   2.171
 2460SOL    HW1 7754   1.216   4.548   2.213
 2460SOL    HW2 7755   1.298   4.565   2.072
 2461SOL     OW 7756   1.726   3.859   2.385
 2461SOL    HW1 7757   1.799   3.842   2.318
 2461SOL    HW2 7758   1.695   3.772   2.423
 2462SOL     OW 7759   1.280   4.651   2.534
 2462SOL    HW1 7760   1.340   4.570   2.536
 2462SOL    HW2 7761   1.320   4.720   2.474
 2463SOL     OW 7762   1.841   3.899   2.825
 2463SOL    HW1 7763   1.880   3.814   2.789
 2463SOL    HW2 7764   1.743   3.901   2.806
 2464SOL     OW 7765   0.263   4.050   2.582
 2464SOL    HW1 7766   0.184   4.101   2.548
 2464SOL    HW2 7767   0.254   4.035   2.680
 2465SOL     OW 7768   0.916   4.634   2.153
 2465SOL    HW1 7769   0.979   4.672   2.085
 2465SOL    HW2 7770   0.956   4.551   2.192
 2466SOL     OW 7771   1.014   3.960   2.833
 2466SOL    HW1 7772   1.006   3.924   2.740
 2466SOL    HW2 7773   1.012   3.884   2.898
 2467SOL     OW 7774   1.709   4.109   3.243
 2467SOL    HW1 7775   1.782   4.178   3.247
 2467SOL    HW2 7776   1.737   4.034   3.184
 2468SOL     OW 7777   0.105   4.737   3.588
 2468SOL    HW1 7778   0.028   4.704   3.642
 2468SOL    HW2 7779   0.190   4.707   3.630
 2469SOL     OW 7780   0.672   3.927   3.351
 2469SOL    HW1 7781   0.762   3.911   3.311
 2469SOL    HW2 7782   0.680   3.932   3.450
 2470SOL     OW 7783   0.075   4.069   1.895
 2470SOL    HW1 7784  -0.017   4.041   1.866
 2470SOL    HW2 7785   0.106   4.146   1.839
 2471SOL     OW 7786   1.440   4.580   3.260
 2471SOL    HW1 7787   1.383   4.632   3.197
 2471SOL    HW2 7788   1.536   4.592   3.236
 2472SOL     OW 7789   0.072   3.890   2.180
 2472SOL    HW1 7790   0.055   3.973   2.126
 2472SOL    HW2 7791   0.162   3.853   2.158
 2473SOL     OW 7792   0.613   4.566   3.293
 2473SOL    HW1 7793   0.669   4.647   3.276
 2473SOL    HW2 7794   0.672   4.486   3.296
 2474SOL     OW 7795   0.716   4.289   3.570
 2474SOL    HW1 7796   0.735   4.354   3.644
 2474SOL    HW2 7797   0.776   4.209   3.579
 2475SOL     OW 7798   1.674   4.607   3.116
 2475SOL    HW1 7799   1.647   4.518   3.079
 2475SOL    HW2 7800   1.675   4.675   3.043
 2476SOL     OW 7801   1.225   4.049   2.311
 2476SOL    HW1 7802   1.290   3.975   2.300
 2476SOL    HW2 7803   1.245   4.099   2.395
 2477SOL     OW 7804   0.594   4.469   2.514
 2477SOL    HW1 7805   0.644   4.554   2.495
 2477SOL    HW2 7806   0.506   4.471   2.466
 2478SOL     OW 7807   1.777   4.066   3.504
 2478SOL    HW1 7808   1.760   4.097   3.410
 2478SOL    HW2 7809   1.693   4.029   3.542
 2479SOL     OW 7810   1.730   4.658   3.379
 2479SOL    HW1 7811   1.768   4.749   3.394
 2479SOL    HW2 7812   1.722   4.641   3.280
 2480SOL     OW 7813   1.824   3.916   3.089
 2480SOL    HW1 7814   1.820   3.826   3.133
 2480SOL    HW2 7815   1.827   3.905   2.990
 2481SOL     OW 7816   0.428   4.148   2.382
 2481SOL    HW1 7817   0.458   4.076   2.320
 2481SOL    HW2 7818   0.389   4.108   2.465
 2482SOL     OW 7819   0.317   4.271   3.142
 2482SOL    HW1 7820   0.355   4.212   3.214
 2482SOL    HW2 7821   0.357   4.245   3.054
 2483SOL     OW 7822   1.424   3.938   2.974
 2483SOL    HW1 7823   1.476   3.873   3.029
 2483SOL    HW2 7824   1.375   4.001   3.035
 2484SOL     OW 7825   1.001   3.758   3.016
 2484SOL    HW1 7826   0.938   3.686   2.985
 2484SOL    HW2 7827   1.094   3.722   3.016
 2485SOL     OW 7828   1.352   3.776   2.030
 2485SOL    HW1 7829   1.387   3.735   1.946
 2485SOL    HW2 7830   1.262   3.738   2.050
 2486SOL     OW 7831   1.300   4.177   2.553
 2486SOL    HW1 7832   1.241   4.257   2.557
 2486SOL    HW2 7833   1.315   4.142   2.646
 2487SOL     OW 7834   1.593   3.945   2.744
 2487SOL    HW1 7835   1.509   3.944   2.798
 2487SOL    HW2 7836   1.595   4.028   2.688
 2488SOL     OW 7837   0.230   4.352   3.837
 2488SOL    HW1 7838   0.137   4.350   3.874
 2488SOL    HW2 7839   0.231   4.313   3.745
 2489SOL     OW 7840   0.225   3.999   4.720
 2489SOL    HW1 7841   0.260   3.982   4.812
 2489SOL    HW2 7842   0.137   3.954   4.708
 2490SOL     OW 7843   0.019   4.092   4.371
 2490SOL    HW1 7844  -0.063   4.135   4.410
 2490SOL    HW2 7845  -0.009   4.019   4.308
 2491SOL     OW 7846   1.135   4.427   4.441
 2491SOL    HW1 7847   1.192   4.505   4.416
 2491SOL    HW2 7848   1.075   4.453   4.517
 2492SOL     OW 7849   1.755   4.331   3.955
 2492SOL    HW1 7850   1.743   4.318   3.856
 2492SOL    HW2 7851   1.725   4.250   4.004
 2493SOL     OW 7852   0.850   4.522   5.547
 2493SOL    HW1 7853   0.846   4.598   5.612
 2493SOL    HW2 7854   0.872   4.558   5.456
 2494SOL     OW 7855   0.685   4.736   4.389
 2494SOL    HW1 7856   0.754   4.720   4.459
 2494SOL    HW2 7857   0.612   4.793   4.427
 2495SOL     OW 7858   0.438   4.116   5.223
 2495SOL    HW1 7859   0.520   4.060   5.232
 2495SOL    HW2 7860   0.357   4.058   5.227
 2496SOL     OW 7861   1.603   4.171   4.461
 2496SOL    HW1 7862   1.529   4.217   4.411
 2496SOL    HW2 7863   1.654   4.239   4.514
 2497SOL     OW 7864   1.594   3.838   5.204
 2497SOL    HW1 7865   1.576   3.905   5.132
 2497SOL    HW2 7866   1.591   3.884   5.293
 2498SOL     OW 7867   0.122   4.367   4.287
 2498SOL    HW1 7868   0.077   4.279   4.304
 2498SOL    HW2 7869   0.121   4.421   4.371
 2499SOL     OW 7870   0.113   4.461   5.321
 2499SOL    HW1 7871   0.201   4.448   5.366
 2499SOL    HW2 7872   0.100   4.558   5.299
 2500SOL     OW 7873   0.809   3.728   4.226
 2500SOL    HW1 7874   0.849   3.819   4.217
 2500SOL    HW2 7875   0.709   3.736   4.232
 2501SOL     OW 7876   0.197   4.700   4.988
 2501SOL    HW1 7877   0.286   4.655   4.974
 2501SOL    HW2 7878   0.124   4.635   4.969
 2502SOL     OW 7879   1.525   4.723   3.914
 2502SOL    HW1 7880   1.462   4.647   3.927
 2502SOL    HW2 7881   1.573   4.741   4.000
 2503SOL     OW 7882   0.317   3.975   5.525
 2503SOL    HW1 7883   0.388   4.046   5.531
 2503SOL    HW2 7884   0.229   4.014   5.553
 2504SOL     OW 7885   0.598   4.453   3.994
 2504SOL    HW1 7886   0.622   4.522   3.926
 2504SOL    HW2 7887   0.520   4.486   4.048
 2505SOL     OW 7888   1.281   4.069   4.668
 2505SOL    HW1 7889   1.195   4.019   4.655
 2505SOL    HW2 7890   1.343   4.015   4.724
 2506SOL     OW 7891   0.807   4.329   5.189
 2506SOL    HW1 7892   0.760   4.326   5.278
 2506SOL    HW2 7893   0.756   4.274   5.123
 2507SOL     OW 7894   1.394   4.193   5.398
 2507SOL    HW1 7895   1.374   4.236   5.486
 2507SOL    HW2 7896   1.472   4.131   5.407
 2508SOL     OW 7897   0.973   4.614   5.296
 2508SOL    HW1 7898   1.019   4.530   5.267
 2508SOL    HW2 7899   0.917   4.648   5.221
 2509SOL     OW 7900   0.991   4.134   4.966
 2509SOL    HW1 7901   0.914   4.168   5.020
 2509SOL    HW2 7902   0.957   4.083   4.887
 2510SOL     OW 7903   1.041   4.425   4.153
 2510SOL    HW1 7904   1.067   4.421   4.249
 2510SOL    HW2 7905   0.956   4.374   4.139
 2511SOL     OW 7906   0.076   4.535   4.513
 2511SOL    HW1 7907   0.175   4.523   4.522
 2511SOL    HW2 7908   0.052   4.630   4.534
 2512SOL     OW 7909   0.865   4.072   3.919
 2512SOL    HW1 7910   0.924   4.135   3.870
 2512SOL    HW2 7911   0.884   3.978   3.890
 2513SOL     OW 7912   1.719   4.309   5.555
 2513SOL    HW1 7913   1.693   4.398   5.519
 2513SOL    HW2 7914   1.717   4.241   5.482
 2514SOL     OW 7915   0.550   3.920   4.609
 2514SOL    HW1 7916   0.545   3.915   4.709
 2514SOL    HW2 7917   0.552   4.016   4.580
 2515SOL     OW 7918   1.458   4.459   4.452
 2515SOL    HW1 7919   1.453   4.394   4.527
 2515SOL    HW2 7920   1.538   4.518   4.465
 2516SOL     OW 7921   0.202   4.009   5.222
 2516SOL    HW1 7922   0.122   4.069   5.209
 2516SOL    HW2 7923   0.192   3.960   5.308
 2517SOL     OW 7924   1.400   3.831   4.150
 2517SOL    HW1 7925   1.376   3.794   4.060
 2517SOL    HW2 7926   1.499   3.847   4.154
 2518SOL     OW 7927   0.382   4.424   4.204
 2518SOL    HW1 7928   0.427   4.334   4.201
 2518SOL    HW2 7929   0.288   4.413   4.237
 2519SOL     OW 7930   1.547   3.946   5.453
 2519SOL    HW1 7931   1.542   3.983   5.545
 2519SOL    HW2 7932   1.475   3.877   5.441
 2520SOL     OW 7933   0.614   3.846   3.841
 2520SOL    HW1 7934   0.712   3.824   3.848
 2520SOL    HW2 7935   0.583   3.829   3.748
 2521SOL     OW 7936   0.781   3.988   5.473
 2521SOL    HW1 7937   0.848   3.927   5.516
 2521SOL    HW2 7938   0.708   4.007   5.538
 2522SOL     OW 7939   1.351   4.314   5.157
 2522SOL    HW1 7940   1.379   4.271   5.242
 2522SOL    HW2 7941   1.376   4.410   5.158
 2523SOL     OW 7942   0.922   4.227   4.623
 2523SOL    HW1 7943   0.897   4.218   4.527
 2523SOL    HW2 7944   0.970   4.145   4.654
 2524SOL     OW 7945   0.539   3.788   4.236
 2524SOL    HW1 7946   0.458   3.789   4.294
 2524SOL    HW2 7947   0.542   3.871   4.181
 2525SOL     OW 7948   0.297   3.759   3.895
 2525SOL    HW1 7949   0.346   3.843   3.874
 2525SOL    HW2 7950   0.359   3.694   3.940
 2526SOL     OW 7951   0.935   3.960   4.204
 2526SOL    HW1 7952   0.887   4.001   4.126
 2526SOL    HW2 7953   1.034   3.958   4.185
 2527SOL     OW 7954   1.076   4.407   5.188
 2527SOL    HW1 7955   0.996   4.346   5.191
 2527SOL    HW2 7956   1.157   4.354   5.164
 2528SOL     OW 7957   1.032   4.273   3.740
 2528SOL    HW1 7958   0.991   4.355   3.701
 2528SOL    HW2 7959   1.096   4.299   3.813
 2529SOL     OW 7960   0.078   4.280   5.110
 2529SOL    HW1 7961   0.170   4.279   5.069
 2529SOL    HW2 7962   0.072   4.354   5.177
 2530SOL     OW 7963   0.561   3.946   4.871
 2530SOL    HW1 7964   0.599   3.862   4.908
 2530SOL    HW2 7965   0.473   3.965   4.915
 2531SOL     OW 7966   0.866   4.178   4.366
 2531SOL    HW1 7967   0.834   4.250   4.304
 2531SOL    HW2 7968   0.890   4.097   4.313
 2532SOL     OW 7969   1.017   3.763   4.477
 2532SOL    HW1 7970   0.945   3.768   4.408
 2532SOL    HW2 7971   0.993   3.694   4.546
 2533SOL     OW 7972   1.466   4.314   4.716
 2533SOL    HW1 7973   1.436   4.219   4.723
 2533SOL    HW2 7974   1.539   4.330   4.782
 2534SOL     OW 7975   1.857   4.557   4.101
 2534SOL    HW1 7976   1.899   4.493   4.165
 2534SOL    HW2 7977   1.819   4.506   4.023
 2535SOL     OW 7978   1.390   4.299   3.802
 2535SOL    HW1 7979   1.336   4.278   3.883
 2535SOL    HW2 7980   1.481   4.258   3.811
 2536SOL     OW 7981   0.527   3.980   4.052
 2536SOL    HW1 7982   0.554   3.921   3.977
 2536SOL    HW2 7983   0.527   4.075   4.021
 2537SOL     OW 7984   1.638   4.823   4.803
 2537SOL    HW1 7985   1.643   4.904   4.862
 2537SOL    HW2 7986   1.552   4.825   4.752
 2538SOL     OW 7987   0.915   3.813   5.126
 2538SOL    HW1 7988   0.940   3.793   5.031
 2538SOL    HW2 7989   0.987   3.869   5.168
 2539SOL     OW 7990   0.410   4.537   4.975
 2539SOL    HW1 7991   0.496   4.549   5.025
 2539SOL    HW2 7992   0.368   4.450   5.002
 2540SOL     OW 7993   1.274   4.110   4.986
 2540SOL    HW1 7994   1.295   4.184   5.050
 2540SOL    HW2 7995   1.185   4.127   4.943
 2541SOL     OW 7996   0.566   4.261   4.589
 2541SOL    HW1 7997   0.578   4.327   4.515
 2541SOL    HW2 7998   0.612   4.295   4.672
 2542SOL     OW 7999   1.582   4.363   4.196
 2542SOL    HW1 8000   1.551   4.424   4.269
 2542SOL    HW2 8001   1.632   4.415   4.127
 2543SOL     OW 8002   0.402   4.475   5.322
 2543SOL    HW1 8003   0.470   4.530   5.275
 2543SOL    HW2 8004   0.442   4.387   5.349
 2544SOL     OW 8005   1.587   4.503   5.394
 2544SOL    HW1 8006   1.495   4.541   5.389
 2544SOL    HW2 8007   1.647   4.550   5.329
 2545SOL     OW 8008   1.013   3.829   5.494
 2545SOL    HW1 8009   1.019   3.914   5.442
 2545SOL    HW2 8010   1.045   3.753   5.437
 2546SOL     OW 8011   0.504   3.774   5.464
 2546SOL    HW1 8012   0.462   3.717   5.394
 2546SOL    HW2 8013   0.438   3.843   5.496
 2547SOL     OW 8014   0.573   4.594   4.753
 2547SOL    HW1 8015   0.617   4.683   4.744
 2547SOL    HW2 8016   0.510   4.594   4.830
 2548SOL     OW 8017   1.360   4.586   4.769
 2548SOL    HW1 8018   1.285   4.586   4.703
 2548SOL    HW2 8019   1.397   4.494   4.778
 2549SOL     OW 8020   1.209   4.249   3.999
 2549SOL    HW1 8021   1.222   4.165   4.053
 2549SOL    HW2 8022   1.180   4.323   4.059
 2550SOL     OW 8023   0.307   3.937   4.955
 2550SOL    HW1 8024   0.284   3.974   5.045
 2550SOL    HW2 8025   0.277   3.842   4.949
 2551SOL     OW 8026   0.037   5.034   5.006
 2551SOL    HW1 8027   0.090   4.985   5.074
 2551SOL    HW2 8028   0.059   5.132   5.011
 2552SOL     OW 8029   0.732   4.358   4.788
 2552SOL    HW1 8030   0.791   4.332   4.712
 2552SOL    HW2 8031   0.704   4.454   4.777
 2553SOL     OW 8032   1.728   4.659   5.578
 2553SOL    HW1 8033   1.682   4.652   5.489
 2553SOL    HW2 8034   1.666   4.703   5.644
 2554SOL     OW 8035   0.307   3.787   4.342
 2554SOL    HW1 8036   0.296   3.881   4.375
 2554SOL    HW2 8037   0.302   3.724   4.419
 2555SOL     OW 8038   1.622   4.091   4.098
 2555SOL    HW1 8039   1.624   4.015   4.162
 2555SOL    HW2 8040   1.574   4.168   4.138
 2556SOL     OW 8041   1.023   4.490   4.690
 2556SOL    HW1 8042   1.038   4.511   4.786
 2556SOL    HW2 8043   0.993   4.395   4.681
 2557SOL     OW 8044   0.350   4.622   5.528
 2557SOL    HW1 8045   0.426   4.666   5.576
 2557SOL    HW2 8046   0.385   4.575   5.446
 2558SOL     OW 8047   1.540   3.998   3.849
 2558SOL    HW1 8048   1.479   3.923   3.872
 2558SOL    HW2 8049   1.562   4.050   3.932
 2559SOL     OW 8050   1.303   4.562   3.766
 2559SOL    HW1 8051   1.337   4.469   3.781
 2559SOL    HW2 8052   1.321   4.589   3.671
 2560SOL     OW 8053   0.319   4.534   4.673
 2560SOL    HW1 8054   0.412   4.570   4.678
 2560SOL    HW2 8055   0.313   4.449   4.725
 2561SOL     OW 8056   0.339   4.233   4.730
 2561SOL    HW1 8057   0.287   4.150   4.713
 2561SOL    HW2 8058   0.416   4.238   4.666
 2562SOL     OW 8059   1.138   4.104   5.402
 2562SOL    HW1 8060   1.093   4.167   5.466
 2562SOL    HW2 8061   1.231   4.135   5.385
 2563SOL     OW 8062   1.160   3.931   5.201
 2563SOL    HW1 8063   1.160   3.995   5.278
 2563SOL    HW2 8064   1.188   3.979   5.118
 2564SOL     OW 8065   1.002   4.520   4.962
 2564SOL    HW1 8066   1.043   4.488   5.048
 2564SOL    HW2 8067   0.906   4.493   4.959
 2565SOL     OW 8068   0.040   4.268   4.838
 2565SOL    HW1 8069   0.125   4.235   4.797
 2565SOL    HW2 8070   0.053   4.283   4.936
 2566SOL     OW 8071   0.189   4.244   5.446
 2566SOL    HW1 8072   0.248   4.204   5.376
 2566SOL    HW2 8073   0.131   4.315   5.405
 2567SOL     OW 8074   1.369   4.674   5.384
 2567SOL    HW1 8075   1.408   4.763   5.404
 2567SOL    HW2 8076   1.379   4.654   5.287
 2568SOL     OW 8077   0.815   4.296   4.049
 2568SOL    HW1 8078   0.822   4.207   4.003
 2568SOL    HW2 8079   0.721   4.330   4.041
 2569SOL     OW 8080   1.657   4.328   4.930
 2569SOL    HW1 8081   1.619   4.259   4.992
 2569SOL    HW2 8082   1.739   4.292   4.886
 2570SOL     OW 8083   0.671   4.188   4.993
 2570SOL    HW1 8084   0.637   4.099   4.963
 2570SOL    HW2 8085   0.697   4.242   4.913
 2571SOL     OW 8086   0.473   4.224   3.915
 2571SOL    HW1 8087   0.534   4.304   3.919
 2571SOL    HW2 8088   0.378   4.255   3.922
 2572SOL     OW 8089   1.347   4.783   4.958
 2572SOL    HW1 8090   1.371   4.720   4.884
 2572SOL    HW2 8091   1.257   4.823   4.940
 2573SOL     OW 8092   1.302   4.579   4.033
 2573SOL    HW1 8093   1.216   4.548   4.075
 2573SOL    HW2 8094   1.298   4.565   3.934
 2574SOL     OW 8095   1.726   3.859   4.247
 2574SOL    HW1 8096   1.799   3.842   4.180
 2574SOL    HW2 8097   1.695   3.772   4.285
 2575SOL     OW 8098   1.280   4.651   4.396
 2575SOL    HW1 8099   1.340   4.570   4.398
 2575SOL    HW2 8100   1.320   4.720   4.336
 2576SOL     OW 8101   1.841   3.899   4.687
 2576SOL    HW1 8102   1.880   3.814   4.651
 2576SOL    HW2 8103   1.743   3.901   4.668
 2577SOL     OW 8104   0.263   4.050   4.444
 2577SOL    HW1 8105   0.184   4.101   4.410
 2577SOL    HW2 8106   0.254   4.035   4.542
 2578SOL     OW 8107   0.916   4.634   4.015
 2578SOL    HW1 8108   0.979   4.672   3.947
 2578SOL    HW2 8109   0.956   4.551   4.054
 2579SOL     OW 8110   1.014   3.960   4.695
 2579SOL    HW1 8111   1.006   3.924   4.602
 2579SOL    HW2 8112   1.012   3.884   4.760
 2580SOL     OW 8113   1.709   4.109   5.105
 2580SOL    HW1 8114   1.782   4.178   5.109
 2580SOL    HW2 8115   1.737   4.034   5.046
 2581SOL     OW 8116   0.105   4.737   5.450
 2581SOL    HW1 8117   0.028   4.704   5.504
 2581SOL    HW2 8118   0.190   4.707   5.492
 2582SOL     OW 8119   0.672   3.927   5.213
 2582SOL    HW1 8120   0.762   3.911   5.173
 2582SOL    HW2 8121   0.680   3.932   5.312
 2583SOL     OW 8122   0.075   4.069   3.757
 2583SOL    HW1 8123  -0.017   4.041   3.728
 2583SOL    HW2 8124   0.106   4.146   3.701
 2584SOL     OW 8125   1.440   4.580   5.122
 2584SOL    HW1 8126   1.383   4.632   5.059
 2584SOL    HW2 8127   1.536   4.592   5.098
 2585SOL     OW 8128   0.072   3.890   4.042
 2585SOL    HW1 8129   0.055   3.973   3.988
 2585SOL    HW2 8130   0.162   3.853   4.020
 2586SOL     OW 8131   0.613   4.566   5.155
 2586SOL    HW1 8132   0.669   4.647   5.138
 2586SOL    HW2 8133   0.672   4.486   5.158
 2587SOL     OW 8134   0.716   4.289   5.432
 2587SOL    HW1 8135   0.735   4.354   5.506
 2587SOL    HW2 8136   0.776   4.209   5.441
 2588SOL     OW 8137   1.674   4.607   4.978
 2588SOL    HW1 8138   1.647   4.518   4.941
 2588SOL    HW2 8139   1.675   4.675   4.905
 2589SOL     OW 8140   1.225   4.049   4.173
 2589SOL    HW1 8141   1.290   3.975   4.162
 2589SOL    HW2 8142   1.245   4.099   4.257
 2590SOL     OW 8143   0.594   4.469   4.376
 2590SOL    HW1 8144   0.644   4.554   4.357
 2590SOL    HW2 8145   0.506   4.471   4.328
 2591SOL     OW 8146   1.777   4.066   5.366
 2591SOL    HW1 8147   1.760   4.097   5.272
 2591SOL    HW2 8148   1.693   4.029   5.404
 2592SOL     OW 8149   1.730   4.658   5.241
 2592SOL    HW1 8150   1.768   4.749   5.256
 2592SOL    HW2 8151   1.722   4.641   5.142
 2593SOL     OW 8152   1.824   3.916   4.951
 2593SOL    HW1 8153   1.820   3.826   4.995
 2593SOL    HW2 8154   1.827   3.905   4.852
 2594SOL     OW 8155   0.428   4.148   4.244
 2594SOL    HW1 8156   0.458   4.076   4.182
 2594SOL    HW2 8157   0.389   4.108   4.327
 2595SOL     OW 8158   0.317   4.271   5.004
 2595SOL    HW1 8159   0.355   4.212   5.076
 2595SOL    HW2 8160   0.357   4.245   4.916
 2596SOL     OW 8161   1.424   3.938   4.836
 2596SOL    HW1 8162   1.476   3.873   4.891
 2596SOL    HW2 8163   1.375   4.001   4.897
 2597SOL     OW 8164   1.001   3.758   4.878
 2597SOL    HW1 8165   0.938   3.686   4.847
 2597SOL    HW2 8166   1.094   3.722   4.878
 2598SOL     OW 8167   1.352   3.776   3.892
 2598SOL    HW1 8168   1.387   3.735   3.808
 2598SOL    HW2 8169   1.262   3.738   3.912
 2599SOL     OW 8170   1.300   4.177   4.415
 2599SOL    HW1 8171   1.241   4.257   4.419
 2599SOL    HW2 8172   1.315   4.142   4.508
 2600SOL     OW 8173   1.593   3.945   4.606
 2600SOL    HW1 8174   1.509   3.944   4.660
 2600SOL    HW2 8175   1.595   4.028   4.550
 2601SOL     OW 8176   0.230   4.352   5.699
 2601SOL    HW1 8177   0.137   4.350   5.736
 2601SOL    HW2 8178   0.231   4.313   5.607
 2602SOL     OW 8179   0.225   3.999   6.582
 2602SOL    HW1 8180   0.260   3.982   6.674
 2602SOL    HW2 8181   0.137   3.954   6.570
 2603SOL     OW 8182   0.019   4.092   6.233
 2603SOL    HW1 8183  -0.063   4.135   6.272
 2603SOL    HW2 8184  -0.009   4.019   6.170
 2604SOL     OW 8185   1.135   4.427   6.303
 2604SOL    HW1 8186   1.192   4.505   6.278
 2604SOL    HW2 8187   1.075   4.453   6.379
 2605SOL     OW 8188   1.755   4.331   5.817
 2605SOL    HW1 8189   1.743   4.318   5.718
 2605SOL    HW2 8190   1.725   4.250   5.866
 2606SOL     OW 8191   0.850   4.522   7.409
 2606SOL    HW1 8192   0.846   4.598   7.474
 2606SOL    HW2 8193   0.872   4.558   7.318
 2607SOL     OW 8194   0.685   4.736   6.251
 2607SOL    HW1 8195   0.754   4.720   6.321
 2607SOL    HW2 8196   0.612   4.793   6.289
 2608SOL     OW 8197   0.438   4.116   7.085
 2608SOL    HW1 8198   0.520   4.060   7.094
 2608SOL    HW2 8199   0.357   4.058   7.089
 2609SOL     OW 8200   1.603   4.171   6.323
 2609SOL    HW1 8201   1.529   4.217   6.273
 2609SOL    HW2 8202   1.654   4.239   6.376
 2610SOL     OW 8203   1.594   3.838   7.066
 2610SOL    HW1 8204   1.576   3.905   6.994
 2610SOL    HW2 8205   1.591   3.884   7.155
 2611SOL     OW 8206   0.122   4.367   6.149
 2611SOL    HW1 8207   0.077   4.279   6.166
 2611SOL    HW2 8208   0.121   4.421   6.233
 2612SOL     OW 8209   0.113   4.461   7.183
 2612SOL    HW1 8210   0.201   4.448   7.228
 2612SOL    HW2 8211   0.100   4.558   7.161
 2613SOL     OW 8212   0.809   3.728   6.088
 2613SOL    HW1 8213   0.849   3.819   6.079
 2613SOL    HW2 8214   0.709   3.736   6.094
 2614SOL     OW 8215   0.197   4.700   6.850
 2614SOL    HW1 8216   0.286   4.655   6.836
 2614SOL    HW2 8217   0.124   4.635   6.831
 2615SOL     OW 8218   1.525   4.723   5.776
 2615SOL    HW1 8219   1.462   4.647   5.789
 2615SOL    HW2 8220   1.573   4.741   5.862
 2616SOL     OW 8221   0.317   3.975   7.387
 2616SOL    HW1 8222   0.388   4.046   7.393
 2616SOL    HW2 8223   0.229   4.014   7.415
 2617SOL     OW 8224   0.598   4.453   5.856
 2617SOL    HW1 8225   0.622   4.522   5.788
 2617SOL    HW2 8226   0.520   4.486   5.910
 2618SOL     OW 8227   1.281   4.069   6.530
 2618SOL    HW1 8228   1.195   4.019   6.517
 2618SOL    HW2 8229   1.343   4.015   6.586
 2619SOL     OW 8230   0.807   4.329   7.051
 2619SOL    HW1 8231   0.760   4.326   7.140
 2619SOL    HW2 8232   0.756   4.274   6.985
 2620SOL     OW 8233   1.394   4.193   7.260
 2620SOL    HW1 8234   1.374   4.236   7.348
 2620SOL    HW2 8235   1.472   4.131   7.269
 2621SOL     OW 8236   0.973   4.614   7.158
 2621SOL    HW1 8237   1.019   4.530   7.129
 2621SOL    HW2 8238   0.917   4.648   7.083
 2622SOL     OW 8239   0.991   4.134   6.828
 2622SOL    HW1 8240   0.914   4.168   6.882
 2622SOL    HW2 8241   0.957   4.083   6.749
 2623SOL     OW 8242   1.041   4.425   6.015
 2623SOL    HW1 8243   1.067   4.421   6.111
 2623SOL    HW2 8244   0.956   4.374   6.001
 2624SOL     OW 8245   0.076   4.535   6.375
 2624SOL    HW1 8246   0.175   4.523   6.384
 2624SOL    HW2 8247   0.052   4.630   6.396
 2625SOL     OW 8248   0.865   4.072   5.781
 2625SOL    HW1 8249   0.924   4.135   5.732
 2625SOL    HW2 8250   0.884   3.978   5.752
 2626SOL     OW 8251   1.719   4.309   7.417
 2626SOL    HW1 8252   1.693   4.398   7.381
 2626SOL    HW2 8253   1.717   4.241   7.344
 2627SOL     OW 8254   0.550   3.920   6.471
 2627SOL    HW1 8255   0.545   3.915   6.571
 2627SOL    HW2 8256   0.552   4.016   6.442
 2628SOL     OW 8257   1.458   4.459   6.314
 2628SOL    HW1 8258   1.453   4.394   6.389
 2628SOL    HW2 8259   1.538   4.518   6.327
 2629SOL     OW 8260   0.202   4.009   7.084
 2629SOL    HW1 8261   0.122   4.069   7.071
 2629SOL    HW2 8262   0.192   3.960   7.170
 2630SOL     OW 8263   1.400   3.831   6.012
 2630SOL    HW1 8264   1.376   3.794   5.922
 2630SOL    HW2 8265   1.499   3.847   6.016
 2631SOL     OW 8266   0.382   4.424   6.066
 2631SOL    HW1 8267   0.427   4.334   6.063
 2631SOL    HW2 8268   0.288   4.413   6.099
 2632SOL     OW 8269   1.547   3.946   7.315
 2632SOL    HW1 8270   1.542   3.983   7.407
 2632SOL    HW2 8271   1.475   3.877   7.303
 2633SOL     OW 8272   0.614   3.846   5.703
 2633SOL    HW1 8273   0.712   3.824   5.710
 2633SOL    HW2 8274   0.583   3.829   5.610
 2634SOL     OW 8275   0.781   3.988   7.335
 2634SOL    HW1 8276   0.848   3.927   7.378
 2634SOL    HW2 8277   0.708   4.007   7.400
 2635SOL     OW 8278   1.351   4.314   7.019
 2635SOL    HW1 8279   1.379   4.271   7.104
 2635SOL    HW2 8280   1.376   4.410   7.020
 2636SOL     OW 8281   0.922   4.227   6.485
 2636SOL    HW1 8282   0.897   4.218   6.389
 2636SOL    HW2 8283   0.970   4.145   6.516
 2637SOL     OW 8284   0.539   3.788   6.098
 2637SOL    HW1 8285   0.458   3.789   6.156
 2637SOL    HW2 8286   0.542   3.871   6.043
 2638SOL     OW 8287   0.297   3.759   5.757
 2638SOL    HW1 8288   0.346   3.843   5.736
 2638SOL    HW2 8289   0.359   3.694   5.802
 2639SOL     OW 8290   0.935   3.960   6.066
 2639SOL    HW1 8291   0.887   4.001   5.988
 2639SOL    HW2 8292   1.034   3.958   6.047
 2640SOL     OW 8293   1.076   4.407   7.050
 2640SOL    HW1 8294   0.996   4.346   7.053
 2640SOL    HW2 8295   1.157   4.354   7.026
 2641SOL     OW 8296   1.032   4.273   5.602
 2641SOL    HW1 8297   0.991   4.355   5.563
 2641SOL    HW2 8298   1.096   4.299   5.675
 2642SOL     OW 8299   0.078   4.280   6.972
 2642SOL    HW1 8300   0.170   4.279   6.931
 2642SOL    HW2 8301   0.072   4.354   7.039
 2643SOL     OW 8302   0.561   3.946   6.733
 2643SOL    HW1 8303   0.599   3.862   6.770
 2643SOL    HW2 8304   0.473   3.965   6.777
 2644SOL     OW 8305   0.866   4.178   6.228
 2644SOL    HW1 8306   0.834   4.250   6.166
 2644SOL    HW2 8307   0.890   4.097   6.175
 2645SOL     OW 8308   1.017   3.763   6.339
 2645SOL    HW1 8309   0.945   3.768   6.270
 2645SOL    HW2 8310   0.993   3.694   6.408
 2646SOL     OW 8311   1.466   4.314   6.578
 2646SOL    HW1 8312   1.436   4.219   6.585
 2646SOL    HW2 8313   1.539   4.330   6.644
 2647SOL     OW 8314   1.857   4.557   5.963
 2647SOL    HW1 8315   1.899   4.493   6.027
 2647SOL    HW2 8316   1.819   4.506   5.885
 2648SOL     OW 8317   1.390   4.299   5.664
 2648SOL    HW1 8318   1.336   4.278   5.745
 2648SOL    HW2 8319   1.481   4.258   5.673
 2649SOL     OW 8320   0.527   3.980   5.914
 2649SOL    HW1 8321   0.554   3.921   5.839
 2649SOL    HW2 8322   0.527   4.075   5.883
 2650SOL     OW 8323   1.638   4.823   6.665
 2650SOL    HW1 8324   1.643   4.904   6.724
 2650SOL    HW2 8325   1.552   4.825   6.614
 2651SOL     OW 8326   0.915   3.813   6.988
 2651SOL    HW1 8327   0.940   3.793   6.893
 2651SOL    HW2 8328   0.987   3.869   7.030
 2652SOL     OW 8329   0.410   4.537   6.837
 2652SOL    HW1 8330   0.496   4.549   6.887
 2652SOL    HW2 8331   0.368   4.450   6.864
 2653SOL     OW 8332   1.274   4.110   6.848
 2653SOL    HW1 8333   1.295   4.184   6.912
 2653SOL    HW2 8334   1.185   4.127   6.805
 2654SOL     OW 8335   0.566   4.261   6.451
 2654SOL    HW1 8336   0.578   4.327   6.377
 2654SOL    HW2 8337   0.612   4.295   6.534
 2655SOL     OW 8338   1.582   4.363   6.058
 2655SOL    HW1 8339   1.551   4.424   6.131
 2655SOL    HW2 8340   1.632   4.415   5.989
 2656SOL     OW 8341   0.402   4.475   7.184
 2656SOL    HW1 8342   0.470   4.530   7.137
 2656SOL    HW2 8343   0.442   4.387   7.211
 2657SOL     OW 8344   1.587   4.503   7.256
 2657SOL    HW1 8345   1.495   4.541   7.251
 2657SOL    HW2 8346   1.647   4.550   7.191
 2658SOL     OW 8347   1.013   3.829   7.356
 2658SOL    HW1 8348   1.019   3.914   7.304
 2658SOL    HW2 8349   1.045   3.753   7.299
 2659SOL     OW 8350   0.504   3.774   7.326
 2659SOL    HW1 8351   0.462   3.717   7.256
 2659SOL    HW2 8352   0.438   3.843   7.358
 2660SOL     OW 8353   0.573   4.594   6.615
 2660SOL    HW1 8354   0.617   4.683   6.606
 2660SOL    HW2 8355   0.510   4.594   6.692
 2661SOL     OW 8356   1.360   4.586   6.631
 2661SOL    HW1 8357   1.285   4.586   6.565
 2661SOL    HW2 8358   1.397   4.494   6.640
 2662SOL     OW 8359   1.209   4.249   5.861
 2662SOL    HW1 8360   1.222   4.165   5.915
 2662SOL    HW2 8361   1.180   4.323   5.921
 2663SOL     OW 8362   0.307   3.937   6.817
 2663SOL    HW1 8363   0.284   3.974   6.907
 2663SOL    HW2 8364   0.277   3.842   6.811
 2664SOL     OW 8365   0.037   5.034   6.868
 2664SOL    HW1 8366   0.090   4.985   6.936
 2664SOL    HW2 8367   0.059   5.132   6.873
 2665SOL     OW 8368   0.732   4.358   6.650
 2665SOL    HW1 8369   0.791   4.332   6.574
 2665SOL    HW2 8370   0.704   4.454   6.639
 2666SOL     OW 8371   1.728   4.659   7.440
 2666SOL    HW1 8372   1.682   4.652   7.351
 2666SOL    HW2 8373   1.666   4.703   7.506
 2667SOL     OW 8374   0.307   3.787   6.204
 2667SOL    HW1 8375   0.296   3.881   6.237
 2667SOL    HW2 8376   0.302   3.724   6.281
 2668SOL     OW 8377   1.622   4.091   5.960
 2668SOL    HW1 8378   1.624   4.015   6.024
 2668SOL    HW2 8379   1.574   4.168   6.000
 2669SOL     OW 8380   1.023   4.490   6.552
 2669SOL    HW1 8381   1.038   4.511   6.648
 2669SOL    HW2 8382   0.993   4.395   6.543
 2670SOL     OW 8383   0.350   4.622   7.390
 2670SOL    HW1 8384   0.426   4.666   7.438
 2670SOL    HW2 8385   0.385   4.575   7.308
 2671SOL     OW 8386   1.540   3.998   5.711
 2671SOL    HW1 8387   1.479   3.923   5.734
 2671SOL    HW2 8388   1.562   4.050   5.794
 2672SOL     OW 8389   1.303   4.562   5.628
 2672SOL    HW1 8390   1.337   4.469   5.643
 2672SOL    HW2 8391   1.321   4.589   5.533
 2673SOL     OW 8392   0.319   4.534   6.535
 2673SOL    HW1 8393   0.412   4.570   6.540
 2673SOL    HW2 8394   0.313   4.449   6.587
 2674SOL     OW 8395   0.339   4.233   6.592
 2674SOL    HW1 8396   0.287   4.150   6.575
 2674SOL    HW2 8397   0.416   4.238   6.528
 2675SOL     OW 8398   1.138   4.104   7.264
 2675SOL    HW1 8399   1.093   4.167   7.328
 2675SOL    HW2 8400   1.231   4.135   7.247
 2676SOL     OW 8401   1.160   3.931   7.063
 2676SOL    HW1 8402   1.160   3.995   7.140
 2676SOL    HW2 8403   1.188   3.979   6.980
 2677SOL     OW 8404   1.002   4.520   6.824
 2677SOL    HW1 8405   1.043   4.488   6.910
 2677SOL    HW2 8406   0.906   4.493   6.821
 2678SOL     OW 8407   0.040   4.268   6.700
 2678SOL    HW1 8408   0.125   4.235   6.659
 2678SOL    HW2 8409   0.053   4.283   6.798
 2679SOL     OW 8410   0.189   4.244   7.308
 2679SOL    HW1 8411   0.248   4.204   7.238
 2679SOL    HW2 8412   0.131   4.315   7.267
 2680SOL     OW 8413   1.369   4.674   7.246
 2680SOL    HW1 8414   1.408   4.763   7.266
 2680SOL    HW2 8415   1.379   4.654   7.149
 2681SOL     OW 8416   0.815   4.296   5.911
 2681SOL    HW1 8417   0.822   4.207   5.865
 2681SOL    HW2 8418   0.721   4.330   5.903
 2682SOL     OW 8419   1.657   4.328   6.792
 2682SOL    HW1 8420   1.619   4.259   6.854
 2682SOL    HW2 8421   1.739   4.292   6.748
 2683SOL     OW 8422   0.671   4.188   6.855
 2683SOL    HW1 8423   0.637   4.099   6.825
 2683SOL    HW2 8424   0.697   4.242   6.775
 2684SOL     OW 8425   0.473   4.224   5.777
 2684SOL    HW1 8426   0.534   4.304   5.781
 2684SOL    HW2 8427   0.378   4.255   5.784
 2685SOL     OW 8428   1.347   4.783   6.820
 2685SOL    HW1 8429   1.371   4.720   6.746
 2685SOL    HW2 8430   1.257   4.823   6.802
 2686SOL     OW 8431   1.302   4.579   5.895
 2686SOL    HW1 8432   1.216   4.548   5.937
 2686SOL    HW2 8433   1.298   4.565   5.796
 2687SOL     OW 8434   1.726   3.859   6.109
 2687SOL    HW1 8435   1.799   3.842   6.042
 2687SOL    HW2 8436   1.695   3.772   6.147
 2688SOL     OW 8437   1.280   4.651   6.258
 2688SOL    HW1 8438   1.340   4.570   6.260
 2688SOL    HW2 8439   1.320   4.720   6.198
 2689SOL     OW 8440   1.841   3.899   6.549
 2689SOL    HW1 8441   1.880   3.814   6.513
 2689SOL    HW2 8442   1.743   3.901   6.530
 2690SOL     OW 8443   0.263   4.050   6.306
 2690SOL    HW1 8444   0.184   4.101   6.272
 2690SOL    HW2 8445   0.254   4.035   6.404
 2691SOL     OW 8446   0.916   4.634   5.877
 2691SOL    HW1 8447   0.979   4.672   5.809
 2691SOL    HW2 8448   0.956   4.551   5.916
 2692SOL     OW 8449   1.014   3.960   6.557
 2692SOL    HW1 8450   1.006   3.924   6.464
 2692SOL    HW2 8451   1.012   3.884   6.622
 2693SOL     OW 8452   1.709   4.109   6.967
 2693SOL    HW1 8453   1.782   4.178   6.971
 2693SOL    HW2 8454   1.737   4.034   6.908
 2694SOL     OW 8455   0.105   4.737   7.312
 2694SOL    HW1 8456   0.028   4.704   7.366
 2694SOL    HW2 8457   0.190   4.707   7.354
 2695SOL     OW 8458   0.672   3.927   7.075
 2695SOL    HW1 8459   0.762   3.911   7.035
 2695SOL    HW2 8460   0.680   3.932   7.174
 2696SOL     OW 8461   0.075   4.069   5.619
 2696SOL    HW1 8462  -0.017   4.041   5.590
 2696SOL    HW2 8463   0.106   4.146   5.563
 2697SOL     OW 8464   1.440   4.580   6.984
 2697SOL    HW1 8465   1.383   4.632   6.921
 2697SOL    HW2 8466   1.536   4.592   6.960
 2698SOL     OW 8467   0.072   3.890   5.904
 2698SOL    HW1 8468   0.055   3.973   5.850
 2698SOL    HW2 8469   0.162   3.853   5.882
 2699SOL     OW 8470   0.613   4.566   7.017
 2699SOL    HW1 8471   0.669   4.647   7.000
 2699SOL    HW2 8472   0.672   4.486   7.020
 2700SOL     OW 8473   0.716   4.289   7.294
 2700SOL    HW1 8474   0.735   4.354   7.368
 2700SOL    HW2 8475   0.776   4.209   7.303
 2701SOL     OW 8476   1.674   4.607   6.840
 2701SOL    HW1 8477   1.647   4.518   6.803
 2701SOL    HW2 8478   1.675   4.675   6.767
 2702SOL     OW 8479   1.225   4.049   6.035
 2702SOL    HW1 8480   1.290   3.975   6.024
 2702SOL    HW2 8481   1.245   4.099   6.119
 2703SOL     OW 8482   0.594   4.469   6.238
 2703SOL    HW1 8483   0.644   4.554   6.219
 2703SOL    HW2 8484   0.506   4.471   6.190
 2704SOL     OW 8485   1.777   4.066   7.228
 2704SOL    HW1 8486   1.760   4.097   7.134
 2704SOL    HW2 8487   1.693   4.029   7.266
 2705SOL     OW 8488   1.730   4.658   7.103
 2705SOL    HW1 8489   1.768   4.749   7.118
 2705SOL    HW2 8490   1.722   4.641   7.004
 2706SOL     OW 8491   1.824   3.916   6.813
 2706SOL    HW1 8492   1.820   3.826   6.857
 2706SOL    HW2 8493   1.827   3.905   6.714
 2707SOL     OW 8494   0.428   4.148   6.106
 2707SOL    HW1 8495   0.458   4.076   6.044
 2707SOL    HW2 8496   0.389   4.108   6.189
 2708SOL     OW 8497   0.317   4.271   6.866
 2708SOL    HW1 8498   0.355   4.212   6.938
 2708SOL    HW2 8499   0.357   4.245   6.778
 2709SOL     OW 8500   1.424   3.938   6.698
 2709SOL    HW1 8501   1.476   3.873   6.753
 2709SOL    HW2 8502   1.375   4.001   6.759
 2710SOL     OW 8503   1.001   3.758   6.740
 2710SOL    HW1 8504   0.938   3.686   6.709
 2710SOL    HW2 8505   1.094   3.722   6.740
 2711SOL     OW 8506   1.352   3.776   5.754
 2711SOL    HW1 8507   1.387   3.735   5.670
 2711SOL    HW2 8508   1.262   3.738   5.774
 2712SOL     OW 8509   1.300   4.177   6.277
 2712SOL    HW1 8510   1.241   4.257   6.281
 2712SOL    HW2 8511   1.315   4.142   6.370
 2713SOL     OW 8512   1.593   3.945   6.468
 2713SOL    HW1 8513   1.509   3.944   6.522
 2713SOL    HW2 8514   1.595   4.028   6.412
 2714SOL     OW 8515   0.230   4.352   7.561
 2714SOL    HW1 8516   0.137   4.350   7.598
 2714SOL    HW2 8517   0.231   4.313   7.469
 2715SOL     OW 8518   0.225   3.999   8.444
 2715SOL    HW1 8519   0.260   3.982   8.536
 2715SOL    HW2 8520   0.137   3.954   8.432
 2716SOL     OW 8521   0.019   4.092   8.095
 2716SOL    HW1 8522  -0.063   4.135   8.134
 2716SOL    HW2 8523  -0.009   4.019   8.032
 2717SOL     OW 8524   1.135   4.427   8.165
 2717SOL    HW1 8525   1.192   4.505   8.140
 2717SOL    HW2 8526   1.075   4.453   8.241
 2718SOL     OW 8527   1.755   4.331   7.679
 2718SOL    HW1 8528   1.743   4.318   7.580
 2718SOL    HW2 8529   1.725   4.250   7.728
 2719SOL     OW 8530   0.850   4.522   9.271
 2719SOL    HW1 8531   0.846   4.598   9.336
 2719SOL    HW2 8532   0.872   4.558   9.180
 2720SOL     OW 8533   0.685   4.736   8.113
 2720SOL    HW1 8534   0.754   4.720   8.183
 2720SOL    HW2 8535   0.612   4.793   8.151
 2721SOL     OW 8536   0.438   4.116   8.947
 2721SOL    HW1 8537   0.520   4.060   8.956
 2721SOL    HW2 8538   0.357   4.058   8.951
 2722SOL     OW 8539   1.603   4.171   8.185
 2722SOL    HW1 8540   1.529   4.217   8.135
 2722SOL    HW2 8541   1.654   4.239   8.238
 2723SOL     OW 8542   1.594   3.838   8.928
 2723SOL    HW1 8543   1.576   3.905   8.856
 2723SOL    HW2 8544   1.591   3.884   9.017
 2724SOL     OW 8545   0.122   4.367   8.011
 2724SOL    HW1 8546   0.077   4.279   8.028
 2724SOL    HW2 8547   0.121   4.421   8.095
 2725SOL     OW 8548   0.113   4.461   9.045
 2725SOL    HW1 8549   0.201   4.448   9.090
 2725SOL    HW2 8550   0.100   4.558   9.023
 2726SOL     OW 8551   0.809   3.728   7.950
 2726SOL    HW1 8552   0.849   3.819   7.941
 2726SOL    HW2 8553   0.709   3.736   7.956
 2727SOL     OW 8554   0.197   4.700   8.712
 2727SOL    HW1 8555   0.286   4.655   8.698
 2727SOL    HW2 8556   0.124   4.635   8.693
 2728SOL     OW 8557   1.525   4.723   7.638
 2728SOL    HW1 8558   1.462   4.647   7.651
 2728SOL    HW2 8559   1.573   4.741   7.724
 2729SOL     OW 8560   0.317   3.975   9.249
 2729SOL    HW1 8561   0.388   4.046   9.255
 2729SOL    HW2 8562   0.229   4.014   9.277
 2730SOL     OW 8563   0.598   4.453   7.718
 2730SOL    HW1 8564   0.622   4.522   7.650
 2730SOL    HW2 8565   0.520   4.486   7.772
 2731SOL     OW 8566   1.281   4.069   8.392
 2731SOL    HW1 8567   1.195   4.019   8.379
 2731SOL    HW2 8568   1.343   4.015   8.448
 2732SOL     OW 8569   0.807   4.329   8.913
 2732SOL    HW1 8570   0.760   4.326   9.002
 2732SOL    HW2 8571   0.756   4.274   8.847
 2733SOL     OW 8572   1.394   4.193   9.122
 2733SOL    HW1 8573   1.374   4.236   9.210
 2733SOL    HW2 8574   1.472   4.131   9.131
 2734SOL     OW 8575   0.973   4.614   9.020
 2734SOL    HW1 8576   1.019   4.530   8.991
 2734SOL    HW2 8577   0.917   4.648   8.945
 2735SOL     OW 8578   0.991   4.134   8.690
 2735SOL    HW1 8579   0.914   4.168   8.744
 2735SOL    HW2 8580   0.957   4.083   8.611
 2736SOL     OW 8581   1.041   4.425   7.877
 2736SOL    HW1 8582   1.067   4.421   7.973
 2736SOL    HW2 8583   0.956   4.374   7.863
 2737SOL     OW 8584   0.076   4.535   8.237
 2737SOL    HW1 8585   0.175   4.523   8.246
 2737SOL    HW2 8586   0.052   4.630   8.258
 2738SOL     OW 8587   0.865   4.072   7.643
 2738SOL    HW1 8588   0.924   4.135   7.594
 2738SOL    HW2 8589   0.884   3.978   7.614
 2739SOL     OW 8590   1.719   4.309   9.279
 2739SOL    HW1 8591   1.693   4.398   9.243
 2739SOL    HW2 8592   1.717   4.241   9.206
 2740SOL     OW 8593   0.550   3.920   8.333
 2740SOL    HW1 8594   0.545   3.915   8.433
 2740SOL    HW2 8595   0.552   4.016   8.304
 2741SOL     OW 8596   1.458   4.459   8.176
 2741SOL    HW1 8597   1.453   4.394   8.251
 2741SOL    HW2 8598   1.538   4.518   8.189
 2742SOL     OW 8599   0.202   4.009   8.946
 2742SOL    HW1 8600   0.122   4.069   8.933
 2742SOL    HW2 8601   0.192   3.960   9.032
 2743SOL     OW 8602   1.400   3.831   7.874
 2743SOL    HW1 8603   1.376   3.794   7.784
 2743SOL    HW2 8604   1.499   3.847   7.878
 2744SOL     OW 8605   0.382   4.424   7.928
 2744SOL    HW1 8606   0.427   4.334   7.925
 2744SOL    HW2 8607   0.288   4.413   7.961
 2745SOL     OW 8608   1.547   3.946   9.177
 2745SOL    HW1 8609   1.542   3.983   9.269
 2745SOL    HW2 8610   1.475   3.877   9.165
 2746SOL     OW 8611   0.614   3.846   7.565
 2746SOL    HW1 8612   0.712   3.824   7.572
 2746SOL    HW2 8613   0.583   3.829   7.472
 2747SOL     OW 8614   0.781   3.988   9.197
 2747SOL    HW1 8615   0.848   3.927   9.240
 2747SOL    HW2 8616   0.708   4.007   9.262
 2748SOL     OW 8617   1.351   4.314   8.881
 2748SOL    HW1 8618   1.379   4.271   8.966
 2748SOL    HW2 8619   1.376   4.410   8.882
 2749SOL     OW 8620   0.922   4.227   8.347
 2749SOL    HW1 8621   0.897   4.218   8.251
 2749SOL    HW2 8622   0.970   4.145   8.378
 2750SOL     OW 8623   0.539   3.788   7.960
 2750SOL    HW1 8624   0.458   3.789   8.018
 2750SOL    HW2 8625   0.542   3.871   7.905
 2751SOL     OW 8626   0.297   3.759   7.619
 2751SOL    HW1 8627   0.346   3.843   7.598
 2751SOL    HW2 8628   0.359   3.694   7.664
 2752SOL     OW 8629   0.935   3.960   7.928
 2752SOL    HW1 8630   0.887   4.001   7.850
 2752SOL    HW2 8631   1.034   3.958   7.909
 2753SOL     OW 8632   1.076   4.407   8.912
 2753SOL    HW1 8633   0.996   4.346   8.915
 2753SOL    HW2 8634   1.157   4.354   8.888
 2754SOL     OW 8635   1.032   4.273   7.464
 2754SOL    HW1 8636   0.991   4.355   7.425
 2754SOL    HW2 8637   1.096   4.299   7.537
 2755SOL     OW 8638   0.078   4.280   8.834
 2755SOL    HW1 8639   0.170   4.279   8.793
 2755SOL    HW2 8640   0.072   4.354   8.901
 2756SOL     OW 8641   0.561   3.946   8.595
 2756SOL    HW1 8642   0.599   3.862   8.632
 2756SOL    HW2 8643   0.473   3.965   8.639
 2757SOL     OW 8644   0.866   4.178   8.090
 2757SOL    HW1 8645   0.834   4.250   8.028
 2757SOL    HW2 8646   0.890   4.097   8.037
 2758SOL     OW 8647   1.017   3.763   8.201
 2758SOL    HW1 8648   0.945   3.768   8.132
 2758SOL    HW2 8649   0.993   3.694   8.270
 2759SOL     OW 8650   1.466   4.314   8.440
 2759SOL    HW1 8651   1.436   4.219   8.447
 2759SOL    HW2 8652   1.539   4.330   8.506
 2760SOL     OW 8653   1.857   4.557   7.825
 2760SOL    HW1 8654   1.899   4.493   7.889
 2760SOL    HW2 8655   1.819   4.506   7.747
 2761SOL     OW 8656   1.390   4.299   7.526
 2761SOL    HW1 8657   1.336   4.278   7.607
 2761SOL    HW2 8658   1.481   4.258   7.535
 2762SOL     OW 8659   0.527   3.980   7.776
 2762SOL    HW1 8660   0.554   3.921   7.701
 2762SOL    HW2 8661   0.527   4.075   7.745
 2763SOL     OW 8662   1.638   4.823   8.527
 2763SOL    HW1 8663   1.643   4.904   8.586
 2763SOL    HW2 8664   1.552   4.825   8.476
 2764SOL     OW 8665   0.915   3.813   8.850
 2764SOL    HW1 8666   0.940   3.793   8.755
 2764SOL    HW2 8667   0.987   3.869   8.892
 2765SOL     OW 8668   0.410   4.537   8.699
 2765SOL    HW1 8669   0.496   4.549   8.749
 2765SOL    HW2 8670   0.368   4.450   8.726
 2766SOL     OW 8671   1.274   4.110   8.710
 2766SOL    HW1 8672   1.295   4.184   8.774
 2766SOL    HW2 8673   1.185   4.127   8.667
 2767SOL     OW 8674   0.566   4.261   8.313
 2767SOL    HW1 8675   0.578   4.327   8.239
 2767SOL    HW2 8676   0.612   4.295   8.396
 2768SOL     OW 8677   1.582   4.363   7.920
 2768SOL    HW1 8678   1.551   4.424   7.993
 2768SOL    HW2 8679   1.632   4.415   7.851
 2769SOL     OW 8680   0.402   4.475   9.046
 2769SOL    HW1 8681   0.470   4.530   8.999
 2769SOL    HW2 8682   0.442   4.387   9.073
 2770SOL     OW 8683   1.587   4.503   9.118
 2770SOL    HW1 8684   1.495   4.541   9.113
 2770SOL    HW2 8685   1.647   4.550   9.053
 2771SOL     OW 8686   1.013   3.829   9.218
 2771SOL    HW1 8687   1.019   3.914   9.166
 2771SOL    HW2 8688   1.045   3.753   9.161
 2772SOL     OW 8689   0.504   3.774   9.188
 2772SOL    HW1 8690   0.462   3.717   9.118
 2772SOL    HW2 8691   0.438   3.843   9.220
 2773SOL     OW 8692   0.573   4.594   8.477
 2773SOL    HW1 8693   0.617   4.683   8.468
 2773SOL    HW2 8694   0.510   4.594   8.554
 2774SOL     OW 8695   1.360   4.586   8.493
 2774SOL    HW1 8696   1.285   4.586   8.427
 2774SOL    HW2 8697   1.397   4.494   8.502
 2775SOL     OW 8698   1.209   4.249   7.723
 2775SOL    HW1 8699   1.222   4.165   7.777
 2775SOL    HW2 8700   1.180   4.323   7.783
 2776SOL     OW 8701   0.307   3.937   8.679
 2776SOL    HW1 8702   0.284   3.974   8.769
 2776SOL    HW2 8703   0.277   3.842   8.673
 2777SOL     OW 8704   0.037   5.034   8.730
 2777SOL    HW1 8705   0.090   4.985   8.798
 2777SOL    HW2 8706   0.059   5.132   8.735
 2778SOL     OW 8707   0.732   4.358   8.512
 2778SOL    HW1 8708   0.791   4.332   8.436
 2778SOL    HW2 8709   0.704   4.454   8.501
 2779SOL     OW 8710   1.728   4.659   9.302
 2779SOL    HW1 8711   1.682   4.652   9.213
 2779SOL    HW2 8712   1.666   4.703   9.368
 2780SOL     OW 8713   0.307   3.787   8.066
 2780SOL    HW1 8714   0.296   3.881   8.099
 2780SOL    HW2 8715   0.302   3.724   8.143
 2781SOL     OW 8716   1.622   4.091   7.822
 2781SOL    HW1 8717   1.624   4.015   7.886
 2781SOL    HW2 8718   1.574   4.168   7.862
 2782SOL     OW 8719   1.023   4.490   8.414
 2782SOL    HW1 8720   1.038   4.511   8.510
 2782SOL    HW2 8721   0.993   4.395   8.405
 2783SOL     OW 8722   0.350   4.622   9.252
 2783SOL    HW1 8723   0.426   4.666   9.300
 2783SOL    HW2 8724   0.385   4.575   9.170
 2784SOL     OW 8725   1.540   3.998   7.573
 2784SOL    HW1 8726   1.479   3.923   7.596
 2784SOL    HW2 8727   1.562   4.050   7.656
 2785SOL     OW 8728   1.303   4.562   7.490
 2785SOL    HW1 8729   1.337   4.469   7.505
 2785SOL    HW2 8730   1.321   4.589   7.395
 2786SOL     OW 8731   0.319   4.534   8.397
 2786SOL    HW1 8732   0.412   4.570   8.402
 2786SOL    HW2 8733   0.313   4.449   8.449
 2787SOL     OW 8734   0.339   4.233   8.454
 2787SOL    HW1 8735   0.287   4.150   8.437
 2787SOL    HW2 8736   0.416   4.238   8.390
 2788SOL     OW 8737   1.138   4.104   9.126
 2788SOL    HW1 8738   1.093   4.167   9.190
 2788SOL    HW2 8739   1.231   4.135   9.109
 2789SOL     OW 8740   1.160   3.931   8.925
 2789SOL    HW1 8741   1.160   3.995   9.002
 2789SOL    HW2 8742   1.188   3.979   8.842
 2790SOL     OW 8743   1.002   4.520   8.686
 2790SOL    HW1 8744   1.043   4.488   8.772
 2790SOL    HW2 8745   0.906   4.493   8.683
 2791SOL     OW 8746   0.040   4.268   8.562
 2791SOL    HW1 8747   0.125   4.235   8.521
 2791SOL    HW2 8748   0.053   4.283   8.660
 2792SOL     OW 8749   0.189   4.244   9.170
 2792SOL    HW1 8750   0.248   4.204   9.100
 2792SOL    HW2 8751   0.131   4.315   9.129
 2793SOL     OW 8752   1.369   4.674   9.108
 2793SOL    HW1 8753   1.408   4.763   9.128
 2793SOL    HW2 8754   1.379   4.654   9.011
 2794SOL     OW 8755   0.815   4.296   7.773
 2794SOL    HW1 8756   0.822   4.207   7.727
 2794SOL    HW2 8757   0.721   4.330   7.765
 2795SOL     OW 8758   1.657   4.328   8.654
 2795SOL    HW1 8759   1.619   4.259   8.716
 2795SOL    HW2 8760   1.739   4.292   8.610
 2796SOL     OW 8761   0.671   4.188   8.717
 2796SOL    HW1 8762   0.637   4.099   8.687
 2796SOL    HW2 8763   0.697   4.242   8.637
 2797SOL     OW 8764   0.473   4.224   7.639
 2797SOL    HW1 8765   0.534   4.304   7.643
 2797SOL    HW2 8766   0.378   4.255   7.646
 2798SOL     OW 8767   1.347   4.783   8.682
 2798SOL    HW1 8768   1.371   4.720   8.608
 2798SOL    HW2 8769   1.257   4.823   8.664
 2799SOL     OW 8770   1.302   4.579   7.757
 2799SOL    HW1 8771   1.216   4.548   7.799
 2799SOL    HW2 8772   1.298   4.565   7.658
 2800SOL     OW 8773   1.726   3.859   7.971
 2800SOL    HW1 8774   1.799   3.842   7.904
 2800SOL    HW2 8775   1.695   3.772   8.009
 2801SOL     OW 8776   1.280   4.651   8.120
 2801SOL    HW1 8777   1.340   4.570   8.122
 2801SOL    HW2 8778   1.320   4.720   8.060
 2802SOL     OW 8779   1.841   3.899   8.411
 2802SOL    HW1 8780   1.880   3.814   8.375
 2802SOL    HW2 8781   1.743   3.901   8.392
 2803SOL     OW 8782   0.263   4.050   8.168
 2803SOL    HW1 8783   0.184   4.101   8.134
 2803SOL    HW2 8784   0.254   4.035   8.266
 2804SOL     OW 8785   0.916   4.634   7.739
 2804SOL    HW1 8786   0.979   4.672   7.671
 2804SOL    HW2 8787   0.956   4.551   7.778
 2805SOL     OW 8788   1.014   3.960   8.419
 2805SOL    HW1 8789   1.006   3.924   8.326
 2805SOL    HW2 8790   1.012   3.884   8.484
 2806SOL     OW 8791   1.709   4.109   8.829
 2806SOL    HW1 8792   1.782   4.178   8.833
 2806SOL    HW2 8793   1.737   4.034   8.770
 2807SOL     OW 8794   0.105   4.737   9.174
 2807SOL    HW1 8795   0.028   4.704   9.228
 2807SOL    HW2 8796   0.190   4.707   9.216
 2808SOL     OW 8797   0.672   3.927   8.937
 2808SOL    HW1 8798   0.762   3.911   8.897
 2808SOL    HW2 8799   0.680   3.932   9.036
 2809SOL     OW 8800   0.075   4.069   7.481
 2809SOL    HW1 8801  -0.017   4.041   7.452
 2809SOL    HW2 8802   0.106   4.146   7.425
 2810SOL     OW 8803   1.440   4.580   8.846
 2810SOL    HW1 8804   1.383   4.632   8.783
 2810SOL    HW2 8805   1.536   4.592   8.822
 2811SOL     OW 8806   0.072   3.890   7.766
 2811SOL    HW1 8807   0.055   3.973   7.712
 2811SOL    HW2 8808   0.162   3.853   7.744
 2812SOL     OW 8809   0.613   4.566   8.879
 2812SOL    HW1 8810   0.669   4.647   8.862
 2812SOL    HW2 8811   0.672   4.486   8.882
 2813SOL     OW 8812   0.716   4.289   9.156
 2813SOL    HW1 8813   0.735   4.354   9.230
 2813SOL    HW2 8814   0.776   4.209   9.165
 2814SOL     OW 8815   1.674   4.607   8.702
 2814SOL    HW1 8816   1.647   4.518   8.665
 2814SOL    HW2 8817   1.675   4.675   8.629
 2815SOL     OW 8818   1.225   4.049   7.897
 2815SOL    HW1 8819   1.290   3.975   7.886
 2815SOL    HW2 8820   1.245   4.099   7.981
 2816SOL     OW 8821   0.594   4.469   8.100
 2816SOL    HW1 8822   0.644   4.554   8.081
 2816SOL    HW2 8823   0.506   4.471   8.052
 2817SOL     OW 8824   1.777   4.066   9.090
 2817SOL    HW1 8825   1.760   4.097   8.996
 2817SOL    HW2 8826   1.693   4.029   9.128
 2818SOL     OW 8827   1.730   4.658   8.965
 2818SOL    HW1 8828   1.768   4.749   8.980
 2818SOL    HW2 8829   1.722   4.641   8.866
 2819SOL     OW 8830   1.824   3.916   8.675
 2819SOL    HW1 8831   1.820   3.826   8.719
 2819SOL    HW2 8832   1.827   3.905   8.576
 2820SOL     OW 8833   0.428   4.148   7.968
 2820SOL    HW1 8834   0.458   4.076   7.906
 2820SOL    HW2 8835   0.389   4.108   8.051
 2821SOL     OW 8836   0.317   4.271   8.728
 2821SOL    HW1 8837   0.355   4.212   8.800
 2821SOL    HW2 8838   0.357   4.245   8.640
 2822SOL     OW 8839   1.424   3.938   8.560
 2822SOL    HW1 8840   1.476   3.873   8.615
 2822SOL    HW2 8841   1.375   4.001   8.621
 2823SOL     OW 8842   1.001   3.758   8.602
 2823SOL    HW1 8843   0.938   3.686   8.571
 2823SOL    HW2 8844   1.094   3.722   8.602
 2824SOL     OW 8845   1.352   3.776   7.616
 2824SOL    HW1 8846   1.387   3.735   7.532
 2824SOL    HW2 8847   1.262   3.738   7.636
 2825SOL     OW 8848   1.300   4.177   8.139
 2825SOL    HW1 8849   1.241   4.257   8.143
 2825SOL    HW2 8850   1.315   4.142   8.232
 2826SOL     OW 8851   1.593   3.945   8.330
 2826SOL    HW1 8852   1.509   3.944   8.384
 2826SOL    HW2 8853   1.595   4.028   8.274
 2827SOL     OW 8854   0.230   4.352   9.423
 2827SOL    HW1 8855   0.137   4.350   9.460
 2827SOL    HW2 8856   0.231   4.313   9.331
 2828SOL     OW 8857   1.755   4.331   9.541
 2828SOL    HW1 8858   1.743   4.318   9.442
 2828SOL    HW2 8859   1.725   4.250   9.590
 2829SOL     OW 8860   0.122   4.367   9.873
 2829SOL    HW1 8861   0.077   4.279   9.890
 2829SOL    HW2 8862   0.121   4.421   9.957
 2830SOL     OW 8863   0.809   3.728   9.812
 2830SOL    HW1 8864   0.849   3.819   9.803
 2830SOL    HW2 8865   0.709   3.736   9.818
 2831SOL     OW 8866   1.525   4.723   9.500
 2831SOL    HW1 8867   1.462   4.647   9.513
 2831SOL    HW2 8868   1.573   4.741   9.586
 2832SOL     OW 8869   0.598   4.453   9.580
 2832SOL    HW1 8870   0.622   4.522   9.512
 2832SOL    HW2 8871   0.520   4.486   9.634
 2833SOL     OW 8872   1.041   4.425   9.739
 2833SOL    HW1 8873   1.067   4.421   9.835
 2833SOL    HW2 8874   0.956   4.374   9.725
 2834SOL     OW 8875   0.076   4.535  10.099
 2834SOL    HW1 8876   0.175   4.523  10.108
 2834SOL    HW2 8877   0.052   4.630  10.120
 2835SOL     OW 8878   0.865   4.072   9.505
 2835SOL    HW1 8879   0.924   4.135   9.456
 2835SOL    HW2 8880   0.884   3.978   9.476
 2836SOL     OW 8881   1.400   3.831   9.736
 2836SOL    HW1 8882   1.376   3.794   9.646
 2836SOL    HW2 8883   1.499   3.847   9.740
 2837SOL     OW 8884   0.382   4.424   9.790
 2837SOL    HW1 8885   0.427   4.334   9.787
 2837SOL    HW2 8886   0.288   4.413   9.823
 2838SOL     OW 8887   0.614   3.846   9.427
 2838SOL    HW1 8888   0.712   3.824   9.434
 2838SOL    HW2 8889   0.583   3.829   9.334
 2839SOL     OW 8890   0.539   3.788   9.822
 2839SOL    HW1 8891   0.458   3.789   9.880
 2839SOL    HW2 8892   0.542   3.871   9.767
 2840SOL     OW 8893   0.297   3.759   9.481
 2840SOL    HW1 8894   0.346   3.843   9.460
 2840SOL    HW2 8895   0.359   3.694   9.526
 2841SOL     OW 8896   0.935   3.960   9.790
 2841SOL    HW1 8897   0.887   4.001   9.712
 2841SOL    HW2 8898   1.034   3.958   9.771
 2842SOL     OW 8899   1.032   4.273   9.326
 2842SOL    HW1 8900   0.991   4.355   9.287
 2842SOL    HW2 8901   1.096   4.299   9.399
 2843SOL     OW 8902   0.866   4.178   9.952
 2843SOL    HW1 8903   0.834   4.250   9.890
 2843SOL    HW2 8904   0.890   4.097   9.899
 2844SOL     OW 8905   1.857   4.557   9.687
 2844SOL    HW1 8906   1.899   4.493   9.751
 2844SOL    HW2 8907   1.819   4.506   9.609
 2845SOL     OW 8908   1.390   4.299   9.388
 2845SOL    HW1 8909   1.336   4.278   9.469
 2845SOL    HW2 8910   1.481   4.258   9.397
 2846SOL     OW 8911   0.527   3.980   9.638
 2846SOL    HW1 8912   0.554   3.921   9.563
 2846SOL    HW2 8913   0.527   4.075   9.607
 2847SOL     OW 8914   1.582   4.363   9.782
 2847SOL    HW1 8915   1.551   4.424   9.855
 2847SOL    HW2 8916   1.632   4.415   9.713
 2848SOL     OW 8917   1.209   4.249   9.585
 2848SOL    HW1 8918   1.222   4.165   9.639
 2848SOL    HW2 8919   1.180   4.323   9.645
 2849SOL     OW 8920   0.307   3.787   9.928
 2849SOL    HW1 8921   0.296   3.881   9.961
 2849SOL    HW2 8922   0.302   3.724  10.005
 2850SOL     OW 8923   1.622   4.091   9.684
 2850SOL    HW1 8924   1.624   4.015   9.748
 2850SOL    HW2 8925   1.574   4.168   9.724
 2851SOL     OW 8926   1.540   3.998   9.435
 2851SOL    HW1 8927   1.479   3.923   9.458
 2851SOL    HW2 8928   1.562   4.050   9.518
 2852SOL     OW 8929   1.303   4.562   9.352
 2852SOL    HW1 8930   1.337   4.469   9.367
 2852SOL    HW2 8931   1.321   4.589   9.257
 2853SOL     OW 8932   1.068   5.057  10.159
 2853SOL    HW1 8933   1.075   4.973  10.104
 2853SOL    HW2 8934   1.130   5.126  10.123
 2854SOL     OW 8935   0.319   4.534  10.259
 2854SOL    HW1 8936   0.412   4.570  10.264
 2854SOL    HW2 8937   0.313   4.449  10.311
 2855SOL     OW 8938   0.815   4.296   9.635
 2855SOL    HW1 8939   0.822   4.207   9.589
 2855SOL    HW2 8940   0.721   4.330   9.627
 2856SOL     OW 8941   0.473   4.224   9.501
 2856SOL    HW1 8942   0.534   4.304   9.505
 2856SOL    HW2 8943   0.378   4.255   9.508
 2857SOL     OW 8944   1.302   4.579   9.619
 2857SOL    HW1 8945   1.216   4.548   9.661
 2857SOL    HW2 8946   1.298   4.565   9.520
 2858SOL     OW 8947   1.726   3.859   9.833
 2858SOL    HW1 8948   1.799   3.842   9.766
 2858SOL    HW2 8949   1.695   3.772   9.871
 2859SOL     OW 8950   0.916   4.634   9.601
 2859SOL    HW1 8951   0.979   4.672   9.533
 2859SOL    HW2 8952   0.956   4.551   9.640
 2860SOL     OW 8953   0.075   4.069   9.343
 2860SOL    HW1 8954  -0.017   4.041   9.314
 2860SOL    HW2 8955   0.106   4.146   9.287
 2861SOL     OW 8956   0.072   3.890   9.628
 2861SOL    HW1 8957   0.055   3.973   9.574
 2861SOL    HW2 8958   0.162   3.853   9.606
 2862SOL     OW 8959   1.225   4.049   9.759
 2862SOL    HW1 8960   1.290   3.975   9.748
 2862SOL    HW2 8961   1.245   4.099   9.843
 2863SOL     OW 8962   0.594   4.469   9.962
 2863SOL    HW1 8963   0.644   4.554   9.943
 2863SOL    HW2 8964   0.506   4.471   9.914
 2864SOL     OW 8965   0.428   4.148   9.830
 2864SOL    HW1 8966   0.458   4.076   9.768
 2864SOL    HW2 8967   0.389   4.108   9.913
 2865SOL     OW 8968   1.352   3.776   9.478
 2865SOL    HW1 8969   1.387   3.735   9.394
 2865SOL    HW2 8970   1.262   3.738   9.498
 2866SOL     OW 8971   2.092   0.628   0.113
 2866SOL    HW1 8972   1.999   0.626   0.150
 2866SOL    HW2 8973   2.093   0.589   0.021
 2867SOL     OW 8974   2.087   0.275   0.996
 2867SOL    HW1 8975   2.122   0.258   1.088
 2867SOL    HW2 8976   1.999   0.230   0.984
 2868SOL     OW 8977   1.881   0.368   0.647
 2868SOL    HW1 8978   1.799   0.411   0.686
 2868SOL    HW2 8979   1.853   0.295   0.584
 2869SOL     OW 8980   2.431   1.275   1.165
 2869SOL    HW1 8981   2.338   1.268   1.128
 2869SOL    HW2 8982   2.442   1.364   1.209
 2870SOL     OW 8983   3.417   1.511   0.703
 2870SOL    HW1 8984   3.360   1.495   0.784
 2870SOL    HW2 8985   3.358   1.521   0.623
 2871SOL     OW 8986   2.997   0.703   0.717
 2871SOL    HW1 8987   3.054   0.781   0.692
 2871SOL    HW2 8988   2.937   0.729   0.793
 2872SOL     OW 8989   3.617   0.607   0.231
 2872SOL    HW1 8990   3.605   0.594   0.132
 2872SOL    HW2 8991   3.587   0.526   0.280
 2873SOL     OW 8992   2.630   1.144   1.023
 2873SOL    HW1 8993   2.552   1.161   1.083
 2873SOL    HW2 8994   2.664   1.231   0.987
 2874SOL     OW 8995   2.712   0.798   1.823
 2874SOL    HW1 8996   2.708   0.874   1.888
 2874SOL    HW2 8997   2.734   0.834   1.732
 2875SOL     OW 8998   2.547   1.012   0.665
 2875SOL    HW1 8999   2.616   0.996   0.735
 2875SOL    HW2 9000   2.474   1.069   0.703
 2876SOL     OW 9001   2.548   1.161   1.803
 2876SOL    HW1 9002   2.608   1.240   1.817
 2876SOL    HW2 9003   2.462   1.192   1.762
 2877SOL     OW 9004   2.197   1.435   1.061
 2877SOL    HW1 9005   2.119   1.404   1.008
 2877SOL    HW2 9006   2.255   1.493   1.004
 2878SOL     OW 9007   3.322   1.505   1.339
 2878SOL    HW1 9008   3.346   1.599   1.365
 2878SOL    HW2 9009   3.306   1.451   1.421
 2879SOL     OW 9010   2.300   0.392   1.499
 2879SOL    HW1 9011   2.382   0.336   1.508
 2879SOL    HW2 9012   2.219   0.334   1.503
 2880SOL     OW 9013   3.465   0.447   0.737
 2880SOL    HW1 9014   3.391   0.493   0.687
 2880SOL    HW2 9015   3.516   0.515   0.790
 2881SOL     OW 9016   2.093   1.713   0.483
 2881SOL    HW1 9017   2.127   1.790   0.537
 2881SOL    HW2 9018   2.137   1.713   0.393
 2882SOL     OW 9019   2.989   1.341   1.690
 2882SOL    HW1 9020   3.036   1.341   1.778
 2882SOL    HW2 9021   2.941   1.254   1.679
 2883SOL     OW 9022   2.092   1.434   0.538
 2883SOL    HW1 9023   2.066   1.530   0.538
 2883SOL    HW2 9024   2.021   1.380   0.583
 2884SOL     OW 9025   2.102   1.091   0.886
 2884SOL    HW1 9026   2.116   1.007   0.938
 2884SOL    HW2 9027   2.047   1.155   0.941
 2885SOL     OW 9028   2.482   1.786   1.439
 2885SOL    HW1 9029   2.390   1.769   1.474
 2885SOL    HW2 9030   2.510   1.878   1.465
 2886SOL     OW 9031   2.468   0.964   0.123
 2886SOL    HW1 9032   2.475   1.048   0.069
 2886SOL    HW2 9033   2.514   0.977   0.211
 2887SOL     OW 9034   3.456   0.114   1.480
 2887SOL    HW1 9035   3.438   0.181   1.408
 2887SOL    HW2 9036   3.453   0.160   1.569
 2888SOL     OW 9037   1.984   0.643   0.563
 2888SOL    HW1 9038   1.939   0.555   0.580
 2888SOL    HW2 9039   1.983   0.697   0.647
 2889SOL     OW 9040   3.704   1.767   0.359
 2889SOL    HW1 9041   3.758   1.738   0.439
 2889SOL    HW2 9042   3.734   1.857   0.330
 2890SOL     OW 9043   1.889   1.596   0.117
 2890SOL    HW1 9044   1.870   1.500   0.138
 2890SOL    HW2 9045   1.856   1.654   0.192
 2891SOL     OW 9046   3.551   0.922   0.612
 2891SOL    HW1 9047   3.646   0.893   0.620
 2891SOL    HW2 9048   3.543   0.987   0.537
 2892SOL     OW 9049   3.503   1.108   0.432
 2892SOL    HW1 9050   3.589   1.110   0.380
 2892SOL    HW2 9051   3.517   1.155   0.520
 2893SOL     OW 9052   1.975   0.737   1.597
 2893SOL    HW1 9053   2.063   0.724   1.642
 2893SOL    HW2 9054   1.962   0.834   1.575
 2894SOL     OW 9055   2.475   1.365   0.726
 2894SOL    HW1 9056   2.426   1.278   0.735
 2894SOL    HW2 9057   2.452   1.408   0.639
 2895SOL     OW 9058   3.155   1.228   1.423
 2895SOL    HW1 9059   3.192   1.155   1.365
 2895SOL    HW2 9060   3.207   1.233   1.508
 2896SOL     OW 9061   2.671   0.004   0.502
 2896SOL    HW1 9062   2.711   0.095   0.493
 2896SOL    HW2 9063   2.571   0.012   0.508
 2897SOL     OW 9064   2.059   0.976   1.264
 2897SOL    HW1 9065   2.148   0.931   1.250
 2897SOL    HW2 9066   1.986   0.911   1.245
 2898SOL     OW 9067   3.387   0.999   0.190
 2898SOL    HW1 9068   3.324   0.923   0.203
 2898SOL    HW2 9069   3.435   1.017   0.276
 2899SOL     OW 9070   3.049   1.792   1.616
 2899SOL    HW1 9071   3.073   1.852   1.540
 2899SOL    HW2 9072   3.056   1.697   1.586
 2900SOL     OW 9073   2.179   0.251   1.801
 2900SOL    HW1 9074   2.250   0.322   1.807
 2900SOL    HW2 9075   2.091   0.290   1.829
 2901SOL     OW 9076   3.328   1.417   0.953
 2901SOL    HW1 9077   3.269   1.423   1.033
 2901SOL    HW2 9078   3.313   1.329   0.907
 2902SOL     OW 9079   3.529   1.714   0.572
 2902SOL    HW1 9080   3.488   1.691   0.484
 2902SOL    HW2 9081   3.511   1.640   0.637
 2903SOL     OW 9082   2.460   0.729   0.270
 2903SOL    HW1 9083   2.484   0.798   0.202
 2903SOL    HW2 9084   2.382   0.762   0.324
 2904SOL     OW 9085   3.143   0.345   0.944
 2904SOL    HW1 9086   3.057   0.295   0.931
 2904SOL    HW2 9087   3.205   0.291   1.000
 2905SOL     OW 9088   3.438   1.662   0.307
 2905SOL    HW1 9089   3.527   1.708   0.310
 2905SOL    HW2 9090   3.417   1.638   0.212
 2906SOL     OW 9091   2.669   0.605   1.465
 2906SOL    HW1 9092   2.622   0.602   1.554
 2906SOL    HW2 9093   2.618   0.550   1.399
 2907SOL     OW 9094   3.256   0.469   1.674
 2907SOL    HW1 9095   3.236   0.512   1.762
 2907SOL    HW2 9096   3.334   0.407   1.683
 2908SOL     OW 9097   2.835   0.890   1.572
 2908SOL    HW1 9098   2.881   0.806   1.543
 2908SOL    HW2 9099   2.779   0.924   1.497
 2909SOL     OW 9100   2.853   0.410   1.242
 2909SOL    HW1 9101   2.776   0.444   1.296
 2909SOL    HW2 9102   2.819   0.359   1.163
 2910SOL     OW 9103   2.903   0.701   0.429
 2910SOL    HW1 9104   2.929   0.697   0.525
 2910SOL    HW2 9105   2.818   0.650   0.415
 2911SOL     OW 9106   1.938   0.811   0.789
 2911SOL    HW1 9107   2.037   0.799   0.798
 2911SOL    HW2 9108   1.914   0.906   0.810
 2912SOL     OW 9109   1.992   1.821   1.571
 2912SOL    HW1 9110   1.982   1.806   1.670
 2912SOL    HW2 9111   1.906   1.857   1.535
 2913SOL     OW 9112   2.727   0.348   0.195
 2913SOL    HW1 9113   2.786   0.411   0.146
 2913SOL    HW2 9114   2.746   0.254   0.166
 2914SOL     OW 9115   3.581   0.585   1.831
 2914SOL    HW1 9116   3.555   0.674   1.795
 2914SOL    HW2 9117   3.579   0.517   1.758
 2915SOL     OW 9118   3.224   1.144   0.545
 2915SOL    HW1 9119   3.307   1.115   0.497
 2915SOL    HW2 9120   3.175   1.211   0.489
 2916SOL     OW 9121   2.412   0.196   0.885
 2916SOL    HW1 9122   2.407   0.191   0.985
 2916SOL    HW2 9123   2.414   0.292   0.856
 2917SOL     OW 9124   2.870   1.456   0.477
 2917SOL    HW1 9125   2.824   1.528   0.425
 2917SOL    HW2 9126   2.866   1.476   0.575
 2918SOL     OW 9127   2.213   1.801   0.853
 2918SOL    HW1 9128   2.263   1.715   0.859
 2918SOL    HW2 9129   2.278   1.878   0.850
 2919SOL     OW 9130   3.657   1.066   0.873
 2919SOL    HW1 9131   3.595   1.051   0.797
 2919SOL    HW2 9132   3.605   1.077   0.958
 2920SOL     OW 9133   3.089   1.550   1.506
 2920SOL    HW1 9134   3.095   1.473   1.570
 2920SOL    HW2 9135   3.037   1.524   1.426
 2921SOL     OW 9136   2.183   0.943   0.242
 2921SOL    HW1 9137   2.265   0.982   0.200
 2921SOL    HW2 9138   2.156   0.861   0.193
 2922SOL     OW 9139   3.320   0.735   0.728
 2922SOL    HW1 9140   3.315   0.670   0.803
 2922SOL    HW2 9141   3.400   0.794   0.741
 2923SOL     OW 9142   2.323   1.266   1.727
 2923SOL    HW1 9143   2.273   1.267   1.641
 2923SOL    HW2 9144   2.260   1.248   1.803
 2924SOL     OW 9145   2.973   1.776   0.237
 2924SOL    HW1 9146   2.913   1.714   0.287
 2924SOL    HW2 9147   3.004   1.732   0.152
 2925SOL     OW 9148   2.064   0.285   1.498
 2925SOL    HW1 9149   1.984   0.345   1.485
 2925SOL    HW2 9150   2.054   0.236   1.584
 2926SOL     OW 9151   3.494   1.377   0.081
 2926SOL    HW1 9152   3.462   1.471   0.071
 2926SOL    HW2 9153   3.418   1.314   0.069
 2927SOL     OW 9154   2.326   1.743   0.323
 2927SOL    HW1 9155   2.359   1.782   0.409
 2927SOL    HW2 9156   2.402   1.736   0.258
 2928SOL     OW 9157   3.262   0.107   0.426
 2928SOL    HW1 9158   3.238   0.070   0.336
 2928SOL    HW2 9159   3.361   0.123   0.430
 2929SOL     OW 9160   2.111   1.785   1.241
 2929SOL    HW1 9161   2.168   1.720   1.291
 2929SOL    HW2 9162   2.095   1.752   1.148
 2930SOL     OW 9163   2.802   1.698   0.904
 2930SOL    HW1 9164   2.882   1.641   0.925
 2930SOL    HW2 9165   2.753   1.658   0.827
 2931SOL     OW 9166   2.244   0.700   0.480
 2931SOL    HW1 9167   2.289   0.610   0.477
 2931SOL    HW2 9168   2.150   0.689   0.513
 2932SOL     OW 9169   3.409   0.222   1.729
 2932SOL    HW1 9170   3.404   0.259   1.821
 2932SOL    HW2 9171   3.337   0.153   1.717
 2933SOL     OW 9172   2.476   0.122   0.117
 2933SOL    HW1 9173   2.574   0.100   0.124
 2933SOL    HW2 9174   2.445   0.105   0.024
 2934SOL     OW 9175   2.643   0.264   1.749
 2934SOL    HW1 9176   2.710   0.203   1.792
 2934SOL    HW2 9177   2.570   0.283   1.814
 2935SOL     OW 9178   2.750   1.514   1.195
 2935SOL    HW1 9179   2.727   1.489   1.101
 2935SOL    HW2 9180   2.811   1.445   1.234
 2936SOL     OW 9181   3.213   0.590   1.433
 2936SOL    HW1 9182   3.241   0.547   1.518
 2936SOL    HW2 9183   3.238   0.686   1.434
 2937SOL     OW 9184   2.665   1.402   0.924
 2937SOL    HW1 9185   2.755   1.416   0.882
 2937SOL    HW2 9186   2.594   1.404   0.853
 2938SOL     OW 9187   2.784   0.503   0.899
 2938SOL    HW1 9188   2.759   0.494   0.803
 2938SOL    HW2 9189   2.832   0.421   0.930
 2939SOL     OW 9190   2.401   0.064   0.512
 2939SOL    HW1 9191   2.320   0.065   0.570
 2939SOL    HW2 9192   2.404   0.147   0.457
 2940SOL     OW 9193   3.296   1.188   0.041
 2940SOL    HW1 9194   3.328   1.112   0.098
 2940SOL    HW2 9195   3.204   1.215   0.071
 2941SOL     OW 9196   2.159   0.035   0.171
 2941SOL    HW1 9197   2.208   0.119   0.150
 2941SOL    HW2 9198   2.221  -0.030   0.216
 2942SOL     OW 9199   2.797   0.236   0.480
 2942SOL    HW1 9200   2.749   0.277   0.402
 2942SOL    HW2 9201   2.896   0.234   0.461
 2943SOL     OW 9202   2.938   0.683   1.464
 2943SOL    HW1 9203   2.858   0.622   1.467
 2943SOL    HW2 9204   3.019   0.630   1.440
 2944SOL     OW 9205   3.089   1.570   0.793
 2944SOL    HW1 9206   3.110   1.644   0.728
 2944SOL    HW2 9207   3.157   1.570   0.866
 2945SOL     OW 9208   2.321   1.152   0.741
 2945SOL    HW1 9209   2.250   1.125   0.806
 2945SOL    HW2 9210   2.295   1.124   0.648
 2946SOL     OW 9211   3.133   1.797   0.591
 2946SOL    HW1 9212   3.177   1.861   0.527
 2946SOL    HW2 9213   3.083   1.849   0.661
 2947SOL     OW 9214   2.894   0.549   0.016
 2947SOL    HW1 9215   2.853   0.631  -0.023
 2947SOL    HW2 9216   2.958   0.575   0.089
 2948SOL     OW 9217   1.940   0.556   1.386
 2948SOL    HW1 9218   2.032   0.555   1.345
 2948SOL    HW2 9219   1.934   0.630   1.453
 2949SOL     OW 9220   2.423   0.222   1.147
 2949SOL    HW1 9221   2.461   0.138   1.184
 2949SOL    HW2 9222   2.335   0.241   1.191
 2950SOL     OW 9223   2.728   0.454   0.642
 2950SOL    HW1 9224   2.696   0.526   0.580
 2950SOL    HW2 9225   2.752   0.373   0.589
 2951SOL     OW 9226   2.879   0.039   0.753
 2951SOL    HW1 9227   2.807   0.044   0.684
 2951SOL    HW2 9228   2.855  -0.030   0.822
 2952SOL     OW 9229   3.291   1.173   0.867
 2952SOL    HW1 9230   3.236   1.089   0.860
 2952SOL    HW2 9231   3.317   1.202   0.775
 2953SOL     OW 9232   3.328   0.590   0.992
 2953SOL    HW1 9233   3.298   0.495   0.999
 2953SOL    HW2 9234   3.401   0.606   1.058
 2954SOL     OW 9235   3.719   0.833   0.377
 2954SOL    HW1 9236   3.761   0.769   0.441
 2954SOL    HW2 9237   3.681   0.782   0.299
 2955SOL     OW 9238   2.350   1.385   0.174
 2955SOL    HW1 9239   2.263   1.370   0.221
 2955SOL    HW2 9240   2.333   1.411   0.079
 2956SOL     OW 9241   3.526   1.280   0.657
 2956SOL    HW1 9242   3.625   1.288   0.671
 2956SOL    HW2 9243   3.481   1.364   0.688
 2957SOL     OW 9244   3.252   0.575   0.078
 2957SOL    HW1 9245   3.198   0.554   0.159
 2957SOL    HW2 9246   3.343   0.534   0.087
 2958SOL     OW 9247   2.389   0.256   0.328
 2958SOL    HW1 9248   2.416   0.197   0.253
 2958SOL    HW2 9249   2.389   0.351   0.297
 2959SOL     OW 9250   3.616   1.223   1.588
 2959SOL    HW1 9251   3.707   1.184   1.575
 2959SOL    HW2 9252   3.624   1.319   1.612
 2960SOL     OW 9253   2.926   1.347   1.340
 2960SOL    HW1 9254   2.846   1.324   1.395
 2960SOL    HW2 9255   3.009   1.321   1.389
 2961SOL     OW 9256   3.454   1.629   1.625
 2961SOL    HW1 9257   3.481   1.663   1.535
 2961SOL    HW2 9258   3.533   1.591   1.671
 2962SOL     OW 9259   2.973   1.195   1.100
 2962SOL    HW1 9260   2.933   1.239   1.181
 2962SOL    HW2 9261   2.932   1.232   1.017
 2963SOL     OW 9262   3.500   1.099   1.079
 2963SOL    HW1 9263   3.505   1.180   1.138
 2963SOL    HW2 9264   3.414   1.101   1.028
 2964SOL     OW 9265   2.777   0.089   1.402
 2964SOL    HW1 9266   2.802   0.069   1.307
 2964SOL    HW2 9267   2.849   0.145   1.444
 2965SOL     OW 9268   2.842   1.116   1.719
 2965SOL    HW1 9269   2.743   1.122   1.729
 2965SOL    HW2 9270   2.865   1.036   1.663
 2966SOL     OW 9271   2.567   1.050   0.368
 2966SOL    HW1 9272   2.553   1.057   0.467
 2966SOL    HW2 9273   2.651   0.999   0.350
 2967SOL     OW 9274   2.272   0.813   1.251
 2967SOL    HW1 9275   2.358   0.825   1.301
 2967SOL    HW2 9276   2.230   0.726   1.278
 2968SOL     OW 9277   3.136   0.386   1.262
 2968SOL    HW1 9278   3.157   0.460   1.326
 2968SOL    HW2 9279   3.047   0.403   1.219
 2969SOL     OW 9280   1.926   1.564   1.331
 2969SOL    HW1 9281   1.880   1.646   1.297
 2969SOL    HW2 9282   2.024   1.583   1.340
 2970SOL     OW 9283   2.229   1.100   0.501
 2970SOL    HW1 9284   2.222   1.183   0.445
 2970SOL    HW2 9285   2.233   1.020   0.441
 2971SOL     OW 9286   2.428   0.537   0.865
 2971SOL    HW1 9287   2.440   0.603   0.791
 2971SOL    HW2 9288   2.474   0.571   0.948
 2972SOL     OW 9289   3.114   1.348   0.388
 2972SOL    HW1 9290   3.164   1.425   0.428
 2972SOL    HW2 9291   3.019   1.350   0.420
 2973SOL     OW 9292   3.134   1.445   1.142
 2973SOL    HW1 9293   3.181   1.458   1.229
 2973SOL    HW2 9294   3.068   1.371   1.151
 2974SOL     OW 9295   3.444   0.639   0.472
 2974SOL    HW1 9296   3.413   0.700   0.545
 2974SOL    HW2 9297   3.494   0.691   0.403
 2975SOL     OW 9298   2.216   1.510   1.329
 2975SOL    HW1 9299   2.195   1.466   1.242
 2975SOL    HW2 9300   2.313   1.536   1.332
 2976SOL     OW 9301   2.264   0.751   1.598
 2976SOL    HW1 9302   2.332   0.806   1.551
 2976SOL    HW2 9303   2.304   0.663   1.625
 2977SOL     OW 9304   3.449   0.779   1.670
 2977SOL    HW1 9305   3.357   0.817   1.665
 2977SOL    HW2 9306   3.509   0.826   1.605
 2978SOL     OW 9307   2.875   0.105   1.770
 2978SOL    HW1 9308   2.881   0.190   1.718
 2978SOL    HW2 9309   2.907   0.029   1.713
 2979SOL     OW 9310   2.366   0.050   1.740
 2979SOL    HW1 9311   2.324  -0.007   1.670
 2979SOL    HW2 9312   2.300   0.119   1.772
 2980SOL     OW 9313   2.435   0.870   1.029
 2980SOL    HW1 9314   2.479   0.959   1.020
 2980SOL    HW2 9315   2.372   0.870   1.106
 2981SOL     OW 9316   3.222   0.862   1.045
 2981SOL    HW1 9317   3.147   0.862   0.979
 2981SOL    HW2 9318   3.259   0.770   1.054
 2982SOL     OW 9319   3.071   0.525   0.275
 2982SOL    HW1 9320   3.084   0.441   0.329
 2982SOL    HW2 9321   3.042   0.599   0.335
 2983SOL     OW 9322   2.169   0.213   1.231
 2983SOL    HW1 9323   2.146   0.250   1.321
 2983SOL    HW2 9324   2.139   0.118   1.225
 2984SOL     OW 9325   1.899   1.310   1.282
 2984SOL    HW1 9326   1.952   1.261   1.350
 2984SOL    HW2 9327   1.921   1.408   1.287
 2985SOL     OW 9328   2.594   0.634   1.064
 2985SOL    HW1 9329   2.653   0.608   0.988
 2985SOL    HW2 9330   2.566   0.730   1.053
 2986SOL     OW 9331   3.590   0.935   1.854
 2986SOL    HW1 9332   3.544   0.928   1.765
 2986SOL    HW2 9333   3.528   0.979   1.920
 2987SOL     OW 9334   2.169   0.063   0.618
 2987SOL    HW1 9335   2.158   0.157   0.651
 2987SOL    HW2 9336   2.164   0.000   0.695
 2988SOL     OW 9337   3.484   0.367   0.374
 2988SOL    HW1 9338   3.486   0.291   0.438
 2988SOL    HW2 9339   3.436   0.444   0.414
 2989SOL     OW 9340   2.885   0.766   0.966
 2989SOL    HW1 9341   2.900   0.787   1.062
 2989SOL    HW2 9342   2.855   0.671   0.957
 2990SOL     OW 9343   2.842   1.573   1.700
 2990SOL    HW1 9344   2.822   1.617   1.612
 2990SOL    HW2 9345   2.881   1.482   1.684
 2991SOL     OW 9346   3.721   1.518   1.605
 2991SOL    HW1 9347   3.735   1.545   1.510
 2991SOL    HW2 9348   3.804   1.540   1.658
 2992SOL     OW 9349   2.212   0.898   1.804
 2992SOL    HW1 9350   2.288   0.942   1.852
 2992SOL    HW2 9351   2.247   0.851   1.722
 2993SOL     OW 9352   3.402   0.274   0.125
 2993SOL    HW1 9353   3.341   0.199   0.148
 2993SOL    HW2 9354   3.424   0.326   0.208
 2994SOL     OW 9355   3.165   0.838   0.042
 2994SOL    HW1 9356   3.199   0.745   0.057
 2994SOL    HW2 9357   3.183   0.865  -0.053
 2995SOL     OW 9358   2.930   1.333   0.849
 2995SOL    HW1 9359   2.937   1.249   0.794
 2995SOL    HW2 9360   2.992   1.402   0.813
 2996SOL     OW 9361   2.181   0.810   0.949
 2996SOL    HW1 9362   2.274   0.846   0.954
 2996SOL    HW2 9363   2.175   0.725   1.001
 2997SOL     OW 9364   2.201   0.509   1.006
 2997SOL    HW1 9365   2.149   0.426   0.989
 2997SOL    HW2 9366   2.278   0.514   0.942
 2998SOL     OW 9367   3.000   0.380   1.678
 2998SOL    HW1 9368   2.955   0.443   1.742
 2998SOL    HW2 9369   3.093   0.411   1.661
 2999SOL     OW 9370   3.022   0.207   1.477
 2999SOL    HW1 9371   3.022   0.271   1.554
 2999SOL    HW2 9372   3.050   0.255   1.394
 3000SOL     OW 9373   1.870   1.326   0.200
 3000SOL    HW1 9374   1.777   1.347   0.169
 3000SOL    HW2 9375   1.880   1.227   0.213
 3001SOL     OW 9376   1.950   1.801   0.927
 3001SOL    HW1 9377   1.908   1.715   0.900
 3001SOL    HW2 9378   2.044   1.804   0.893
 3002SOL     OW 9379   2.366   1.568   0.910
 3002SOL    HW1 9380   2.432   1.642   0.919
 3002SOL    HW2 9381   2.410   1.489   0.868
 3003SOL     OW 9382   2.864   0.796   1.238
 3003SOL    HW1 9383   2.905   0.764   1.324
 3003SOL    HW2 9384   2.768   0.769   1.235
 3004SOL     OW 9385   1.902   0.544   1.114
 3004SOL    HW1 9386   1.987   0.511   1.073
 3004SOL    HW2 9387   1.915   0.559   1.212
 3005SOL     OW 9388   2.051   0.520   1.722
 3005SOL    HW1 9389   2.110   0.480   1.652
 3005SOL    HW2 9390   1.993   0.591   1.681
 3006SOL     OW 9391   3.231   0.950   1.660
 3006SOL    HW1 9392   3.270   1.039   1.680
 3006SOL    HW2 9393   3.241   0.930   1.563
 3007SOL     OW 9394   2.677   0.572   0.325
 3007SOL    HW1 9395   2.684   0.483   0.279
 3007SOL    HW2 9396   2.583   0.606   0.317
 3008SOL     OW 9397   3.519   0.604   1.206
 3008SOL    HW1 9398   3.481   0.535   1.268
 3008SOL    HW2 9399   3.601   0.568   1.162
 3009SOL     OW 9400   2.114   1.564   1.744
 3009SOL    HW1 9401   2.084   1.621   1.820
 3009SOL    HW2 9402   2.107   1.467   1.770
 3010SOL     OW 9403   2.533   0.464   1.269
 3010SOL    HW1 9404   2.499   0.375   1.239
 3010SOL    HW2 9405   2.559   0.518   1.189
 3011SOL     OW 9406   2.792   1.678   1.465
 3011SOL    HW1 9407   2.768   1.660   1.370
 3011SOL    HW2 9408   2.822   1.772   1.475
 3012SOL     OW 9409   2.335   0.500   0.191
 3012SOL    HW1 9410   2.396   0.580   0.195
 3012SOL    HW2 9411   2.240   0.531   0.198
 3013SOL     OW 9412   2.021   1.137   1.466
 3013SOL    HW1 9413   2.043   1.076   1.542
 3013SOL    HW2 9414   2.031   1.088   1.380
 3014SOL     OW 9415   3.209   1.059   1.234
 3014SOL    HW1 9416   3.233   0.996   1.160
 3014SOL    HW2 9417   3.119   1.099   1.216
 3015SOL     OW 9418   3.164   0.855   0.309
 3015SOL    HW1 9419   3.078   0.824   0.351
 3015SOL    HW2 9420   3.160   0.841   0.210
 3016SOL     OW 9421   3.621   1.747   1.154
 3016SOL    HW1 9422   3.682   1.777   1.081
 3016SOL    HW2 9423   3.583   1.658   1.132
 3017SOL     OW 9424   3.114   1.731   1.128
 3017SOL    HW1 9425   3.198   1.736   1.074
 3017SOL    HW2 9426   3.091   1.635   1.146
 3018SOL     OW 9427   1.945   1.258   1.022
 3018SOL    HW1 9428   1.940   1.257   1.122
 3018SOL    HW2 9429   1.862   1.217   0.984
 3019SOL     OW 9430   2.550   1.662   1.716
 3019SOL    HW1 9431   2.494   1.743   1.725
 3019SOL    HW2 9432   2.602   1.666   1.630
 3020SOL     OW 9433   2.765   0.086   0.133
 3020SOL    HW1 9434   2.816   0.087   0.047
 3020SOL    HW2 9435   2.821   0.044   0.204
 3021SOL     OW 9436   3.588   0.135   0.523
 3021SOL    HW1 9437   3.661   0.118   0.456
 3021SOL    HW2 9438   3.557   0.048   0.561
 3022SOL     OW 9439   3.250   1.573   0.477
 3022SOL    HW1 9440   3.317   1.585   0.403
 3022SOL    HW2 9441   3.210   1.662   0.500
 3023SOL     OW 9442   1.992   1.794   1.851
 3023SOL    HW1 9443   1.951   1.720   1.904
 3023SOL    HW2 9444   2.056   1.845   1.909
 3024SOL     OW 9445   3.142   0.927   0.672
 3024SOL    HW1 9446   3.202   0.846   0.674
 3024SOL    HW2 9447   3.182   0.996   0.612
 3025SOL     OW 9448   2.692   1.273   1.422
 3025SOL    HW1 9449   2.687   1.306   1.517
 3025SOL    HW2 9450   2.606   1.292   1.376
 3026SOL     OW 9451   2.534   1.616   0.154
 3026SOL    HW1 9452   2.543   1.626   0.055
 3026SOL    HW2 9453   2.494   1.527   0.175
 3027SOL     OW 9454   3.512   1.720   1.394
 3027SOL    HW1 9455   3.565   1.730   1.310
 3027SOL    HW2 9456   3.485   1.810   1.428
 3028SOL     OW 9457   3.703   0.175   0.963
 3028SOL    HW1 9458   3.742   0.090   0.927
 3028SOL    HW2 9459   3.605   0.177   0.944
 3029SOL     OW 9460   2.125   0.326   0.720
 3029SOL    HW1 9461   2.046   0.377   0.686
 3029SOL    HW2 9462   2.116   0.311   0.818
 3030SOL     OW 9463   3.056   1.612   0.031
 3030SOL    HW1 9464   3.062   1.519   0.068
 3030SOL    HW2 9465   2.997   1.612  -0.049
 3031SOL     OW 9466   2.684   1.002   1.372
 3031SOL    HW1 9467   2.724   1.001   1.280
 3031SOL    HW2 9468   2.694   1.094   1.412
 3032SOL     OW 9469   2.778   0.910   0.291
 3032SOL    HW1 9470   2.841   0.948   0.223
 3032SOL    HW2 9471   2.818   0.827   0.330
 3033SOL     OW 9472   3.366   1.607   0.044
 3033SOL    HW1 9473   3.274   1.644   0.051
 3033SOL    HW2 9474   3.404   1.627  -0.046
 3034SOL     OW 9475   2.234   1.288   1.490
 3034SOL    HW1 9476   2.221   1.381   1.456
 3034SOL    HW2 9477   2.150   1.236   1.477
 3035SOL     OW 9478   3.476   1.292   1.289
 3035SOL    HW1 9479   3.536   1.295   1.369
 3035SOL    HW2 9480   3.401   1.356   1.302
 3036SOL     OW 9481   2.901   1.098   0.696
 3036SOL    HW1 9482   2.831   1.051   0.750
 3036SOL    HW2 9483   2.960   1.030   0.653
 3037SOL     OW 9484   2.876   0.236   0.971
 3037SOL    HW1 9485   2.868   0.200   0.878
 3037SOL    HW2 9486   2.874   0.160   1.036
 3038SOL     OW 9487   2.452   1.487   0.491
 3038SOL    HW1 9488   2.494   1.429   0.421
 3038SOL    HW2 9489   2.408   1.566   0.447
 3039SOL     OW 9490   3.571   0.385   1.381
 3039SOL    HW1 9491   3.644   0.454   1.385
 3039SOL    HW2 9492   3.599   0.310   1.322
 3040SOL     OW 9493   2.117   1.348   0.290
 3040SOL    HW1 9494   2.021   1.349   0.263
 3040SOL    HW2 9495   2.129   1.401   0.374
 3041SOL     OW 9496   1.967   1.013   1.726
 3041SOL    HW1 9497   1.890   0.980   1.780
 3041SOL    HW2 9498   2.052   0.983   1.768
 3042SOL     OW 9499   2.534   0.203   1.489
 3042SOL    HW1 9500   2.624   0.187   1.449
 3042SOL    HW2 9501   2.542   0.208   1.588
 3043SOL     OW 9502   1.937   0.345   0.033
 3043SOL    HW1 9503   1.845   0.317   0.004
 3043SOL    HW2 9504   1.968   0.422  -0.023
 3044SOL     OW 9505   3.302   0.856   1.398
 3044SOL    HW1 9506   3.245   0.908   1.335
 3044SOL    HW2 9507   3.398   0.868   1.374
 3045SOL     OW 9508   3.045   1.335   0.119
 3045SOL    HW1 9509   2.946   1.324   0.121
 3045SOL    HW2 9510   3.079   1.350   0.212
 3046SOL     OW 9511   2.475   0.842   1.431
 3046SOL    HW1 9512   2.531   0.923   1.414
 3046SOL    HW2 9513   2.534   0.762   1.434
 3047SOL     OW 9514   3.355   1.767   0.959
 3047SOL    HW1 9515   3.388   1.831   0.890
 3047SOL    HW2 9516   3.421   1.761   1.034
 3048SOL     OW 9517   2.578   0.565   1.708
 3048SOL    HW1 9518   2.597   0.630   1.782
 3048SOL    HW2 9519   2.638   0.485   1.717
 3049SOL     OW 9520   3.312   1.220   1.633
 3049SOL    HW1 9521   3.303   1.210   1.732
 3049SOL    HW2 9522   3.408   1.213   1.607
 3050SOL     OW 9523   2.252   1.741   1.560
 3050SOL    HW1 9524   2.161   1.782   1.558
 3050SOL    HW2 9525   2.245   1.647   1.592
 3051SOL     OW 9526   3.536   0.883   1.254
 3051SOL    HW1 9527   3.509   0.794   1.217
 3051SOL    HW2 9528   3.537   0.951   1.181
 3052SOL     OW 9529   3.087   0.325   0.449
 3052SOL    HW1 9530   3.152   0.251   0.438
 3052SOL    HW2 9531   3.107   0.375   0.533
 3053SOL     OW 9532   2.456   0.745   0.652
 3053SOL    HW1 9533   2.506   0.830   0.633
 3053SOL    HW2 9534   2.368   0.747   0.604
 3054SOL     OW 9535   3.639   0.342   1.642
 3054SOL    HW1 9536   3.622   0.373   1.548
 3054SOL    HW2 9537   3.555   0.305   1.680
 3055SOL     OW 9538   3.592   0.934   1.517
 3055SOL    HW1 9539   3.630   1.025   1.532
 3055SOL    HW2 9540   3.584   0.917   1.418
 3056SOL     OW 9541   2.721   1.374   0.016
 3056SOL    HW1 9542   2.675   1.389   0.104
 3056SOL    HW2 9543   2.765   1.459  -0.014
 3057SOL     OW 9544   2.523   1.790   0.953
 3057SOL    HW1 9545   2.477   1.878   0.940
 3057SOL    HW2 9546   2.622   1.802   0.946
 3058SOL     OW 9547   2.721   0.956   0.861
 3058SOL    HW1 9548   2.775   0.887   0.909
 3058SOL    HW2 9549   2.689   1.025   0.927
 3059SOL     OW 9550   2.945   0.984   0.087
 3059SOL    HW1 9551   2.922   1.037   0.005
 3059SOL    HW2 9552   3.026   0.928   0.068
 3060SOL     OW 9553   3.723   1.569   0.851
 3060SOL    HW1 9554   3.652   1.557   0.781
 3060SOL    HW2 9555   3.724   1.490   0.911
 3061SOL     OW 9556   2.083   1.314   1.844
 3061SOL    HW1 9557   2.018   1.241   1.823
 3061SOL    HW2 9558   2.087   1.328   1.942
 3062SOL     OW 9559   1.941   1.240   0.653
 3062SOL    HW1 9560   1.940   1.193   0.741
 3062SOL    HW2 9561   2.023   1.212   0.602
 3063SOL     OW 9562   2.534   1.391   1.624
 3063SOL    HW1 9563   2.456   1.341   1.662
 3063SOL    HW2 9564   2.531   1.486   1.655
 3064SOL     OW 9565   3.686   0.192   1.227
 3064SOL    HW1 9566   3.682   0.102   1.271
 3064SOL    HW2 9567   3.689   0.181   1.128
 3065SOL     OW 9568   2.290   0.424   0.520
 3065SOL    HW1 9569   2.320   0.352   0.458
 3065SOL    HW2 9570   2.251   0.384   0.603
 3066SOL     OW 9571   3.567   1.487   1.104
 3066SOL    HW1 9572   3.474   1.462   1.077
 3066SOL    HW2 9573   3.593   1.437   1.186
 3067SOL     OW 9574   2.179   0.547   1.280
 3067SOL    HW1 9575   2.217   0.488   1.352
 3067SOL    HW2 9576   2.219   0.521   1.192
 3068SOL     OW 9577   2.674   1.586   0.687
 3068SOL    HW1 9578   2.706   1.596   0.593
 3068SOL    HW2 9579   2.595   1.524   0.689
 3069SOL     OW 9580   3.286   0.214   1.112
 3069SOL    HW1 9581   3.338   0.149   1.167
 3069SOL    HW2 9582   3.237   0.277   1.173
 3070SOL     OW 9583   2.863   0.034   1.154
 3070SOL    HW1 9584   2.800  -0.038   1.123
 3070SOL    HW2 9585   2.956  -0.002   1.154
 3071SOL     OW 9586   2.632   1.330   0.301
 3071SOL    HW1 9587   2.586   1.243   0.318
 3071SOL    HW2 9588   2.723   1.327   0.342
 3072SOL     OW 9589   2.480   1.567   1.284
 3072SOL    HW1 9590   2.475   1.649   1.341
 3072SOL    HW2 9591   2.569   1.564   1.239
 3073SOL     OW 9592   3.214   0.052   0.168
 3073SOL    HW1 9593   3.249   0.011   0.084
 3073SOL    HW2 9594   3.124   0.014   0.188
 3074SOL     OW 9595   3.162   0.453   0.691
 3074SOL    HW1 9596   3.103   0.533   0.695
 3074SOL    HW2 9597   3.177   0.418   0.784
 3075SOL     OW 9598   3.455   0.221   0.882
 3075SOL    HW1 9599   3.371   0.220   0.936
 3075SOL    HW2 9600   3.457   0.304   0.826
 3076SOL     OW 9601   1.901   1.077   0.300
 3076SOL    HW1 9602   2.000   1.066   0.291
 3076SOL    HW2 9603   1.861   0.991   0.332
 3077SOL     OW 9604   2.737   1.646   0.337
 3077SOL    HW1 9605   2.660   1.611   0.283
 3077SOL    HW2 9606   2.705   1.717   0.399
 3078SOL     OW 9607   2.092   0.628   1.975
 3078SOL    HW1 9608   1.999   0.626   2.012
 3078SOL    HW2 9609   2.093   0.589   1.883
 3079SOL     OW 9610   2.087   0.275   2.858
 3079SOL    HW1 9611   2.122   0.258   2.950
 3079SOL    HW2 9612   1.999   0.230   2.846
 3080SOL     OW 9613   1.881   0.368   2.509
 3080SOL    HW1 9614   1.799   0.411   2.548
 3080SOL    HW2 9615   1.853   0.295   2.446
 3081SOL     OW 9616   2.431   1.275   3.027
 3081SOL    HW1 9617   2.338   1.268   2.990
 3081SOL    HW2 9618   2.442   1.364   3.071
 3082SOL     OW 9619   3.417   1.511   2.565
 3082SOL    HW1 9620   3.360   1.495   2.646
 3082SOL    HW2 9621   3.358   1.521   2.485
 3083SOL     OW 9622   2.997   0.703   2.579
 3083SOL    HW1 9623   3.054   0.781   2.554
 3083SOL    HW2 9624   2.937   0.729   2.655
 3084SOL     OW 9625   3.617   0.607   2.093
 3084SOL    HW1 9626   3.605   0.594   1.994
 3084SOL    HW2 9627   3.587   0.526   2.142
 3085SOL     OW 9628   2.630   1.144   2.885
 3085SOL    HW1 9629   2.552   1.161   2.945
 3085SOL    HW2 9630   2.664   1.231   2.849
 3086SOL     OW 9631   2.712   0.798   3.685
 3086SOL    HW1 9632   2.708   0.874   3.750
 3086SOL    HW2 9633   2.734   0.834   3.594
 3087SOL     OW 9634   2.547   1.012   2.527
 3087SOL    HW1 9635   2.616   0.996   2.597
 3087SOL    HW2 9636   2.474   1.069   2.565
 3088SOL     OW 9637   2.548   1.161   3.665
 3088SOL    HW1 9638   2.608   1.240   3.679
 3088SOL    HW2 9639   2.462   1.192   3.624
 3089SOL     OW 9640   2.197   1.435   2.923
 3089SOL    HW1 9641   2.119   1.404   2.870
 3089SOL    HW2 9642   2.255   1.493   2.866
 3090SOL     OW 9643   3.322   1.505   3.201
 3090SOL    HW1 9644   3.346   1.599   3.227
 3090SOL    HW2 9645   3.306   1.451   3.283
 3091SOL     OW 9646   2.300   0.392   3.361
 3091SOL    HW1 9647   2.382   0.336   3.370
 3091SOL    HW2 9648   2.219   0.334   3.365
 3092SOL     OW 9649   3.465   0.447   2.599
 3092SOL    HW1 9650   3.391   0.493   2.549
 3092SOL    HW2 9651   3.516   0.515   2.652
 3093SOL     OW 9652   2.093   1.713   2.345
 3093SOL    HW1 9653   2.127   1.790   2.399
 3093SOL    HW2 9654   2.137   1.713   2.255
 3094SOL     OW 9655   2.989   1.341   3.552
 3094SOL    HW1 9656   3.036   1.341   3.640
 3094SOL    HW2 9657   2.941   1.254   3.541
 3095SOL     OW 9658   2.092   1.434   2.400
 3095SOL    HW1 9659   2.066   1.530   2.400
 3095SOL    HW2 9660   2.021   1.380   2.445
 3096SOL     OW 9661   2.102   1.091   2.748
 3096SOL    HW1 9662   2.116   1.007   2.800
 3096SOL    HW2 9663   2.047   1.155   2.803
 3097SOL     OW 9664   2.482   1.786   3.301
 3097SOL    HW1 9665   2.390   1.769   3.336
 3097SOL    HW2 9666   2.510   1.878   3.327
 3098SOL     OW 9667   2.468   0.964   1.985
 3098SOL    HW1 9668   2.475   1.048   1.931
 3098SOL    HW2 9669   2.514   0.977   2.073
 3099SOL     OW 9670   3.456   0.114   3.342
 3099SOL    HW1 9671   3.438   0.181   3.270
 3099SOL    HW2 9672   3.453   0.160   3.431
 3100SOL     OW 9673   1.984   0.643   2.425
 3100SOL    HW1 9674   1.939   0.555   2.442
 3100SOL    HW2 9675   1.983   0.697   2.509
 3101SOL     OW 9676   3.704   1.767   2.221
 3101SOL    HW1 9677   3.758   1.738   2.301
 3101SOL    HW2 9678   3.734   1.857   2.192
 3102SOL     OW 9679   1.889   1.596   1.979
 3102SOL    HW1 9680   1.870   1.500   2.000
 3102SOL    HW2 9681   1.856   1.654   2.054
 3103SOL     OW 9682   3.551   0.922   2.474
 3103SOL    HW1 9683   3.646   0.893   2.482
 3103SOL    HW2 9684   3.543   0.987   2.399
 3104SOL     OW 9685   3.503   1.108   2.294
 3104SOL    HW1 9686   3.589   1.110   2.242
 3104SOL    HW2 9687   3.517   1.155   2.382
 3105SOL     OW 9688   1.975   0.737   3.459
 3105SOL    HW1 9689   2.063   0.724   3.504
 3105SOL    HW2 9690   1.962   0.834   3.437
 3106SOL     OW 9691   2.475   1.365   2.588
 3106SOL    HW1 9692   2.426   1.278   2.597
 3106SOL    HW2 9693   2.452   1.408   2.501
 3107SOL     OW 9694   3.155   1.228   3.285
 3107SOL    HW1 9695   3.192   1.155   3.227
 3107SOL    HW2 9696   3.207   1.233   3.370
 3108SOL     OW 9697   2.671   0.004   2.364
 3108SOL    HW1 9698   2.711   0.095   2.355
 3108SOL    HW2 9699   2.571   0.012   2.370
 3109SOL     OW 9700   2.059   0.976   3.126
 3109SOL    HW1 9701   2.148   0.931   3.112
 3109SOL    HW2 9702   1.986   0.911   3.107
 3110SOL     OW 9703   3.387   0.999   2.052
 3110SOL    HW1 9704   3.324   0.923   2.065
 3110SOL    HW2 9705   3.435   1.017   2.138
 3111SOL     OW 9706   3.049   1.792   3.478
 3111SOL    HW1 9707   3.073   1.852   3.402
 3111SOL    HW2 9708   3.056   1.697   3.448
 3112SOL     OW 9709   2.179   0.251   3.663
 3112SOL    HW1 9710   2.250   0.322   3.669
 3112SOL    HW2 9711   2.091   0.290   3.691
 3113SOL     OW 9712   3.328   1.417   2.815
 3113SOL    HW1 9713   3.269   1.423   2.895
 3113SOL    HW2 9714   3.313   1.329   2.769
 3114SOL     OW 9715   3.529   1.714   2.434
 3114SOL    HW1 9716   3.488   1.691   2.346
 3114SOL    HW2 9717   3.511   1.640   2.499
 3115SOL     OW 9718   2.460   0.729   2.132
 3115SOL    HW1 9719   2.484   0.798   2.064
 3115SOL    HW2 9720   2.382   0.762   2.186
 3116SOL     OW 9721   3.143   0.345   2.806
 3116SOL    HW1 9722   3.057   0.295   2.793
 3116SOL    HW2 9723   3.205   0.291   2.862
 3117SOL     OW 9724   3.438   1.662   2.169
 3117SOL    HW1 9725   3.527   1.708   2.172
 3117SOL    HW2 9726   3.417   1.638   2.074
 3118SOL     OW 9727   2.669   0.605   3.327
 3118SOL    HW1 9728   2.622   0.602   3.416
 3118SOL    HW2 9729   2.618   0.550   3.261
 3119SOL     OW 9730   3.256   0.469   3.536
 3119SOL    HW1 9731   3.236   0.512   3.624
 3119SOL    HW2 9732   3.334   0.407   3.545
 3120SOL     OW 9733   2.835   0.890   3.434
 3120SOL    HW1 9734   2.881   0.806   3.405
 3120SOL    HW2 9735   2.779   0.924   3.359
 3121SOL     OW 9736   2.853   0.410   3.104
 3121SOL    HW1 9737   2.776   0.444   3.158
 3121SOL    HW2 9738   2.819   0.359   3.025
 3122SOL     OW 9739   2.903   0.701   2.291
 3122SOL    HW1 9740   2.929   0.697   2.387
 3122SOL    HW2 9741   2.818   0.650   2.277
 3123SOL     OW 9742   1.938   0.811   2.651
 3123SOL    HW1 9743   2.037   0.799   2.660
 3123SOL    HW2 9744   1.914   0.906   2.672
 3124SOL     OW 9745   1.992   1.821   3.433
 3124SOL    HW1 9746   1.982   1.806   3.532
 3124SOL    HW2 9747   1.906   1.857   3.397
 3125SOL     OW 9748   2.727   0.348   2.057
 3125SOL    HW1 9749   2.786   0.411   2.008
 3125SOL    HW2 9750   2.746   0.254   2.028
 3126SOL     OW 9751   3.581   0.585   3.693
 3126SOL    HW1 9752   3.555   0.674   3.657
 3126SOL    HW2 9753   3.579   0.517   3.620
 3127SOL     OW 9754   3.224   1.144   2.407
 3127SOL    HW1 9755   3.307   1.115   2.359
 3127SOL    HW2 9756   3.175   1.211   2.351
 3128SOL     OW 9757   2.412   0.196   2.747
 3128SOL    HW1 9758   2.407   0.191   2.847
 3128SOL    HW2 9759   2.414   0.292   2.718
 3129SOL     OW 9760   2.870   1.456   2.339
 3129SOL    HW1 9761   2.824   1.528   2.287
 3129SOL    HW2 9762   2.866   1.476   2.437
 3130SOL     OW 9763   2.213   1.801   2.715
 3130SOL    HW1 9764   2.263   1.715   2.721
 3130SOL    HW2 9765   2.278   1.878   2.712
 3131SOL     OW 9766   3.657   1.066   2.735
 3131SOL    HW1 9767   3.595   1.051   2.659
 3131SOL    HW2 9768   3.605   1.077   2.820
 3132SOL     OW 9769   3.089   1.550   3.368
 3132SOL    HW1 9770   3.095   1.473   3.432
 3132SOL    HW2 9771   3.037   1.524   3.288
 3133SOL     OW 9772   2.183   0.943   2.104
 3133SOL    HW1 9773   2.265   0.982   2.062
 3133SOL    HW2 9774   2.156   0.861   2.055
 3134SOL     OW 9775   3.320   0.735   2.590
 3134SOL    HW1 9776   3.315   0.670   2.665
 3134SOL    HW2 9777   3.400   0.794   2.603
 3135SOL     OW 9778   2.323   1.266   3.589
 3135SOL    HW1 9779   2.273   1.267   3.503
 3135SOL    HW2 9780   2.260   1.248   3.665
 3136SOL     OW 9781   2.973   1.776   2.099
 3136SOL    HW1 9782   2.913   1.714   2.149
 3136SOL    HW2 9783   3.004   1.732   2.014
 3137SOL     OW 9784   2.064   0.285   3.360
 3137SOL    HW1 9785   1.984   0.345   3.347
 3137SOL    HW2 9786   2.054   0.236   3.446
 3138SOL     OW 9787   3.494   1.377   1.943
 3138SOL    HW1 9788   3.462   1.471   1.933
 3138SOL    HW2 9789   3.418   1.314   1.931
 3139SOL     OW 9790   2.326   1.743   2.185
 3139SOL    HW1 9791   2.359   1.782   2.271
 3139SOL    HW2 9792   2.402   1.736   2.120
 3140SOL     OW 9793   3.262   0.107   2.288
 3140SOL    HW1 9794   3.238   0.070   2.198
 3140SOL    HW2 9795   3.361   0.123   2.292
 3141SOL     OW 9796   2.111   1.785   3.103
 3141SOL    HW1 9797   2.168   1.720   3.153
 3141SOL    HW2 9798   2.095   1.752   3.010
 3142SOL     OW 9799   2.802   1.698   2.766
 3142SOL    HW1 9800   2.882   1.641   2.787
 3142SOL    HW2 9801   2.753   1.658   2.689
 3143SOL     OW 9802   2.244   0.700   2.342
 3143SOL    HW1 9803   2.289   0.610   2.339
 3143SOL    HW2 9804   2.150   0.689   2.375
 3144SOL     OW 9805   3.409   0.222   3.591
 3144SOL    HW1 9806   3.404   0.259   3.683
 3144SOL    HW2 9807   3.337   0.153   3.579
 3145SOL     OW 9808   2.476   0.122   1.979
 3145SOL    HW1 9809   2.574   0.100   1.986
 3145SOL    HW2 9810   2.445   0.105   1.886
 3146SOL     OW 9811   2.643   0.264   3.611
 3146SOL    HW1 9812   2.710   0.203   3.654
 3146SOL    HW2 9813   2.570   0.283   3.676
 3147SOL     OW 9814   2.750   1.514   3.057
 3147SOL    HW1 9815   2.727   1.489   2.963
 3147SOL    HW2 9816   2.811   1.445   3.096
 3148SOL     OW 9817   3.213   0.590   3.295
 3148SOL    HW1 9818   3.241   0.547   3.380
 3148SOL    HW2 9819   3.238   0.686   3.296
 3149SOL     OW 9820   2.665   1.402   2.786
 3149SOL    HW1 9821   2.755   1.416   2.744
 3149SOL    HW2 9822   2.594   1.404   2.715
 3150SOL     OW 9823   2.784   0.503   2.761
 3150SOL    HW1 9824   2.759   0.494   2.665
 3150SOL    HW2 9825   2.832   0.421   2.792
 3151SOL     OW 9826   2.401   0.064   2.374
 3151SOL    HW1 9827   2.320   0.065   2.432
 3151SOL    HW2 9828   2.404   0.147   2.319
 3152SOL     OW 9829   3.296   1.188   1.903
 3152SOL    HW1 9830   3.328   1.112   1.960
 3152SOL    HW2 9831   3.204   1.215   1.933
 3153SOL     OW 9832   2.159   0.035   2.033
 3153SOL    HW1 9833   2.208   0.119   2.012
 3153SOL    HW2 9834   2.221  -0.030   2.078
 3154SOL     OW 9835   2.797   0.236   2.342
 3154SOL    HW1 9836   2.749   0.277   2.264
 3154SOL    HW2 9837   2.896   0.234   2.323
 3155SOL     OW 9838   2.938   0.683   3.326
 3155SOL    HW1 9839   2.858   0.622   3.329
 3155SOL    HW2 9840   3.019   0.630   3.302
 3156SOL     OW 9841   3.089   1.570   2.655
 3156SOL    HW1 9842   3.110   1.644   2.590
 3156SOL    HW2 9843   3.157   1.570   2.728
 3157SOL     OW 9844   2.321   1.152   2.603
 3157SOL    HW1 9845   2.250   1.125   2.668
 3157SOL    HW2 9846   2.295   1.124   2.510
 3158SOL     OW 9847   3.133   1.797   2.453
 3158SOL    HW1 9848   3.177   1.861   2.389
 3158SOL    HW2 9849   3.083   1.849   2.523
 3159SOL     OW 9850   2.894   0.549   1.878
 3159SOL    HW1 9851   2.853   0.631   1.839
 3159SOL    HW2 9852   2.958   0.575   1.951
 3160SOL     OW 9853   1.940   0.556   3.248
 3160SOL    HW1 9854   2.032   0.555   3.207
 3160SOL    HW2 9855   1.934   0.630   3.315
 3161SOL     OW 9856   2.423   0.222   3.009
 3161SOL    HW1 9857   2.461   0.138   3.046
 3161SOL    HW2 9858   2.335   0.241   3.053
 3162SOL     OW 9859   2.728   0.454   2.504
 3162SOL    HW1 9860   2.696   0.526   2.442
 3162SOL    HW2 9861   2.752   0.373   2.451
 3163SOL     OW 9862   2.879   0.039   2.615
 3163SOL    HW1 9863   2.807   0.044   2.546
 3163SOL    HW2 9864   2.855  -0.030   2.684
 3164SOL     OW 9865   3.291   1.173   2.729
 3164SOL    HW1 9866   3.236   1.089   2.722
 3164SOL    HW2 9867   3.317   1.202   2.637
 3165SOL     OW 9868   3.328   0.590   2.854
 3165SOL    HW1 9869   3.298   0.495   2.861
 3165SOL    HW2 9870   3.401   0.606   2.920
 3166SOL     OW 9871   3.719   0.833   2.239
 3166SOL    HW1 9872   3.761   0.769   2.303
 3166SOL    HW2 9873   3.681   0.782   2.161
 3167SOL     OW 9874   2.350   1.385   2.036
 3167SOL    HW1 9875   2.263   1.370   2.083
 3167SOL    HW2 9876   2.333   1.411   1.941
 3168SOL     OW 9877   3.526   1.280   2.519
 3168SOL    HW1 9878   3.625   1.288   2.533
 3168SOL    HW2 9879   3.481   1.364   2.550
 3169SOL     OW 9880   3.252   0.575   1.940
 3169SOL    HW1 9881   3.198   0.554   2.021
 3169SOL    HW2 9882   3.343   0.534   1.949
 3170SOL     OW 9883   2.389   0.256   2.190
 3170SOL    HW1 9884   2.416   0.197   2.115
 3170SOL    HW2 9885   2.389   0.351   2.159
 3171SOL     OW 9886   3.616   1.223   3.450
 3171SOL    HW1 9887   3.707   1.184   3.437
 3171SOL    HW2 9888   3.624   1.319   3.474
 3172SOL     OW 9889   2.926   1.347   3.202
 3172SOL    HW1 9890   2.846   1.324   3.257
 3172SOL    HW2 9891   3.009   1.321   3.251
 3173SOL     OW 9892   3.454   1.629   3.487
 3173SOL    HW1 9893   3.481   1.663   3.397
 3173SOL    HW2 9894   3.533   1.591   3.533
 3174SOL     OW 9895   2.973   1.195   2.962
 3174SOL    HW1 9896   2.933   1.239   3.043
 3174SOL    HW2 9897   2.932   1.232   2.879
 3175SOL     OW 9898   3.500   1.099   2.941
 3175SOL    HW1 9899   3.505   1.180   3.000
 3175SOL    HW2 9900   3.414   1.101   2.890
 3176SOL     OW 9901   2.777   0.089   3.264
 3176SOL    HW1 9902   2.802   0.069   3.169
 3176SOL    HW2 9903   2.849   0.145   3.306
 3177SOL     OW 9904   2.842   1.116   3.581
 3177SOL    HW1 9905   2.743   1.122   3.591
 3177SOL    HW2 9906   2.865   1.036   3.525
 3178SOL     OW 9907   2.567   1.050   2.230
 3178SOL    HW1 9908   2.553   1.057   2.329
 3178SOL    HW2 9909   2.651   0.999   2.212
 3179SOL     OW 9910   2.272   0.813   3.113
 3179SOL    HW1 9911   2.358   0.825   3.163
 3179SOL    HW2 9912   2.230   0.726   3.140
 3180SOL     OW 9913   3.136   0.386   3.124
 3180SOL    HW1 9914   3.157   0.460   3.188
 3180SOL    HW2 9915   3.047   0.403   3.081
 3181SOL     OW 9916   1.926   1.564   3.193
 3181SOL    HW1 9917   1.880   1.646   3.159
 3181SOL    HW2 9918   2.024   1.583   3.202
 3182SOL     OW 9919   2.229   1.100   2.363
 3182SOL    HW1 9920   2.222   1.183   2.307
 3182SOL    HW2 9921   2.233   1.020   2.303
 3183SOL     OW 9922   2.428   0.537   2.727
 3183SOL    HW1 9923   2.440   0.603   2.653
 3183SOL    HW2 9924   2.474   0.571   2.810
 3184SOL     OW 9925   3.114   1.348   2.250
 3184SOL    HW1 9926   3.164   1.425   2.290
 3184SOL    HW2 9927   3.019   1.350   2.282
 3185SOL     OW 9928   3.134   1.445   3.004
 3185SOL    HW1 9929   3.181   1.458   3.091
 3185SOL    HW2 9930   3.068   1.371   3.013
 3186SOL     OW 9931   3.444   0.639   2.334
 3186SOL    HW1 9932   3.413   0.700   2.407
 3186SOL    HW2 9933   3.494   0.691   2.265
 3187SOL     OW 9934   2.216   1.510   3.191
 3187SOL    HW1 9935   2.195   1.466   3.104
 3187SOL    HW2 9936   2.313   1.536   3.194
 3188SOL     OW 9937   2.264   0.751   3.460
 3188SOL    HW1 9938   2.332   0.806   3.413
 3188SOL    HW2 9939   2.304   0.663   3.487
 3189SOL     OW 9940   3.449   0.779   3.532
 3189SOL    HW1 9941   3.357   0.817   3.527
 3189SOL    HW2 9942   3.509   0.826   3.467
 3190SOL     OW 9943   2.875   0.105   3.632
 3190SOL    HW1 9944   2.881   0.190   3.580
 3190SOL    HW2 9945   2.907   0.029   3.575
 3191SOL     OW 9946   2.366   0.050   3.602
 3191SOL    HW1 9947   2.324  -0.007   3.532
 3191SOL    HW2 9948   2.300   0.119   3.634
 3192SOL     OW 9949   2.435   0.870   2.891
 3192SOL    HW1 9950   2.479   0.959   2.882
 3192SOL    HW2 9951   2.372   0.870   2.968
 3193SOL     OW 9952   3.222   0.862   2.907
 3193SOL    HW1 9953   3.147   0.862   2.841
 3193SOL    HW2 9954   3.259   0.770   2.916
 3194SOL     OW 9955   3.071   0.525   2.137
 3194SOL    HW1 9956   3.084   0.441   2.191
 3194SOL    HW2 9957   3.042   0.599   2.197
 3195SOL     OW 9958   2.169   0.213   3.093
 3195SOL    HW1 9959   2.146   0.250   3.183
 3195SOL    HW2 9960   2.139   0.118   3.087
 3196SOL     OW 9961   1.899   1.310   3.144
 3196SOL    HW1 9962   1.952   1.261   3.212
 3196SOL    HW2 9963   1.921   1.408   3.149
 3197SOL     OW 9964   2.594   0.634   2.926
 3197SOL    HW1 9965   2.653   0.608   2.850
 3197SOL    HW2 9966   2.566   0.730   2.915
 3198SOL     OW 9967   3.590   0.935   3.716
 3198SOL    HW1 9968   3.544   0.928   3.627
 3198SOL    HW2 9969   3.528   0.979   3.782
 3199SOL     OW 9970   2.169   0.063   2.480
 3199SOL    HW1 9971   2.158   0.157   2.513
 3199SOL    HW2 9972   2.164   0.000   2.557
 3200SOL     OW 9973   3.484   0.367   2.236
 3200SOL    HW1 9974   3.486   0.291   2.300
 3200SOL    HW2 9975   3.436   0.444   2.276
 3201SOL     OW 9976   2.885   0.766   2.828
 3201SOL    HW1 9977   2.900   0.787   2.924
 3201SOL    HW2 9978   2.855   0.671   2.819
 3202SOL     OW 9979   2.842   1.573   3.562
 3202SOL    HW1 9980   2.822   1.617   3.474
 3202SOL    HW2 9981   2.881   1.482   3.546
 3203SOL     OW 9982   3.721   1.518   3.467
 3203SOL    HW1 9983   3.735   1.545   3.372
 3203SOL    HW2 9984   3.804   1.540   3.520
 3204SOL     OW 9985   2.212   0.898   3.666
 3204SOL    HW1 9986   2.288   0.942   3.714
 3204SOL    HW2 9987   2.247   0.851   3.584
 3205SOL     OW 9988   3.402   0.274   1.987
 3205SOL    HW1 9989   3.341   0.199   2.010
 3205SOL    HW2 9990   3.424   0.326   2.070
 3206SOL     OW 9991   3.165   0.838   1.904
 3206SOL    HW1 9992   3.199   0.745   1.919
 3206SOL    HW2 9993   3.183   0.865   1.809
 3207SOL     OW 9994   2.930   1.333   2.711
 3207SOL    HW1 9995   2.937   1.249   2.656
 3207SOL    HW2 9996   2.992   1.402   2.675
 3208SOL     OW 9997   2.181   0.810   2.811
 3208SOL    HW1 9998   2.274   0.846   2.816
 3208SOL    HW2 9999   2.175   0.725   2.863
 3209SOL     OW10000   2.201   0.509   2.868
 3209SOL    HW110001   2.149   0.426   2.851
 3209SOL    HW210002   2.278   0.514   2.804
 3210SOL     OW10003   3.000   0.380   3.540
 3210SOL    HW110004   2.955   0.443   3.604
 3210SOL    HW210005   3.093   0.411   3.523
 3211SOL     OW10006   3.022   0.207   3.339
 3211SOL    HW110007   3.022   0.271   3.416
 3211SOL    HW210008   3.050   0.255   3.256
 3212SOL     OW10009   1.870   1.326   2.062
 3212SOL    HW110010   1.777   1.347   2.031
 3212SOL    HW210011   1.880   1.227   2.075
 3213SOL     OW10012   1.950   1.801   2.789
 3213SOL    HW110013   1.908   1.715   2.762
 3213SOL    HW210014   2.044   1.804   2.755
 3214SOL     OW10015   2.366   1.568   2.772
 3214SOL    HW110016   2.432   1.642   2.781
 3214SOL    HW210017   2.410   1.489   2.730
 3215SOL     OW10018   2.864   0.796   3.100
 3215SOL    HW110019   2.905   0.764   3.186
 3215SOL    HW210020   2.768   0.769   3.097
 3216SOL     OW10021   1.902   0.544   2.976
 3216SOL    HW110022   1.987   0.511   2.935
 3216SOL    HW210023   1.915   0.559   3.074
 3217SOL     OW10024   2.051   0.520   3.584
 3217SOL    HW110025   2.110   0.480   3.514
 3217SOL    HW210026   1.993   0.591   3.543
 3218SOL     OW10027   3.231   0.950   3.522
 3218SOL    HW110028   3.270   1.039   3.542
 3218SOL    HW210029   3.241   0.930   3.425
 3219SOL     OW10030   2.677   0.572   2.187
 3219SOL    HW110031   2.684   0.483   2.141
 3219SOL    HW210032   2.583   0.606   2.179
 3220SOL     OW10033   3.519   0.604   3.068
 3220SOL    HW110034   3.481   0.535   3.130
 3220SOL    HW210035   3.601   0.568   3.024
 3221SOL     OW10036   2.114   1.564   3.606
 3221SOL    HW110037   2.084   1.621   3.682
 3221SOL    HW210038   2.107   1.467   3.632
 3222SOL     OW10039   2.533   0.464   3.131
 3222SOL    HW110040   2.499   0.375   3.101
 3222SOL    HW210041   2.559   0.518   3.051
 3223SOL     OW10042   2.792   1.678   3.327
 3223SOL    HW110043   2.768   1.660   3.232
 3223SOL    HW210044   2.822   1.772   3.337
 3224SOL     OW10045   2.335   0.500   2.053
 3224SOL    HW110046   2.396   0.580   2.057
 3224SOL    HW210047   2.240   0.531   2.060
 3225SOL     OW10048   2.021   1.137   3.328
 3225SOL    HW110049   2.043   1.076   3.404
 3225SOL    HW210050   2.031   1.088   3.242
 3226SOL     OW10051   3.209   1.059   3.096
 3226SOL    HW110052   3.233   0.996   3.022
 3226SOL    HW210053   3.119   1.099   3.078
 3227SOL     OW10054   3.164   0.855   2.171
 3227SOL    HW110055   3.078   0.824   2.213
 3227SOL    HW210056   3.160   0.841   2.072
 3228SOL     OW10057   3.621   1.747   3.016
 3228SOL    HW110058   3.682   1.777   2.943
 3228SOL    HW210059   3.583   1.658   2.994
 3229SOL     OW10060   3.114   1.731   2.990
 3229SOL    HW110061   3.198   1.736   2.936
 3229SOL    HW210062   3.091   1.635   3.008
 3230SOL     OW10063   1.945   1.258   2.884
 3230SOL    HW110064   1.940   1.257   2.984
 3230SOL    HW210065   1.862   1.217   2.846
 3231SOL     OW10066   2.550   1.662   3.578
 3231SOL    HW110067   2.494   1.743   3.587
 3231SOL    HW210068   2.602   1.666   3.492
 3232SOL     OW10069   3.588   0.135   2.385
 3232SOL    HW110070   3.661   0.118   2.318
 3232SOL    HW210071   3.557   0.048   2.423
 3233SOL     OW10072   3.250   1.573   2.339
 3233SOL    HW110073   3.317   1.585   2.265
 3233SOL    HW210074   3.210   1.662   2.362
 3234SOL     OW10075   1.992   1.794   3.713
 3234SOL    HW110076   1.951   1.720   3.766
 3234SOL    HW210077   2.056   1.845   3.771
 3235SOL     OW10078   3.142   0.927   2.534
 3235SOL    HW110079   3.202   0.846   2.536
 3235SOL    HW210080   3.182   0.996   2.474
 3236SOL     OW10081   2.692   1.273   3.284
 3236SOL    HW110082   2.687   1.306   3.379
 3236SOL    HW210083   2.606   1.292   3.238
 3237SOL     OW10084   2.534   1.616   2.016
 3237SOL    HW110085   2.543   1.626   1.917
 3237SOL    HW210086   2.494   1.527   2.037
 3238SOL     OW10087   3.512   1.720   3.256
 3238SOL    HW110088   3.565   1.730   3.172
 3238SOL    HW210089   3.485   1.810   3.290
 3239SOL     OW10090   3.703   0.175   2.825
 3239SOL    HW110091   3.742   0.090   2.789
 3239SOL    HW210092   3.605   0.177   2.806
 3240SOL     OW10093   2.125   0.326   2.582
 3240SOL    HW110094   2.046   0.377   2.548
 3240SOL    HW210095   2.116   0.311   2.680
 3241SOL     OW10096   3.056   1.612   1.893
 3241SOL    HW110097   3.062   1.519   1.930
 3241SOL    HW210098   2.997   1.612   1.813
 3242SOL     OW10099   2.684   1.002   3.234
 3242SOL    HW110100   2.724   1.001   3.142
 3242SOL    HW210101   2.694   1.094   3.274
 3243SOL     OW10102   2.778   0.910   2.153
 3243SOL    HW110103   2.841   0.948   2.085
 3243SOL    HW210104   2.818   0.827   2.192
 3244SOL     OW10105   3.366   1.607   1.906
 3244SOL    HW110106   3.274   1.644   1.913
 3244SOL    HW210107   3.404   1.627   1.816
 3245SOL     OW10108   2.234   1.288   3.352
 3245SOL    HW110109   2.221   1.381   3.318
 3245SOL    HW210110   2.150   1.236   3.339
 3246SOL     OW10111   3.476   1.292   3.151
 3246SOL    HW110112   3.536   1.295   3.231
 3246SOL    HW210113   3.401   1.356   3.164
 3247SOL     OW10114   2.901   1.098   2.558
 3247SOL    HW110115   2.831   1.051   2.612
 3247SOL    HW210116   2.960   1.030   2.515
 3248SOL     OW10117   2.876   0.236   2.833
 3248SOL    HW110118   2.868   0.200   2.740
 3248SOL    HW210119   2.874   0.160   2.898
 3249SOL     OW10120   2.452   1.487   2.353
 3249SOL    HW110121   2.494   1.429   2.283
 3249SOL    HW210122   2.408   1.566   2.309
 3250SOL     OW10123   3.571   0.385   3.243
 3250SOL    HW110124   3.644   0.454   3.247
 3250SOL    HW210125   3.599   0.310   3.184
 3251SOL     OW10126   2.117   1.348   2.152
 3251SOL    HW110127   2.021   1.349   2.125
 3251SOL    HW210128   2.129   1.401   2.236
 3252SOL     OW10129   1.967   1.013   3.588
 3252SOL    HW110130   1.890   0.980   3.642
 3252SOL    HW210131   2.052   0.983   3.630
 3253SOL     OW10132   2.534   0.203   3.351
 3253SOL    HW110133   2.624   0.187   3.311
 3253SOL    HW210134   2.542   0.208   3.450
 3254SOL     OW10135   1.937   0.345   1.895
 3254SOL    HW110136   1.845   0.317   1.866
 3254SOL    HW210137   1.968   0.422   1.839
 3255SOL     OW10138   3.302   0.856   3.260
 3255SOL    HW110139   3.245   0.908   3.197
 3255SOL    HW210140   3.398   0.868   3.236
 3256SOL     OW10141   1.934   0.166   2.180
 3256SOL    HW110142   1.917   0.249   2.126
 3256SOL    HW210143   2.024   0.129   2.158
 3257SOL     OW10144   3.045   1.335   1.981
 3257SOL    HW110145   2.946   1.324   1.983
 3257SOL    HW210146   3.079   1.350   2.074
 3258SOL     OW10147   2.475   0.842   3.293
 3258SOL    HW110148   2.531   0.923   3.276
 3258SOL    HW210149   2.534   0.762   3.296
 3259SOL     OW10150   3.355   1.767   2.821
 3259SOL    HW110151   3.388   1.831   2.752
 3259SOL    HW210152   3.421   1.761   2.896
 3260SOL     OW10153   2.578   0.565   3.570
 3260SOL    HW110154   2.597   0.630   3.644
 3260SOL    HW210155   2.638   0.485   3.579
 3261SOL     OW10156   3.312   1.220   3.495
 3261SOL    HW110157   3.303   1.210   3.594
 3261SOL    HW210158   3.408   1.213   3.469
 3262SOL     OW10159   2.252   1.741   3.422
 3262SOL    HW110160   2.161   1.782   3.420
 3262SOL    HW210161   2.245   1.647   3.454
 3263SOL     OW10162   3.536   0.883   3.116
 3263SOL    HW110163   3.509   0.794   3.079
 3263SOL    HW210164   3.537   0.951   3.043
 3264SOL     OW10165   3.087   0.325   2.311
 3264SOL    HW110166   3.152   0.251   2.300
 3264SOL    HW210167   3.107   0.375   2.395
 3265SOL     OW10168   2.456   0.745   2.514
 3265SOL    HW110169   2.506   0.830   2.495
 3265SOL    HW210170   2.368   0.747   2.466
 3266SOL     OW10171   3.639   0.342   3.504
 3266SOL    HW110172   3.622   0.373   3.410
 3266SOL    HW210173   3.555   0.305   3.542
 3267SOL     OW10174   3.592   0.934   3.379
 3267SOL    HW110175   3.630   1.025   3.394
 3267SOL    HW210176   3.584   0.917   3.280
 3268SOL     OW10177   2.721   1.374   1.878
 3268SOL    HW110178   2.675   1.389   1.966
 3268SOL    HW210179   2.765   1.459   1.848
 3269SOL     OW10180   2.523   1.790   2.815
 3269SOL    HW110181   2.477   1.878   2.802
 3269SOL    HW210182   2.622   1.802   2.808
 3270SOL     OW10183   2.721   0.956   2.723
 3270SOL    HW110184   2.775   0.887   2.771
 3270SOL    HW210185   2.689   1.025   2.789
 3271SOL     OW10186   2.945   0.984   1.949
 3271SOL    HW110187   2.922   1.037   1.867
 3271SOL    HW210188   3.026   0.928   1.930
 3272SOL     OW10189   3.723   1.569   2.713
 3272SOL    HW110190   3.652   1.557   2.643
 3272SOL    HW210191   3.724   1.490   2.773
 3273SOL     OW10192   2.083   1.314   3.706
 3273SOL    HW110193   2.018   1.241   3.685
 3273SOL    HW210194   2.087   1.328   3.804
 3274SOL     OW10195   1.941   1.240   2.515
 3274SOL    HW110196   1.940   1.193   2.603
 3274SOL    HW210197   2.023   1.212   2.464
 3275SOL     OW10198   2.534   1.391   3.486
 3275SOL    HW110199   2.456   1.341   3.524
 3275SOL    HW210200   2.531   1.486   3.517
 3276SOL     OW10201   3.686   0.192   3.089
 3276SOL    HW110202   3.682   0.102   3.133
 3276SOL    HW210203   3.689   0.181   2.990
 3277SOL     OW10204   2.290   0.424   2.382
 3277SOL    HW110205   2.320   0.352   2.320
 3277SOL    HW210206   2.251   0.384   2.465
 3278SOL     OW10207   3.567   1.487   2.966
 3278SOL    HW110208   3.474   1.462   2.939
 3278SOL    HW210209   3.593   1.437   3.048
 3279SOL     OW10210   2.179   0.547   3.142
 3279SOL    HW110211   2.217   0.488   3.214
 3279SOL    HW210212   2.219   0.521   3.054
 3280SOL     OW10213   2.674   1.586   2.549
 3280SOL    HW110214   2.706   1.596   2.455
 3280SOL    HW210215   2.595   1.524   2.551
 3281SOL     OW10216   3.286   0.214   2.974
 3281SOL    HW110217   3.338   0.149   3.029
 3281SOL    HW210218   3.237   0.277   3.035
 3282SOL     OW10219   2.863   0.034   3.016
 3282SOL    HW110220   2.800  -0.038   2.985
 3282SOL    HW210221   2.956  -0.002   3.016
 3283SOL     OW10222   2.632   1.330   2.163
 3283SOL    HW110223   2.586   1.243   2.180
 3283SOL    HW210224   2.723   1.327   2.204
 3284SOL     OW10225   2.480   1.567   3.146
 3284SOL    HW110226   2.475   1.649   3.203
 3284SOL    HW210227   2.569   1.564   3.101
 3285SOL     OW10228   3.214   0.052   2.030
 3285SOL    HW110229   3.249   0.011   1.946
 3285SOL    HW210230   3.124   0.014   2.050
 3286SOL     OW10231   3.162   0.453   2.553
 3286SOL    HW110232   3.103   0.533   2.557
 3286SOL    HW210233   3.177   0.418   2.646
 3287SOL     OW10234   3.455   0.221   2.744
 3287SOL    HW110235   3.371   0.220   2.798
 3287SOL    HW210236   3.457   0.304   2.688
 3288SOL     OW10237   1.901   1.077   2.162
 3288SOL    HW110238   2.000   1.066   2.153
 3288SOL    HW210239   1.861   0.991   2.194
 3289SOL     OW10240   2.737   1.646   2.199
 3289SOL    HW110241   2.660   1.611   2.145
 3289SOL    HW210242   2.705   1.717   2.261
 3290SOL     OW10243   2.092   0.628   3.837
 3290SOL    HW110244   1.999   0.626   3.874
 3290SOL    HW210245   2.093   0.589   3.745
 3291SOL     OW10246   2.087   0.275   4.720
 3291SOL    HW110247   2.122   0.258   4.812
 3291SOL    HW210248   1.999   0.230   4.708
 3292SOL     OW10249   1.881   0.368   4.371
 3292SOL    HW110250   1.799   0.411   4.410
 3292SOL    HW210251   1.853   0.295   4.308
 3293SOL     OW10252   2.431   1.275   4.889
 3293SOL    HW110253   2.338   1.268   4.852
 3293SOL    HW210254   2.442   1.364   4.933
 3294SOL     OW10255   3.417   1.511   4.427
 3294SOL    HW110256   3.360   1.495   4.508
 3294SOL    HW210257   3.358   1.521   4.347
 3295SOL     OW10258   2.997   0.703   4.441
 3295SOL    HW110259   3.054   0.781   4.416
 3295SOL    HW210260   2.937   0.729   4.517
 3296SOL     OW10261   3.617   0.607   3.955
 3296SOL    HW110262   3.605   0.594   3.856
 3296SOL    HW210263   3.587   0.526   4.004
 3297SOL     OW10264   2.630   1.144   4.747
 3297SOL    HW110265   2.552   1.161   4.807
 3297SOL    HW210266   2.664   1.231   4.711
 3298SOL     OW10267   2.712   0.798   5.547
 3298SOL    HW110268   2.708   0.874   5.612
 3298SOL    HW210269   2.734   0.834   5.456
 3299SOL     OW10270   2.547   1.012   4.389
 3299SOL    HW110271   2.616   0.996   4.459
 3299SOL    HW210272   2.474   1.069   4.427
 3300SOL     OW10273   2.548   1.161   5.527
 3300SOL    HW110274   2.608   1.240   5.541
 3300SOL    HW210275   2.462   1.192   5.486
 3301SOL     OW10276   2.197   1.435   4.785
 3301SOL    HW110277   2.119   1.404   4.732
 3301SOL    HW210278   2.255   1.493   4.728
 3302SOL     OW10279   3.322   1.505   5.063
 3302SOL    HW110280   3.346   1.599   5.089
 3302SOL    HW210281   3.306   1.451   5.145
 3303SOL     OW10282   2.300   0.392   5.223
 3303SOL    HW110283   2.382   0.336   5.232
 3303SOL    HW210284   2.219   0.334   5.227
 3304SOL     OW10285   3.465   0.447   4.461
 3304SOL    HW110286   3.391   0.493   4.411
 3304SOL    HW210287   3.516   0.515   4.514
 3305SOL     OW10288   2.093   1.713   4.207
 3305SOL    HW110289   2.127   1.790   4.261
 3305SOL    HW210290   2.137   1.713   4.117
 3306SOL     OW10291   2.989   1.341   5.414
 3306SOL    HW110292   3.036   1.341   5.502
 3306SOL    HW210293   2.941   1.254   5.403
 3307SOL     OW10294   2.092   1.434   4.262
 3307SOL    HW110295   2.066   1.530   4.262
 3307SOL    HW210296   2.021   1.380   4.307
 3308SOL     OW10297   2.102   1.091   4.610
 3308SOL    HW110298   2.116   1.007   4.662
 3308SOL    HW210299   2.047   1.155   4.665
 3309SOL     OW10300   2.468   0.964   3.847
 3309SOL    HW110301   2.475   1.048   3.793
 3309SOL    HW210302   2.514   0.977   3.935
 3310SOL     OW10303   3.456   0.114   5.204
 3310SOL    HW110304   3.438   0.181   5.132
 3310SOL    HW210305   3.453   0.160   5.293
 3311SOL     OW10306   1.984   0.643   4.287
 3311SOL    HW110307   1.939   0.555   4.304
 3311SOL    HW210308   1.983   0.697   4.371
 3312SOL     OW10309   3.704   1.767   4.083
 3312SOL    HW110310   3.758   1.738   4.163
 3312SOL    HW210311   3.734   1.857   4.054
 3313SOL     OW10312   1.889   1.596   3.841
 3313SOL    HW110313   1.870   1.500   3.862
 3313SOL    HW210314   1.856   1.654   3.916
 3314SOL     OW10315   3.551   0.922   4.336
 3314SOL    HW110316   3.646   0.893   4.344
 3314SOL    HW210317   3.543   0.987   4.261
 3315SOL     OW10318   3.503   1.108   4.156
 3315SOL    HW110319   3.589   1.110   4.104
 3315SOL    HW210320   3.517   1.155   4.244
 3316SOL     OW10321   1.975   0.737   5.321
 3316SOL    HW110322   2.063   0.724   5.366
 3316SOL    HW210323   1.962   0.834   5.299
 3317SOL     OW10324   2.475   1.365   4.450
 3317SOL    HW110325   2.426   1.278   4.459
 3317SOL    HW210326   2.452   1.408   4.363
 3318SOL     OW10327   3.155   1.228   5.147
 3318SOL    HW110328   3.192   1.155   5.089
 3318SOL    HW210329   3.207   1.233   5.232
 3319SOL     OW10330   2.671   0.004   4.226
 3319SOL    HW110331   2.711   0.095   4.217
 3319SOL    HW210332   2.571   0.012   4.232
 3320SOL     OW10333   2.059   0.976   4.988
 3320SOL    HW110334   2.148   0.931   4.974
 3320SOL    HW210335   1.986   0.911   4.969
 3321SOL     OW10336   3.387   0.999   3.914
 3321SOL    HW110337   3.324   0.923   3.927
 3321SOL    HW210338   3.435   1.017   4.000
 3322SOL     OW10339   2.179   0.251   5.525
 3322SOL    HW110340   2.250   0.322   5.531
 3322SOL    HW210341   2.091   0.290   5.553
 3323SOL     OW10342   3.328   1.417   4.677
 3323SOL    HW110343   3.269   1.423   4.757
 3323SOL    HW210344   3.313   1.329   4.631
 3324SOL     OW10345   3.529   1.714   4.296
 3324SOL    HW110346   3.488   1.691   4.208
 3324SOL    HW210347   3.511   1.640   4.361
 3325SOL     OW10348   2.460   0.729   3.994
 3325SOL    HW110349   2.484   0.798   3.926
 3325SOL    HW210350   2.382   0.762   4.048
 3326SOL     OW10351   3.143   0.345   4.668
 3326SOL    HW110352   3.057   0.295   4.655
 3326SOL    HW210353   3.205   0.291   4.724
 3327SOL     OW10354   3.438   1.662   4.031
 3327SOL    HW110355   3.527   1.708   4.034
 3327SOL    HW210356   3.417   1.638   3.936
 3328SOL     OW10357   2.669   0.605   5.189
 3328SOL    HW110358   2.622   0.602   5.278
 3328SOL    HW210359   2.618   0.550   5.123
 3329SOL     OW10360   3.256   0.469   5.398
 3329SOL    HW110361   3.236   0.512   5.486
 3329SOL    HW210362   3.334   0.407   5.407
 3330SOL     OW10363   2.835   0.890   5.296
 3330SOL    HW110364   2.881   0.806   5.267
 3330SOL    HW210365   2.779   0.924   5.221
 3331SOL     OW10366   2.853   0.410   4.966
 3331SOL    HW110367   2.776   0.444   5.020
 3331SOL    HW210368   2.819   0.359   4.887
 3332SOL     OW10369   2.903   0.701   4.153
 3332SOL    HW110370   2.929   0.697   4.249
 3332SOL    HW210371   2.818   0.650   4.139
 3333SOL     OW10372   1.938   0.811   4.513
 3333SOL    HW110373   2.037   0.799   4.522
 3333SOL    HW210374   1.914   0.906   4.534
 3334SOL     OW10375   2.727   0.348   3.919
 3334SOL    HW110376   2.786   0.411   3.870
 3334SOL    HW210377   2.746   0.254   3.890
 3335SOL     OW10378   3.581   0.585   5.555
 3335SOL    HW110379   3.555   0.674   5.519
 3335SOL    HW210380   3.579   0.517   5.482
 3336SOL     OW10381   3.224   1.144   4.269
 3336SOL    HW110382   3.307   1.115   4.221
 3336SOL    HW210383   3.175   1.211   4.213
 3337SOL     OW10384   2.412   0.196   4.609
 3337SOL    HW110385   2.407   0.191   4.709
 3337SOL    HW210386   2.414   0.292   4.580
 3338SOL     OW10387   2.870   1.456   4.201
 3338SOL    HW110388   2.824   1.528   4.149
 3338SOL    HW210389   2.866   1.476   4.299
 3339SOL     OW10390   2.213   1.801   4.577
 3339SOL    HW110391   2.263   1.715   4.583
 3339SOL    HW210392   2.278   1.878   4.574
 3340SOL     OW10393   3.657   1.066   4.597
 3340SOL    HW110394   3.595   1.051   4.521
 3340SOL    HW210395   3.605   1.077   4.682
 3341SOL     OW10396   3.089   1.550   5.230
 3341SOL    HW110397   3.095   1.473   5.294
 3341SOL    HW210398   3.037   1.524   5.150
 3342SOL     OW10399   2.183   0.943   3.966
 3342SOL    HW110400   2.265   0.982   3.924
 3342SOL    HW210401   2.156   0.861   3.917
 3343SOL     OW10402   3.320   0.735   4.452
 3343SOL    HW110403   3.315   0.670   4.527
 3343SOL    HW210404   3.400   0.794   4.465
 3344SOL     OW10405   2.323   1.266   5.451
 3344SOL    HW110406   2.273   1.267   5.365
 3344SOL    HW210407   2.260   1.248   5.527
 3345SOL     OW10408   2.973   1.776   3.961
 3345SOL    HW110409   2.913   1.714   4.011
 3345SOL    HW210410   3.004   1.732   3.876
 3346SOL     OW10411   2.064   0.285   5.222
 3346SOL    HW110412   1.984   0.345   5.209
 3346SOL    HW210413   2.054   0.236   5.308
 3347SOL     OW10414   3.494   1.377   3.805
 3347SOL    HW110415   3.462   1.471   3.795
 3347SOL    HW210416   3.418   1.314   3.793
 3348SOL     OW10417   2.326   1.743   4.047
 3348SOL    HW110418   2.359   1.782   4.133
 3348SOL    HW210419   2.402   1.736   3.982
 3349SOL     OW10420   3.262   0.107   4.150
 3349SOL    HW110421   3.238   0.070   4.060
 3349SOL    HW210422   3.361   0.123   4.154
 3350SOL     OW10423   2.802   1.698   4.628
 3350SOL    HW110424   2.882   1.641   4.649
 3350SOL    HW210425   2.753   1.658   4.551
 3351SOL     OW10426   2.244   0.700   4.204
 3351SOL    HW110427   2.289   0.610   4.201
 3351SOL    HW210428   2.150   0.689   4.237
 3352SOL     OW10429   3.409   0.222   5.453
 3352SOL    HW110430   3.404   0.259   5.545
 3352SOL    HW210431   3.337   0.153   5.441
 3353SOL     OW10432   2.476   0.122   3.841
 3353SOL    HW110433   2.574   0.100   3.848
 3353SOL    HW210434   2.445   0.105   3.748
 3354SOL     OW10435   2.643   0.264   5.473
 3354SOL    HW110436   2.710   0.203   5.516
 3354SOL    HW210437   2.570   0.283   5.538
 3355SOL     OW10438   2.750   1.514   4.919
 3355SOL    HW110439   2.727   1.489   4.825
 3355SOL    HW210440   2.811   1.445   4.958
 3356SOL     OW10441   3.213   0.590   5.157
 3356SOL    HW110442   3.241   0.547   5.242
 3356SOL    HW210443   3.238   0.686   5.158
 3357SOL     OW10444   2.665   1.402   4.648
 3357SOL    HW110445   2.755   1.416   4.606
 3357SOL    HW210446   2.594   1.404   4.577
 3358SOL     OW10447   2.784   0.503   4.623
 3358SOL    HW110448   2.759   0.494   4.527
 3358SOL    HW210449   2.832   0.421   4.654
 3359SOL     OW10450   2.401   0.064   4.236
 3359SOL    HW110451   2.320   0.065   4.294
 3359SOL    HW210452   2.404   0.147   4.181
 3360SOL     OW10453   3.296   1.188   3.765
 3360SOL    HW110454   3.328   1.112   3.822
 3360SOL    HW210455   3.204   1.215   3.795
 3361SOL     OW10456   2.159   0.035   3.895
 3361SOL    HW110457   2.208   0.119   3.874
 3361SOL    HW210458   2.221  -0.030   3.940
 3362SOL     OW10459   2.797   0.236   4.204
 3362SOL    HW110460   2.749   0.277   4.126
 3362SOL    HW210461   2.896   0.234   4.185
 3363SOL     OW10462   2.938   0.683   5.188
 3363SOL    HW110463   2.858   0.622   5.191
 3363SOL    HW210464   3.019   0.630   5.164
 3364SOL     OW10465   3.089   1.570   4.517
 3364SOL    HW110466   3.110   1.644   4.452
 3364SOL    HW210467   3.157   1.570   4.590
 3365SOL     OW10468   2.321   1.152   4.465
 3365SOL    HW110469   2.250   1.125   4.530
 3365SOL    HW210470   2.295   1.124   4.372
 3366SOL     OW10471   3.133   1.797   4.315
 3366SOL    HW110472   3.177   1.861   4.251
 3366SOL    HW210473   3.083   1.849   4.385
 3367SOL     OW10474   2.894   0.549   3.740
 3367SOL    HW110475   2.853   0.631   3.701
 3367SOL    HW210476   2.958   0.575   3.813
 3368SOL     OW10477   1.940   0.556   5.110
 3368SOL    HW110478   2.032   0.555   5.069
 3368SOL    HW210479   1.934   0.630   5.177
 3369SOL     OW10480   2.423   0.222   4.871
 3369SOL    HW110481   2.461   0.138   4.908
 3369SOL    HW210482   2.335   0.241   4.915
 3370SOL     OW10483   2.728   0.454   4.366
 3370SOL    HW110484   2.696   0.526   4.304
 3370SOL    HW210485   2.752   0.373   4.313
 3371SOL     OW10486   2.879   0.039   4.477
 3371SOL    HW110487   2.807   0.044   4.408
 3371SOL    HW210488   2.855  -0.030   4.546
 3372SOL     OW10489   3.291   1.173   4.591
 3372SOL    HW110490   3.236   1.089   4.584
 3372SOL    HW210491   3.317   1.202   4.499
 3373SOL     OW10492   3.328   0.590   4.716
 3373SOL    HW110493   3.298   0.495   4.723
 3373SOL    HW210494   3.401   0.606   4.782
 3374SOL     OW10495   3.719   0.833   4.101
 3374SOL    HW110496   3.761   0.769   4.165
 3374SOL    HW210497   3.681   0.782   4.023
 3375SOL     OW10498   2.350   1.385   3.898
 3375SOL    HW110499   2.263   1.370   3.945
 3375SOL    HW210500   2.333   1.411   3.803
 3376SOL     OW10501   3.526   1.280   4.381
 3376SOL    HW110502   3.625   1.288   4.395
 3376SOL    HW210503   3.481   1.364   4.412
 3377SOL     OW10504   3.252   0.575   3.802
 3377SOL    HW110505   3.198   0.554   3.883
 3377SOL    HW210506   3.343   0.534   3.811
 3378SOL     OW10507   2.389   0.256   4.052
 3378SOL    HW110508   2.416   0.197   3.977
 3378SOL    HW210509   2.389   0.351   4.021
 3379SOL     OW10510   3.616   1.223   5.312
 3379SOL    HW110511   3.707   1.184   5.299
 3379SOL    HW210512   3.624   1.319   5.336
 3380SOL     OW10513   2.926   1.347   5.064
 3380SOL    HW110514   2.846   1.324   5.119
 3380SOL    HW210515   3.009   1.321   5.113
 3381SOL     OW10516   3.454   1.629   5.349
 3381SOL    HW110517   3.481   1.663   5.259
 3381SOL    HW210518   3.533   1.591   5.395
 3382SOL     OW10519   2.973   1.195   4.824
 3382SOL    HW110520   2.933   1.239   4.905
 3382SOL    HW210521   2.932   1.232   4.741
 3383SOL     OW10522   3.500   1.099   4.803
 3383SOL    HW110523   3.505   1.180   4.862
 3383SOL    HW210524   3.414   1.101   4.752
 3384SOL     OW10525   2.777   0.089   5.126
 3384SOL    HW110526   2.802   0.069   5.031
 3384SOL    HW210527   2.849   0.145   5.168
 3385SOL     OW10528   2.842   1.116   5.443
 3385SOL    HW110529   2.743   1.122   5.453
 3385SOL    HW210530   2.865   1.036   5.387
 3386SOL     OW10531   2.567   1.050   4.092
 3386SOL    HW110532   2.553   1.057   4.191
 3386SOL    HW210533   2.651   0.999   4.074
 3387SOL     OW10534   2.272   0.813   4.975
 3387SOL    HW110535   2.358   0.825   5.025
 3387SOL    HW210536   2.230   0.726   5.002
 3388SOL     OW10537   3.136   0.386   4.986
 3388SOL    HW110538   3.157   0.460   5.050
 3388SOL    HW210539   3.047   0.403   4.943
 3389SOL     OW10540   1.926   1.564   5.055
 3389SOL    HW110541   1.880   1.646   5.021
 3389SOL    HW210542   2.024   1.583   5.064
 3390SOL     OW10543   2.229   1.100   4.225
 3390SOL    HW110544   2.222   1.183   4.169
 3390SOL    HW210545   2.233   1.020   4.165
 3391SOL     OW10546   2.428   0.537   4.589
 3391SOL    HW110547   2.440   0.603   4.515
 3391SOL    HW210548   2.474   0.571   4.672
 3392SOL     OW10549   3.114   1.348   4.112
 3392SOL    HW110550   3.164   1.425   4.152
 3392SOL    HW210551   3.019   1.350   4.144
 3393SOL     OW10552   3.134   1.445   4.866
 3393SOL    HW110553   3.181   1.458   4.953
 3393SOL    HW210554   3.068   1.371   4.875
 3394SOL     OW10555   3.444   0.639   4.196
 3394SOL    HW110556   3.413   0.700   4.269
 3394SOL    HW210557   3.494   0.691   4.127
 3395SOL     OW10558   2.264   0.751   5.322
 3395SOL    HW110559   2.332   0.806   5.275
 3395SOL    HW210560   2.304   0.663   5.349
 3396SOL     OW10561   3.449   0.779   5.394
 3396SOL    HW110562   3.357   0.817   5.389
 3396SOL    HW210563   3.509   0.826   5.329
 3397SOL     OW10564   2.875   0.105   5.494
 3397SOL    HW110565   2.881   0.190   5.442
 3397SOL    HW210566   2.907   0.029   5.437
 3398SOL     OW10567   2.366   0.050   5.464
 3398SOL    HW110568   2.324  -0.007   5.394
 3398SOL    HW210569   2.300   0.119   5.496
 3399SOL     OW10570   2.435   0.870   4.753
 3399SOL    HW110571   2.479   0.959   4.744
 3399SOL    HW210572   2.372   0.870   4.830
 3400SOL     OW10573   3.222   0.862   4.769
 3400SOL    HW110574   3.147   0.862   4.703
 3400SOL    HW210575   3.259   0.770   4.778
 3401SOL     OW10576   3.071   0.525   3.999
 3401SOL    HW110577   3.084   0.441   4.053
 3401SOL    HW210578   3.042   0.599   4.059
 3402SOL     OW10579   2.169   0.213   4.955
 3402SOL    HW110580   2.146   0.250   5.045
 3402SOL    HW210581   2.139   0.118   4.949
 3403SOL     OW10582   1.899   1.310   5.006
 3403SOL    HW110583   1.952   1.261   5.074
 3403SOL    HW210584   1.921   1.408   5.011
 3404SOL     OW10585   2.594   0.634   4.788
 3404SOL    HW110586   2.653   0.608   4.712
 3404SOL    HW210587   2.566   0.730   4.777
 3405SOL     OW10588   3.590   0.935   5.578
 3405SOL    HW110589   3.544   0.928   5.489
 3405SOL    HW210590   3.528   0.979   5.644
 3406SOL     OW10591   2.169   0.063   4.342
 3406SOL    HW110592   2.158   0.157   4.375
 3406SOL    HW210593   2.164   0.000   4.419
 3407SOL     OW10594   3.484   0.367   4.098
 3407SOL    HW110595   3.486   0.291   4.162
 3407SOL    HW210596   3.436   0.444   4.138
 3408SOL     OW10597   2.885   0.766   4.690
 3408SOL    HW110598   2.900   0.787   4.786
 3408SOL    HW210599   2.855   0.671   4.681
 3409SOL     OW10600   2.842   1.573   5.424
 3409SOL    HW110601   2.822   1.617   5.336
 3409SOL    HW210602   2.881   1.482   5.408
 3410SOL     OW10603   3.721   1.518   5.329
 3410SOL    HW110604   3.735   1.545   5.234
 3410SOL    HW210605   3.804   1.540   5.382
 3411SOL     OW10606   2.212   0.898   5.528
 3411SOL    HW110607   2.288   0.942   5.576
 3411SOL    HW210608   2.247   0.851   5.446
 3412SOL     OW10609   3.402   0.274   3.849
 3412SOL    HW110610   3.341   0.199   3.872
 3412SOL    HW210611   3.424   0.326   3.932
 3413SOL     OW10612   3.165   0.838   3.766
 3413SOL    HW110613   3.199   0.745   3.781
 3413SOL    HW210614   3.183   0.865   3.671
 3414SOL     OW10615   2.930   1.333   4.573
 3414SOL    HW110616   2.937   1.249   4.518
 3414SOL    HW210617   2.992   1.402   4.537
 3415SOL     OW10618   2.181   0.810   4.673
 3415SOL    HW110619   2.274   0.846   4.678
 3415SOL    HW210620   2.175   0.725   4.725
 3416SOL     OW10621   2.201   0.509   4.730
 3416SOL    HW110622   2.149   0.426   4.713
 3416SOL    HW210623   2.278   0.514   4.666
 3417SOL     OW10624   3.000   0.380   5.402
 3417SOL    HW110625   2.955   0.443   5.466
 3417SOL    HW210626   3.093   0.411   5.385
 3418SOL     OW10627   3.022   0.207   5.201
 3418SOL    HW110628   3.022   0.271   5.278
 3418SOL    HW210629   3.050   0.255   5.118
 3419SOL     OW10630   1.870   1.326   3.924
 3419SOL    HW110631   1.777   1.347   3.893
 3419SOL    HW210632   1.880   1.227   3.937
 3420SOL     OW10633   2.366   1.568   4.634
 3420SOL    HW110634   2.432   1.642   4.643
 3420SOL    HW210635   2.410   1.489   4.592
 3421SOL     OW10636   2.864   0.796   4.962
 3421SOL    HW110637   2.905   0.764   5.048
 3421SOL    HW210638   2.768   0.769   4.959
 3422SOL     OW10639   1.902   0.544   4.838
 3422SOL    HW110640   1.987   0.511   4.797
 3422SOL    HW210641   1.915   0.559   4.936
 3423SOL     OW10642   2.051   0.520   5.446
 3423SOL    HW110643   2.110   0.480   5.376
 3423SOL    HW210644   1.993   0.591   5.405
 3424SOL     OW10645   3.231   0.950   5.384
 3424SOL    HW110646   3.270   1.039   5.404
 3424SOL    HW210647   3.241   0.930   5.287
 3425SOL     OW10648   2.677   0.572   4.049
 3425SOL    HW110649   2.684   0.483   4.003
 3425SOL    HW210650   2.583   0.606   4.041
 3426SOL     OW10651   3.519   0.604   4.930
 3426SOL    HW110652   3.481   0.535   4.992
 3426SOL    HW210653   3.601   0.568   4.886
 3427SOL     OW10654   2.114   1.564   5.468
 3427SOL    HW110655   2.084   1.621   5.544
 3427SOL    HW210656   2.107   1.467   5.494
 3428SOL     OW10657   2.533   0.464   4.993
 3428SOL    HW110658   2.499   0.375   4.963
 3428SOL    HW210659   2.559   0.518   4.913
 3429SOL     OW10660   2.335   0.500   3.915
 3429SOL    HW110661   2.396   0.580   3.919
 3429SOL    HW210662   2.240   0.531   3.922
 3430SOL     OW10663   2.021   1.137   5.190
 3430SOL    HW110664   2.043   1.076   5.266
 3430SOL    HW210665   2.031   1.088   5.104
 3431SOL     OW10666   3.209   1.059   4.958
 3431SOL    HW110667   3.233   0.996   4.884
 3431SOL    HW210668   3.119   1.099   4.940
 3432SOL     OW10669   3.164   0.855   4.033
 3432SOL    HW110670   3.078   0.824   4.075
 3432SOL    HW210671   3.160   0.841   3.934
 3433SOL     OW10672   3.621   1.747   4.878
 3433SOL    HW110673   3.682   1.777   4.805
 3433SOL    HW210674   3.583   1.658   4.856
 3434SOL     OW10675   3.114   1.731   4.852
 3434SOL    HW110676   3.198   1.736   4.798
 3434SOL    HW210677   3.091   1.635   4.870
 3435SOL     OW10678   1.945   1.258   4.746
 3435SOL    HW110679   1.940   1.257   4.846
 3435SOL    HW210680   1.862   1.217   4.708
 3436SOL     OW10681   2.550   1.662   5.440
 3436SOL    HW110682   2.494   1.743   5.449
 3436SOL    HW210683   2.602   1.666   5.354
 3437SOL     OW10684   3.588   0.135   4.247
 3437SOL    HW110685   3.661   0.118   4.180
 3437SOL    HW210686   3.557   0.048   4.285
 3438SOL     OW10687   3.250   1.573   4.201
 3438SOL    HW110688   3.317   1.585   4.127
 3438SOL    HW210689   3.210   1.662   4.224
 3439SOL     OW10690   1.992   1.794   5.575
 3439SOL    HW110691   1.951   1.720   5.628
 3439SOL    HW210692   2.056   1.845   5.633
 3440SOL     OW10693   3.142   0.927   4.396
 3440SOL    HW110694   3.202   0.846   4.398
 3440SOL    HW210695   3.182   0.996   4.336
 3441SOL     OW10696   2.692   1.273   5.146
 3441SOL    HW110697   2.687   1.306   5.241
 3441SOL    HW210698   2.606   1.292   5.100
 3442SOL     OW10699   2.534   1.616   3.878
 3442SOL    HW110700   2.543   1.626   3.779
 3442SOL    HW210701   2.494   1.527   3.899
 3443SOL     OW10702   3.512   1.720   5.118
 3443SOL    HW110703   3.565   1.730   5.034
 3443SOL    HW210704   3.485   1.810   5.152
 3444SOL     OW10705   3.703   0.175   4.687
 3444SOL    HW110706   3.742   0.090   4.651
 3444SOL    HW210707   3.605   0.177   4.668
 3445SOL     OW10708   2.125   0.326   4.444
 3445SOL    HW110709   2.046   0.377   4.410
 3445SOL    HW210710   2.116   0.311   4.542
 3446SOL     OW10711   3.056   1.612   3.755
 3446SOL    HW110712   3.062   1.519   3.792
 3446SOL    HW210713   2.997   1.612   3.675
 3447SOL     OW10714   2.684   1.002   5.096
 3447SOL    HW110715   2.724   1.001   5.004
 3447SOL    HW210716   2.694   1.094   5.136
 3448SOL     OW10717   2.778   0.910   4.015
 3448SOL    HW110718   2.841   0.948   3.947
 3448SOL    HW210719   2.818   0.827   4.054
 3449SOL     OW10720   3.366   1.607   3.768
 3449SOL    HW110721   3.274   1.644   3.775
 3449SOL    HW210722   3.404   1.627   3.678
 3450SOL     OW10723   2.234   1.288   5.214
 3450SOL    HW110724   2.221   1.381   5.180
 3450SOL    HW210725   2.150   1.236   5.201
 3451SOL     OW10726   3.476   1.292   5.013
 3451SOL    HW110727   3.536   1.295   5.093
 3451SOL    HW210728   3.401   1.356   5.026
 3452SOL     OW10729   2.901   1.098   4.420
 3452SOL    HW110730   2.831   1.051   4.474
 3452SOL    HW210731   2.960   1.030   4.377
 3453SOL     OW10732   2.876   0.236   4.695
 3453SOL    HW110733   2.868   0.200   4.602
 3453SOL    HW210734   2.874   0.160   4.760
 3454SOL     OW10735   2.452   1.487   4.215
 3454SOL    HW110736   2.494   1.429   4.145
 3454SOL    HW210737   2.408   1.566   4.171
 3455SOL     OW10738   3.571   0.385   5.105
 3455SOL    HW110739   3.644   0.454   5.109
 3455SOL    HW210740   3.599   0.310   5.046
 3456SOL     OW10741   2.117   1.348   4.014
 3456SOL    HW110742   2.021   1.349   3.987
 3456SOL    HW210743   2.129   1.401   4.098
 3457SOL     OW10744   1.967   1.013   5.450
 3457SOL    HW110745   1.890   0.980   5.504
 3457SOL    HW210746   2.052   0.983   5.492
 3458SOL     OW10747   2.534   0.203   5.213
 3458SOL    HW110748   2.624   0.187   5.173
 3458SOL    HW210749   2.542   0.208   5.312
 3459SOL     OW10750   1.937   0.345   3.757
 3459SOL    HW110751   1.845   0.317   3.728
 3459SOL    HW210752   1.968   0.422   3.701
 3460SOL     OW10753   3.302   0.856   5.122
 3460SOL    HW110754   3.245   0.908   5.059
 3460SOL    HW210755   3.398   0.868   5.098
 3461SOL     OW10756   1.934   0.166   4.042
 3461SOL    HW110757   1.917   0.249   3.988
 3461SOL    HW210758   2.024   0.129   4.020
 3462SOL     OW10759   3.045   1.335   3.843
 3462SOL    HW110760   2.946   1.324   3.845
 3462SOL    HW210761   3.079   1.350   3.936
 3463SOL     OW10762   2.475   0.842   5.155
 3463SOL    HW110763   2.531   0.923   5.138
 3463SOL    HW210764   2.534   0.762   5.158
 3464SOL     OW10765   3.355   1.767   4.683
 3464SOL    HW110766   3.388   1.831   4.614
 3464SOL    HW210767   3.421   1.761   4.758
 3465SOL     OW10768   2.578   0.565   5.432
 3465SOL    HW110769   2.597   0.630   5.506
 3465SOL    HW210770   2.638   0.485   5.441
 3466SOL     OW10771   3.312   1.220   5.357
 3466SOL    HW110772   3.303   1.210   5.456
 3466SOL    HW210773   3.408   1.213   5.331
 3467SOL     OW10774   3.536   0.883   4.978
 3467SOL    HW110775   3.509   0.794   4.941
 3467SOL    HW210776   3.537   0.951   4.905
 3468SOL     OW10777   3.087   0.325   4.173
 3468SOL    HW110778   3.152   0.251   4.162
 3468SOL    HW210779   3.107   0.375   4.257
 3469SOL     OW10780   2.456   0.745   4.376
 3469SOL    HW110781   2.506   0.830   4.357
 3469SOL    HW210782   2.368   0.747   4.328
 3470SOL     OW10783   3.639   0.342   5.366
 3470SOL    HW110784   3.622   0.373   5.272
 3470SOL    HW210785   3.555   0.305   5.404
 3471SOL     OW10786   3.592   0.934   5.241
 3471SOL    HW110787   3.630   1.025   5.256
 3471SOL    HW210788   3.584   0.917   5.142
 3472SOL     OW10789   2.721   1.374   3.740
 3472SOL    HW110790   2.675   1.389   3.828
 3472SOL    HW210791   2.765   1.459   3.710
 3473SOL     OW10792   2.523   1.790   4.677
 3473SOL    HW110793   2.477   1.878   4.664
 3473SOL    HW210794   2.622   1.802   4.670
 3474SOL     OW10795   2.721   0.956   4.585
 3474SOL    HW110796   2.775   0.887   4.633
 3474SOL    HW210797   2.689   1.025   4.651
 3475SOL     OW10798   2.945   0.984   3.811
 3475SOL    HW110799   2.922   1.037   3.729
 3475SOL    HW210800   3.026   0.928   3.792
 3476SOL     OW10801   3.723   1.569   4.575
 3476SOL    HW110802   3.652   1.557   4.505
 3476SOL    HW210803   3.724   1.490   4.635
 3477SOL     OW10804   2.083   1.314   5.568
 3477SOL    HW110805   2.018   1.241   5.547
 3477SOL    HW210806   2.087   1.328   5.666
 3478SOL     OW10807   1.941   1.240   4.377
 3478SOL    HW110808   1.940   1.193   4.465
 3478SOL    HW210809   2.023   1.212   4.326
 3479SOL     OW10810   2.534   1.391   5.348
 3479SOL    HW110811   2.456   1.341   5.386
 3479SOL    HW210812   2.531   1.486   5.379
 3480SOL     OW10813   3.686   0.192   4.951
 3480SOL    HW110814   3.682   0.102   4.995
 3480SOL    HW210815   3.689   0.181   4.852
 3481SOL     OW10816   2.290   0.424   4.244
 3481SOL    HW110817   2.320   0.352   4.182
 3481SOL    HW210818   2.251   0.384   4.327
 3482SOL     OW10819   3.567   1.487   4.828
 3482SOL    HW110820   3.474   1.462   4.801
 3482SOL    HW210821   3.593   1.437   4.910
 3483SOL     OW10822   2.179   0.547   5.004
 3483SOL    HW110823   2.217   0.488   5.076
 3483SOL    HW210824   2.219   0.521   4.916
 3484SOL     OW10825   2.674   1.586   4.411
 3484SOL    HW110826   2.706   1.596   4.317
 3484SOL    HW210827   2.595   1.524   4.413
 3485SOL     OW10828   3.286   0.214   4.836
 3485SOL    HW110829   3.338   0.149   4.891
 3485SOL    HW210830   3.237   0.277   4.897
 3486SOL     OW10831   2.863   0.034   4.878
 3486SOL    HW110832   2.800  -0.038   4.847
 3486SOL    HW210833   2.956  -0.002   4.878
 3487SOL     OW10834   2.632   1.330   4.025
 3487SOL    HW110835   2.586   1.243   4.042
 3487SOL    HW210836   2.723   1.327   4.066
 3488SOL     OW10837   3.214   0.052   3.892
 3488SOL    HW110838   3.249   0.011   3.808
 3488SOL    HW210839   3.124   0.014   3.912
 3489SOL     OW10840   3.162   0.453   4.415
 3489SOL    HW110841   3.103   0.533   4.419
 3489SOL    HW210842   3.177   0.418   4.508
 3490SOL     OW10843   3.455   0.221   4.606
 3490SOL    HW110844   3.371   0.220   4.660
 3490SOL    HW210845   3.457   0.304   4.550
 3491SOL     OW10846   1.901   1.077   4.024
 3491SOL    HW110847   2.000   1.066   4.015
 3491SOL    HW210848   1.861   0.991   4.056
 3492SOL     OW10849   2.737   1.646   4.061
 3492SOL    HW110850   2.660   1.611   4.007
 3492SOL    HW210851   2.705   1.717   4.123
 3493SOL     OW10852   2.092   0.628   5.699
 3493SOL    HW110853   1.999   0.626   5.736
 3493SOL    HW210854   2.093   0.589   5.607
 3494SOL     OW10855   2.087   0.275   6.582
 3494SOL    HW110856   2.122   0.258   6.674
 3494SOL    HW210857   1.999   0.230   6.570
 3495SOL     OW10858   1.881   0.368   6.233
 3495SOL    HW110859   1.799   0.411   6.272
 3495SOL    HW210860   1.853   0.295   6.170
 3496SOL     OW10861   2.431   1.275   6.751
 3496SOL    HW110862   2.338   1.268   6.714
 3496SOL    HW210863   2.442   1.364   6.795
 3497SOL     OW10864   3.417   1.511   6.289
 3497SOL    HW110865   3.360   1.495   6.370
 3497SOL    HW210866   3.358   1.521   6.209
 3498SOL     OW10867   2.997   0.703   6.303
 3498SOL    HW110868   3.054   0.781   6.278
 3498SOL    HW210869   2.937   0.729   6.379
 3499SOL     OW10870   3.617   0.607   5.817
 3499SOL    HW110871   3.605   0.594   5.718
 3499SOL    HW210872   3.587   0.526   5.866
 3500SOL     OW10873   2.630   1.144   6.609
 3500SOL    HW110874   2.552   1.161   6.669
 3500SOL    HW210875   2.664   1.231   6.573
 3501SOL     OW10876   2.712   0.798   7.409
 3501SOL    HW110877   2.708   0.874   7.474
 3501SOL    HW210878   2.734   0.834   7.318
 3502SOL     OW10879   2.547   1.012   6.251
 3502SOL    HW110880   2.616   0.996   6.321
 3502SOL    HW210881   2.474   1.069   6.289
 3503SOL     OW10882   2.548   1.161   7.389
 3503SOL    HW110883   2.608   1.240   7.403
 3503SOL    HW210884   2.462   1.192   7.348
 3504SOL     OW10885   2.197   1.435   6.647
 3504SOL    HW110886   2.119   1.404   6.594
 3504SOL    HW210887   2.255   1.493   6.590
 3505SOL     OW10888   3.322   1.505   6.925
 3505SOL    HW110889   3.346   1.599   6.951
 3505SOL    HW210890   3.306   1.451   7.007
 3506SOL     OW10891   2.300   0.392   7.085
 3506SOL    HW110892   2.382   0.336   7.094
 3506SOL    HW210893   2.219   0.334   7.089
 3507SOL     OW10894   3.465   0.447   6.323
 3507SOL    HW110895   3.391   0.493   6.273
 3507SOL    HW210896   3.516   0.515   6.376
 3508SOL     OW10897   2.093   1.713   6.069
 3508SOL    HW110898   2.127   1.790   6.123
 3508SOL    HW210899   2.137   1.713   5.979
 3509SOL     OW10900   2.989   1.341   7.276
 3509SOL    HW110901   3.036   1.341   7.364
 3509SOL    HW210902   2.941   1.254   7.265
 3510SOL     OW10903   2.092   1.434   6.124
 3510SOL    HW110904   2.066   1.530   6.124
 3510SOL    HW210905   2.021   1.380   6.169
 3511SOL     OW10906   2.102   1.091   6.472
 3511SOL    HW110907   2.116   1.007   6.524
 3511SOL    HW210908   2.047   1.155   6.527
 3512SOL     OW10909   2.482   1.786   7.025
 3512SOL    HW110910   2.390   1.769   7.060
 3512SOL    HW210911   2.510   1.878   7.051
 3513SOL     OW10912   2.468   0.964   5.709
 3513SOL    HW110913   2.475   1.048   5.655
 3513SOL    HW210914   2.514   0.977   5.797
 3514SOL     OW10915   3.456   0.114   7.066
 3514SOL    HW110916   3.438   0.181   6.994
 3514SOL    HW210917   3.453   0.160   7.155
 3515SOL     OW10918   1.984   0.643   6.149
 3515SOL    HW110919   1.939   0.555   6.166
 3515SOL    HW210920   1.983   0.697   6.233
 3516SOL     OW10921   3.704   1.767   5.945
 3516SOL    HW110922   3.758   1.738   6.025
 3516SOL    HW210923   3.734   1.857   5.916
 3517SOL     OW10924   1.889   1.596   5.703
 3517SOL    HW110925   1.870   1.500   5.724
 3517SOL    HW210926   1.856   1.654   5.778
 3518SOL     OW10927   3.551   0.922   6.198
 3518SOL    HW110928   3.646   0.893   6.206
 3518SOL    HW210929   3.543   0.987   6.123
 3519SOL     OW10930   3.503   1.108   6.018
 3519SOL    HW110931   3.589   1.110   5.966
 3519SOL    HW210932   3.517   1.155   6.106
 3520SOL     OW10933   1.975   0.737   7.183
 3520SOL    HW110934   2.063   0.724   7.228
 3520SOL    HW210935   1.962   0.834   7.161
 3521SOL     OW10936   2.475   1.365   6.312
 3521SOL    HW110937   2.426   1.278   6.321
 3521SOL    HW210938   2.452   1.408   6.225
 3522SOL     OW10939   3.155   1.228   7.009
 3522SOL    HW110940   3.192   1.155   6.951
 3522SOL    HW210941   3.207   1.233   7.094
 3523SOL     OW10942   2.671   0.004   6.088
 3523SOL    HW110943   2.711   0.095   6.079
 3523SOL    HW210944   2.571   0.012   6.094
 3524SOL     OW10945   2.059   0.976   6.850
 3524SOL    HW110946   2.148   0.931   6.836
 3524SOL    HW210947   1.986   0.911   6.831
 3525SOL     OW10948   3.387   0.999   5.776
 3525SOL    HW110949   3.324   0.923   5.789
 3525SOL    HW210950   3.435   1.017   5.862
 3526SOL     OW10951   3.049   1.792   7.202
 3526SOL    HW110952   3.073   1.852   7.126
 3526SOL    HW210953   3.056   1.697   7.172
 3527SOL     OW10954   2.179   0.251   7.387
 3527SOL    HW110955   2.250   0.322   7.393
 3527SOL    HW210956   2.091   0.290   7.415
 3528SOL     OW10957   3.328   1.417   6.539
 3528SOL    HW110958   3.269   1.423   6.619
 3528SOL    HW210959   3.313   1.329   6.493
 3529SOL     OW10960   3.529   1.714   6.158
 3529SOL    HW110961   3.488   1.691   6.070
 3529SOL    HW210962   3.511   1.640   6.223
 3530SOL     OW10963   2.460   0.729   5.856
 3530SOL    HW110964   2.484   0.798   5.788
 3530SOL    HW210965   2.382   0.762   5.910
 3531SOL     OW10966   3.143   0.345   6.530
 3531SOL    HW110967   3.057   0.295   6.517
 3531SOL    HW210968   3.205   0.291   6.586
 3532SOL     OW10969   3.438   1.662   5.893
 3532SOL    HW110970   3.527   1.708   5.896
 3532SOL    HW210971   3.417   1.638   5.798
 3533SOL     OW10972   2.669   0.605   7.051
 3533SOL    HW110973   2.622   0.602   7.140
 3533SOL    HW210974   2.618   0.550   6.985
 3534SOL     OW10975   3.256   0.469   7.260
 3534SOL    HW110976   3.236   0.512   7.348
 3534SOL    HW210977   3.334   0.407   7.269
 3535SOL     OW10978   2.835   0.890   7.158
 3535SOL    HW110979   2.881   0.806   7.129
 3535SOL    HW210980   2.779   0.924   7.083
 3536SOL     OW10981   2.853   0.410   6.828
 3536SOL    HW110982   2.776   0.444   6.882
 3536SOL    HW210983   2.819   0.359   6.749
 3537SOL     OW10984   2.903   0.701   6.015
 3537SOL    HW110985   2.929   0.697   6.111
 3537SOL    HW210986   2.818   0.650   6.001
 3538SOL     OW10987   1.938   0.811   6.375
 3538SOL    HW110988   2.037   0.799   6.384
 3538SOL    HW210989   1.914   0.906   6.396
 3539SOL     OW10990   1.992   1.821   7.157
 3539SOL    HW110991   1.982   1.806   7.256
 3539SOL    HW210992   1.906   1.857   7.121
 3540SOL     OW10993   2.727   0.348   5.781
 3540SOL    HW110994   2.786   0.411   5.732
 3540SOL    HW210995   2.746   0.254   5.752
 3541SOL     OW10996   3.581   0.585   7.417
 3541SOL    HW110997   3.555   0.674   7.381
 3541SOL    HW210998   3.579   0.517   7.344
 3542SOL     OW10999   3.224   1.144   6.131
 3542SOL    HW111000   3.307   1.115   6.083
 3542SOL    HW211001   3.175   1.211   6.075
 3543SOL     OW11002   2.412   0.196   6.471
 3543SOL    HW111003   2.407   0.191   6.571
 3543SOL    HW211004   2.414   0.292   6.442
 3544SOL     OW11005   2.870   1.456   6.063
 3544SOL    HW111006   2.824   1.528   6.011
 3544SOL    HW211007   2.866   1.476   6.161
 3545SOL     OW11008   2.213   1.801   6.439
 3545SOL    HW111009   2.263   1.715   6.445
 3545SOL    HW211010   2.278   1.878   6.436
 3546SOL     OW11011   3.657   1.066   6.459
 3546SOL    HW111012   3.595   1.051   6.383
 3546SOL    HW211013   3.605   1.077   6.544
 3547SOL     OW11014   3.089   1.550   7.092
 3547SOL    HW111015   3.095   1.473   7.156
 3547SOL    HW211016   3.037   1.524   7.012
 3548SOL     OW11017   2.183   0.943   5.828
 3548SOL    HW111018   2.265   0.982   5.786
 3548SOL    HW211019   2.156   0.861   5.779
 3549SOL     OW11020   3.320   0.735   6.314
 3549SOL    HW111021   3.315   0.670   6.389
 3549SOL    HW211022   3.400   0.794   6.327
 3550SOL     OW11023   2.323   1.266   7.313
 3550SOL    HW111024   2.273   1.267   7.227
 3550SOL    HW211025   2.260   1.248   7.389
 3551SOL     OW11026   2.973   1.776   5.823
 3551SOL    HW111027   2.913   1.714   5.873
 3551SOL    HW211028   3.004   1.732   5.738
 3552SOL     OW11029   2.064   0.285   7.084
 3552SOL    HW111030   1.984   0.345   7.071
 3552SOL    HW211031   2.054   0.236   7.170
 3553SOL     OW11032   3.494   1.377   5.667
 3553SOL    HW111033   3.462   1.471   5.657
 3553SOL    HW211034   3.418   1.314   5.655
 3554SOL     OW11035   2.326   1.743   5.909
 3554SOL    HW111036   2.359   1.782   5.995
 3554SOL    HW211037   2.402   1.736   5.844
 3555SOL     OW11038   3.262   0.107   6.012
 3555SOL    HW111039   3.238   0.070   5.922
 3555SOL    HW211040   3.361   0.123   6.016
 3556SOL     OW11041   2.111   1.785   6.827
 3556SOL    HW111042   2.168   1.720   6.877
 3556SOL    HW211043   2.095   1.752   6.734
 3557SOL     OW11044   2.802   1.698   6.490
 3557SOL    HW111045   2.882   1.641   6.511
 3557SOL    HW211046   2.753   1.658   6.413
 3558SOL     OW11047   2.244   0.700   6.066
 3558SOL    HW111048   2.289   0.610   6.063
 3558SOL    HW211049   2.150   0.689   6.099
 3559SOL     OW11050   3.409   0.222   7.315
 3559SOL    HW111051   3.404   0.259   7.407
 3559SOL    HW211052   3.337   0.153   7.303
 3560SOL     OW11053   2.476   0.122   5.703
 3560SOL    HW111054   2.574   0.100   5.710
 3560SOL    HW211055   2.445   0.105   5.610
 3561SOL     OW11056   2.643   0.264   7.335
 3561SOL    HW111057   2.710   0.203   7.378
 3561SOL    HW211058   2.570   0.283   7.400
 3562SOL     OW11059   2.750   1.514   6.781
 3562SOL    HW111060   2.727   1.489   6.687
 3562SOL    HW211061   2.811   1.445   6.820
 3563SOL     OW11062   3.213   0.590   7.019
 3563SOL    HW111063   3.241   0.547   7.104
 3563SOL    HW211064   3.238   0.686   7.020
 3564SOL     OW11065   2.665   1.402   6.510
 3564SOL    HW111066   2.755   1.416   6.468
 3564SOL    HW211067   2.594   1.404   6.439
 3565SOL     OW11068   2.784   0.503   6.485
 3565SOL    HW111069   2.759   0.494   6.389
 3565SOL    HW211070   2.832   0.421   6.516
 3566SOL     OW11071   2.401   0.064   6.098
 3566SOL    HW111072   2.320   0.065   6.156
 3566SOL    HW211073   2.404   0.147   6.043
 3567SOL     OW11074   3.296   1.188   5.627
 3567SOL    HW111075   3.328   1.112   5.684
 3567SOL    HW211076   3.204   1.215   5.657
 3568SOL     OW11077   2.159   0.035   5.757
 3568SOL    HW111078   2.208   0.119   5.736
 3568SOL    HW211079   2.221  -0.030   5.802
 3569SOL     OW11080   2.797   0.236   6.066
 3569SOL    HW111081   2.749   0.277   5.988
 3569SOL    HW211082   2.896   0.234   6.047
 3570SOL     OW11083   2.938   0.683   7.050
 3570SOL    HW111084   2.858   0.622   7.053
 3570SOL    HW211085   3.019   0.630   7.026
 3571SOL     OW11086   3.089   1.570   6.379
 3571SOL    HW111087   3.110   1.644   6.314
 3571SOL    HW211088   3.157   1.570   6.452
 3572SOL     OW11089   2.321   1.152   6.327
 3572SOL    HW111090   2.250   1.125   6.392
 3572SOL    HW211091   2.295   1.124   6.234
 3573SOL     OW11092   3.133   1.797   6.177
 3573SOL    HW111093   3.177   1.861   6.113
 3573SOL    HW211094   3.083   1.849   6.247
 3574SOL     OW11095   2.894   0.549   5.602
 3574SOL    HW111096   2.853   0.631   5.563
 3574SOL    HW211097   2.958   0.575   5.675
 3575SOL     OW11098   1.940   0.556   6.972
 3575SOL    HW111099   2.032   0.555   6.931
 3575SOL    HW211100   1.934   0.630   7.039
 3576SOL     OW11101   2.423   0.222   6.733
 3576SOL    HW111102   2.461   0.138   6.770
 3576SOL    HW211103   2.335   0.241   6.777
 3577SOL     OW11104   2.728   0.454   6.228
 3577SOL    HW111105   2.696   0.526   6.166
 3577SOL    HW211106   2.752   0.373   6.175
 3578SOL     OW11107   2.879   0.039   6.339
 3578SOL    HW111108   2.807   0.044   6.270
 3578SOL    HW211109   2.855  -0.030   6.408
 3579SOL     OW11110   3.291   1.173   6.453
 3579SOL    HW111111   3.236   1.089   6.446
 3579SOL    HW211112   3.317   1.202   6.361
 3580SOL     OW11113   3.328   0.590   6.578
 3580SOL    HW111114   3.298   0.495   6.585
 3580SOL    HW211115   3.401   0.606   6.644
 3581SOL     OW11116   3.719   0.833   5.963
 3581SOL    HW111117   3.761   0.769   6.027
 3581SOL    HW211118   3.681   0.782   5.885
 3582SOL     OW11119   2.350   1.385   5.760
 3582SOL    HW111120   2.263   1.370   5.807
 3582SOL    HW211121   2.333   1.411   5.665
 3583SOL     OW11122   3.526   1.280   6.243
 3583SOL    HW111123   3.625   1.288   6.257
 3583SOL    HW211124   3.481   1.364   6.274
 3584SOL     OW11125   3.252   0.575   5.664
 3584SOL    HW111126   3.198   0.554   5.745
 3584SOL    HW211127   3.343   0.534   5.673
 3585SOL     OW11128   2.389   0.256   5.914
 3585SOL    HW111129   2.416   0.197   5.839
 3585SOL    HW211130   2.389   0.351   5.883
 3586SOL     OW11131   3.616   1.223   7.174
 3586SOL    HW111132   3.707   1.184   7.161
 3586SOL    HW211133   3.624   1.319   7.198
 3587SOL     OW11134   2.926   1.347   6.926
 3587SOL    HW111135   2.846   1.324   6.981
 3587SOL    HW211136   3.009   1.321   6.975
 3588SOL     OW11137   3.454   1.629   7.211
 3588SOL    HW111138   3.481   1.663   7.121
 3588SOL    HW211139   3.533   1.591   7.257
 3589SOL     OW11140   2.973   1.195   6.686
 3589SOL    HW111141   2.933   1.239   6.767
 3589SOL    HW211142   2.932   1.232   6.603
 3590SOL     OW11143   3.500   1.099   6.665
 3590SOL    HW111144   3.505   1.180   6.724
 3590SOL    HW211145   3.414   1.101   6.614
 3591SOL     OW11146   2.777   0.089   6.988
 3591SOL    HW111147   2.802   0.069   6.893
 3591SOL    HW211148   2.849   0.145   7.030
 3592SOL     OW11149   2.842   1.116   7.305
 3592SOL    HW111150   2.743   1.122   7.315
 3592SOL    HW211151   2.865   1.036   7.249
 3593SOL     OW11152   2.567   1.050   5.954
 3593SOL    HW111153   2.553   1.057   6.053
 3593SOL    HW211154   2.651   0.999   5.936
 3594SOL     OW11155   2.272   0.813   6.837
 3594SOL    HW111156   2.358   0.825   6.887
 3594SOL    HW211157   2.230   0.726   6.864
 3595SOL     OW11158   3.136   0.386   6.848
 3595SOL    HW111159   3.157   0.460   6.912
 3595SOL    HW211160   3.047   0.403   6.805
 3596SOL     OW11161   1.926   1.564   6.917
 3596SOL    HW111162   1.880   1.646   6.883
 3596SOL    HW211163   2.024   1.583   6.926
 3597SOL     OW11164   2.229   1.100   6.087
 3597SOL    HW111165   2.222   1.183   6.031
 3597SOL    HW211166   2.233   1.020   6.027
 3598SOL     OW11167   2.428   0.537   6.451
 3598SOL    HW111168   2.440   0.603   6.377
 3598SOL    HW211169   2.474   0.571   6.534
 3599SOL     OW11170   3.114   1.348   5.974
 3599SOL    HW111171   3.164   1.425   6.014
 3599SOL    HW211172   3.019   1.350   6.006
 3600SOL     OW11173   3.134   1.445   6.728
 3600SOL    HW111174   3.181   1.458   6.815
 3600SOL    HW211175   3.068   1.371   6.737
 3601SOL     OW11176   3.444   0.639   6.058
 3601SOL    HW111177   3.413   0.700   6.131
 3601SOL    HW211178   3.494   0.691   5.989
 3602SOL     OW11179   2.216   1.510   6.915
 3602SOL    HW111180   2.195   1.466   6.828
 3602SOL    HW211181   2.313   1.536   6.918
 3603SOL     OW11182   2.264   0.751   7.184
 3603SOL    HW111183   2.332   0.806   7.137
 3603SOL    HW211184   2.304   0.663   7.211
 3604SOL     OW11185   3.449   0.779   7.256
 3604SOL    HW111186   3.357   0.817   7.251
 3604SOL    HW211187   3.509   0.826   7.191
 3605SOL     OW11188   2.875   0.105   7.356
 3605SOL    HW111189   2.881   0.190   7.304
 3605SOL    HW211190   2.907   0.029   7.299
 3606SOL     OW11191   2.366   0.050   7.326
 3606SOL    HW111192   2.324  -0.007   7.256
 3606SOL    HW211193   2.300   0.119   7.358
 3607SOL     OW11194   2.435   0.870   6.615
 3607SOL    HW111195   2.479   0.959   6.606
 3607SOL    HW211196   2.372   0.870   6.692
 3608SOL     OW11197   3.222   0.862   6.631
 3608SOL    HW111198   3.147   0.862   6.565
 3608SOL    HW211199   3.259   0.770   6.640
 3609SOL     OW11200   3.071   0.525   5.861
 3609SOL    HW111201   3.084   0.441   5.915
 3609SOL    HW211202   3.042   0.599   5.921
 3610SOL     OW11203   2.169   0.213   6.817
 3610SOL    HW111204   2.146   0.250   6.907
 3610SOL    HW211205   2.139   0.118   6.811
 3611SOL     OW11206   1.899   1.310   6.868
 3611SOL    HW111207   1.952   1.261   6.936
 3611SOL    HW211208   1.921   1.408   6.873
 3612SOL     OW11209   2.594   0.634   6.650
 3612SOL    HW111210   2.653   0.608   6.574
 3612SOL    HW211211   2.566   0.730   6.639
 3613SOL     OW11212   3.590   0.935   7.440
 3613SOL    HW111213   3.544   0.928   7.351
 3613SOL    HW211214   3.528   0.979   7.506
 3614SOL     OW11215   2.169   0.063   6.204
 3614SOL    HW111216   2.158   0.157   6.237
 3614SOL    HW211217   2.164   0.000   6.281
 3615SOL     OW11218   3.484   0.367   5.960
 3615SOL    HW111219   3.486   0.291   6.024
 3615SOL    HW211220   3.436   0.444   6.000
 3616SOL     OW11221   2.885   0.766   6.552
 3616SOL    HW111222   2.900   0.787   6.648
 3616SOL    HW211223   2.855   0.671   6.543
 3617SOL     OW11224   2.842   1.573   7.286
 3617SOL    HW111225   2.822   1.617   7.198
 3617SOL    HW211226   2.881   1.482   7.270
 3618SOL     OW11227   3.721   1.518   7.191
 3618SOL    HW111228   3.735   1.545   7.096
 3618SOL    HW211229   3.804   1.540   7.244
 3619SOL     OW11230   2.212   0.898   7.390
 3619SOL    HW111231   2.288   0.942   7.438
 3619SOL    HW211232   2.247   0.851   7.308
 3620SOL     OW11233   3.402   0.274   5.711
 3620SOL    HW111234   3.341   0.199   5.734
 3620SOL    HW211235   3.424   0.326   5.794
 3621SOL     OW11236   3.165   0.838   5.628
 3621SOL    HW111237   3.199   0.745   5.643
 3621SOL    HW211238   3.183   0.865   5.533
 3622SOL     OW11239   2.930   1.333   6.435
 3622SOL    HW111240   2.937   1.249   6.380
 3622SOL    HW211241   2.992   1.402   6.399
 3623SOL     OW11242   2.181   0.810   6.535
 3623SOL    HW111243   2.274   0.846   6.540
 3623SOL    HW211244   2.175   0.725   6.587
 3624SOL     OW11245   2.201   0.509   6.592
 3624SOL    HW111246   2.149   0.426   6.575
 3624SOL    HW211247   2.278   0.514   6.528
 3625SOL     OW11248   3.000   0.380   7.264
 3625SOL    HW111249   2.955   0.443   7.328
 3625SOL    HW211250   3.093   0.411   7.247
 3626SOL     OW11251   3.022   0.207   7.063
 3626SOL    HW111252   3.022   0.271   7.140
 3626SOL    HW211253   3.050   0.255   6.980
 3627SOL     OW11254   1.870   1.326   5.786
 3627SOL    HW111255   1.777   1.347   5.755
 3627SOL    HW211256   1.880   1.227   5.799
 3628SOL     OW11257   1.950   1.801   6.513
 3628SOL    HW111258   1.908   1.715   6.486
 3628SOL    HW211259   2.044   1.804   6.479
 3629SOL     OW11260   2.366   1.568   6.496
 3629SOL    HW111261   2.432   1.642   6.505
 3629SOL    HW211262   2.410   1.489   6.454
 3630SOL     OW11263   2.864   0.796   6.824
 3630SOL    HW111264   2.905   0.764   6.910
 3630SOL    HW211265   2.768   0.769   6.821
 3631SOL     OW11266   1.902   0.544   6.700
 3631SOL    HW111267   1.987   0.511   6.659
 3631SOL    HW211268   1.915   0.559   6.798
 3632SOL     OW11269   2.051   0.520   7.308
 3632SOL    HW111270   2.110   0.480   7.238
 3632SOL    HW211271   1.993   0.591   7.267
 3633SOL     OW11272   3.231   0.950   7.246
 3633SOL    HW111273   3.270   1.039   7.266
 3633SOL    HW211274   3.241   0.930   7.149
 3634SOL     OW11275   2.677   0.572   5.911
 3634SOL    HW111276   2.684   0.483   5.865
 3634SOL    HW211277   2.583   0.606   5.903
 3635SOL     OW11278   3.519   0.604   6.792
 3635SOL    HW111279   3.481   0.535   6.854
 3635SOL    HW211280   3.601   0.568   6.748
 3636SOL     OW11281   2.114   1.564   7.330
 3636SOL    HW111282   2.084   1.621   7.406
 3636SOL    HW211283   2.107   1.467   7.356
 3637SOL     OW11284   2.533   0.464   6.855
 3637SOL    HW111285   2.499   0.375   6.825
 3637SOL    HW211286   2.559   0.518   6.775
 3638SOL     OW11287   2.792   1.678   7.051
 3638SOL    HW111288   2.768   1.660   6.956
 3638SOL    HW211289   2.822   1.772   7.061
 3639SOL     OW11290   2.335   0.500   5.777
 3639SOL    HW111291   2.396   0.580   5.781
 3639SOL    HW211292   2.240   0.531   5.784
 3640SOL     OW11293   2.021   1.137   7.052
 3640SOL    HW111294   2.043   1.076   7.128
 3640SOL    HW211295   2.031   1.088   6.966
 3641SOL     OW11296   3.209   1.059   6.820
 3641SOL    HW111297   3.233   0.996   6.746
 3641SOL    HW211298   3.119   1.099   6.802
 3642SOL     OW11299   3.164   0.855   5.895
 3642SOL    HW111300   3.078   0.824   5.937
 3642SOL    HW211301   3.160   0.841   5.796
 3643SOL     OW11302   3.621   1.747   6.740
 3643SOL    HW111303   3.682   1.777   6.667
 3643SOL    HW211304   3.583   1.658   6.718
 3644SOL     OW11305   3.114   1.731   6.714
 3644SOL    HW111306   3.198   1.736   6.660
 3644SOL    HW211307   3.091   1.635   6.732
 3645SOL     OW11308   1.945   1.258   6.608
 3645SOL    HW111309   1.940   1.257   6.708
 3645SOL    HW211310   1.862   1.217   6.570
 3646SOL     OW11311   2.550   1.662   7.302
 3646SOL    HW111312   2.494   1.743   7.311
 3646SOL    HW211313   2.602   1.666   7.216
 3647SOL     OW11314   3.588   0.135   6.109
 3647SOL    HW111315   3.661   0.118   6.042
 3647SOL    HW211316   3.557   0.048   6.147
 3648SOL     OW11317   3.250   1.573   6.063
 3648SOL    HW111318   3.317   1.585   5.989
 3648SOL    HW211319   3.210   1.662   6.086
 3649SOL     OW11320   1.992   1.794   7.437
 3649SOL    HW111321   1.951   1.720   7.490
 3649SOL    HW211322   2.056   1.845   7.495
 3650SOL     OW11323   3.142   0.927   6.258
 3650SOL    HW111324   3.202   0.846   6.260
 3650SOL    HW211325   3.182   0.996   6.198
 3651SOL     OW11326   2.692   1.273   7.008
 3651SOL    HW111327   2.687   1.306   7.103
 3651SOL    HW211328   2.606   1.292   6.962
 3652SOL     OW11329   2.534   1.616   5.740
 3652SOL    HW111330   2.543   1.626   5.641
 3652SOL    HW211331   2.494   1.527   5.761
 3653SOL     OW11332   3.512   1.720   6.980
 3653SOL    HW111333   3.565   1.730   6.896
 3653SOL    HW211334   3.485   1.810   7.014
 3654SOL     OW11335   3.703   0.175   6.549
 3654SOL    HW111336   3.742   0.090   6.513
 3654SOL    HW211337   3.605   0.177   6.530
 3655SOL     OW11338   2.125   0.326   6.306
 3655SOL    HW111339   2.046   0.377   6.272
 3655SOL    HW211340   2.116   0.311   6.404
 3656SOL     OW11341   3.056   1.612   5.617
 3656SOL    HW111342   3.062   1.519   5.654
 3656SOL    HW211343   2.997   1.612   5.537
 3657SOL     OW11344   2.684   1.002   6.958
 3657SOL    HW111345   2.724   1.001   6.866
 3657SOL    HW211346   2.694   1.094   6.998
 3658SOL     OW11347   2.778   0.910   5.877
 3658SOL    HW111348   2.841   0.948   5.809
 3658SOL    HW211349   2.818   0.827   5.916
 3659SOL     OW11350   3.366   1.607   5.630
 3659SOL    HW111351   3.274   1.644   5.637
 3659SOL    HW211352   3.404   1.627   5.540
 3660SOL     OW11353   2.234   1.288   7.076
 3660SOL    HW111354   2.221   1.381   7.042
 3660SOL    HW211355   2.150   1.236   7.063
 3661SOL     OW11356   3.476   1.292   6.875
 3661SOL    HW111357   3.536   1.295   6.955
 3661SOL    HW211358   3.401   1.356   6.888
 3662SOL     OW11359   2.901   1.098   6.282
 3662SOL    HW111360   2.831   1.051   6.336
 3662SOL    HW211361   2.960   1.030   6.239
 3663SOL     OW11362   2.876   0.236   6.557
 3663SOL    HW111363   2.868   0.200   6.464
 3663SOL    HW211364   2.874   0.160   6.622
 3664SOL     OW11365   2.452   1.487   6.077
 3664SOL    HW111366   2.494   1.429   6.007
 3664SOL    HW211367   2.408   1.566   6.033
 3665SOL     OW11368   3.571   0.385   6.967
 3665SOL    HW111369   3.644   0.454   6.971
 3665SOL    HW211370   3.599   0.310   6.908
 3666SOL     OW11371   2.117   1.348   5.876
 3666SOL    HW111372   2.021   1.349   5.849
 3666SOL    HW211373   2.129   1.401   5.960
 3667SOL     OW11374   1.967   1.013   7.312
 3667SOL    HW111375   1.890   0.980   7.366
 3667SOL    HW211376   2.052   0.983   7.354
 3668SOL     OW11377   2.534   0.203   7.075
 3668SOL    HW111378   2.624   0.187   7.035
 3668SOL    HW211379   2.542   0.208   7.174
 3669SOL     OW11380   1.937   0.345   5.619
 3669SOL    HW111381   1.845   0.317   5.590
 3669SOL    HW211382   1.968   0.422   5.563
 3670SOL     OW11383   3.302   0.856   6.984
 3670SOL    HW111384   3.245   0.908   6.921
 3670SOL    HW211385   3.398   0.868   6.960
 3671SOL     OW11386   1.934   0.166   5.904
 3671SOL    HW111387   1.917   0.249   5.850
 3671SOL    HW211388   2.024   0.129   5.882
 3672SOL     OW11389   3.045   1.335   5.705
 3672SOL    HW111390   2.946   1.324   5.707
 3672SOL    HW211391   3.079   1.350   5.798
 3673SOL     OW11392   2.475   0.842   7.017
 3673SOL    HW111393   2.531   0.923   7.000
 3673SOL    HW211394   2.534   0.762   7.020
 3674SOL     OW11395   3.355   1.767   6.545
 3674SOL    HW111396   3.388   1.831   6.476
 3674SOL    HW211397   3.421   1.761   6.620
 3675SOL     OW11398   2.578   0.565   7.294
 3675SOL    HW111399   2.597   0.630   7.368
 3675SOL    HW211400   2.638   0.485   7.303
 3676SOL     OW11401   3.312   1.220   7.219
 3676SOL    HW111402   3.303   1.210   7.318
 3676SOL    HW211403   3.408   1.213   7.193
 3677SOL     OW11404   2.252   1.741   7.146
 3677SOL    HW111405   2.161   1.782   7.144
 3677SOL    HW211406   2.245   1.647   7.178
 3678SOL     OW11407   3.536   0.883   6.840
 3678SOL    HW111408   3.509   0.794   6.803
 3678SOL    HW211409   3.537   0.951   6.767
 3679SOL     OW11410   3.087   0.325   6.035
 3679SOL    HW111411   3.152   0.251   6.024
 3679SOL    HW211412   3.107   0.375   6.119
 3680SOL     OW11413   2.456   0.745   6.238
 3680SOL    HW111414   2.506   0.830   6.219
 3680SOL    HW211415   2.368   0.747   6.190
 3681SOL     OW11416   3.639   0.342   7.228
 3681SOL    HW111417   3.622   0.373   7.134
 3681SOL    HW211418   3.555   0.305   7.266
 3682SOL     OW11419   3.592   0.934   7.103
 3682SOL    HW111420   3.630   1.025   7.118
 3682SOL    HW211421   3.584   0.917   7.004
 3683SOL     OW11422   2.721   1.374   5.602
 3683SOL    HW111423   2.675   1.389   5.690
 3683SOL    HW211424   2.765   1.459   5.572
 3684SOL     OW11425   2.523   1.790   6.539
 3684SOL    HW111426   2.477   1.878   6.526
 3684SOL    HW211427   2.622   1.802   6.532
 3685SOL     OW11428   2.721   0.956   6.447
 3685SOL    HW111429   2.775   0.887   6.495
 3685SOL    HW211430   2.689   1.025   6.513
 3686SOL     OW11431   2.945   0.984   5.673
 3686SOL    HW111432   2.922   1.037   5.591
 3686SOL    HW211433   3.026   0.928   5.654
 3687SOL     OW11434   3.723   1.569   6.437
 3687SOL    HW111435   3.652   1.557   6.367
 3687SOL    HW211436   3.724   1.490   6.497
 3688SOL     OW11437   2.083   1.314   7.430
 3688SOL    HW111438   2.018   1.241   7.409
 3688SOL    HW211439   2.087   1.328   7.528
 3689SOL     OW11440   1.941   1.240   6.239
 3689SOL    HW111441   1.940   1.193   6.327
 3689SOL    HW211442   2.023   1.212   6.188
 3690SOL     OW11443   2.534   1.391   7.210
 3690SOL    HW111444   2.456   1.341   7.248
 3690SOL    HW211445   2.531   1.486   7.241
 3691SOL     OW11446   3.686   0.192   6.813
 3691SOL    HW111447   3.682   0.102   6.857
 3691SOL    HW211448   3.689   0.181   6.714
 3692SOL     OW11449   2.290   0.424   6.106
 3692SOL    HW111450   2.320   0.352   6.044
 3692SOL    HW211451   2.251   0.384   6.189
 3693SOL     OW11452   3.567   1.487   6.690
 3693SOL    HW111453   3.474   1.462   6.663
 3693SOL    HW211454   3.593   1.437   6.772
 3694SOL     OW11455   2.179   0.547   6.866
 3694SOL    HW111456   2.217   0.488   6.938
 3694SOL    HW211457   2.219   0.521   6.778
 3695SOL     OW11458   2.674   1.586   6.273
 3695SOL    HW111459   2.706   1.596   6.179
 3695SOL    HW211460   2.595   1.524   6.275
 3696SOL     OW11461   3.286   0.214   6.698
 3696SOL    HW111462   3.338   0.149   6.753
 3696SOL    HW211463   3.237   0.277   6.759
 3697SOL     OW11464   2.863   0.034   6.740
 3697SOL    HW111465   2.800  -0.038   6.709
 3697SOL    HW211466   2.956  -0.002   6.740
 3698SOL     OW11467   2.632   1.330   5.887
 3698SOL    HW111468   2.586   1.243   5.904
 3698SOL    HW211469   2.723   1.327   5.928
 3699SOL     OW11470   2.480   1.567   6.870
 3699SOL    HW111471   2.475   1.649   6.927
 3699SOL    HW211472   2.569   1.564   6.825
 3700SOL     OW11473   3.214   0.052   5.754
 3700SOL    HW111474   3.249   0.011   5.670
 3700SOL    HW211475   3.124   0.014   5.774
 3701SOL     OW11476   3.162   0.453   6.277
 3701SOL    HW111477   3.103   0.533   6.281
 3701SOL    HW211478   3.177   0.418   6.370
 3702SOL     OW11479   3.455   0.221   6.468
 3702SOL    HW111480   3.371   0.220   6.522
 3702SOL    HW211481   3.457   0.304   6.412
 3703SOL     OW11482   1.901   1.077   5.886
 3703SOL    HW111483   2.000   1.066   5.877
 3703SOL    HW211484   1.861   0.991   5.918
 3704SOL     OW11485   2.737   1.646   5.923
 3704SOL    HW111486   2.660   1.611   5.869
 3704SOL    HW211487   2.705   1.717   5.985
 3705SOL     OW11488   2.092   0.628   7.561
 3705SOL    HW111489   1.999   0.626   7.598
 3705SOL    HW211490   2.093   0.589   7.469
 3706SOL     OW11491   2.087   0.275   8.444
 3706SOL    HW111492   2.122   0.258   8.536
 3706SOL    HW211493   1.999   0.230   8.432
 3707SOL     OW11494   1.881   0.368   8.095
 3707SOL    HW111495   1.799   0.411   8.134
 3707SOL    HW211496   1.853   0.295   8.032
 3708SOL     OW11497   2.431   1.275   8.613
 3708SOL    HW111498   2.338   1.268   8.576
 3708SOL    HW211499   2.442   1.364   8.657
 3709SOL     OW11500   3.417   1.511   8.151
 3709SOL    HW111501   3.360   1.495   8.232
 3709SOL    HW211502   3.358   1.521   8.071
 3710SOL     OW11503   2.997   0.703   8.165
 3710SOL    HW111504   3.054   0.781   8.140
 3710SOL    HW211505   2.937   0.729   8.241
 3711SOL     OW11506   3.617   0.607   7.679
 3711SOL    HW111507   3.605   0.594   7.580
 3711SOL    HW211508   3.587   0.526   7.728
 3712SOL     OW11509   2.630   1.144   8.471
 3712SOL    HW111510   2.552   1.161   8.531
 3712SOL    HW211511   2.664   1.231   8.435
 3713SOL     OW11512   2.712   0.798   9.271
 3713SOL    HW111513   2.708   0.874   9.336
 3713SOL    HW211514   2.734   0.834   9.180
 3714SOL     OW11515   2.547   1.012   8.113
 3714SOL    HW111516   2.616   0.996   8.183
 3714SOL    HW211517   2.474   1.069   8.151
 3715SOL     OW11518   2.548   1.161   9.251
 3715SOL    HW111519   2.608   1.240   9.265
 3715SOL    HW211520   2.462   1.192   9.210
 3716SOL     OW11521   2.197   1.435   8.509
 3716SOL    HW111522   2.119   1.404   8.456
 3716SOL    HW211523   2.255   1.493   8.452
 3717SOL     OW11524   3.322   1.505   8.787
 3717SOL    HW111525   3.346   1.599   8.813
 3717SOL    HW211526   3.306   1.451   8.869
 3718SOL     OW11527   2.300   0.392   8.947
 3718SOL    HW111528   2.382   0.336   8.956
 3718SOL    HW211529   2.219   0.334   8.951
 3719SOL     OW11530   3.465   0.447   8.185
 3719SOL    HW111531   3.391   0.493   8.135
 3719SOL    HW211532   3.516   0.515   8.238
 3720SOL     OW11533   2.093   1.713   7.931
 3720SOL    HW111534   2.127   1.790   7.985
 3720SOL    HW211535   2.137   1.713   7.841
 3721SOL     OW11536   2.989   1.341   9.138
 3721SOL    HW111537   3.036   1.341   9.226
 3721SOL    HW211538   2.941   1.254   9.127
 3722SOL     OW11539   2.092   1.434   7.986
 3722SOL    HW111540   2.066   1.530   7.986
 3722SOL    HW211541   2.021   1.380   8.031
 3723SOL     OW11542   2.102   1.091   8.334
 3723SOL    HW111543   2.116   1.007   8.386
 3723SOL    HW211544   2.047   1.155   8.389
 3724SOL     OW11545   2.482   1.786   8.887
 3724SOL    HW111546   2.390   1.769   8.922
 3724SOL    HW211547   2.510   1.878   8.913
 3725SOL     OW11548   2.468   0.964   7.571
 3725SOL    HW111549   2.475   1.048   7.517
 3725SOL    HW211550   2.514   0.977   7.659
 3726SOL     OW11551   3.456   0.114   8.928
 3726SOL    HW111552   3.438   0.181   8.856
 3726SOL    HW211553   3.453   0.160   9.017
 3727SOL     OW11554   1.984   0.643   8.011
 3727SOL    HW111555   1.939   0.555   8.028
 3727SOL    HW211556   1.983   0.697   8.095
 3728SOL     OW11557   3.704   1.767   7.807
 3728SOL    HW111558   3.758   1.738   7.887
 3728SOL    HW211559   3.734   1.857   7.778
 3729SOL     OW11560   1.889   1.596   7.565
 3729SOL    HW111561   1.870   1.500   7.586
 3729SOL    HW211562   1.856   1.654   7.640
 3730SOL     OW11563   3.551   0.922   8.060
 3730SOL    HW111564   3.646   0.893   8.068
 3730SOL    HW211565   3.543   0.987   7.985
 3731SOL     OW11566   3.503   1.108   7.880
 3731SOL    HW111567   3.589   1.110   7.828
 3731SOL    HW211568   3.517   1.155   7.968
 3732SOL     OW11569   1.975   0.737   9.045
 3732SOL    HW111570   2.063   0.724   9.090
 3732SOL    HW211571   1.962   0.834   9.023
 3733SOL     OW11572   2.475   1.365   8.174
 3733SOL    HW111573   2.426   1.278   8.183
 3733SOL    HW211574   2.452   1.408   8.087
 3734SOL     OW11575   3.155   1.228   8.871
 3734SOL    HW111576   3.192   1.155   8.813
 3734SOL    HW211577   3.207   1.233   8.956
 3735SOL     OW11578   2.671   0.004   7.950
 3735SOL    HW111579   2.711   0.095   7.941
 3735SOL    HW211580   2.571   0.012   7.956
 3736SOL     OW11581   2.059   0.976   8.712
 3736SOL    HW111582   2.148   0.931   8.698
 3736SOL    HW211583   1.986   0.911   8.693
 3737SOL     OW11584   3.387   0.999   7.638
 3737SOL    HW111585   3.324   0.923   7.651
 3737SOL    HW211586   3.435   1.017   7.724
 3738SOL     OW11587   3.049   1.792   9.064
 3738SOL    HW111588   3.073   1.852   8.988
 3738SOL    HW211589   3.056   1.697   9.034
 3739SOL     OW11590   2.179   0.251   9.249
 3739SOL    HW111591   2.250   0.322   9.255
 3739SOL    HW211592   2.091   0.290   9.277
 3740SOL     OW11593   3.328   1.417   8.401
 3740SOL    HW111594   3.269   1.423   8.481
 3740SOL    HW211595   3.313   1.329   8.355
 3741SOL     OW11596   3.529   1.714   8.020
 3741SOL    HW111597   3.488   1.691   7.932
 3741SOL    HW211598   3.511   1.640   8.085
 3742SOL     OW11599   2.460   0.729   7.718
 3742SOL    HW111600   2.484   0.798   7.650
 3742SOL    HW211601   2.382   0.762   7.772
 3743SOL     OW11602   3.143   0.345   8.392
 3743SOL    HW111603   3.057   0.295   8.379
 3743SOL    HW211604   3.205   0.291   8.448
 3744SOL     OW11605   3.438   1.662   7.755
 3744SOL    HW111606   3.527   1.708   7.758
 3744SOL    HW211607   3.417   1.638   7.660
 3745SOL     OW11608   2.669   0.605   8.913
 3745SOL    HW111609   2.622   0.602   9.002
 3745SOL    HW211610   2.618   0.550   8.847
 3746SOL     OW11611   3.256   0.469   9.122
 3746SOL    HW111612   3.236   0.512   9.210
 3746SOL    HW211613   3.334   0.407   9.131
 3747SOL     OW11614   2.835   0.890   9.020
 3747SOL    HW111615   2.881   0.806   8.991
 3747SOL    HW211616   2.779   0.924   8.945
 3748SOL     OW11617   2.853   0.410   8.690
 3748SOL    HW111618   2.776   0.444   8.744
 3748SOL    HW211619   2.819   0.359   8.611
 3749SOL     OW11620   2.903   0.701   7.877
 3749SOL    HW111621   2.929   0.697   7.973
 3749SOL    HW211622   2.818   0.650   7.863
 3750SOL     OW11623   1.938   0.811   8.237
 3750SOL    HW111624   2.037   0.799   8.246
 3750SOL    HW211625   1.914   0.906   8.258
 3751SOL     OW11626   1.992   1.821   9.019
 3751SOL    HW111627   1.982   1.806   9.118
 3751SOL    HW211628   1.906   1.857   8.983
 3752SOL     OW11629   2.727   0.348   7.643
 3752SOL    HW111630   2.786   0.411   7.594
 3752SOL    HW211631   2.746   0.254   7.614
 3753SOL     OW11632   3.581   0.585   9.279
 3753SOL    HW111633   3.555   0.674   9.243
 3753SOL    HW211634   3.579   0.517   9.206
 3754SOL     OW11635   3.224   1.144   7.993
 3754SOL    HW111636   3.307   1.115   7.945
 3754SOL    HW211637   3.175   1.211   7.937
 3755SOL     OW11638   2.412   0.196   8.333
 3755SOL    HW111639   2.407   0.191   8.433
 3755SOL    HW211640   2.414   0.292   8.304
 3756SOL     OW11641   2.870   1.456   7.925
 3756SOL    HW111642   2.824   1.528   7.873
 3756SOL    HW211643   2.866   1.476   8.023
 3757SOL     OW11644   2.213   1.801   8.301
 3757SOL    HW111645   2.263   1.715   8.307
 3757SOL    HW211646   2.278   1.878   8.298
 3758SOL     OW11647   3.657   1.066   8.321
 3758SOL    HW111648   3.595   1.051   8.245
 3758SOL    HW211649   3.605   1.077   8.406
 3759SOL     OW11650   3.089   1.550   8.954
 3759SOL    HW111651   3.095   1.473   9.018
 3759SOL    HW211652   3.037   1.524   8.874
 3760SOL     OW11653   2.183   0.943   7.690
 3760SOL    HW111654   2.265   0.982   7.648
 3760SOL    HW211655   2.156   0.861   7.641
 3761SOL     OW11656   3.320   0.735   8.176
 3761SOL    HW111657   3.315   0.670   8.251
 3761SOL    HW211658   3.400   0.794   8.189
 3762SOL     OW11659   2.323   1.266   9.175
 3762SOL    HW111660   2.273   1.267   9.089
 3762SOL    HW211661   2.260   1.248   9.251
 3763SOL     OW11662   2.973   1.776   7.685
 3763SOL    HW111663   2.913   1.714   7.735
 3763SOL    HW211664   3.004   1.732   7.600
 3764SOL     OW11665   2.064   0.285   8.946
 3764SOL    HW111666   1.984   0.345   8.933
 3764SOL    HW211667   2.054   0.236   9.032
 3765SOL     OW11668   3.494   1.377   7.529
 3765SOL    HW111669   3.462   1.471   7.519
 3765SOL    HW211670   3.418   1.314   7.517
 3766SOL     OW11671   2.326   1.743   7.771
 3766SOL    HW111672   2.359   1.782   7.857
 3766SOL    HW211673   2.402   1.736   7.706
 3767SOL     OW11674   3.262   0.107   7.874
 3767SOL    HW111675   3.238   0.070   7.784
 3767SOL    HW211676   3.361   0.123   7.878
 3768SOL     OW11677   2.111   1.785   8.689
 3768SOL    HW111678   2.168   1.720   8.739
 3768SOL    HW211679   2.095   1.752   8.596
 3769SOL     OW11680   2.802   1.698   8.352
 3769SOL    HW111681   2.882   1.641   8.373
 3769SOL    HW211682   2.753   1.658   8.275
 3770SOL     OW11683   2.244   0.700   7.928
 3770SOL    HW111684   2.289   0.610   7.925
 3770SOL    HW211685   2.150   0.689   7.961
 3771SOL     OW11686   3.409   0.222   9.177
 3771SOL    HW111687   3.404   0.259   9.269
 3771SOL    HW211688   3.337   0.153   9.165
 3772SOL     OW11689   2.476   0.122   7.565
 3772SOL    HW111690   2.574   0.100   7.572
 3772SOL    HW211691   2.445   0.105   7.472
 3773SOL     OW11692   2.643   0.264   9.197
 3773SOL    HW111693   2.710   0.203   9.240
 3773SOL    HW211694   2.570   0.283   9.262
 3774SOL     OW11695   2.750   1.514   8.643
 3774SOL    HW111696   2.727   1.489   8.549
 3774SOL    HW211697   2.811   1.445   8.682
 3775SOL     OW11698   3.213   0.590   8.881
 3775SOL    HW111699   3.241   0.547   8.966
 3775SOL    HW211700   3.238   0.686   8.882
 3776SOL     OW11701   2.665   1.402   8.372
 3776SOL    HW111702   2.755   1.416   8.330
 3776SOL    HW211703   2.594   1.404   8.301
 3777SOL     OW11704   2.784   0.503   8.347
 3777SOL    HW111705   2.759   0.494   8.251
 3777SOL    HW211706   2.832   0.421   8.378
 3778SOL     OW11707   2.401   0.064   7.960
 3778SOL    HW111708   2.320   0.065   8.018
 3778SOL    HW211709   2.404   0.147   7.905
 3779SOL     OW11710   3.296   1.188   7.489
 3779SOL    HW111711   3.328   1.112   7.546
 3779SOL    HW211712   3.204   1.215   7.519
 3780SOL     OW11713   2.159   0.035   7.619
 3780SOL    HW111714   2.208   0.119   7.598
 3780SOL    HW211715   2.221  -0.030   7.664
 3781SOL     OW11716   2.797   0.236   7.928
 3781SOL    HW111717   2.749   0.277   7.850
 3781SOL    HW211718   2.896   0.234   7.909
 3782SOL     OW11719   2.938   0.683   8.912
 3782SOL    HW111720   2.858   0.622   8.915
 3782SOL    HW211721   3.019   0.630   8.888
 3783SOL     OW11722   3.089   1.570   8.241
 3783SOL    HW111723   3.110   1.644   8.176
 3783SOL    HW211724   3.157   1.570   8.314
 3784SOL     OW11725   2.321   1.152   8.189
 3784SOL    HW111726   2.250   1.125   8.254
 3784SOL    HW211727   2.295   1.124   8.096
 3785SOL     OW11728   3.133   1.797   8.039
 3785SOL    HW111729   3.177   1.861   7.975
 3785SOL    HW211730   3.083   1.849   8.109
 3786SOL     OW11731   2.894   0.549   7.464
 3786SOL    HW111732   2.853   0.631   7.425
 3786SOL    HW211733   2.958   0.575   7.537
 3787SOL     OW11734   1.940   0.556   8.834
 3787SOL    HW111735   2.032   0.555   8.793
 3787SOL    HW211736   1.934   0.630   8.901
 3788SOL     OW11737   2.423   0.222   8.595
 3788SOL    HW111738   2.461   0.138   8.632
 3788SOL    HW211739   2.335   0.241   8.639
 3789SOL     OW11740   2.728   0.454   8.090
 3789SOL    HW111741   2.696   0.526   8.028
 3789SOL    HW211742   2.752   0.373   8.037
 3790SOL     OW11743   2.879   0.039   8.201
 3790SOL    HW111744   2.807   0.044   8.132
 3790SOL    HW211745   2.855  -0.030   8.270
 3791SOL     OW11746   3.291   1.173   8.315
 3791SOL    HW111747   3.236   1.089   8.308
 3791SOL    HW211748   3.317   1.202   8.223
 3792SOL     OW11749   3.328   0.590   8.440
 3792SOL    HW111750   3.298   0.495   8.447
 3792SOL    HW211751   3.401   0.606   8.506
 3793SOL     OW11752   3.719   0.833   7.825
 3793SOL    HW111753   3.761   0.769   7.889
 3793SOL    HW211754   3.681   0.782   7.747
 3794SOL     OW11755   2.350   1.385   7.622
 3794SOL    HW111756   2.263   1.370   7.669
 3794SOL    HW211757   2.333   1.411   7.527
 3795SOL     OW11758   3.526   1.280   8.105
 3795SOL    HW111759   3.625   1.288   8.119
 3795SOL    HW211760   3.481   1.364   8.136
 3796SOL     OW11761   3.252   0.575   7.526
 3796SOL    HW111762   3.198   0.554   7.607
 3796SOL    HW211763   3.343   0.534   7.535
 3797SOL     OW11764   2.389   0.256   7.776
 3797SOL    HW111765   2.416   0.197   7.701
 3797SOL    HW211766   2.389   0.351   7.745
 3798SOL     OW11767   3.616   1.223   9.036
 3798SOL    HW111768   3.707   1.184   9.023
 3798SOL    HW211769   3.624   1.319   9.060
 3799SOL     OW11770   2.926   1.347   8.788
 3799SOL    HW111771   2.846   1.324   8.843
 3799SOL    HW211772   3.009   1.321   8.837
 3800SOL     OW11773   3.454   1.629   9.073
 3800SOL    HW111774   3.481   1.663   8.983
 3800SOL    HW211775   3.533   1.591   9.119
 3801SOL     OW11776   2.973   1.195   8.548
 3801SOL    HW111777   2.933   1.239   8.629
 3801SOL    HW211778   2.932   1.232   8.465
 3802SOL     OW11779   3.500   1.099   8.527
 3802SOL    HW111780   3.505   1.180   8.586
 3802SOL    HW211781   3.414   1.101   8.476
 3803SOL     OW11782   2.777   0.089   8.850
 3803SOL    HW111783   2.802   0.069   8.755
 3803SOL    HW211784   2.849   0.145   8.892
 3804SOL     OW11785   2.842   1.116   9.167
 3804SOL    HW111786   2.743   1.122   9.177
 3804SOL    HW211787   2.865   1.036   9.111
 3805SOL     OW11788   2.567   1.050   7.816
 3805SOL    HW111789   2.553   1.057   7.915
 3805SOL    HW211790   2.651   0.999   7.798
 3806SOL     OW11791   2.272   0.813   8.699
 3806SOL    HW111792   2.358   0.825   8.749
 3806SOL    HW211793   2.230   0.726   8.726
 3807SOL     OW11794   3.136   0.386   8.710
 3807SOL    HW111795   3.157   0.460   8.774
 3807SOL    HW211796   3.047   0.403   8.667
 3808SOL     OW11797   1.926   1.564   8.779
 3808SOL    HW111798   1.880   1.646   8.745
 3808SOL    HW211799   2.024   1.583   8.788
 3809SOL     OW11800   2.229   1.100   7.949
 3809SOL    HW111801   2.222   1.183   7.893
 3809SOL    HW211802   2.233   1.020   7.889
 3810SOL     OW11803   2.428   0.537   8.313
 3810SOL    HW111804   2.440   0.603   8.239
 3810SOL    HW211805   2.474   0.571   8.396
 3811SOL     OW11806   3.114   1.348   7.836
 3811SOL    HW111807   3.164   1.425   7.876
 3811SOL    HW211808   3.019   1.350   7.868
 3812SOL     OW11809   3.134   1.445   8.590
 3812SOL    HW111810   3.181   1.458   8.677
 3812SOL    HW211811   3.068   1.371   8.599
 3813SOL     OW11812   3.444   0.639   7.920
 3813SOL    HW111813   3.413   0.700   7.993
 3813SOL    HW211814   3.494   0.691   7.851
 3814SOL     OW11815   2.216   1.510   8.777
 3814SOL    HW111816   2.195   1.466   8.690
 3814SOL    HW211817   2.313   1.536   8.780
 3815SOL     OW11818   2.264   0.751   9.046
 3815SOL    HW111819   2.332   0.806   8.999
 3815SOL    HW211820   2.304   0.663   9.073
 3816SOL     OW11821   3.449   0.779   9.118
 3816SOL    HW111822   3.357   0.817   9.113
 3816SOL    HW211823   3.509   0.826   9.053
 3817SOL     OW11824   2.875   0.105   9.218
 3817SOL    HW111825   2.881   0.190   9.166
 3817SOL    HW211826   2.907   0.029   9.161
 3818SOL     OW11827   2.366   0.050   9.188
 3818SOL    HW111828   2.324  -0.007   9.118
 3818SOL    HW211829   2.300   0.119   9.220
 3819SOL     OW11830   2.435   0.870   8.477
 3819SOL    HW111831   2.479   0.959   8.468
 3819SOL    HW211832   2.372   0.870   8.554
 3820SOL     OW11833   3.222   0.862   8.493
 3820SOL    HW111834   3.147   0.862   8.427
 3820SOL    HW211835   3.259   0.770   8.502
 3821SOL     OW11836   3.071   0.525   7.723
 3821SOL    HW111837   3.084   0.441   7.777
 3821SOL    HW211838   3.042   0.599   7.783
 3822SOL     OW11839   2.169   0.213   8.679
 3822SOL    HW111840   2.146   0.250   8.769
 3822SOL    HW211841   2.139   0.118   8.673
 3823SOL     OW11842   1.899   1.310   8.730
 3823SOL    HW111843   1.952   1.261   8.798
 3823SOL    HW211844   1.921   1.408   8.735
 3824SOL     OW11845   2.594   0.634   8.512
 3824SOL    HW111846   2.653   0.608   8.436
 3824SOL    HW211847   2.566   0.730   8.501
 3825SOL     OW11848   3.590   0.935   9.302
 3825SOL    HW111849   3.544   0.928   9.213
 3825SOL    HW211850   3.528   0.979   9.368
 3826SOL     OW11851   2.169   0.063   8.066
 3826SOL    HW111852   2.158   0.157   8.099
 3826SOL    HW211853   2.164   0.000   8.143
 3827SOL     OW11854   3.484   0.367   7.822
 3827SOL    HW111855   3.486   0.291   7.886
 3827SOL    HW211856   3.436   0.444   7.862
 3828SOL     OW11857   2.885   0.766   8.414
 3828SOL    HW111858   2.900   0.787   8.510
 3828SOL    HW211859   2.855   0.671   8.405
 3829SOL     OW11860   2.842   1.573   9.148
 3829SOL    HW111861   2.822   1.617   9.060
 3829SOL    HW211862   2.881   1.482   9.132
 3830SOL     OW11863   3.721   1.518   9.053
 3830SOL    HW111864   3.735   1.545   8.958
 3830SOL    HW211865   3.804   1.540   9.106
 3831SOL     OW11866   2.212   0.898   9.252
 3831SOL    HW111867   2.288   0.942   9.300
 3831SOL    HW211868   2.247   0.851   9.170
 3832SOL     OW11869   3.402   0.274   7.573
 3832SOL    HW111870   3.341   0.199   7.596
 3832SOL    HW211871   3.424   0.326   7.656
 3833SOL     OW11872   3.165   0.838   7.490
 3833SOL    HW111873   3.199   0.745   7.505
 3833SOL    HW211874   3.183   0.865   7.395
 3834SOL     OW11875   2.930   1.333   8.297
 3834SOL    HW111876   2.937   1.249   8.242
 3834SOL    HW211877   2.992   1.402   8.261
 3835SOL     OW11878   2.181   0.810   8.397
 3835SOL    HW111879   2.274   0.846   8.402
 3835SOL    HW211880   2.175   0.725   8.449
 3836SOL     OW11881   2.201   0.509   8.454
 3836SOL    HW111882   2.149   0.426   8.437
 3836SOL    HW211883   2.278   0.514   8.390
 3837SOL     OW11884   3.000   0.380   9.126
 3837SOL    HW111885   2.955   0.443   9.190
 3837SOL    HW211886   3.093   0.411   9.109
 3838SOL     OW11887   3.022   0.207   8.925
 3838SOL    HW111888   3.022   0.271   9.002
 3838SOL    HW211889   3.050   0.255   8.842
 3839SOL     OW11890   1.870   1.326   7.648
 3839SOL    HW111891   1.777   1.347   7.617
 3839SOL    HW211892   1.880   1.227   7.661
 3840SOL     OW11893   1.950   1.801   8.375
 3840SOL    HW111894   1.908   1.715   8.348
 3840SOL    HW211895   2.044   1.804   8.341
 3841SOL     OW11896   2.366   1.568   8.358
 3841SOL    HW111897   2.432   1.642   8.367
 3841SOL    HW211898   2.410   1.489   8.316
 3842SOL     OW11899   2.864   0.796   8.686
 3842SOL    HW111900   2.905   0.764   8.772
 3842SOL    HW211901   2.768   0.769   8.683
 3843SOL     OW11902   1.902   0.544   8.562
 3843SOL    HW111903   1.987   0.511   8.521
 3843SOL    HW211904   1.915   0.559   8.660
 3844SOL     OW11905   2.051   0.520   9.170
 3844SOL    HW111906   2.110   0.480   9.100
 3844SOL    HW211907   1.993   0.591   9.129
 3845SOL     OW11908   3.231   0.950   9.108
 3845SOL    HW111909   3.270   1.039   9.128
 3845SOL    HW211910   3.241   0.930   9.011
 3846SOL     OW11911   2.677   0.572   7.773
 3846SOL    HW111912   2.684   0.483   7.727
 3846SOL    HW211913   2.583   0.606   7.765
 3847SOL     OW11914   3.519   0.604   8.654
 3847SOL    HW111915   3.481   0.535   8.716
 3847SOL    HW211916   3.601   0.568   8.610
 3848SOL     OW11917   2.114   1.564   9.192
 3848SOL    HW111918   2.084   1.621   9.268
 3848SOL    HW211919   2.107   1.467   9.218
 3849SOL     OW11920   2.533   0.464   8.717
 3849SOL    HW111921   2.499   0.375   8.687
 3849SOL    HW211922   2.559   0.518   8.637
 3850SOL     OW11923   2.792   1.678   8.913
 3850SOL    HW111924   2.768   1.660   8.818
 3850SOL    HW211925   2.822   1.772   8.923
 3851SOL     OW11926   2.335   0.500   7.639
 3851SOL    HW111927   2.396   0.580   7.643
 3851SOL    HW211928   2.240   0.531   7.646
 3852SOL     OW11929   2.021   1.137   8.914
 3852SOL    HW111930   2.043   1.076   8.990
 3852SOL    HW211931   2.031   1.088   8.828
 3853SOL     OW11932   3.209   1.059   8.682
 3853SOL    HW111933   3.233   0.996   8.608
 3853SOL    HW211934   3.119   1.099   8.664
 3854SOL     OW11935   3.164   0.855   7.757
 3854SOL    HW111936   3.078   0.824   7.799
 3854SOL    HW211937   3.160   0.841   7.658
 3855SOL     OW11938   3.621   1.747   8.602
 3855SOL    HW111939   3.682   1.777   8.529
 3855SOL    HW211940   3.583   1.658   8.580
 3856SOL     OW11941   3.114   1.731   8.576
 3856SOL    HW111942   3.198   1.736   8.522
 3856SOL    HW211943   3.091   1.635   8.594
 3857SOL     OW11944   1.945   1.258   8.470
 3857SOL    HW111945   1.940   1.257   8.570
 3857SOL    HW211946   1.862   1.217   8.432
 3858SOL     OW11947   2.550   1.662   9.164
 3858SOL    HW111948   2.494   1.743   9.173
 3858SOL    HW211949   2.602   1.666   9.078
 3859SOL     OW11950   3.588   0.135   7.971
 3859SOL    HW111951   3.661   0.118   7.904
 3859SOL    HW211952   3.557   0.048   8.009
 3860SOL     OW11953   3.250   1.573   7.925
 3860SOL    HW111954   3.317   1.585   7.851
 3860SOL    HW211955   3.210   1.662   7.948
 3861SOL     OW11956   1.992   1.794   9.299
 3861SOL    HW111957   1.951   1.720   9.352
 3861SOL    HW211958   2.056   1.845   9.357
 3862SOL     OW11959   3.142   0.927   8.120
 3862SOL    HW111960   3.202   0.846   8.122
 3862SOL    HW211961   3.182   0.996   8.060
 3863SOL     OW11962   2.692   1.273   8.870
 3863SOL    HW111963   2.687   1.306   8.965
 3863SOL    HW211964   2.606   1.292   8.824
 3864SOL     OW11965   2.534   1.616   7.602
 3864SOL    HW111966   2.543   1.626   7.503
 3864SOL    HW211967   2.494   1.527   7.623
 3865SOL     OW11968   3.512   1.720   8.842
 3865SOL    HW111969   3.565   1.730   8.758
 3865SOL    HW211970   3.485   1.810   8.876
 3866SOL     OW11971   3.703   0.175   8.411
 3866SOL    HW111972   3.742   0.090   8.375
 3866SOL    HW211973   3.605   0.177   8.392
 3867SOL     OW11974   2.125   0.326   8.168
 3867SOL    HW111975   2.046   0.377   8.134
 3867SOL    HW211976   2.116   0.311   8.266
 3868SOL     OW11977   3.056   1.612   7.479
 3868SOL    HW111978   3.062   1.519   7.516
 3868SOL    HW211979   2.997   1.612   7.399
 3869SOL     OW11980   2.684   1.002   8.820
 3869SOL    HW111981   2.724   1.001   8.728
 3869SOL    HW211982   2.694   1.094   8.860
 3870SOL     OW11983   2.778   0.910   7.739
 3870SOL    HW111984   2.841   0.948   7.671
 3870SOL    HW211985   2.818   0.827   7.778
 3871SOL     OW11986   3.366   1.607   7.492
 3871SOL    HW111987   3.274   1.644   7.499
 3871SOL    HW211988   3.404   1.627   7.402
 3872SOL     OW11989   2.234   1.288   8.938
 3872SOL    HW111990   2.221   1.381   8.904
 3872SOL    HW211991   2.150   1.236   8.925
 3873SOL     OW11992   3.476   1.292   8.737
 3873SOL    HW111993   3.536   1.295   8.817
 3873SOL    HW211994   3.401   1.356   8.750
 3874SOL     OW11995   2.901   1.098   8.144
 3874SOL    HW111996   2.831   1.051   8.198
 3874SOL    HW211997   2.960   1.030   8.101
 3875SOL     OW11998   2.876   0.236   8.419
 3875SOL    HW111999   2.868   0.200   8.326
 3875SOL    HW212000   2.874   0.160   8.484
 3876SOL     OW12001   2.452   1.487   7.939
 3876SOL    HW112002   2.494   1.429   7.869
 3876SOL    HW212003   2.408   1.566   7.895
 3877SOL     OW12004   3.571   0.385   8.829
 3877SOL    HW112005   3.644   0.454   8.833
 3877SOL    HW212006   3.599   0.310   8.770
 3878SOL     OW12007   2.117   1.348   7.738
 3878SOL    HW112008   2.021   1.349   7.711
 3878SOL    HW212009   2.129   1.401   7.822
 3879SOL     OW12010   1.967   1.013   9.174
 3879SOL    HW112011   1.890   0.980   9.228
 3879SOL    HW212012   2.052   0.983   9.216
 3880SOL     OW12013   2.534   0.203   8.937
 3880SOL    HW112014   2.624   0.187   8.897
 3880SOL    HW212015   2.542   0.208   9.036
 3881SOL     OW12016   1.937   0.345   7.481
 3881SOL    HW112017   1.845   0.317   7.452
 3881SOL    HW212018   1.968   0.422   7.425
 3882SOL     OW12019   3.302   0.856   8.846
 3882SOL    HW112020   3.245   0.908   8.783
 3882SOL    HW212021   3.398   0.868   8.822
 3883SOL     OW12022   1.934   0.166   7.766
 3883SOL    HW112023   1.917   0.249   7.712
 3883SOL    HW212024   2.024   0.129   7.744
 3884SOL     OW12025   3.045   1.335   7.567
 3884SOL    HW112026   2.946   1.324   7.569
 3884SOL    HW212027   3.079   1.350   7.660
 3885SOL     OW12028   2.475   0.842   8.879
 3885SOL    HW112029   2.531   0.923   8.862
 3885SOL    HW212030   2.534   0.762   8.882
 3886SOL     OW12031   3.355   1.767   8.407
 3886SOL    HW112032   3.388   1.831   8.338
 3886SOL    HW212033   3.421   1.761   8.482
 3887SOL     OW12034   2.578   0.565   9.156
 3887SOL    HW112035   2.597   0.630   9.230
 3887SOL    HW212036   2.638   0.485   9.165
 3888SOL     OW12037   3.312   1.220   9.081
 3888SOL    HW112038   3.303   1.210   9.180
 3888SOL    HW212039   3.408   1.213   9.055
 3889SOL     OW12040   2.252   1.741   9.008
 3889SOL    HW112041   2.161   1.782   9.006
 3889SOL    HW212042   2.245   1.647   9.040
 3890SOL     OW12043   3.536   0.883   8.702
 3890SOL    HW112044   3.509   0.794   8.665
 3890SOL    HW212045   3.537   0.951   8.629
 3891SOL     OW12046   3.087   0.325   7.897
 3891SOL    HW112047   3.152   0.251   7.886
 3891SOL    HW212048   3.107   0.375   7.981
 3892SOL     OW12049   2.456   0.745   8.100
 3892SOL    HW112050   2.506   0.830   8.081
 3892SOL    HW212051   2.368   0.747   8.052
 3893SOL     OW12052   3.639   0.342   9.090
 3893SOL    HW112053   3.622   0.373   8.996
 3893SOL    HW212054   3.555   0.305   9.128
 3894SOL     OW12055   3.592   0.934   8.965
 3894SOL    HW112056   3.630   1.025   8.980
 3894SOL    HW212057   3.584   0.917   8.866
 3895SOL     OW12058   2.721   1.374   7.464
 3895SOL    HW112059   2.675   1.389   7.552
 3895SOL    HW212060   2.765   1.459   7.434
 3896SOL     OW12061   2.523   1.790   8.401
 3896SOL    HW112062   2.477   1.878   8.388
 3896SOL    HW212063   2.622   1.802   8.394
 3897SOL     OW12064   2.721   0.956   8.309
 3897SOL    HW112065   2.775   0.887   8.357
 3897SOL    HW212066   2.689   1.025   8.375
 3898SOL     OW12067   2.945   0.984   7.535
 3898SOL    HW112068   2.922   1.037   7.453
 3898SOL    HW212069   3.026   0.928   7.516
 3899SOL     OW12070   3.723   1.569   8.299
 3899SOL    HW112071   3.652   1.557   8.229
 3899SOL    HW212072   3.724   1.490   8.359
 3900SOL     OW12073   2.083   1.314   9.292
 3900SOL    HW112074   2.018   1.241   9.271
 3900SOL    HW212075   2.087   1.328   9.390
 3901SOL     OW12076   1.941   1.240   8.101
 3901SOL    HW112077   1.940   1.193   8.189
 3901SOL    HW212078   2.023   1.212   8.050
 3902SOL     OW12079   2.534   1.391   9.072
 3902SOL    HW112080   2.456   1.341   9.110
 3902SOL    HW212081   2.531   1.486   9.103
 3903SOL     OW12082   3.686   0.192   8.675
 3903SOL    HW112083   3.682   0.102   8.719
 3903SOL    HW212084   3.689   0.181   8.576
 3904SOL     OW12085   2.290   0.424   7.968
 3904SOL    HW112086   2.320   0.352   7.906
 3904SOL    HW212087   2.251   0.384   8.051
 3905SOL     OW12088   3.567   1.487   8.552
 3905SOL    HW112089   3.474   1.462   8.525
 3905SOL    HW212090   3.593   1.437   8.634
 3906SOL     OW12091   2.179   0.547   8.728
 3906SOL    HW112092   2.217   0.488   8.800
 3906SOL    HW212093   2.219   0.521   8.640
 3907SOL     OW12094   2.674   1.586   8.135
 3907SOL    HW112095   2.706   1.596   8.041
 3907SOL    HW212096   2.595   1.524   8.137
 3908SOL     OW12097   3.286   0.214   8.560
 3908SOL    HW112098   3.338   0.149   8.615
 3908SOL    HW212099   3.237   0.277   8.621
 3909SOL     OW12100   2.863   0.034   8.602
 3909SOL    HW112101   2.800  -0.038   8.571
 3909SOL    HW212102   2.956  -0.002   8.602
 3910SOL     OW12103   2.632   1.330   7.749
 3910SOL    HW112104   2.586   1.243   7.766
 3910SOL    HW212105   2.723   1.327   7.790
 3911SOL     OW12106   2.480   1.567   8.732
 3911SOL    HW112107   2.475   1.649   8.789
 3911SOL    HW212108   2.569   1.564   8.687
 3912SOL     OW12109   3.214   0.052   7.616
 3912SOL    HW112110   3.249   0.011   7.532
 3912SOL    HW212111   3.124   0.014   7.636
 3913SOL     OW12112   3.162   0.453   8.139
 3913SOL    HW112113   3.103   0.533   8.143
 3913SOL    HW212114   3.177   0.418   8.232
 3914SOL     OW12115   3.455   0.221   8.330
 3914SOL    HW112116   3.371   0.220   8.384
 3914SOL    HW212117   3.457   0.304   8.274
 3915SOL     OW12118   1.901   1.077   7.748
 3915SOL    HW112119   2.000   1.066   7.739
 3915SOL    HW212120   1.861   0.991   7.780
 3916SOL     OW12121   2.737   1.646   7.785
 3916SOL    HW112122   2.660   1.611   7.731
 3916SOL    HW212123   2.705   1.717   7.847
 3917SOL     OW12124   2.092   0.628   9.423
 3917SOL    HW112125   1.999   0.626   9.460
 3917SOL    HW212126   2.093   0.589   9.331
 3918SOL     OW12127   3.617   0.607   9.541
 3918SOL    HW112128   3.605   0.594   9.442
 3918SOL    HW212129   3.587   0.526   9.590
 3919SOL     OW12130   2.093   1.713   9.793
 3919SOL    HW112131   2.127   1.790   9.847
 3919SOL    HW212132   2.137   1.713   9.703
 3920SOL     OW12133   2.092   1.434   9.848
 3920SOL    HW112134   2.066   1.530   9.848
 3920SOL    HW212135   2.021   1.380   9.893
 3921SOL     OW12136   2.468   0.964   9.433
 3921SOL    HW112137   2.475   1.048   9.379
 3921SOL    HW212138   2.514   0.977   9.521
 3922SOL     OW12139   1.984   0.643   9.873
 3922SOL    HW112140   1.939   0.555   9.890
 3922SOL    HW212141   1.983   0.697   9.957
 3923SOL     OW12142   3.704   1.767   9.669
 3923SOL    HW112143   3.758   1.738   9.749
 3923SOL    HW212144   3.734   1.857   9.640
 3924SOL     OW12145   1.889   1.596   9.427
 3924SOL    HW112146   1.870   1.500   9.448
 3924SOL    HW212147   1.856   1.654   9.502
 3925SOL     OW12148   3.551   0.922   9.922
 3925SOL    HW112149   3.646   0.893   9.930
 3925SOL    HW212150   3.543   0.987   9.847
 3926SOL     OW12151   3.503   1.108   9.742
 3926SOL    HW112152   3.589   1.110   9.690
 3926SOL    HW212153   3.517   1.155   9.830
 3927SOL     OW12154   2.475   1.365  10.036
 3927SOL    HW112155   2.426   1.278  10.045
 3927SOL    HW212156   2.452   1.408   9.949
 3928SOL     OW12157   2.671   0.004   9.812
 3928SOL    HW112158   2.711   0.095   9.803
 3928SOL    HW212159   2.571   0.012   9.818
 3929SOL     OW12160   3.387   0.999   9.500
 3929SOL    HW112161   3.324   0.923   9.513
 3929SOL    HW212162   3.435   1.017   9.586
 3930SOL     OW12163   2.460   0.729   9.580
 3930SOL    HW112164   2.484   0.798   9.512
 3930SOL    HW212165   2.382   0.762   9.634
 3931SOL     OW12166   3.438   1.662   9.617
 3931SOL    HW112167   3.527   1.708   9.620
 3931SOL    HW212168   3.417   1.638   9.522
 3932SOL     OW12169   2.903   0.701   9.739
 3932SOL    HW112170   2.929   0.697   9.835
 3932SOL    HW212171   2.818   0.650   9.725
 3933SOL     OW12172   1.938   0.811  10.099
 3933SOL    HW112173   2.037   0.799  10.108
 3933SOL    HW212174   1.914   0.906  10.120
 3934SOL     OW12175   2.727   0.348   9.505
 3934SOL    HW112176   2.786   0.411   9.456
 3934SOL    HW212177   2.746   0.254   9.476
 3935SOL     OW12178   3.224   1.144   9.855
 3935SOL    HW112179   3.307   1.115   9.807
 3935SOL    HW212180   3.175   1.211   9.799
 3936SOL     OW12181   2.870   1.456   9.787
 3936SOL    HW112182   2.824   1.528   9.735
 3936SOL    HW212183   2.866   1.476   9.885
 3937SOL     OW12184   2.183   0.943   9.552
 3937SOL    HW112185   2.265   0.982   9.510
 3937SOL    HW212186   2.156   0.861   9.503
 3938SOL     OW12187   2.973   1.776   9.547
 3938SOL    HW112188   2.913   1.714   9.597
 3938SOL    HW212189   3.004   1.732   9.462
 3939SOL     OW12190   3.494   1.377   9.391
 3939SOL    HW112191   3.462   1.471   9.381
 3939SOL    HW212192   3.418   1.314   9.379
 3940SOL     OW12193   2.326   1.743   9.633
 3940SOL    HW112194   2.359   1.782   9.719
 3940SOL    HW212195   2.402   1.736   9.568
 3941SOL     OW12196   3.262   0.107   9.736
 3941SOL    HW112197   3.238   0.070   9.646
 3941SOL    HW212198   3.361   0.123   9.740
 3942SOL     OW12199   2.244   0.700   9.790
 3942SOL    HW112200   2.289   0.610   9.787
 3942SOL    HW212201   2.150   0.689   9.823
 3943SOL     OW12202   2.476   0.122   9.427
 3943SOL    HW112203   2.574   0.100   9.434
 3943SOL    HW212204   2.445   0.105   9.334
 3944SOL     OW12205   2.401   0.064   9.822
 3944SOL    HW112206   2.320   0.065   9.880
 3944SOL    HW212207   2.404   0.147   9.767
 3945SOL     OW12208   3.296   1.188   9.351
 3945SOL    HW112209   3.328   1.112   9.408
 3945SOL    HW212210   3.204   1.215   9.381
 3946SOL     OW12211   2.159   0.035   9.481
 3946SOL    HW112212   2.208   0.119   9.460
 3946SOL    HW212213   2.221  -0.030   9.526
 3947SOL     OW12214   2.797   0.236   9.790
 3947SOL    HW112215   2.749   0.277   9.712
 3947SOL    HW212216   2.896   0.234   9.771
 3948SOL     OW12217   2.321   1.152  10.051
 3948SOL    HW112218   2.250   1.125  10.116
 3948SOL    HW212219   2.295   1.124   9.958
 3949SOL     OW12220   3.133   1.797   9.901
 3949SOL    HW112221   3.177   1.861   9.837
 3949SOL    HW212222   3.083   1.849   9.971
 3950SOL     OW12223   2.894   0.549   9.326
 3950SOL    HW112224   2.853   0.631   9.287
 3950SOL    HW212225   2.958   0.575   9.399
 3951SOL     OW12226   2.728   0.454   9.952
 3951SOL    HW112227   2.696   0.526   9.890
 3951SOL    HW212228   2.752   0.373   9.899
 3952SOL     OW12229   3.719   0.833   9.687
 3952SOL    HW112230   3.761   0.769   9.751
 3952SOL    HW212231   3.681   0.782   9.609
 3953SOL     OW12232   2.350   1.385   9.484
 3953SOL    HW112233   2.263   1.370   9.531
 3953SOL    HW212234   2.333   1.411   9.389
 3954SOL     OW12235   3.252   0.575   9.388
 3954SOL    HW112236   3.198   0.554   9.469
 3954SOL    HW212237   3.343   0.534   9.397
 3955SOL     OW12238   2.389   0.256   9.638
 3955SOL    HW112239   2.416   0.197   9.563
 3955SOL    HW212240   2.389   0.351   9.607
 3956SOL     OW12241   2.567   1.050   9.678
 3956SOL    HW112242   2.553   1.057   9.777
 3956SOL    HW212243   2.651   0.999   9.660
 3957SOL     OW12244   2.229   1.100   9.811
 3957SOL    HW112245   2.222   1.183   9.755
 3957SOL    HW212246   2.233   1.020   9.751
 3958SOL     OW12247   3.114   1.348   9.698
 3958SOL    HW112248   3.164   1.425   9.738
 3958SOL    HW212249   3.019   1.350   9.730
 3959SOL     OW12250   3.444   0.639   9.782
 3959SOL    HW112251   3.413   0.700   9.855
 3959SOL    HW212252   3.494   0.691   9.713
 3960SOL     OW12253   3.071   0.525   9.585
 3960SOL    HW112254   3.084   0.441   9.639
 3960SOL    HW212255   3.042   0.599   9.645
 3961SOL     OW12256   2.169   0.063   9.928
 3961SOL    HW112257   2.158   0.157   9.961
 3961SOL    HW212258   2.164   0.000  10.005
 3962SOL     OW12259   3.484   0.367   9.684
 3962SOL    HW112260   3.486   0.291   9.748
 3962SOL    HW212261   3.436   0.444   9.724
 3963SOL     OW12262   3.402   0.274   9.435
 3963SOL    HW112263   3.341   0.199   9.458
 3963SOL    HW212264   3.424   0.326   9.518
 3964SOL     OW12265   3.165   0.838   9.352
 3964SOL    HW112266   3.199   0.745   9.367
 3964SOL    HW212267   3.183   0.865   9.257
 3965SOL     OW12268   1.870   1.326   9.510
 3965SOL    HW112269   1.777   1.347   9.479
 3965SOL    HW212270   1.880   1.227   9.523
 3966SOL     OW12271   2.677   0.572   9.635
 3966SOL    HW112272   2.684   0.483   9.589
 3966SOL    HW212273   2.583   0.606   9.627
 3967SOL     OW12274   2.335   0.500   9.501
 3967SOL    HW112275   2.396   0.580   9.505
 3967SOL    HW212276   2.240   0.531   9.508
 3968SOL     OW12277   3.164   0.855   9.619
 3968SOL    HW112278   3.078   0.824   9.661
 3968SOL    HW212279   3.160   0.841   9.520
 3969SOL     OW12280   3.588   0.135   9.833
 3969SOL    HW112281   3.661   0.118   9.766
 3969SOL    HW212282   3.557   0.048   9.871
 3970SOL     OW12283   3.250   1.573   9.787
 3970SOL    HW112284   3.317   1.585   9.713
 3970SOL    HW212285   3.210   1.662   9.810
 3971SOL     OW12286   2.534   1.616   9.464
 3971SOL    HW112287   2.543   1.626   9.365
 3971SOL    HW212288   2.494   1.527   9.485
 3972SOL     OW12289   3.056   1.612   9.341
 3972SOL    HW112290   3.062   1.519   9.378
 3972SOL    HW212291   2.997   1.612   9.261
 3973SOL     OW12292   2.778   0.910   9.601
 3973SOL    HW112293   2.841   0.948   9.533
 3973SOL    HW212294   2.818   0.827   9.640
 3974SOL     OW12295   3.366   1.607   9.354
 3974SOL    HW112296   3.274   1.644   9.361
 3974SOL    HW212297   3.404   1.627   9.264
 3975SOL     OW12298   2.452   1.487   9.801
 3975SOL    HW112299   2.494   1.429   9.731
 3975SOL    HW212300   2.408   1.566   9.757
 3976SOL     OW12301   2.117   1.348   9.600
 3976SOL    HW112302   2.021   1.349   9.573
 3976SOL    HW212303   2.129   1.401   9.684
 3977SOL     OW12304   1.937   0.345   9.343
 3977SOL    HW112305   1.845   0.317   9.314
 3977SOL    HW212306   1.968   0.422   9.287
 3978SOL     OW12307   1.934   0.166   9.628
 3978SOL    HW112308   1.917   0.249   9.574
 3978SOL    HW212309   2.024   0.129   9.606
 3979SOL     OW12310   3.045   1.335   9.429
 3979SOL    HW112311   2.946   1.324   9.431
 3979SOL    HW212312   3.079   1.350   9.522
 3980SOL     OW12313   3.087   0.325   9.759
 3980SOL    HW112314   3.152   0.251   9.748
 3980SOL    HW212315   3.107   0.375   9.843
 3981SOL     OW12316   2.456   0.745   9.962
 3981SOL    HW112317   2.506   0.830   9.943
 3981SOL    HW212318   2.368   0.747   9.914
 3982SOL     OW12319   2.721   1.374   9.326
 3982SOL    HW112320   2.675   1.389   9.414
 3982SOL    HW212321   2.765   1.459   9.296
 3983SOL     OW12322   2.945   0.984   9.397
 3983SOL    HW112323   2.922   1.037   9.315
 3983SOL    HW212324   3.026   0.928   9.378
 3984SOL     OW12325   1.941   1.240   9.963
 3984SOL    HW112326   1.940   1.193  10.051
 3984SOL    HW212327   2.023   1.212   9.912
 3985SOL     OW12328   2.290   0.424   9.830
 3985SOL    HW112329   2.320   0.352   9.768
 3985SOL    HW212330   2.251   0.384   9.913
 3986SOL     OW12331   2.632   1.330   9.611
 3986SOL    HW112332   2.586   1.243   9.628
 3986SOL    HW212333   2.723   1.327   9.652
 3987SOL     OW12334   3.214   0.052   9.478
 3987SOL    HW112335   3.249   0.011   9.394
 3987SOL    HW212336   3.124   0.014   9.498
 3988SOL     OW12337   1.901   1.077   9.610
 3988SOL    HW112338   2.000   1.066   9.601
 3988SOL    HW212339   1.861   0.991   9.642
 3989SOL     OW12340   2.737   1.646   9.647
 3989SOL    HW112341   2.660   1.611   9.593
 3989SOL    HW212342   2.705   1.717   9.709
 3990SOL     OW12343   2.092   2.490   0.113
 3990SOL    HW112344   1.999   2.488   0.150
 3990SOL    HW212345   2.093   2.451   0.021
 3991SOL     OW12346   2.087   2.137   0.996
 3991SOL    HW112347   2.122   2.120   1.088
 3991SOL    HW212348   1.999   2.092   0.984
 3992SOL     OW12349   1.881   2.230   0.647
 3992SOL    HW112350   1.799   2.273   0.686
 3992SOL    HW212351   1.853   2.157   0.584
 3993SOL     OW12352   2.431   3.137   1.165
 3993SOL    HW112353   2.338   3.130   1.128
 3993SOL    HW212354   2.442   3.226   1.209
 3994SOL     OW12355   3.417   3.373   0.703
 3994SOL    HW112356   3.360   3.357   0.784
 3994SOL    HW212357   3.358   3.383   0.623
 3995SOL     OW12358   2.997   2.565   0.717
 3995SOL    HW112359   3.054   2.643   0.692
 3995SOL    HW212360   2.937   2.591   0.793
 3996SOL     OW12361   3.617   2.469   0.231
 3996SOL    HW112362   3.605   2.456   0.132
 3996SOL    HW212363   3.587   2.388   0.280
 3997SOL     OW12364   2.630   3.006   1.023
 3997SOL    HW112365   2.552   3.023   1.083
 3997SOL    HW212366   2.664   3.093   0.987
 3998SOL     OW12367   2.712   2.660   1.823
 3998SOL    HW112368   2.708   2.736   1.888
 3998SOL    HW212369   2.734   2.696   1.732
 3999SOL     OW12370   2.547   2.874   0.665
 3999SOL    HW112371   2.616   2.858   0.735
 3999SOL    HW212372   2.474   2.931   0.703
 4000SOL     OW12373   2.548   3.023   1.803
 4000SOL    HW112374   2.608   3.102   1.817
 4000SOL    HW212375   2.462   3.054   1.762
 4001SOL     OW12376   2.197   3.297   1.061
 4001SOL    HW112377   2.119   3.266   1.008
 4001SOL    HW212378   2.255   3.355   1.004
 4002SOL     OW12379   3.322   3.367   1.339
 4002SOL    HW112380   3.346   3.461   1.365
 4002SOL    HW212381   3.306   3.313   1.421
 4003SOL     OW12382   3.465   2.309   0.737
 4003SOL    HW112383   3.391   2.355   0.687
 4003SOL    HW212384   3.516   2.377   0.790
 4004SOL     OW12385   2.093   3.575   0.483
 4004SOL    HW112386   2.127   3.652   0.537
 4004SOL    HW212387   2.137   3.575   0.393
 4005SOL     OW12388   2.989   3.203   1.690
 4005SOL    HW112389   3.036   3.203   1.778
 4005SOL    HW212390   2.941   3.116   1.679
 4006SOL     OW12391   2.092   3.296   0.538
 4006SOL    HW112392   2.066   3.392   0.538
 4006SOL    HW212393   2.021   3.242   0.583
 4007SOL     OW12394   2.102   2.953   0.886
 4007SOL    HW112395   2.116   2.869   0.938
 4007SOL    HW212396   2.047   3.017   0.941
 4008SOL     OW12397   2.482   3.648   1.439
 4008SOL    HW112398   2.390   3.631   1.474
 4008SOL    HW212399   2.510   3.740   1.465
 4009SOL     OW12400   2.468   2.826   0.123
 4009SOL    HW112401   2.475   2.910   0.069
 4009SOL    HW212402   2.514   2.839   0.211
 4010SOL     OW12403   3.456   1.976   1.480
 4010SOL    HW112404   3.438   2.043   1.408
 4010SOL    HW212405   3.453   2.022   1.569
 4011SOL     OW12406   1.984   2.505   0.563
 4011SOL    HW112407   1.939   2.417   0.580
 4011SOL    HW212408   1.983   2.559   0.647
 4012SOL     OW12409   3.704   3.629   0.359
 4012SOL    HW112410   3.758   3.600   0.439
 4012SOL    HW212411   3.734   3.719   0.330
 4013SOL     OW12412   1.889   3.458   0.117
 4013SOL    HW112413   1.870   3.362   0.138
 4013SOL    HW212414   1.856   3.516   0.192
 4014SOL     OW12415   3.551   2.784   0.612
 4014SOL    HW112416   3.646   2.755   0.620
 4014SOL    HW212417   3.543   2.849   0.537
 4015SOL     OW12418   3.503   2.970   0.432
 4015SOL    HW112419   3.589   2.972   0.380
 4015SOL    HW212420   3.517   3.017   0.520
 4016SOL     OW12421   1.975   2.599   1.597
 4016SOL    HW112422   2.063   2.586   1.642
 4016SOL    HW212423   1.962   2.696   1.575
 4017SOL     OW12424   2.475   3.227   0.726
 4017SOL    HW112425   2.426   3.140   0.735
 4017SOL    HW212426   2.452   3.270   0.639
 4018SOL     OW12427   3.155   3.090   1.423
 4018SOL    HW112428   3.192   3.017   1.365
 4018SOL    HW212429   3.207   3.095   1.508
 4019SOL     OW12430   2.671   1.866   0.502
 4019SOL    HW112431   2.711   1.957   0.493
 4019SOL    HW212432   2.571   1.874   0.508
 4020SOL     OW12433   2.059   2.838   1.264
 4020SOL    HW112434   2.148   2.793   1.250
 4020SOL    HW212435   1.986   2.773   1.245
 4021SOL     OW12436   3.387   2.861   0.190
 4021SOL    HW112437   3.324   2.785   0.203
 4021SOL    HW212438   3.435   2.879   0.276
 4022SOL     OW12439   3.049   3.654   1.616
 4022SOL    HW112440   3.073   3.714   1.540
 4022SOL    HW212441   3.056   3.559   1.586
 4023SOL     OW12442   3.328   3.279   0.953
 4023SOL    HW112443   3.269   3.285   1.033
 4023SOL    HW212444   3.313   3.191   0.907
 4024SOL     OW12445   3.529   3.576   0.572
 4024SOL    HW112446   3.488   3.553   0.484
 4024SOL    HW212447   3.511   3.502   0.637
 4025SOL     OW12448   2.460   2.591   0.270
 4025SOL    HW112449   2.484   2.660   0.202
 4025SOL    HW212450   2.382   2.624   0.324
 4026SOL     OW12451   3.143   2.207   0.944
 4026SOL    HW112452   3.057   2.157   0.931
 4026SOL    HW212453   3.205   2.153   1.000
 4027SOL     OW12454   3.438   3.524   0.307
 4027SOL    HW112455   3.527   3.570   0.310
 4027SOL    HW212456   3.417   3.500   0.212
 4028SOL     OW12457   3.256   2.331   1.674
 4028SOL    HW112458   3.236   2.374   1.762
 4028SOL    HW212459   3.334   2.269   1.683
 4029SOL     OW12460   2.835   2.752   1.572
 4029SOL    HW112461   2.881   2.668   1.543
 4029SOL    HW212462   2.779   2.786   1.497
 4030SOL     OW12463   2.853   2.272   1.242
 4030SOL    HW112464   2.776   2.306   1.296
 4030SOL    HW212465   2.819   2.221   1.163
 4031SOL     OW12466   2.903   2.563   0.429
 4031SOL    HW112467   2.929   2.559   0.525
 4031SOL    HW212468   2.818   2.512   0.415
 4032SOL     OW12469   1.938   2.673   0.789
 4032SOL    HW112470   2.037   2.661   0.798
 4032SOL    HW212471   1.914   2.768   0.810
 4033SOL     OW12472   1.992   3.683   1.571
 4033SOL    HW112473   1.982   3.668   1.670
 4033SOL    HW212474   1.906   3.719   1.535
 4034SOL     OW12475   2.727   2.210   0.195
 4034SOL    HW112476   2.786   2.273   0.146
 4034SOL    HW212477   2.746   2.116   0.166
 4035SOL     OW12478   3.581   2.447   1.831
 4035SOL    HW112479   3.555   2.536   1.795
 4035SOL    HW212480   3.579   2.379   1.758
 4036SOL     OW12481   3.224   3.006   0.545
 4036SOL    HW112482   3.307   2.977   0.497
 4036SOL    HW212483   3.175   3.073   0.489
 4037SOL     OW12484   2.870   3.318   0.477
 4037SOL    HW112485   2.824   3.390   0.425
 4037SOL    HW212486   2.866   3.338   0.575
 4038SOL     OW12487   2.213   3.663   0.853
 4038SOL    HW112488   2.263   3.577   0.859
 4038SOL    HW212489   2.278   3.740   0.850
 4039SOL     OW12490   3.657   2.928   0.873
 4039SOL    HW112491   3.595   2.913   0.797
 4039SOL    HW212492   3.605   2.939   0.958
 4040SOL     OW12493   3.089   3.412   1.506
 4040SOL    HW112494   3.095   3.335   1.570
 4040SOL    HW212495   3.037   3.386   1.426
 4041SOL     OW12496   2.183   2.805   0.242
 4041SOL    HW112497   2.265   2.844   0.200
 4041SOL    HW212498   2.156   2.723   0.193
 4042SOL     OW12499   3.320   2.597   0.728
 4042SOL    HW112500   3.315   2.532   0.803
 4042SOL    HW212501   3.400   2.656   0.741
 4043SOL     OW12502   2.323   3.128   1.727
 4043SOL    HW112503   2.273   3.129   1.641
 4043SOL    HW212504   2.260   3.110   1.803
 4044SOL     OW12505   2.973   3.638   0.237
 4044SOL    HW112506   2.913   3.576   0.287
 4044SOL    HW212507   3.004   3.594   0.152
 4045SOL     OW12508   2.064   2.147   1.498
 4045SOL    HW112509   1.984   2.207   1.485
 4045SOL    HW212510   2.054   2.098   1.584
 4046SOL     OW12511   3.494   3.239   0.081
 4046SOL    HW112512   3.462   3.333   0.071
 4046SOL    HW212513   3.418   3.176   0.069
 4047SOL     OW12514   2.326   3.605   0.323
 4047SOL    HW112515   2.359   3.644   0.409
 4047SOL    HW212516   2.402   3.598   0.258
 4048SOL     OW12517   3.262   1.969   0.426
 4048SOL    HW112518   3.238   1.932   0.336
 4048SOL    HW212519   3.361   1.985   0.430
 4049SOL     OW12520   2.111   3.647   1.241
 4049SOL    HW112521   2.168   3.582   1.291
 4049SOL    HW212522   2.095   3.614   1.148
 4050SOL     OW12523   2.802   3.560   0.904
 4050SOL    HW112524   2.882   3.503   0.925
 4050SOL    HW212525   2.753   3.520   0.827
 4051SOL     OW12526   3.409   2.084   1.729
 4051SOL    HW112527   3.404   2.121   1.821
 4051SOL    HW212528   3.337   2.015   1.717
 4052SOL     OW12529   2.476   1.984   0.117
 4052SOL    HW112530   2.574   1.962   0.124
 4052SOL    HW212531   2.445   1.967   0.024
 4053SOL     OW12532   2.643   2.126   1.749
 4053SOL    HW112533   2.710   2.065   1.792
 4053SOL    HW212534   2.570   2.145   1.814
 4054SOL     OW12535   2.750   3.376   1.195
 4054SOL    HW112536   2.727   3.351   1.101
 4054SOL    HW212537   2.811   3.307   1.234
 4055SOL     OW12538   3.213   2.452   1.433
 4055SOL    HW112539   3.241   2.409   1.518
 4055SOL    HW212540   3.238   2.548   1.434
 4056SOL     OW12541   2.665   3.264   0.924
 4056SOL    HW112542   2.755   3.278   0.882
 4056SOL    HW212543   2.594   3.266   0.853
 4057SOL     OW12544   2.784   2.365   0.899
 4057SOL    HW112545   2.759   2.356   0.803
 4057SOL    HW212546   2.832   2.283   0.930
 4058SOL     OW12547   2.401   1.926   0.512
 4058SOL    HW112548   2.320   1.927   0.570
 4058SOL    HW212549   2.404   2.009   0.457
 4059SOL     OW12550   3.296   3.050   0.041
 4059SOL    HW112551   3.328   2.974   0.098
 4059SOL    HW212552   3.204   3.077   0.071
 4060SOL     OW12553   2.159   1.897   0.171
 4060SOL    HW112554   2.208   1.981   0.150
 4060SOL    HW212555   2.221   1.832   0.216
 4061SOL     OW12556   2.797   2.098   0.480
 4061SOL    HW112557   2.749   2.139   0.402
 4061SOL    HW212558   2.896   2.096   0.461
 4062SOL     OW12559   2.938   2.545   1.464
 4062SOL    HW112560   2.858   2.484   1.467
 4062SOL    HW212561   3.019   2.492   1.440
 4063SOL     OW12562   3.089   3.432   0.793
 4063SOL    HW112563   3.110   3.506   0.728
 4063SOL    HW212564   3.157   3.432   0.866
 4064SOL     OW12565   2.321   3.014   0.741
 4064SOL    HW112566   2.250   2.987   0.806
 4064SOL    HW212567   2.295   2.986   0.648
 4065SOL     OW12568   3.133   3.659   0.591
 4065SOL    HW112569   3.177   3.723   0.527
 4065SOL    HW212570   3.083   3.711   0.661
 4066SOL     OW12571   2.894   2.411   0.016
 4066SOL    HW112572   2.853   2.493  -0.023
 4066SOL    HW212573   2.958   2.437   0.089
 4067SOL     OW12574   1.940   2.418   1.386
 4067SOL    HW112575   2.032   2.417   1.345
 4067SOL    HW212576   1.934   2.492   1.453
 4068SOL     OW12577   2.423   2.084   1.147
 4068SOL    HW112578   2.461   2.000   1.184
 4068SOL    HW212579   2.335   2.103   1.191
 4069SOL     OW12580   2.728   2.316   0.642
 4069SOL    HW112581   2.696   2.388   0.580
 4069SOL    HW212582   2.752   2.235   0.589
 4070SOL     OW12583   2.879   1.901   0.753
 4070SOL    HW112584   2.807   1.906   0.684
 4070SOL    HW212585   2.855   1.832   0.822
 4071SOL     OW12586   3.291   3.035   0.867
 4071SOL    HW112587   3.236   2.951   0.860
 4071SOL    HW212588   3.317   3.064   0.775
 4072SOL     OW12589   3.328   2.452   0.992
 4072SOL    HW112590   3.298   2.357   0.999
 4072SOL    HW212591   3.401   2.468   1.058
 4073SOL     OW12592   3.719   2.695   0.377
 4073SOL    HW112593   3.761   2.631   0.441
 4073SOL    HW212594   3.681   2.644   0.299
 4074SOL     OW12595   2.350   3.247   0.174
 4074SOL    HW112596   2.263   3.232   0.221
 4074SOL    HW212597   2.333   3.273   0.079
 4075SOL     OW12598   3.526   3.142   0.657
 4075SOL    HW112599   3.625   3.150   0.671
 4075SOL    HW212600   3.481   3.226   0.688
 4076SOL     OW12601   3.252   2.437   0.078
 4076SOL    HW112602   3.198   2.416   0.159
 4076SOL    HW212603   3.343   2.396   0.087
 4077SOL     OW12604   3.616   3.085   1.588
 4077SOL    HW112605   3.707   3.046   1.575
 4077SOL    HW212606   3.624   3.181   1.612
 4078SOL     OW12607   2.926   3.209   1.340
 4078SOL    HW112608   2.846   3.186   1.395
 4078SOL    HW212609   3.009   3.183   1.389
 4079SOL     OW12610   3.454   3.491   1.625
 4079SOL    HW112611   3.481   3.525   1.535
 4079SOL    HW212612   3.533   3.453   1.671
 4080SOL     OW12613   2.973   3.057   1.100
 4080SOL    HW112614   2.933   3.101   1.181
 4080SOL    HW212615   2.932   3.094   1.017
 4081SOL     OW12616   3.500   2.961   1.079
 4081SOL    HW112617   3.505   3.042   1.138
 4081SOL    HW212618   3.414   2.963   1.028
 4082SOL     OW12619   2.777   1.951   1.402
 4082SOL    HW112620   2.802   1.931   1.307
 4082SOL    HW212621   2.849   2.007   1.444
 4083SOL     OW12622   2.842   2.978   1.719
 4083SOL    HW112623   2.743   2.984   1.729
 4083SOL    HW212624   2.865   2.898   1.663
 4084SOL     OW12625   2.567   2.912   0.368
 4084SOL    HW112626   2.553   2.919   0.467
 4084SOL    HW212627   2.651   2.861   0.350
 4085SOL     OW12628   2.272   2.675   1.251
 4085SOL    HW112629   2.358   2.687   1.301
 4085SOL    HW212630   2.230   2.588   1.278
 4086SOL     OW12631   3.136   2.248   1.262
 4086SOL    HW112632   3.157   2.322   1.326
 4086SOL    HW212633   3.047   2.265   1.219
 4087SOL     OW12634   1.926   3.426   1.331
 4087SOL    HW112635   1.880   3.508   1.297
 4087SOL    HW212636   2.024   3.445   1.340
 4088SOL     OW12637   2.229   2.962   0.501
 4088SOL    HW112638   2.222   3.045   0.445
 4088SOL    HW212639   2.233   2.882   0.441
 4089SOL     OW12640   3.114   3.210   0.388
 4089SOL    HW112641   3.164   3.287   0.428
 4089SOL    HW212642   3.019   3.212   0.420
 4090SOL     OW12643   3.134   3.307   1.142
 4090SOL    HW112644   3.181   3.320   1.229
 4090SOL    HW212645   3.068   3.233   1.151
 4091SOL     OW12646   3.444   2.501   0.472
 4091SOL    HW112647   3.413   2.562   0.545
 4091SOL    HW212648   3.494   2.553   0.403
 4092SOL     OW12649   2.216   3.372   1.329
 4092SOL    HW112650   2.195   3.328   1.242
 4092SOL    HW212651   2.313   3.398   1.332
 4093SOL     OW12652   2.264   2.613   1.598
 4093SOL    HW112653   2.332   2.668   1.551
 4093SOL    HW212654   2.304   2.525   1.625
 4094SOL     OW12655   3.449   2.641   1.670
 4094SOL    HW112656   3.357   2.679   1.665
 4094SOL    HW212657   3.509   2.688   1.605
 4095SOL     OW12658   2.875   1.967   1.770
 4095SOL    HW112659   2.881   2.052   1.718
 4095SOL    HW212660   2.907   1.891   1.713
 4096SOL     OW12661   2.366   1.912   1.740
 4096SOL    HW112662   2.324   1.855   1.670
 4096SOL    HW212663   2.300   1.981   1.772
 4097SOL     OW12664   2.435   2.732   1.029
 4097SOL    HW112665   2.479   2.821   1.020
 4097SOL    HW212666   2.372   2.732   1.106
 4098SOL     OW12667   3.222   2.724   1.045
 4098SOL    HW112668   3.147   2.724   0.979
 4098SOL    HW212669   3.259   2.632   1.054
 4099SOL     OW12670   3.071   2.387   0.275
 4099SOL    HW112671   3.084   2.303   0.329
 4099SOL    HW212672   3.042   2.461   0.335
 4100SOL     OW12673   2.169   2.075   1.231
 4100SOL    HW112674   2.146   2.112   1.321
 4100SOL    HW212675   2.139   1.980   1.225
 4101SOL     OW12676   1.899   3.172   1.282
 4101SOL    HW112677   1.952   3.123   1.350
 4101SOL    HW212678   1.921   3.270   1.287
 4102SOL     OW12679   2.594   2.496   1.064
 4102SOL    HW112680   2.653   2.470   0.988
 4102SOL    HW212681   2.566   2.592   1.053
 4103SOL     OW12682   3.590   2.797   1.854
 4103SOL    HW112683   3.544   2.790   1.765
 4103SOL    HW212684   3.528   2.841   1.920
 4104SOL     OW12685   2.169   1.925   0.618
 4104SOL    HW112686   2.158   2.019   0.651
 4104SOL    HW212687   2.164   1.862   0.695
 4105SOL     OW12688   3.484   2.229   0.374
 4105SOL    HW112689   3.486   2.153   0.438
 4105SOL    HW212690   3.436   2.306   0.414
 4106SOL     OW12691   2.885   2.628   0.966
 4106SOL    HW112692   2.900   2.649   1.062
 4106SOL    HW212693   2.855   2.533   0.957
 4107SOL     OW12694   2.842   3.435   1.700
 4107SOL    HW112695   2.822   3.479   1.612
 4107SOL    HW212696   2.881   3.344   1.684
 4108SOL     OW12697   3.721   3.380   1.605
 4108SOL    HW112698   3.735   3.407   1.510
 4108SOL    HW212699   3.804   3.402   1.658
 4109SOL     OW12700   2.212   2.760   1.804
 4109SOL    HW112701   2.288   2.804   1.852
 4109SOL    HW212702   2.247   2.713   1.722
 4110SOL     OW12703   3.402   2.136   0.125
 4110SOL    HW112704   3.341   2.061   0.148
 4110SOL    HW212705   3.424   2.188   0.208
 4111SOL     OW12706   3.165   2.700   0.042
 4111SOL    HW112707   3.199   2.607   0.057
 4111SOL    HW212708   3.183   2.727  -0.053
 4112SOL     OW12709   2.930   3.195   0.849
 4112SOL    HW112710   2.937   3.111   0.794
 4112SOL    HW212711   2.992   3.264   0.813
 4113SOL     OW12712   2.181   2.672   0.949
 4113SOL    HW112713   2.274   2.708   0.954
 4113SOL    HW212714   2.175   2.587   1.001
 4114SOL     OW12715   3.000   2.242   1.678
 4114SOL    HW112716   2.955   2.305   1.742
 4114SOL    HW212717   3.093   2.273   1.661
 4115SOL     OW12718   3.022   2.069   1.477
 4115SOL    HW112719   3.022   2.133   1.554
 4115SOL    HW212720   3.050   2.117   1.394
 4116SOL     OW12721   1.870   3.188   0.200
 4116SOL    HW112722   1.777   3.209   0.169
 4116SOL    HW212723   1.880   3.089   0.213
 4117SOL     OW12724   1.950   3.663   0.927
 4117SOL    HW112725   1.908   3.577   0.900
 4117SOL    HW212726   2.044   3.666   0.893
 4118SOL     OW12727   2.366   3.430   0.910
 4118SOL    HW112728   2.432   3.504   0.919
 4118SOL    HW212729   2.410   3.351   0.868
 4119SOL     OW12730   2.864   2.658   1.238
 4119SOL    HW112731   2.905   2.626   1.324
 4119SOL    HW212732   2.768   2.631   1.235
 4120SOL     OW12733   1.902   2.406   1.114
 4120SOL    HW112734   1.987   2.373   1.073
 4120SOL    HW212735   1.915   2.421   1.212
 4121SOL     OW12736   2.051   2.382   1.722
 4121SOL    HW112737   2.110   2.342   1.652
 4121SOL    HW212738   1.993   2.453   1.681
 4122SOL     OW12739   3.231   2.812   1.660
 4122SOL    HW112740   3.270   2.901   1.680
 4122SOL    HW212741   3.241   2.792   1.563
 4123SOL     OW12742   2.677   2.434   0.325
 4123SOL    HW112743   2.684   2.345   0.279
 4123SOL    HW212744   2.583   2.468   0.317
 4124SOL     OW12745   3.519   2.466   1.206
 4124SOL    HW112746   3.481   2.397   1.268
 4124SOL    HW212747   3.601   2.430   1.162
 4125SOL     OW12748   2.114   3.426   1.744
 4125SOL    HW112749   2.084   3.483   1.820
 4125SOL    HW212750   2.107   3.329   1.770
 4126SOL     OW12751   2.792   3.540   1.465
 4126SOL    HW112752   2.768   3.522   1.370
 4126SOL    HW212753   2.822   3.634   1.475
 4127SOL     OW12754   2.021   2.999   1.466
 4127SOL    HW112755   2.043   2.938   1.542
 4127SOL    HW212756   2.031   2.950   1.380
 4128SOL     OW12757   3.209   2.921   1.234
 4128SOL    HW112758   3.233   2.858   1.160
 4128SOL    HW212759   3.119   2.961   1.216
 4129SOL     OW12760   3.164   2.717   0.309
 4129SOL    HW112761   3.078   2.686   0.351
 4129SOL    HW212762   3.160   2.703   0.210
 4130SOL     OW12763   3.621   3.609   1.154
 4130SOL    HW112764   3.682   3.639   1.081
 4130SOL    HW212765   3.583   3.520   1.132
 4131SOL     OW12766   3.114   3.593   1.128
 4131SOL    HW112767   3.198   3.598   1.074
 4131SOL    HW212768   3.091   3.497   1.146
 4132SOL     OW12769   1.945   3.120   1.022
 4132SOL    HW112770   1.940   3.119   1.122
 4132SOL    HW212771   1.862   3.079   0.984
 4133SOL     OW12772   2.550   3.524   1.716
 4133SOL    HW112773   2.494   3.605   1.725
 4133SOL    HW212774   2.602   3.528   1.630
 4134SOL     OW12775   2.765   1.948   0.133
 4134SOL    HW112776   2.816   1.949   0.047
 4134SOL    HW212777   2.821   1.906   0.204
 4135SOL     OW12778   3.588   1.997   0.523
 4135SOL    HW112779   3.661   1.980   0.456
 4135SOL    HW212780   3.557   1.910   0.561
 4136SOL     OW12781   3.250   3.435   0.477
 4136SOL    HW112782   3.317   3.447   0.403
 4136SOL    HW212783   3.210   3.524   0.500
 4137SOL     OW12784   1.992   3.656   1.851
 4137SOL    HW112785   1.951   3.582   1.904
 4137SOL    HW212786   2.056   3.707   1.909
 4138SOL     OW12787   3.142   2.789   0.672
 4138SOL    HW112788   3.202   2.708   0.674
 4138SOL    HW212789   3.182   2.858   0.612
 4139SOL     OW12790   2.692   3.135   1.422
 4139SOL    HW112791   2.687   3.168   1.517
 4139SOL    HW212792   2.606   3.154   1.376
 4140SOL     OW12793   2.534   3.478   0.154
 4140SOL    HW112794   2.543   3.488   0.055
 4140SOL    HW212795   2.494   3.389   0.175
 4141SOL     OW12796   3.512   3.582   1.394
 4141SOL    HW112797   3.565   3.592   1.310
 4141SOL    HW212798   3.485   3.672   1.428
 4142SOL     OW12799   3.703   2.037   0.963
 4142SOL    HW112800   3.742   1.952   0.927
 4142SOL    HW212801   3.605   2.039   0.944
 4143SOL     OW12802   2.125   2.188   0.720
 4143SOL    HW112803   2.046   2.239   0.686
 4143SOL    HW212804   2.116   2.173   0.818
 4144SOL     OW12805   3.056   3.474   0.031
 4144SOL    HW112806   3.062   3.381   0.068
 4144SOL    HW212807   2.997   3.474  -0.049
 4145SOL     OW12808   2.684   2.864   1.372
 4145SOL    HW112809   2.724   2.863   1.280
 4145SOL    HW212810   2.694   2.956   1.412
 4146SOL     OW12811   2.778   2.772   0.291
 4146SOL    HW112812   2.841   2.810   0.223
 4146SOL    HW212813   2.818   2.689   0.330
 4147SOL     OW12814   3.366   3.469   0.044
 4147SOL    HW112815   3.274   3.506   0.051
 4147SOL    HW212816   3.404   3.489  -0.046
 4148SOL     OW12817   2.234   3.150   1.490
 4148SOL    HW112818   2.221   3.243   1.456
 4148SOL    HW212819   2.150   3.098   1.477
 4149SOL     OW12820   3.476   3.154   1.289
 4149SOL    HW112821   3.536   3.157   1.369
 4149SOL    HW212822   3.401   3.218   1.302
 4150SOL     OW12823   2.901   2.960   0.696
 4150SOL    HW112824   2.831   2.913   0.750
 4150SOL    HW212825   2.960   2.892   0.653
 4151SOL     OW12826   2.876   2.098   0.971
 4151SOL    HW112827   2.868   2.062   0.878
 4151SOL    HW212828   2.874   2.022   1.036
 4152SOL     OW12829   2.452   3.349   0.491
 4152SOL    HW112830   2.494   3.291   0.421
 4152SOL    HW212831   2.408   3.428   0.447
 4153SOL     OW12832   3.571   2.247   1.381
 4153SOL    HW112833   3.644   2.316   1.385
 4153SOL    HW212834   3.599   2.172   1.322
 4154SOL     OW12835   2.117   3.210   0.290
 4154SOL    HW112836   2.021   3.211   0.263
 4154SOL    HW212837   2.129   3.263   0.374
 4155SOL     OW12838   1.967   2.875   1.726
 4155SOL    HW112839   1.890   2.842   1.780
 4155SOL    HW212840   2.052   2.845   1.768
 4156SOL     OW12841   2.534   2.065   1.489
 4156SOL    HW112842   2.624   2.049   1.449
 4156SOL    HW212843   2.542   2.070   1.588
 4157SOL     OW12844   1.937   2.207   0.033
 4157SOL    HW112845   1.845   2.179   0.004
 4157SOL    HW212846   1.968   2.284  -0.023
 4158SOL     OW12847   3.302   2.718   1.398
 4158SOL    HW112848   3.245   2.770   1.335
 4158SOL    HW212849   3.398   2.730   1.374
 4159SOL     OW12850   1.934   2.028   0.318
 4159SOL    HW112851   1.917   2.111   0.264
 4159SOL    HW212852   2.024   1.991   0.296
 4160SOL     OW12853   3.045   3.197   0.119
 4160SOL    HW112854   2.946   3.186   0.121
 4160SOL    HW212855   3.079   3.212   0.212
 4161SOL     OW12856   2.475   2.704   1.431
 4161SOL    HW112857   2.531   2.785   1.414
 4161SOL    HW212858   2.534   2.624   1.434
 4162SOL     OW12859   3.355   3.629   0.959
 4162SOL    HW112860   3.388   3.693   0.890
 4162SOL    HW212861   3.421   3.623   1.034
 4163SOL     OW12862   2.578   2.427   1.708
 4163SOL    HW112863   2.597   2.492   1.782
 4163SOL    HW212864   2.638   2.347   1.717
 4164SOL     OW12865   3.312   3.082   1.633
 4164SOL    HW112866   3.303   3.072   1.732
 4164SOL    HW212867   3.408   3.075   1.607
 4165SOL     OW12868   2.252   3.603   1.560
 4165SOL    HW112869   2.161   3.644   1.558
 4165SOL    HW212870   2.245   3.509   1.592
 4166SOL     OW12871   3.536   2.745   1.254
 4166SOL    HW112872   3.509   2.656   1.217
 4166SOL    HW212873   3.537   2.813   1.181
 4167SOL     OW12874   3.087   2.187   0.449
 4167SOL    HW112875   3.152   2.113   0.438
 4167SOL    HW212876   3.107   2.237   0.533
 4168SOL     OW12877   3.639   2.204   1.642
 4168SOL    HW112878   3.622   2.235   1.548
 4168SOL    HW212879   3.555   2.167   1.680
 4169SOL     OW12880   3.592   2.796   1.517
 4169SOL    HW112881   3.630   2.887   1.532
 4169SOL    HW212882   3.584   2.779   1.418
 4170SOL     OW12883   2.721   3.236   0.016
 4170SOL    HW112884   2.675   3.251   0.104
 4170SOL    HW212885   2.765   3.321  -0.014
 4171SOL     OW12886   2.523   3.652   0.953
 4171SOL    HW112887   2.477   3.740   0.940
 4171SOL    HW212888   2.622   3.664   0.946
 4172SOL     OW12889   2.721   2.818   0.861
 4172SOL    HW112890   2.775   2.749   0.909
 4172SOL    HW212891   2.689   2.887   0.927
 4173SOL     OW12892   2.945   2.846   0.087
 4173SOL    HW112893   2.922   2.899   0.005
 4173SOL    HW212894   3.026   2.790   0.068
 4174SOL     OW12895   3.723   3.431   0.851
 4174SOL    HW112896   3.652   3.419   0.781
 4174SOL    HW212897   3.724   3.352   0.911
 4175SOL     OW12898   2.083   3.176   1.844
 4175SOL    HW112899   2.018   3.103   1.823
 4175SOL    HW212900   2.087   3.190   1.942
 4176SOL     OW12901   1.941   3.102   0.653
 4176SOL    HW112902   1.940   3.055   0.741
 4176SOL    HW212903   2.023   3.074   0.602
 4177SOL     OW12904   2.534   3.253   1.624
 4177SOL    HW112905   2.456   3.203   1.662
 4177SOL    HW212906   2.531   3.348   1.655
 4178SOL     OW12907   3.686   2.054   1.227
 4178SOL    HW112908   3.682   1.964   1.271
 4178SOL    HW212909   3.689   2.043   1.128
 4179SOL     OW12910   3.567   3.349   1.104
 4179SOL    HW112911   3.474   3.324   1.077
 4179SOL    HW212912   3.593   3.299   1.186
 4180SOL     OW12913   2.674   3.448   0.687
 4180SOL    HW112914   2.706   3.458   0.593
 4180SOL    HW212915   2.595   3.386   0.689
 4181SOL     OW12916   3.286   2.076   1.112
 4181SOL    HW112917   3.338   2.011   1.167
 4181SOL    HW212918   3.237   2.139   1.173
 4182SOL     OW12919   2.863   1.896   1.154
 4182SOL    HW112920   2.800   1.824   1.123
 4182SOL    HW212921   2.956   1.860   1.154
 4183SOL     OW12922   2.632   3.192   0.301
 4183SOL    HW112923   2.586   3.105   0.318
 4183SOL    HW212924   2.723   3.189   0.342
 4184SOL     OW12925   2.480   3.429   1.284
 4184SOL    HW112926   2.475   3.511   1.341
 4184SOL    HW212927   2.569   3.426   1.239
 4185SOL     OW12928   3.214   1.914   0.168
 4185SOL    HW112929   3.249   1.873   0.084
 4185SOL    HW212930   3.124   1.876   0.188
 4186SOL     OW12931   3.162   2.315   0.691
 4186SOL    HW112932   3.103   2.395   0.695
 4186SOL    HW212933   3.177   2.280   0.784
 4187SOL     OW12934   3.455   2.083   0.882
 4187SOL    HW112935   3.371   2.082   0.936
 4187SOL    HW212936   3.457   2.166   0.826
 4188SOL     OW12937   1.901   2.939   0.300
 4188SOL    HW112938   2.000   2.928   0.291
 4188SOL    HW212939   1.861   2.853   0.332
 4189SOL     OW12940   2.737   3.508   0.337
 4189SOL    HW112941   2.660   3.473   0.283
 4189SOL    HW212942   2.705   3.579   0.399
 4190SOL     OW12943   2.092   2.490   1.975
 4190SOL    HW112944   1.999   2.488   2.012
 4190SOL    HW212945   2.093   2.451   1.883
 4191SOL     OW12946   2.087   2.137   2.858
 4191SOL    HW112947   2.122   2.120   2.950
 4191SOL    HW212948   1.999   2.092   2.846
 4192SOL     OW12949   1.881   2.230   2.509
 4192SOL    HW112950   1.799   2.273   2.548
 4192SOL    HW212951   1.853   2.157   2.446
 4193SOL     OW12952   2.431   3.137   3.027
 4193SOL    HW112953   2.338   3.130   2.990
 4193SOL    HW212954   2.442   3.226   3.071
 4194SOL     OW12955   3.417   3.373   2.565
 4194SOL    HW112956   3.360   3.357   2.646
 4194SOL    HW212957   3.358   3.383   2.485
 4195SOL     OW12958   2.997   2.565   2.579
 4195SOL    HW112959   3.054   2.643   2.554
 4195SOL    HW212960   2.937   2.591   2.655
 4196SOL     OW12961   3.617   2.469   2.093
 4196SOL    HW112962   3.605   2.456   1.994
 4196SOL    HW212963   3.587   2.388   2.142
 4197SOL     OW12964   2.630   3.006   2.885
 4197SOL    HW112965   2.552   3.023   2.945
 4197SOL    HW212966   2.664   3.093   2.849
 4198SOL     OW12967   2.712   2.660   3.685
 4198SOL    HW112968   2.708   2.736   3.750
 4198SOL    HW212969   2.734   2.696   3.594
 4199SOL     OW12970   2.547   2.874   2.527
 4199SOL    HW112971   2.616   2.858   2.597
 4199SOL    HW212972   2.474   2.931   2.565
 4200SOL     OW12973   2.548   3.023   3.665
 4200SOL    HW112974   2.608   3.102   3.679
 4200SOL    HW212975   2.462   3.054   3.624
 4201SOL     OW12976   2.197   3.297   2.923
 4201SOL    HW112977   2.119   3.266   2.870
 4201SOL    HW212978   2.255   3.355   2.866
 4202SOL     OW12979   3.322   3.367   3.201
 4202SOL    HW112980   3.346   3.461   3.227
 4202SOL    HW212981   3.306   3.313   3.283
 4203SOL     OW12982   3.465   2.309   2.599
 4203SOL    HW112983   3.391   2.355   2.549
 4203SOL    HW212984   3.516   2.377   2.652
 4204SOL     OW12985   2.093   3.575   2.345
 4204SOL    HW112986   2.127   3.652   2.399
 4204SOL    HW212987   2.137   3.575   2.255
 4205SOL     OW12988   2.989   3.203   3.552
 4205SOL    HW112989   3.036   3.203   3.640
 4205SOL    HW212990   2.941   3.116   3.541
 4206SOL     OW12991   2.092   3.296   2.400
 4206SOL    HW112992   2.066   3.392   2.400
 4206SOL    HW212993   2.021   3.242   2.445
 4207SOL     OW12994   2.102   2.953   2.748
 4207SOL    HW112995   2.116   2.869   2.800
 4207SOL    HW212996   2.047   3.017   2.803
 4208SOL     OW12997   2.482   3.648   3.301
 4208SOL    HW112998   2.390   3.631   3.336
 4208SOL    HW212999   2.510   3.740   3.327
 4209SOL     OW13000   2.468   2.826   1.985
 4209SOL    HW113001   2.475   2.910   1.931
 4209SOL    HW213002   2.514   2.839   2.073
 4210SOL     OW13003   3.456   1.976   3.342
 4210SOL    HW113004   3.438   2.043   3.270
 4210SOL    HW213005   3.453   2.022   3.431
 4211SOL     OW13006   1.984   2.505   2.425
 4211SOL    HW113007   1.939   2.417   2.442
 4211SOL    HW213008   1.983   2.559   2.509
 4212SOL     OW13009   3.704   3.629   2.221
 4212SOL    HW113010   3.758   3.600   2.301
 4212SOL    HW213011   3.734   3.719   2.192
 4213SOL     OW13012   1.889   3.458   1.979
 4213SOL    HW113013   1.870   3.362   2.000
 4213SOL    HW213014   1.856   3.516   2.054
 4214SOL     OW13015   3.551   2.784   2.474
 4214SOL    HW113016   3.646   2.755   2.482
 4214SOL    HW213017   3.543   2.849   2.399
 4215SOL     OW13018   3.503   2.970   2.294
 4215SOL    HW113019   3.589   2.972   2.242
 4215SOL    HW213020   3.517   3.017   2.382
 4216SOL     OW13021   1.975   2.599   3.459
 4216SOL    HW113022   2.063   2.586   3.504
 4216SOL    HW213023   1.962   2.696   3.437
 4217SOL     OW13024   2.475   3.227   2.588
 4217SOL    HW113025   2.426   3.140   2.597
 4217SOL    HW213026   2.452   3.270   2.501
 4218SOL     OW13027   3.155   3.090   3.285
 4218SOL    HW113028   3.192   3.017   3.227
 4218SOL    HW213029   3.207   3.095   3.370
 4219SOL     OW13030   2.671   1.866   2.364
 4219SOL    HW113031   2.711   1.957   2.355
 4219SOL    HW213032   2.571   1.874   2.370
 4220SOL     OW13033   2.059   2.838   3.126
 4220SOL    HW113034   2.148   2.793   3.112
 4220SOL    HW213035   1.986   2.773   3.107
 4221SOL     OW13036   3.387   2.861   2.052
 4221SOL    HW113037   3.324   2.785   2.065
 4221SOL    HW213038   3.435   2.879   2.138
 4222SOL     OW13039   3.049   3.654   3.478
 4222SOL    HW113040   3.073   3.714   3.402
 4222SOL    HW213041   3.056   3.559   3.448
 4223SOL     OW13042   3.328   3.279   2.815
 4223SOL    HW113043   3.269   3.285   2.895
 4223SOL    HW213044   3.313   3.191   2.769
 4224SOL     OW13045   3.529   3.576   2.434
 4224SOL    HW113046   3.488   3.553   2.346
 4224SOL    HW213047   3.511   3.502   2.499
 4225SOL     OW13048   3.143   2.207   2.806
 4225SOL    HW113049   3.057   2.157   2.793
 4225SOL    HW213050   3.205   2.153   2.862
 4226SOL     OW13051   3.438   3.524   2.169
 4226SOL    HW113052   3.527   3.570   2.172
 4226SOL    HW213053   3.417   3.500   2.074
 4227SOL     OW13054   3.256   2.331   3.536
 4227SOL    HW113055   3.236   2.374   3.624
 4227SOL    HW213056   3.334   2.269   3.545
 4228SOL     OW13057   2.835   2.752   3.434
 4228SOL    HW113058   2.881   2.668   3.405
 4228SOL    HW213059   2.779   2.786   3.359
 4229SOL     OW13060   2.853   2.272   3.104
 4229SOL    HW113061   2.776   2.306   3.158
 4229SOL    HW213062   2.819   2.221   3.025
 4230SOL     OW13063   2.903   2.563   2.291
 4230SOL    HW113064   2.929   2.559   2.387
 4230SOL    HW213065   2.818   2.512   2.277
 4231SOL     OW13066   1.938   2.673   2.651
 4231SOL    HW113067   2.037   2.661   2.660
 4231SOL    HW213068   1.914   2.768   2.672
 4232SOL     OW13069   1.992   3.683   3.433
 4232SOL    HW113070   1.982   3.668   3.532
 4232SOL    HW213071   1.906   3.719   3.397
 4233SOL     OW13072   2.727   2.210   2.057
 4233SOL    HW113073   2.786   2.273   2.008
 4233SOL    HW213074   2.746   2.116   2.028
 4234SOL     OW13075   3.581   2.447   3.693
 4234SOL    HW113076   3.555   2.536   3.657
 4234SOL    HW213077   3.579   2.379   3.620
 4235SOL     OW13078   3.224   3.006   2.407
 4235SOL    HW113079   3.307   2.977   2.359
 4235SOL    HW213080   3.175   3.073   2.351
 4236SOL     OW13081   2.412   2.058   2.747
 4236SOL    HW113082   2.407   2.053   2.847
 4236SOL    HW213083   2.414   2.154   2.718
 4237SOL     OW13084   2.870   3.318   2.339
 4237SOL    HW113085   2.824   3.390   2.287
 4237SOL    HW213086   2.866   3.338   2.437
 4238SOL     OW13087   2.213   3.663   2.715
 4238SOL    HW113088   2.263   3.577   2.721
 4238SOL    HW213089   2.278   3.740   2.712
 4239SOL     OW13090   3.657   2.928   2.735
 4239SOL    HW113091   3.595   2.913   2.659
 4239SOL    HW213092   3.605   2.939   2.820
 4240SOL     OW13093   3.089   3.412   3.368
 4240SOL    HW113094   3.095   3.335   3.432
 4240SOL    HW213095   3.037   3.386   3.288
 4241SOL     OW13096   2.183   2.805   2.104
 4241SOL    HW113097   2.265   2.844   2.062
 4241SOL    HW213098   2.156   2.723   2.055
 4242SOL     OW13099   3.320   2.597   2.590
 4242SOL    HW113100   3.315   2.532   2.665
 4242SOL    HW213101   3.400   2.656   2.603
 4243SOL     OW13102   2.323   3.128   3.589
 4243SOL    HW113103   2.273   3.129   3.503
 4243SOL    HW213104   2.260   3.110   3.665
 4244SOL     OW13105   2.973   3.638   2.099
 4244SOL    HW113106   2.913   3.576   2.149
 4244SOL    HW213107   3.004   3.594   2.014
 4245SOL     OW13108   2.064   2.147   3.360
 4245SOL    HW113109   1.984   2.207   3.347
 4245SOL    HW213110   2.054   2.098   3.446
 4246SOL     OW13111   3.494   3.239   1.943
 4246SOL    HW113112   3.462   3.333   1.933
 4246SOL    HW213113   3.418   3.176   1.931
 4247SOL     OW13114   2.326   3.605   2.185
 4247SOL    HW113115   2.359   3.644   2.271
 4247SOL    HW213116   2.402   3.598   2.120
 4248SOL     OW13117   3.262   1.969   2.288
 4248SOL    HW113118   3.238   1.932   2.198
 4248SOL    HW213119   3.361   1.985   2.292
 4249SOL     OW13120   2.111   3.647   3.103
 4249SOL    HW113121   2.168   3.582   3.153
 4249SOL    HW213122   2.095   3.614   3.010
 4250SOL     OW13123   2.802   3.560   2.766
 4250SOL    HW113124   2.882   3.503   2.787
 4250SOL    HW213125   2.753   3.520   2.689
 4251SOL     OW13126   3.409   2.084   3.591
 4251SOL    HW113127   3.404   2.121   3.683
 4251SOL    HW213128   3.337   2.015   3.579
 4252SOL     OW13129   2.476   1.984   1.979
 4252SOL    HW113130   2.574   1.962   1.986
 4252SOL    HW213131   2.445   1.967   1.886
 4253SOL     OW13132   2.643   2.126   3.611
 4253SOL    HW113133   2.710   2.065   3.654
 4253SOL    HW213134   2.570   2.145   3.676
 4254SOL     OW13135   2.750   3.376   3.057
 4254SOL    HW113136   2.727   3.351   2.963
 4254SOL    HW213137   2.811   3.307   3.096
 4255SOL     OW13138   3.213   2.452   3.295
 4255SOL    HW113139   3.241   2.409   3.380
 4255SOL    HW213140   3.238   2.548   3.296
 4256SOL     OW13141   2.665   3.264   2.786
 4256SOL    HW113142   2.755   3.278   2.744
 4256SOL    HW213143   2.594   3.266   2.715
 4257SOL     OW13144   2.784   2.365   2.761
 4257SOL    HW113145   2.759   2.356   2.665
 4257SOL    HW213146   2.832   2.283   2.792
 4258SOL     OW13147   2.401   1.926   2.374
 4258SOL    HW113148   2.320   1.927   2.432
 4258SOL    HW213149   2.404   2.009   2.319
 4259SOL     OW13150   3.296   3.050   1.903
 4259SOL    HW113151   3.328   2.974   1.960
 4259SOL    HW213152   3.204   3.077   1.933
 4260SOL     OW13153   2.159   1.897   2.033
 4260SOL    HW113154   2.208   1.981   2.012
 4260SOL    HW213155   2.221   1.832   2.078
 4261SOL     OW13156   2.797   2.098   2.342
 4261SOL    HW113157   2.749   2.139   2.264
 4261SOL    HW213158   2.896   2.096   2.323
 4262SOL     OW13159   2.938   2.545   3.326
 4262SOL    HW113160   2.858   2.484   3.329
 4262SOL    HW213161   3.019   2.492   3.302
 4263SOL     OW13162   3.089   3.432   2.655
 4263SOL    HW113163   3.110   3.506   2.590
 4263SOL    HW213164   3.157   3.432   2.728
 4264SOL     OW13165   2.321   3.014   2.603
 4264SOL    HW113166   2.250   2.987   2.668
 4264SOL    HW213167   2.295   2.986   2.510
 4265SOL     OW13168   3.133   3.659   2.453
 4265SOL    HW113169   3.177   3.723   2.389
 4265SOL    HW213170   3.083   3.711   2.523
 4266SOL     OW13171   2.894   2.411   1.878
 4266SOL    HW113172   2.853   2.493   1.839
 4266SOL    HW213173   2.958   2.437   1.951
 4267SOL     OW13174   1.940   2.418   3.248
 4267SOL    HW113175   2.032   2.417   3.207
 4267SOL    HW213176   1.934   2.492   3.315
 4268SOL     OW13177   2.423   2.084   3.009
 4268SOL    HW113178   2.461   2.000   3.046
 4268SOL    HW213179   2.335   2.103   3.053
 4269SOL     OW13180   2.728   2.316   2.504
 4269SOL    HW113181   2.696   2.388   2.442
 4269SOL    HW213182   2.752   2.235   2.451
 4270SOL     OW13183   2.879   1.901   2.615
 4270SOL    HW113184   2.807   1.906   2.546
 4270SOL    HW213185   2.855   1.832   2.684
 4271SOL     OW13186   3.291   3.035   2.729
 4271SOL    HW113187   3.236   2.951   2.722
 4271SOL    HW213188   3.317   3.064   2.637
 4272SOL     OW13189   3.328   2.452   2.854
 4272SOL    HW113190   3.298   2.357   2.861
 4272SOL    HW213191   3.401   2.468   2.920
 4273SOL     OW13192   3.719   2.695   2.239
 4273SOL    HW113193   3.761   2.631   2.303
 4273SOL    HW213194   3.681   2.644   2.161
 4274SOL     OW13195   2.350   3.247   2.036
 4274SOL    HW113196   2.263   3.232   2.083
 4274SOL    HW213197   2.333   3.273   1.941
 4275SOL     OW13198   3.526   3.142   2.519
 4275SOL    HW113199   3.625   3.150   2.533
 4275SOL    HW213200   3.481   3.226   2.550
 4276SOL     OW13201   3.252   2.437   1.940
 4276SOL    HW113202   3.198   2.416   2.021
 4276SOL    HW213203   3.343   2.396   1.949
 4277SOL     OW13204   3.616   3.085   3.450
 4277SOL    HW113205   3.707   3.046   3.437
 4277SOL    HW213206   3.624   3.181   3.474
 4278SOL     OW13207   2.926   3.209   3.202
 4278SOL    HW113208   2.846   3.186   3.257
 4278SOL    HW213209   3.009   3.183   3.251
 4279SOL     OW13210   3.454   3.491   3.487
 4279SOL    HW113211   3.481   3.525   3.397
 4279SOL    HW213212   3.533   3.453   3.533
 4280SOL     OW13213   2.973   3.057   2.962
 4280SOL    HW113214   2.933   3.101   3.043
 4280SOL    HW213215   2.932   3.094   2.879
 4281SOL     OW13216   3.500   2.961   2.941
 4281SOL    HW113217   3.505   3.042   3.000
 4281SOL    HW213218   3.414   2.963   2.890
 4282SOL     OW13219   2.777   1.951   3.264
 4282SOL    HW113220   2.802   1.931   3.169
 4282SOL    HW213221   2.849   2.007   3.306
 4283SOL     OW13222   2.842   2.978   3.581
 4283SOL    HW113223   2.743   2.984   3.591
 4283SOL    HW213224   2.865   2.898   3.525
 4284SOL     OW13225   2.567   2.912   2.230
 4284SOL    HW113226   2.553   2.919   2.329
 4284SOL    HW213227   2.651   2.861   2.212
 4285SOL     OW13228   2.272   2.675   3.113
 4285SOL    HW113229   2.358   2.687   3.163
 4285SOL    HW213230   2.230   2.588   3.140
 4286SOL     OW13231   3.136   2.248   3.124
 4286SOL    HW113232   3.157   2.322   3.188
 4286SOL    HW213233   3.047   2.265   3.081
 4287SOL     OW13234   1.926   3.426   3.193
 4287SOL    HW113235   1.880   3.508   3.159
 4287SOL    HW213236   2.024   3.445   3.202
 4288SOL     OW13237   2.229   2.962   2.363
 4288SOL    HW113238   2.222   3.045   2.307
 4288SOL    HW213239   2.233   2.882   2.303
 4289SOL     OW13240   3.114   3.210   2.250
 4289SOL    HW113241   3.164   3.287   2.290
 4289SOL    HW213242   3.019   3.212   2.282
 4290SOL     OW13243   3.134   3.307   3.004
 4290SOL    HW113244   3.181   3.320   3.091
 4290SOL    HW213245   3.068   3.233   3.013
 4291SOL     OW13246   3.444   2.501   2.334
 4291SOL    HW113247   3.413   2.562   2.407
 4291SOL    HW213248   3.494   2.553   2.265
 4292SOL     OW13249   2.216   3.372   3.191
 4292SOL    HW113250   2.195   3.328   3.104
 4292SOL    HW213251   2.313   3.398   3.194
 4293SOL     OW13252   3.449   2.641   3.532
 4293SOL    HW113253   3.357   2.679   3.527
 4293SOL    HW213254   3.509   2.688   3.467
 4294SOL     OW13255   2.875   1.967   3.632
 4294SOL    HW113256   2.881   2.052   3.580
 4294SOL    HW213257   2.907   1.891   3.575
 4295SOL     OW13258   2.366   1.912   3.602
 4295SOL    HW113259   2.324   1.855   3.532
 4295SOL    HW213260   2.300   1.981   3.634
 4296SOL     OW13261   2.435   2.732   2.891
 4296SOL    HW113262   2.479   2.821   2.882
 4296SOL    HW213263   2.372   2.732   2.968
 4297SOL     OW13264   3.222   2.724   2.907
 4297SOL    HW113265   3.147   2.724   2.841
 4297SOL    HW213266   3.259   2.632   2.916
 4298SOL     OW13267   3.071   2.387   2.137
 4298SOL    HW113268   3.084   2.303   2.191
 4298SOL    HW213269   3.042   2.461   2.197
 4299SOL     OW13270   2.169   2.075   3.093
 4299SOL    HW113271   2.146   2.112   3.183
 4299SOL    HW213272   2.139   1.980   3.087
 4300SOL     OW13273   1.899   3.172   3.144
 4300SOL    HW113274   1.952   3.123   3.212
 4300SOL    HW213275   1.921   3.270   3.149
 4301SOL     OW13276   2.594   2.496   2.926
 4301SOL    HW113277   2.653   2.470   2.850
 4301SOL    HW213278   2.566   2.592   2.915
 4302SOL     OW13279   3.590   2.797   3.716
 4302SOL    HW113280   3.544   2.790   3.627
 4302SOL    HW213281   3.528   2.841   3.782
 4303SOL     OW13282   2.169   1.925   2.480
 4303SOL    HW113283   2.158   2.019   2.513
 4303SOL    HW213284   2.164   1.862   2.557
 4304SOL     OW13285   3.484   2.229   2.236
 4304SOL    HW113286   3.486   2.153   2.300
 4304SOL    HW213287   3.436   2.306   2.276
 4305SOL     OW13288   2.885   2.628   2.828
 4305SOL    HW113289   2.900   2.649   2.924
 4305SOL    HW213290   2.855   2.533   2.819
 4306SOL     OW13291   2.842   3.435   3.562
 4306SOL    HW113292   2.822   3.479   3.474
 4306SOL    HW213293   2.881   3.344   3.546
 4307SOL     OW13294   3.721   3.380   3.467
 4307SOL    HW113295   3.735   3.407   3.372
 4307SOL    HW213296   3.804   3.402   3.520
 4308SOL     OW13297   2.212   2.760   3.666
 4308SOL    HW113298   2.288   2.804   3.714
 4308SOL    HW213299   2.247   2.713   3.584
 4309SOL     OW13300   3.402   2.136   1.987
 4309SOL    HW113301   3.341   2.061   2.010
 4309SOL    HW213302   3.424   2.188   2.070
 4310SOL     OW13303   3.165   2.700   1.904
 4310SOL    HW113304   3.199   2.607   1.919
 4310SOL    HW213305   3.183   2.727   1.809
 4311SOL     OW13306   2.930   3.195   2.711
 4311SOL    HW113307   2.937   3.111   2.656
 4311SOL    HW213308   2.992   3.264   2.675
 4312SOL     OW13309   2.181   2.672   2.811
 4312SOL    HW113310   2.274   2.708   2.816
 4312SOL    HW213311   2.175   2.587   2.863
 4313SOL     OW13312   3.000   2.242   3.540
 4313SOL    HW113313   2.955   2.305   3.604
 4313SOL    HW213314   3.093   2.273   3.523
 4314SOL     OW13315   3.022   2.069   3.339
 4314SOL    HW113316   3.022   2.133   3.416
 4314SOL    HW213317   3.050   2.117   3.256
 4315SOL     OW13318   1.870   3.188   2.062
 4315SOL    HW113319   1.777   3.209   2.031
 4315SOL    HW213320   1.880   3.089   2.075
 4316SOL     OW13321   1.950   3.663   2.789
 4316SOL    HW113322   1.908   3.577   2.762
 4316SOL    HW213323   2.044   3.666   2.755
 4317SOL     OW13324   2.366   3.430   2.772
 4317SOL    HW113325   2.432   3.504   2.781
 4317SOL    HW213326   2.410   3.351   2.730
 4318SOL     OW13327   2.864   2.658   3.100
 4318SOL    HW113328   2.905   2.626   3.186
 4318SOL    HW213329   2.768   2.631   3.097
 4319SOL     OW13330   1.902   2.406   2.976
 4319SOL    HW113331   1.987   2.373   2.935
 4319SOL    HW213332   1.915   2.421   3.074
 4320SOL     OW13333   2.051   2.382   3.584
 4320SOL    HW113334   2.110   2.342   3.514
 4320SOL    HW213335   1.993   2.453   3.543
 4321SOL     OW13336   3.231   2.812   3.522
 4321SOL    HW113337   3.270   2.901   3.542
 4321SOL    HW213338   3.241   2.792   3.425
 4322SOL     OW13339   3.519   2.466   3.068
 4322SOL    HW113340   3.481   2.397   3.130
 4322SOL    HW213341   3.601   2.430   3.024
 4323SOL     OW13342   2.114   3.426   3.606
 4323SOL    HW113343   2.084   3.483   3.682
 4323SOL    HW213344   2.107   3.329   3.632
 4324SOL     OW13345   2.792   3.540   3.327
 4324SOL    HW113346   2.768   3.522   3.232
 4324SOL    HW213347   2.822   3.634   3.337
 4325SOL     OW13348   2.021   2.999   3.328
 4325SOL    HW113349   2.043   2.938   3.404
 4325SOL    HW213350   2.031   2.950   3.242
 4326SOL     OW13351   3.209   2.921   3.096
 4326SOL    HW113352   3.233   2.858   3.022
 4326SOL    HW213353   3.119   2.961   3.078
 4327SOL     OW13354   3.164   2.717   2.171
 4327SOL    HW113355   3.078   2.686   2.213
 4327SOL    HW213356   3.160   2.703   2.072
 4328SOL     OW13357   3.621   3.609   3.016
 4328SOL    HW113358   3.682   3.639   2.943
 4328SOL    HW213359   3.583   3.520   2.994
 4329SOL     OW13360   3.114   3.593   2.990
 4329SOL    HW113361   3.198   3.598   2.936
 4329SOL    HW213362   3.091   3.497   3.008
 4330SOL     OW13363   1.945   3.120   2.884
 4330SOL    HW113364   1.940   3.119   2.984
 4330SOL    HW213365   1.862   3.079   2.846
 4331SOL     OW13366   2.550   3.524   3.578
 4331SOL    HW113367   2.494   3.605   3.587
 4331SOL    HW213368   2.602   3.528   3.492
 4332SOL     OW13369   3.588   1.997   2.385
 4332SOL    HW113370   3.661   1.980   2.318
 4332SOL    HW213371   3.557   1.910   2.423
 4333SOL     OW13372   3.250   3.435   2.339
 4333SOL    HW113373   3.317   3.447   2.265
 4333SOL    HW213374   3.210   3.524   2.362
 4334SOL     OW13375   1.992   3.656   3.713
 4334SOL    HW113376   1.951   3.582   3.766
 4334SOL    HW213377   2.056   3.707   3.771
 4335SOL     OW13378   3.142   2.789   2.534
 4335SOL    HW113379   3.202   2.708   2.536
 4335SOL    HW213380   3.182   2.858   2.474
 4336SOL     OW13381   2.692   3.135   3.284
 4336SOL    HW113382   2.687   3.168   3.379
 4336SOL    HW213383   2.606   3.154   3.238
 4337SOL     OW13384   2.534   3.478   2.016
 4337SOL    HW113385   2.543   3.488   1.917
 4337SOL    HW213386   2.494   3.389   2.037
 4338SOL     OW13387   3.512   3.582   3.256
 4338SOL    HW113388   3.565   3.592   3.172
 4338SOL    HW213389   3.485   3.672   3.290
 4339SOL     OW13390   3.703   2.037   2.825
 4339SOL    HW113391   3.742   1.952   2.789
 4339SOL    HW213392   3.605   2.039   2.806
 4340SOL     OW13393   2.125   2.188   2.582
 4340SOL    HW113394   2.046   2.239   2.548
 4340SOL    HW213395   2.116   2.173   2.680
 4341SOL     OW13396   3.056   3.474   1.893
 4341SOL    HW113397   3.062   3.381   1.930
 4341SOL    HW213398   2.997   3.474   1.813
 4342SOL     OW13399   2.684   2.864   3.234
 4342SOL    HW113400   2.724   2.863   3.142
 4342SOL    HW213401   2.694   2.956   3.274
 4343SOL     OW13402   2.778   2.772   2.153
 4343SOL    HW113403   2.841   2.810   2.085
 4343SOL    HW213404   2.818   2.689   2.192
 4344SOL     OW13405   3.366   3.469   1.906
 4344SOL    HW113406   3.274   3.506   1.913
 4344SOL    HW213407   3.404   3.489   1.816
 4345SOL     OW13408   2.234   3.150   3.352
 4345SOL    HW113409   2.221   3.243   3.318
 4345SOL    HW213410   2.150   3.098   3.339
 4346SOL     OW13411   3.476   3.154   3.151
 4346SOL    HW113412   3.536   3.157   3.231
 4346SOL    HW213413   3.401   3.218   3.164
 4347SOL     OW13414   2.901   2.960   2.558
 4347SOL    HW113415   2.831   2.913   2.612
 4347SOL    HW213416   2.960   2.892   2.515
 4348SOL     OW13417   2.876   2.098   2.833
 4348SOL    HW113418   2.868   2.062   2.740
 4348SOL    HW213419   2.874   2.022   2.898
 4349SOL     OW13420   2.452   3.349   2.353
 4349SOL    HW113421   2.494   3.291   2.283
 4349SOL    HW213422   2.408   3.428   2.309
 4350SOL     OW13423   3.571   2.247   3.243
 4350SOL    HW113424   3.644   2.316   3.247
 4350SOL    HW213425   3.599   2.172   3.184
 4351SOL     OW13426   2.117   3.210   2.152
 4351SOL    HW113427   2.021   3.211   2.125
 4351SOL    HW213428   2.129   3.263   2.236
 4352SOL     OW13429   1.967   2.875   3.588
 4352SOL    HW113430   1.890   2.842   3.642
 4352SOL    HW213431   2.052   2.845   3.630
 4353SOL     OW13432   2.534   2.065   3.351
 4353SOL    HW113433   2.624   2.049   3.311
 4353SOL    HW213434   2.542   2.070   3.450
 4354SOL     OW13435   1.937   2.207   1.895
 4354SOL    HW113436   1.845   2.179   1.866
 4354SOL    HW213437   1.968   2.284   1.839
 4355SOL     OW13438   3.302   2.718   3.260
 4355SOL    HW113439   3.245   2.770   3.197
 4355SOL    HW213440   3.398   2.730   3.236
 4356SOL     OW13441   1.934   2.028   2.180
 4356SOL    HW113442   1.917   2.111   2.126
 4356SOL    HW213443   2.024   1.991   2.158
 4357SOL     OW13444   3.045   3.197   1.981
 4357SOL    HW113445   2.946   3.186   1.983
 4357SOL    HW213446   3.079   3.212   2.074
 4358SOL     OW13447   2.475   2.704   3.293
 4358SOL    HW113448   2.531   2.785   3.276
 4358SOL    HW213449   2.534   2.624   3.296
 4359SOL     OW13450   3.355   3.629   2.821
 4359SOL    HW113451   3.388   3.693   2.752
 4359SOL    HW213452   3.421   3.623   2.896
 4360SOL     OW13453   3.312   3.082   3.495
 4360SOL    HW113454   3.303   3.072   3.594
 4360SOL    HW213455   3.408   3.075   3.469
 4361SOL     OW13456   2.252   3.603   3.422
 4361SOL    HW113457   2.161   3.644   3.420
 4361SOL    HW213458   2.245   3.509   3.454
 4362SOL     OW13459   3.536   2.745   3.116
 4362SOL    HW113460   3.509   2.656   3.079
 4362SOL    HW213461   3.537   2.813   3.043
 4363SOL     OW13462   3.087   2.187   2.311
 4363SOL    HW113463   3.152   2.113   2.300
 4363SOL    HW213464   3.107   2.237   2.395
 4364SOL     OW13465   3.639   2.204   3.504
 4364SOL    HW113466   3.622   2.235   3.410
 4364SOL    HW213467   3.555   2.167   3.542
 4365SOL     OW13468   3.592   2.796   3.379
 4365SOL    HW113469   3.630   2.887   3.394
 4365SOL    HW213470   3.584   2.779   3.280
 4366SOL     OW13471   2.721   3.236   1.878
 4366SOL    HW113472   2.675   3.251   1.966
 4366SOL    HW213473   2.765   3.321   1.848
 4367SOL     OW13474   2.523   3.652   2.815
 4367SOL    HW113475   2.477   3.740   2.802
 4367SOL    HW213476   2.622   3.664   2.808
 4368SOL     OW13477   2.721   2.818   2.723
 4368SOL    HW113478   2.775   2.749   2.771
 4368SOL    HW213479   2.689   2.887   2.789
 4369SOL     OW13480   2.945   2.846   1.949
 4369SOL    HW113481   2.922   2.899   1.867
 4369SOL    HW213482   3.026   2.790   1.930
 4370SOL     OW13483   3.723   3.431   2.713
 4370SOL    HW113484   3.652   3.419   2.643
 4370SOL    HW213485   3.724   3.352   2.773
 4371SOL     OW13486   2.083   3.176   3.706
 4371SOL    HW113487   2.018   3.103   3.685
 4371SOL    HW213488   2.087   3.190   3.804
 4372SOL     OW13489   1.941   3.102   2.515
 4372SOL    HW113490   1.940   3.055   2.603
 4372SOL    HW213491   2.023   3.074   2.464
 4373SOL     OW13492   2.534   3.253   3.486
 4373SOL    HW113493   2.456   3.203   3.524
 4373SOL    HW213494   2.531   3.348   3.517
 4374SOL     OW13495   3.686   2.054   3.089
 4374SOL    HW113496   3.682   1.964   3.133
 4374SOL    HW213497   3.689   2.043   2.990
 4375SOL     OW13498   3.567   3.349   2.966
 4375SOL    HW113499   3.474   3.324   2.939
 4375SOL    HW213500   3.593   3.299   3.048
 4376SOL     OW13501   2.674   3.448   2.549
 4376SOL    HW113502   2.706   3.458   2.455
 4376SOL    HW213503   2.595   3.386   2.551
 4377SOL     OW13504   3.286   2.076   2.974
 4377SOL    HW113505   3.338   2.011   3.029
 4377SOL    HW213506   3.237   2.139   3.035
 4378SOL     OW13507   2.863   1.896   3.016
 4378SOL    HW113508   2.800   1.824   2.985
 4378SOL    HW213509   2.956   1.860   3.016
 4379SOL     OW13510   2.632   3.192   2.163
 4379SOL    HW113511   2.586   3.105   2.180
 4379SOL    HW213512   2.723   3.189   2.204
 4380SOL     OW13513   2.480   3.429   3.146
 4380SOL    HW113514   2.475   3.511   3.203
 4380SOL    HW213515   2.569   3.426   3.101
 4381SOL     OW13516   3.214   1.914   2.030
 4381SOL    HW113517   3.249   1.873   1.946
 4381SOL    HW213518   3.124   1.876   2.050
 4382SOL     OW13519   3.162   2.315   2.553
 4382SOL    HW113520   3.103   2.395   2.557
 4382SOL    HW213521   3.177   2.280   2.646
 4383SOL     OW13522   3.455   2.083   2.744
 4383SOL    HW113523   3.371   2.082   2.798
 4383SOL    HW213524   3.457   2.166   2.688
 4384SOL     OW13525   1.901   2.939   2.162
 4384SOL    HW113526   2.000   2.928   2.153
 4384SOL    HW213527   1.861   2.853   2.194
 4385SOL     OW13528   2.737   3.508   2.199
 4385SOL    HW113529   2.660   3.473   2.145
 4385SOL    HW213530   2.705   3.579   2.261
 4386SOL     OW13531   2.092   2.490   3.837
 4386SOL    HW113532   1.999   2.488   3.874
 4386SOL    HW213533   2.093   2.451   3.745
 4387SOL     OW13534   2.087   2.137   4.720
 4387SOL    HW113535   2.122   2.120   4.812
 4387SOL    HW213536   1.999   2.092   4.708
 4388SOL     OW13537   1.881   2.230   4.371
 4388SOL    HW113538   1.799   2.273   4.410
 4388SOL    HW213539   1.853   2.157   4.308
 4389SOL     OW13540   3.417   3.373   4.427
 4389SOL    HW113541   3.360   3.357   4.508
 4389SOL    HW213542   3.358   3.383   4.347
 4390SOL     OW13543   2.997   2.565   4.441
 4390SOL    HW113544   3.054   2.643   4.416
 4390SOL    HW213545   2.937   2.591   4.517
 4391SOL     OW13546   3.617   2.469   3.955
 4391SOL    HW113547   3.605   2.456   3.856
 4391SOL    HW213548   3.587   2.388   4.004
 4392SOL     OW13549   2.712   2.660   5.547
 4392SOL    HW113550   2.708   2.736   5.612
 4392SOL    HW213551   2.734   2.696   5.456
 4393SOL     OW13552   2.547   2.874   4.389
 4393SOL    HW113553   2.616   2.858   4.459
 4393SOL    HW213554   2.474   2.931   4.427
 4394SOL     OW13555   2.548   3.023   5.527
 4394SOL    HW113556   2.608   3.102   5.541
 4394SOL    HW213557   2.462   3.054   5.486
 4395SOL     OW13558   2.197   3.297   4.785
 4395SOL    HW113559   2.119   3.266   4.732
 4395SOL    HW213560   2.255   3.355   4.728
 4396SOL     OW13561   3.322   3.367   5.063
 4396SOL    HW113562   3.346   3.461   5.089
 4396SOL    HW213563   3.306   3.313   5.145
 4397SOL     OW13564   3.465   2.309   4.461
 4397SOL    HW113565   3.391   2.355   4.411
 4397SOL    HW213566   3.516   2.377   4.514
 4398SOL     OW13567   2.093   3.575   4.207
 4398SOL    HW113568   2.127   3.652   4.261
 4398SOL    HW213569   2.137   3.575   4.117
 4399SOL     OW13570   2.989   3.203   5.414
 4399SOL    HW113571   3.036   3.203   5.502
 4399SOL    HW213572   2.941   3.116   5.403
 4400SOL     OW13573   2.092   3.296   4.262
 4400SOL    HW113574   2.066   3.392   4.262
 4400SOL    HW213575   2.021   3.242   4.307
 4401SOL     OW13576   2.102   2.953   4.610
 4401SOL    HW113577   2.116   2.869   4.662
 4401SOL    HW213578   2.047   3.017   4.665
 4402SOL     OW13579   2.482   3.648   5.163
 4402SOL    HW113580   2.390   3.631   5.198
 4402SOL    HW213581   2.510   3.740   5.189
 4403SOL     OW13582   2.468   2.826   3.847
 4403SOL    HW113583   2.475   2.910   3.793
 4403SOL    HW213584   2.514   2.839   3.935
 4404SOL     OW13585   3.456   1.976   5.204
 4404SOL    HW113586   3.438   2.043   5.132
 4404SOL    HW213587   3.453   2.022   5.293
 4405SOL     OW13588   1.984   2.505   4.287
 4405SOL    HW113589   1.939   2.417   4.304
 4405SOL    HW213590   1.983   2.559   4.371
 4406SOL     OW13591   3.704   3.629   4.083
 4406SOL    HW113592   3.758   3.600   4.163
 4406SOL    HW213593   3.734   3.719   4.054
 4407SOL     OW13594   1.889   3.458   3.841
 4407SOL    HW113595   1.870   3.362   3.862
 4407SOL    HW213596   1.856   3.516   3.916
 4408SOL     OW13597   3.551   2.784   4.336
 4408SOL    HW113598   3.646   2.755   4.344
 4408SOL    HW213599   3.543   2.849   4.261
 4409SOL     OW13600   3.503   2.970   4.156
 4409SOL    HW113601   3.589   2.972   4.104
 4409SOL    HW213602   3.517   3.017   4.244
 4410SOL     OW13603   2.475   3.227   4.450
 4410SOL    HW113604   2.426   3.140   4.459
 4410SOL    HW213605   2.452   3.270   4.363
 4411SOL     OW13606   3.155   3.090   5.147
 4411SOL    HW113607   3.192   3.017   5.089
 4411SOL    HW213608   3.207   3.095   5.232
 4412SOL     OW13609   2.671   1.866   4.226
 4412SOL    HW113610   2.711   1.957   4.217
 4412SOL    HW213611   2.571   1.874   4.232
 4413SOL     OW13612   3.387   2.861   3.914
 4413SOL    HW113613   3.324   2.785   3.927
 4413SOL    HW213614   3.435   2.879   4.000
 4414SOL     OW13615   3.049   3.654   5.340
 4414SOL    HW113616   3.073   3.714   5.264
 4414SOL    HW213617   3.056   3.559   5.310
 4415SOL     OW13618   3.328   3.279   4.677
 4415SOL    HW113619   3.269   3.285   4.757
 4415SOL    HW213620   3.313   3.191   4.631
 4416SOL     OW13621   3.529   3.576   4.296
 4416SOL    HW113622   3.488   3.553   4.208
 4416SOL    HW213623   3.511   3.502   4.361
 4417SOL     OW13624   3.438   3.524   4.031
 4417SOL    HW113625   3.527   3.570   4.034
 4417SOL    HW213626   3.417   3.500   3.936
 4418SOL     OW13627   2.669   2.467   5.189
 4418SOL    HW113628   2.622   2.464   5.278
 4418SOL    HW213629   2.618   2.412   5.123
 4419SOL     OW13630   3.256   2.331   5.398
 4419SOL    HW113631   3.236   2.374   5.486
 4419SOL    HW213632   3.334   2.269   5.407
 4420SOL     OW13633   2.903   2.563   4.153
 4420SOL    HW113634   2.929   2.559   4.249
 4420SOL    HW213635   2.818   2.512   4.139
 4421SOL     OW13636   1.938   2.673   4.513
 4421SOL    HW113637   2.037   2.661   4.522
 4421SOL    HW213638   1.914   2.768   4.534
 4422SOL     OW13639   1.992   3.683   5.295
 4422SOL    HW113640   1.982   3.668   5.394
 4422SOL    HW213641   1.906   3.719   5.259
 4423SOL     OW13642   2.727   2.210   3.919
 4423SOL    HW113643   2.786   2.273   3.870
 4423SOL    HW213644   2.746   2.116   3.890
 4424SOL     OW13645   3.581   2.447   5.555
 4424SOL    HW113646   3.555   2.536   5.519
 4424SOL    HW213647   3.579   2.379   5.482
 4425SOL     OW13648   3.224   3.006   4.269
 4425SOL    HW113649   3.307   2.977   4.221
 4425SOL    HW213650   3.175   3.073   4.213
 4426SOL     OW13651   2.412   2.058   4.609
 4426SOL    HW113652   2.407   2.053   4.709
 4426SOL    HW213653   2.414   2.154   4.580
 4427SOL     OW13654   2.870   3.318   4.201
 4427SOL    HW113655   2.824   3.390   4.149
 4427SOL    HW213656   2.866   3.338   4.299
 4428SOL     OW13657   2.213   3.663   4.577
 4428SOL    HW113658   2.263   3.577   4.583
 4428SOL    HW213659   2.278   3.740   4.574
 4429SOL     OW13660   3.657   2.928   4.597
 4429SOL    HW113661   3.595   2.913   4.521
 4429SOL    HW213662   3.605   2.939   4.682
 4430SOL     OW13663   3.089   3.412   5.230
 4430SOL    HW113664   3.095   3.335   5.294
 4430SOL    HW213665   3.037   3.386   5.150
 4431SOL     OW13666   2.183   2.805   3.966
 4431SOL    HW113667   2.265   2.844   3.924
 4431SOL    HW213668   2.156   2.723   3.917
 4432SOL     OW13669   3.320   2.597   4.452
 4432SOL    HW113670   3.315   2.532   4.527
 4432SOL    HW213671   3.400   2.656   4.465
 4433SOL     OW13672   2.323   3.128   5.451
 4433SOL    HW113673   2.273   3.129   5.365
 4433SOL    HW213674   2.260   3.110   5.527
 4434SOL     OW13675   2.973   3.638   3.961
 4434SOL    HW113676   2.913   3.576   4.011
 4434SOL    HW213677   3.004   3.594   3.876
 4435SOL     OW13678   2.064   2.147   5.222
 4435SOL    HW113679   1.984   2.207   5.209
 4435SOL    HW213680   2.054   2.098   5.308
 4436SOL     OW13681   3.494   3.239   3.805
 4436SOL    HW113682   3.462   3.333   3.795
 4436SOL    HW213683   3.418   3.176   3.793
 4437SOL     OW13684   2.326   3.605   4.047
 4437SOL    HW113685   2.359   3.644   4.133
 4437SOL    HW213686   2.402   3.598   3.982
 4438SOL     OW13687   3.262   1.969   4.150
 4438SOL    HW113688   3.238   1.932   4.060
 4438SOL    HW213689   3.361   1.985   4.154
 4439SOL     OW13690   2.111   3.647   4.965
 4439SOL    HW113691   2.168   3.582   5.015
 4439SOL    HW213692   2.095   3.614   4.872
 4440SOL     OW13693   2.802   3.560   4.628
 4440SOL    HW113694   2.882   3.503   4.649
 4440SOL    HW213695   2.753   3.520   4.551
 4441SOL     OW13696   3.409   2.084   5.453
 4441SOL    HW113697   3.404   2.121   5.545
 4441SOL    HW213698   3.337   2.015   5.441
 4442SOL     OW13699   2.476   1.984   3.841
 4442SOL    HW113700   2.574   1.962   3.848
 4442SOL    HW213701   2.445   1.967   3.748
 4443SOL     OW13702   2.643   2.126   5.473
 4443SOL    HW113703   2.710   2.065   5.516
 4443SOL    HW213704   2.570   2.145   5.538
 4444SOL     OW13705   2.750   3.376   4.919
 4444SOL    HW113706   2.727   3.351   4.825
 4444SOL    HW213707   2.811   3.307   4.958
 4445SOL     OW13708   2.665   3.264   4.648
 4445SOL    HW113709   2.755   3.278   4.606
 4445SOL    HW213710   2.594   3.266   4.577
 4446SOL     OW13711   2.784   2.365   4.623
 4446SOL    HW113712   2.759   2.356   4.527
 4446SOL    HW213713   2.832   2.283   4.654
 4447SOL     OW13714   2.401   1.926   4.236
 4447SOL    HW113715   2.320   1.927   4.294
 4447SOL    HW213716   2.404   2.009   4.181
 4448SOL     OW13717   3.296   3.050   3.765
 4448SOL    HW113718   3.328   2.974   3.822
 4448SOL    HW213719   3.204   3.077   3.795
 4449SOL     OW13720   2.159   1.897   3.895
 4449SOL    HW113721   2.208   1.981   3.874
 4449SOL    HW213722   2.221   1.832   3.940
 4450SOL     OW13723   2.797   2.098   4.204
 4450SOL    HW113724   2.749   2.139   4.126
 4450SOL    HW213725   2.896   2.096   4.185
 4451SOL     OW13726   3.089   3.432   4.517
 4451SOL    HW113727   3.110   3.506   4.452
 4451SOL    HW213728   3.157   3.432   4.590
 4452SOL     OW13729   2.321   3.014   4.465
 4452SOL    HW113730   2.250   2.987   4.530
 4452SOL    HW213731   2.295   2.986   4.372
 4453SOL     OW13732   3.133   3.659   4.315
 4453SOL    HW113733   3.177   3.723   4.251
 4453SOL    HW213734   3.083   3.711   4.385
 4454SOL     OW13735   2.894   2.411   3.740
 4454SOL    HW113736   2.853   2.493   3.701
 4454SOL    HW213737   2.958   2.437   3.813
 4455SOL     OW13738   2.728   2.316   4.366
 4455SOL    HW113739   2.696   2.388   4.304
 4455SOL    HW213740   2.752   2.235   4.313
 4456SOL     OW13741   2.879   1.901   4.477
 4456SOL    HW113742   2.807   1.906   4.408
 4456SOL    HW213743   2.855   1.832   4.546
 4457SOL     OW13744   3.291   3.035   4.591
 4457SOL    HW113745   3.236   2.951   4.584
 4457SOL    HW213746   3.317   3.064   4.499
 4458SOL     OW13747   3.328   2.452   4.716
 4458SOL    HW113748   3.298   2.357   4.723
 4458SOL    HW213749   3.401   2.468   4.782
 4459SOL     OW13750   3.719   2.695   4.101
 4459SOL    HW113751   3.761   2.631   4.165
 4459SOL    HW213752   3.681   2.644   4.023
 4460SOL     OW13753   2.350   3.247   3.898
 4460SOL    HW113754   2.263   3.232   3.945
 4460SOL    HW213755   2.333   3.273   3.803
 4461SOL     OW13756   3.526   3.142   4.381
 4461SOL    HW113757   3.625   3.150   4.395
 4461SOL    HW213758   3.481   3.226   4.412
 4462SOL     OW13759   3.252   2.437   3.802
 4462SOL    HW113760   3.198   2.416   3.883
 4462SOL    HW213761   3.343   2.396   3.811
 4463SOL     OW13762   3.616   3.085   5.312
 4463SOL    HW113763   3.707   3.046   5.299
 4463SOL    HW213764   3.624   3.181   5.336
 4464SOL     OW13765   2.926   3.209   5.064
 4464SOL    HW113766   2.846   3.186   5.119
 4464SOL    HW213767   3.009   3.183   5.113
 4465SOL     OW13768   3.454   3.491   5.349
 4465SOL    HW113769   3.481   3.525   5.259
 4465SOL    HW213770   3.533   3.453   5.395
 4466SOL     OW13771   2.973   3.057   4.824
 4466SOL    HW113772   2.933   3.101   4.905
 4466SOL    HW213773   2.932   3.094   4.741
 4467SOL     OW13774   3.500   2.961   4.803
 4467SOL    HW113775   3.505   3.042   4.862
 4467SOL    HW213776   3.414   2.963   4.752
 4468SOL     OW13777   2.842   2.978   5.443
 4468SOL    HW113778   2.743   2.984   5.453
 4468SOL    HW213779   2.865   2.898   5.387
 4469SOL     OW13780   2.567   2.912   4.092
 4469SOL    HW113781   2.553   2.919   4.191
 4469SOL    HW213782   2.651   2.861   4.074
 4470SOL     OW13783   2.272   2.675   4.975
 4470SOL    HW113784   2.358   2.687   5.025
 4470SOL    HW213785   2.230   2.588   5.002
 4471SOL     OW13786   1.926   3.426   5.055
 4471SOL    HW113787   1.880   3.508   5.021
 4471SOL    HW213788   2.024   3.445   5.064
 4472SOL     OW13789   2.229   2.962   4.225
 4472SOL    HW113790   2.222   3.045   4.169
 4472SOL    HW213791   2.233   2.882   4.165
 4473SOL     OW13792   3.114   3.210   4.112
 4473SOL    HW113793   3.164   3.287   4.152
 4473SOL    HW213794   3.019   3.212   4.144
 4474SOL     OW13795   3.134   3.307   4.866
 4474SOL    HW113796   3.181   3.320   4.953
 4474SOL    HW213797   3.068   3.233   4.875
 4475SOL     OW13798   3.444   2.501   4.196
 4475SOL    HW113799   3.413   2.562   4.269
 4475SOL    HW213800   3.494   2.553   4.127
 4476SOL     OW13801   2.216   3.372   5.053
 4476SOL    HW113802   2.195   3.328   4.966
 4476SOL    HW213803   2.313   3.398   5.056
 4477SOL     OW13804   2.264   2.613   5.322
 4477SOL    HW113805   2.332   2.668   5.275
 4477SOL    HW213806   2.304   2.525   5.349
 4478SOL     OW13807   3.449   2.641   5.394
 4478SOL    HW113808   3.357   2.679   5.389
 4478SOL    HW213809   3.509   2.688   5.329
 4479SOL     OW13810   2.435   2.732   4.753
 4479SOL    HW113811   2.479   2.821   4.744
 4479SOL    HW213812   2.372   2.732   4.830
 4480SOL     OW13813   3.071   2.387   3.999
 4480SOL    HW113814   3.084   2.303   4.053
 4480SOL    HW213815   3.042   2.461   4.059
 4481SOL     OW13816   3.590   2.797   5.578
 4481SOL    HW113817   3.544   2.790   5.489
 4481SOL    HW213818   3.528   2.841   5.644
 4482SOL     OW13819   2.169   1.925   4.342
 4482SOL    HW113820   2.158   2.019   4.375
 4482SOL    HW213821   2.164   1.862   4.419
 4483SOL     OW13822   3.484   2.229   4.098
 4483SOL    HW113823   3.486   2.153   4.162
 4483SOL    HW213824   3.436   2.306   4.138
 4484SOL     OW13825   2.842   3.435   5.424
 4484SOL    HW113826   2.822   3.479   5.336
 4484SOL    HW213827   2.881   3.344   5.408
 4485SOL     OW13828   3.721   3.380   5.329
 4485SOL    HW113829   3.735   3.407   5.234
 4485SOL    HW213830   3.804   3.402   5.382
 4486SOL     OW13831   2.212   2.760   5.528
 4486SOL    HW113832   2.288   2.804   5.576
 4486SOL    HW213833   2.247   2.713   5.446
 4487SOL     OW13834   3.402   2.136   3.849
 4487SOL    HW113835   3.341   2.061   3.872
 4487SOL    HW213836   3.424   2.188   3.932
 4488SOL     OW13837   3.165   2.700   3.766
 4488SOL    HW113838   3.199   2.607   3.781
 4488SOL    HW213839   3.183   2.727   3.671
 4489SOL     OW13840   2.930   3.195   4.573
 4489SOL    HW113841   2.937   3.111   4.518
 4489SOL    HW213842   2.992   3.264   4.537
 4490SOL     OW13843   2.181   2.672   4.673
 4490SOL    HW113844   2.274   2.708   4.678
 4490SOL    HW213845   2.175   2.587   4.725
 4491SOL     OW13846   3.000   2.242   5.402
 4491SOL    HW113847   2.955   2.305   5.466
 4491SOL    HW213848   3.093   2.273   5.385
 4492SOL     OW13849   1.870   3.188   3.924
 4492SOL    HW113850   1.777   3.209   3.893
 4492SOL    HW213851   1.880   3.089   3.937
 4493SOL     OW13852   1.950   3.663   4.651
 4493SOL    HW113853   1.908   3.577   4.624
 4493SOL    HW213854   2.044   3.666   4.617
 4494SOL     OW13855   2.366   3.430   4.634
 4494SOL    HW113856   2.432   3.504   4.643
 4494SOL    HW213857   2.410   3.351   4.592
 4495SOL     OW13858   2.051   2.382   5.446
 4495SOL    HW113859   2.110   2.342   5.376
 4495SOL    HW213860   1.993   2.453   5.405
 4496SOL     OW13861   3.231   2.812   5.384
 4496SOL    HW113862   3.270   2.901   5.404
 4496SOL    HW213863   3.241   2.792   5.287
 4497SOL     OW13864   2.677   2.434   4.049
 4497SOL    HW113865   2.684   2.345   4.003
 4497SOL    HW213866   2.583   2.468   4.041
 4498SOL     OW13867   3.519   2.466   4.930
 4498SOL    HW113868   3.481   2.397   4.992
 4498SOL    HW213869   3.601   2.430   4.886
 4499SOL     OW13870   2.114   3.426   5.468
 4499SOL    HW113871   2.084   3.483   5.544
 4499SOL    HW213872   2.107   3.329   5.494
 4500SOL     OW13873   2.792   3.540   5.189
 4500SOL    HW113874   2.768   3.522   5.094
 4500SOL    HW213875   2.822   3.634   5.199
 4501SOL     OW13876   3.209   2.921   4.958
 4501SOL    HW113877   3.233   2.858   4.884
 4501SOL    HW213878   3.119   2.961   4.940
 4502SOL     OW13879   3.164   2.717   4.033
 4502SOL    HW113880   3.078   2.686   4.075
 4502SOL    HW213881   3.160   2.703   3.934
 4503SOL     OW13882   3.621   3.609   4.878
 4503SOL    HW113883   3.682   3.639   4.805
 4503SOL    HW213884   3.583   3.520   4.856
 4504SOL     OW13885   3.114   3.593   4.852
 4504SOL    HW113886   3.198   3.598   4.798
 4504SOL    HW213887   3.091   3.497   4.870
 4505SOL     OW13888   2.550   3.524   5.440
 4505SOL    HW113889   2.494   3.605   5.449
 4505SOL    HW213890   2.602   3.528   5.354
 4506SOL     OW13891   3.588   1.997   4.247
 4506SOL    HW113892   3.661   1.980   4.180
 4506SOL    HW213893   3.557   1.910   4.285
 4507SOL     OW13894   3.250   3.435   4.201
 4507SOL    HW113895   3.317   3.447   4.127
 4507SOL    HW213896   3.210   3.524   4.224
 4508SOL     OW13897   1.992   3.656   5.575
 4508SOL    HW113898   1.951   3.582   5.628
 4508SOL    HW213899   2.056   3.707   5.633
 4509SOL     OW13900   3.142   2.789   4.396
 4509SOL    HW113901   3.202   2.708   4.398
 4509SOL    HW213902   3.182   2.858   4.336
 4510SOL     OW13903   2.534   3.478   3.878
 4510SOL    HW113904   2.543   3.488   3.779
 4510SOL    HW213905   2.494   3.389   3.899
 4511SOL     OW13906   3.512   3.582   5.118
 4511SOL    HW113907   3.565   3.592   5.034
 4511SOL    HW213908   3.485   3.672   5.152
 4512SOL     OW13909   3.703   2.037   4.687
 4512SOL    HW113910   3.742   1.952   4.651
 4512SOL    HW213911   3.605   2.039   4.668
 4513SOL     OW13912   2.125   2.188   4.444
 4513SOL    HW113913   2.046   2.239   4.410
 4513SOL    HW213914   2.116   2.173   4.542
 4514SOL     OW13915   3.056   3.474   3.755
 4514SOL    HW113916   3.062   3.381   3.792
 4514SOL    HW213917   2.997   3.474   3.675
 4515SOL     OW13918   2.778   2.772   4.015
 4515SOL    HW113919   2.841   2.810   3.947
 4515SOL    HW213920   2.818   2.689   4.054
 4516SOL     OW13921   3.366   3.469   3.768
 4516SOL    HW113922   3.274   3.506   3.775
 4516SOL    HW213923   3.404   3.489   3.678
 4517SOL     OW13924   2.234   3.150   5.214
 4517SOL    HW113925   2.221   3.243   5.180
 4517SOL    HW213926   2.150   3.098   5.201
 4518SOL     OW13927   3.476   3.154   5.013
 4518SOL    HW113928   3.536   3.157   5.093
 4518SOL    HW213929   3.401   3.218   5.026
 4519SOL     OW13930   2.901   2.960   4.420
 4519SOL    HW113931   2.831   2.913   4.474
 4519SOL    HW213932   2.960   2.892   4.377
 4520SOL     OW13933   2.452   3.349   4.215
 4520SOL    HW113934   2.494   3.291   4.145
 4520SOL    HW213935   2.408   3.428   4.171
 4521SOL     OW13936   3.571   2.247   5.105
 4521SOL    HW113937   3.644   2.316   5.109
 4521SOL    HW213938   3.599   2.172   5.046
 4522SOL     OW13939   2.117   3.210   4.014
 4522SOL    HW113940   2.021   3.211   3.987
 4522SOL    HW213941   2.129   3.263   4.098
 4523SOL     OW13942   1.967   2.875   5.450
 4523SOL    HW113943   1.890   2.842   5.504
 4523SOL    HW213944   2.052   2.845   5.492
 4524SOL     OW13945   2.534   2.065   5.213
 4524SOL    HW113946   2.624   2.049   5.173
 4524SOL    HW213947   2.542   2.070   5.312
 4525SOL     OW13948   1.937   2.207   3.757
 4525SOL    HW113949   1.845   2.179   3.728
 4525SOL    HW213950   1.968   2.284   3.701
 4526SOL     OW13951   3.302   2.718   5.122
 4526SOL    HW113952   3.245   2.770   5.059
 4526SOL    HW213953   3.398   2.730   5.098
 4527SOL     OW13954   1.934   2.028   4.042
 4527SOL    HW113955   1.917   2.111   3.988
 4527SOL    HW213956   2.024   1.991   4.020
 4528SOL     OW13957   3.045   3.197   3.843
 4528SOL    HW113958   2.946   3.186   3.845
 4528SOL    HW213959   3.079   3.212   3.936
 4529SOL     OW13960   3.355   3.629   4.683
 4529SOL    HW113961   3.388   3.693   4.614
 4529SOL    HW213962   3.421   3.623   4.758
 4530SOL     OW13963   3.312   3.082   5.357
 4530SOL    HW113964   3.303   3.072   5.456
 4530SOL    HW213965   3.408   3.075   5.331
 4531SOL     OW13966   2.252   3.603   5.284
 4531SOL    HW113967   2.161   3.644   5.282
 4531SOL    HW213968   2.245   3.509   5.316
 4532SOL     OW13969   3.536   2.745   4.978
 4532SOL    HW113970   3.509   2.656   4.941
 4532SOL    HW213971   3.537   2.813   4.905
 4533SOL     OW13972   3.087   2.187   4.173
 4533SOL    HW113973   3.152   2.113   4.162
 4533SOL    HW213974   3.107   2.237   4.257
 4534SOL     OW13975   2.456   2.607   4.376
 4534SOL    HW113976   2.506   2.692   4.357
 4534SOL    HW213977   2.368   2.609   4.328
 4535SOL     OW13978   3.639   2.204   5.366
 4535SOL    HW113979   3.622   2.235   5.272
 4535SOL    HW213980   3.555   2.167   5.404
 4536SOL     OW13981   3.592   2.796   5.241
 4536SOL    HW113982   3.630   2.887   5.256
 4536SOL    HW213983   3.584   2.779   5.142
 4537SOL     OW13984   2.721   3.236   3.740
 4537SOL    HW113985   2.675   3.251   3.828
 4537SOL    HW213986   2.765   3.321   3.710
 4538SOL     OW13987   2.523   3.652   4.677
 4538SOL    HW113988   2.477   3.740   4.664
 4538SOL    HW213989   2.622   3.664   4.670
 4539SOL     OW13990   2.945   2.846   3.811
 4539SOL    HW113991   2.922   2.899   3.729
 4539SOL    HW213992   3.026   2.790   3.792
 4540SOL     OW13993   3.723   3.431   4.575
 4540SOL    HW113994   3.652   3.419   4.505
 4540SOL    HW213995   3.724   3.352   4.635
 4541SOL     OW13996   2.083   3.176   5.568
 4541SOL    HW113997   2.018   3.103   5.547
 4541SOL    HW213998   2.087   3.190   5.666
 4542SOL     OW13999   1.941   3.102   4.377
 4542SOL    HW114000   1.940   3.055   4.465
 4542SOL    HW214001   2.023   3.074   4.326
 4543SOL     OW14002   2.534   3.253   5.348
 4543SOL    HW114003   2.456   3.203   5.386
 4543SOL    HW214004   2.531   3.348   5.379
 4544SOL     OW14005   3.686   2.054   4.951
 4544SOL    HW114006   3.682   1.964   4.995
 4544SOL    HW214007   3.689   2.043   4.852
 4545SOL     OW14008   3.567   3.349   4.828
 4545SOL    HW114009   3.474   3.324   4.801
 4545SOL    HW214010   3.593   3.299   4.910
 4546SOL     OW14011   2.674   3.448   4.411
 4546SOL    HW114012   2.706   3.458   4.317
 4546SOL    HW214013   2.595   3.386   4.413
 4547SOL     OW14014   2.632   3.192   4.025
 4547SOL    HW114015   2.586   3.105   4.042
 4547SOL    HW214016   2.723   3.189   4.066
 4548SOL     OW14017   2.480   3.429   5.008
 4548SOL    HW114018   2.475   3.511   5.065
 4548SOL    HW214019   2.569   3.426   4.963
 4549SOL     OW14020   3.214   1.914   3.892
 4549SOL    HW114021   3.249   1.873   3.808
 4549SOL    HW214022   3.124   1.876   3.912
 4550SOL     OW14023   3.162   2.315   4.415
 4550SOL    HW114024   3.103   2.395   4.419
 4550SOL    HW214025   3.177   2.280   4.508
 4551SOL     OW14026   3.455   2.083   4.606
 4551SOL    HW114027   3.371   2.082   4.660
 4551SOL    HW214028   3.457   2.166   4.550
 4552SOL     OW14029   1.901   2.939   4.024
 4552SOL    HW114030   2.000   2.928   4.015
 4552SOL    HW214031   1.861   2.853   4.056
 4553SOL     OW14032   2.737   3.508   4.061
 4553SOL    HW114033   2.660   3.473   4.007
 4553SOL    HW214034   2.705   3.579   4.123
 4554SOL     OW14035   2.092   2.490   5.699
 4554SOL    HW114036   1.999   2.488   5.736
 4554SOL    HW214037   2.093   2.451   5.607
 4555SOL     OW14038   2.087   2.137   6.582
 4555SOL    HW114039   2.122   2.120   6.674
 4555SOL    HW214040   1.999   2.092   6.570
 4556SOL     OW14041   1.881   2.230   6.233
 4556SOL    HW114042   1.799   2.273   6.272
 4556SOL    HW214043   1.853   2.157   6.170
 4557SOL     OW14044   2.431   3.137   6.751
 4557SOL    HW114045   2.338   3.130   6.714
 4557SOL    HW214046   2.442   3.226   6.795
 4558SOL     OW14047   3.417   3.373   6.289
 4558SOL    HW114048   3.360   3.357   6.370
 4558SOL    HW214049   3.358   3.383   6.209
 4559SOL     OW14050   2.997   2.565   6.303
 4559SOL    HW114051   3.054   2.643   6.278
 4559SOL    HW214052   2.937   2.591   6.379
 4560SOL     OW14053   3.617   2.469   5.817
 4560SOL    HW114054   3.605   2.456   5.718
 4560SOL    HW214055   3.587   2.388   5.866
 4561SOL     OW14056   2.630   3.006   6.609
 4561SOL    HW114057   2.552   3.023   6.669
 4561SOL    HW214058   2.664   3.093   6.573
 4562SOL     OW14059   2.712   2.660   7.409
 4562SOL    HW114060   2.708   2.736   7.474
 4562SOL    HW214061   2.734   2.696   7.318
 4563SOL     OW14062   2.547   2.874   6.251
 4563SOL    HW114063   2.616   2.858   6.321
 4563SOL    HW214064   2.474   2.931   6.289
 4564SOL     OW14065   2.548   3.023   7.389
 4564SOL    HW114066   2.608   3.102   7.403
 4564SOL    HW214067   2.462   3.054   7.348
 4565SOL     OW14068   2.197   3.297   6.647
 4565SOL    HW114069   2.119   3.266   6.594
 4565SOL    HW214070   2.255   3.355   6.590
 4566SOL     OW14071   3.322   3.367   6.925
 4566SOL    HW114072   3.346   3.461   6.951
 4566SOL    HW214073   3.306   3.313   7.007
 4567SOL     OW14074   3.465   2.309   6.323
 4567SOL    HW114075   3.391   2.355   6.273
 4567SOL    HW214076   3.516   2.377   6.376
 4568SOL     OW14077   2.093   3.575   6.069
 4568SOL    HW114078   2.127   3.652   6.123
 4568SOL    HW214079   2.137   3.575   5.979
 4569SOL     OW14080   2.989   3.203   7.276
 4569SOL    HW114081   3.036   3.203   7.364
 4569SOL    HW214082   2.941   3.116   7.265
 4570SOL     OW14083   2.092   3.296   6.124
 4570SOL    HW114084   2.066   3.392   6.124
 4570SOL    HW214085   2.021   3.242   6.169
 4571SOL     OW14086   2.102   2.953   6.472
 4571SOL    HW114087   2.116   2.869   6.524
 4571SOL    HW214088   2.047   3.017   6.527
 4572SOL     OW14089   2.482   3.648   7.025
 4572SOL    HW114090   2.390   3.631   7.060
 4572SOL    HW214091   2.510   3.740   7.051
 4573SOL     OW14092   2.468   2.826   5.709
 4573SOL    HW114093   2.475   2.910   5.655
 4573SOL    HW214094   2.514   2.839   5.797
 4574SOL     OW14095   3.456   1.976   7.066
 4574SOL    HW114096   3.438   2.043   6.994
 4574SOL    HW214097   3.453   2.022   7.155
 4575SOL     OW14098   1.984   2.505   6.149
 4575SOL    HW114099   1.939   2.417   6.166
 4575SOL    HW214100   1.983   2.559   6.233
 4576SOL     OW14101   3.704   3.629   5.945
 4576SOL    HW114102   3.758   3.600   6.025
 4576SOL    HW214103   3.734   3.719   5.916
 4577SOL     OW14104   1.889   3.458   5.703
 4577SOL    HW114105   1.870   3.362   5.724
 4577SOL    HW214106   1.856   3.516   5.778
 4578SOL     OW14107   3.551   2.784   6.198
 4578SOL    HW114108   3.646   2.755   6.206
 4578SOL    HW214109   3.543   2.849   6.123
 4579SOL     OW14110   3.503   2.970   6.018
 4579SOL    HW114111   3.589   2.972   5.966
 4579SOL    HW214112   3.517   3.017   6.106
 4580SOL     OW14113   1.975   2.599   7.183
 4580SOL    HW114114   2.063   2.586   7.228
 4580SOL    HW214115   1.962   2.696   7.161
 4581SOL     OW14116   2.475   3.227   6.312
 4581SOL    HW114117   2.426   3.140   6.321
 4581SOL    HW214118   2.452   3.270   6.225
 4582SOL     OW14119   3.155   3.090   7.009
 4582SOL    HW114120   3.192   3.017   6.951
 4582SOL    HW214121   3.207   3.095   7.094
 4583SOL     OW14122   2.671   1.866   6.088
 4583SOL    HW114123   2.711   1.957   6.079
 4583SOL    HW214124   2.571   1.874   6.094
 4584SOL     OW14125   2.059   2.838   6.850
 4584SOL    HW114126   2.148   2.793   6.836
 4584SOL    HW214127   1.986   2.773   6.831
 4585SOL     OW14128   3.387   2.861   5.776
 4585SOL    HW114129   3.324   2.785   5.789
 4585SOL    HW214130   3.435   2.879   5.862
 4586SOL     OW14131   3.049   3.654   7.202
 4586SOL    HW114132   3.073   3.714   7.126
 4586SOL    HW214133   3.056   3.559   7.172
 4587SOL     OW14134   2.179   2.113   7.387
 4587SOL    HW114135   2.250   2.184   7.393
 4587SOL    HW214136   2.091   2.152   7.415
 4588SOL     OW14137   3.328   3.279   6.539
 4588SOL    HW114138   3.269   3.285   6.619
 4588SOL    HW214139   3.313   3.191   6.493
 4589SOL     OW14140   3.529   3.576   6.158
 4589SOL    HW114141   3.488   3.553   6.070
 4589SOL    HW214142   3.511   3.502   6.223
 4590SOL     OW14143   3.143   2.207   6.530
 4590SOL    HW114144   3.057   2.157   6.517
 4590SOL    HW214145   3.205   2.153   6.586
 4591SOL     OW14146   3.438   3.524   5.893
 4591SOL    HW114147   3.527   3.570   5.896
 4591SOL    HW214148   3.417   3.500   5.798
 4592SOL     OW14149   2.669   2.467   7.051
 4592SOL    HW114150   2.622   2.464   7.140
 4592SOL    HW214151   2.618   2.412   6.985
 4593SOL     OW14152   3.256   2.331   7.260
 4593SOL    HW114153   3.236   2.374   7.348
 4593SOL    HW214154   3.334   2.269   7.269
 4594SOL     OW14155   2.835   2.752   7.158
 4594SOL    HW114156   2.881   2.668   7.129
 4594SOL    HW214157   2.779   2.786   7.083
 4595SOL     OW14158   2.853   2.272   6.828
 4595SOL    HW114159   2.776   2.306   6.882
 4595SOL    HW214160   2.819   2.221   6.749
 4596SOL     OW14161   2.903   2.563   6.015
 4596SOL    HW114162   2.929   2.559   6.111
 4596SOL    HW214163   2.818   2.512   6.001
 4597SOL     OW14164   1.938   2.673   6.375
 4597SOL    HW114165   2.037   2.661   6.384
 4597SOL    HW214166   1.914   2.768   6.396
 4598SOL     OW14167   1.992   3.683   7.157
 4598SOL    HW114168   1.982   3.668   7.256
 4598SOL    HW214169   1.906   3.719   7.121
 4599SOL     OW14170   2.727   2.210   5.781
 4599SOL    HW114171   2.786   2.273   5.732
 4599SOL    HW214172   2.746   2.116   5.752
 4600SOL     OW14173   3.581   2.447   7.417
 4600SOL    HW114174   3.555   2.536   7.381
 4600SOL    HW214175   3.579   2.379   7.344
 4601SOL     OW14176   3.224   3.006   6.131
 4601SOL    HW114177   3.307   2.977   6.083
 4601SOL    HW214178   3.175   3.073   6.075
 4602SOL     OW14179   2.870   3.318   6.063
 4602SOL    HW114180   2.824   3.390   6.011
 4602SOL    HW214181   2.866   3.338   6.161
 4603SOL     OW14182   2.213   3.663   6.439
 4603SOL    HW114183   2.263   3.577   6.445
 4603SOL    HW214184   2.278   3.740   6.436
 4604SOL     OW14185   3.657   2.928   6.459
 4604SOL    HW114186   3.595   2.913   6.383
 4604SOL    HW214187   3.605   2.939   6.544
 4605SOL     OW14188   3.089   3.412   7.092
 4605SOL    HW114189   3.095   3.335   7.156
 4605SOL    HW214190   3.037   3.386   7.012
 4606SOL     OW14191   2.183   2.805   5.828
 4606SOL    HW114192   2.265   2.844   5.786
 4606SOL    HW214193   2.156   2.723   5.779
 4607SOL     OW14194   3.320   2.597   6.314
 4607SOL    HW114195   3.315   2.532   6.389
 4607SOL    HW214196   3.400   2.656   6.327
 4608SOL     OW14197   2.323   3.128   7.313
 4608SOL    HW114198   2.273   3.129   7.227
 4608SOL    HW214199   2.260   3.110   7.389
 4609SOL     OW14200   2.973   3.638   5.823
 4609SOL    HW114201   2.913   3.576   5.873
 4609SOL    HW214202   3.004   3.594   5.738
 4610SOL     OW14203   2.064   2.147   7.084
 4610SOL    HW114204   1.984   2.207   7.071
 4610SOL    HW214205   2.054   2.098   7.170
 4611SOL     OW14206   3.494   3.239   5.667
 4611SOL    HW114207   3.462   3.333   5.657
 4611SOL    HW214208   3.418   3.176   5.655
 4612SOL     OW14209   2.326   3.605   5.909
 4612SOL    HW114210   2.359   3.644   5.995
 4612SOL    HW214211   2.402   3.598   5.844
 4613SOL     OW14212   3.262   1.969   6.012
 4613SOL    HW114213   3.238   1.932   5.922
 4613SOL    HW214214   3.361   1.985   6.016
 4614SOL     OW14215   2.111   3.647   6.827
 4614SOL    HW114216   2.168   3.582   6.877
 4614SOL    HW214217   2.095   3.614   6.734
 4615SOL     OW14218   2.802   3.560   6.490
 4615SOL    HW114219   2.882   3.503   6.511
 4615SOL    HW214220   2.753   3.520   6.413
 4616SOL     OW14221   3.409   2.084   7.315
 4616SOL    HW114222   3.404   2.121   7.407
 4616SOL    HW214223   3.337   2.015   7.303
 4617SOL     OW14224   2.476   1.984   5.703
 4617SOL    HW114225   2.574   1.962   5.710
 4617SOL    HW214226   2.445   1.967   5.610
 4618SOL     OW14227   2.643   2.126   7.335
 4618SOL    HW114228   2.710   2.065   7.378
 4618SOL    HW214229   2.570   2.145   7.400
 4619SOL     OW14230   2.750   3.376   6.781
 4619SOL    HW114231   2.727   3.351   6.687
 4619SOL    HW214232   2.811   3.307   6.820
 4620SOL     OW14233   3.213   2.452   7.019
 4620SOL    HW114234   3.241   2.409   7.104
 4620SOL    HW214235   3.238   2.548   7.020
 4621SOL     OW14236   2.665   3.264   6.510
 4621SOL    HW114237   2.755   3.278   6.468
 4621SOL    HW214238   2.594   3.266   6.439
 4622SOL     OW14239   2.784   2.365   6.485
 4622SOL    HW114240   2.759   2.356   6.389
 4622SOL    HW214241   2.832   2.283   6.516
 4623SOL     OW14242   2.401   1.926   6.098
 4623SOL    HW114243   2.320   1.927   6.156
 4623SOL    HW214244   2.404   2.009   6.043
 4624SOL     OW14245   3.296   3.050   5.627
 4624SOL    HW114246   3.328   2.974   5.684
 4624SOL    HW214247   3.204   3.077   5.657
 4625SOL     OW14248   2.159   1.897   5.757
 4625SOL    HW114249   2.208   1.981   5.736
 4625SOL    HW214250   2.221   1.832   5.802
 4626SOL     OW14251   2.797   2.098   6.066
 4626SOL    HW114252   2.749   2.139   5.988
 4626SOL    HW214253   2.896   2.096   6.047
 4627SOL     OW14254   2.938   2.545   7.050
 4627SOL    HW114255   2.858   2.484   7.053
 4627SOL    HW214256   3.019   2.492   7.026
 4628SOL     OW14257   3.089   3.432   6.379
 4628SOL    HW114258   3.110   3.506   6.314
 4628SOL    HW214259   3.157   3.432   6.452
 4629SOL     OW14260   2.321   3.014   6.327
 4629SOL    HW114261   2.250   2.987   6.392
 4629SOL    HW214262   2.295   2.986   6.234
 4630SOL     OW14263   3.133   3.659   6.177
 4630SOL    HW114264   3.177   3.723   6.113
 4630SOL    HW214265   3.083   3.711   6.247
 4631SOL     OW14266   2.894   2.411   5.602
 4631SOL    HW114267   2.853   2.493   5.563
 4631SOL    HW214268   2.958   2.437   5.675
 4632SOL     OW14269   1.940   2.418   6.972
 4632SOL    HW114270   2.032   2.417   6.931
 4632SOL    HW214271   1.934   2.492   7.039
 4633SOL     OW14272   2.423   2.084   6.733
 4633SOL    HW114273   2.461   2.000   6.770
 4633SOL    HW214274   2.335   2.103   6.777
 4634SOL     OW14275   2.728   2.316   6.228
 4634SOL    HW114276   2.696   2.388   6.166
 4634SOL    HW214277   2.752   2.235   6.175
 4635SOL     OW14278   2.879   1.901   6.339
 4635SOL    HW114279   2.807   1.906   6.270
 4635SOL    HW214280   2.855   1.832   6.408
 4636SOL     OW14281   3.291   3.035   6.453
 4636SOL    HW114282   3.236   2.951   6.446
 4636SOL    HW214283   3.317   3.064   6.361
 4637SOL     OW14284   3.328   2.452   6.578
 4637SOL    HW114285   3.298   2.357   6.585
 4637SOL    HW214286   3.401   2.468   6.644
 4638SOL     OW14287   3.719   2.695   5.963
 4638SOL    HW114288   3.761   2.631   6.027
 4638SOL    HW214289   3.681   2.644   5.885
 4639SOL     OW14290   2.350   3.247   5.760
 4639SOL    HW114291   2.263   3.232   5.807
 4639SOL    HW214292   2.333   3.273   5.665
 4640SOL     OW14293   3.526   3.142   6.243
 4640SOL    HW114294   3.625   3.150   6.257
 4640SOL    HW214295   3.481   3.226   6.274
 4641SOL     OW14296   3.252   2.437   5.664
 4641SOL    HW114297   3.198   2.416   5.745
 4641SOL    HW214298   3.343   2.396   5.673
 4642SOL     OW14299   3.616   3.085   7.174
 4642SOL    HW114300   3.707   3.046   7.161
 4642SOL    HW214301   3.624   3.181   7.198
 4643SOL     OW14302   2.926   3.209   6.926
 4643SOL    HW114303   2.846   3.186   6.981
 4643SOL    HW214304   3.009   3.183   6.975
 4644SOL     OW14305   3.454   3.491   7.211
 4644SOL    HW114306   3.481   3.525   7.121
 4644SOL    HW214307   3.533   3.453   7.257
 4645SOL     OW14308   2.973   3.057   6.686
 4645SOL    HW114309   2.933   3.101   6.767
 4645SOL    HW214310   2.932   3.094   6.603
 4646SOL     OW14311   3.500   2.961   6.665
 4646SOL    HW114312   3.505   3.042   6.724
 4646SOL    HW214313   3.414   2.963   6.614
 4647SOL     OW14314   2.777   1.951   6.988
 4647SOL    HW114315   2.802   1.931   6.893
 4647SOL    HW214316   2.849   2.007   7.030
 4648SOL     OW14317   2.842   2.978   7.305
 4648SOL    HW114318   2.743   2.984   7.315
 4648SOL    HW214319   2.865   2.898   7.249
 4649SOL     OW14320   2.567   2.912   5.954
 4649SOL    HW114321   2.553   2.919   6.053
 4649SOL    HW214322   2.651   2.861   5.936
 4650SOL     OW14323   2.272   2.675   6.837
 4650SOL    HW114324   2.358   2.687   6.887
 4650SOL    HW214325   2.230   2.588   6.864
 4651SOL     OW14326   3.136   2.248   6.848
 4651SOL    HW114327   3.157   2.322   6.912
 4651SOL    HW214328   3.047   2.265   6.805
 4652SOL     OW14329   1.926   3.426   6.917
 4652SOL    HW114330   1.880   3.508   6.883
 4652SOL    HW214331   2.024   3.445   6.926
 4653SOL     OW14332   2.229   2.962   6.087
 4653SOL    HW114333   2.222   3.045   6.031
 4653SOL    HW214334   2.233   2.882   6.027
 4654SOL     OW14335   3.114   3.210   5.974
 4654SOL    HW114336   3.164   3.287   6.014
 4654SOL    HW214337   3.019   3.212   6.006
 4655SOL     OW14338   3.134   3.307   6.728
 4655SOL    HW114339   3.181   3.320   6.815
 4655SOL    HW214340   3.068   3.233   6.737
 4656SOL     OW14341   3.444   2.501   6.058
 4656SOL    HW114342   3.413   2.562   6.131
 4656SOL    HW214343   3.494   2.553   5.989
 4657SOL     OW14344   2.216   3.372   6.915
 4657SOL    HW114345   2.195   3.328   6.828
 4657SOL    HW214346   2.313   3.398   6.918
 4658SOL     OW14347   3.449   2.641   7.256
 4658SOL    HW114348   3.357   2.679   7.251
 4658SOL    HW214349   3.509   2.688   7.191
 4659SOL     OW14350   2.875   1.967   7.356
 4659SOL    HW114351   2.881   2.052   7.304
 4659SOL    HW214352   2.907   1.891   7.299
 4660SOL     OW14353   2.366   1.912   7.326
 4660SOL    HW114354   2.324   1.855   7.256
 4660SOL    HW214355   2.300   1.981   7.358
 4661SOL     OW14356   2.435   2.732   6.615
 4661SOL    HW114357   2.479   2.821   6.606
 4661SOL    HW214358   2.372   2.732   6.692
 4662SOL     OW14359   3.222   2.724   6.631
 4662SOL    HW114360   3.147   2.724   6.565
 4662SOL    HW214361   3.259   2.632   6.640
 4663SOL     OW14362   3.071   2.387   5.861
 4663SOL    HW114363   3.084   2.303   5.915
 4663SOL    HW214364   3.042   2.461   5.921
 4664SOL     OW14365   2.169   2.075   6.817
 4664SOL    HW114366   2.146   2.112   6.907
 4664SOL    HW214367   2.139   1.980   6.811
 4665SOL     OW14368   1.899   3.172   6.868
 4665SOL    HW114369   1.952   3.123   6.936
 4665SOL    HW214370   1.921   3.270   6.873
 4666SOL     OW14371   2.594   2.496   6.650
 4666SOL    HW114372   2.653   2.470   6.574
 4666SOL    HW214373   2.566   2.592   6.639
 4667SOL     OW14374   3.590   2.797   7.440
 4667SOL    HW114375   3.544   2.790   7.351
 4667SOL    HW214376   3.528   2.841   7.506
 4668SOL     OW14377   2.169   1.925   6.204
 4668SOL    HW114378   2.158   2.019   6.237
 4668SOL    HW214379   2.164   1.862   6.281
 4669SOL     OW14380   3.484   2.229   5.960
 4669SOL    HW114381   3.486   2.153   6.024
 4669SOL    HW214382   3.436   2.306   6.000
 4670SOL     OW14383   2.885   2.628   6.552
 4670SOL    HW114384   2.900   2.649   6.648
 4670SOL    HW214385   2.855   2.533   6.543
 4671SOL     OW14386   2.842   3.435   7.286
 4671SOL    HW114387   2.822   3.479   7.198
 4671SOL    HW214388   2.881   3.344   7.270
 4672SOL     OW14389   3.721   3.380   7.191
 4672SOL    HW114390   3.735   3.407   7.096
 4672SOL    HW214391   3.804   3.402   7.244
 4673SOL     OW14392   2.212   2.760   7.390
 4673SOL    HW114393   2.288   2.804   7.438
 4673SOL    HW214394   2.247   2.713   7.308
 4674SOL     OW14395   3.402   2.136   5.711
 4674SOL    HW114396   3.341   2.061   5.734
 4674SOL    HW214397   3.424   2.188   5.794
 4675SOL     OW14398   3.165   2.700   5.628
 4675SOL    HW114399   3.199   2.607   5.643
 4675SOL    HW214400   3.183   2.727   5.533
 4676SOL     OW14401   2.930   3.195   6.435
 4676SOL    HW114402   2.937   3.111   6.380
 4676SOL    HW214403   2.992   3.264   6.399
 4677SOL     OW14404   2.181   2.672   6.535
 4677SOL    HW114405   2.274   2.708   6.540
 4677SOL    HW214406   2.175   2.587   6.587
 4678SOL     OW14407   3.000   2.242   7.264
 4678SOL    HW114408   2.955   2.305   7.328
 4678SOL    HW214409   3.093   2.273   7.247
 4679SOL     OW14410   3.022   2.069   7.063
 4679SOL    HW114411   3.022   2.133   7.140
 4679SOL    HW214412   3.050   2.117   6.980
 4680SOL     OW14413   1.870   3.188   5.786
 4680SOL    HW114414   1.777   3.209   5.755
 4680SOL    HW214415   1.880   3.089   5.799
 4681SOL     OW14416   1.950   3.663   6.513
 4681SOL    HW114417   1.908   3.577   6.486
 4681SOL    HW214418   2.044   3.666   6.479
 4682SOL     OW14419   2.366   3.430   6.496
 4682SOL    HW114420   2.432   3.504   6.505
 4682SOL    HW214421   2.410   3.351   6.454
 4683SOL     OW14422   2.864   2.658   6.824
 4683SOL    HW114423   2.905   2.626   6.910
 4683SOL    HW214424   2.768   2.631   6.821
 4684SOL     OW14425   1.902   2.406   6.700
 4684SOL    HW114426   1.987   2.373   6.659
 4684SOL    HW214427   1.915   2.421   6.798
 4685SOL     OW14428   2.051   2.382   7.308
 4685SOL    HW114429   2.110   2.342   7.238
 4685SOL    HW214430   1.993   2.453   7.267
 4686SOL     OW14431   3.231   2.812   7.246
 4686SOL    HW114432   3.270   2.901   7.266
 4686SOL    HW214433   3.241   2.792   7.149
 4687SOL     OW14434   3.519   2.466   6.792
 4687SOL    HW114435   3.481   2.397   6.854
 4687SOL    HW214436   3.601   2.430   6.748
 4688SOL     OW14437   2.114   3.426   7.330
 4688SOL    HW114438   2.084   3.483   7.406
 4688SOL    HW214439   2.107   3.329   7.356
 4689SOL     OW14440   2.792   3.540   7.051
 4689SOL    HW114441   2.768   3.522   6.956
 4689SOL    HW214442   2.822   3.634   7.061
 4690SOL     OW14443   2.021   2.999   7.052
 4690SOL    HW114444   2.043   2.938   7.128
 4690SOL    HW214445   2.031   2.950   6.966
 4691SOL     OW14446   3.209   2.921   6.820
 4691SOL    HW114447   3.233   2.858   6.746
 4691SOL    HW214448   3.119   2.961   6.802
 4692SOL     OW14449   3.164   2.717   5.895
 4692SOL    HW114450   3.078   2.686   5.937
 4692SOL    HW214451   3.160   2.703   5.796
 4693SOL     OW14452   3.621   3.609   6.740
 4693SOL    HW114453   3.682   3.639   6.667
 4693SOL    HW214454   3.583   3.520   6.718
 4694SOL     OW14455   3.114   3.593   6.714
 4694SOL    HW114456   3.198   3.598   6.660
 4694SOL    HW214457   3.091   3.497   6.732
 4695SOL     OW14458   1.945   3.120   6.608
 4695SOL    HW114459   1.940   3.119   6.708
 4695SOL    HW214460   1.862   3.079   6.570
 4696SOL     OW14461   2.550   3.524   7.302
 4696SOL    HW114462   2.494   3.605   7.311
 4696SOL    HW214463   2.602   3.528   7.216
 4697SOL     OW14464   3.588   1.997   6.109
 4697SOL    HW114465   3.661   1.980   6.042
 4697SOL    HW214466   3.557   1.910   6.147
 4698SOL     OW14467   3.250   3.435   6.063
 4698SOL    HW114468   3.317   3.447   5.989
 4698SOL    HW214469   3.210   3.524   6.086
 4699SOL     OW14470   1.992   3.656   7.437
 4699SOL    HW114471   1.951   3.582   7.490
 4699SOL    HW214472   2.056   3.707   7.495
 4700SOL     OW14473   3.142   2.789   6.258
 4700SOL    HW114474   3.202   2.708   6.260
 4700SOL    HW214475   3.182   2.858   6.198
 4701SOL     OW14476   2.692   3.135   7.008
 4701SOL    HW114477   2.687   3.168   7.103
 4701SOL    HW214478   2.606   3.154   6.962
 4702SOL     OW14479   2.534   3.478   5.740
 4702SOL    HW114480   2.543   3.488   5.641
 4702SOL    HW214481   2.494   3.389   5.761
 4703SOL     OW14482   3.512   3.582   6.980
 4703SOL    HW114483   3.565   3.592   6.896
 4703SOL    HW214484   3.485   3.672   7.014
 4704SOL     OW14485   3.703   2.037   6.549
 4704SOL    HW114486   3.742   1.952   6.513
 4704SOL    HW214487   3.605   2.039   6.530
 4705SOL     OW14488   2.125   2.188   6.306
 4705SOL    HW114489   2.046   2.239   6.272
 4705SOL    HW214490   2.116   2.173   6.404
 4706SOL     OW14491   3.056   3.474   5.617
 4706SOL    HW114492   3.062   3.381   5.654
 4706SOL    HW214493   2.997   3.474   5.537
 4707SOL     OW14494   2.684   2.864   6.958
 4707SOL    HW114495   2.724   2.863   6.866
 4707SOL    HW214496   2.694   2.956   6.998
 4708SOL     OW14497   2.778   2.772   5.877
 4708SOL    HW114498   2.841   2.810   5.809
 4708SOL    HW214499   2.818   2.689   5.916
 4709SOL     OW14500   3.366   3.469   5.630
 4709SOL    HW114501   3.274   3.506   5.637
 4709SOL    HW214502   3.404   3.489   5.540
 4710SOL     OW14503   2.234   3.150   7.076
 4710SOL    HW114504   2.221   3.243   7.042
 4710SOL    HW214505   2.150   3.098   7.063
 4711SOL     OW14506   3.476   3.154   6.875
 4711SOL    HW114507   3.536   3.157   6.955
 4711SOL    HW214508   3.401   3.218   6.888
 4712SOL     OW14509   2.901   2.960   6.282
 4712SOL    HW114510   2.831   2.913   6.336
 4712SOL    HW214511   2.960   2.892   6.239
 4713SOL     OW14512   2.876   2.098   6.557
 4713SOL    HW114513   2.868   2.062   6.464
 4713SOL    HW214514   2.874   2.022   6.622
 4714SOL     OW14515   2.452   3.349   6.077
 4714SOL    HW114516   2.494   3.291   6.007
 4714SOL    HW214517   2.408   3.428   6.033
 4715SOL     OW14518   3.571   2.247   6.967
 4715SOL    HW114519   3.644   2.316   6.971
 4715SOL    HW214520   3.599   2.172   6.908
 4716SOL     OW14521   2.117   3.210   5.876
 4716SOL    HW114522   2.021   3.211   5.849
 4716SOL    HW214523   2.129   3.263   5.960
 4717SOL     OW14524   1.967   2.875   7.312
 4717SOL    HW114525   1.890   2.842   7.366
 4717SOL    HW214526   2.052   2.845   7.354
 4718SOL     OW14527   2.534   2.065   7.075
 4718SOL    HW114528   2.624   2.049   7.035
 4718SOL    HW214529   2.542   2.070   7.174
 4719SOL     OW14530   1.937   2.207   5.619
 4719SOL    HW114531   1.845   2.179   5.590
 4719SOL    HW214532   1.968   2.284   5.563
 4720SOL     OW14533   3.302   2.718   6.984
 4720SOL    HW114534   3.245   2.770   6.921
 4720SOL    HW214535   3.398   2.730   6.960
 4721SOL     OW14536   1.934   2.028   5.904
 4721SOL    HW114537   1.917   2.111   5.850
 4721SOL    HW214538   2.024   1.991   5.882
 4722SOL     OW14539   3.045   3.197   5.705
 4722SOL    HW114540   2.946   3.186   5.707
 4722SOL    HW214541   3.079   3.212   5.798
 4723SOL     OW14542   2.475   2.704   7.017
 4723SOL    HW114543   2.531   2.785   7.000
 4723SOL    HW214544   2.534   2.624   7.020
 4724SOL     OW14545   3.355   3.629   6.545
 4724SOL    HW114546   3.388   3.693   6.476
 4724SOL    HW214547   3.421   3.623   6.620
 4725SOL     OW14548   3.312   3.082   7.219
 4725SOL    HW114549   3.303   3.072   7.318
 4725SOL    HW214550   3.408   3.075   7.193
 4726SOL     OW14551   2.252   3.603   7.146
 4726SOL    HW114552   2.161   3.644   7.144
 4726SOL    HW214553   2.245   3.509   7.178
 4727SOL     OW14554   3.536   2.745   6.840
 4727SOL    HW114555   3.509   2.656   6.803
 4727SOL    HW214556   3.537   2.813   6.767
 4728SOL     OW14557   3.087   2.187   6.035
 4728SOL    HW114558   3.152   2.113   6.024
 4728SOL    HW214559   3.107   2.237   6.119
 4729SOL     OW14560   3.639   2.204   7.228
 4729SOL    HW114561   3.622   2.235   7.134
 4729SOL    HW214562   3.555   2.167   7.266
 4730SOL     OW14563   3.592   2.796   7.103
 4730SOL    HW114564   3.630   2.887   7.118
 4730SOL    HW214565   3.584   2.779   7.004
 4731SOL     OW14566   2.721   3.236   5.602
 4731SOL    HW114567   2.675   3.251   5.690
 4731SOL    HW214568   2.765   3.321   5.572
 4732SOL     OW14569   2.523   3.652   6.539
 4732SOL    HW114570   2.477   3.740   6.526
 4732SOL    HW214571   2.622   3.664   6.532
 4733SOL     OW14572   2.721   2.818   6.447
 4733SOL    HW114573   2.775   2.749   6.495
 4733SOL    HW214574   2.689   2.887   6.513
 4734SOL     OW14575   2.945   2.846   5.673
 4734SOL    HW114576   2.922   2.899   5.591
 4734SOL    HW214577   3.026   2.790   5.654
 4735SOL     OW14578   3.723   3.431   6.437
 4735SOL    HW114579   3.652   3.419   6.367
 4735SOL    HW214580   3.724   3.352   6.497
 4736SOL     OW14581   2.083   3.176   7.430
 4736SOL    HW114582   2.018   3.103   7.409
 4736SOL    HW214583   2.087   3.190   7.528
 4737SOL     OW14584   1.941   3.102   6.239
 4737SOL    HW114585   1.940   3.055   6.327
 4737SOL    HW214586   2.023   3.074   6.188
 4738SOL     OW14587   2.534   3.253   7.210
 4738SOL    HW114588   2.456   3.203   7.248
 4738SOL    HW214589   2.531   3.348   7.241
 4739SOL     OW14590   3.686   2.054   6.813
 4739SOL    HW114591   3.682   1.964   6.857
 4739SOL    HW214592   3.689   2.043   6.714
 4740SOL     OW14593   3.567   3.349   6.690
 4740SOL    HW114594   3.474   3.324   6.663
 4740SOL    HW214595   3.593   3.299   6.772
 4741SOL     OW14596   2.674   3.448   6.273
 4741SOL    HW114597   2.706   3.458   6.179
 4741SOL    HW214598   2.595   3.386   6.275
 4742SOL     OW14599   3.286   2.076   6.698
 4742SOL    HW114600   3.338   2.011   6.753
 4742SOL    HW214601   3.237   2.139   6.759
 4743SOL     OW14602   2.863   1.896   6.740
 4743SOL    HW114603   2.800   1.824   6.709
 4743SOL    HW214604   2.956   1.860   6.740
 4744SOL     OW14605   2.632   3.192   5.887
 4744SOL    HW114606   2.586   3.105   5.904
 4744SOL    HW214607   2.723   3.189   5.928
 4745SOL     OW14608   2.480   3.429   6.870
 4745SOL    HW114609   2.475   3.511   6.927
 4745SOL    HW214610   2.569   3.426   6.825
 4746SOL     OW14611   3.214   1.914   5.754
 4746SOL    HW114612   3.249   1.873   5.670
 4746SOL    HW214613   3.124   1.876   5.774
 4747SOL     OW14614   3.162   2.315   6.277
 4747SOL    HW114615   3.103   2.395   6.281
 4747SOL    HW214616   3.177   2.280   6.370
 4748SOL     OW14617   3.455   2.083   6.468
 4748SOL    HW114618   3.371   2.082   6.522
 4748SOL    HW214619   3.457   2.166   6.412
 4749SOL     OW14620   1.901   2.939   5.886
 4749SOL    HW114621   2.000   2.928   5.877
 4749SOL    HW214622   1.861   2.853   5.918
 4750SOL     OW14623   2.737   3.508   5.923
 4750SOL    HW114624   2.660   3.473   5.869
 4750SOL    HW214625   2.705   3.579   5.985
 4751SOL     OW14626   2.092   2.490   7.561
 4751SOL    HW114627   1.999   2.488   7.598
 4751SOL    HW214628   2.093   2.451   7.469
 4752SOL     OW14629   2.087   2.137   8.444
 4752SOL    HW114630   2.122   2.120   8.536
 4752SOL    HW214631   1.999   2.092   8.432
 4753SOL     OW14632   1.881   2.230   8.095
 4753SOL    HW114633   1.799   2.273   8.134
 4753SOL    HW214634   1.853   2.157   8.032
 4754SOL     OW14635   2.431   3.137   8.613
 4754SOL    HW114636   2.338   3.130   8.576
 4754SOL    HW214637   2.442   3.226   8.657
 4755SOL     OW14638   3.417   3.373   8.151
 4755SOL    HW114639   3.360   3.357   8.232
 4755SOL    HW214640   3.358   3.383   8.071
 4756SOL     OW14641   2.997   2.565   8.165
 4756SOL    HW114642   3.054   2.643   8.140
 4756SOL    HW214643   2.937   2.591   8.241
 4757SOL     OW14644   3.617   2.469   7.679
 4757SOL    HW114645   3.605   2.456   7.580
 4757SOL    HW214646   3.587   2.388   7.728
 4758SOL     OW14647   2.630   3.006   8.471
 4758SOL    HW114648   2.552   3.023   8.531
 4758SOL    HW214649   2.664   3.093   8.435
 4759SOL     OW14650   2.712   2.660   9.271
 4759SOL    HW114651   2.708   2.736   9.336
 4759SOL    HW214652   2.734   2.696   9.180
 4760SOL     OW14653   2.547   2.874   8.113
 4760SOL    HW114654   2.616   2.858   8.183
 4760SOL    HW214655   2.474   2.931   8.151
 4761SOL     OW14656   2.548   3.023   9.251
 4761SOL    HW114657   2.608   3.102   9.265
 4761SOL    HW214658   2.462   3.054   9.210
 4762SOL     OW14659   2.197   3.297   8.509
 4762SOL    HW114660   2.119   3.266   8.456
 4762SOL    HW214661   2.255   3.355   8.452
 4763SOL     OW14662   3.322   3.367   8.787
 4763SOL    HW114663   3.346   3.461   8.813
 4763SOL    HW214664   3.306   3.313   8.869
 4764SOL     OW14665   3.465   2.309   8.185
 4764SOL    HW114666   3.391   2.355   8.135
 4764SOL    HW214667   3.516   2.377   8.238
 4765SOL     OW14668   2.093   3.575   7.931
 4765SOL    HW114669   2.127   3.652   7.985
 4765SOL    HW214670   2.137   3.575   7.841
 4766SOL     OW14671   2.989   3.203   9.138
 4766SOL    HW114672   3.036   3.203   9.226
 4766SOL    HW214673   2.941   3.116   9.127
 4767SOL     OW14674   2.092   3.296   7.986
 4767SOL    HW114675   2.066   3.392   7.986
 4767SOL    HW214676   2.021   3.242   8.031
 4768SOL     OW14677   2.102   2.953   8.334
 4768SOL    HW114678   2.116   2.869   8.386
 4768SOL    HW214679   2.047   3.017   8.389
 4769SOL     OW14680   2.482   3.648   8.887
 4769SOL    HW114681   2.390   3.631   8.922
 4769SOL    HW214682   2.510   3.740   8.913
 4770SOL     OW14683   2.468   2.826   7.571
 4770SOL    HW114684   2.475   2.910   7.517
 4770SOL    HW214685   2.514   2.839   7.659
 4771SOL     OW14686   3.456   1.976   8.928
 4771SOL    HW114687   3.438   2.043   8.856
 4771SOL    HW214688   3.453   2.022   9.017
 4772SOL     OW14689   1.984   2.505   8.011
 4772SOL    HW114690   1.939   2.417   8.028
 4772SOL    HW214691   1.983   2.559   8.095
 4773SOL     OW14692   3.704   3.629   7.807
 4773SOL    HW114693   3.758   3.600   7.887
 4773SOL    HW214694   3.734   3.719   7.778
 4774SOL     OW14695   1.889   3.458   7.565
 4774SOL    HW114696   1.870   3.362   7.586
 4774SOL    HW214697   1.856   3.516   7.640
 4775SOL     OW14698   3.551   2.784   8.060
 4775SOL    HW114699   3.646   2.755   8.068
 4775SOL    HW214700   3.543   2.849   7.985
 4776SOL     OW14701   3.503   2.970   7.880
 4776SOL    HW114702   3.589   2.972   7.828
 4776SOL    HW214703   3.517   3.017   7.968
 4777SOL     OW14704   1.975   2.599   9.045
 4777SOL    HW114705   2.063   2.586   9.090
 4777SOL    HW214706   1.962   2.696   9.023
 4778SOL     OW14707   2.475   3.227   8.174
 4778SOL    HW114708   2.426   3.140   8.183
 4778SOL    HW214709   2.452   3.270   8.087
 4779SOL     OW14710   3.155   3.090   8.871
 4779SOL    HW114711   3.192   3.017   8.813
 4779SOL    HW214712   3.207   3.095   8.956
 4780SOL     OW14713   2.671   1.866   7.950
 4780SOL    HW114714   2.711   1.957   7.941
 4780SOL    HW214715   2.571   1.874   7.956
 4781SOL     OW14716   2.059   2.838   8.712
 4781SOL    HW114717   2.148   2.793   8.698
 4781SOL    HW214718   1.986   2.773   8.693
 4782SOL     OW14719   3.387   2.861   7.638
 4782SOL    HW114720   3.324   2.785   7.651
 4782SOL    HW214721   3.435   2.879   7.724
 4783SOL     OW14722   3.049   3.654   9.064
 4783SOL    HW114723   3.073   3.714   8.988
 4783SOL    HW214724   3.056   3.559   9.034
 4784SOL     OW14725   2.179   2.113   9.249
 4784SOL    HW114726   2.250   2.184   9.255
 4784SOL    HW214727   2.091   2.152   9.277
 4785SOL     OW14728   3.328   3.279   8.401
 4785SOL    HW114729   3.269   3.285   8.481
 4785SOL    HW214730   3.313   3.191   8.355
 4786SOL     OW14731   3.529   3.576   8.020
 4786SOL    HW114732   3.488   3.553   7.932
 4786SOL    HW214733   3.511   3.502   8.085
 4787SOL     OW14734   2.460   2.591   7.718
 4787SOL    HW114735   2.484   2.660   7.650
 4787SOL    HW214736   2.382   2.624   7.772
 4788SOL     OW14737   3.143   2.207   8.392
 4788SOL    HW114738   3.057   2.157   8.379
 4788SOL    HW214739   3.205   2.153   8.448
 4789SOL     OW14740   3.438   3.524   7.755
 4789SOL    HW114741   3.527   3.570   7.758
 4789SOL    HW214742   3.417   3.500   7.660
 4790SOL     OW14743   3.256   2.331   9.122
 4790SOL    HW114744   3.236   2.374   9.210
 4790SOL    HW214745   3.334   2.269   9.131
 4791SOL     OW14746   2.835   2.752   9.020
 4791SOL    HW114747   2.881   2.668   8.991
 4791SOL    HW214748   2.779   2.786   8.945
 4792SOL     OW14749   2.853   2.272   8.690
 4792SOL    HW114750   2.776   2.306   8.744
 4792SOL    HW214751   2.819   2.221   8.611
 4793SOL     OW14752   2.903   2.563   7.877
 4793SOL    HW114753   2.929   2.559   7.973
 4793SOL    HW214754   2.818   2.512   7.863
 4794SOL     OW14755   1.938   2.673   8.237
 4794SOL    HW114756   2.037   2.661   8.246
 4794SOL    HW214757   1.914   2.768   8.258
 4795SOL     OW14758   1.992   3.683   9.019
 4795SOL    HW114759   1.982   3.668   9.118
 4795SOL    HW214760   1.906   3.719   8.983
 4796SOL     OW14761   2.727   2.210   7.643
 4796SOL    HW114762   2.786   2.273   7.594
 4796SOL    HW214763   2.746   2.116   7.614
 4797SOL     OW14764   3.581   2.447   9.279
 4797SOL    HW114765   3.555   2.536   9.243
 4797SOL    HW214766   3.579   2.379   9.206
 4798SOL     OW14767   3.224   3.006   7.993
 4798SOL    HW114768   3.307   2.977   7.945
 4798SOL    HW214769   3.175   3.073   7.937
 4799SOL     OW14770   2.870   3.318   7.925
 4799SOL    HW114771   2.824   3.390   7.873
 4799SOL    HW214772   2.866   3.338   8.023
 4800SOL     OW14773   2.213   3.663   8.301
 4800SOL    HW114774   2.263   3.577   8.307
 4800SOL    HW214775   2.278   3.740   8.298
 4801SOL     OW14776   3.657   2.928   8.321
 4801SOL    HW114777   3.595   2.913   8.245
 4801SOL    HW214778   3.605   2.939   8.406
 4802SOL     OW14779   3.089   3.412   8.954
 4802SOL    HW114780   3.095   3.335   9.018
 4802SOL    HW214781   3.037   3.386   8.874
 4803SOL     OW14782   2.183   2.805   7.690
 4803SOL    HW114783   2.265   2.844   7.648
 4803SOL    HW214784   2.156   2.723   7.641
 4804SOL     OW14785   3.320   2.597   8.176
 4804SOL    HW114786   3.315   2.532   8.251
 4804SOL    HW214787   3.400   2.656   8.189
 4805SOL     OW14788   2.323   3.128   9.175
 4805SOL    HW114789   2.273   3.129   9.089
 4805SOL    HW214790   2.260   3.110   9.251
 4806SOL     OW14791   2.973   3.638   7.685
 4806SOL    HW114792   2.913   3.576   7.735
 4806SOL    HW214793   3.004   3.594   7.600
 4807SOL     OW14794   2.064   2.147   8.946
 4807SOL    HW114795   1.984   2.207   8.933
 4807SOL    HW214796   2.054   2.098   9.032
 4808SOL     OW14797   3.494   3.239   7.529
 4808SOL    HW114798   3.462   3.333   7.519
 4808SOL    HW214799   3.418   3.176   7.517
 4809SOL     OW14800   2.326   3.605   7.771
 4809SOL    HW114801   2.359   3.644   7.857
 4809SOL    HW214802   2.402   3.598   7.706
 4810SOL     OW14803   3.262   1.969   7.874
 4810SOL    HW114804   3.238   1.932   7.784
 4810SOL    HW214805   3.361   1.985   7.878
 4811SOL     OW14806   2.111   3.647   8.689
 4811SOL    HW114807   2.168   3.582   8.739
 4811SOL    HW214808   2.095   3.614   8.596
 4812SOL     OW14809   2.802   3.560   8.352
 4812SOL    HW114810   2.882   3.503   8.373
 4812SOL    HW214811   2.753   3.520   8.275
 4813SOL     OW14812   3.409   2.084   9.177
 4813SOL    HW114813   3.404   2.121   9.269
 4813SOL    HW214814   3.337   2.015   9.165
 4814SOL     OW14815   2.476   1.984   7.565
 4814SOL    HW114816   2.574   1.962   7.572
 4814SOL    HW214817   2.445   1.967   7.472
 4815SOL     OW14818   2.643   2.126   9.197
 4815SOL    HW114819   2.710   2.065   9.240
 4815SOL    HW214820   2.570   2.145   9.262
 4816SOL     OW14821   2.750   3.376   8.643
 4816SOL    HW114822   2.727   3.351   8.549
 4816SOL    HW214823   2.811   3.307   8.682
 4817SOL     OW14824   3.213   2.452   8.881
 4817SOL    HW114825   3.241   2.409   8.966
 4817SOL    HW214826   3.238   2.548   8.882
 4818SOL     OW14827   2.665   3.264   8.372
 4818SOL    HW114828   2.755   3.278   8.330
 4818SOL    HW214829   2.594   3.266   8.301
 4819SOL     OW14830   2.784   2.365   8.347
 4819SOL    HW114831   2.759   2.356   8.251
 4819SOL    HW214832   2.832   2.283   8.378
 4820SOL     OW14833   2.401   1.926   7.960
 4820SOL    HW114834   2.320   1.927   8.018
 4820SOL    HW214835   2.404   2.009   7.905
 4821SOL     OW14836   3.296   3.050   7.489
 4821SOL    HW114837   3.328   2.974   7.546
 4821SOL    HW214838   3.204   3.077   7.519
 4822SOL     OW14839   2.159   1.897   7.619
 4822SOL    HW114840   2.208   1.981   7.598
 4822SOL    HW214841   2.221   1.832   7.664
 4823SOL     OW14842   2.797   2.098   7.928
 4823SOL    HW114843   2.749   2.139   7.850
 4823SOL    HW214844   2.896   2.096   7.909
 4824SOL     OW14845   2.938   2.545   8.912
 4824SOL    HW114846   2.858   2.484   8.915
 4824SOL    HW214847   3.019   2.492   8.888
 4825SOL     OW14848   3.089   3.432   8.241
 4825SOL    HW114849   3.110   3.506   8.176
 4825SOL    HW214850   3.157   3.432   8.314
 4826SOL     OW14851   2.321   3.014   8.189
 4826SOL    HW114852   2.250   2.987   8.254
 4826SOL    HW214853   2.295   2.986   8.096
 4827SOL     OW14854   3.133   3.659   8.039
 4827SOL    HW114855   3.177   3.723   7.975
 4827SOL    HW214856   3.083   3.711   8.109
 4828SOL     OW14857   2.894   2.411   7.464
 4828SOL    HW114858   2.853   2.493   7.425
 4828SOL    HW214859   2.958   2.437   7.537
 4829SOL     OW14860   1.940   2.418   8.834
 4829SOL    HW114861   2.032   2.417   8.793
 4829SOL    HW214862   1.934   2.492   8.901
 4830SOL     OW14863   2.423   2.084   8.595
 4830SOL    HW114864   2.461   2.000   8.632
 4830SOL    HW214865   2.335   2.103   8.639
 4831SOL     OW14866   2.728   2.316   8.090
 4831SOL    HW114867   2.696   2.388   8.028
 4831SOL    HW214868   2.752   2.235   8.037
 4832SOL     OW14869   2.879   1.901   8.201
 4832SOL    HW114870   2.807   1.906   8.132
 4832SOL    HW214871   2.855   1.832   8.270
 4833SOL     OW14872   3.291   3.035   8.315
 4833SOL    HW114873   3.236   2.951   8.308
 4833SOL    HW214874   3.317   3.064   8.223
 4834SOL     OW14875   3.328   2.452   8.440
 4834SOL    HW114876   3.298   2.357   8.447
 4834SOL    HW214877   3.401   2.468   8.506
 4835SOL     OW14878   3.719   2.695   7.825
 4835SOL    HW114879   3.761   2.631   7.889
 4835SOL    HW214880   3.681   2.644   7.747
 4836SOL     OW14881   2.350   3.247   7.622
 4836SOL    HW114882   2.263   3.232   7.669
 4836SOL    HW214883   2.333   3.273   7.527
 4837SOL     OW14884   3.526   3.142   8.105
 4837SOL    HW114885   3.625   3.150   8.119
 4837SOL    HW214886   3.481   3.226   8.136
 4838SOL     OW14887   3.252   2.437   7.526
 4838SOL    HW114888   3.198   2.416   7.607
 4838SOL    HW214889   3.343   2.396   7.535
 4839SOL     OW14890   3.616   3.085   9.036
 4839SOL    HW114891   3.707   3.046   9.023
 4839SOL    HW214892   3.624   3.181   9.060
 4840SOL     OW14893   2.926   3.209   8.788
 4840SOL    HW114894   2.846   3.186   8.843
 4840SOL    HW214895   3.009   3.183   8.837
 4841SOL     OW14896   3.454   3.491   9.073
 4841SOL    HW114897   3.481   3.525   8.983
 4841SOL    HW214898   3.533   3.453   9.119
 4842SOL     OW14899   2.973   3.057   8.548
 4842SOL    HW114900   2.933   3.101   8.629
 4842SOL    HW214901   2.932   3.094   8.465
 4843SOL     OW14902   3.500   2.961   8.527
 4843SOL    HW114903   3.505   3.042   8.586
 4843SOL    HW214904   3.414   2.963   8.476
 4844SOL     OW14905   2.777   1.951   8.850
 4844SOL    HW114906   2.802   1.931   8.755
 4844SOL    HW214907   2.849   2.007   8.892
 4845SOL     OW14908   2.842   2.978   9.167
 4845SOL    HW114909   2.743   2.984   9.177
 4845SOL    HW214910   2.865   2.898   9.111
 4846SOL     OW14911   2.567   2.912   7.816
 4846SOL    HW114912   2.553   2.919   7.915
 4846SOL    HW214913   2.651   2.861   7.798
 4847SOL     OW14914   2.272   2.675   8.699
 4847SOL    HW114915   2.358   2.687   8.749
 4847SOL    HW214916   2.230   2.588   8.726
 4848SOL     OW14917   3.136   2.248   8.710
 4848SOL    HW114918   3.157   2.322   8.774
 4848SOL    HW214919   3.047   2.265   8.667
 4849SOL     OW14920   1.926   3.426   8.779
 4849SOL    HW114921   1.880   3.508   8.745
 4849SOL    HW214922   2.024   3.445   8.788
 4850SOL     OW14923   2.229   2.962   7.949
 4850SOL    HW114924   2.222   3.045   7.893
 4850SOL    HW214925   2.233   2.882   7.889
 4851SOL     OW14926   3.114   3.210   7.836
 4851SOL    HW114927   3.164   3.287   7.876
 4851SOL    HW214928   3.019   3.212   7.868
 4852SOL     OW14929   3.134   3.307   8.590
 4852SOL    HW114930   3.181   3.320   8.677
 4852SOL    HW214931   3.068   3.233   8.599
 4853SOL     OW14932   3.444   2.501   7.920
 4853SOL    HW114933   3.413   2.562   7.993
 4853SOL    HW214934   3.494   2.553   7.851
 4854SOL     OW14935   2.216   3.372   8.777
 4854SOL    HW114936   2.195   3.328   8.690
 4854SOL    HW214937   2.313   3.398   8.780
 4855SOL     OW14938   2.264   2.613   9.046
 4855SOL    HW114939   2.332   2.668   8.999
 4855SOL    HW214940   2.304   2.525   9.073
 4856SOL     OW14941   3.449   2.641   9.118
 4856SOL    HW114942   3.357   2.679   9.113
 4856SOL    HW214943   3.509   2.688   9.053
 4857SOL     OW14944   2.875   1.967   9.218
 4857SOL    HW114945   2.881   2.052   9.166
 4857SOL    HW214946   2.907   1.891   9.161
 4858SOL     OW14947   2.366   1.912   9.188
 4858SOL    HW114948   2.324   1.855   9.118
 4858SOL    HW214949   2.300   1.981   9.220
 4859SOL     OW14950   2.435   2.732   8.477
 4859SOL    HW114951   2.479   2.821   8.468
 4859SOL    HW214952   2.372   2.732   8.554
 4860SOL     OW14953   3.222   2.724   8.493
 4860SOL    HW114954   3.147   2.724   8.427
 4860SOL    HW214955   3.259   2.632   8.502
 4861SOL     OW14956   3.071   2.387   7.723
 4861SOL    HW114957   3.084   2.303   7.777
 4861SOL    HW214958   3.042   2.461   7.783
 4862SOL     OW14959   2.169   2.075   8.679
 4862SOL    HW114960   2.146   2.112   8.769
 4862SOL    HW214961   2.139   1.980   8.673
 4863SOL     OW14962   1.899   3.172   8.730
 4863SOL    HW114963   1.952   3.123   8.798
 4863SOL    HW214964   1.921   3.270   8.735
 4864SOL     OW14965   2.594   2.496   8.512
 4864SOL    HW114966   2.653   2.470   8.436
 4864SOL    HW214967   2.566   2.592   8.501
 4865SOL     OW14968   3.590   2.797   9.302
 4865SOL    HW114969   3.544   2.790   9.213
 4865SOL    HW214970   3.528   2.841   9.368
 4866SOL     OW14971   2.169   1.925   8.066
 4866SOL    HW114972   2.158   2.019   8.099
 4866SOL    HW214973   2.164   1.862   8.143
 4867SOL     OW14974   3.484   2.229   7.822
 4867SOL    HW114975   3.486   2.153   7.886
 4867SOL    HW214976   3.436   2.306   7.862
 4868SOL     OW14977   2.885   2.628   8.414
 4868SOL    HW114978   2.900   2.649   8.510
 4868SOL    HW214979   2.855   2.533   8.405
 4869SOL     OW14980   2.842   3.435   9.148
 4869SOL    HW114981   2.822   3.479   9.060
 4869SOL    HW214982   2.881   3.344   9.132
 4870SOL     OW14983   3.721   3.380   9.053
 4870SOL    HW114984   3.735   3.407   8.958
 4870SOL    HW214985   3.804   3.402   9.106
 4871SOL     OW14986   2.212   2.760   9.252
 4871SOL    HW114987   2.288   2.804   9.300
 4871SOL    HW214988   2.247   2.713   9.170
 4872SOL     OW14989   3.402   2.136   7.573
 4872SOL    HW114990   3.341   2.061   7.596
 4872SOL    HW214991   3.424   2.188   7.656
 4873SOL     OW14992   3.165   2.700   7.490
 4873SOL    HW114993   3.199   2.607   7.505
 4873SOL    HW214994   3.183   2.727   7.395
 4874SOL     OW14995   2.930   3.195   8.297
 4874SOL    HW114996   2.937   3.111   8.242
 4874SOL    HW214997   2.992   3.264   8.261
 4875SOL     OW14998   2.181   2.672   8.397
 4875SOL    HW114999   2.274   2.708   8.402
 4875SOL    HW215000   2.175   2.587   8.449
 4876SOL     OW15001   3.000   2.242   9.126
 4876SOL    HW115002   2.955   2.305   9.190
 4876SOL    HW215003   3.093   2.273   9.109
 4877SOL     OW15004   3.022   2.069   8.925
 4877SOL    HW115005   3.022   2.133   9.002
 4877SOL    HW215006   3.050   2.117   8.842
 4878SOL     OW15007   1.870   3.188   7.648
 4878SOL    HW115008   1.777   3.209   7.617
 4878SOL    HW215009   1.880   3.089   7.661
 4879SOL     OW15010   1.950   3.663   8.375
 4879SOL    HW115011   1.908   3.577   8.348
 4879SOL    HW215012   2.044   3.666   8.341
 4880SOL     OW15013   2.366   3.430   8.358
 4880SOL    HW115014   2.432   3.504   8.367
 4880SOL    HW215015   2.410   3.351   8.316
 4881SOL     OW15016   2.864   2.658   8.686
 4881SOL    HW115017   2.905   2.626   8.772
 4881SOL    HW215018   2.768   2.631   8.683
 4882SOL     OW15019   1.902   2.406   8.562
 4882SOL    HW115020   1.987   2.373   8.521
 4882SOL    HW215021   1.915   2.421   8.660
 4883SOL     OW15022   3.231   2.812   9.108
 4883SOL    HW115023   3.270   2.901   9.128
 4883SOL    HW215024   3.241   2.792   9.011
 4884SOL     OW15025   2.677   2.434   7.773
 4884SOL    HW115026   2.684   2.345   7.727
 4884SOL    HW215027   2.583   2.468   7.765
 4885SOL     OW15028   3.519   2.466   8.654
 4885SOL    HW115029   3.481   2.397   8.716
 4885SOL    HW215030   3.601   2.430   8.610
 4886SOL     OW15031   2.114   3.426   9.192
 4886SOL    HW115032   2.084   3.483   9.268
 4886SOL    HW215033   2.107   3.329   9.218
 4887SOL     OW15034   2.792   3.540   8.913
 4887SOL    HW115035   2.768   3.522   8.818
 4887SOL    HW215036   2.822   3.634   8.923
 4888SOL     OW15037   2.021   2.999   8.914
 4888SOL    HW115038   2.043   2.938   8.990
 4888SOL    HW215039   2.031   2.950   8.828
 4889SOL     OW15040   3.209   2.921   8.682
 4889SOL    HW115041   3.233   2.858   8.608
 4889SOL    HW215042   3.119   2.961   8.664
 4890SOL     OW15043   3.164   2.717   7.757
 4890SOL    HW115044   3.078   2.686   7.799
 4890SOL    HW215045   3.160   2.703   7.658
 4891SOL     OW15046   3.621   3.609   8.602
 4891SOL    HW115047   3.682   3.639   8.529
 4891SOL    HW215048   3.583   3.520   8.580
 4892SOL     OW15049   3.114   3.593   8.576
 4892SOL    HW115050   3.198   3.598   8.522
 4892SOL    HW215051   3.091   3.497   8.594
 4893SOL     OW15052   1.945   3.120   8.470
 4893SOL    HW115053   1.940   3.119   8.570
 4893SOL    HW215054   1.862   3.079   8.432
 4894SOL     OW15055   2.550   3.524   9.164
 4894SOL    HW115056   2.494   3.605   9.173
 4894SOL    HW215057   2.602   3.528   9.078
 4895SOL     OW15058   3.588   1.997   7.971
 4895SOL    HW115059   3.661   1.980   7.904
 4895SOL    HW215060   3.557   1.910   8.009
 4896SOL     OW15061   3.250   3.435   7.925
 4896SOL    HW115062   3.317   3.447   7.851
 4896SOL    HW215063   3.210   3.524   7.948
 4897SOL     OW15064   1.992   3.656   9.299
 4897SOL    HW115065   1.951   3.582   9.352
 4897SOL    HW215066   2.056   3.707   9.357
 4898SOL     OW15067   3.142   2.789   8.120
 4898SOL    HW115068   3.202   2.708   8.122
 4898SOL    HW215069   3.182   2.858   8.060
 4899SOL     OW15070   2.692   3.135   8.870
 4899SOL    HW115071   2.687   3.168   8.965
 4899SOL    HW215072   2.606   3.154   8.824
 4900SOL     OW15073   2.534   3.478   7.602
 4900SOL    HW115074   2.543   3.488   7.503
 4900SOL    HW215075   2.494   3.389   7.623
 4901SOL     OW15076   3.512   3.582   8.842
 4901SOL    HW115077   3.565   3.592   8.758
 4901SOL    HW215078   3.485   3.672   8.876
 4902SOL     OW15079   3.703   2.037   8.411
 4902SOL    HW115080   3.742   1.952   8.375
 4902SOL    HW215081   3.605   2.039   8.392
 4903SOL     OW15082   2.125   2.188   8.168
 4903SOL    HW115083   2.046   2.239   8.134
 4903SOL    HW215084   2.116   2.173   8.266
 4904SOL     OW15085   3.056   3.474   7.479
 4904SOL    HW115086   3.062   3.381   7.516
 4904SOL    HW215087   2.997   3.474   7.399
 4905SOL     OW15088   2.684   2.864   8.820
 4905SOL    HW115089   2.724   2.863   8.728
 4905SOL    HW215090   2.694   2.956   8.860
 4906SOL     OW15091   2.778   2.772   7.739
 4906SOL    HW115092   2.841   2.810   7.671
 4906SOL    HW215093   2.818   2.689   7.778
 4907SOL     OW15094   3.366   3.469   7.492
 4907SOL    HW115095   3.274   3.506   7.499
 4907SOL    HW215096   3.404   3.489   7.402
 4908SOL     OW15097   2.234   3.150   8.938
 4908SOL    HW115098   2.221   3.243   8.904
 4908SOL    HW215099   2.150   3.098   8.925
 4909SOL     OW15100   3.476   3.154   8.737
 4909SOL    HW115101   3.536   3.157   8.817
 4909SOL    HW215102   3.401   3.218   8.750
 4910SOL     OW15103   2.901   2.960   8.144
 4910SOL    HW115104   2.831   2.913   8.198
 4910SOL    HW215105   2.960   2.892   8.101
 4911SOL     OW15106   2.876   2.098   8.419
 4911SOL    HW115107   2.868   2.062   8.326
 4911SOL    HW215108   2.874   2.022   8.484
 4912SOL     OW15109   2.452   3.349   7.939
 4912SOL    HW115110   2.494   3.291   7.869
 4912SOL    HW215111   2.408   3.428   7.895
 4913SOL     OW15112   3.571   2.247   8.829
 4913SOL    HW115113   3.644   2.316   8.833
 4913SOL    HW215114   3.599   2.172   8.770
 4914SOL     OW15115   2.117   3.210   7.738
 4914SOL    HW115116   2.021   3.211   7.711
 4914SOL    HW215117   2.129   3.263   7.822
 4915SOL     OW15118   1.967   2.875   9.174
 4915SOL    HW115119   1.890   2.842   9.228
 4915SOL    HW215120   2.052   2.845   9.216
 4916SOL     OW15121   2.534   2.065   8.937
 4916SOL    HW115122   2.624   2.049   8.897
 4916SOL    HW215123   2.542   2.070   9.036
 4917SOL     OW15124   1.937   2.207   7.481
 4917SOL    HW115125   1.845   2.179   7.452
 4917SOL    HW215126   1.968   2.284   7.425
 4918SOL     OW15127   3.302   2.718   8.846
 4918SOL    HW115128   3.245   2.770   8.783
 4918SOL    HW215129   3.398   2.730   8.822
 4919SOL     OW15130   1.934   2.028   7.766
 4919SOL    HW115131   1.917   2.111   7.712
 4919SOL    HW215132   2.024   1.991   7.744
 4920SOL     OW15133   3.045   3.197   7.567
 4920SOL    HW115134   2.946   3.186   7.569
 4920SOL    HW215135   3.079   3.212   7.660
 4921SOL     OW15136   2.475   2.704   8.879
 4921SOL    HW115137   2.531   2.785   8.862
 4921SOL    HW215138   2.534   2.624   8.882
 4922SOL     OW15139   3.355   3.629   8.407
 4922SOL    HW115140   3.388   3.693   8.338
 4922SOL    HW215141   3.421   3.623   8.482
 4923SOL     OW15142   3.312   3.082   9.081
 4923SOL    HW115143   3.303   3.072   9.180
 4923SOL    HW215144   3.408   3.075   9.055
 4924SOL     OW15145   2.252   3.603   9.008
 4924SOL    HW115146   2.161   3.644   9.006
 4924SOL    HW215147   2.245   3.509   9.040
 4925SOL     OW15148   3.536   2.745   8.702
 4925SOL    HW115149   3.509   2.656   8.665
 4925SOL    HW215150   3.537   2.813   8.629
 4926SOL     OW15151   3.087   2.187   7.897
 4926SOL    HW115152   3.152   2.113   7.886
 4926SOL    HW215153   3.107   2.237   7.981
 4927SOL     OW15154   3.639   2.204   9.090
 4927SOL    HW115155   3.622   2.235   8.996
 4927SOL    HW215156   3.555   2.167   9.128
 4928SOL     OW15157   3.592   2.796   8.965
 4928SOL    HW115158   3.630   2.887   8.980
 4928SOL    HW215159   3.584   2.779   8.866
 4929SOL     OW15160   2.721   3.236   7.464
 4929SOL    HW115161   2.675   3.251   7.552
 4929SOL    HW215162   2.765   3.321   7.434
 4930SOL     OW15163   2.523   3.652   8.401
 4930SOL    HW115164   2.477   3.740   8.388
 4930SOL    HW215165   2.622   3.664   8.394
 4931SOL     OW15166   2.721   2.818   8.309
 4931SOL    HW115167   2.775   2.749   8.357
 4931SOL    HW215168   2.689   2.887   8.375
 4932SOL     OW15169   2.945   2.846   7.535
 4932SOL    HW115170   2.922   2.899   7.453
 4932SOL    HW215171   3.026   2.790   7.516
 4933SOL     OW15172   3.723   3.431   8.299
 4933SOL    HW115173   3.652   3.419   8.229
 4933SOL    HW215174   3.724   3.352   8.359
 4934SOL     OW15175   2.083   3.176   9.292
 4934SOL    HW115176   2.018   3.103   9.271
 4934SOL    HW215177   2.087   3.190   9.390
 4935SOL     OW15178   1.941   3.102   8.101
 4935SOL    HW115179   1.940   3.055   8.189
 4935SOL    HW215180   2.023   3.074   8.050
 4936SOL     OW15181   2.534   3.253   9.072
 4936SOL    HW115182   2.456   3.203   9.110
 4936SOL    HW215183   2.531   3.348   9.103
 4937SOL     OW15184   3.686   2.054   8.675
 4937SOL    HW115185   3.682   1.964   8.719
 4937SOL    HW215186   3.689   2.043   8.576
 4938SOL     OW15187   3.567   3.349   8.552
 4938SOL    HW115188   3.474   3.324   8.525
 4938SOL    HW215189   3.593   3.299   8.634
 4939SOL     OW15190   2.674   3.448   8.135
 4939SOL    HW115191   2.706   3.458   8.041
 4939SOL    HW215192   2.595   3.386   8.137
 4940SOL     OW15193   3.286   2.076   8.560
 4940SOL    HW115194   3.338   2.011   8.615
 4940SOL    HW215195   3.237   2.139   8.621
 4941SOL     OW15196   2.863   1.896   8.602
 4941SOL    HW115197   2.800   1.824   8.571
 4941SOL    HW215198   2.956   1.860   8.602
 4942SOL     OW15199   2.632   3.192   7.749
 4942SOL    HW115200   2.586   3.105   7.766
 4942SOL    HW215201   2.723   3.189   7.790
 4943SOL     OW15202   2.480   3.429   8.732
 4943SOL    HW115203   2.475   3.511   8.789
 4943SOL    HW215204   2.569   3.426   8.687
 4944SOL     OW15205   3.214   1.914   7.616
 4944SOL    HW115206   3.249   1.873   7.532
 4944SOL    HW215207   3.124   1.876   7.636
 4945SOL     OW15208   3.162   2.315   8.139
 4945SOL    HW115209   3.103   2.395   8.143
 4945SOL    HW215210   3.177   2.280   8.232
 4946SOL     OW15211   3.455   2.083   8.330
 4946SOL    HW115212   3.371   2.082   8.384
 4946SOL    HW215213   3.457   2.166   8.274
 4947SOL     OW15214   1.901   2.939   7.748
 4947SOL    HW115215   2.000   2.928   7.739
 4947SOL    HW215216   1.861   2.853   7.780
 4948SOL     OW15217   2.737   3.508   7.785
 4948SOL    HW115218   2.660   3.473   7.731
 4948SOL    HW215219   2.705   3.579   7.847
 4949SOL     OW15220   2.092   2.490   9.423
 4949SOL    HW115221   1.999   2.488   9.460
 4949SOL    HW215222   2.093   2.451   9.331
 4950SOL     OW15223   3.617   2.469   9.541
 4950SOL    HW115224   3.605   2.456   9.442
 4950SOL    HW215225   3.587   2.388   9.590
 4951SOL     OW15226   2.093   3.575   9.793
 4951SOL    HW115227   2.127   3.652   9.847
 4951SOL    HW215228   2.137   3.575   9.703
 4952SOL     OW15229   2.092   3.296   9.848
 4952SOL    HW115230   2.066   3.392   9.848
 4952SOL    HW215231   2.021   3.242   9.893
 4953SOL     OW15232   2.468   2.826   9.433
 4953SOL    HW115233   2.475   2.910   9.379
 4953SOL    HW215234   2.514   2.839   9.521
 4954SOL     OW15235   1.984   2.505   9.873
 4954SOL    HW115236   1.939   2.417   9.890
 4954SOL    HW215237   1.983   2.559   9.957
 4955SOL     OW15238   3.704   3.629   9.669
 4955SOL    HW115239   3.758   3.600   9.749
 4955SOL    HW215240   3.734   3.719   9.640
 4956SOL     OW15241   1.889   3.458   9.427
 4956SOL    HW115242   1.870   3.362   9.448
 4956SOL    HW215243   1.856   3.516   9.502
 4957SOL     OW15244   3.551   2.784   9.922
 4957SOL    HW115245   3.646   2.755   9.930
 4957SOL    HW215246   3.543   2.849   9.847
 4958SOL     OW15247   3.503   2.970   9.742
 4958SOL    HW115248   3.589   2.972   9.690
 4958SOL    HW215249   3.517   3.017   9.830
 4959SOL     OW15250   2.475   3.227  10.036
 4959SOL    HW115251   2.426   3.140  10.045
 4959SOL    HW215252   2.452   3.270   9.949
 4960SOL     OW15253   2.671   1.866   9.812
 4960SOL    HW115254   2.711   1.957   9.803
 4960SOL    HW215255   2.571   1.874   9.818
 4961SOL     OW15256   3.387   2.861   9.500
 4961SOL    HW115257   3.324   2.785   9.513
 4961SOL    HW215258   3.435   2.879   9.586
 4962SOL     OW15259   3.438   3.524   9.617
 4962SOL    HW115260   3.527   3.570   9.620
 4962SOL    HW215261   3.417   3.500   9.522
 4963SOL     OW15262   2.903   2.563   9.739
 4963SOL    HW115263   2.929   2.559   9.835
 4963SOL    HW215264   2.818   2.512   9.725
 4964SOL     OW15265   1.938   2.673  10.099
 4964SOL    HW115266   2.037   2.661  10.108
 4964SOL    HW215267   1.914   2.768  10.120
 4965SOL     OW15268   2.727   2.210   9.505
 4965SOL    HW115269   2.786   2.273   9.456
 4965SOL    HW215270   2.746   2.116   9.476
 4966SOL     OW15271   3.224   3.006   9.855
 4966SOL    HW115272   3.307   2.977   9.807
 4966SOL    HW215273   3.175   3.073   9.799
 4967SOL     OW15274   2.870   3.318   9.787
 4967SOL    HW115275   2.824   3.390   9.735
 4967SOL    HW215276   2.866   3.338   9.885
 4968SOL     OW15277   2.213   3.663  10.163
 4968SOL    HW115278   2.263   3.577  10.169
 4968SOL    HW215279   2.278   3.740  10.160
 4969SOL     OW15280   2.183   2.805   9.552
 4969SOL    HW115281   2.265   2.844   9.510
 4969SOL    HW215282   2.156   2.723   9.503
 4970SOL     OW15283   2.973   3.638   9.547
 4970SOL    HW115284   2.913   3.576   9.597
 4970SOL    HW215285   3.004   3.594   9.462
 4971SOL     OW15286   3.494   3.239   9.391
 4971SOL    HW115287   3.462   3.333   9.381
 4971SOL    HW215288   3.418   3.176   9.379
 4972SOL     OW15289   2.326   3.605   9.633
 4972SOL    HW115290   2.359   3.644   9.719
 4972SOL    HW215291   2.402   3.598   9.568
 4973SOL     OW15292   3.262   1.969   9.736
 4973SOL    HW115293   3.238   1.932   9.646
 4973SOL    HW215294   3.361   1.985   9.740
 4974SOL     OW15295   2.476   1.984   9.427
 4974SOL    HW115296   2.574   1.962   9.434
 4974SOL    HW215297   2.445   1.967   9.334
 4975SOL     OW15298   2.401   1.926   9.822
 4975SOL    HW115299   2.320   1.927   9.880
 4975SOL    HW215300   2.404   2.009   9.767
 4976SOL     OW15301   3.296   3.050   9.351
 4976SOL    HW115302   3.328   2.974   9.408
 4976SOL    HW215303   3.204   3.077   9.381
 4977SOL     OW15304   2.159   1.897   9.481
 4977SOL    HW115305   2.208   1.981   9.460
 4977SOL    HW215306   2.221   1.832   9.526
 4978SOL     OW15307   2.797   2.098   9.790
 4978SOL    HW115308   2.749   2.139   9.712
 4978SOL    HW215309   2.896   2.096   9.771
 4979SOL     OW15310   2.321   3.014  10.051
 4979SOL    HW115311   2.250   2.987  10.116
 4979SOL    HW215312   2.295   2.986   9.958
 4980SOL     OW15313   3.133   3.659   9.901
 4980SOL    HW115314   3.177   3.723   9.837
 4980SOL    HW215315   3.083   3.711   9.971
 4981SOL     OW15316   2.894   2.411   9.326
 4981SOL    HW115317   2.853   2.493   9.287
 4981SOL    HW215318   2.958   2.437   9.399
 4982SOL     OW15319   2.728   2.316   9.952
 4982SOL    HW115320   2.696   2.388   9.890
 4982SOL    HW215321   2.752   2.235   9.899
 4983SOL     OW15322   3.719   2.695   9.687
 4983SOL    HW115323   3.761   2.631   9.751
 4983SOL    HW215324   3.681   2.644   9.609
 4984SOL     OW15325   2.350   3.247   9.484
 4984SOL    HW115326   2.263   3.232   9.531
 4984SOL    HW215327   2.333   3.273   9.389
 4985SOL     OW15328   3.252   2.437   9.388
 4985SOL    HW115329   3.198   2.416   9.469
 4985SOL    HW215330   3.343   2.396   9.397
 4986SOL     OW15331   2.567   2.912   9.678
 4986SOL    HW115332   2.553   2.919   9.777
 4986SOL    HW215333   2.651   2.861   9.660
 4987SOL     OW15334   2.229   2.962   9.811
 4987SOL    HW115335   2.222   3.045   9.755
 4987SOL    HW215336   2.233   2.882   9.751
 4988SOL     OW15337   3.114   3.210   9.698
 4988SOL    HW115338   3.164   3.287   9.738
 4988SOL    HW215339   3.019   3.212   9.730
 4989SOL     OW15340   3.444   2.501   9.782
 4989SOL    HW115341   3.413   2.562   9.855
 4989SOL    HW215342   3.494   2.553   9.713
 4990SOL     OW15343   3.071   2.387   9.585
 4990SOL    HW115344   3.084   2.303   9.639
 4990SOL    HW215345   3.042   2.461   9.645
 4991SOL     OW15346   2.169   1.925   9.928
 4991SOL    HW115347   2.158   2.019   9.961
 4991SOL    HW215348   2.164   1.862  10.005
 4992SOL     OW15349   3.484   2.229   9.684
 4992SOL    HW115350   3.486   2.153   9.748
 4992SOL    HW215351   3.436   2.306   9.724
 4993SOL     OW15352   3.402   2.136   9.435
 4993SOL    HW115353   3.341   2.061   9.458
 4993SOL    HW215354   3.424   2.188   9.518
 4994SOL     OW15355   3.165   2.700   9.352
 4994SOL    HW115356   3.199   2.607   9.367
 4994SOL    HW215357   3.183   2.727   9.257
 4995SOL     OW15358   1.870   3.188   9.510
 4995SOL    HW115359   1.777   3.209   9.479
 4995SOL    HW215360   1.880   3.089   9.523
 4996SOL     OW15361   2.677   2.434   9.635
 4996SOL    HW115362   2.684   2.345   9.589
 4996SOL    HW215363   2.583   2.468   9.627
 4997SOL     OW15364   3.164   2.717   9.619
 4997SOL    HW115365   3.078   2.686   9.661
 4997SOL    HW215366   3.160   2.703   9.520
 4998SOL     OW15367   3.588   1.997   9.833
 4998SOL    HW115368   3.661   1.980   9.766
 4998SOL    HW215369   3.557   1.910   9.871
 4999SOL     OW15370   3.250   3.435   9.787
 4999SOL    HW115371   3.317   3.447   9.713
 4999SOL    HW215372   3.210   3.524   9.810
 5000SOL     OW15373   2.534   3.478   9.464
 5000SOL    HW115374   2.543   3.488   9.365
 5000SOL    HW215375   2.494   3.389   9.485
 5001SOL     OW15376   3.056   3.474   9.341
 5001SOL    HW115377   3.062   3.381   9.378
 5001SOL    HW215378   2.997   3.474   9.261
 5002SOL     OW15379   2.778   2.772   9.601
 5002SOL    HW115380   2.841   2.810   9.533
 5002SOL    HW215381   2.818   2.689   9.640
 5003SOL     OW15382   3.366   3.469   9.354
 5003SOL    HW115383   3.274   3.506   9.361
 5003SOL    HW215384   3.404   3.489   9.264
 5004SOL     OW15385   2.452   3.349   9.801
 5004SOL    HW115386   2.494   3.291   9.731
 5004SOL    HW215387   2.408   3.428   9.757
 5005SOL     OW15388   2.117   3.210   9.600
 5005SOL    HW115389   2.021   3.211   9.573
 5005SOL    HW215390   2.129   3.263   9.684
 5006SOL     OW15391   1.937   2.207   9.343
 5006SOL    HW115392   1.845   2.179   9.314
 5006SOL    HW215393   1.968   2.284   9.287
 5007SOL     OW15394   1.934   2.028   9.628
 5007SOL    HW115395   1.917   2.111   9.574
 5007SOL    HW215396   2.024   1.991   9.606
 5008SOL     OW15397   3.045   3.197   9.429
 5008SOL    HW115398   2.946   3.186   9.431
 5008SOL    HW215399   3.079   3.212   9.522
 5009SOL     OW15400   3.087   2.187   9.759
 5009SOL    HW115401   3.152   2.113   9.748
 5009SOL    HW215402   3.107   2.237   9.843
 5010SOL     OW15403   2.456   2.607   9.962
 5010SOL    HW115404   2.506   2.692   9.943
 5010SOL    HW215405   2.368   2.609   9.914
 5011SOL     OW15406   2.721   3.236   9.326
 5011SOL    HW115407   2.675   3.251   9.414
 5011SOL    HW215408   2.765   3.321   9.296
 5012SOL     OW15409   2.945   2.846   9.397
 5012SOL    HW115410   2.922   2.899   9.315
 5012SOL    HW215411   3.026   2.790   9.378
 5013SOL     OW15412   1.941   3.102   9.963
 5013SOL    HW115413   1.940   3.055  10.051
 5013SOL    HW215414   2.023   3.074   9.912
 5014SOL     OW15415   2.632   3.192   9.611
 5014SOL    HW115416   2.586   3.105   9.628
 5014SOL    HW215417   2.723   3.189   9.652
 5015SOL     OW15418   3.214   1.914   9.478
 5015SOL    HW115419   3.249   1.873   9.394
 5015SOL    HW215420   3.124   1.876   9.498
 5016SOL     OW15421   1.901   2.939   9.610
 5016SOL    HW115422   2.000   2.928   9.601
 5016SOL    HW215423   1.861   2.853   9.642
 5017SOL     OW15424   2.737   3.508   9.647
 5017SOL    HW115425   2.660   3.473   9.593
 5017SOL    HW215426   2.705   3.579   9.709
 5018SOL     OW15427   2.092   4.352   0.113
 5018SOL    HW115428   1.999   4.350   0.150
 5018SOL    HW215429   2.093   4.313   0.021
 5019SOL     OW15430   2.087   3.999   0.996
 5019SOL    HW115431   2.122   3.982   1.088
 5019SOL    HW215432   1.999   3.954   0.984
 5020SOL     OW15433   1.881   4.092   0.647
 5020SOL    HW115434   1.799   4.135   0.686
 5020SOL    HW215435   1.853   4.019   0.584
 5021SOL     OW15436   2.997   4.427   0.717
 5021SOL    HW115437   3.054   4.505   0.692
 5021SOL    HW215438   2.937   4.453   0.793
 5022SOL     OW15439   3.617   4.331   0.231
 5022SOL    HW115440   3.605   4.318   0.132
 5022SOL    HW215441   3.587   4.250   0.280
 5023SOL     OW15442   2.712   4.522   1.823
 5023SOL    HW115443   2.708   4.598   1.888
 5023SOL    HW215444   2.734   4.558   1.732
 5024SOL     OW15445   2.547   4.736   0.665
 5024SOL    HW115446   2.616   4.720   0.735
 5024SOL    HW215447   2.474   4.793   0.703
 5025SOL     OW15448   2.300   4.116   1.499
 5025SOL    HW115449   2.382   4.060   1.508
 5025SOL    HW215450   2.219   4.058   1.503
 5026SOL     OW15451   3.465   4.171   0.737
 5026SOL    HW115452   3.391   4.217   0.687
 5026SOL    HW215453   3.516   4.239   0.790
 5027SOL     OW15454   3.456   3.838   1.480
 5027SOL    HW115455   3.438   3.905   1.408
 5027SOL    HW215456   3.453   3.884   1.569
 5028SOL     OW15457   1.984   4.367   0.563
 5028SOL    HW115458   1.939   4.279   0.580
 5028SOL    HW215459   1.983   4.421   0.647
 5029SOL     OW15460   1.975   4.461   1.597
 5029SOL    HW115461   2.063   4.448   1.642
 5029SOL    HW215462   1.962   4.558   1.575
 5030SOL     OW15463   2.671   3.728   0.502
 5030SOL    HW115464   2.711   3.819   0.493
 5030SOL    HW215465   2.571   3.736   0.508
 5031SOL     OW15466   2.059   4.700   1.264
 5031SOL    HW115467   2.148   4.655   1.250
 5031SOL    HW215468   1.986   4.635   1.245
 5032SOL     OW15469   3.387   4.723   0.190
 5032SOL    HW115470   3.324   4.647   0.203
 5032SOL    HW215471   3.435   4.741   0.276
 5033SOL     OW15472   2.179   3.975   1.801
 5033SOL    HW115473   2.250   4.046   1.807
 5033SOL    HW215474   2.091   4.014   1.829
 5034SOL     OW15475   2.460   4.453   0.270
 5034SOL    HW115476   2.484   4.522   0.202
 5034SOL    HW215477   2.382   4.486   0.324
 5035SOL     OW15478   3.143   4.069   0.944
 5035SOL    HW115479   3.057   4.019   0.931
 5035SOL    HW215480   3.205   4.015   1.000
 5036SOL     OW15481   2.669   4.329   1.465
 5036SOL    HW115482   2.622   4.326   1.554
 5036SOL    HW215483   2.618   4.274   1.399
 5037SOL     OW15484   3.256   4.193   1.674
 5037SOL    HW115485   3.236   4.236   1.762
 5037SOL    HW215486   3.334   4.131   1.683
 5038SOL     OW15487   2.835   4.614   1.572
 5038SOL    HW115488   2.881   4.530   1.543
 5038SOL    HW215489   2.779   4.648   1.497
 5039SOL     OW15490   2.853   4.134   1.242
 5039SOL    HW115491   2.776   4.168   1.296
 5039SOL    HW215492   2.819   4.083   1.163
 5040SOL     OW15493   2.903   4.425   0.429
 5040SOL    HW115494   2.929   4.421   0.525
 5040SOL    HW215495   2.818   4.374   0.415
 5041SOL     OW15496   1.938   4.535   0.789
 5041SOL    HW115497   2.037   4.523   0.798
 5041SOL    HW215498   1.914   4.630   0.810
 5042SOL     OW15499   2.727   4.072   0.195
 5042SOL    HW115500   2.786   4.135   0.146
 5042SOL    HW215501   2.746   3.978   0.166
 5043SOL     OW15502   3.581   4.309   1.831
 5043SOL    HW115503   3.555   4.398   1.795
 5043SOL    HW215504   3.579   4.241   1.758
 5044SOL     OW15505   2.412   3.920   0.885
 5044SOL    HW115506   2.407   3.915   0.985
 5044SOL    HW215507   2.414   4.016   0.856
 5045SOL     OW15508   3.320   4.459   0.728
 5045SOL    HW115509   3.315   4.394   0.803
 5045SOL    HW215510   3.400   4.518   0.741
 5046SOL     OW15511   2.064   4.009   1.498
 5046SOL    HW115512   1.984   4.069   1.485
 5046SOL    HW215513   2.054   3.960   1.584
 5047SOL     OW15514   3.262   3.831   0.426
 5047SOL    HW115515   3.238   3.794   0.336
 5047SOL    HW215516   3.361   3.847   0.430
 5048SOL     OW15517   2.244   4.424   0.480
 5048SOL    HW115518   2.289   4.334   0.477
 5048SOL    HW215519   2.150   4.413   0.513
 5049SOL     OW15520   3.409   3.946   1.729
 5049SOL    HW115521   3.404   3.983   1.821
 5049SOL    HW215522   3.337   3.877   1.717
 5050SOL     OW15523   2.476   3.846   0.117
 5050SOL    HW115524   2.574   3.824   0.124
 5050SOL    HW215525   2.445   3.829   0.024
 5051SOL     OW15526   2.643   3.988   1.749
 5051SOL    HW115527   2.710   3.927   1.792
 5051SOL    HW215528   2.570   4.007   1.814
 5052SOL     OW15529   3.213   4.314   1.433
 5052SOL    HW115530   3.241   4.271   1.518
 5052SOL    HW215531   3.238   4.410   1.434
 5053SOL     OW15532   2.784   4.227   0.899
 5053SOL    HW115533   2.759   4.218   0.803
 5053SOL    HW215534   2.832   4.145   0.930
 5054SOL     OW15535   2.401   3.788   0.512
 5054SOL    HW115536   2.320   3.789   0.570
 5054SOL    HW215537   2.404   3.871   0.457
 5055SOL     OW15538   2.797   3.960   0.480
 5055SOL    HW115539   2.749   4.001   0.402
 5055SOL    HW215540   2.896   3.958   0.461
 5056SOL     OW15541   2.938   4.407   1.464
 5056SOL    HW115542   2.858   4.346   1.467
 5056SOL    HW215543   3.019   4.354   1.440
 5057SOL     OW15544   2.894   4.273   0.016
 5057SOL    HW115545   2.853   4.355  -0.023
 5057SOL    HW215546   2.958   4.299   0.089
 5058SOL     OW15547   1.940   4.280   1.386
 5058SOL    HW115548   2.032   4.279   1.345
 5058SOL    HW215549   1.934   4.354   1.453
 5059SOL     OW15550   2.423   3.946   1.147
 5059SOL    HW115551   2.461   3.862   1.184
 5059SOL    HW215552   2.335   3.965   1.191
 5060SOL     OW15553   2.728   4.178   0.642
 5060SOL    HW115554   2.696   4.250   0.580
 5060SOL    HW215555   2.752   4.097   0.589
 5061SOL     OW15556   2.879   3.763   0.753
 5061SOL    HW115557   2.807   3.768   0.684
 5061SOL    HW215558   2.855   3.694   0.822
 5062SOL     OW15559   3.328   4.314   0.992
 5062SOL    HW115560   3.298   4.219   0.999
 5062SOL    HW215561   3.401   4.330   1.058
 5063SOL     OW15562   3.719   4.557   0.377
 5063SOL    HW115563   3.761   4.493   0.441
 5063SOL    HW215564   3.681   4.506   0.299
 5064SOL     OW15565   3.252   4.299   0.078
 5064SOL    HW115566   3.198   4.278   0.159
 5064SOL    HW215567   3.343   4.258   0.087
 5065SOL     OW15568   2.389   3.980   0.328
 5065SOL    HW115569   2.416   3.921   0.253
 5065SOL    HW215570   2.389   4.075   0.297
 5066SOL     OW15571   3.500   4.823   1.079
 5066SOL    HW115572   3.505   4.904   1.138
 5066SOL    HW215573   3.414   4.825   1.028
 5067SOL     OW15574   2.777   3.813   1.402
 5067SOL    HW115575   2.802   3.793   1.307
 5067SOL    HW215576   2.849   3.869   1.444
 5068SOL     OW15577   2.272   4.537   1.251
 5068SOL    HW115578   2.358   4.549   1.301
 5068SOL    HW215579   2.230   4.450   1.278
 5069SOL     OW15580   3.136   4.110   1.262
 5069SOL    HW115581   3.157   4.184   1.326
 5069SOL    HW215582   3.047   4.127   1.219
 5070SOL     OW15583   2.428   4.261   0.865
 5070SOL    HW115584   2.440   4.327   0.791
 5070SOL    HW215585   2.474   4.295   0.948
 5071SOL     OW15586   3.444   4.363   0.472
 5071SOL    HW115587   3.413   4.424   0.545
 5071SOL    HW215588   3.494   4.415   0.403
 5072SOL     OW15589   2.264   4.475   1.598
 5072SOL    HW115590   2.332   4.530   1.551
 5072SOL    HW215591   2.304   4.387   1.625
 5073SOL     OW15592   3.449   4.503   1.670
 5073SOL    HW115593   3.357   4.541   1.665
 5073SOL    HW215594   3.509   4.550   1.605
 5074SOL     OW15595   2.875   3.829   1.770
 5074SOL    HW115596   2.881   3.914   1.718
 5074SOL    HW215597   2.907   3.753   1.713
 5075SOL     OW15598   2.366   3.774   1.740
 5075SOL    HW115599   2.324   3.717   1.670
 5075SOL    HW215600   2.300   3.843   1.772
 5076SOL     OW15601   2.435   4.594   1.029
 5076SOL    HW115602   2.479   4.683   1.020
 5076SOL    HW215603   2.372   4.594   1.106
 5077SOL     OW15604   3.222   4.586   1.045
 5077SOL    HW115605   3.147   4.586   0.979
 5077SOL    HW215606   3.259   4.494   1.054
 5078SOL     OW15607   3.071   4.249   0.275
 5078SOL    HW115608   3.084   4.165   0.329
 5078SOL    HW215609   3.042   4.323   0.335
 5079SOL     OW15610   2.169   3.937   1.231
 5079SOL    HW115611   2.146   3.974   1.321
 5079SOL    HW215612   2.139   3.842   1.225
 5080SOL     OW15613   2.594   4.358   1.064
 5080SOL    HW115614   2.653   4.332   0.988
 5080SOL    HW215615   2.566   4.454   1.053
 5081SOL     OW15616   3.590   4.659   1.854
 5081SOL    HW115617   3.544   4.652   1.765
 5081SOL    HW215618   3.528   4.703   1.920
 5082SOL     OW15619   2.169   3.787   0.618
 5082SOL    HW115620   2.158   3.881   0.651
 5082SOL    HW215621   2.164   3.724   0.695
 5083SOL     OW15622   3.484   4.091   0.374
 5083SOL    HW115623   3.486   4.015   0.438
 5083SOL    HW215624   3.436   4.168   0.414
 5084SOL     OW15625   2.885   4.490   0.966
 5084SOL    HW115626   2.900   4.511   1.062
 5084SOL    HW215627   2.855   4.395   0.957
 5085SOL     OW15628   2.212   4.622   1.804
 5085SOL    HW115629   2.288   4.666   1.852
 5085SOL    HW215630   2.247   4.575   1.722
 5086SOL     OW15631   3.402   3.998   0.125
 5086SOL    HW115632   3.341   3.923   0.148
 5086SOL    HW215633   3.424   4.050   0.208
 5087SOL     OW15634   3.165   4.562   0.042
 5087SOL    HW115635   3.199   4.469   0.057
 5087SOL    HW215636   3.183   4.589  -0.053
 5088SOL     OW15637   2.181   4.534   0.949
 5088SOL    HW115638   2.274   4.570   0.954
 5088SOL    HW215639   2.175   4.449   1.001
 5089SOL     OW15640   2.201   4.233   1.006
 5089SOL    HW115641   2.149   4.150   0.989
 5089SOL    HW215642   2.278   4.238   0.942
 5090SOL     OW15643   3.000   4.104   1.678
 5090SOL    HW115644   2.955   4.167   1.742
 5090SOL    HW215645   3.093   4.135   1.661
 5091SOL     OW15646   3.022   3.931   1.477
 5091SOL    HW115647   3.022   3.995   1.554
 5091SOL    HW215648   3.050   3.979   1.394
 5092SOL     OW15649   2.864   4.520   1.238
 5092SOL    HW115650   2.905   4.488   1.324
 5092SOL    HW215651   2.768   4.493   1.235
 5093SOL     OW15652   1.902   4.268   1.114
 5093SOL    HW115653   1.987   4.235   1.073
 5093SOL    HW215654   1.915   4.283   1.212
 5094SOL     OW15655   2.051   4.244   1.722
 5094SOL    HW115656   2.110   4.204   1.652
 5094SOL    HW215657   1.993   4.315   1.681
 5095SOL     OW15658   3.231   4.674   1.660
 5095SOL    HW115659   3.270   4.763   1.680
 5095SOL    HW215660   3.241   4.654   1.563
 5096SOL     OW15661   2.677   4.296   0.325
 5096SOL    HW115662   2.684   4.207   0.279
 5096SOL    HW215663   2.583   4.330   0.317
 5097SOL     OW15664   3.519   4.328   1.206
 5097SOL    HW115665   3.481   4.259   1.268
 5097SOL    HW215666   3.601   4.292   1.162
 5098SOL     OW15667   2.533   4.188   1.269
 5098SOL    HW115668   2.499   4.099   1.239
 5098SOL    HW215669   2.559   4.242   1.189
 5099SOL     OW15670   2.335   4.224   0.191
 5099SOL    HW115671   2.396   4.304   0.195
 5099SOL    HW215672   2.240   4.255   0.198
 5100SOL     OW15673   3.209   4.783   1.234
 5100SOL    HW115674   3.233   4.720   1.160
 5100SOL    HW215675   3.119   4.823   1.216
 5101SOL     OW15676   3.164   4.579   0.309
 5101SOL    HW115677   3.078   4.548   0.351
 5101SOL    HW215678   3.160   4.565   0.210
 5102SOL     OW15679   2.765   3.810   0.133
 5102SOL    HW115680   2.816   3.811   0.047
 5102SOL    HW215681   2.821   3.768   0.204
 5103SOL     OW15682   3.588   3.859   0.523
 5103SOL    HW115683   3.661   3.842   0.456
 5103SOL    HW215684   3.557   3.772   0.561
 5104SOL     OW15685   3.142   4.651   0.672
 5104SOL    HW115686   3.202   4.570   0.674
 5104SOL    HW215687   3.182   4.720   0.612
 5105SOL     OW15688   3.703   3.899   0.963
 5105SOL    HW115689   3.742   3.814   0.927
 5105SOL    HW215690   3.605   3.901   0.944
 5106SOL     OW15691   2.125   4.050   0.720
 5106SOL    HW115692   2.046   4.101   0.686
 5106SOL    HW215693   2.116   4.035   0.818
 5107SOL     OW15694   2.876   3.960   0.971
 5107SOL    HW115695   2.868   3.924   0.878
 5107SOL    HW215696   2.874   3.884   1.036
 5108SOL     OW15697   3.571   4.109   1.381
 5108SOL    HW115698   3.644   4.178   1.385
 5108SOL    HW215699   3.599   4.034   1.322
 5109SOL     OW15700   1.967   4.737   1.726
 5109SOL    HW115701   1.890   4.704   1.780
 5109SOL    HW215702   2.052   4.707   1.768
 5110SOL     OW15703   2.534   3.927   1.489
 5110SOL    HW115704   2.624   3.911   1.449
 5110SOL    HW215705   2.542   3.932   1.588
 5111SOL     OW15706   1.937   4.069   0.033
 5111SOL    HW115707   1.845   4.041   0.004
 5111SOL    HW215708   1.968   4.146  -0.023
 5112SOL     OW15709   3.302   4.580   1.398
 5112SOL    HW115710   3.245   4.632   1.335
 5112SOL    HW215711   3.398   4.592   1.374
 5113SOL     OW15712   1.934   3.890   0.318
 5113SOL    HW115713   1.917   3.973   0.264
 5113SOL    HW215714   2.024   3.853   0.296
 5114SOL     OW15715   2.475   4.566   1.431
 5114SOL    HW115716   2.531   4.647   1.414
 5114SOL    HW215717   2.534   4.486   1.434
 5115SOL     OW15718   2.578   4.289   1.708
 5115SOL    HW115719   2.597   4.354   1.782
 5115SOL    HW215720   2.638   4.209   1.717
 5116SOL     OW15721   3.536   4.607   1.254
 5116SOL    HW115722   3.509   4.518   1.217
 5116SOL    HW215723   3.537   4.675   1.181
 5117SOL     OW15724   3.087   4.049   0.449
 5117SOL    HW115725   3.152   3.975   0.438
 5117SOL    HW215726   3.107   4.099   0.533
 5118SOL     OW15727   2.456   4.469   0.652
 5118SOL    HW115728   2.506   4.554   0.633
 5118SOL    HW215729   2.368   4.471   0.604
 5119SOL     OW15730   3.639   4.066   1.642
 5119SOL    HW115731   3.622   4.097   1.548
 5119SOL    HW215732   3.555   4.029   1.680
 5120SOL     OW15733   3.592   4.658   1.517
 5120SOL    HW115734   3.630   4.749   1.532
 5120SOL    HW215735   3.584   4.641   1.418
 5121SOL     OW15736   3.686   3.916   1.227
 5121SOL    HW115737   3.682   3.826   1.271
 5121SOL    HW215738   3.689   3.905   1.128
 5122SOL     OW15739   2.290   4.148   0.520
 5122SOL    HW115740   2.320   4.076   0.458
 5122SOL    HW215741   2.251   4.108   0.603
 5123SOL     OW15742   2.179   4.271   1.280
 5123SOL    HW115743   2.217   4.212   1.352
 5123SOL    HW215744   2.219   4.245   1.192
 5124SOL     OW15745   3.286   3.938   1.112
 5124SOL    HW115746   3.338   3.873   1.167
 5124SOL    HW215747   3.237   4.001   1.173
 5125SOL     OW15748   2.863   3.758   1.154
 5125SOL    HW115749   2.800   3.686   1.123
 5125SOL    HW215750   2.956   3.722   1.154
 5126SOL     OW15751   3.214   3.776   0.168
 5126SOL    HW115752   3.249   3.735   0.084
 5126SOL    HW215753   3.124   3.738   0.188
 5127SOL     OW15754   3.162   4.177   0.691
 5127SOL    HW115755   3.103   4.257   0.695
 5127SOL    HW215756   3.177   4.142   0.784
 5128SOL     OW15757   3.455   3.945   0.882
 5128SOL    HW115758   3.371   3.944   0.936
 5128SOL    HW215759   3.457   4.028   0.826
 5129SOL     OW15760   2.092   4.352   1.975
 5129SOL    HW115761   1.999   4.350   2.012
 5129SOL    HW215762   2.093   4.313   1.883
 5130SOL     OW15763   2.087   3.999   2.858
 5130SOL    HW115764   2.122   3.982   2.950
 5130SOL    HW215765   1.999   3.954   2.846
 5131SOL     OW15766   1.881   4.092   2.509
 5131SOL    HW115767   1.799   4.135   2.548
 5131SOL    HW215768   1.853   4.019   2.446
 5132SOL     OW15769   2.997   4.427   2.579
 5132SOL    HW115770   3.054   4.505   2.554
 5132SOL    HW215771   2.937   4.453   2.655
 5133SOL     OW15772   3.617   4.331   2.093
 5133SOL    HW115773   3.605   4.318   1.994
 5133SOL    HW215774   3.587   4.250   2.142
 5134SOL     OW15775   2.712   4.522   3.685
 5134SOL    HW115776   2.708   4.598   3.750
 5134SOL    HW215777   2.734   4.558   3.594
 5135SOL     OW15778   2.547   4.736   2.527
 5135SOL    HW115779   2.616   4.720   2.597
 5135SOL    HW215780   2.474   4.793   2.565
 5136SOL     OW15781   2.300   4.116   3.361
 5136SOL    HW115782   2.382   4.060   3.370
 5136SOL    HW215783   2.219   4.058   3.365
 5137SOL     OW15784   3.465   4.171   2.599
 5137SOL    HW115785   3.391   4.217   2.549
 5137SOL    HW215786   3.516   4.239   2.652
 5138SOL     OW15787   3.456   3.838   3.342
 5138SOL    HW115788   3.438   3.905   3.270
 5138SOL    HW215789   3.453   3.884   3.431
 5139SOL     OW15790   1.984   4.367   2.425
 5139SOL    HW115791   1.939   4.279   2.442
 5139SOL    HW215792   1.983   4.421   2.509
 5140SOL     OW15793   1.975   4.461   3.459
 5140SOL    HW115794   2.063   4.448   3.504
 5140SOL    HW215795   1.962   4.558   3.437
 5141SOL     OW15796   2.671   3.728   2.364
 5141SOL    HW115797   2.711   3.819   2.355
 5141SOL    HW215798   2.571   3.736   2.370
 5142SOL     OW15799   2.059   4.700   3.126
 5142SOL    HW115800   2.148   4.655   3.112
 5142SOL    HW215801   1.986   4.635   3.107
 5143SOL     OW15802   3.387   4.723   2.052
 5143SOL    HW115803   3.324   4.647   2.065
 5143SOL    HW215804   3.435   4.741   2.138
 5144SOL     OW15805   2.179   3.975   3.663
 5144SOL    HW115806   2.250   4.046   3.669
 5144SOL    HW215807   2.091   4.014   3.691
 5145SOL     OW15808   2.460   4.453   2.132
 5145SOL    HW115809   2.484   4.522   2.064
 5145SOL    HW215810   2.382   4.486   2.186
 5146SOL     OW15811   3.143   4.069   2.806
 5146SOL    HW115812   3.057   4.019   2.793
 5146SOL    HW215813   3.205   4.015   2.862
 5147SOL     OW15814   2.669   4.329   3.327
 5147SOL    HW115815   2.622   4.326   3.416
 5147SOL    HW215816   2.618   4.274   3.261
 5148SOL     OW15817   3.256   4.193   3.536
 5148SOL    HW115818   3.236   4.236   3.624
 5148SOL    HW215819   3.334   4.131   3.545
 5149SOL     OW15820   2.835   4.614   3.434
 5149SOL    HW115821   2.881   4.530   3.405
 5149SOL    HW215822   2.779   4.648   3.359
 5150SOL     OW15823   2.853   4.134   3.104
 5150SOL    HW115824   2.776   4.168   3.158
 5150SOL    HW215825   2.819   4.083   3.025
 5151SOL     OW15826   2.903   4.425   2.291
 5151SOL    HW115827   2.929   4.421   2.387
 5151SOL    HW215828   2.818   4.374   2.277
 5152SOL     OW15829   1.938   4.535   2.651
 5152SOL    HW115830   2.037   4.523   2.660
 5152SOL    HW215831   1.914   4.630   2.672
 5153SOL     OW15832   2.727   4.072   2.057
 5153SOL    HW115833   2.786   4.135   2.008
 5153SOL    HW215834   2.746   3.978   2.028
 5154SOL     OW15835   3.581   4.309   3.693
 5154SOL    HW115836   3.555   4.398   3.657
 5154SOL    HW215837   3.579   4.241   3.620
 5155SOL     OW15838   2.412   3.920   2.747
 5155SOL    HW115839   2.407   3.915   2.847
 5155SOL    HW215840   2.414   4.016   2.718
 5156SOL     OW15841   3.320   4.459   2.590
 5156SOL    HW115842   3.315   4.394   2.665
 5156SOL    HW215843   3.400   4.518   2.603
 5157SOL     OW15844   2.064   4.009   3.360
 5157SOL    HW115845   1.984   4.069   3.347
 5157SOL    HW215846   2.054   3.960   3.446
 5158SOL     OW15847   3.262   3.831   2.288
 5158SOL    HW115848   3.238   3.794   2.198
 5158SOL    HW215849   3.361   3.847   2.292
 5159SOL     OW15850   2.244   4.424   2.342
 5159SOL    HW115851   2.289   4.334   2.339
 5159SOL    HW215852   2.150   4.413   2.375
 5160SOL     OW15853   3.409   3.946   3.591
 5160SOL    HW115854   3.404   3.983   3.683
 5160SOL    HW215855   3.337   3.877   3.579
 5161SOL     OW15856   2.476   3.846   1.979
 5161SOL    HW115857   2.574   3.824   1.986
 5161SOL    HW215858   2.445   3.829   1.886
 5162SOL     OW15859   2.643   3.988   3.611
 5162SOL    HW115860   2.710   3.927   3.654
 5162SOL    HW215861   2.570   4.007   3.676
 5163SOL     OW15862   3.213   4.314   3.295
 5163SOL    HW115863   3.241   4.271   3.380
 5163SOL    HW215864   3.238   4.410   3.296
 5164SOL     OW15865   2.784   4.227   2.761
 5164SOL    HW115866   2.759   4.218   2.665
 5164SOL    HW215867   2.832   4.145   2.792
 5165SOL     OW15868   2.401   3.788   2.374
 5165SOL    HW115869   2.320   3.789   2.432
 5165SOL    HW215870   2.404   3.871   2.319
 5166SOL     OW15871   2.159   3.759   2.033
 5166SOL    HW115872   2.208   3.843   2.012
 5166SOL    HW215873   2.221   3.694   2.078
 5167SOL     OW15874   2.797   3.960   2.342
 5167SOL    HW115875   2.749   4.001   2.264
 5167SOL    HW215876   2.896   3.958   2.323
 5168SOL     OW15877   2.938   4.407   3.326
 5168SOL    HW115878   2.858   4.346   3.329
 5168SOL    HW215879   3.019   4.354   3.302
 5169SOL     OW15880   2.894   4.273   1.878
 5169SOL    HW115881   2.853   4.355   1.839
 5169SOL    HW215882   2.958   4.299   1.951
 5170SOL     OW15883   1.940   4.280   3.248
 5170SOL    HW115884   2.032   4.279   3.207
 5170SOL    HW215885   1.934   4.354   3.315
 5171SOL     OW15886   2.423   3.946   3.009
 5171SOL    HW115887   2.461   3.862   3.046
 5171SOL    HW215888   2.335   3.965   3.053
 5172SOL     OW15889   2.728   4.178   2.504
 5172SOL    HW115890   2.696   4.250   2.442
 5172SOL    HW215891   2.752   4.097   2.451
 5173SOL     OW15892   2.879   3.763   2.615
 5173SOL    HW115893   2.807   3.768   2.546
 5173SOL    HW215894   2.855   3.694   2.684
 5174SOL     OW15895   3.328   4.314   2.854
 5174SOL    HW115896   3.298   4.219   2.861
 5174SOL    HW215897   3.401   4.330   2.920
 5175SOL     OW15898   3.719   4.557   2.239
 5175SOL    HW115899   3.761   4.493   2.303
 5175SOL    HW215900   3.681   4.506   2.161
 5176SOL     OW15901   3.252   4.299   1.940
 5176SOL    HW115902   3.198   4.278   2.021
 5176SOL    HW215903   3.343   4.258   1.949
 5177SOL     OW15904   2.389   3.980   2.190
 5177SOL    HW115905   2.416   3.921   2.115
 5177SOL    HW215906   2.389   4.075   2.159
 5178SOL     OW15907   3.500   4.823   2.941
 5178SOL    HW115908   3.505   4.904   3.000
 5178SOL    HW215909   3.414   4.825   2.890
 5179SOL     OW15910   2.777   3.813   3.264
 5179SOL    HW115911   2.802   3.793   3.169
 5179SOL    HW215912   2.849   3.869   3.306
 5180SOL     OW15913   2.272   4.537   3.113
 5180SOL    HW115914   2.358   4.549   3.163
 5180SOL    HW215915   2.230   4.450   3.140
 5181SOL     OW15916   3.136   4.110   3.124
 5181SOL    HW115917   3.157   4.184   3.188
 5181SOL    HW215918   3.047   4.127   3.081
 5182SOL     OW15919   2.428   4.261   2.727
 5182SOL    HW115920   2.440   4.327   2.653
 5182SOL    HW215921   2.474   4.295   2.810
 5183SOL     OW15922   3.444   4.363   2.334
 5183SOL    HW115923   3.413   4.424   2.407
 5183SOL    HW215924   3.494   4.415   2.265
 5184SOL     OW15925   2.264   4.475   3.460
 5184SOL    HW115926   2.332   4.530   3.413
 5184SOL    HW215927   2.304   4.387   3.487
 5185SOL     OW15928   3.449   4.503   3.532
 5185SOL    HW115929   3.357   4.541   3.527
 5185SOL    HW215930   3.509   4.550   3.467
 5186SOL     OW15931   2.875   3.829   3.632
 5186SOL    HW115932   2.881   3.914   3.580
 5186SOL    HW215933   2.907   3.753   3.575
 5187SOL     OW15934   2.366   3.774   3.602
 5187SOL    HW115935   2.324   3.717   3.532
 5187SOL    HW215936   2.300   3.843   3.634
 5188SOL     OW15937   2.435   4.594   2.891
 5188SOL    HW115938   2.479   4.683   2.882
 5188SOL    HW215939   2.372   4.594   2.968
 5189SOL     OW15940   3.222   4.586   2.907
 5189SOL    HW115941   3.147   4.586   2.841
 5189SOL    HW215942   3.259   4.494   2.916
 5190SOL     OW15943   3.071   4.249   2.137
 5190SOL    HW115944   3.084   4.165   2.191
 5190SOL    HW215945   3.042   4.323   2.197
 5191SOL     OW15946   2.169   3.937   3.093
 5191SOL    HW115947   2.146   3.974   3.183
 5191SOL    HW215948   2.139   3.842   3.087
 5192SOL     OW15949   2.594   4.358   2.926
 5192SOL    HW115950   2.653   4.332   2.850
 5192SOL    HW215951   2.566   4.454   2.915
 5193SOL     OW15952   3.590   4.659   3.716
 5193SOL    HW115953   3.544   4.652   3.627
 5193SOL    HW215954   3.528   4.703   3.782
 5194SOL     OW15955   2.169   3.787   2.480
 5194SOL    HW115956   2.158   3.881   2.513
 5194SOL    HW215957   2.164   3.724   2.557
 5195SOL     OW15958   3.484   4.091   2.236
 5195SOL    HW115959   3.486   4.015   2.300
 5195SOL    HW215960   3.436   4.168   2.276
 5196SOL     OW15961   2.885   4.490   2.828
 5196SOL    HW115962   2.900   4.511   2.924
 5196SOL    HW215963   2.855   4.395   2.819
 5197SOL     OW15964   2.212   4.622   3.666
 5197SOL    HW115965   2.288   4.666   3.714
 5197SOL    HW215966   2.247   4.575   3.584
 5198SOL     OW15967   3.402   3.998   1.987
 5198SOL    HW115968   3.341   3.923   2.010
 5198SOL    HW215969   3.424   4.050   2.070
 5199SOL     OW15970   3.165   4.562   1.904
 5199SOL    HW115971   3.199   4.469   1.919
 5199SOL    HW215972   3.183   4.589   1.809
 5200SOL     OW15973   2.181   4.534   2.811
 5200SOL    HW115974   2.274   4.570   2.816
 5200SOL    HW215975   2.175   4.449   2.863
 5201SOL     OW15976   2.201   4.233   2.868
 5201SOL    HW115977   2.149   4.150   2.851
 5201SOL    HW215978   2.278   4.238   2.804
 5202SOL     OW15979   3.000   4.104   3.540
 5202SOL    HW115980   2.955   4.167   3.604
 5202SOL    HW215981   3.093   4.135   3.523
 5203SOL     OW15982   3.022   3.931   3.339
 5203SOL    HW115983   3.022   3.995   3.416
 5203SOL    HW215984   3.050   3.979   3.256
 5204SOL     OW15985   2.864   4.520   3.100
 5204SOL    HW115986   2.905   4.488   3.186
 5204SOL    HW215987   2.768   4.493   3.097
 5205SOL     OW15988   1.902   4.268   2.976
 5205SOL    HW115989   1.987   4.235   2.935
 5205SOL    HW215990   1.915   4.283   3.074
 5206SOL     OW15991   2.051   4.244   3.584
 5206SOL    HW115992   2.110   4.204   3.514
 5206SOL    HW215993   1.993   4.315   3.543
 5207SOL     OW15994   3.231   4.674   3.522
 5207SOL    HW115995   3.270   4.763   3.542
 5207SOL    HW215996   3.241   4.654   3.425
 5208SOL     OW15997   2.677   4.296   2.187
 5208SOL    HW115998   2.684   4.207   2.141
 5208SOL    HW215999   2.583   4.330   2.179
 5209SOL     OW16000   3.519   4.328   3.068
 5209SOL    HW116001   3.481   4.259   3.130
 5209SOL    HW216002   3.601   4.292   3.024
 5210SOL     OW16003   2.533   4.188   3.131
 5210SOL    HW116004   2.499   4.099   3.101
 5210SOL    HW216005   2.559   4.242   3.051
 5211SOL     OW16006   2.335   4.224   2.053
 5211SOL    HW116007   2.396   4.304   2.057
 5211SOL    HW216008   2.240   4.255   2.060
 5212SOL     OW16009   3.209   4.783   3.096
 5212SOL    HW116010   3.233   4.720   3.022
 5212SOL    HW216011   3.119   4.823   3.078
 5213SOL     OW16012   3.164   4.579   2.171
 5213SOL    HW116013   3.078   4.548   2.213
 5213SOL    HW216014   3.160   4.565   2.072
 5214SOL     OW16015   3.588   3.859   2.385
 5214SOL    HW116016   3.661   3.842   2.318
 5214SOL    HW216017   3.557   3.772   2.423
 5215SOL     OW16018   3.142   4.651   2.534
 5215SOL    HW116019   3.202   4.570   2.536
 5215SOL    HW216020   3.182   4.720   2.474
 5216SOL     OW16021   3.703   3.899   2.825
 5216SOL    HW116022   3.742   3.814   2.789
 5216SOL    HW216023   3.605   3.901   2.806
 5217SOL     OW16024   2.125   4.050   2.582
 5217SOL    HW116025   2.046   4.101   2.548
 5217SOL    HW216026   2.116   4.035   2.680
 5218SOL     OW16027   2.778   4.634   2.153
 5218SOL    HW116028   2.841   4.672   2.085
 5218SOL    HW216029   2.818   4.551   2.192
 5219SOL     OW16030   2.876   3.960   2.833
 5219SOL    HW116031   2.868   3.924   2.740
 5219SOL    HW216032   2.874   3.884   2.898
 5220SOL     OW16033   3.571   4.109   3.243
 5220SOL    HW116034   3.644   4.178   3.247
 5220SOL    HW216035   3.599   4.034   3.184
 5221SOL     OW16036   1.967   4.737   3.588
 5221SOL    HW116037   1.890   4.704   3.642
 5221SOL    HW216038   2.052   4.707   3.630
 5222SOL     OW16039   2.534   3.927   3.351
 5222SOL    HW116040   2.624   3.911   3.311
 5222SOL    HW216041   2.542   3.932   3.450
 5223SOL     OW16042   1.937   4.069   1.895
 5223SOL    HW116043   1.845   4.041   1.866
 5223SOL    HW216044   1.968   4.146   1.839
 5224SOL     OW16045   3.302   4.580   3.260
 5224SOL    HW116046   3.245   4.632   3.197
 5224SOL    HW216047   3.398   4.592   3.236
 5225SOL     OW16048   1.934   3.890   2.180
 5225SOL    HW116049   1.917   3.973   2.126
 5225SOL    HW216050   2.024   3.853   2.158
 5226SOL     OW16051   2.475   4.566   3.293
 5226SOL    HW116052   2.531   4.647   3.276
 5226SOL    HW216053   2.534   4.486   3.296
 5227SOL     OW16054   2.578   4.289   3.570
 5227SOL    HW116055   2.597   4.354   3.644
 5227SOL    HW216056   2.638   4.209   3.579
 5228SOL     OW16057   3.536   4.607   3.116
 5228SOL    HW116058   3.509   4.518   3.079
 5228SOL    HW216059   3.537   4.675   3.043
 5229SOL     OW16060   3.087   4.049   2.311
 5229SOL    HW116061   3.152   3.975   2.300
 5229SOL    HW216062   3.107   4.099   2.395
 5230SOL     OW16063   2.456   4.469   2.514
 5230SOL    HW116064   2.506   4.554   2.495
 5230SOL    HW216065   2.368   4.471   2.466
 5231SOL     OW16066   3.639   4.066   3.504
 5231SOL    HW116067   3.622   4.097   3.410
 5231SOL    HW216068   3.555   4.029   3.542
 5232SOL     OW16069   3.592   4.658   3.379
 5232SOL    HW116070   3.630   4.749   3.394
 5232SOL    HW216071   3.584   4.641   3.280
 5233SOL     OW16072   3.686   3.916   3.089
 5233SOL    HW116073   3.682   3.826   3.133
 5233SOL    HW216074   3.689   3.905   2.990
 5234SOL     OW16075   2.290   4.148   2.382
 5234SOL    HW116076   2.320   4.076   2.320
 5234SOL    HW216077   2.251   4.108   2.465
 5235SOL     OW16078   2.179   4.271   3.142
 5235SOL    HW116079   2.217   4.212   3.214
 5235SOL    HW216080   2.219   4.245   3.054
 5236SOL     OW16081   3.286   3.938   2.974
 5236SOL    HW116082   3.338   3.873   3.029
 5236SOL    HW216083   3.237   4.001   3.035
 5237SOL     OW16084   2.863   3.758   3.016
 5237SOL    HW116085   2.800   3.686   2.985
 5237SOL    HW216086   2.956   3.722   3.016
 5238SOL     OW16087   3.214   3.776   2.030
 5238SOL    HW116088   3.249   3.735   1.946
 5238SOL    HW216089   3.124   3.738   2.050
 5239SOL     OW16090   3.162   4.177   2.553
 5239SOL    HW116091   3.103   4.257   2.557
 5239SOL    HW216092   3.177   4.142   2.646
 5240SOL     OW16093   3.455   3.945   2.744
 5240SOL    HW116094   3.371   3.944   2.798
 5240SOL    HW216095   3.457   4.028   2.688
 5241SOL     OW16096   2.092   4.352   3.837
 5241SOL    HW116097   1.999   4.350   3.874
 5241SOL    HW216098   2.093   4.313   3.745
 5242SOL     OW16099   2.087   3.999   4.720
 5242SOL    HW116100   2.122   3.982   4.812
 5242SOL    HW216101   1.999   3.954   4.708
 5243SOL     OW16102   1.881   4.092   4.371
 5243SOL    HW116103   1.799   4.135   4.410
 5243SOL    HW216104   1.853   4.019   4.308
 5244SOL     OW16105   2.997   4.427   4.441
 5244SOL    HW116106   3.054   4.505   4.416
 5244SOL    HW216107   2.937   4.453   4.517
 5245SOL     OW16108   3.617   4.331   3.955
 5245SOL    HW116109   3.605   4.318   3.856
 5245SOL    HW216110   3.587   4.250   4.004
 5246SOL     OW16111   2.712   4.522   5.547
 5246SOL    HW116112   2.708   4.598   5.612
 5246SOL    HW216113   2.734   4.558   5.456
 5247SOL     OW16114   2.547   4.736   4.389
 5247SOL    HW116115   2.616   4.720   4.459
 5247SOL    HW216116   2.474   4.793   4.427
 5248SOL     OW16117   2.300   4.116   5.223
 5248SOL    HW116118   2.382   4.060   5.232
 5248SOL    HW216119   2.219   4.058   5.227
 5249SOL     OW16120   3.465   4.171   4.461
 5249SOL    HW116121   3.391   4.217   4.411
 5249SOL    HW216122   3.516   4.239   4.514
 5250SOL     OW16123   3.456   3.838   5.204
 5250SOL    HW116124   3.438   3.905   5.132
 5250SOL    HW216125   3.453   3.884   5.293
 5251SOL     OW16126   1.984   4.367   4.287
 5251SOL    HW116127   1.939   4.279   4.304
 5251SOL    HW216128   1.983   4.421   4.371
 5252SOL     OW16129   1.975   4.461   5.321
 5252SOL    HW116130   2.063   4.448   5.366
 5252SOL    HW216131   1.962   4.558   5.299
 5253SOL     OW16132   2.671   3.728   4.226
 5253SOL    HW116133   2.711   3.819   4.217
 5253SOL    HW216134   2.571   3.736   4.232
 5254SOL     OW16135   2.059   4.700   4.988
 5254SOL    HW116136   2.148   4.655   4.974
 5254SOL    HW216137   1.986   4.635   4.969
 5255SOL     OW16138   3.387   4.723   3.914
 5255SOL    HW116139   3.324   4.647   3.927
 5255SOL    HW216140   3.435   4.741   4.000
 5256SOL     OW16141   2.179   3.975   5.525
 5256SOL    HW116142   2.250   4.046   5.531
 5256SOL    HW216143   2.091   4.014   5.553
 5257SOL     OW16144   2.460   4.453   3.994
 5257SOL    HW116145   2.484   4.522   3.926
 5257SOL    HW216146   2.382   4.486   4.048
 5258SOL     OW16147   3.143   4.069   4.668
 5258SOL    HW116148   3.057   4.019   4.655
 5258SOL    HW216149   3.205   4.015   4.724
 5259SOL     OW16150   2.669   4.329   5.189
 5259SOL    HW116151   2.622   4.326   5.278
 5259SOL    HW216152   2.618   4.274   5.123
 5260SOL     OW16153   3.256   4.193   5.398
 5260SOL    HW116154   3.236   4.236   5.486
 5260SOL    HW216155   3.334   4.131   5.407
 5261SOL     OW16156   2.835   4.614   5.296
 5261SOL    HW116157   2.881   4.530   5.267
 5261SOL    HW216158   2.779   4.648   5.221
 5262SOL     OW16159   2.853   4.134   4.966
 5262SOL    HW116160   2.776   4.168   5.020
 5262SOL    HW216161   2.819   4.083   4.887
 5263SOL     OW16162   2.903   4.425   4.153
 5263SOL    HW116163   2.929   4.421   4.249
 5263SOL    HW216164   2.818   4.374   4.139
 5264SOL     OW16165   1.938   4.535   4.513
 5264SOL    HW116166   2.037   4.523   4.522
 5264SOL    HW216167   1.914   4.630   4.534
 5265SOL     OW16168   2.727   4.072   3.919
 5265SOL    HW116169   2.786   4.135   3.870
 5265SOL    HW216170   2.746   3.978   3.890
 5266SOL     OW16171   3.581   4.309   5.555
 5266SOL    HW116172   3.555   4.398   5.519
 5266SOL    HW216173   3.579   4.241   5.482
 5267SOL     OW16174   2.412   3.920   4.609
 5267SOL    HW116175   2.407   3.915   4.709
 5267SOL    HW216176   2.414   4.016   4.580
 5268SOL     OW16177   3.320   4.459   4.452
 5268SOL    HW116178   3.315   4.394   4.527
 5268SOL    HW216179   3.400   4.518   4.465
 5269SOL     OW16180   2.064   4.009   5.222
 5269SOL    HW116181   1.984   4.069   5.209
 5269SOL    HW216182   2.054   3.960   5.308
 5270SOL     OW16183   3.262   3.831   4.150
 5270SOL    HW116184   3.238   3.794   4.060
 5270SOL    HW216185   3.361   3.847   4.154
 5271SOL     OW16186   2.244   4.424   4.204
 5271SOL    HW116187   2.289   4.334   4.201
 5271SOL    HW216188   2.150   4.413   4.237
 5272SOL     OW16189   3.409   3.946   5.453
 5272SOL    HW116190   3.404   3.983   5.545
 5272SOL    HW216191   3.337   3.877   5.441
 5273SOL     OW16192   2.476   3.846   3.841
 5273SOL    HW116193   2.574   3.824   3.848
 5273SOL    HW216194   2.445   3.829   3.748
 5274SOL     OW16195   2.643   3.988   5.473
 5274SOL    HW116196   2.710   3.927   5.516
 5274SOL    HW216197   2.570   4.007   5.538
 5275SOL     OW16198   3.213   4.314   5.157
 5275SOL    HW116199   3.241   4.271   5.242
 5275SOL    HW216200   3.238   4.410   5.158
 5276SOL     OW16201   2.784   4.227   4.623
 5276SOL    HW116202   2.759   4.218   4.527
 5276SOL    HW216203   2.832   4.145   4.654
 5277SOL     OW16204   2.401   3.788   4.236
 5277SOL    HW116205   2.320   3.789   4.294
 5277SOL    HW216206   2.404   3.871   4.181
 5278SOL     OW16207   2.159   3.759   3.895
 5278SOL    HW116208   2.208   3.843   3.874
 5278SOL    HW216209   2.221   3.694   3.940
 5279SOL     OW16210   2.797   3.960   4.204
 5279SOL    HW116211   2.749   4.001   4.126
 5279SOL    HW216212   2.896   3.958   4.185
 5280SOL     OW16213   2.938   4.407   5.188
 5280SOL    HW116214   2.858   4.346   5.191
 5280SOL    HW216215   3.019   4.354   5.164
 5281SOL     OW16216   2.894   4.273   3.740
 5281SOL    HW116217   2.853   4.355   3.701
 5281SOL    HW216218   2.958   4.299   3.813
 5282SOL     OW16219   1.940   4.280   5.110
 5282SOL    HW116220   2.032   4.279   5.069
 5282SOL    HW216221   1.934   4.354   5.177
 5283SOL     OW16222   2.423   3.946   4.871
 5283SOL    HW116223   2.461   3.862   4.908
 5283SOL    HW216224   2.335   3.965   4.915
 5284SOL     OW16225   2.728   4.178   4.366
 5284SOL    HW116226   2.696   4.250   4.304
 5284SOL    HW216227   2.752   4.097   4.313
 5285SOL     OW16228   2.879   3.763   4.477
 5285SOL    HW116229   2.807   3.768   4.408
 5285SOL    HW216230   2.855   3.694   4.546
 5286SOL     OW16231   3.328   4.314   4.716
 5286SOL    HW116232   3.298   4.219   4.723
 5286SOL    HW216233   3.401   4.330   4.782
 5287SOL     OW16234   3.719   4.557   4.101
 5287SOL    HW116235   3.761   4.493   4.165
 5287SOL    HW216236   3.681   4.506   4.023
 5288SOL     OW16237   3.252   4.299   3.802
 5288SOL    HW116238   3.198   4.278   3.883
 5288SOL    HW216239   3.343   4.258   3.811
 5289SOL     OW16240   2.389   3.980   4.052
 5289SOL    HW116241   2.416   3.921   3.977
 5289SOL    HW216242   2.389   4.075   4.021
 5290SOL     OW16243   3.500   4.823   4.803
 5290SOL    HW116244   3.505   4.904   4.862
 5290SOL    HW216245   3.414   4.825   4.752
 5291SOL     OW16246   2.777   3.813   5.126
 5291SOL    HW116247   2.802   3.793   5.031
 5291SOL    HW216248   2.849   3.869   5.168
 5292SOL     OW16249   2.272   4.537   4.975
 5292SOL    HW116250   2.358   4.549   5.025
 5292SOL    HW216251   2.230   4.450   5.002
 5293SOL     OW16252   3.136   4.110   4.986
 5293SOL    HW116253   3.157   4.184   5.050
 5293SOL    HW216254   3.047   4.127   4.943
 5294SOL     OW16255   2.428   4.261   4.589
 5294SOL    HW116256   2.440   4.327   4.515
 5294SOL    HW216257   2.474   4.295   4.672
 5295SOL     OW16258   3.444   4.363   4.196
 5295SOL    HW116259   3.413   4.424   4.269
 5295SOL    HW216260   3.494   4.415   4.127
 5296SOL     OW16261   2.264   4.475   5.322
 5296SOL    HW116262   2.332   4.530   5.275
 5296SOL    HW216263   2.304   4.387   5.349
 5297SOL     OW16264   3.449   4.503   5.394
 5297SOL    HW116265   3.357   4.541   5.389
 5297SOL    HW216266   3.509   4.550   5.329
 5298SOL     OW16267   2.875   3.829   5.494
 5298SOL    HW116268   2.881   3.914   5.442
 5298SOL    HW216269   2.907   3.753   5.437
 5299SOL     OW16270   2.366   3.774   5.464
 5299SOL    HW116271   2.324   3.717   5.394
 5299SOL    HW216272   2.300   3.843   5.496
 5300SOL     OW16273   2.435   4.594   4.753
 5300SOL    HW116274   2.479   4.683   4.744
 5300SOL    HW216275   2.372   4.594   4.830
 5301SOL     OW16276   3.222   4.586   4.769
 5301SOL    HW116277   3.147   4.586   4.703
 5301SOL    HW216278   3.259   4.494   4.778
 5302SOL     OW16279   3.071   4.249   3.999
 5302SOL    HW116280   3.084   4.165   4.053
 5302SOL    HW216281   3.042   4.323   4.059
 5303SOL     OW16282   2.169   3.937   4.955
 5303SOL    HW116283   2.146   3.974   5.045
 5303SOL    HW216284   2.139   3.842   4.949
 5304SOL     OW16285   2.594   4.358   4.788
 5304SOL    HW116286   2.653   4.332   4.712
 5304SOL    HW216287   2.566   4.454   4.777
 5305SOL     OW16288   3.590   4.659   5.578
 5305SOL    HW116289   3.544   4.652   5.489
 5305SOL    HW216290   3.528   4.703   5.644
 5306SOL     OW16291   2.169   3.787   4.342
 5306SOL    HW116292   2.158   3.881   4.375
 5306SOL    HW216293   2.164   3.724   4.419
 5307SOL     OW16294   3.484   4.091   4.098
 5307SOL    HW116295   3.486   4.015   4.162
 5307SOL    HW216296   3.436   4.168   4.138
 5308SOL     OW16297   2.885   4.490   4.690
 5308SOL    HW116298   2.900   4.511   4.786
 5308SOL    HW216299   2.855   4.395   4.681
 5309SOL     OW16300   2.212   4.622   5.528
 5309SOL    HW116301   2.288   4.666   5.576
 5309SOL    HW216302   2.247   4.575   5.446
 5310SOL     OW16303   3.402   3.998   3.849
 5310SOL    HW116304   3.341   3.923   3.872
 5310SOL    HW216305   3.424   4.050   3.932
 5311SOL     OW16306   3.165   4.562   3.766
 5311SOL    HW116307   3.199   4.469   3.781
 5311SOL    HW216308   3.183   4.589   3.671
 5312SOL     OW16309   2.181   4.534   4.673
 5312SOL    HW116310   2.274   4.570   4.678
 5312SOL    HW216311   2.175   4.449   4.725
 5313SOL     OW16312   2.201   4.233   4.730
 5313SOL    HW116313   2.149   4.150   4.713
 5313SOL    HW216314   2.278   4.238   4.666
 5314SOL     OW16315   3.000   4.104   5.402
 5314SOL    HW116316   2.955   4.167   5.466
 5314SOL    HW216317   3.093   4.135   5.385
 5315SOL     OW16318   3.022   3.931   5.201
 5315SOL    HW116319   3.022   3.995   5.278
 5315SOL    HW216320   3.050   3.979   5.118
 5316SOL     OW16321   2.864   4.520   4.962
 5316SOL    HW116322   2.905   4.488   5.048
 5316SOL    HW216323   2.768   4.493   4.959
 5317SOL     OW16324   1.902   4.268   4.838
 5317SOL    HW116325   1.987   4.235   4.797
 5317SOL    HW216326   1.915   4.283   4.936
 5318SOL     OW16327   2.051   4.244   5.446
 5318SOL    HW116328   2.110   4.204   5.376
 5318SOL    HW216329   1.993   4.315   5.405
 5319SOL     OW16330   3.231   4.674   5.384
 5319SOL    HW116331   3.270   4.763   5.404
 5319SOL    HW216332   3.241   4.654   5.287
 5320SOL     OW16333   2.677   4.296   4.049
 5320SOL    HW116334   2.684   4.207   4.003
 5320SOL    HW216335   2.583   4.330   4.041
 5321SOL     OW16336   3.519   4.328   4.930
 5321SOL    HW116337   3.481   4.259   4.992
 5321SOL    HW216338   3.601   4.292   4.886
 5322SOL     OW16339   2.533   4.188   4.993
 5322SOL    HW116340   2.499   4.099   4.963
 5322SOL    HW216341   2.559   4.242   4.913
 5323SOL     OW16342   2.335   4.224   3.915
 5323SOL    HW116343   2.396   4.304   3.919
 5323SOL    HW216344   2.240   4.255   3.922
 5324SOL     OW16345   3.209   4.783   4.958
 5324SOL    HW116346   3.233   4.720   4.884
 5324SOL    HW216347   3.119   4.823   4.940
 5325SOL     OW16348   3.164   4.579   4.033
 5325SOL    HW116349   3.078   4.548   4.075
 5325SOL    HW216350   3.160   4.565   3.934
 5326SOL     OW16351   3.588   3.859   4.247
 5326SOL    HW116352   3.661   3.842   4.180
 5326SOL    HW216353   3.557   3.772   4.285
 5327SOL     OW16354   3.142   4.651   4.396
 5327SOL    HW116355   3.202   4.570   4.398
 5327SOL    HW216356   3.182   4.720   4.336
 5328SOL     OW16357   3.703   3.899   4.687
 5328SOL    HW116358   3.742   3.814   4.651
 5328SOL    HW216359   3.605   3.901   4.668
 5329SOL     OW16360   2.125   4.050   4.444
 5329SOL    HW116361   2.046   4.101   4.410
 5329SOL    HW216362   2.116   4.035   4.542
 5330SOL     OW16363   2.778   4.634   4.015
 5330SOL    HW116364   2.841   4.672   3.947
 5330SOL    HW216365   2.818   4.551   4.054
 5331SOL     OW16366   2.876   3.960   4.695
 5331SOL    HW116367   2.868   3.924   4.602
 5331SOL    HW216368   2.874   3.884   4.760
 5332SOL     OW16369   3.571   4.109   5.105
 5332SOL    HW116370   3.644   4.178   5.109
 5332SOL    HW216371   3.599   4.034   5.046
 5333SOL     OW16372   1.967   4.737   5.450
 5333SOL    HW116373   1.890   4.704   5.504
 5333SOL    HW216374   2.052   4.707   5.492
 5334SOL     OW16375   2.534   3.927   5.213
 5334SOL    HW116376   2.624   3.911   5.173
 5334SOL    HW216377   2.542   3.932   5.312
 5335SOL     OW16378   1.937   4.069   3.757
 5335SOL    HW116379   1.845   4.041   3.728
 5335SOL    HW216380   1.968   4.146   3.701
 5336SOL     OW16381   3.302   4.580   5.122
 5336SOL    HW116382   3.245   4.632   5.059
 5336SOL    HW216383   3.398   4.592   5.098
 5337SOL     OW16384   1.934   3.890   4.042
 5337SOL    HW116385   1.917   3.973   3.988
 5337SOL    HW216386   2.024   3.853   4.020
 5338SOL     OW16387   2.475   4.566   5.155
 5338SOL    HW116388   2.531   4.647   5.138
 5338SOL    HW216389   2.534   4.486   5.158
 5339SOL     OW16390   2.578   4.289   5.432
 5339SOL    HW116391   2.597   4.354   5.506
 5339SOL    HW216392   2.638   4.209   5.441
 5340SOL     OW16393   3.536   4.607   4.978
 5340SOL    HW116394   3.509   4.518   4.941
 5340SOL    HW216395   3.537   4.675   4.905
 5341SOL     OW16396   3.087   4.049   4.173
 5341SOL    HW116397   3.152   3.975   4.162
 5341SOL    HW216398   3.107   4.099   4.257
 5342SOL     OW16399   2.456   4.469   4.376
 5342SOL    HW116400   2.506   4.554   4.357
 5342SOL    HW216401   2.368   4.471   4.328
 5343SOL     OW16402   3.639   4.066   5.366
 5343SOL    HW116403   3.622   4.097   5.272
 5343SOL    HW216404   3.555   4.029   5.404
 5344SOL     OW16405   3.592   4.658   5.241
 5344SOL    HW116406   3.630   4.749   5.256
 5344SOL    HW216407   3.584   4.641   5.142
 5345SOL     OW16408   3.686   3.916   4.951
 5345SOL    HW116409   3.682   3.826   4.995
 5345SOL    HW216410   3.689   3.905   4.852
 5346SOL     OW16411   2.290   4.148   4.244
 5346SOL    HW116412   2.320   4.076   4.182
 5346SOL    HW216413   2.251   4.108   4.327
 5347SOL     OW16414   2.179   4.271   5.004
 5347SOL    HW116415   2.217   4.212   5.076
 5347SOL    HW216416   2.219   4.245   4.916
 5348SOL     OW16417   3.286   3.938   4.836
 5348SOL    HW116418   3.338   3.873   4.891
 5348SOL    HW216419   3.237   4.001   4.897
 5349SOL     OW16420   2.863   3.758   4.878
 5349SOL    HW116421   2.800   3.686   4.847
 5349SOL    HW216422   2.956   3.722   4.878
 5350SOL     OW16423   3.214   3.776   3.892
 5350SOL    HW116424   3.249   3.735   3.808
 5350SOL    HW216425   3.124   3.738   3.912
 5351SOL     OW16426   3.162   4.177   4.415
 5351SOL    HW116427   3.103   4.257   4.419
 5351SOL    HW216428   3.177   4.142   4.508
 5352SOL     OW16429   3.455   3.945   4.606
 5352SOL    HW116430   3.371   3.944   4.660
 5352SOL    HW216431   3.457   4.028   4.550
 5353SOL     OW16432   2.092   4.352   5.699
 5353SOL    HW116433   1.999   4.350   5.736
 5353SOL    HW216434   2.093   4.313   5.607
 5354SOL     OW16435   2.087   3.999   6.582
 5354SOL    HW116436   2.122   3.982   6.674
 5354SOL    HW216437   1.999   3.954   6.570
 5355SOL     OW16438   1.881   4.092   6.233
 5355SOL    HW116439   1.799   4.135   6.272
 5355SOL    HW216440   1.853   4.019   6.170
 5356SOL     OW16441   2.997   4.427   6.303
 5356SOL    HW116442   3.054   4.505   6.278
 5356SOL    HW216443   2.937   4.453   6.379
 5357SOL     OW16444   3.617   4.331   5.817
 5357SOL    HW116445   3.605   4.318   5.718
 5357SOL    HW216446   3.587   4.250   5.866
 5358SOL     OW16447   2.712   4.522   7.409
 5358SOL    HW116448   2.708   4.598   7.474
 5358SOL    HW216449   2.734   4.558   7.318
 5359SOL     OW16450   2.547   4.736   6.251
 5359SOL    HW116451   2.616   4.720   6.321
 5359SOL    HW216452   2.474   4.793   6.289
 5360SOL     OW16453   2.300   4.116   7.085
 5360SOL    HW116454   2.382   4.060   7.094
 5360SOL    HW216455   2.219   4.058   7.089
 5361SOL     OW16456   3.465   4.171   6.323
 5361SOL    HW116457   3.391   4.217   6.273
 5361SOL    HW216458   3.516   4.239   6.376
 5362SOL     OW16459   3.456   3.838   7.066
 5362SOL    HW116460   3.438   3.905   6.994
 5362SOL    HW216461   3.453   3.884   7.155
 5363SOL     OW16462   1.984   4.367   6.149
 5363SOL    HW116463   1.939   4.279   6.166
 5363SOL    HW216464   1.983   4.421   6.233
 5364SOL     OW16465   1.975   4.461   7.183
 5364SOL    HW116466   2.063   4.448   7.228
 5364SOL    HW216467   1.962   4.558   7.161
 5365SOL     OW16468   2.671   3.728   6.088
 5365SOL    HW116469   2.711   3.819   6.079
 5365SOL    HW216470   2.571   3.736   6.094
 5366SOL     OW16471   2.059   4.700   6.850
 5366SOL    HW116472   2.148   4.655   6.836
 5366SOL    HW216473   1.986   4.635   6.831
 5367SOL     OW16474   3.387   4.723   5.776
 5367SOL    HW116475   3.324   4.647   5.789
 5367SOL    HW216476   3.435   4.741   5.862
 5368SOL     OW16477   2.179   3.975   7.387
 5368SOL    HW116478   2.250   4.046   7.393
 5368SOL    HW216479   2.091   4.014   7.415
 5369SOL     OW16480   2.460   4.453   5.856
 5369SOL    HW116481   2.484   4.522   5.788
 5369SOL    HW216482   2.382   4.486   5.910
 5370SOL     OW16483   3.143   4.069   6.530
 5370SOL    HW116484   3.057   4.019   6.517
 5370SOL    HW216485   3.205   4.015   6.586
 5371SOL     OW16486   2.669   4.329   7.051
 5371SOL    HW116487   2.622   4.326   7.140
 5371SOL    HW216488   2.618   4.274   6.985
 5372SOL     OW16489   3.256   4.193   7.260
 5372SOL    HW116490   3.236   4.236   7.348
 5372SOL    HW216491   3.334   4.131   7.269
 5373SOL     OW16492   2.835   4.614   7.158
 5373SOL    HW116493   2.881   4.530   7.129
 5373SOL    HW216494   2.779   4.648   7.083
 5374SOL     OW16495   2.853   4.134   6.828
 5374SOL    HW116496   2.776   4.168   6.882
 5374SOL    HW216497   2.819   4.083   6.749
 5375SOL     OW16498   2.903   4.425   6.015
 5375SOL    HW116499   2.929   4.421   6.111
 5375SOL    HW216500   2.818   4.374   6.001
 5376SOL     OW16501   1.938   4.535   6.375
 5376SOL    HW116502   2.037   4.523   6.384
 5376SOL    HW216503   1.914   4.630   6.396
 5377SOL     OW16504   2.727   4.072   5.781
 5377SOL    HW116505   2.786   4.135   5.732
 5377SOL    HW216506   2.746   3.978   5.752
 5378SOL     OW16507   3.581   4.309   7.417
 5378SOL    HW116508   3.555   4.398   7.381
 5378SOL    HW216509   3.579   4.241   7.344
 5379SOL     OW16510   2.412   3.920   6.471
 5379SOL    HW116511   2.407   3.915   6.571
 5379SOL    HW216512   2.414   4.016   6.442
 5380SOL     OW16513   3.320   4.459   6.314
 5380SOL    HW116514   3.315   4.394   6.389
 5380SOL    HW216515   3.400   4.518   6.327
 5381SOL     OW16516   2.064   4.009   7.084
 5381SOL    HW116517   1.984   4.069   7.071
 5381SOL    HW216518   2.054   3.960   7.170
 5382SOL     OW16519   3.262   3.831   6.012
 5382SOL    HW116520   3.238   3.794   5.922
 5382SOL    HW216521   3.361   3.847   6.016
 5383SOL     OW16522   2.244   4.424   6.066
 5383SOL    HW116523   2.289   4.334   6.063
 5383SOL    HW216524   2.150   4.413   6.099
 5384SOL     OW16525   3.409   3.946   7.315
 5384SOL    HW116526   3.404   3.983   7.407
 5384SOL    HW216527   3.337   3.877   7.303
 5385SOL     OW16528   2.476   3.846   5.703
 5385SOL    HW116529   2.574   3.824   5.710
 5385SOL    HW216530   2.445   3.829   5.610
 5386SOL     OW16531   2.643   3.988   7.335
 5386SOL    HW116532   2.710   3.927   7.378
 5386SOL    HW216533   2.570   4.007   7.400
 5387SOL     OW16534   3.213   4.314   7.019
 5387SOL    HW116535   3.241   4.271   7.104
 5387SOL    HW216536   3.238   4.410   7.020
 5388SOL     OW16537   2.784   4.227   6.485
 5388SOL    HW116538   2.759   4.218   6.389
 5388SOL    HW216539   2.832   4.145   6.516
 5389SOL     OW16540   2.401   3.788   6.098
 5389SOL    HW116541   2.320   3.789   6.156
 5389SOL    HW216542   2.404   3.871   6.043
 5390SOL     OW16543   2.159   3.759   5.757
 5390SOL    HW116544   2.208   3.843   5.736
 5390SOL    HW216545   2.221   3.694   5.802
 5391SOL     OW16546   2.797   3.960   6.066
 5391SOL    HW116547   2.749   4.001   5.988
 5391SOL    HW216548   2.896   3.958   6.047
 5392SOL     OW16549   2.938   4.407   7.050
 5392SOL    HW116550   2.858   4.346   7.053
 5392SOL    HW216551   3.019   4.354   7.026
 5393SOL     OW16552   2.894   4.273   5.602
 5393SOL    HW116553   2.853   4.355   5.563
 5393SOL    HW216554   2.958   4.299   5.675
 5394SOL     OW16555   1.940   4.280   6.972
 5394SOL    HW116556   2.032   4.279   6.931
 5394SOL    HW216557   1.934   4.354   7.039
 5395SOL     OW16558   2.423   3.946   6.733
 5395SOL    HW116559   2.461   3.862   6.770
 5395SOL    HW216560   2.335   3.965   6.777
 5396SOL     OW16561   2.728   4.178   6.228
 5396SOL    HW116562   2.696   4.250   6.166
 5396SOL    HW216563   2.752   4.097   6.175
 5397SOL     OW16564   2.879   3.763   6.339
 5397SOL    HW116565   2.807   3.768   6.270
 5397SOL    HW216566   2.855   3.694   6.408
 5398SOL     OW16567   3.328   4.314   6.578
 5398SOL    HW116568   3.298   4.219   6.585
 5398SOL    HW216569   3.401   4.330   6.644
 5399SOL     OW16570   3.719   4.557   5.963
 5399SOL    HW116571   3.761   4.493   6.027
 5399SOL    HW216572   3.681   4.506   5.885
 5400SOL     OW16573   3.252   4.299   5.664
 5400SOL    HW116574   3.198   4.278   5.745
 5400SOL    HW216575   3.343   4.258   5.673
 5401SOL     OW16576   2.389   3.980   5.914
 5401SOL    HW116577   2.416   3.921   5.839
 5401SOL    HW216578   2.389   4.075   5.883
 5402SOL     OW16579   3.500   4.823   6.665
 5402SOL    HW116580   3.505   4.904   6.724
 5402SOL    HW216581   3.414   4.825   6.614
 5403SOL     OW16582   2.777   3.813   6.988
 5403SOL    HW116583   2.802   3.793   6.893
 5403SOL    HW216584   2.849   3.869   7.030
 5404SOL     OW16585   2.272   4.537   6.837
 5404SOL    HW116586   2.358   4.549   6.887
 5404SOL    HW216587   2.230   4.450   6.864
 5405SOL     OW16588   3.136   4.110   6.848
 5405SOL    HW116589   3.157   4.184   6.912
 5405SOL    HW216590   3.047   4.127   6.805
 5406SOL     OW16591   2.428   4.261   6.451
 5406SOL    HW116592   2.440   4.327   6.377
 5406SOL    HW216593   2.474   4.295   6.534
 5407SOL     OW16594   3.444   4.363   6.058
 5407SOL    HW116595   3.413   4.424   6.131
 5407SOL    HW216596   3.494   4.415   5.989
 5408SOL     OW16597   2.264   4.475   7.184
 5408SOL    HW116598   2.332   4.530   7.137
 5408SOL    HW216599   2.304   4.387   7.211
 5409SOL     OW16600   3.449   4.503   7.256
 5409SOL    HW116601   3.357   4.541   7.251
 5409SOL    HW216602   3.509   4.550   7.191
 5410SOL     OW16603   2.875   3.829   7.356
 5410SOL    HW116604   2.881   3.914   7.304
 5410SOL    HW216605   2.907   3.753   7.299
 5411SOL     OW16606   2.366   3.774   7.326
 5411SOL    HW116607   2.324   3.717   7.256
 5411SOL    HW216608   2.300   3.843   7.358
 5412SOL     OW16609   2.435   4.594   6.615
 5412SOL    HW116610   2.479   4.683   6.606
 5412SOL    HW216611   2.372   4.594   6.692
 5413SOL     OW16612   3.222   4.586   6.631
 5413SOL    HW116613   3.147   4.586   6.565
 5413SOL    HW216614   3.259   4.494   6.640
 5414SOL     OW16615   3.071   4.249   5.861
 5414SOL    HW116616   3.084   4.165   5.915
 5414SOL    HW216617   3.042   4.323   5.921
 5415SOL     OW16618   2.169   3.937   6.817
 5415SOL    HW116619   2.146   3.974   6.907
 5415SOL    HW216620   2.139   3.842   6.811
 5416SOL     OW16621   2.594   4.358   6.650
 5416SOL    HW116622   2.653   4.332   6.574
 5416SOL    HW216623   2.566   4.454   6.639
 5417SOL     OW16624   3.590   4.659   7.440
 5417SOL    HW116625   3.544   4.652   7.351
 5417SOL    HW216626   3.528   4.703   7.506
 5418SOL     OW16627   2.169   3.787   6.204
 5418SOL    HW116628   2.158   3.881   6.237
 5418SOL    HW216629   2.164   3.724   6.281
 5419SOL     OW16630   3.484   4.091   5.960
 5419SOL    HW116631   3.486   4.015   6.024
 5419SOL    HW216632   3.436   4.168   6.000
 5420SOL     OW16633   2.885   4.490   6.552
 5420SOL    HW116634   2.900   4.511   6.648
 5420SOL    HW216635   2.855   4.395   6.543
 5421SOL     OW16636   2.212   4.622   7.390
 5421SOL    HW116637   2.288   4.666   7.438
 5421SOL    HW216638   2.247   4.575   7.308
 5422SOL     OW16639   3.402   3.998   5.711
 5422SOL    HW116640   3.341   3.923   5.734
 5422SOL    HW216641   3.424   4.050   5.794
 5423SOL     OW16642   3.165   4.562   5.628
 5423SOL    HW116643   3.199   4.469   5.643
 5423SOL    HW216644   3.183   4.589   5.533
 5424SOL     OW16645   2.181   4.534   6.535
 5424SOL    HW116646   2.274   4.570   6.540
 5424SOL    HW216647   2.175   4.449   6.587
 5425SOL     OW16648   2.201   4.233   6.592
 5425SOL    HW116649   2.149   4.150   6.575
 5425SOL    HW216650   2.278   4.238   6.528
 5426SOL     OW16651   3.000   4.104   7.264
 5426SOL    HW116652   2.955   4.167   7.328
 5426SOL    HW216653   3.093   4.135   7.247
 5427SOL     OW16654   3.022   3.931   7.063
 5427SOL    HW116655   3.022   3.995   7.140
 5427SOL    HW216656   3.050   3.979   6.980
 5428SOL     OW16657   2.864   4.520   6.824
 5428SOL    HW116658   2.905   4.488   6.910
 5428SOL    HW216659   2.768   4.493   6.821
 5429SOL     OW16660   1.902   4.268   6.700
 5429SOL    HW116661   1.987   4.235   6.659
 5429SOL    HW216662   1.915   4.283   6.798
 5430SOL     OW16663   2.051   4.244   7.308
 5430SOL    HW116664   2.110   4.204   7.238
 5430SOL    HW216665   1.993   4.315   7.267
 5431SOL     OW16666   3.231   4.674   7.246
 5431SOL    HW116667   3.270   4.763   7.266
 5431SOL    HW216668   3.241   4.654   7.149
 5432SOL     OW16669   2.677   4.296   5.911
 5432SOL    HW116670   2.684   4.207   5.865
 5432SOL    HW216671   2.583   4.330   5.903
 5433SOL     OW16672   3.519   4.328   6.792
 5433SOL    HW116673   3.481   4.259   6.854
 5433SOL    HW216674   3.601   4.292   6.748
 5434SOL     OW16675   2.533   4.188   6.855
 5434SOL    HW116676   2.499   4.099   6.825
 5434SOL    HW216677   2.559   4.242   6.775
 5435SOL     OW16678   2.335   4.224   5.777
 5435SOL    HW116679   2.396   4.304   5.781
 5435SOL    HW216680   2.240   4.255   5.784
 5436SOL     OW16681   3.209   4.783   6.820
 5436SOL    HW116682   3.233   4.720   6.746
 5436SOL    HW216683   3.119   4.823   6.802
 5437SOL     OW16684   3.164   4.579   5.895
 5437SOL    HW116685   3.078   4.548   5.937
 5437SOL    HW216686   3.160   4.565   5.796
 5438SOL     OW16687   3.588   3.859   6.109
 5438SOL    HW116688   3.661   3.842   6.042
 5438SOL    HW216689   3.557   3.772   6.147
 5439SOL     OW16690   3.142   4.651   6.258
 5439SOL    HW116691   3.202   4.570   6.260
 5439SOL    HW216692   3.182   4.720   6.198
 5440SOL     OW16693   3.703   3.899   6.549
 5440SOL    HW116694   3.742   3.814   6.513
 5440SOL    HW216695   3.605   3.901   6.530
 5441SOL     OW16696   2.125   4.050   6.306
 5441SOL    HW116697   2.046   4.101   6.272
 5441SOL    HW216698   2.116   4.035   6.404
 5442SOL     OW16699   2.778   4.634   5.877
 5442SOL    HW116700   2.841   4.672   5.809
 5442SOL    HW216701   2.818   4.551   5.916
 5443SOL     OW16702   2.876   3.960   6.557
 5443SOL    HW116703   2.868   3.924   6.464
 5443SOL    HW216704   2.874   3.884   6.622
 5444SOL     OW16705   3.571   4.109   6.967
 5444SOL    HW116706   3.644   4.178   6.971
 5444SOL    HW216707   3.599   4.034   6.908
 5445SOL     OW16708   1.967   4.737   7.312
 5445SOL    HW116709   1.890   4.704   7.366
 5445SOL    HW216710   2.052   4.707   7.354
 5446SOL     OW16711   2.534   3.927   7.075
 5446SOL    HW116712   2.624   3.911   7.035
 5446SOL    HW216713   2.542   3.932   7.174
 5447SOL     OW16714   1.937   4.069   5.619
 5447SOL    HW116715   1.845   4.041   5.590
 5447SOL    HW216716   1.968   4.146   5.563
 5448SOL     OW16717   3.302   4.580   6.984
 5448SOL    HW116718   3.245   4.632   6.921
 5448SOL    HW216719   3.398   4.592   6.960
 5449SOL     OW16720   1.934   3.890   5.904
 5449SOL    HW116721   1.917   3.973   5.850
 5449SOL    HW216722   2.024   3.853   5.882
 5450SOL     OW16723   2.475   4.566   7.017
 5450SOL    HW116724   2.531   4.647   7.000
 5450SOL    HW216725   2.534   4.486   7.020
 5451SOL     OW16726   2.578   4.289   7.294
 5451SOL    HW116727   2.597   4.354   7.368
 5451SOL    HW216728   2.638   4.209   7.303
 5452SOL     OW16729   3.536   4.607   6.840
 5452SOL    HW116730   3.509   4.518   6.803
 5452SOL    HW216731   3.537   4.675   6.767
 5453SOL     OW16732   3.087   4.049   6.035
 5453SOL    HW116733   3.152   3.975   6.024
 5453SOL    HW216734   3.107   4.099   6.119
 5454SOL     OW16735   2.456   4.469   6.238
 5454SOL    HW116736   2.506   4.554   6.219
 5454SOL    HW216737   2.368   4.471   6.190
 5455SOL     OW16738   3.639   4.066   7.228
 5455SOL    HW116739   3.622   4.097   7.134
 5455SOL    HW216740   3.555   4.029   7.266
 5456SOL     OW16741   3.592   4.658   7.103
 5456SOL    HW116742   3.630   4.749   7.118
 5456SOL    HW216743   3.584   4.641   7.004
 5457SOL     OW16744   3.686   3.916   6.813
 5457SOL    HW116745   3.682   3.826   6.857
 5457SOL    HW216746   3.689   3.905   6.714
 5458SOL     OW16747   2.290   4.148   6.106
 5458SOL    HW116748   2.320   4.076   6.044
 5458SOL    HW216749   2.251   4.108   6.189
 5459SOL     OW16750   2.179   4.271   6.866
 5459SOL    HW116751   2.217   4.212   6.938
 5459SOL    HW216752   2.219   4.245   6.778
 5460SOL     OW16753   3.286   3.938   6.698
 5460SOL    HW116754   3.338   3.873   6.753
 5460SOL    HW216755   3.237   4.001   6.759
 5461SOL     OW16756   2.863   3.758   6.740
 5461SOL    HW116757   2.800   3.686   6.709
 5461SOL    HW216758   2.956   3.722   6.740
 5462SOL     OW16759   3.214   3.776   5.754
 5462SOL    HW116760   3.249   3.735   5.670
 5462SOL    HW216761   3.124   3.738   5.774
 5463SOL     OW16762   3.162   4.177   6.277
 5463SOL    HW116763   3.103   4.257   6.281
 5463SOL    HW216764   3.177   4.142   6.370
 5464SOL     OW16765   3.455   3.945   6.468
 5464SOL    HW116766   3.371   3.944   6.522
 5464SOL    HW216767   3.457   4.028   6.412
 5465SOL     OW16768   2.092   4.352   7.561
 5465SOL    HW116769   1.999   4.350   7.598
 5465SOL    HW216770   2.093   4.313   7.469
 5466SOL     OW16771   2.087   3.999   8.444
 5466SOL    HW116772   2.122   3.982   8.536
 5466SOL    HW216773   1.999   3.954   8.432
 5467SOL     OW16774   1.881   4.092   8.095
 5467SOL    HW116775   1.799   4.135   8.134
 5467SOL    HW216776   1.853   4.019   8.032
 5468SOL     OW16777   2.997   4.427   8.165
 5468SOL    HW116778   3.054   4.505   8.140
 5468SOL    HW216779   2.937   4.453   8.241
 5469SOL     OW16780   3.617   4.331   7.679
 5469SOL    HW116781   3.605   4.318   7.580
 5469SOL    HW216782   3.587   4.250   7.728
 5470SOL     OW16783   2.712   4.522   9.271
 5470SOL    HW116784   2.708   4.598   9.336
 5470SOL    HW216785   2.734   4.558   9.180
 5471SOL     OW16786   2.547   4.736   8.113
 5471SOL    HW116787   2.616   4.720   8.183
 5471SOL    HW216788   2.474   4.793   8.151
 5472SOL     OW16789   2.300   4.116   8.947
 5472SOL    HW116790   2.382   4.060   8.956
 5472SOL    HW216791   2.219   4.058   8.951
 5473SOL     OW16792   3.465   4.171   8.185
 5473SOL    HW116793   3.391   4.217   8.135
 5473SOL    HW216794   3.516   4.239   8.238
 5474SOL     OW16795   3.456   3.838   8.928
 5474SOL    HW116796   3.438   3.905   8.856
 5474SOL    HW216797   3.453   3.884   9.017
 5475SOL     OW16798   1.984   4.367   8.011
 5475SOL    HW116799   1.939   4.279   8.028
 5475SOL    HW216800   1.983   4.421   8.095
 5476SOL     OW16801   1.975   4.461   9.045
 5476SOL    HW116802   2.063   4.448   9.090
 5476SOL    HW216803   1.962   4.558   9.023
 5477SOL     OW16804   2.671   3.728   7.950
 5477SOL    HW116805   2.711   3.819   7.941
 5477SOL    HW216806   2.571   3.736   7.956
 5478SOL     OW16807   2.059   4.700   8.712
 5478SOL    HW116808   2.148   4.655   8.698
 5478SOL    HW216809   1.986   4.635   8.693
 5479SOL     OW16810   3.387   4.723   7.638
 5479SOL    HW116811   3.324   4.647   7.651
 5479SOL    HW216812   3.435   4.741   7.724
 5480SOL     OW16813   2.179   3.975   9.249
 5480SOL    HW116814   2.250   4.046   9.255
 5480SOL    HW216815   2.091   4.014   9.277
 5481SOL     OW16816   2.460   4.453   7.718
 5481SOL    HW116817   2.484   4.522   7.650
 5481SOL    HW216818   2.382   4.486   7.772
 5482SOL     OW16819   3.143   4.069   8.392
 5482SOL    HW116820   3.057   4.019   8.379
 5482SOL    HW216821   3.205   4.015   8.448
 5483SOL     OW16822   2.669   4.329   8.913
 5483SOL    HW116823   2.622   4.326   9.002
 5483SOL    HW216824   2.618   4.274   8.847
 5484SOL     OW16825   3.256   4.193   9.122
 5484SOL    HW116826   3.236   4.236   9.210
 5484SOL    HW216827   3.334   4.131   9.131
 5485SOL     OW16828   2.835   4.614   9.020
 5485SOL    HW116829   2.881   4.530   8.991
 5485SOL    HW216830   2.779   4.648   8.945
 5486SOL     OW16831   2.853   4.134   8.690
 5486SOL    HW116832   2.776   4.168   8.744
 5486SOL    HW216833   2.819   4.083   8.611
 5487SOL     OW16834   2.903   4.425   7.877
 5487SOL    HW116835   2.929   4.421   7.973
 5487SOL    HW216836   2.818   4.374   7.863
 5488SOL     OW16837   1.938   4.535   8.237
 5488SOL    HW116838   2.037   4.523   8.246
 5488SOL    HW216839   1.914   4.630   8.258
 5489SOL     OW16840   2.727   4.072   7.643
 5489SOL    HW116841   2.786   4.135   7.594
 5489SOL    HW216842   2.746   3.978   7.614
 5490SOL     OW16843   3.581   4.309   9.279
 5490SOL    HW116844   3.555   4.398   9.243
 5490SOL    HW216845   3.579   4.241   9.206
 5491SOL     OW16846   2.412   3.920   8.333
 5491SOL    HW116847   2.407   3.915   8.433
 5491SOL    HW216848   2.414   4.016   8.304
 5492SOL     OW16849   3.320   4.459   8.176
 5492SOL    HW116850   3.315   4.394   8.251
 5492SOL    HW216851   3.400   4.518   8.189
 5493SOL     OW16852   2.064   4.009   8.946
 5493SOL    HW116853   1.984   4.069   8.933
 5493SOL    HW216854   2.054   3.960   9.032
 5494SOL     OW16855   3.262   3.831   7.874
 5494SOL    HW116856   3.238   3.794   7.784
 5494SOL    HW216857   3.361   3.847   7.878
 5495SOL     OW16858   2.244   4.424   7.928
 5495SOL    HW116859   2.289   4.334   7.925
 5495SOL    HW216860   2.150   4.413   7.961
 5496SOL     OW16861   3.409   3.946   9.177
 5496SOL    HW116862   3.404   3.983   9.269
 5496SOL    HW216863   3.337   3.877   9.165
 5497SOL     OW16864   2.476   3.846   7.565
 5497SOL    HW116865   2.574   3.824   7.572
 5497SOL    HW216866   2.445   3.829   7.472
 5498SOL     OW16867   2.643   3.988   9.197
 5498SOL    HW116868   2.710   3.927   9.240
 5498SOL    HW216869   2.570   4.007   9.262
 5499SOL     OW16870   3.213   4.314   8.881
 5499SOL    HW116871   3.241   4.271   8.966
 5499SOL    HW216872   3.238   4.410   8.882
 5500SOL     OW16873   2.784   4.227   8.347
 5500SOL    HW116874   2.759   4.218   8.251
 5500SOL    HW216875   2.832   4.145   8.378
 5501SOL     OW16876   2.401   3.788   7.960
 5501SOL    HW116877   2.320   3.789   8.018
 5501SOL    HW216878   2.404   3.871   7.905
 5502SOL     OW16879   2.159   3.759   7.619
 5502SOL    HW116880   2.208   3.843   7.598
 5502SOL    HW216881   2.221   3.694   7.664
 5503SOL     OW16882   2.797   3.960   7.928
 5503SOL    HW116883   2.749   4.001   7.850
 5503SOL    HW216884   2.896   3.958   7.909
 5504SOL     OW16885   2.938   4.407   8.912
 5504SOL    HW116886   2.858   4.346   8.915
 5504SOL    HW216887   3.019   4.354   8.888
 5505SOL     OW16888   2.894   4.273   7.464
 5505SOL    HW116889   2.853   4.355   7.425
 5505SOL    HW216890   2.958   4.299   7.537
 5506SOL     OW16891   1.940   4.280   8.834
 5506SOL    HW116892   2.032   4.279   8.793
 5506SOL    HW216893   1.934   4.354   8.901
 5507SOL     OW16894   2.423   3.946   8.595
 5507SOL    HW116895   2.461   3.862   8.632
 5507SOL    HW216896   2.335   3.965   8.639
 5508SOL     OW16897   2.728   4.178   8.090
 5508SOL    HW116898   2.696   4.250   8.028
 5508SOL    HW216899   2.752   4.097   8.037
 5509SOL     OW16900   2.879   3.763   8.201
 5509SOL    HW116901   2.807   3.768   8.132
 5509SOL    HW216902   2.855   3.694   8.270
 5510SOL     OW16903   3.328   4.314   8.440
 5510SOL    HW116904   3.298   4.219   8.447
 5510SOL    HW216905   3.401   4.330   8.506
 5511SOL     OW16906   3.719   4.557   7.825
 5511SOL    HW116907   3.761   4.493   7.889
 5511SOL    HW216908   3.681   4.506   7.747
 5512SOL     OW16909   3.252   4.299   7.526
 5512SOL    HW116910   3.198   4.278   7.607
 5512SOL    HW216911   3.343   4.258   7.535
 5513SOL     OW16912   2.389   3.980   7.776
 5513SOL    HW116913   2.416   3.921   7.701
 5513SOL    HW216914   2.389   4.075   7.745
 5514SOL     OW16915   3.500   4.823   8.527
 5514SOL    HW116916   3.505   4.904   8.586
 5514SOL    HW216917   3.414   4.825   8.476
 5515SOL     OW16918   2.777   3.813   8.850
 5515SOL    HW116919   2.802   3.793   8.755
 5515SOL    HW216920   2.849   3.869   8.892
 5516SOL     OW16921   2.272   4.537   8.699
 5516SOL    HW116922   2.358   4.549   8.749
 5516SOL    HW216923   2.230   4.450   8.726
 5517SOL     OW16924   3.136   4.110   8.710
 5517SOL    HW116925   3.157   4.184   8.774
 5517SOL    HW216926   3.047   4.127   8.667
 5518SOL     OW16927   2.428   4.261   8.313
 5518SOL    HW116928   2.440   4.327   8.239
 5518SOL    HW216929   2.474   4.295   8.396
 5519SOL     OW16930   3.444   4.363   7.920
 5519SOL    HW116931   3.413   4.424   7.993
 5519SOL    HW216932   3.494   4.415   7.851
 5520SOL     OW16933   2.264   4.475   9.046
 5520SOL    HW116934   2.332   4.530   8.999
 5520SOL    HW216935   2.304   4.387   9.073
 5521SOL     OW16936   3.449   4.503   9.118
 5521SOL    HW116937   3.357   4.541   9.113
 5521SOL    HW216938   3.509   4.550   9.053
 5522SOL     OW16939   2.875   3.829   9.218
 5522SOL    HW116940   2.881   3.914   9.166
 5522SOL    HW216941   2.907   3.753   9.161
 5523SOL     OW16942   2.366   3.774   9.188
 5523SOL    HW116943   2.324   3.717   9.118
 5523SOL    HW216944   2.300   3.843   9.220
 5524SOL     OW16945   2.435   4.594   8.477
 5524SOL    HW116946   2.479   4.683   8.468
 5524SOL    HW216947   2.372   4.594   8.554
 5525SOL     OW16948   3.222   4.586   8.493
 5525SOL    HW116949   3.147   4.586   8.427
 5525SOL    HW216950   3.259   4.494   8.502
 5526SOL     OW16951   3.071   4.249   7.723
 5526SOL    HW116952   3.084   4.165   7.777
 5526SOL    HW216953   3.042   4.323   7.783
 5527SOL     OW16954   2.169   3.937   8.679
 5527SOL    HW116955   2.146   3.974   8.769
 5527SOL    HW216956   2.139   3.842   8.673
 5528SOL     OW16957   2.594   4.358   8.512
 5528SOL    HW116958   2.653   4.332   8.436
 5528SOL    HW216959   2.566   4.454   8.501
 5529SOL     OW16960   3.590   4.659   9.302
 5529SOL    HW116961   3.544   4.652   9.213
 5529SOL    HW216962   3.528   4.703   9.368
 5530SOL     OW16963   2.169   3.787   8.066
 5530SOL    HW116964   2.158   3.881   8.099
 5530SOL    HW216965   2.164   3.724   8.143
 5531SOL     OW16966   3.484   4.091   7.822
 5531SOL    HW116967   3.486   4.015   7.886
 5531SOL    HW216968   3.436   4.168   7.862
 5532SOL     OW16969   2.885   4.490   8.414
 5532SOL    HW116970   2.900   4.511   8.510
 5532SOL    HW216971   2.855   4.395   8.405
 5533SOL     OW16972   2.212   4.622   9.252
 5533SOL    HW116973   2.288   4.666   9.300
 5533SOL    HW216974   2.247   4.575   9.170
 5534SOL     OW16975   3.402   3.998   7.573
 5534SOL    HW116976   3.341   3.923   7.596
 5534SOL    HW216977   3.424   4.050   7.656
 5535SOL     OW16978   3.165   4.562   7.490
 5535SOL    HW116979   3.199   4.469   7.505
 5535SOL    HW216980   3.183   4.589   7.395
 5536SOL     OW16981   2.181   4.534   8.397
 5536SOL    HW116982   2.274   4.570   8.402
 5536SOL    HW216983   2.175   4.449   8.449
 5537SOL     OW16984   2.201   4.233   8.454
 5537SOL    HW116985   2.149   4.150   8.437
 5537SOL    HW216986   2.278   4.238   8.390
 5538SOL     OW16987   3.000   4.104   9.126
 5538SOL    HW116988   2.955   4.167   9.190
 5538SOL    HW216989   3.093   4.135   9.109
 5539SOL     OW16990   3.022   3.931   8.925
 5539SOL    HW116991   3.022   3.995   9.002
 5539SOL    HW216992   3.050   3.979   8.842
 5540SOL     OW16993   2.864   4.520   8.686
 5540SOL    HW116994   2.905   4.488   8.772
 5540SOL    HW216995   2.768   4.493   8.683
 5541SOL     OW16996   1.902   4.268   8.562
 5541SOL    HW116997   1.987   4.235   8.521
 5541SOL    HW216998   1.915   4.283   8.660
 5542SOL     OW16999   2.051   4.244   9.170
 5542SOL    HW117000   2.110   4.204   9.100
 5542SOL    HW217001   1.993   4.315   9.129
 5543SOL     OW17002   3.231   4.674   9.108
 5543SOL    HW117003   3.270   4.763   9.128
 5543SOL    HW217004   3.241   4.654   9.011
 5544SOL     OW17005   2.677   4.296   7.773
 5544SOL    HW117006   2.684   4.207   7.727
 5544SOL    HW217007   2.583   4.330   7.765
 5545SOL     OW17008   3.519   4.328   8.654
 5545SOL    HW117009   3.481   4.259   8.716
 5545SOL    HW217010   3.601   4.292   8.610
 5546SOL     OW17011   2.533   4.188   8.717
 5546SOL    HW117012   2.499   4.099   8.687
 5546SOL    HW217013   2.559   4.242   8.637
 5547SOL     OW17014   2.335   4.224   7.639
 5547SOL    HW117015   2.396   4.304   7.643
 5547SOL    HW217016   2.240   4.255   7.646
 5548SOL     OW17017   3.209   4.783   8.682
 5548SOL    HW117018   3.233   4.720   8.608
 5548SOL    HW217019   3.119   4.823   8.664
 5549SOL     OW17020   3.164   4.579   7.757
 5549SOL    HW117021   3.078   4.548   7.799
 5549SOL    HW217022   3.160   4.565   7.658
 5550SOL     OW17023   3.588   3.859   7.971
 5550SOL    HW117024   3.661   3.842   7.904
 5550SOL    HW217025   3.557   3.772   8.009
 5551SOL     OW17026   3.142   4.651   8.120
 5551SOL    HW117027   3.202   4.570   8.122
 5551SOL    HW217028   3.182   4.720   8.060
 5552SOL     OW17029   3.703   3.899   8.411
 5552SOL    HW117030   3.742   3.814   8.375
 5552SOL    HW217031   3.605   3.901   8.392
 5553SOL     OW17032   2.125   4.050   8.168
 5553SOL    HW117033   2.046   4.101   8.134
 5553SOL    HW217034   2.116   4.035   8.266
 5554SOL     OW17035   2.778   4.634   7.739
 5554SOL    HW117036   2.841   4.672   7.671
 5554SOL    HW217037   2.818   4.551   7.778
 5555SOL     OW17038   2.876   3.960   8.419
 5555SOL    HW117039   2.868   3.924   8.326
 5555SOL    HW217040   2.874   3.884   8.484
 5556SOL     OW17041   3.571   4.109   8.829
 5556SOL    HW117042   3.644   4.178   8.833
 5556SOL    HW217043   3.599   4.034   8.770
 5557SOL     OW17044   1.967   4.737   9.174
 5557SOL    HW117045   1.890   4.704   9.228
 5557SOL    HW217046   2.052   4.707   9.216
 5558SOL     OW17047   2.534   3.927   8.937
 5558SOL    HW117048   2.624   3.911   8.897
 5558SOL    HW217049   2.542   3.932   9.036
 5559SOL     OW17050   1.937   4.069   7.481
 5559SOL    HW117051   1.845   4.041   7.452
 5559SOL    HW217052   1.968   4.146   7.425
 5560SOL     OW17053   3.302   4.580   8.846
 5560SOL    HW117054   3.245   4.632   8.783
 5560SOL    HW217055   3.398   4.592   8.822
 5561SOL     OW17056   1.934   3.890   7.766
 5561SOL    HW117057   1.917   3.973   7.712
 5561SOL    HW217058   2.024   3.853   7.744
 5562SOL     OW17059   2.475   4.566   8.879
 5562SOL    HW117060   2.531   4.647   8.862
 5562SOL    HW217061   2.534   4.486   8.882
 5563SOL     OW17062   2.578   4.289   9.156
 5563SOL    HW117063   2.597   4.354   9.230
 5563SOL    HW217064   2.638   4.209   9.165
 5564SOL     OW17065   3.536   4.607   8.702
 5564SOL    HW117066   3.509   4.518   8.665
 5564SOL    HW217067   3.537   4.675   8.629
 5565SOL     OW17068   3.087   4.049   7.897
 5565SOL    HW117069   3.152   3.975   7.886
 5565SOL    HW217070   3.107   4.099   7.981
 5566SOL     OW17071   2.456   4.469   8.100
 5566SOL    HW117072   2.506   4.554   8.081
 5566SOL    HW217073   2.368   4.471   8.052
 5567SOL     OW17074   3.639   4.066   9.090
 5567SOL    HW117075   3.622   4.097   8.996
 5567SOL    HW217076   3.555   4.029   9.128
 5568SOL     OW17077   3.592   4.658   8.965
 5568SOL    HW117078   3.630   4.749   8.980
 5568SOL    HW217079   3.584   4.641   8.866
 5569SOL     OW17080   3.686   3.916   8.675
 5569SOL    HW117081   3.682   3.826   8.719
 5569SOL    HW217082   3.689   3.905   8.576
 5570SOL     OW17083   2.290   4.148   7.968
 5570SOL    HW117084   2.320   4.076   7.906
 5570SOL    HW217085   2.251   4.108   8.051
 5571SOL     OW17086   2.179   4.271   8.728
 5571SOL    HW117087   2.217   4.212   8.800
 5571SOL    HW217088   2.219   4.245   8.640
 5572SOL     OW17089   3.286   3.938   8.560
 5572SOL    HW117090   3.338   3.873   8.615
 5572SOL    HW217091   3.237   4.001   8.621
 5573SOL     OW17092   2.863   3.758   8.602
 5573SOL    HW117093   2.800   3.686   8.571
 5573SOL    HW217094   2.956   3.722   8.602
 5574SOL     OW17095   3.214   3.776   7.616
 5574SOL    HW117096   3.249   3.735   7.532
 5574SOL    HW217097   3.124   3.738   7.636
 5575SOL     OW17098   3.162   4.177   8.139
 5575SOL    HW117099   3.103   4.257   8.143
 5575SOL    HW217100   3.177   4.142   8.232
 5576SOL     OW17101   3.455   3.945   8.330
 5576SOL    HW117102   3.371   3.944   8.384
 5576SOL    HW217103   3.457   4.028   8.274
 5577SOL     OW17104   2.092   4.352   9.423
 5577SOL    HW117105   1.999   4.350   9.460
 5577SOL    HW217106   2.093   4.313   9.331
 5578SOL     OW17107   3.617   4.331   9.541
 5578SOL    HW117108   3.605   4.318   9.442
 5578SOL    HW217109   3.587   4.250   9.590
 5579SOL     OW17110   1.984   4.367   9.873
 5579SOL    HW117111   1.939   4.279   9.890
 5579SOL    HW217112   1.983   4.421   9.957
 5580SOL     OW17113   2.671   3.728   9.812
 5580SOL    HW117114   2.711   3.819   9.803
 5580SOL    HW217115   2.571   3.736   9.818
 5581SOL     OW17116   3.387   4.723   9.500
 5581SOL    HW117117   3.324   4.647   9.513
 5581SOL    HW217118   3.435   4.741   9.586
 5582SOL     OW17119   2.460   4.453   9.580
 5582SOL    HW117120   2.484   4.522   9.512
 5582SOL    HW217121   2.382   4.486   9.634
 5583SOL     OW17122   2.903   4.425   9.739
 5583SOL    HW117123   2.929   4.421   9.835
 5583SOL    HW217124   2.818   4.374   9.725
 5584SOL     OW17125   1.938   4.535  10.099
 5584SOL    HW117126   2.037   4.523  10.108
 5584SOL    HW217127   1.914   4.630  10.120
 5585SOL     OW17128   2.727   4.072   9.505
 5585SOL    HW117129   2.786   4.135   9.456
 5585SOL    HW217130   2.746   3.978   9.476
 5586SOL     OW17131   3.262   3.831   9.736
 5586SOL    HW117132   3.238   3.794   9.646
 5586SOL    HW217133   3.361   3.847   9.740
 5587SOL     OW17134   2.244   4.424   9.790
 5587SOL    HW117135   2.289   4.334   9.787
 5587SOL    HW217136   2.150   4.413   9.823
 5588SOL     OW17137   2.476   3.846   9.427
 5588SOL    HW117138   2.574   3.824   9.434
 5588SOL    HW217139   2.445   3.829   9.334
 5589SOL     OW17140   2.401   3.788   9.822
 5589SOL    HW117141   2.320   3.789   9.880
 5589SOL    HW217142   2.404   3.871   9.767
 5590SOL     OW17143   2.159   3.759   9.481
 5590SOL    HW117144   2.208   3.843   9.460
 5590SOL    HW217145   2.221   3.694   9.526
 5591SOL     OW17146   2.797   3.960   9.790
 5591SOL    HW117147   2.749   4.001   9.712
 5591SOL    HW217148   2.896   3.958   9.771
 5592SOL     OW17149   2.894   4.273   9.326
 5592SOL    HW117150   2.853   4.355   9.287
 5592SOL    HW217151   2.958   4.299   9.399
 5593SOL     OW17152   2.728   4.178   9.952
 5593SOL    HW117153   2.696   4.250   9.890
 5593SOL    HW217154   2.752   4.097   9.899
 5594SOL     OW17155   3.719   4.557   9.687
 5594SOL    HW117156   3.761   4.493   9.751
 5594SOL    HW217157   3.681   4.506   9.609
 5595SOL     OW17158   3.252   4.299   9.388
 5595SOL    HW117159   3.198   4.278   9.469
 5595SOL    HW217160   3.343   4.258   9.397
 5596SOL     OW17161   2.389   3.980   9.638
 5596SOL    HW117162   2.416   3.921   9.563
 5596SOL    HW217163   2.389   4.075   9.607
 5597SOL     OW17164   3.444   4.363   9.782
 5597SOL    HW117165   3.413   4.424   9.855
 5597SOL    HW217166   3.494   4.415   9.713
 5598SOL     OW17167   3.071   4.249   9.585
 5598SOL    HW117168   3.084   4.165   9.639
 5598SOL    HW217169   3.042   4.323   9.645
 5599SOL     OW17170   2.169   3.787   9.928
 5599SOL    HW117171   2.158   3.881   9.961
 5599SOL    HW217172   2.164   3.724  10.005
 5600SOL     OW17173   3.484   4.091   9.684
 5600SOL    HW117174   3.486   4.015   9.748
 5600SOL    HW217175   3.436   4.168   9.724
 5601SOL     OW17176   3.402   3.998   9.435
 5601SOL    HW117177   3.341   3.923   9.458
 5601SOL    HW217178   3.424   4.050   9.518
 5602SOL     OW17179   3.165   4.562   9.352
 5602SOL    HW117180   3.199   4.469   9.367
 5602SOL    HW217181   3.183   4.589   9.257
 5603SOL     OW17182   2.930   5.057  10.159
 5603SOL    HW117183   2.937   4.973  10.104
 5603SOL    HW217184   2.992   5.126  10.123
 5604SOL     OW17185   2.181   4.534  10.259
 5604SOL    HW117186   2.274   4.570  10.264
 5604SOL    HW217187   2.175   4.449  10.311
 5605SOL     OW17188   2.677   4.296   9.635
 5605SOL    HW117189   2.684   4.207   9.589
 5605SOL    HW217190   2.583   4.330   9.627
 5606SOL     OW17191   2.335   4.224   9.501
 5606SOL    HW117192   2.396   4.304   9.505
 5606SOL    HW217193   2.240   4.255   9.508
 5607SOL     OW17194   3.164   4.579   9.619
 5607SOL    HW117195   3.078   4.548   9.661
 5607SOL    HW217196   3.160   4.565   9.520
 5608SOL     OW17197   3.588   3.859   9.833
 5608SOL    HW117198   3.661   3.842   9.766
 5608SOL    HW217199   3.557   3.772   9.871
 5609SOL     OW17200   2.778   4.634   9.601
 5609SOL    HW117201   2.841   4.672   9.533
 5609SOL    HW217202   2.818   4.551   9.640
 5610SOL     OW17203   1.937   4.069   9.343
 5610SOL    HW117204   1.845   4.041   9.314
 5610SOL    HW217205   1.968   4.146   9.287
 5611SOL     OW17206   1.934   3.890   9.628
 5611SOL    HW117207   1.917   3.973   9.574
 5611SOL    HW217208   2.024   3.853   9.606
 5612SOL     OW17209   3.087   4.049   9.759
 5612SOL    HW117210   3.152   3.975   9.748
 5612SOL    HW217211   3.107   4.099   9.843
 5613SOL     OW17212   2.456   4.469   9.962
 5613SOL    HW117213   2.506   4.554   9.943
 5613SOL    HW217214   2.368   4.471   9.914
 5614SOL     OW17215   2.290   4.148   9.830
 5614SOL    HW117216   2.320   4.076   9.768
 5614SOL    HW217217   2.251   4.108   9.913
 5615SOL     OW17218   3.214   3.776   9.478
 5615SOL    HW117219   3.249   3.735   9.394
 5615SOL    HW217220   3.124   3.738   9.498
 5616SOL     OW17221   3.954   0.628   0.113
 5616SOL    HW117222   3.861   0.626   0.150
 5616SOL    HW217223   3.955   0.589   0.021
 5617SOL     OW17224   3.949   0.275   0.996
 5617SOL    HW117225   3.984   0.258   1.088
 5617SOL    HW217226   3.861   0.230   0.984
 5618SOL     OW17227   3.743   0.368   0.647
 5618SOL    HW117228   3.661   0.411   0.686
 5618SOL    HW217229   3.715   0.295   0.584
 5619SOL     OW17230   4.293   1.275   1.165
 5619SOL    HW117231   4.200   1.268   1.128
 5619SOL    HW217232   4.304   1.364   1.209
 5620SOL     OW17233   4.492   1.144   1.023
 5620SOL    HW117234   4.414   1.161   1.083
 5620SOL    HW217235   4.526   1.231   0.987
 5621SOL     OW17236   4.574   0.798   1.823
 5621SOL    HW117237   4.570   0.874   1.888
 5621SOL    HW217238   4.596   0.834   1.732
 5622SOL     OW17239   4.409   1.012   0.665
 5622SOL    HW117240   4.478   0.996   0.735
 5622SOL    HW217241   4.336   1.069   0.703
 5623SOL     OW17242   4.410   1.161   1.803
 5623SOL    HW117243   4.470   1.240   1.817
 5623SOL    HW217244   4.324   1.192   1.762
 5624SOL     OW17245   4.059   1.435   1.061
 5624SOL    HW117246   3.981   1.404   1.008
 5624SOL    HW217247   4.117   1.493   1.004
 5625SOL     OW17248   4.162   0.392   1.499
 5625SOL    HW117249   4.244   0.336   1.508
 5625SOL    HW217250   4.081   0.334   1.503
 5626SOL     OW17251   3.955   1.713   0.483
 5626SOL    HW117252   3.989   1.790   0.537
 5626SOL    HW217253   3.999   1.713   0.393
 5627SOL     OW17254   3.954   1.434   0.538
 5627SOL    HW117255   3.928   1.530   0.538
 5627SOL    HW217256   3.883   1.380   0.583
 5628SOL     OW17257   3.964   1.091   0.886
 5628SOL    HW117258   3.978   1.007   0.938
 5628SOL    HW217259   3.909   1.155   0.941
 5629SOL     OW17260   4.344   1.786   1.439
 5629SOL    HW117261   4.252   1.769   1.474
 5629SOL    HW217262   4.372   1.878   1.465
 5630SOL     OW17263   4.330   0.964   0.123
 5630SOL    HW117264   4.337   1.048   0.069
 5630SOL    HW217265   4.376   0.977   0.211
 5631SOL     OW17266   3.846   0.643   0.563
 5631SOL    HW117267   3.801   0.555   0.580
 5631SOL    HW217268   3.845   0.697   0.647
 5632SOL     OW17269   3.751   1.596   0.117
 5632SOL    HW117270   3.732   1.500   0.138
 5632SOL    HW217271   3.718   1.654   0.192
 5633SOL     OW17272   3.837   0.737   1.597
 5633SOL    HW117273   3.925   0.724   1.642
 5633SOL    HW217274   3.824   0.834   1.575
 5634SOL     OW17275   4.337   1.365   0.726
 5634SOL    HW117276   4.288   1.278   0.735
 5634SOL    HW217277   4.314   1.408   0.639
 5635SOL     OW17278   4.533   0.004   0.502
 5635SOL    HW117279   4.573   0.095   0.493
 5635SOL    HW217280   4.433   0.012   0.508
 5636SOL     OW17281   3.921   0.976   1.264
 5636SOL    HW117282   4.010   0.931   1.250
 5636SOL    HW217283   3.848   0.911   1.245
 5637SOL     OW17284   4.041   0.251   1.801
 5637SOL    HW117285   4.112   0.322   1.807
 5637SOL    HW217286   3.953   0.290   1.829
 5638SOL     OW17287   4.322   0.729   0.270
 5638SOL    HW117288   4.346   0.798   0.202
 5638SOL    HW217289   4.244   0.762   0.324
 5639SOL     OW17290   4.531   0.605   1.465
 5639SOL    HW117291   4.484   0.602   1.554
 5639SOL    HW217292   4.480   0.550   1.399
 5640SOL     OW17293   3.800   0.811   0.789
 5640SOL    HW117294   3.899   0.799   0.798
 5640SOL    HW217295   3.776   0.906   0.810
 5641SOL     OW17296   3.854   1.821   1.571
 5641SOL    HW117297   3.844   1.806   1.670
 5641SOL    HW217298   3.768   1.857   1.535
 5642SOL     OW17299   4.589   0.348   0.195
 5642SOL    HW117300   4.648   0.411   0.146
 5642SOL    HW217301   4.608   0.254   0.166
 5643SOL     OW17302   4.274   0.196   0.885
 5643SOL    HW117303   4.269   0.191   0.985
 5643SOL    HW217304   4.276   0.292   0.856
 5644SOL     OW17305   4.732   1.456   0.477
 5644SOL    HW117306   4.686   1.528   0.425
 5644SOL    HW217307   4.728   1.476   0.575
 5645SOL     OW17308   4.075   1.801   0.853
 5645SOL    HW117309   4.125   1.715   0.859
 5645SOL    HW217310   4.140   1.878   0.850
 5646SOL     OW17311   4.045   0.943   0.242
 5646SOL    HW117312   4.127   0.982   0.200
 5646SOL    HW217313   4.018   0.861   0.193
 5647SOL     OW17314   4.185   1.266   1.727
 5647SOL    HW117315   4.135   1.267   1.641
 5647SOL    HW217316   4.122   1.248   1.803
 5648SOL     OW17317   3.926   0.285   1.498
 5648SOL    HW117318   3.846   0.345   1.485
 5648SOL    HW217319   3.916   0.236   1.584
 5649SOL     OW17320   4.188   1.743   0.323
 5649SOL    HW117321   4.221   1.782   0.409
 5649SOL    HW217322   4.264   1.736   0.258
 5650SOL     OW17323   3.973   1.785   1.241
 5650SOL    HW117324   4.030   1.720   1.291
 5650SOL    HW217325   3.957   1.752   1.148
 5651SOL     OW17326   4.106   0.700   0.480
 5651SOL    HW117327   4.151   0.610   0.477
 5651SOL    HW217328   4.012   0.689   0.513
 5652SOL     OW17329   4.338   0.122   0.117
 5652SOL    HW117330   4.436   0.100   0.124
 5652SOL    HW217331   4.307   0.105   0.024
 5653SOL     OW17332   4.505   0.264   1.749
 5653SOL    HW117333   4.572   0.203   1.792
 5653SOL    HW217334   4.432   0.283   1.814
 5654SOL     OW17335   4.612   1.514   1.195
 5654SOL    HW117336   4.589   1.489   1.101
 5654SOL    HW217337   4.673   1.445   1.234
 5655SOL     OW17338   4.527   1.402   0.924
 5655SOL    HW117339   4.617   1.416   0.882
 5655SOL    HW217340   4.456   1.404   0.853
 5656SOL     OW17341   4.646   0.503   0.899
 5656SOL    HW117342   4.621   0.494   0.803
 5656SOL    HW217343   4.694   0.421   0.930
 5657SOL     OW17344   4.263   0.064   0.512
 5657SOL    HW117345   4.182   0.065   0.570
 5657SOL    HW217346   4.266   0.147   0.457
 5658SOL     OW17347   4.021   0.035   0.171
 5658SOL    HW117348   4.070   0.119   0.150
 5658SOL    HW217349   4.083  -0.030   0.216
 5659SOL     OW17350   4.951   1.570   0.793
 5659SOL    HW117351   4.972   1.644   0.728
 5659SOL    HW217352   5.019   1.570   0.866
 5660SOL     OW17353   4.183   1.152   0.741
 5660SOL    HW117354   4.112   1.125   0.806
 5660SOL    HW217355   4.157   1.124   0.648
 5661SOL     OW17356   3.802   0.556   1.386
 5661SOL    HW117357   3.894   0.555   1.345
 5661SOL    HW217358   3.796   0.630   1.453
 5662SOL     OW17359   4.285   0.222   1.147
 5662SOL    HW117360   4.323   0.138   1.184
 5662SOL    HW217361   4.197   0.241   1.191
 5663SOL     OW17362   4.212   1.385   0.174
 5663SOL    HW117363   4.125   1.370   0.221
 5663SOL    HW217364   4.195   1.411   0.079
 5664SOL     OW17365   4.251   0.256   0.328
 5664SOL    HW117366   4.278   0.197   0.253
 5664SOL    HW217367   4.251   0.351   0.297
 5665SOL     OW17368   4.639   0.089   1.402
 5665SOL    HW117369   4.664   0.069   1.307
 5665SOL    HW217370   4.711   0.145   1.444
 5666SOL     OW17371   4.429   1.050   0.368
 5666SOL    HW117372   4.415   1.057   0.467
 5666SOL    HW217373   4.513   0.999   0.350
 5667SOL     OW17374   4.134   0.813   1.251
 5667SOL    HW117375   4.220   0.825   1.301
 5667SOL    HW217376   4.092   0.726   1.278
 5668SOL     OW17377   3.788   1.564   1.331
 5668SOL    HW117378   3.742   1.646   1.297
 5668SOL    HW217379   3.886   1.583   1.340
 5669SOL     OW17380   4.091   1.100   0.501
 5669SOL    HW117381   4.084   1.183   0.445
 5669SOL    HW217382   4.095   1.020   0.441
 5670SOL     OW17383   4.290   0.537   0.865
 5670SOL    HW117384   4.302   0.603   0.791
 5670SOL    HW217385   4.336   0.571   0.948
 5671SOL     OW17386   4.078   1.510   1.329
 5671SOL    HW117387   4.057   1.466   1.242
 5671SOL    HW217388   4.175   1.536   1.332
 5672SOL     OW17389   4.126   0.751   1.598
 5672SOL    HW117390   4.194   0.806   1.551
 5672SOL    HW217391   4.166   0.663   1.625
 5673SOL     OW17392   4.228   0.050   1.740
 5673SOL    HW117393   4.186  -0.007   1.670
 5673SOL    HW217394   4.162   0.119   1.772
 5674SOL     OW17395   4.297   0.870   1.029
 5674SOL    HW117396   4.341   0.959   1.020
 5674SOL    HW217397   4.234   0.870   1.106
 5675SOL     OW17398   4.933   0.525   0.275
 5675SOL    HW117399   4.946   0.441   0.329
 5675SOL    HW217400   4.904   0.599   0.335
 5676SOL     OW17401   4.031   0.213   1.231
 5676SOL    HW117402   4.008   0.250   1.321
 5676SOL    HW217403   4.001   0.118   1.225
 5677SOL     OW17404   3.761   1.310   1.282
 5677SOL    HW117405   3.814   1.261   1.350
 5677SOL    HW217406   3.783   1.408   1.287
 5678SOL     OW17407   4.456   0.634   1.064
 5678SOL    HW117408   4.515   0.608   0.988
 5678SOL    HW217409   4.428   0.730   1.053
 5679SOL     OW17410   4.031   0.063   0.618
 5679SOL    HW117411   4.020   0.157   0.651
 5679SOL    HW217412   4.026   0.000   0.695
 5680SOL     OW17413   4.747   0.766   0.966
 5680SOL    HW117414   4.762   0.787   1.062
 5680SOL    HW217415   4.717   0.671   0.957
 5681SOL     OW17416   4.704   1.573   1.700
 5681SOL    HW117417   4.684   1.617   1.612
 5681SOL    HW217418   4.743   1.482   1.684
 5682SOL     OW17419   4.074   0.898   1.804
 5682SOL    HW117420   4.150   0.942   1.852
 5682SOL    HW217421   4.109   0.851   1.722
 5683SOL     OW17422   4.043   0.810   0.949
 5683SOL    HW117423   4.136   0.846   0.954
 5683SOL    HW217424   4.037   0.725   1.001
 5684SOL     OW17425   4.063   0.509   1.006
 5684SOL    HW117426   4.011   0.426   0.989
 5684SOL    HW217427   4.140   0.514   0.942
 5685SOL     OW17428   3.732   1.326   0.200
 5685SOL    HW117429   3.639   1.347   0.169
 5685SOL    HW217430   3.742   1.227   0.213
 5686SOL     OW17431   3.812   1.801   0.927
 5686SOL    HW117432   3.770   1.715   0.900
 5686SOL    HW217433   3.906   1.804   0.893
 5687SOL     OW17434   4.228   1.568   0.910
 5687SOL    HW117435   4.294   1.642   0.919
 5687SOL    HW217436   4.272   1.489   0.868
 5688SOL     OW17437   4.726   0.796   1.238
 5688SOL    HW117438   4.767   0.764   1.324
 5688SOL    HW217439   4.630   0.769   1.235
 5689SOL     OW17440   3.764   0.544   1.114
 5689SOL    HW117441   3.849   0.511   1.073
 5689SOL    HW217442   3.777   0.559   1.212
 5690SOL     OW17443   3.913   0.520   1.722
 5690SOL    HW117444   3.972   0.480   1.652
 5690SOL    HW217445   3.855   0.591   1.681
 5691SOL     OW17446   4.539   0.572   0.325
 5691SOL    HW117447   4.546   0.483   0.279
 5691SOL    HW217448   4.445   0.606   0.317
 5692SOL     OW17449   3.976   1.564   1.744
 5692SOL    HW117450   3.946   1.621   1.820
 5692SOL    HW217451   3.969   1.467   1.770
 5693SOL     OW17452   4.395   0.464   1.269
 5693SOL    HW117453   4.361   0.375   1.239
 5693SOL    HW217454   4.421   0.518   1.189
 5694SOL     OW17455   4.654   1.678   1.465
 5694SOL    HW117456   4.630   1.660   1.370
 5694SOL    HW217457   4.684   1.772   1.475
 5695SOL     OW17458   4.197   0.500   0.191
 5695SOL    HW117459   4.258   0.580   0.195
 5695SOL    HW217460   4.102   0.531   0.198
 5696SOL     OW17461   3.883   1.137   1.466
 5696SOL    HW117462   3.905   1.076   1.542
 5696SOL    HW217463   3.893   1.088   1.380
 5697SOL     OW17464   3.807   1.258   1.022
 5697SOL    HW117465   3.802   1.257   1.122
 5697SOL    HW217466   3.724   1.217   0.984
 5698SOL     OW17467   4.412   1.662   1.716
 5698SOL    HW117468   4.356   1.743   1.725
 5698SOL    HW217469   4.464   1.666   1.630
 5699SOL     OW17470   4.627   0.086   0.133
 5699SOL    HW117471   4.678   0.087   0.047
 5699SOL    HW217472   4.683   0.044   0.204
 5700SOL     OW17473   3.854   1.794   1.851
 5700SOL    HW117474   3.813   1.720   1.904
 5700SOL    HW217475   3.918   1.845   1.909
 5701SOL     OW17476   4.554   1.273   1.422
 5701SOL    HW117477   4.549   1.306   1.517
 5701SOL    HW217478   4.468   1.292   1.376
 5702SOL     OW17479   4.396   1.616   0.154
 5702SOL    HW117480   4.405   1.626   0.055
 5702SOL    HW217481   4.356   1.527   0.175
 5703SOL     OW17482   3.987   0.326   0.720
 5703SOL    HW117483   3.908   0.377   0.686
 5703SOL    HW217484   3.978   0.311   0.818
 5704SOL     OW17485   4.918   1.612   0.031
 5704SOL    HW117486   4.924   1.519   0.068
 5704SOL    HW217487   4.859   1.612  -0.049
 5705SOL     OW17488   4.546   1.002   1.372
 5705SOL    HW117489   4.586   1.001   1.280
 5705SOL    HW217490   4.556   1.094   1.412
 5706SOL     OW17491   4.096   1.288   1.490
 5706SOL    HW117492   4.083   1.381   1.456
 5706SOL    HW217493   4.012   1.236   1.477
 5707SOL     OW17494   4.314   1.487   0.491
 5707SOL    HW117495   4.356   1.429   0.421
 5707SOL    HW217496   4.270   1.566   0.447
 5708SOL     OW17497   3.979   1.348   0.290
 5708SOL    HW117498   3.883   1.349   0.263
 5708SOL    HW217499   3.991   1.401   0.374
 5709SOL     OW17500   3.829   1.013   1.726
 5709SOL    HW117501   3.752   0.980   1.780
 5709SOL    HW217502   3.914   0.983   1.768
 5710SOL     OW17503   4.396   0.203   1.489
 5710SOL    HW117504   4.486   0.187   1.449
 5710SOL    HW217505   4.404   0.208   1.588
 5711SOL     OW17506   3.799   0.345   0.033
 5711SOL    HW117507   3.707   0.317   0.004
 5711SOL    HW217508   3.830   0.422  -0.023
 5712SOL     OW17509   3.796   0.166   0.318
 5712SOL    HW117510   3.779   0.249   0.264
 5712SOL    HW217511   3.886   0.129   0.296
 5713SOL     OW17512   4.337   0.842   1.431
 5713SOL    HW117513   4.393   0.923   1.414
 5713SOL    HW217514   4.396   0.762   1.434
 5714SOL     OW17515   4.440   0.565   1.708
 5714SOL    HW117516   4.459   0.630   1.782
 5714SOL    HW217517   4.500   0.485   1.717
 5715SOL     OW17518   4.114   1.741   1.560
 5715SOL    HW117519   4.023   1.782   1.558
 5715SOL    HW217520   4.107   1.647   1.592
 5716SOL     OW17521   4.949   0.325   0.449
 5716SOL    HW117522   5.014   0.251   0.438
 5716SOL    HW217523   4.969   0.375   0.533
 5717SOL     OW17524   4.318   0.745   0.652
 5717SOL    HW117525   4.368   0.830   0.633
 5717SOL    HW217526   4.230   0.747   0.604
 5718SOL     OW17527   4.583   1.374   0.016
 5718SOL    HW117528   4.537   1.389   0.104
 5718SOL    HW217529   4.627   1.459  -0.014
 5719SOL     OW17530   4.385   1.790   0.953
 5719SOL    HW117531   4.339   1.878   0.940
 5719SOL    HW217532   4.484   1.802   0.946
 5720SOL     OW17533   4.583   0.956   0.861
 5720SOL    HW117534   4.637   0.887   0.909
 5720SOL    HW217535   4.551   1.025   0.927
 5721SOL     OW17536   3.945   1.314   1.844
 5721SOL    HW117537   3.880   1.241   1.823
 5721SOL    HW217538   3.949   1.328   1.942
 5722SOL     OW17539   3.803   1.240   0.653
 5722SOL    HW117540   3.802   1.193   0.741
 5722SOL    HW217541   3.885   1.212   0.602
 5723SOL     OW17542   4.396   1.391   1.624
 5723SOL    HW117543   4.318   1.341   1.662
 5723SOL    HW217544   4.393   1.486   1.655
 5724SOL     OW17545   4.152   0.424   0.520
 5724SOL    HW117546   4.182   0.352   0.458
 5724SOL    HW217547   4.113   0.384   0.603
 5725SOL     OW17548   4.041   0.547   1.280
 5725SOL    HW117549   4.079   0.488   1.352
 5725SOL    HW217550   4.081   0.521   1.192
 5726SOL     OW17551   4.536   1.586   0.687
 5726SOL    HW117552   4.568   1.596   0.593
 5726SOL    HW217553   4.457   1.524   0.689
 5727SOL     OW17554   4.725   0.034   1.154
 5727SOL    HW117555   4.662  -0.038   1.123
 5727SOL    HW217556   4.818  -0.002   1.154
 5728SOL     OW17557   4.494   1.330   0.301
 5728SOL    HW117558   4.448   1.243   0.318
 5728SOL    HW217559   4.585   1.327   0.342
 5729SOL     OW17560   4.342   1.567   1.284
 5729SOL    HW117561   4.337   1.649   1.341
 5729SOL    HW217562   4.431   1.564   1.239
 5730SOL     OW17563   3.763   1.077   0.300
 5730SOL    HW117564   3.862   1.066   0.291
 5730SOL    HW217565   3.723   0.991   0.332
 5731SOL     OW17566   4.599   1.646   0.337
 5731SOL    HW117567   4.522   1.611   0.283
 5731SOL    HW217568   4.567   1.717   0.399
 5732SOL     OW17569   3.954   0.628   1.975
 5732SOL    HW117570   3.861   0.626   2.012
 5732SOL    HW217571   3.955   0.589   1.883
 5733SOL     OW17572   3.949   0.275   2.858
 5733SOL    HW117573   3.984   0.258   2.950
 5733SOL    HW217574   3.861   0.230   2.846
 5734SOL     OW17575   3.743   0.368   2.509
 5734SOL    HW117576   3.661   0.411   2.548
 5734SOL    HW217577   3.715   0.295   2.446
 5735SOL     OW17578   4.293   1.275   3.027
 5735SOL    HW117579   4.200   1.268   2.990
 5735SOL    HW217580   4.304   1.364   3.071
 5736SOL     OW17581   4.492   1.144   2.885
 5736SOL    HW117582   4.414   1.161   2.945
 5736SOL    HW217583   4.526   1.231   2.849
 5737SOL     OW17584   4.574   0.798   3.685
 5737SOL    HW117585   4.570   0.874   3.750
 5737SOL    HW217586   4.596   0.834   3.594
 5738SOL     OW17587   4.409   1.012   2.527
 5738SOL    HW117588   4.478   0.996   2.597
 5738SOL    HW217589   4.336   1.069   2.565
 5739SOL     OW17590   4.410   1.161   3.665
 5739SOL    HW117591   4.470   1.240   3.679
 5739SOL    HW217592   4.324   1.192   3.624
 5740SOL     OW17593   4.059   1.435   2.923
 5740SOL    HW117594   3.981   1.404   2.870
 5740SOL    HW217595   4.117   1.493   2.866
 5741SOL     OW17596   4.162   0.392   3.361
 5741SOL    HW117597   4.244   0.336   3.370
 5741SOL    HW217598   4.081   0.334   3.365
 5742SOL     OW17599   3.955   1.713   2.345
 5742SOL    HW117600   3.989   1.790   2.399
 5742SOL    HW217601   3.999   1.713   2.255
 5743SOL     OW17602   3.954   1.434   2.400
 5743SOL    HW117603   3.928   1.530   2.400
 5743SOL    HW217604   3.883   1.380   2.445
 5744SOL     OW17605   3.964   1.091   2.748
 5744SOL    HW117606   3.978   1.007   2.800
 5744SOL    HW217607   3.909   1.155   2.803
 5745SOL     OW17608   4.344   1.786   3.301
 5745SOL    HW117609   4.252   1.769   3.336
 5745SOL    HW217610   4.372   1.878   3.327
 5746SOL     OW17611   4.330   0.964   1.985
 5746SOL    HW117612   4.337   1.048   1.931
 5746SOL    HW217613   4.376   0.977   2.073
 5747SOL     OW17614   3.846   0.643   2.425
 5747SOL    HW117615   3.801   0.555   2.442
 5747SOL    HW217616   3.845   0.697   2.509
 5748SOL     OW17617   3.751   1.596   1.979
 5748SOL    HW117618   3.732   1.500   2.000
 5748SOL    HW217619   3.718   1.654   2.054
 5749SOL     OW17620   3.837   0.737   3.459
 5749SOL    HW117621   3.925   0.724   3.504
 5749SOL    HW217622   3.824   0.834   3.437
 5750SOL     OW17623   4.337   1.365   2.588
 5750SOL    HW117624   4.288   1.278   2.597
 5750SOL    HW217625   4.314   1.408   2.501
 5751SOL     OW17626   4.533   0.004   2.364
 5751SOL    HW117627   4.573   0.095   2.355
 5751SOL    HW217628   4.433   0.012   2.370
 5752SOL     OW17629   3.921   0.976   3.126
 5752SOL    HW117630   4.010   0.931   3.112
 5752SOL    HW217631   3.848   0.911   3.107
 5753SOL     OW17632   4.041   0.251   3.663
 5753SOL    HW117633   4.112   0.322   3.669
 5753SOL    HW217634   3.953   0.290   3.691
 5754SOL     OW17635   4.322   0.729   2.132
 5754SOL    HW117636   4.346   0.798   2.064
 5754SOL    HW217637   4.244   0.762   2.186
 5755SOL     OW17638   4.531   0.605   3.327
 5755SOL    HW117639   4.484   0.602   3.416
 5755SOL    HW217640   4.480   0.550   3.261
 5756SOL     OW17641   3.800   0.811   2.651
 5756SOL    HW117642   3.899   0.799   2.660
 5756SOL    HW217643   3.776   0.906   2.672
 5757SOL     OW17644   3.854   1.821   3.433
 5757SOL    HW117645   3.844   1.806   3.532
 5757SOL    HW217646   3.768   1.857   3.397
 5758SOL     OW17647   4.589   0.348   2.057
 5758SOL    HW117648   4.648   0.411   2.008
 5758SOL    HW217649   4.608   0.254   2.028
 5759SOL     OW17650   4.274   0.196   2.747
 5759SOL    HW117651   4.269   0.191   2.847
 5759SOL    HW217652   4.276   0.292   2.718
 5760SOL     OW17653   4.732   1.456   2.339
 5760SOL    HW117654   4.686   1.528   2.287
 5760SOL    HW217655   4.728   1.476   2.437
 5761SOL     OW17656   4.075   1.801   2.715
 5761SOL    HW117657   4.125   1.715   2.721
 5761SOL    HW217658   4.140   1.878   2.712
 5762SOL     OW17659   4.045   0.943   2.104
 5762SOL    HW117660   4.127   0.982   2.062
 5762SOL    HW217661   4.018   0.861   2.055
 5763SOL     OW17662   4.185   1.266   3.589
 5763SOL    HW117663   4.135   1.267   3.503
 5763SOL    HW217664   4.122   1.248   3.665
 5764SOL     OW17665   3.926   0.285   3.360
 5764SOL    HW117666   3.846   0.345   3.347
 5764SOL    HW217667   3.916   0.236   3.446
 5765SOL     OW17668   4.188   1.743   2.185
 5765SOL    HW117669   4.221   1.782   2.271
 5765SOL    HW217670   4.264   1.736   2.120
 5766SOL     OW17671   3.973   1.785   3.103
 5766SOL    HW117672   4.030   1.720   3.153
 5766SOL    HW217673   3.957   1.752   3.010
 5767SOL     OW17674   4.106   0.700   2.342
 5767SOL    HW117675   4.151   0.610   2.339
 5767SOL    HW217676   4.012   0.689   2.375
 5768SOL     OW17677   4.338   0.122   1.979
 5768SOL    HW117678   4.436   0.100   1.986
 5768SOL    HW217679   4.307   0.105   1.886
 5769SOL     OW17680   4.505   0.264   3.611
 5769SOL    HW117681   4.572   0.203   3.654
 5769SOL    HW217682   4.432   0.283   3.676
 5770SOL     OW17683   4.612   1.514   3.057
 5770SOL    HW117684   4.589   1.489   2.963
 5770SOL    HW217685   4.673   1.445   3.096
 5771SOL     OW17686   4.527   1.402   2.786
 5771SOL    HW117687   4.617   1.416   2.744
 5771SOL    HW217688   4.456   1.404   2.715
 5772SOL     OW17689   4.646   0.503   2.761
 5772SOL    HW117690   4.621   0.494   2.665
 5772SOL    HW217691   4.694   0.421   2.792
 5773SOL     OW17692   4.263   0.064   2.374
 5773SOL    HW117693   4.182   0.065   2.432
 5773SOL    HW217694   4.266   0.147   2.319
 5774SOL     OW17695   4.021   0.035   2.033
 5774SOL    HW117696   4.070   0.119   2.012
 5774SOL    HW217697   4.083  -0.030   2.078
 5775SOL     OW17698   4.951   1.570   2.655
 5775SOL    HW117699   4.972   1.644   2.590
 5775SOL    HW217700   5.019   1.570   2.728
 5776SOL     OW17701   4.183   1.152   2.603
 5776SOL    HW117702   4.112   1.125   2.668
 5776SOL    HW217703   4.157   1.124   2.510
 5777SOL     OW17704   3.802   0.556   3.248
 5777SOL    HW117705   3.894   0.555   3.207
 5777SOL    HW217706   3.796   0.630   3.315
 5778SOL     OW17707   4.285   0.222   3.009
 5778SOL    HW117708   4.323   0.138   3.046
 5778SOL    HW217709   4.197   0.241   3.053
 5779SOL     OW17710   4.212   1.385   2.036
 5779SOL    HW117711   4.125   1.370   2.083
 5779SOL    HW217712   4.195   1.411   1.941
 5780SOL     OW17713   4.251   0.256   2.190
 5780SOL    HW117714   4.278   0.197   2.115
 5780SOL    HW217715   4.251   0.351   2.159
 5781SOL     OW17716   4.639   0.089   3.264
 5781SOL    HW117717   4.664   0.069   3.169
 5781SOL    HW217718   4.711   0.145   3.306
 5782SOL     OW17719   4.429   1.050   2.230
 5782SOL    HW117720   4.415   1.057   2.329
 5782SOL    HW217721   4.513   0.999   2.212
 5783SOL     OW17722   4.134   0.813   3.113
 5783SOL    HW117723   4.220   0.825   3.163
 5783SOL    HW217724   4.092   0.726   3.140
 5784SOL     OW17725   3.788   1.564   3.193
 5784SOL    HW117726   3.742   1.646   3.159
 5784SOL    HW217727   3.886   1.583   3.202
 5785SOL     OW17728   4.091   1.100   2.363
 5785SOL    HW117729   4.084   1.183   2.307
 5785SOL    HW217730   4.095   1.020   2.303
 5786SOL     OW17731   4.290   0.537   2.727
 5786SOL    HW117732   4.302   0.603   2.653
 5786SOL    HW217733   4.336   0.571   2.810
 5787SOL     OW17734   4.078   1.510   3.191
 5787SOL    HW117735   4.057   1.466   3.104
 5787SOL    HW217736   4.175   1.536   3.194
 5788SOL     OW17737   4.126   0.751   3.460
 5788SOL    HW117738   4.194   0.806   3.413
 5788SOL    HW217739   4.166   0.663   3.487
 5789SOL     OW17740   4.228   0.050   3.602
 5789SOL    HW117741   4.186  -0.007   3.532
 5789SOL    HW217742   4.162   0.119   3.634
 5790SOL     OW17743   4.297   0.870   2.891
 5790SOL    HW117744   4.341   0.959   2.882
 5790SOL    HW217745   4.234   0.870   2.968
 5791SOL     OW17746   4.933   0.525   2.137
 5791SOL    HW117747   4.946   0.441   2.191
 5791SOL    HW217748   4.904   0.599   2.197
 5792SOL     OW17749   4.031   0.213   3.093
 5792SOL    HW117750   4.008   0.250   3.183
 5792SOL    HW217751   4.001   0.118   3.087
 5793SOL     OW17752   3.761   1.310   3.144
 5793SOL    HW117753   3.814   1.261   3.212
 5793SOL    HW217754   3.783   1.408   3.149
 5794SOL     OW17755   4.456   0.634   2.926
 5794SOL    HW117756   4.515   0.608   2.850
 5794SOL    HW217757   4.428   0.730   2.915
 5795SOL     OW17758   4.031   0.063   2.480
 5795SOL    HW117759   4.020   0.157   2.513
 5795SOL    HW217760   4.026   0.000   2.557
 5796SOL     OW17761   4.747   0.766   2.828
 5796SOL    HW117762   4.762   0.787   2.924
 5796SOL    HW217763   4.717   0.671   2.819
 5797SOL     OW17764   4.704   1.573   3.562
 5797SOL    HW117765   4.684   1.617   3.474
 5797SOL    HW217766   4.743   1.482   3.546
 5798SOL     OW17767   4.074   0.898   3.666
 5798SOL    HW117768   4.150   0.942   3.714
 5798SOL    HW217769   4.109   0.851   3.584
 5799SOL     OW17770   4.043   0.810   2.811
 5799SOL    HW117771   4.136   0.846   2.816
 5799SOL    HW217772   4.037   0.725   2.863
 5800SOL     OW17773   4.063   0.509   2.868
 5800SOL    HW117774   4.011   0.426   2.851
 5800SOL    HW217775   4.140   0.514   2.804
 5801SOL     OW17776   3.732   1.326   2.062
 5801SOL    HW117777   3.639   1.347   2.031
 5801SOL    HW217778   3.742   1.227   2.075
 5802SOL     OW17779   3.812   1.801   2.789
 5802SOL    HW117780   3.770   1.715   2.762
 5802SOL    HW217781   3.906   1.804   2.755
 5803SOL     OW17782   4.228   1.568   2.772
 5803SOL    HW117783   4.294   1.642   2.781
 5803SOL    HW217784   4.272   1.489   2.730
 5804SOL     OW17785   4.726   0.796   3.100
 5804SOL    HW117786   4.767   0.764   3.186
 5804SOL    HW217787   4.630   0.769   3.097
 5805SOL     OW17788   3.764   0.544   2.976
 5805SOL    HW117789   3.849   0.511   2.935
 5805SOL    HW217790   3.777   0.559   3.074
 5806SOL     OW17791   3.913   0.520   3.584
 5806SOL    HW117792   3.972   0.480   3.514
 5806SOL    HW217793   3.855   0.591   3.543
 5807SOL     OW17794   4.539   0.572   2.187
 5807SOL    HW117795   4.546   0.483   2.141
 5807SOL    HW217796   4.445   0.606   2.179
 5808SOL     OW17797   3.976   1.564   3.606
 5808SOL    HW117798   3.946   1.621   3.682
 5808SOL    HW217799   3.969   1.467   3.632
 5809SOL     OW17800   4.395   0.464   3.131
 5809SOL    HW117801   4.361   0.375   3.101
 5809SOL    HW217802   4.421   0.518   3.051
 5810SOL     OW17803   4.654   1.678   3.327
 5810SOL    HW117804   4.630   1.660   3.232
 5810SOL    HW217805   4.684   1.772   3.337
 5811SOL     OW17806   4.197   0.500   2.053
 5811SOL    HW117807   4.258   0.580   2.057
 5811SOL    HW217808   4.102   0.531   2.060
 5812SOL     OW17809   3.883   1.137   3.328
 5812SOL    HW117810   3.905   1.076   3.404
 5812SOL    HW217811   3.893   1.088   3.242
 5813SOL     OW17812   3.807   1.258   2.884
 5813SOL    HW117813   3.802   1.257   2.984
 5813SOL    HW217814   3.724   1.217   2.846
 5814SOL     OW17815   4.412   1.662   3.578
 5814SOL    HW117816   4.356   1.743   3.587
 5814SOL    HW217817   4.464   1.666   3.492
 5815SOL     OW17818   4.627   0.086   1.995
 5815SOL    HW117819   4.678   0.087   1.909
 5815SOL    HW217820   4.683   0.044   2.066
 5816SOL     OW17821   3.854   1.794   3.713
 5816SOL    HW117822   3.813   1.720   3.766
 5816SOL    HW217823   3.918   1.845   3.771
 5817SOL     OW17824   4.554   1.273   3.284
 5817SOL    HW117825   4.549   1.306   3.379
 5817SOL    HW217826   4.468   1.292   3.238
 5818SOL     OW17827   4.396   1.616   2.016
 5818SOL    HW117828   4.405   1.626   1.917
 5818SOL    HW217829   4.356   1.527   2.037
 5819SOL     OW17830   3.987   0.326   2.582
 5819SOL    HW117831   3.908   0.377   2.548
 5819SOL    HW217832   3.978   0.311   2.680
 5820SOL     OW17833   4.546   1.002   3.234
 5820SOL    HW117834   4.586   1.001   3.142
 5820SOL    HW217835   4.556   1.094   3.274
 5821SOL     OW17836   4.096   1.288   3.352
 5821SOL    HW117837   4.083   1.381   3.318
 5821SOL    HW217838   4.012   1.236   3.339
 5822SOL     OW17839   4.314   1.487   2.353
 5822SOL    HW117840   4.356   1.429   2.283
 5822SOL    HW217841   4.270   1.566   2.309
 5823SOL     OW17842   3.979   1.348   2.152
 5823SOL    HW117843   3.883   1.349   2.125
 5823SOL    HW217844   3.991   1.401   2.236
 5824SOL     OW17845   3.829   1.013   3.588
 5824SOL    HW117846   3.752   0.980   3.642
 5824SOL    HW217847   3.914   0.983   3.630
 5825SOL     OW17848   4.396   0.203   3.351
 5825SOL    HW117849   4.486   0.187   3.311
 5825SOL    HW217850   4.404   0.208   3.450
 5826SOL     OW17851   3.799   0.345   1.895
 5826SOL    HW117852   3.707   0.317   1.866
 5826SOL    HW217853   3.830   0.422   1.839
 5827SOL     OW17854   3.796   0.166   2.180
 5827SOL    HW117855   3.779   0.249   2.126
 5827SOL    HW217856   3.886   0.129   2.158
 5828SOL     OW17857   4.337   0.842   3.293
 5828SOL    HW117858   4.393   0.923   3.276
 5828SOL    HW217859   4.396   0.762   3.296
 5829SOL     OW17860   4.440   0.565   3.570
 5829SOL    HW117861   4.459   0.630   3.644
 5829SOL    HW217862   4.500   0.485   3.579
 5830SOL     OW17863   4.114   1.741   3.422
 5830SOL    HW117864   4.023   1.782   3.420
 5830SOL    HW217865   4.107   1.647   3.454
 5831SOL     OW17866   4.949   0.325   2.311
 5831SOL    HW117867   5.014   0.251   2.300
 5831SOL    HW217868   4.969   0.375   2.395
 5832SOL     OW17869   4.318   0.745   2.514
 5832SOL    HW117870   4.368   0.830   2.495
 5832SOL    HW217871   4.230   0.747   2.466
 5833SOL     OW17872   4.583   1.374   1.878
 5833SOL    HW117873   4.537   1.389   1.966
 5833SOL    HW217874   4.627   1.459   1.848
 5834SOL     OW17875   4.385   1.790   2.815
 5834SOL    HW117876   4.339   1.878   2.802
 5834SOL    HW217877   4.484   1.802   2.808
 5835SOL     OW17878   4.583   0.956   2.723
 5835SOL    HW117879   4.637   0.887   2.771
 5835SOL    HW217880   4.551   1.025   2.789
 5836SOL     OW17881   3.945   1.314   3.706
 5836SOL    HW117882   3.880   1.241   3.685
 5836SOL    HW217883   3.949   1.328   3.804
 5837SOL     OW17884   3.803   1.240   2.515
 5837SOL    HW117885   3.802   1.193   2.603
 5837SOL    HW217886   3.885   1.212   2.464
 5838SOL     OW17887   4.396   1.391   3.486
 5838SOL    HW117888   4.318   1.341   3.524
 5838SOL    HW217889   4.393   1.486   3.517
 5839SOL     OW17890   4.152   0.424   2.382
 5839SOL    HW117891   4.182   0.352   2.320
 5839SOL    HW217892   4.113   0.384   2.465
 5840SOL     OW17893   4.041   0.547   3.142
 5840SOL    HW117894   4.079   0.488   3.214
 5840SOL    HW217895   4.081   0.521   3.054
 5841SOL     OW17896   4.536   1.586   2.549
 5841SOL    HW117897   4.568   1.596   2.455
 5841SOL    HW217898   4.457   1.524   2.551
 5842SOL     OW17899   4.725   0.034   3.016
 5842SOL    HW117900   4.662  -0.038   2.985
 5842SOL    HW217901   4.818  -0.002   3.016
 5843SOL     OW17902   4.494   1.330   2.163
 5843SOL    HW117903   4.448   1.243   2.180
 5843SOL    HW217904   4.585   1.327   2.204
 5844SOL     OW17905   4.342   1.567   3.146
 5844SOL    HW117906   4.337   1.649   3.203
 5844SOL    HW217907   4.431   1.564   3.101
 5845SOL     OW17908   3.763   1.077   2.162
 5845SOL    HW117909   3.862   1.066   2.153
 5845SOL    HW217910   3.723   0.991   2.194
 5846SOL     OW17911   4.599   1.646   2.199
 5846SOL    HW117912   4.522   1.611   2.145
 5846SOL    HW217913   4.567   1.717   2.261
 5847SOL     OW17914   3.954   0.628   3.837
 5847SOL    HW117915   3.861   0.626   3.874
 5847SOL    HW217916   3.955   0.589   3.745
 5848SOL     OW17917   3.949   0.275   4.720
 5848SOL    HW117918   3.984   0.258   4.812
 5848SOL    HW217919   3.861   0.230   4.708
 5849SOL     OW17920   3.743   0.368   4.371
 5849SOL    HW117921   3.661   0.411   4.410
 5849SOL    HW217922   3.715   0.295   4.308
 5850SOL     OW17923   4.293   1.275   4.889
 5850SOL    HW117924   4.200   1.268   4.852
 5850SOL    HW217925   4.304   1.364   4.933
 5851SOL     OW17926   4.492   1.144   4.747
 5851SOL    HW117927   4.414   1.161   4.807
 5851SOL    HW217928   4.526   1.231   4.711
 5852SOL     OW17929   4.574   0.798   5.547
 5852SOL    HW117930   4.570   0.874   5.612
 5852SOL    HW217931   4.596   0.834   5.456
 5853SOL     OW17932   4.409   1.012   4.389
 5853SOL    HW117933   4.478   0.996   4.459
 5853SOL    HW217934   4.336   1.069   4.427
 5854SOL     OW17935   4.410   1.161   5.527
 5854SOL    HW117936   4.470   1.240   5.541
 5854SOL    HW217937   4.324   1.192   5.486
 5855SOL     OW17938   4.059   1.435   4.785
 5855SOL    HW117939   3.981   1.404   4.732
 5855SOL    HW217940   4.117   1.493   4.728
 5856SOL     OW17941   4.162   0.392   5.223
 5856SOL    HW117942   4.244   0.336   5.232
 5856SOL    HW217943   4.081   0.334   5.227
 5857SOL     OW17944   3.955   1.713   4.207
 5857SOL    HW117945   3.989   1.790   4.261
 5857SOL    HW217946   3.999   1.713   4.117
 5858SOL     OW17947   3.954   1.434   4.262
 5858SOL    HW117948   3.928   1.530   4.262
 5858SOL    HW217949   3.883   1.380   4.307
 5859SOL     OW17950   3.964   1.091   4.610
 5859SOL    HW117951   3.978   1.007   4.662
 5859SOL    HW217952   3.909   1.155   4.665
 5860SOL     OW17953   4.344   1.786   5.163
 5860SOL    HW117954   4.252   1.769   5.198
 5860SOL    HW217955   4.372   1.878   5.189
 5861SOL     OW17956   4.330   0.964   3.847
 5861SOL    HW117957   4.337   1.048   3.793
 5861SOL    HW217958   4.376   0.977   3.935
 5862SOL     OW17959   3.846   0.643   4.287
 5862SOL    HW117960   3.801   0.555   4.304
 5862SOL    HW217961   3.845   0.697   4.371
 5863SOL     OW17962   3.751   1.596   3.841
 5863SOL    HW117963   3.732   1.500   3.862
 5863SOL    HW217964   3.718   1.654   3.916
 5864SOL     OW17965   3.837   0.737   5.321
 5864SOL    HW117966   3.925   0.724   5.366
 5864SOL    HW217967   3.824   0.834   5.299
 5865SOL     OW17968   4.337   1.365   4.450
 5865SOL    HW117969   4.288   1.278   4.459
 5865SOL    HW217970   4.314   1.408   4.363
 5866SOL     OW17971   4.533   0.004   4.226
 5866SOL    HW117972   4.573   0.095   4.217
 5866SOL    HW217973   4.433   0.012   4.232
 5867SOL     OW17974   3.921   0.976   4.988
 5867SOL    HW117975   4.010   0.931   4.974
 5867SOL    HW217976   3.848   0.911   4.969
 5868SOL     OW17977   4.041   0.251   5.525
 5868SOL    HW117978   4.112   0.322   5.531
 5868SOL    HW217979   3.953   0.290   5.553
 5869SOL     OW17980   4.322   0.729   3.994
 5869SOL    HW117981   4.346   0.798   3.926
 5869SOL    HW217982   4.244   0.762   4.048
 5870SOL     OW17983   4.531   0.605   5.189
 5870SOL    HW117984   4.484   0.602   5.278
 5870SOL    HW217985   4.480   0.550   5.123
 5871SOL     OW17986   3.800   0.811   4.513
 5871SOL    HW117987   3.899   0.799   4.522
 5871SOL    HW217988   3.776   0.906   4.534
 5872SOL     OW17989   3.854   1.821   5.295
 5872SOL    HW117990   3.844   1.806   5.394
 5872SOL    HW217991   3.768   1.857   5.259
 5873SOL     OW17992   4.589   0.348   3.919
 5873SOL    HW117993   4.648   0.411   3.870
 5873SOL    HW217994   4.608   0.254   3.890
 5874SOL     OW17995   4.274   0.196   4.609
 5874SOL    HW117996   4.269   0.191   4.709
 5874SOL    HW217997   4.276   0.292   4.580
 5875SOL     OW17998   4.732   1.456   4.201
 5875SOL    HW117999   4.686   1.528   4.149
 5875SOL    HW218000   4.728   1.476   4.299
 5876SOL     OW18001   4.075   1.801   4.577
 5876SOL    HW118002   4.125   1.715   4.583
 5876SOL    HW218003   4.140   1.878   4.574
 5877SOL     OW18004   4.045   0.943   3.966
 5877SOL    HW118005   4.127   0.982   3.924
 5877SOL    HW218006   4.018   0.861   3.917
 5878SOL     OW18007   4.185   1.266   5.451
 5878SOL    HW118008   4.135   1.267   5.365
 5878SOL    HW218009   4.122   1.248   5.527
 5879SOL     OW18010   3.926   0.285   5.222
 5879SOL    HW118011   3.846   0.345   5.209
 5879SOL    HW218012   3.916   0.236   5.308
 5880SOL     OW18013   4.188   1.743   4.047
 5880SOL    HW118014   4.221   1.782   4.133
 5880SOL    HW218015   4.264   1.736   3.982
 5881SOL     OW18016   3.973   1.785   4.965
 5881SOL    HW118017   4.030   1.720   5.015
 5881SOL    HW218018   3.957   1.752   4.872
 5882SOL     OW18019   4.106   0.700   4.204
 5882SOL    HW118020   4.151   0.610   4.201
 5882SOL    HW218021   4.012   0.689   4.237
 5883SOL     OW18022   4.338   0.122   3.841
 5883SOL    HW118023   4.436   0.100   3.848
 5883SOL    HW218024   4.307   0.105   3.748
 5884SOL     OW18025   4.505   0.264   5.473
 5884SOL    HW118026   4.572   0.203   5.516
 5884SOL    HW218027   4.432   0.283   5.538
 5885SOL     OW18028   4.612   1.514   4.919
 5885SOL    HW118029   4.589   1.489   4.825
 5885SOL    HW218030   4.673   1.445   4.958
 5886SOL     OW18031   4.527   1.402   4.648
 5886SOL    HW118032   4.617   1.416   4.606
 5886SOL    HW218033   4.456   1.404   4.577
 5887SOL     OW18034   4.646   0.503   4.623
 5887SOL    HW118035   4.621   0.494   4.527
 5887SOL    HW218036   4.694   0.421   4.654
 5888SOL     OW18037   4.263   0.064   4.236
 5888SOL    HW118038   4.182   0.065   4.294
 5888SOL    HW218039   4.266   0.147   4.181
 5889SOL     OW18040   4.021   0.035   3.895
 5889SOL    HW118041   4.070   0.119   3.874
 5889SOL    HW218042   4.083  -0.030   3.940
 5890SOL     OW18043   4.951   1.570   4.517
 5890SOL    HW118044   4.972   1.644   4.452
 5890SOL    HW218045   5.019   1.570   4.590
 5891SOL     OW18046   4.183   1.152   4.465
 5891SOL    HW118047   4.112   1.125   4.530
 5891SOL    HW218048   4.157   1.124   4.372
 5892SOL     OW18049   3.802   0.556   5.110
 5892SOL    HW118050   3.894   0.555   5.069
 5892SOL    HW218051   3.796   0.630   5.177
 5893SOL     OW18052   4.285   0.222   4.871
 5893SOL    HW118053   4.323   0.138   4.908
 5893SOL    HW218054   4.197   0.241   4.915
 5894SOL     OW18055   4.212   1.385   3.898
 5894SOL    HW118056   4.125   1.370   3.945
 5894SOL    HW218057   4.195   1.411   3.803
 5895SOL     OW18058   4.251   0.256   4.052
 5895SOL    HW118059   4.278   0.197   3.977
 5895SOL    HW218060   4.251   0.351   4.021
 5896SOL     OW18061   4.639   0.089   5.126
 5896SOL    HW118062   4.664   0.069   5.031
 5896SOL    HW218063   4.711   0.145   5.168
 5897SOL     OW18064   4.429   1.050   4.092
 5897SOL    HW118065   4.415   1.057   4.191
 5897SOL    HW218066   4.513   0.999   4.074
 5898SOL     OW18067   4.134   0.813   4.975
 5898SOL    HW118068   4.220   0.825   5.025
 5898SOL    HW218069   4.092   0.726   5.002
 5899SOL     OW18070   3.788   1.564   5.055
 5899SOL    HW118071   3.742   1.646   5.021
 5899SOL    HW218072   3.886   1.583   5.064
 5900SOL     OW18073   4.091   1.100   4.225
 5900SOL    HW118074   4.084   1.183   4.169
 5900SOL    HW218075   4.095   1.020   4.165
 5901SOL     OW18076   4.290   0.537   4.589
 5901SOL    HW118077   4.302   0.603   4.515
 5901SOL    HW218078   4.336   0.571   4.672
 5902SOL     OW18079   4.078   1.510   5.053
 5902SOL    HW118080   4.057   1.466   4.966
 5902SOL    HW218081   4.175   1.536   5.056
 5903SOL     OW18082   4.126   0.751   5.322
 5903SOL    HW118083   4.194   0.806   5.275
 5903SOL    HW218084   4.166   0.663   5.349
 5904SOL     OW18085   4.228   0.050   5.464
 5904SOL    HW118086   4.186  -0.007   5.394
 5904SOL    HW218087   4.162   0.119   5.496
 5905SOL     OW18088   4.297   0.870   4.753
 5905SOL    HW118089   4.341   0.959   4.744
 5905SOL    HW218090   4.234   0.870   4.830
 5906SOL     OW18091   4.933   0.525   3.999
 5906SOL    HW118092   4.946   0.441   4.053
 5906SOL    HW218093   4.904   0.599   4.059
 5907SOL     OW18094   4.031   0.213   4.955
 5907SOL    HW118095   4.008   0.250   5.045
 5907SOL    HW218096   4.001   0.118   4.949
 5908SOL     OW18097   3.761   1.310   5.006
 5908SOL    HW118098   3.814   1.261   5.074
 5908SOL    HW218099   3.783   1.408   5.011
 5909SOL     OW18100   4.456   0.634   4.788
 5909SOL    HW118101   4.515   0.608   4.712
 5909SOL    HW218102   4.428   0.730   4.777
 5910SOL     OW18103   4.031   0.063   4.342
 5910SOL    HW118104   4.020   0.157   4.375
 5910SOL    HW218105   4.026   0.000   4.419
 5911SOL     OW18106   4.747   0.766   4.690
 5911SOL    HW118107   4.762   0.787   4.786
 5911SOL    HW218108   4.717   0.671   4.681
 5912SOL     OW18109   4.704   1.573   5.424
 5912SOL    HW118110   4.684   1.617   5.336
 5912SOL    HW218111   4.743   1.482   5.408
 5913SOL     OW18112   4.074   0.898   5.528
 5913SOL    HW118113   4.150   0.942   5.576
 5913SOL    HW218114   4.109   0.851   5.446
 5914SOL     OW18115   4.043   0.810   4.673
 5914SOL    HW118116   4.136   0.846   4.678
 5914SOL    HW218117   4.037   0.725   4.725
 5915SOL     OW18118   4.063   0.509   4.730
 5915SOL    HW118119   4.011   0.426   4.713
 5915SOL    HW218120   4.140   0.514   4.666
 5916SOL     OW18121   3.732   1.326   3.924
 5916SOL    HW118122   3.639   1.347   3.893
 5916SOL    HW218123   3.742   1.227   3.937
 5917SOL     OW18124   3.812   1.801   4.651
 5917SOL    HW118125   3.770   1.715   4.624
 5917SOL    HW218126   3.906   1.804   4.617
 5918SOL     OW18127   4.228   1.568   4.634
 5918SOL    HW118128   4.294   1.642   4.643
 5918SOL    HW218129   4.272   1.489   4.592
 5919SOL     OW18130   4.726   0.796   4.962
 5919SOL    HW118131   4.767   0.764   5.048
 5919SOL    HW218132   4.630   0.769   4.959
 5920SOL     OW18133   3.764   0.544   4.838
 5920SOL    HW118134   3.849   0.511   4.797
 5920SOL    HW218135   3.777   0.559   4.936
 5921SOL     OW18136   3.913   0.520   5.446
 5921SOL    HW118137   3.972   0.480   5.376
 5921SOL    HW218138   3.855   0.591   5.405
 5922SOL     OW18139   4.539   0.572   4.049
 5922SOL    HW118140   4.546   0.483   4.003
 5922SOL    HW218141   4.445   0.606   4.041
 5923SOL     OW18142   3.976   1.564   5.468
 5923SOL    HW118143   3.946   1.621   5.544
 5923SOL    HW218144   3.969   1.467   5.494
 5924SOL     OW18145   4.395   0.464   4.993
 5924SOL    HW118146   4.361   0.375   4.963
 5924SOL    HW218147   4.421   0.518   4.913
 5925SOL     OW18148   4.654   1.678   5.189
 5925SOL    HW118149   4.630   1.660   5.094
 5925SOL    HW218150   4.684   1.772   5.199
 5926SOL     OW18151   4.197   0.500   3.915
 5926SOL    HW118152   4.258   0.580   3.919
 5926SOL    HW218153   4.102   0.531   3.922
 5927SOL     OW18154   3.883   1.137   5.190
 5927SOL    HW118155   3.905   1.076   5.266
 5927SOL    HW218156   3.893   1.088   5.104
 5928SOL     OW18157   3.807   1.258   4.746
 5928SOL    HW118158   3.802   1.257   4.846
 5928SOL    HW218159   3.724   1.217   4.708
 5929SOL     OW18160   4.412   1.662   5.440
 5929SOL    HW118161   4.356   1.743   5.449
 5929SOL    HW218162   4.464   1.666   5.354
 5930SOL     OW18163   4.627   0.086   3.857
 5930SOL    HW118164   4.678   0.087   3.771
 5930SOL    HW218165   4.683   0.044   3.928
 5931SOL     OW18166   3.854   1.794   5.575
 5931SOL    HW118167   3.813   1.720   5.628
 5931SOL    HW218168   3.918   1.845   5.633
 5932SOL     OW18169   4.554   1.273   5.146
 5932SOL    HW118170   4.549   1.306   5.241
 5932SOL    HW218171   4.468   1.292   5.100
 5933SOL     OW18172   4.396   1.616   3.878
 5933SOL    HW118173   4.405   1.626   3.779
 5933SOL    HW218174   4.356   1.527   3.899
 5934SOL     OW18175   3.987   0.326   4.444
 5934SOL    HW118176   3.908   0.377   4.410
 5934SOL    HW218177   3.978   0.311   4.542
 5935SOL     OW18178   4.546   1.002   5.096
 5935SOL    HW118179   4.586   1.001   5.004
 5935SOL    HW218180   4.556   1.094   5.136
 5936SOL     OW18181   4.096   1.288   5.214
 5936SOL    HW118182   4.083   1.381   5.180
 5936SOL    HW218183   4.012   1.236   5.201
 5937SOL     OW18184   4.314   1.487   4.215
 5937SOL    HW118185   4.356   1.429   4.145
 5937SOL    HW218186   4.270   1.566   4.171
 5938SOL     OW18187   3.979   1.348   4.014
 5938SOL    HW118188   3.883   1.349   3.987
 5938SOL    HW218189   3.991   1.401   4.098
 5939SOL     OW18190   3.829   1.013   5.450
 5939SOL    HW118191   3.752   0.980   5.504
 5939SOL    HW218192   3.914   0.983   5.492
 5940SOL     OW18193   4.396   0.203   5.213
 5940SOL    HW118194   4.486   0.187   5.173
 5940SOL    HW218195   4.404   0.208   5.312
 5941SOL     OW18196   3.799   0.345   3.757
 5941SOL    HW118197   3.707   0.317   3.728
 5941SOL    HW218198   3.830   0.422   3.701
 5942SOL     OW18199   3.796   0.166   4.042
 5942SOL    HW118200   3.779   0.249   3.988
 5942SOL    HW218201   3.886   0.129   4.020
 5943SOL     OW18202   4.337   0.842   5.155
 5943SOL    HW118203   4.393   0.923   5.138
 5943SOL    HW218204   4.396   0.762   5.158
 5944SOL     OW18205   4.440   0.565   5.432
 5944SOL    HW118206   4.459   0.630   5.506
 5944SOL    HW218207   4.500   0.485   5.441
 5945SOL     OW18208   4.114   1.741   5.284
 5945SOL    HW118209   4.023   1.782   5.282
 5945SOL    HW218210   4.107   1.647   5.316
 5946SOL     OW18211   4.949   0.325   4.173
 5946SOL    HW118212   5.014   0.251   4.162
 5946SOL    HW218213   4.969   0.375   4.257
 5947SOL     OW18214   4.318   0.745   4.376
 5947SOL    HW118215   4.368   0.830   4.357
 5947SOL    HW218216   4.230   0.747   4.328
 5948SOL     OW18217   4.583   1.374   3.740
 5948SOL    HW118218   4.537   1.389   3.828
 5948SOL    HW218219   4.627   1.459   3.710
 5949SOL     OW18220   4.385   1.790   4.677
 5949SOL    HW118221   4.339   1.878   4.664
 5949SOL    HW218222   4.484   1.802   4.670
 5950SOL     OW18223   4.583   0.956   4.585
 5950SOL    HW118224   4.637   0.887   4.633
 5950SOL    HW218225   4.551   1.025   4.651
 5951SOL     OW18226   3.945   1.314   5.568
 5951SOL    HW118227   3.880   1.241   5.547
 5951SOL    HW218228   3.949   1.328   5.666
 5952SOL     OW18229   3.803   1.240   4.377
 5952SOL    HW118230   3.802   1.193   4.465
 5952SOL    HW218231   3.885   1.212   4.326
 5953SOL     OW18232   4.396   1.391   5.348
 5953SOL    HW118233   4.318   1.341   5.386
 5953SOL    HW218234   4.393   1.486   5.379
 5954SOL     OW18235   4.152   0.424   4.244
 5954SOL    HW118236   4.182   0.352   4.182
 5954SOL    HW218237   4.113   0.384   4.327
 5955SOL     OW18238   4.041   0.547   5.004
 5955SOL    HW118239   4.079   0.488   5.076
 5955SOL    HW218240   4.081   0.521   4.916
 5956SOL     OW18241   4.536   1.586   4.411
 5956SOL    HW118242   4.568   1.596   4.317
 5956SOL    HW218243   4.457   1.524   4.413
 5957SOL     OW18244   4.725   0.034   4.878
 5957SOL    HW118245   4.662  -0.038   4.847
 5957SOL    HW218246   4.818  -0.002   4.878
 5958SOL     OW18247   4.494   1.330   4.025
 5958SOL    HW118248   4.448   1.243   4.042
 5958SOL    HW218249   4.585   1.327   4.066
 5959SOL     OW18250   4.342   1.567   5.008
 5959SOL    HW118251   4.337   1.649   5.065
 5959SOL    HW218252   4.431   1.564   4.963
 5960SOL     OW18253   3.763   1.077   4.024
 5960SOL    HW118254   3.862   1.066   4.015
 5960SOL    HW218255   3.723   0.991   4.056
 5961SOL     OW18256   4.599   1.646   4.061
 5961SOL    HW118257   4.522   1.611   4.007
 5961SOL    HW218258   4.567   1.717   4.123
 5962SOL     OW18259   3.954   0.628   5.699
 5962SOL    HW118260   3.861   0.626   5.736
 5962SOL    HW218261   3.955   0.589   5.607
 5963SOL     OW18262   3.949   0.275   6.582
 5963SOL    HW118263   3.984   0.258   6.674
 5963SOL    HW218264   3.861   0.230   6.570
 5964SOL     OW18265   3.743   0.368   6.233
 5964SOL    HW118266   3.661   0.411   6.272
 5964SOL    HW218267   3.715   0.295   6.170
 5965SOL     OW18268   4.293   1.275   6.751
 5965SOL    HW118269   4.200   1.268   6.714
 5965SOL    HW218270   4.304   1.364   6.795
 5966SOL     OW18271   4.492   1.144   6.609
 5966SOL    HW118272   4.414   1.161   6.669
 5966SOL    HW218273   4.526   1.231   6.573
 5967SOL     OW18274   4.574   0.798   7.409
 5967SOL    HW118275   4.570   0.874   7.474
 5967SOL    HW218276   4.596   0.834   7.318
 5968SOL     OW18277   4.409   1.012   6.251
 5968SOL    HW118278   4.478   0.996   6.321
 5968SOL    HW218279   4.336   1.069   6.289
 5969SOL     OW18280   4.410   1.161   7.389
 5969SOL    HW118281   4.470   1.240   7.403
 5969SOL    HW218282   4.324   1.192   7.348
 5970SOL     OW18283   4.059   1.435   6.647
 5970SOL    HW118284   3.981   1.404   6.594
 5970SOL    HW218285   4.117   1.493   6.590
 5971SOL     OW18286   4.162   0.392   7.085
 5971SOL    HW118287   4.244   0.336   7.094
 5971SOL    HW218288   4.081   0.334   7.089
 5972SOL     OW18289   3.955   1.713   6.069
 5972SOL    HW118290   3.989   1.790   6.123
 5972SOL    HW218291   3.999   1.713   5.979
 5973SOL     OW18292   3.954   1.434   6.124
 5973SOL    HW118293   3.928   1.530   6.124
 5973SOL    HW218294   3.883   1.380   6.169
 5974SOL     OW18295   3.964   1.091   6.472
 5974SOL    HW118296   3.978   1.007   6.524
 5974SOL    HW218297   3.909   1.155   6.527
 5975SOL     OW18298   4.344   1.786   7.025
 5975SOL    HW118299   4.252   1.769   7.060
 5975SOL    HW218300   4.372   1.878   7.051
 5976SOL     OW18301   4.330   0.964   5.709
 5976SOL    HW118302   4.337   1.048   5.655
 5976SOL    HW218303   4.376   0.977   5.797
 5977SOL     OW18304   3.846   0.643   6.149
 5977SOL    HW118305   3.801   0.555   6.166
 5977SOL    HW218306   3.845   0.697   6.233
 5978SOL     OW18307   3.751   1.596   5.703
 5978SOL    HW118308   3.732   1.500   5.724
 5978SOL    HW218309   3.718   1.654   5.778
 5979SOL     OW18310   3.837   0.737   7.183
 5979SOL    HW118311   3.925   0.724   7.228
 5979SOL    HW218312   3.824   0.834   7.161
 5980SOL     OW18313   4.337   1.365   6.312
 5980SOL    HW118314   4.288   1.278   6.321
 5980SOL    HW218315   4.314   1.408   6.225
 5981SOL     OW18316   4.533   0.004   6.088
 5981SOL    HW118317   4.573   0.095   6.079
 5981SOL    HW218318   4.433   0.012   6.094
 5982SOL     OW18319   3.921   0.976   6.850
 5982SOL    HW118320   4.010   0.931   6.836
 5982SOL    HW218321   3.848   0.911   6.831
 5983SOL     OW18322   4.041   0.251   7.387
 5983SOL    HW118323   4.112   0.322   7.393
 5983SOL    HW218324   3.953   0.290   7.415
 5984SOL     OW18325   4.322   0.729   5.856
 5984SOL    HW118326   4.346   0.798   5.788
 5984SOL    HW218327   4.244   0.762   5.910
 5985SOL     OW18328   4.531   0.605   7.051
 5985SOL    HW118329   4.484   0.602   7.140
 5985SOL    HW218330   4.480   0.550   6.985
 5986SOL     OW18331   3.800   0.811   6.375
 5986SOL    HW118332   3.899   0.799   6.384
 5986SOL    HW218333   3.776   0.906   6.396
 5987SOL     OW18334   3.854   1.821   7.157
 5987SOL    HW118335   3.844   1.806   7.256
 5987SOL    HW218336   3.768   1.857   7.121
 5988SOL     OW18337   4.589   0.348   5.781
 5988SOL    HW118338   4.648   0.411   5.732
 5988SOL    HW218339   4.608   0.254   5.752
 5989SOL     OW18340   4.274   0.196   6.471
 5989SOL    HW118341   4.269   0.191   6.571
 5989SOL    HW218342   4.276   0.292   6.442
 5990SOL     OW18343   4.732   1.456   6.063
 5990SOL    HW118344   4.686   1.528   6.011
 5990SOL    HW218345   4.728   1.476   6.161
 5991SOL     OW18346   4.075   1.801   6.439
 5991SOL    HW118347   4.125   1.715   6.445
 5991SOL    HW218348   4.140   1.878   6.436
 5992SOL     OW18349   4.045   0.943   5.828
 5992SOL    HW118350   4.127   0.982   5.786
 5992SOL    HW218351   4.018   0.861   5.779
 5993SOL     OW18352   4.185   1.266   7.313
 5993SOL    HW118353   4.135   1.267   7.227
 5993SOL    HW218354   4.122   1.248   7.389
 5994SOL     OW18355   3.926   0.285   7.084
 5994SOL    HW118356   3.846   0.345   7.071
 5994SOL    HW218357   3.916   0.236   7.170
 5995SOL     OW18358   4.188   1.743   5.909
 5995SOL    HW118359   4.221   1.782   5.995
 5995SOL    HW218360   4.264   1.736   5.844
 5996SOL     OW18361   3.973   1.785   6.827
 5996SOL    HW118362   4.030   1.720   6.877
 5996SOL    HW218363   3.957   1.752   6.734
 5997SOL     OW18364   4.106   0.700   6.066
 5997SOL    HW118365   4.151   0.610   6.063
 5997SOL    HW218366   4.012   0.689   6.099
 5998SOL     OW18367   4.338   0.122   5.703
 5998SOL    HW118368   4.436   0.100   5.710
 5998SOL    HW218369   4.307   0.105   5.610
 5999SOL     OW18370   4.505   0.264   7.335
 5999SOL    HW118371   4.572   0.203   7.378
 5999SOL    HW218372   4.432   0.283   7.400
 6000SOL     OW18373   4.612   1.514   6.781
 6000SOL    HW118374   4.589   1.489   6.687
 6000SOL    HW218375   4.673   1.445   6.820
 6001SOL     OW18376   4.527   1.402   6.510
 6001SOL    HW118377   4.617   1.416   6.468
 6001SOL    HW218378   4.456   1.404   6.439
 6002SOL     OW18379   4.646   0.503   6.485
 6002SOL    HW118380   4.621   0.494   6.389
 6002SOL    HW218381   4.694   0.421   6.516
 6003SOL     OW18382   4.263   0.064   6.098
 6003SOL    HW118383   4.182   0.065   6.156
 6003SOL    HW218384   4.266   0.147   6.043
 6004SOL     OW18385   4.021   0.035   5.757
 6004SOL    HW118386   4.070   0.119   5.736
 6004SOL    HW218387   4.083  -0.030   5.802
 6005SOL     OW18388   4.951   1.570   6.379
 6005SOL    HW118389   4.972   1.644   6.314
 6005SOL    HW218390   5.019   1.570   6.452
 6006SOL     OW18391   4.183   1.152   6.327
 6006SOL    HW118392   4.112   1.125   6.392
 6006SOL    HW218393   4.157   1.124   6.234
 6007SOL     OW18394   3.802   0.556   6.972
 6007SOL    HW118395   3.894   0.555   6.931
 6007SOL    HW218396   3.796   0.630   7.039
 6008SOL     OW18397   4.285   0.222   6.733
 6008SOL    HW118398   4.323   0.138   6.770
 6008SOL    HW218399   4.197   0.241   6.777
 6009SOL     OW18400   4.212   1.385   5.760
 6009SOL    HW118401   4.125   1.370   5.807
 6009SOL    HW218402   4.195   1.411   5.665
 6010SOL     OW18403   4.251   0.256   5.914
 6010SOL    HW118404   4.278   0.197   5.839
 6010SOL    HW218405   4.251   0.351   5.883
 6011SOL     OW18406   4.639   0.089   6.988
 6011SOL    HW118407   4.664   0.069   6.893
 6011SOL    HW218408   4.711   0.145   7.030
 6012SOL     OW18409   4.429   1.050   5.954
 6012SOL    HW118410   4.415   1.057   6.053
 6012SOL    HW218411   4.513   0.999   5.936
 6013SOL     OW18412   4.134   0.813   6.837
 6013SOL    HW118413   4.220   0.825   6.887
 6013SOL    HW218414   4.092   0.726   6.864
 6014SOL     OW18415   3.788   1.564   6.917
 6014SOL    HW118416   3.742   1.646   6.883
 6014SOL    HW218417   3.886   1.583   6.926
 6015SOL     OW18418   4.091   1.100   6.087
 6015SOL    HW118419   4.084   1.183   6.031
 6015SOL    HW218420   4.095   1.020   6.027
 6016SOL     OW18421   4.290   0.537   6.451
 6016SOL    HW118422   4.302   0.603   6.377
 6016SOL    HW218423   4.336   0.571   6.534
 6017SOL     OW18424   4.078   1.510   6.915
 6017SOL    HW118425   4.057   1.466   6.828
 6017SOL    HW218426   4.175   1.536   6.918
 6018SOL     OW18427   4.126   0.751   7.184
 6018SOL    HW118428   4.194   0.806   7.137
 6018SOL    HW218429   4.166   0.663   7.211
 6019SOL     OW18430   4.228   0.050   7.326
 6019SOL    HW118431   4.186  -0.007   7.256
 6019SOL    HW218432   4.162   0.119   7.358
 6020SOL     OW18433   4.297   0.870   6.615
 6020SOL    HW118434   4.341   0.959   6.606
 6020SOL    HW218435   4.234   0.870   6.692
 6021SOL     OW18436   4.933   0.525   5.861
 6021SOL    HW118437   4.946   0.441   5.915
 6021SOL    HW218438   4.904   0.599   5.921
 6022SOL     OW18439   4.031   0.213   6.817
 6022SOL    HW118440   4.008   0.250   6.907
 6022SOL    HW218441   4.001   0.118   6.811
 6023SOL     OW18442   3.761   1.310   6.868
 6023SOL    HW118443   3.814   1.261   6.936
 6023SOL    HW218444   3.783   1.408   6.873
 6024SOL     OW18445   4.456   0.634   6.650
 6024SOL    HW118446   4.515   0.608   6.574
 6024SOL    HW218447   4.428   0.730   6.639
 6025SOL     OW18448   4.031   0.063   6.204
 6025SOL    HW118449   4.020   0.157   6.237
 6025SOL    HW218450   4.026   0.000   6.281
 6026SOL     OW18451   4.747   0.766   6.552
 6026SOL    HW118452   4.762   0.787   6.648
 6026SOL    HW218453   4.717   0.671   6.543
 6027SOL     OW18454   4.704   1.573   7.286
 6027SOL    HW118455   4.684   1.617   7.198
 6027SOL    HW218456   4.743   1.482   7.270
 6028SOL     OW18457   4.074   0.898   7.390
 6028SOL    HW118458   4.150   0.942   7.438
 6028SOL    HW218459   4.109   0.851   7.308
 6029SOL     OW18460   4.043   0.810   6.535
 6029SOL    HW118461   4.136   0.846   6.540
 6029SOL    HW218462   4.037   0.725   6.587
 6030SOL     OW18463   4.063   0.509   6.592
 6030SOL    HW118464   4.011   0.426   6.575
 6030SOL    HW218465   4.140   0.514   6.528
 6031SOL     OW18466   3.732   1.326   5.786
 6031SOL    HW118467   3.639   1.347   5.755
 6031SOL    HW218468   3.742   1.227   5.799
 6032SOL     OW18469   3.812   1.801   6.513
 6032SOL    HW118470   3.770   1.715   6.486
 6032SOL    HW218471   3.906   1.804   6.479
 6033SOL     OW18472   4.228   1.568   6.496
 6033SOL    HW118473   4.294   1.642   6.505
 6033SOL    HW218474   4.272   1.489   6.454
 6034SOL     OW18475   4.726   0.796   6.824
 6034SOL    HW118476   4.767   0.764   6.910
 6034SOL    HW218477   4.630   0.769   6.821
 6035SOL     OW18478   3.764   0.544   6.700
 6035SOL    HW118479   3.849   0.511   6.659
 6035SOL    HW218480   3.777   0.559   6.798
 6036SOL     OW18481   3.913   0.520   7.308
 6036SOL    HW118482   3.972   0.480   7.238
 6036SOL    HW218483   3.855   0.591   7.267
 6037SOL     OW18484   4.539   0.572   5.911
 6037SOL    HW118485   4.546   0.483   5.865
 6037SOL    HW218486   4.445   0.606   5.903
 6038SOL     OW18487   3.976   1.564   7.330
 6038SOL    HW118488   3.946   1.621   7.406
 6038SOL    HW218489   3.969   1.467   7.356
 6039SOL     OW18490   4.395   0.464   6.855
 6039SOL    HW118491   4.361   0.375   6.825
 6039SOL    HW218492   4.421   0.518   6.775
 6040SOL     OW18493   4.654   1.678   7.051
 6040SOL    HW118494   4.630   1.660   6.956
 6040SOL    HW218495   4.684   1.772   7.061
 6041SOL     OW18496   4.197   0.500   5.777
 6041SOL    HW118497   4.258   0.580   5.781
 6041SOL    HW218498   4.102   0.531   5.784
 6042SOL     OW18499   3.883   1.137   7.052
 6042SOL    HW118500   3.905   1.076   7.128
 6042SOL    HW218501   3.893   1.088   6.966
 6043SOL     OW18502   3.807   1.258   6.608
 6043SOL    HW118503   3.802   1.257   6.708
 6043SOL    HW218504   3.724   1.217   6.570
 6044SOL     OW18505   4.412   1.662   7.302
 6044SOL    HW118506   4.356   1.743   7.311
 6044SOL    HW218507   4.464   1.666   7.216
 6045SOL     OW18508   4.627   0.086   5.719
 6045SOL    HW118509   4.678   0.087   5.633
 6045SOL    HW218510   4.683   0.044   5.790
 6046SOL     OW18511   3.854   1.794   7.437
 6046SOL    HW118512   3.813   1.720   7.490
 6046SOL    HW218513   3.918   1.845   7.495
 6047SOL     OW18514   4.554   1.273   7.008
 6047SOL    HW118515   4.549   1.306   7.103
 6047SOL    HW218516   4.468   1.292   6.962
 6048SOL     OW18517   4.396   1.616   5.740
 6048SOL    HW118518   4.405   1.626   5.641
 6048SOL    HW218519   4.356   1.527   5.761
 6049SOL     OW18520   3.987   0.326   6.306
 6049SOL    HW118521   3.908   0.377   6.272
 6049SOL    HW218522   3.978   0.311   6.404
 6050SOL     OW18523   4.546   1.002   6.958
 6050SOL    HW118524   4.586   1.001   6.866
 6050SOL    HW218525   4.556   1.094   6.998
 6051SOL     OW18526   4.096   1.288   7.076
 6051SOL    HW118527   4.083   1.381   7.042
 6051SOL    HW218528   4.012   1.236   7.063
 6052SOL     OW18529   4.314   1.487   6.077
 6052SOL    HW118530   4.356   1.429   6.007
 6052SOL    HW218531   4.270   1.566   6.033
 6053SOL     OW18532   3.979   1.348   5.876
 6053SOL    HW118533   3.883   1.349   5.849
 6053SOL    HW218534   3.991   1.401   5.960
 6054SOL     OW18535   3.829   1.013   7.312
 6054SOL    HW118536   3.752   0.980   7.366
 6054SOL    HW218537   3.914   0.983   7.354
 6055SOL     OW18538   4.396   0.203   7.075
 6055SOL    HW118539   4.486   0.187   7.035
 6055SOL    HW218540   4.404   0.208   7.174
 6056SOL     OW18541   3.799   0.345   5.619
 6056SOL    HW118542   3.707   0.317   5.590
 6056SOL    HW218543   3.830   0.422   5.563
 6057SOL     OW18544   3.796   0.166   5.904
 6057SOL    HW118545   3.779   0.249   5.850
 6057SOL    HW218546   3.886   0.129   5.882
 6058SOL     OW18547   4.337   0.842   7.017
 6058SOL    HW118548   4.393   0.923   7.000
 6058SOL    HW218549   4.396   0.762   7.020
 6059SOL     OW18550   4.440   0.565   7.294
 6059SOL    HW118551   4.459   0.630   7.368
 6059SOL    HW218552   4.500   0.485   7.303
 6060SOL     OW18553   4.114   1.741   7.146
 6060SOL    HW118554   4.023   1.782   7.144
 6060SOL    HW218555   4.107   1.647   7.178
 6061SOL     OW18556   4.949   0.325   6.035
 6061SOL    HW118557   5.014   0.251   6.024
 6061SOL    HW218558   4.969   0.375   6.119
 6062SOL     OW18559   4.318   0.745   6.238
 6062SOL    HW118560   4.368   0.830   6.219
 6062SOL    HW218561   4.230   0.747   6.190
 6063SOL     OW18562   4.583   1.374   5.602
 6063SOL    HW118563   4.537   1.389   5.690
 6063SOL    HW218564   4.627   1.459   5.572
 6064SOL     OW18565   4.385   1.790   6.539
 6064SOL    HW118566   4.339   1.878   6.526
 6064SOL    HW218567   4.484   1.802   6.532
 6065SOL     OW18568   4.583   0.956   6.447
 6065SOL    HW118569   4.637   0.887   6.495
 6065SOL    HW218570   4.551   1.025   6.513
 6066SOL     OW18571   3.945   1.314   7.430
 6066SOL    HW118572   3.880   1.241   7.409
 6066SOL    HW218573   3.949   1.328   7.528
 6067SOL     OW18574   3.803   1.240   6.239
 6067SOL    HW118575   3.802   1.193   6.327
 6067SOL    HW218576   3.885   1.212   6.188
 6068SOL     OW18577   4.396   1.391   7.210
 6068SOL    HW118578   4.318   1.341   7.248
 6068SOL    HW218579   4.393   1.486   7.241
 6069SOL     OW18580   4.152   0.424   6.106
 6069SOL    HW118581   4.182   0.352   6.044
 6069SOL    HW218582   4.113   0.384   6.189
 6070SOL     OW18583   4.041   0.547   6.866
 6070SOL    HW118584   4.079   0.488   6.938
 6070SOL    HW218585   4.081   0.521   6.778
 6071SOL     OW18586   4.536   1.586   6.273
 6071SOL    HW118587   4.568   1.596   6.179
 6071SOL    HW218588   4.457   1.524   6.275
 6072SOL     OW18589   4.725   0.034   6.740
 6072SOL    HW118590   4.662  -0.038   6.709
 6072SOL    HW218591   4.818  -0.002   6.740
 6073SOL     OW18592   4.494   1.330   5.887
 6073SOL    HW118593   4.448   1.243   5.904
 6073SOL    HW218594   4.585   1.327   5.928
 6074SOL     OW18595   4.342   1.567   6.870
 6074SOL    HW118596   4.337   1.649   6.927
 6074SOL    HW218597   4.431   1.564   6.825
 6075SOL     OW18598   3.763   1.077   5.886
 6075SOL    HW118599   3.862   1.066   5.877
 6075SOL    HW218600   3.723   0.991   5.918
 6076SOL     OW18601   4.599   1.646   5.923
 6076SOL    HW118602   4.522   1.611   5.869
 6076SOL    HW218603   4.567   1.717   5.985
 6077SOL     OW18604   3.954   0.628   7.561
 6077SOL    HW118605   3.861   0.626   7.598
 6077SOL    HW218606   3.955   0.589   7.469
 6078SOL     OW18607   3.949   0.275   8.444
 6078SOL    HW118608   3.984   0.258   8.536
 6078SOL    HW218609   3.861   0.230   8.432
 6079SOL     OW18610   3.743   0.368   8.095
 6079SOL    HW118611   3.661   0.411   8.134
 6079SOL    HW218612   3.715   0.295   8.032
 6080SOL     OW18613   4.293   1.275   8.613
 6080SOL    HW118614   4.200   1.268   8.576
 6080SOL    HW218615   4.304   1.364   8.657
 6081SOL     OW18616   4.492   1.144   8.471
 6081SOL    HW118617   4.414   1.161   8.531
 6081SOL    HW218618   4.526   1.231   8.435
 6082SOL     OW18619   4.574   0.798   9.271
 6082SOL    HW118620   4.570   0.874   9.336
 6082SOL    HW218621   4.596   0.834   9.180
 6083SOL     OW18622   4.409   1.012   8.113
 6083SOL    HW118623   4.478   0.996   8.183
 6083SOL    HW218624   4.336   1.069   8.151
 6084SOL     OW18625   4.410   1.161   9.251
 6084SOL    HW118626   4.470   1.240   9.265
 6084SOL    HW218627   4.324   1.192   9.210
 6085SOL     OW18628   4.059   1.435   8.509
 6085SOL    HW118629   3.981   1.404   8.456
 6085SOL    HW218630   4.117   1.493   8.452
 6086SOL     OW18631   4.162   0.392   8.947
 6086SOL    HW118632   4.244   0.336   8.956
 6086SOL    HW218633   4.081   0.334   8.951
 6087SOL     OW18634   3.955   1.713   7.931
 6087SOL    HW118635   3.989   1.790   7.985
 6087SOL    HW218636   3.999   1.713   7.841
 6088SOL     OW18637   3.954   1.434   7.986
 6088SOL    HW118638   3.928   1.530   7.986
 6088SOL    HW218639   3.883   1.380   8.031
 6089SOL     OW18640   3.964   1.091   8.334
 6089SOL    HW118641   3.978   1.007   8.386
 6089SOL    HW218642   3.909   1.155   8.389
 6090SOL     OW18643   4.344   1.786   8.887
 6090SOL    HW118644   4.252   1.769   8.922
 6090SOL    HW218645   4.372   1.878   8.913
 6091SOL     OW18646   4.330   0.964   7.571
 6091SOL    HW118647   4.337   1.048   7.517
 6091SOL    HW218648   4.376   0.977   7.659
 6092SOL     OW18649   3.846   0.643   8.011
 6092SOL    HW118650   3.801   0.555   8.028
 6092SOL    HW218651   3.845   0.697   8.095
 6093SOL     OW18652   3.751   1.596   7.565
 6093SOL    HW118653   3.732   1.500   7.586
 6093SOL    HW218654   3.718   1.654   7.640
 6094SOL     OW18655   3.837   0.737   9.045
 6094SOL    HW118656   3.925   0.724   9.090
 6094SOL    HW218657   3.824   0.834   9.023
 6095SOL     OW18658   4.337   1.365   8.174
 6095SOL    HW118659   4.288   1.278   8.183
 6095SOL    HW218660   4.314   1.408   8.087
 6096SOL     OW18661   4.533   0.004   7.950
 6096SOL    HW118662   4.573   0.095   7.941
 6096SOL    HW218663   4.433   0.012   7.956
 6097SOL     OW18664   3.921   0.976   8.712
 6097SOL    HW118665   4.010   0.931   8.698
 6097SOL    HW218666   3.848   0.911   8.693
 6098SOL     OW18667   4.041   0.251   9.249
 6098SOL    HW118668   4.112   0.322   9.255
 6098SOL    HW218669   3.953   0.290   9.277
 6099SOL     OW18670   4.322   0.729   7.718
 6099SOL    HW118671   4.346   0.798   7.650
 6099SOL    HW218672   4.244   0.762   7.772
 6100SOL     OW18673   4.531   0.605   8.913
 6100SOL    HW118674   4.484   0.602   9.002
 6100SOL    HW218675   4.480   0.550   8.847
 6101SOL     OW18676   3.800   0.811   8.237
 6101SOL    HW118677   3.899   0.799   8.246
 6101SOL    HW218678   3.776   0.906   8.258
 6102SOL     OW18679   3.854   1.821   9.019
 6102SOL    HW118680   3.844   1.806   9.118
 6102SOL    HW218681   3.768   1.857   8.983
 6103SOL     OW18682   4.589   0.348   7.643
 6103SOL    HW118683   4.648   0.411   7.594
 6103SOL    HW218684   4.608   0.254   7.614
 6104SOL     OW18685   4.274   0.196   8.333
 6104SOL    HW118686   4.269   0.191   8.433
 6104SOL    HW218687   4.276   0.292   8.304
 6105SOL     OW18688   4.732   1.456   7.925
 6105SOL    HW118689   4.686   1.528   7.873
 6105SOL    HW218690   4.728   1.476   8.023
 6106SOL     OW18691   4.075   1.801   8.301
 6106SOL    HW118692   4.125   1.715   8.307
 6106SOL    HW218693   4.140   1.878   8.298
 6107SOL     OW18694   4.045   0.943   7.690
 6107SOL    HW118695   4.127   0.982   7.648
 6107SOL    HW218696   4.018   0.861   7.641
 6108SOL     OW18697   4.185   1.266   9.175
 6108SOL    HW118698   4.135   1.267   9.089
 6108SOL    HW218699   4.122   1.248   9.251
 6109SOL     OW18700   3.926   0.285   8.946
 6109SOL    HW118701   3.846   0.345   8.933
 6109SOL    HW218702   3.916   0.236   9.032
 6110SOL     OW18703   4.188   1.743   7.771
 6110SOL    HW118704   4.221   1.782   7.857
 6110SOL    HW218705   4.264   1.736   7.706
 6111SOL     OW18706   3.973   1.785   8.689
 6111SOL    HW118707   4.030   1.720   8.739
 6111SOL    HW218708   3.957   1.752   8.596
 6112SOL     OW18709   4.106   0.700   7.928
 6112SOL    HW118710   4.151   0.610   7.925
 6112SOL    HW218711   4.012   0.689   7.961
 6113SOL     OW18712   4.338   0.122   7.565
 6113SOL    HW118713   4.436   0.100   7.572
 6113SOL    HW218714   4.307   0.105   7.472
 6114SOL     OW18715   4.505   0.264   9.197
 6114SOL    HW118716   4.572   0.203   9.240
 6114SOL    HW218717   4.432   0.283   9.262
 6115SOL     OW18718   4.612   1.514   8.643
 6115SOL    HW118719   4.589   1.489   8.549
 6115SOL    HW218720   4.673   1.445   8.682
 6116SOL     OW18721   4.527   1.402   8.372
 6116SOL    HW118722   4.617   1.416   8.330
 6116SOL    HW218723   4.456   1.404   8.301
 6117SOL     OW18724   4.646   0.503   8.347
 6117SOL    HW118725   4.621   0.494   8.251
 6117SOL    HW218726   4.694   0.421   8.378
 6118SOL     OW18727   4.263   0.064   7.960
 6118SOL    HW118728   4.182   0.065   8.018
 6118SOL    HW218729   4.266   0.147   7.905
 6119SOL     OW18730   4.021   0.035   7.619
 6119SOL    HW118731   4.070   0.119   7.598
 6119SOL    HW218732   4.083  -0.030   7.664
 6120SOL     OW18733   4.951   1.570   8.241
 6120SOL    HW118734   4.972   1.644   8.176
 6120SOL    HW218735   5.019   1.570   8.314
 6121SOL     OW18736   4.183   1.152   8.189
 6121SOL    HW118737   4.112   1.125   8.254
 6121SOL    HW218738   4.157   1.124   8.096
 6122SOL     OW18739   3.802   0.556   8.834
 6122SOL    HW118740   3.894   0.555   8.793
 6122SOL    HW218741   3.796   0.630   8.901
 6123SOL     OW18742   4.285   0.222   8.595
 6123SOL    HW118743   4.323   0.138   8.632
 6123SOL    HW218744   4.197   0.241   8.639
 6124SOL     OW18745   4.212   1.385   7.622
 6124SOL    HW118746   4.125   1.370   7.669
 6124SOL    HW218747   4.195   1.411   7.527
 6125SOL     OW18748   4.251   0.256   7.776
 6125SOL    HW118749   4.278   0.197   7.701
 6125SOL    HW218750   4.251   0.351   7.745
 6126SOL     OW18751   4.639   0.089   8.850
 6126SOL    HW118752   4.664   0.069   8.755
 6126SOL    HW218753   4.711   0.145   8.892
 6127SOL     OW18754   4.429   1.050   7.816
 6127SOL    HW118755   4.415   1.057   7.915
 6127SOL    HW218756   4.513   0.999   7.798
 6128SOL     OW18757   4.134   0.813   8.699
 6128SOL    HW118758   4.220   0.825   8.749
 6128SOL    HW218759   4.092   0.726   8.726
 6129SOL     OW18760   3.788   1.564   8.779
 6129SOL    HW118761   3.742   1.646   8.745
 6129SOL    HW218762   3.886   1.583   8.788
 6130SOL     OW18763   4.091   1.100   7.949
 6130SOL    HW118764   4.084   1.183   7.893
 6130SOL    HW218765   4.095   1.020   7.889
 6131SOL     OW18766   4.290   0.537   8.313
 6131SOL    HW118767   4.302   0.603   8.239
 6131SOL    HW218768   4.336   0.571   8.396
 6132SOL     OW18769   4.078   1.510   8.777
 6132SOL    HW118770   4.057   1.466   8.690
 6132SOL    HW218771   4.175   1.536   8.780
 6133SOL     OW18772   4.126   0.751   9.046
 6133SOL    HW118773   4.194   0.806   8.999
 6133SOL    HW218774   4.166   0.663   9.073
 6134SOL     OW18775   4.228   0.050   9.188
 6134SOL    HW118776   4.186  -0.007   9.118
 6134SOL    HW218777   4.162   0.119   9.220
 6135SOL     OW18778   4.297   0.870   8.477
 6135SOL    HW118779   4.341   0.959   8.468
 6135SOL    HW218780   4.234   0.870   8.554
 6136SOL     OW18781   4.933   0.525   7.723
 6136SOL    HW118782   4.946   0.441   7.777
 6136SOL    HW218783   4.904   0.599   7.783
 6137SOL     OW18784   4.031   0.213   8.679
 6137SOL    HW118785   4.008   0.250   8.769
 6137SOL    HW218786   4.001   0.118   8.673
 6138SOL     OW18787   3.761   1.310   8.730
 6138SOL    HW118788   3.814   1.261   8.798
 6138SOL    HW218789   3.783   1.408   8.735
 6139SOL     OW18790   4.456   0.634   8.512
 6139SOL    HW118791   4.515   0.608   8.436
 6139SOL    HW218792   4.428   0.730   8.501
 6140SOL     OW18793   4.031   0.063   8.066
 6140SOL    HW118794   4.020   0.157   8.099
 6140SOL    HW218795   4.026   0.000   8.143
 6141SOL     OW18796   4.747   0.766   8.414
 6141SOL    HW118797   4.762   0.787   8.510
 6141SOL    HW218798   4.717   0.671   8.405
 6142SOL     OW18799   4.704   1.573   9.148
 6142SOL    HW118800   4.684   1.617   9.060
 6142SOL    HW218801   4.743   1.482   9.132
 6143SOL     OW18802   4.074   0.898   9.252
 6143SOL    HW118803   4.150   0.942   9.300
 6143SOL    HW218804   4.109   0.851   9.170
 6144SOL     OW18805   4.043   0.810   8.397
 6144SOL    HW118806   4.136   0.846   8.402
 6144SOL    HW218807   4.037   0.725   8.449
 6145SOL     OW18808   4.063   0.509   8.454
 6145SOL    HW118809   4.011   0.426   8.437
 6145SOL    HW218810   4.140   0.514   8.390
 6146SOL     OW18811   3.732   1.326   7.648
 6146SOL    HW118812   3.639   1.347   7.617
 6146SOL    HW218813   3.742   1.227   7.661
 6147SOL     OW18814   3.812   1.801   8.375
 6147SOL    HW118815   3.770   1.715   8.348
 6147SOL    HW218816   3.906   1.804   8.341
 6148SOL     OW18817   4.228   1.568   8.358
 6148SOL    HW118818   4.294   1.642   8.367
 6148SOL    HW218819   4.272   1.489   8.316
 6149SOL     OW18820   4.726   0.796   8.686
 6149SOL    HW118821   4.767   0.764   8.772
 6149SOL    HW218822   4.630   0.769   8.683
 6150SOL     OW18823   3.764   0.544   8.562
 6150SOL    HW118824   3.849   0.511   8.521
 6150SOL    HW218825   3.777   0.559   8.660
 6151SOL     OW18826   3.913   0.520   9.170
 6151SOL    HW118827   3.972   0.480   9.100
 6151SOL    HW218828   3.855   0.591   9.129
 6152SOL     OW18829   4.539   0.572   7.773
 6152SOL    HW118830   4.546   0.483   7.727
 6152SOL    HW218831   4.445   0.606   7.765
 6153SOL     OW18832   3.976   1.564   9.192
 6153SOL    HW118833   3.946   1.621   9.268
 6153SOL    HW218834   3.969   1.467   9.218
 6154SOL     OW18835   4.395   0.464   8.717
 6154SOL    HW118836   4.361   0.375   8.687
 6154SOL    HW218837   4.421   0.518   8.637
 6155SOL     OW18838   4.654   1.678   8.913
 6155SOL    HW118839   4.630   1.660   8.818
 6155SOL    HW218840   4.684   1.772   8.923
 6156SOL     OW18841   4.197   0.500   7.639
 6156SOL    HW118842   4.258   0.580   7.643
 6156SOL    HW218843   4.102   0.531   7.646
 6157SOL     OW18844   3.883   1.137   8.914
 6157SOL    HW118845   3.905   1.076   8.990
 6157SOL    HW218846   3.893   1.088   8.828
 6158SOL     OW18847   3.807   1.258   8.470
 6158SOL    HW118848   3.802   1.257   8.570
 6158SOL    HW218849   3.724   1.217   8.432
 6159SOL     OW18850   4.412   1.662   9.164
 6159SOL    HW118851   4.356   1.743   9.173
 6159SOL    HW218852   4.464   1.666   9.078
 6160SOL     OW18853   4.627   0.086   7.581
 6160SOL    HW118854   4.678   0.087   7.495
 6160SOL    HW218855   4.683   0.044   7.652
 6161SOL     OW18856   3.854   1.794   9.299
 6161SOL    HW118857   3.813   1.720   9.352
 6161SOL    HW218858   3.918   1.845   9.357
 6162SOL     OW18859   4.554   1.273   8.870
 6162SOL    HW118860   4.549   1.306   8.965
 6162SOL    HW218861   4.468   1.292   8.824
 6163SOL     OW18862   4.396   1.616   7.602
 6163SOL    HW118863   4.405   1.626   7.503
 6163SOL    HW218864   4.356   1.527   7.623
 6164SOL     OW18865   3.987   0.326   8.168
 6164SOL    HW118866   3.908   0.377   8.134
 6164SOL    HW218867   3.978   0.311   8.266
 6165SOL     OW18868   4.546   1.002   8.820
 6165SOL    HW118869   4.586   1.001   8.728
 6165SOL    HW218870   4.556   1.094   8.860
 6166SOL     OW18871   4.096   1.288   8.938
 6166SOL    HW118872   4.083   1.381   8.904
 6166SOL    HW218873   4.012   1.236   8.925
 6167SOL     OW18874   4.314   1.487   7.939
 6167SOL    HW118875   4.356   1.429   7.869
 6167SOL    HW218876   4.270   1.566   7.895
 6168SOL     OW18877   3.979   1.348   7.738
 6168SOL    HW118878   3.883   1.349   7.711
 6168SOL    HW218879   3.991   1.401   7.822
 6169SOL     OW18880   3.829   1.013   9.174
 6169SOL    HW118881   3.752   0.980   9.228
 6169SOL    HW218882   3.914   0.983   9.216
 6170SOL     OW18883   4.396   0.203   8.937
 6170SOL    HW118884   4.486   0.187   8.897
 6170SOL    HW218885   4.404   0.208   9.036
 6171SOL     OW18886   3.799   0.345   7.481
 6171SOL    HW118887   3.707   0.317   7.452
 6171SOL    HW218888   3.830   0.422   7.425
 6172SOL     OW18889   3.796   0.166   7.766
 6172SOL    HW118890   3.779   0.249   7.712
 6172SOL    HW218891   3.886   0.129   7.744
 6173SOL     OW18892   4.337   0.842   8.879
 6173SOL    HW118893   4.393   0.923   8.862
 6173SOL    HW218894   4.396   0.762   8.882
 6174SOL     OW18895   4.440   0.565   9.156
 6174SOL    HW118896   4.459   0.630   9.230
 6174SOL    HW218897   4.500   0.485   9.165
 6175SOL     OW18898   4.114   1.741   9.008
 6175SOL    HW118899   4.023   1.782   9.006
 6175SOL    HW218900   4.107   1.647   9.040
 6176SOL     OW18901   4.949   0.325   7.897
 6176SOL    HW118902   5.014   0.251   7.886
 6176SOL    HW218903   4.969   0.375   7.981
 6177SOL     OW18904   4.318   0.745   8.100
 6177SOL    HW118905   4.368   0.830   8.081
 6177SOL    HW218906   4.230   0.747   8.052
 6178SOL     OW18907   4.583   1.374   7.464
 6178SOL    HW118908   4.537   1.389   7.552
 6178SOL    HW218909   4.627   1.459   7.434
 6179SOL     OW18910   4.385   1.790   8.401
 6179SOL    HW118911   4.339   1.878   8.388
 6179SOL    HW218912   4.484   1.802   8.394
 6180SOL     OW18913   4.583   0.956   8.309
 6180SOL    HW118914   4.637   0.887   8.357
 6180SOL    HW218915   4.551   1.025   8.375
 6181SOL     OW18916   3.945   1.314   9.292
 6181SOL    HW118917   3.880   1.241   9.271
 6181SOL    HW218918   3.949   1.328   9.390
 6182SOL     OW18919   3.803   1.240   8.101
 6182SOL    HW118920   3.802   1.193   8.189
 6182SOL    HW218921   3.885   1.212   8.050
 6183SOL     OW18922   4.396   1.391   9.072
 6183SOL    HW118923   4.318   1.341   9.110
 6183SOL    HW218924   4.393   1.486   9.103
 6184SOL     OW18925   4.152   0.424   7.968
 6184SOL    HW118926   4.182   0.352   7.906
 6184SOL    HW218927   4.113   0.384   8.051
 6185SOL     OW18928   4.041   0.547   8.728
 6185SOL    HW118929   4.079   0.488   8.800
 6185SOL    HW218930   4.081   0.521   8.640
 6186SOL     OW18931   4.536   1.586   8.135
 6186SOL    HW118932   4.568   1.596   8.041
 6186SOL    HW218933   4.457   1.524   8.137
 6187SOL     OW18934   4.725   0.034   8.602
 6187SOL    HW118935   4.662  -0.038   8.571
 6187SOL    HW218936   4.818  -0.002   8.602
 6188SOL     OW18937   4.494   1.330   7.749
 6188SOL    HW118938   4.448   1.243   7.766
 6188SOL    HW218939   4.585   1.327   7.790
 6189SOL     OW18940   4.342   1.567   8.732
 6189SOL    HW118941   4.337   1.649   8.789
 6189SOL    HW218942   4.431   1.564   8.687
 6190SOL     OW18943   3.763   1.077   7.748
 6190SOL    HW118944   3.862   1.066   7.739
 6190SOL    HW218945   3.723   0.991   7.780
 6191SOL     OW18946   4.599   1.646   7.785
 6191SOL    HW118947   4.522   1.611   7.731
 6191SOL    HW218948   4.567   1.717   7.847
 6192SOL     OW18949   3.954   0.628   9.423
 6192SOL    HW118950   3.861   0.626   9.460
 6192SOL    HW218951   3.955   0.589   9.331
 6193SOL     OW18952   3.955   1.713   9.793
 6193SOL    HW118953   3.989   1.790   9.847
 6193SOL    HW218954   3.999   1.713   9.703
 6194SOL     OW18955   3.954   1.434   9.848
 6194SOL    HW118956   3.928   1.530   9.848
 6194SOL    HW218957   3.883   1.380   9.893
 6195SOL     OW18958   4.330   0.964   9.433
 6195SOL    HW118959   4.337   1.048   9.379
 6195SOL    HW218960   4.376   0.977   9.521
 6196SOL     OW18961   3.846   0.643   9.873
 6196SOL    HW118962   3.801   0.555   9.890
 6196SOL    HW218963   3.845   0.697   9.957
 6197SOL     OW18964   3.751   1.596   9.427
 6197SOL    HW118965   3.732   1.500   9.448
 6197SOL    HW218966   3.718   1.654   9.502
 6198SOL     OW18967   4.337   1.365  10.036
 6198SOL    HW118968   4.288   1.278  10.045
 6198SOL    HW218969   4.314   1.408   9.949
 6199SOL     OW18970   4.533   0.004   9.812
 6199SOL    HW118971   4.573   0.095   9.803
 6199SOL    HW218972   4.433   0.012   9.818
 6200SOL     OW18973   4.322   0.729   9.580
 6200SOL    HW118974   4.346   0.798   9.512
 6200SOL    HW218975   4.244   0.762   9.634
 6201SOL     OW18976   3.800   0.811  10.099
 6201SOL    HW118977   3.899   0.799  10.108
 6201SOL    HW218978   3.776   0.906  10.120
 6202SOL     OW18979   4.589   0.348   9.505
 6202SOL    HW118980   4.648   0.411   9.456
 6202SOL    HW218981   4.608   0.254   9.476
 6203SOL     OW18982   4.732   1.456   9.787
 6203SOL    HW118983   4.686   1.528   9.735
 6203SOL    HW218984   4.728   1.476   9.885
 6204SOL     OW18985   4.045   0.943   9.552
 6204SOL    HW118986   4.127   0.982   9.510
 6204SOL    HW218987   4.018   0.861   9.503
 6205SOL     OW18988   4.188   1.743   9.633
 6205SOL    HW118989   4.221   1.782   9.719
 6205SOL    HW218990   4.264   1.736   9.568
 6206SOL     OW18991   4.106   0.700   9.790
 6206SOL    HW118992   4.151   0.610   9.787
 6206SOL    HW218993   4.012   0.689   9.823
 6207SOL     OW18994   4.338   0.122   9.427
 6207SOL    HW118995   4.436   0.100   9.434
 6207SOL    HW218996   4.307   0.105   9.334
 6208SOL     OW18997   4.263   0.064   9.822
 6208SOL    HW118998   4.182   0.065   9.880
 6208SOL    HW218999   4.266   0.147   9.767
 6209SOL     OW19000   4.021   0.035   9.481
 6209SOL    HW119001   4.070   0.119   9.460
 6209SOL    HW219002   4.083  -0.030   9.526
 6210SOL     OW19003   4.659   0.236   9.790
 6210SOL    HW119004   4.611   0.277   9.712
 6210SOL    HW219005   4.758   0.234   9.771
 6211SOL     OW19006   4.183   1.152  10.051
 6211SOL    HW119007   4.112   1.125  10.116
 6211SOL    HW219008   4.157   1.124   9.958
 6212SOL     OW19009   4.590   0.454   9.952
 6212SOL    HW119010   4.558   0.526   9.890
 6212SOL    HW219011   4.614   0.373   9.899
 6213SOL     OW19012   4.212   1.385   9.484
 6213SOL    HW119013   4.125   1.370   9.531
 6213SOL    HW219014   4.195   1.411   9.389
 6214SOL     OW19015   4.251   0.256   9.638
 6214SOL    HW119016   4.278   0.197   9.563
 6214SOL    HW219017   4.251   0.351   9.607
 6215SOL     OW19018   4.429   1.050   9.678
 6215SOL    HW119019   4.415   1.057   9.777
 6215SOL    HW219020   4.513   0.999   9.660
 6216SOL     OW19021   4.091   1.100   9.811
 6216SOL    HW119022   4.084   1.183   9.755
 6216SOL    HW219023   4.095   1.020   9.751
 6217SOL     OW19024   4.933   0.525   9.585
 6217SOL    HW119025   4.946   0.441   9.639
 6217SOL    HW219026   4.904   0.599   9.645
 6218SOL     OW19027   4.031   0.063   9.928
 6218SOL    HW119028   4.020   0.157   9.961
 6218SOL    HW219029   4.026   0.000  10.005
 6219SOL     OW19030   3.732   1.326   9.510
 6219SOL    HW119031   3.639   1.347   9.479
 6219SOL    HW219032   3.742   1.227   9.523
 6220SOL     OW19033   4.539   0.572   9.635
 6220SOL    HW119034   4.546   0.483   9.589
 6220SOL    HW219035   4.445   0.606   9.627
 6221SOL     OW19036   4.197   0.500   9.501
 6221SOL    HW119037   4.258   0.580   9.505
 6221SOL    HW219038   4.102   0.531   9.508
 6222SOL     OW19039   4.627   0.086   9.443
 6222SOL    HW119040   4.678   0.087   9.357
 6222SOL    HW219041   4.683   0.044   9.514
 6223SOL     OW19042   4.396   1.616   9.464
 6223SOL    HW119043   4.405   1.626   9.365
 6223SOL    HW219044   4.356   1.527   9.485
 6224SOL     OW19045   4.314   1.487   9.801
 6224SOL    HW119046   4.356   1.429   9.731
 6224SOL    HW219047   4.270   1.566   9.757
 6225SOL     OW19048   3.979   1.348   9.600
 6225SOL    HW119049   3.883   1.349   9.573
 6225SOL    HW219050   3.991   1.401   9.684
 6226SOL     OW19051   3.799   0.345   9.343
 6226SOL    HW119052   3.707   0.317   9.314
 6226SOL    HW219053   3.830   0.422   9.287
 6227SOL     OW19054   3.796   0.166   9.628
 6227SOL    HW119055   3.779   0.249   9.574
 6227SOL    HW219056   3.886   0.129   9.606
 6228SOL     OW19057   4.949   0.325   9.759
 6228SOL    HW119058   5.014   0.251   9.748
 6228SOL    HW219059   4.969   0.375   9.843
 6229SOL     OW19060   4.318   0.745   9.962
 6229SOL    HW119061   4.368   0.830   9.943
 6229SOL    HW219062   4.230   0.747   9.914
 6230SOL     OW19063   4.583   1.374   9.326
 6230SOL    HW119064   4.537   1.389   9.414
 6230SOL    HW219065   4.627   1.459   9.296
 6231SOL     OW19066   3.803   1.240   9.963
 6231SOL    HW119067   3.802   1.193  10.051
 6231SOL    HW219068   3.885   1.212   9.912
 6232SOL     OW19069   4.152   0.424   9.830
 6232SOL    HW119070   4.182   0.352   9.768
 6232SOL    HW219071   4.113   0.384   9.913
 6233SOL     OW19072   4.494   1.330   9.611
 6233SOL    HW119073   4.448   1.243   9.628
 6233SOL    HW219074   4.585   1.327   9.652
 6234SOL     OW19075   3.763   1.077   9.610
 6234SOL    HW119076   3.862   1.066   9.601
 6234SOL    HW219077   3.723   0.991   9.642
 6235SOL     OW19078   4.599   1.646   9.647
 6235SOL    HW119079   4.522   1.611   9.593
 6235SOL    HW219080   4.567   1.717   9.709
 6236SOL     OW19081   3.954   2.490   0.113
 6236SOL    HW119082   3.861   2.488   0.150
 6236SOL    HW219083   3.955   2.451   0.021
 6237SOL     OW19084   3.949   2.137   0.996
 6237SOL    HW119085   3.984   2.120   1.088
 6237SOL    HW219086   3.861   2.092   0.984
 6238SOL     OW19087   3.743   2.230   0.647
 6238SOL    HW119088   3.661   2.273   0.686
 6238SOL    HW219089   3.715   2.157   0.584
 6239SOL     OW19090   4.293   3.137   1.165
 6239SOL    HW119091   4.200   3.130   1.128
 6239SOL    HW219092   4.304   3.226   1.209
 6240SOL     OW19093   4.492   3.006   1.023
 6240SOL    HW119094   4.414   3.023   1.083
 6240SOL    HW219095   4.526   3.093   0.987
 6241SOL     OW19096   4.574   2.660   1.823
 6241SOL    HW119097   4.570   2.736   1.888
 6241SOL    HW219098   4.596   2.696   1.732
 6242SOL     OW19099   4.409   2.874   0.665
 6242SOL    HW119100   4.478   2.858   0.735
 6242SOL    HW219101   4.336   2.931   0.703
 6243SOL     OW19102   4.410   3.023   1.803
 6243SOL    HW119103   4.470   3.102   1.817
 6243SOL    HW219104   4.324   3.054   1.762
 6244SOL     OW19105   4.059   3.297   1.061
 6244SOL    HW119106   3.981   3.266   1.008
 6244SOL    HW219107   4.117   3.355   1.004
 6245SOL     OW19108   4.162   2.254   1.499
 6245SOL    HW119109   4.244   2.198   1.508
 6245SOL    HW219110   4.081   2.196   1.503
 6246SOL     OW19111   3.955   3.575   0.483
 6246SOL    HW119112   3.989   3.652   0.537
 6246SOL    HW219113   3.999   3.575   0.393
 6247SOL     OW19114   3.954   3.296   0.538
 6247SOL    HW119115   3.928   3.392   0.538
 6247SOL    HW219116   3.883   3.242   0.583
 6248SOL     OW19117   3.964   2.953   0.886
 6248SOL    HW119118   3.978   2.869   0.938
 6248SOL    HW219119   3.909   3.017   0.941
 6249SOL     OW19120   4.344   3.648   1.439
 6249SOL    HW119121   4.252   3.631   1.474
 6249SOL    HW219122   4.372   3.740   1.465
 6250SOL     OW19123   4.330   2.826   0.123
 6250SOL    HW119124   4.337   2.910   0.069
 6250SOL    HW219125   4.376   2.839   0.211
 6251SOL     OW19126   3.846   2.505   0.563
 6251SOL    HW119127   3.801   2.417   0.580
 6251SOL    HW219128   3.845   2.559   0.647
 6252SOL     OW19129   3.751   3.458   0.117
 6252SOL    HW119130   3.732   3.362   0.138
 6252SOL    HW219131   3.718   3.516   0.192
 6253SOL     OW19132   3.837   2.599   1.597
 6253SOL    HW119133   3.925   2.586   1.642
 6253SOL    HW219134   3.824   2.696   1.575
 6254SOL     OW19135   4.337   3.227   0.726
 6254SOL    HW119136   4.288   3.140   0.735
 6254SOL    HW219137   4.314   3.270   0.639
 6255SOL     OW19138   4.533   1.866   0.502
 6255SOL    HW119139   4.573   1.957   0.493
 6255SOL    HW219140   4.433   1.874   0.508
 6256SOL     OW19141   3.921   2.838   1.264
 6256SOL    HW119142   4.010   2.793   1.250
 6256SOL    HW219143   3.848   2.773   1.245
 6257SOL     OW19144   4.041   2.113   1.801
 6257SOL    HW119145   4.112   2.184   1.807
 6257SOL    HW219146   3.953   2.152   1.829
 6258SOL     OW19147   4.322   2.591   0.270
 6258SOL    HW119148   4.346   2.660   0.202
 6258SOL    HW219149   4.244   2.624   0.324
 6259SOL     OW19150   4.531   2.467   1.465
 6259SOL    HW119151   4.484   2.464   1.554
 6259SOL    HW219152   4.480   2.412   1.399
 6260SOL     OW19153   4.715   2.272   1.242
 6260SOL    HW119154   4.638   2.306   1.296
 6260SOL    HW219155   4.681   2.221   1.163
 6261SOL     OW19156   3.800   2.673   0.789
 6261SOL    HW119157   3.899   2.661   0.798
 6261SOL    HW219158   3.776   2.768   0.810
 6262SOL     OW19159   3.854   3.683   1.571
 6262SOL    HW119160   3.844   3.668   1.670
 6262SOL    HW219161   3.768   3.719   1.535
 6263SOL     OW19162   4.589   2.210   0.195
 6263SOL    HW119163   4.648   2.273   0.146
 6263SOL    HW219164   4.608   2.116   0.166
 6264SOL     OW19165   4.274   2.058   0.885
 6264SOL    HW119166   4.269   2.053   0.985
 6264SOL    HW219167   4.276   2.154   0.856
 6265SOL     OW19168   4.732   3.318   0.477
 6265SOL    HW119169   4.686   3.390   0.425
 6265SOL    HW219170   4.728   3.338   0.575
 6266SOL     OW19171   4.075   3.663   0.853
 6266SOL    HW119172   4.125   3.577   0.859
 6266SOL    HW219173   4.140   3.740   0.850
 6267SOL     OW19174   4.045   2.805   0.242
 6267SOL    HW119175   4.127   2.844   0.200
 6267SOL    HW219176   4.018   2.723   0.193
 6268SOL     OW19177   4.185   3.128   1.727
 6268SOL    HW119178   4.135   3.129   1.641
 6268SOL    HW219179   4.122   3.110   1.803
 6269SOL     OW19180   3.926   2.147   1.498
 6269SOL    HW119181   3.846   2.207   1.485
 6269SOL    HW219182   3.916   2.098   1.584
 6270SOL     OW19183   4.188   3.605   0.323
 6270SOL    HW119184   4.221   3.644   0.409
 6270SOL    HW219185   4.264   3.598   0.258
 6271SOL     OW19186   3.973   3.647   1.241
 6271SOL    HW119187   4.030   3.582   1.291
 6271SOL    HW219188   3.957   3.614   1.148
 6272SOL     OW19189   4.106   2.562   0.480
 6272SOL    HW119190   4.151   2.472   0.477
 6272SOL    HW219191   4.012   2.551   0.513
 6273SOL     OW19192   4.338   1.984   0.117
 6273SOL    HW119193   4.436   1.962   0.124
 6273SOL    HW219194   4.307   1.967   0.024
 6274SOL     OW19195   4.505   2.126   1.749
 6274SOL    HW119196   4.572   2.065   1.792
 6274SOL    HW219197   4.432   2.145   1.814
 6275SOL     OW19198   4.612   3.376   1.195
 6275SOL    HW119199   4.589   3.351   1.101
 6275SOL    HW219200   4.673   3.307   1.234
 6276SOL     OW19201   4.527   3.264   0.924
 6276SOL    HW119202   4.617   3.278   0.882
 6276SOL    HW219203   4.456   3.266   0.853
 6277SOL     OW19204   4.646   2.365   0.899
 6277SOL    HW119205   4.621   2.356   0.803
 6277SOL    HW219206   4.694   2.283   0.930
 6278SOL     OW19207   4.263   1.926   0.512
 6278SOL    HW119208   4.182   1.927   0.570
 6278SOL    HW219209   4.266   2.009   0.457
 6279SOL     OW19210   4.021   1.897   0.171
 6279SOL    HW119211   4.070   1.981   0.150
 6279SOL    HW219212   4.083   1.832   0.216
 6280SOL     OW19213   4.951   3.432   0.793
 6280SOL    HW119214   4.972   3.506   0.728
 6280SOL    HW219215   5.019   3.432   0.866
 6281SOL     OW19216   4.183   3.014   0.741
 6281SOL    HW119217   4.112   2.987   0.806
 6281SOL    HW219218   4.157   2.986   0.648
 6282SOL     OW19219   3.802   2.418   1.386
 6282SOL    HW119220   3.894   2.417   1.345
 6282SOL    HW219221   3.796   2.492   1.453
 6283SOL     OW19222   4.285   2.084   1.147
 6283SOL    HW119223   4.323   2.000   1.184
 6283SOL    HW219224   4.197   2.103   1.191
 6284SOL     OW19225   4.741   1.901   0.753
 6284SOL    HW119226   4.669   1.906   0.684
 6284SOL    HW219227   4.717   1.832   0.822
 6285SOL     OW19228   4.212   3.247   0.174
 6285SOL    HW119229   4.125   3.232   0.221
 6285SOL    HW219230   4.195   3.273   0.079
 6286SOL     OW19231   4.251   2.118   0.328
 6286SOL    HW119232   4.278   2.059   0.253
 6286SOL    HW219233   4.251   2.213   0.297
 6287SOL     OW19234   4.639   1.951   1.402
 6287SOL    HW119235   4.664   1.931   1.307
 6287SOL    HW219236   4.711   2.007   1.444
 6288SOL     OW19237   4.429   2.912   0.368
 6288SOL    HW119238   4.415   2.919   0.467
 6288SOL    HW219239   4.513   2.861   0.350
 6289SOL     OW19240   4.134   2.675   1.251
 6289SOL    HW119241   4.220   2.687   1.301
 6289SOL    HW219242   4.092   2.588   1.278
 6290SOL     OW19243   3.788   3.426   1.331
 6290SOL    HW119244   3.742   3.508   1.297
 6290SOL    HW219245   3.886   3.445   1.340
 6291SOL     OW19246   4.091   2.962   0.501
 6291SOL    HW119247   4.084   3.045   0.445
 6291SOL    HW219248   4.095   2.882   0.441
 6292SOL     OW19249   4.290   2.399   0.865
 6292SOL    HW119250   4.302   2.465   0.791
 6292SOL    HW219251   4.336   2.433   0.948
 6293SOL     OW19252   4.078   3.372   1.329
 6293SOL    HW119253   4.057   3.328   1.242
 6293SOL    HW219254   4.175   3.398   1.332
 6294SOL     OW19255   4.126   2.613   1.598
 6294SOL    HW119256   4.194   2.668   1.551
 6294SOL    HW219257   4.166   2.525   1.625
 6295SOL     OW19258   4.228   1.912   1.740
 6295SOL    HW119259   4.186   1.855   1.670
 6295SOL    HW219260   4.162   1.981   1.772
 6296SOL     OW19261   4.297   2.732   1.029
 6296SOL    HW119262   4.341   2.821   1.020
 6296SOL    HW219263   4.234   2.732   1.106
 6297SOL     OW19264   4.933   2.387   0.275
 6297SOL    HW119265   4.946   2.303   0.329
 6297SOL    HW219266   4.904   2.461   0.335
 6298SOL     OW19267   4.031   2.075   1.231
 6298SOL    HW119268   4.008   2.112   1.321
 6298SOL    HW219269   4.001   1.980   1.225
 6299SOL     OW19270   3.761   3.172   1.282
 6299SOL    HW119271   3.814   3.123   1.350
 6299SOL    HW219272   3.783   3.270   1.287
 6300SOL     OW19273   4.456   2.496   1.064
 6300SOL    HW119274   4.515   2.470   0.988
 6300SOL    HW219275   4.428   2.592   1.053
 6301SOL     OW19276   4.031   1.925   0.618
 6301SOL    HW119277   4.020   2.019   0.651
 6301SOL    HW219278   4.026   1.862   0.695
 6302SOL     OW19279   4.747   2.628   0.966
 6302SOL    HW119280   4.762   2.649   1.062
 6302SOL    HW219281   4.717   2.533   0.957
 6303SOL     OW19282   4.704   3.435   1.700
 6303SOL    HW119283   4.684   3.479   1.612
 6303SOL    HW219284   4.743   3.344   1.684
 6304SOL     OW19285   4.074   2.760   1.804
 6304SOL    HW119286   4.150   2.804   1.852
 6304SOL    HW219287   4.109   2.713   1.722
 6305SOL     OW19288   4.043   2.672   0.949
 6305SOL    HW119289   4.136   2.708   0.954
 6305SOL    HW219290   4.037   2.587   1.001
 6306SOL     OW19291   4.063   2.371   1.006
 6306SOL    HW119292   4.011   2.288   0.989
 6306SOL    HW219293   4.140   2.376   0.942
 6307SOL     OW19294   3.732   3.188   0.200
 6307SOL    HW119295   3.639   3.209   0.169
 6307SOL    HW219296   3.742   3.089   0.213
 6308SOL     OW19297   3.812   3.663   0.927
 6308SOL    HW119298   3.770   3.577   0.900
 6308SOL    HW219299   3.906   3.666   0.893
 6309SOL     OW19300   4.228   3.430   0.910
 6309SOL    HW119301   4.294   3.504   0.919
 6309SOL    HW219302   4.272   3.351   0.868
 6310SOL     OW19303   4.726   2.658   1.238
 6310SOL    HW119304   4.767   2.626   1.324
 6310SOL    HW219305   4.630   2.631   1.235
 6311SOL     OW19306   3.764   2.406   1.114
 6311SOL    HW119307   3.849   2.373   1.073
 6311SOL    HW219308   3.777   2.421   1.212
 6312SOL     OW19309   3.913   2.382   1.722
 6312SOL    HW119310   3.972   2.342   1.652
 6312SOL    HW219311   3.855   2.453   1.681
 6313SOL     OW19312   4.539   2.434   0.325
 6313SOL    HW119313   4.546   2.345   0.279
 6313SOL    HW219314   4.445   2.468   0.317
 6314SOL     OW19315   3.976   3.426   1.744
 6314SOL    HW119316   3.946   3.483   1.820
 6314SOL    HW219317   3.969   3.329   1.770
 6315SOL     OW19318   4.395   2.326   1.269
 6315SOL    HW119319   4.361   2.237   1.239
 6315SOL    HW219320   4.421   2.380   1.189
 6316SOL     OW19321   4.654   3.540   1.465
 6316SOL    HW119322   4.630   3.522   1.370
 6316SOL    HW219323   4.684   3.634   1.475
 6317SOL     OW19324   4.197   2.362   0.191
 6317SOL    HW119325   4.258   2.442   0.195
 6317SOL    HW219326   4.102   2.393   0.198
 6318SOL     OW19327   3.883   2.999   1.466
 6318SOL    HW119328   3.905   2.938   1.542
 6318SOL    HW219329   3.893   2.950   1.380
 6319SOL     OW19330   3.807   3.120   1.022
 6319SOL    HW119331   3.802   3.119   1.122
 6319SOL    HW219332   3.724   3.079   0.984
 6320SOL     OW19333   4.412   3.524   1.716
 6320SOL    HW119334   4.356   3.605   1.725
 6320SOL    HW219335   4.464   3.528   1.630
 6321SOL     OW19336   4.627   1.948   0.133
 6321SOL    HW119337   4.678   1.949   0.047
 6321SOL    HW219338   4.683   1.906   0.204
 6322SOL     OW19339   3.854   3.656   1.851
 6322SOL    HW119340   3.813   3.582   1.904
 6322SOL    HW219341   3.918   3.707   1.909
 6323SOL     OW19342   4.554   3.135   1.422
 6323SOL    HW119343   4.549   3.168   1.517
 6323SOL    HW219344   4.468   3.154   1.376
 6324SOL     OW19345   4.396   3.478   0.154
 6324SOL    HW119346   4.405   3.488   0.055
 6324SOL    HW219347   4.356   3.389   0.175
 6325SOL     OW19348   3.987   2.188   0.720
 6325SOL    HW119349   3.908   2.239   0.686
 6325SOL    HW219350   3.978   2.173   0.818
 6326SOL     OW19351   4.918   3.474   0.031
 6326SOL    HW119352   4.924   3.381   0.068
 6326SOL    HW219353   4.859   3.474  -0.049
 6327SOL     OW19354   4.546   2.864   1.372
 6327SOL    HW119355   4.586   2.863   1.280
 6327SOL    HW219356   4.556   2.956   1.412
 6328SOL     OW19357   4.096   3.150   1.490
 6328SOL    HW119358   4.083   3.243   1.456
 6328SOL    HW219359   4.012   3.098   1.477
 6329SOL     OW19360   4.314   3.349   0.491
 6329SOL    HW119361   4.356   3.291   0.421
 6329SOL    HW219362   4.270   3.428   0.447
 6330SOL     OW19363   3.979   3.210   0.290
 6330SOL    HW119364   3.883   3.211   0.263
 6330SOL    HW219365   3.991   3.263   0.374
 6331SOL     OW19366   3.829   2.875   1.726
 6331SOL    HW119367   3.752   2.842   1.780
 6331SOL    HW219368   3.914   2.845   1.768
 6332SOL     OW19369   4.396   2.065   1.489
 6332SOL    HW119370   4.486   2.049   1.449
 6332SOL    HW219371   4.404   2.070   1.588
 6333SOL     OW19372   3.799   2.207   0.033
 6333SOL    HW119373   3.707   2.179   0.004
 6333SOL    HW219374   3.830   2.284  -0.023
 6334SOL     OW19375   3.796   2.028   0.318
 6334SOL    HW119376   3.779   2.111   0.264
 6334SOL    HW219377   3.886   1.991   0.296
 6335SOL     OW19378   4.337   2.704   1.431
 6335SOL    HW119379   4.393   2.785   1.414
 6335SOL    HW219380   4.396   2.624   1.434
 6336SOL     OW19381   4.440   2.427   1.708
 6336SOL    HW119382   4.459   2.492   1.782
 6336SOL    HW219383   4.500   2.347   1.717
 6337SOL     OW19384   4.114   3.603   1.560
 6337SOL    HW119385   4.023   3.644   1.558
 6337SOL    HW219386   4.107   3.509   1.592
 6338SOL     OW19387   4.949   2.187   0.449
 6338SOL    HW119388   5.014   2.113   0.438
 6338SOL    HW219389   4.969   2.237   0.533
 6339SOL     OW19390   4.318   2.607   0.652
 6339SOL    HW119391   4.368   2.692   0.633
 6339SOL    HW219392   4.230   2.609   0.604
 6340SOL     OW19393   4.583   3.236   0.016
 6340SOL    HW119394   4.537   3.251   0.104
 6340SOL    HW219395   4.627   3.321  -0.014
 6341SOL     OW19396   4.385   3.652   0.953
 6341SOL    HW119397   4.339   3.740   0.940
 6341SOL    HW219398   4.484   3.664   0.946
 6342SOL     OW19399   4.583   2.818   0.861
 6342SOL    HW119400   4.637   2.749   0.909
 6342SOL    HW219401   4.551   2.887   0.927
 6343SOL     OW19402   3.945   3.176   1.844
 6343SOL    HW119403   3.880   3.103   1.823
 6343SOL    HW219404   3.949   3.190   1.942
 6344SOL     OW19405   3.803   3.102   0.653
 6344SOL    HW119406   3.802   3.055   0.741
 6344SOL    HW219407   3.885   3.074   0.602
 6345SOL     OW19408   4.396   3.253   1.624
 6345SOL    HW119409   4.318   3.203   1.662
 6345SOL    HW219410   4.393   3.348   1.655
 6346SOL     OW19411   4.152   2.286   0.520
 6346SOL    HW119412   4.182   2.214   0.458
 6346SOL    HW219413   4.113   2.246   0.603
 6347SOL     OW19414   4.041   2.409   1.280
 6347SOL    HW119415   4.079   2.350   1.352
 6347SOL    HW219416   4.081   2.383   1.192
 6348SOL     OW19417   4.536   3.448   0.687
 6348SOL    HW119418   4.568   3.458   0.593
 6348SOL    HW219419   4.457   3.386   0.689
 6349SOL     OW19420   4.725   1.896   1.154
 6349SOL    HW119421   4.662   1.824   1.123
 6349SOL    HW219422   4.818   1.860   1.154
 6350SOL     OW19423   4.494   3.192   0.301
 6350SOL    HW119424   4.448   3.105   0.318
 6350SOL    HW219425   4.585   3.189   0.342
 6351SOL     OW19426   4.342   3.429   1.284
 6351SOL    HW119427   4.337   3.511   1.341
 6351SOL    HW219428   4.431   3.426   1.239
 6352SOL     OW19429   3.763   2.939   0.300
 6352SOL    HW119430   3.862   2.928   0.291
 6352SOL    HW219431   3.723   2.853   0.332
 6353SOL     OW19432   4.599   3.508   0.337
 6353SOL    HW119433   4.522   3.473   0.283
 6353SOL    HW219434   4.567   3.579   0.399
 6354SOL     OW19435   3.954   2.490   1.975
 6354SOL    HW119436   3.861   2.488   2.012
 6354SOL    HW219437   3.955   2.451   1.883
 6355SOL     OW19438   3.949   2.137   2.858
 6355SOL    HW119439   3.984   2.120   2.950
 6355SOL    HW219440   3.861   2.092   2.846
 6356SOL     OW19441   3.743   2.230   2.509
 6356SOL    HW119442   3.661   2.273   2.548
 6356SOL    HW219443   3.715   2.157   2.446
 6357SOL     OW19444   4.293   3.137   3.027
 6357SOL    HW119445   4.200   3.130   2.990
 6357SOL    HW219446   4.304   3.226   3.071
 6358SOL     OW19447   4.492   3.006   2.885
 6358SOL    HW119448   4.414   3.023   2.945
 6358SOL    HW219449   4.526   3.093   2.849
 6359SOL     OW19450   4.574   2.660   3.685
 6359SOL    HW119451   4.570   2.736   3.750
 6359SOL    HW219452   4.596   2.696   3.594
 6360SOL     OW19453   4.409   2.874   2.527
 6360SOL    HW119454   4.478   2.858   2.597
 6360SOL    HW219455   4.336   2.931   2.565
 6361SOL     OW19456   4.410   3.023   3.665
 6361SOL    HW119457   4.470   3.102   3.679
 6361SOL    HW219458   4.324   3.054   3.624
 6362SOL     OW19459   4.059   3.297   2.923
 6362SOL    HW119460   3.981   3.266   2.870
 6362SOL    HW219461   4.117   3.355   2.866
 6363SOL     OW19462   4.162   2.254   3.361
 6363SOL    HW119463   4.244   2.198   3.370
 6363SOL    HW219464   4.081   2.196   3.365
 6364SOL     OW19465   3.955   3.575   2.345
 6364SOL    HW119466   3.989   3.652   2.399
 6364SOL    HW219467   3.999   3.575   2.255
 6365SOL     OW19468   3.954   3.296   2.400
 6365SOL    HW119469   3.928   3.392   2.400
 6365SOL    HW219470   3.883   3.242   2.445
 6366SOL     OW19471   3.964   2.953   2.748
 6366SOL    HW119472   3.978   2.869   2.800
 6366SOL    HW219473   3.909   3.017   2.803
 6367SOL     OW19474   4.344   3.648   3.301
 6367SOL    HW119475   4.252   3.631   3.336
 6367SOL    HW219476   4.372   3.740   3.327
 6368SOL     OW19477   4.330   2.826   1.985
 6368SOL    HW119478   4.337   2.910   1.931
 6368SOL    HW219479   4.376   2.839   2.073
 6369SOL     OW19480   3.846   2.505   2.425
 6369SOL    HW119481   3.801   2.417   2.442
 6369SOL    HW219482   3.845   2.559   2.509
 6370SOL     OW19483   3.751   3.458   1.979
 6370SOL    HW119484   3.732   3.362   2.000
 6370SOL    HW219485   3.718   3.516   2.054
 6371SOL     OW19486   3.837   2.599   3.459
 6371SOL    HW119487   3.925   2.586   3.504
 6371SOL    HW219488   3.824   2.696   3.437
 6372SOL     OW19489   4.337   3.227   2.588
 6372SOL    HW119490   4.288   3.140   2.597
 6372SOL    HW219491   4.314   3.270   2.501
 6373SOL     OW19492   4.533   1.866   2.364
 6373SOL    HW119493   4.573   1.957   2.355
 6373SOL    HW219494   4.433   1.874   2.370
 6374SOL     OW19495   3.921   2.838   3.126
 6374SOL    HW119496   4.010   2.793   3.112
 6374SOL    HW219497   3.848   2.773   3.107
 6375SOL     OW19498   4.041   2.113   3.663
 6375SOL    HW119499   4.112   2.184   3.669
 6375SOL    HW219500   3.953   2.152   3.691
 6376SOL     OW19501   4.322   2.591   2.132
 6376SOL    HW119502   4.346   2.660   2.064
 6376SOL    HW219503   4.244   2.624   2.186
 6377SOL     OW19504   4.531   2.467   3.327
 6377SOL    HW119505   4.484   2.464   3.416
 6377SOL    HW219506   4.480   2.412   3.261
 6378SOL     OW19507   4.715   2.272   3.104
 6378SOL    HW119508   4.638   2.306   3.158
 6378SOL    HW219509   4.681   2.221   3.025
 6379SOL     OW19510   3.800   2.673   2.651
 6379SOL    HW119511   3.899   2.661   2.660
 6379SOL    HW219512   3.776   2.768   2.672
 6380SOL     OW19513   3.854   3.683   3.433
 6380SOL    HW119514   3.844   3.668   3.532
 6380SOL    HW219515   3.768   3.719   3.397
 6381SOL     OW19516   4.589   2.210   2.057
 6381SOL    HW119517   4.648   2.273   2.008
 6381SOL    HW219518   4.608   2.116   2.028
 6382SOL     OW19519   4.274   2.058   2.747
 6382SOL    HW119520   4.269   2.053   2.847
 6382SOL    HW219521   4.276   2.154   2.718
 6383SOL     OW19522   4.732   3.318   2.339
 6383SOL    HW119523   4.686   3.390   2.287
 6383SOL    HW219524   4.728   3.338   2.437
 6384SOL     OW19525   4.075   3.663   2.715
 6384SOL    HW119526   4.125   3.577   2.721
 6384SOL    HW219527   4.140   3.740   2.712
 6385SOL     OW19528   4.045   2.805   2.104
 6385SOL    HW119529   4.127   2.844   2.062
 6385SOL    HW219530   4.018   2.723   2.055
 6386SOL     OW19531   4.185   3.128   3.589
 6386SOL    HW119532   4.135   3.129   3.503
 6386SOL    HW219533   4.122   3.110   3.665
 6387SOL     OW19534   3.926   2.147   3.360
 6387SOL    HW119535   3.846   2.207   3.347
 6387SOL    HW219536   3.916   2.098   3.446
 6388SOL     OW19537   4.188   3.605   2.185
 6388SOL    HW119538   4.221   3.644   2.271
 6388SOL    HW219539   4.264   3.598   2.120
 6389SOL     OW19540   3.973   3.647   3.103
 6389SOL    HW119541   4.030   3.582   3.153
 6389SOL    HW219542   3.957   3.614   3.010
 6390SOL     OW19543   4.106   2.562   2.342
 6390SOL    HW119544   4.151   2.472   2.339
 6390SOL    HW219545   4.012   2.551   2.375
 6391SOL     OW19546   4.338   1.984   1.979
 6391SOL    HW119547   4.436   1.962   1.986
 6391SOL    HW219548   4.307   1.967   1.886
 6392SOL     OW19549   4.505   2.126   3.611
 6392SOL    HW119550   4.572   2.065   3.654
 6392SOL    HW219551   4.432   2.145   3.676
 6393SOL     OW19552   4.612   3.376   3.057
 6393SOL    HW119553   4.589   3.351   2.963
 6393SOL    HW219554   4.673   3.307   3.096
 6394SOL     OW19555   4.527   3.264   2.786
 6394SOL    HW119556   4.617   3.278   2.744
 6394SOL    HW219557   4.456   3.266   2.715
 6395SOL     OW19558   4.646   2.365   2.761
 6395SOL    HW119559   4.621   2.356   2.665
 6395SOL    HW219560   4.694   2.283   2.792
 6396SOL     OW19561   4.263   1.926   2.374
 6396SOL    HW119562   4.182   1.927   2.432
 6396SOL    HW219563   4.266   2.009   2.319
 6397SOL     OW19564   4.021   1.897   2.033
 6397SOL    HW119565   4.070   1.981   2.012
 6397SOL    HW219566   4.083   1.832   2.078
 6398SOL     OW19567   4.951   3.432   2.655
 6398SOL    HW119568   4.972   3.506   2.590
 6398SOL    HW219569   5.019   3.432   2.728
 6399SOL     OW19570   4.183   3.014   2.603
 6399SOL    HW119571   4.112   2.987   2.668
 6399SOL    HW219572   4.157   2.986   2.510
 6400SOL     OW19573   3.802   2.418   3.248
 6400SOL    HW119574   3.894   2.417   3.207
 6400SOL    HW219575   3.796   2.492   3.315
 6401SOL     OW19576   4.285   2.084   3.009
 6401SOL    HW119577   4.323   2.000   3.046
 6401SOL    HW219578   4.197   2.103   3.053
 6402SOL     OW19579   4.741   1.901   2.615
 6402SOL    HW119580   4.669   1.906   2.546
 6402SOL    HW219581   4.717   1.832   2.684
 6403SOL     OW19582   4.212   3.247   2.036
 6403SOL    HW119583   4.125   3.232   2.083
 6403SOL    HW219584   4.195   3.273   1.941
 6404SOL     OW19585   4.251   2.118   2.190
 6404SOL    HW119586   4.278   2.059   2.115
 6404SOL    HW219587   4.251   2.213   2.159
 6405SOL     OW19588   4.639   1.951   3.264
 6405SOL    HW119589   4.664   1.931   3.169
 6405SOL    HW219590   4.711   2.007   3.306
 6406SOL     OW19591   4.429   2.912   2.230
 6406SOL    HW119592   4.415   2.919   2.329
 6406SOL    HW219593   4.513   2.861   2.212
 6407SOL     OW19594   4.134   2.675   3.113
 6407SOL    HW119595   4.220   2.687   3.163
 6407SOL    HW219596   4.092   2.588   3.140
 6408SOL     OW19597   3.788   3.426   3.193
 6408SOL    HW119598   3.742   3.508   3.159
 6408SOL    HW219599   3.886   3.445   3.202
 6409SOL     OW19600   4.091   2.962   2.363
 6409SOL    HW119601   4.084   3.045   2.307
 6409SOL    HW219602   4.095   2.882   2.303
 6410SOL     OW19603   4.290   2.399   2.727
 6410SOL    HW119604   4.302   2.465   2.653
 6410SOL    HW219605   4.336   2.433   2.810
 6411SOL     OW19606   4.078   3.372   3.191
 6411SOL    HW119607   4.057   3.328   3.104
 6411SOL    HW219608   4.175   3.398   3.194
 6412SOL     OW19609   4.126   2.613   3.460
 6412SOL    HW119610   4.194   2.668   3.413
 6412SOL    HW219611   4.166   2.525   3.487
 6413SOL     OW19612   4.228   1.912   3.602
 6413SOL    HW119613   4.186   1.855   3.532
 6413SOL    HW219614   4.162   1.981   3.634
 6414SOL     OW19615   4.297   2.732   2.891
 6414SOL    HW119616   4.341   2.821   2.882
 6414SOL    HW219617   4.234   2.732   2.968
 6415SOL     OW19618   4.933   2.387   2.137
 6415SOL    HW119619   4.946   2.303   2.191
 6415SOL    HW219620   4.904   2.461   2.197
 6416SOL     OW19621   4.031   2.075   3.093
 6416SOL    HW119622   4.008   2.112   3.183
 6416SOL    HW219623   4.001   1.980   3.087
 6417SOL     OW19624   3.761   3.172   3.144
 6417SOL    HW119625   3.814   3.123   3.212
 6417SOL    HW219626   3.783   3.270   3.149
 6418SOL     OW19627   4.456   2.496   2.926
 6418SOL    HW119628   4.515   2.470   2.850
 6418SOL    HW219629   4.428   2.592   2.915
 6419SOL     OW19630   4.031   1.925   2.480
 6419SOL    HW119631   4.020   2.019   2.513
 6419SOL    HW219632   4.026   1.862   2.557
 6420SOL     OW19633   4.747   2.628   2.828
 6420SOL    HW119634   4.762   2.649   2.924
 6420SOL    HW219635   4.717   2.533   2.819
 6421SOL     OW19636   4.704   3.435   3.562
 6421SOL    HW119637   4.684   3.479   3.474
 6421SOL    HW219638   4.743   3.344   3.546
 6422SOL     OW19639   4.074   2.760   3.666
 6422SOL    HW119640   4.150   2.804   3.714
 6422SOL    HW219641   4.109   2.713   3.584
 6423SOL     OW19642   4.043   2.672   2.811
 6423SOL    HW119643   4.136   2.708   2.816
 6423SOL    HW219644   4.037   2.587   2.863
 6424SOL     OW19645   4.063   2.371   2.868
 6424SOL    HW119646   4.011   2.288   2.851
 6424SOL    HW219647   4.140   2.376   2.804
 6425SOL     OW19648   3.732   3.188   2.062
 6425SOL    HW119649   3.639   3.209   2.031
 6425SOL    HW219650   3.742   3.089   2.075
 6426SOL     OW19651   3.812   3.663   2.789
 6426SOL    HW119652   3.770   3.577   2.762
 6426SOL    HW219653   3.906   3.666   2.755
 6427SOL     OW19654   4.228   3.430   2.772
 6427SOL    HW119655   4.294   3.504   2.781
 6427SOL    HW219656   4.272   3.351   2.730
 6428SOL     OW19657   4.726   2.658   3.100
 6428SOL    HW119658   4.767   2.626   3.186
 6428SOL    HW219659   4.630   2.631   3.097
 6429SOL     OW19660   3.764   2.406   2.976
 6429SOL    HW119661   3.849   2.373   2.935
 6429SOL    HW219662   3.777   2.421   3.074
 6430SOL     OW19663   3.913   2.382   3.584
 6430SOL    HW119664   3.972   2.342   3.514
 6430SOL    HW219665   3.855   2.453   3.543
 6431SOL     OW19666   4.539   2.434   2.187
 6431SOL    HW119667   4.546   2.345   2.141
 6431SOL    HW219668   4.445   2.468   2.179
 6432SOL     OW19669   3.976   3.426   3.606
 6432SOL    HW119670   3.946   3.483   3.682
 6432SOL    HW219671   3.969   3.329   3.632
 6433SOL     OW19672   4.395   2.326   3.131
 6433SOL    HW119673   4.361   2.237   3.101
 6433SOL    HW219674   4.421   2.380   3.051
 6434SOL     OW19675   4.654   3.540   3.327
 6434SOL    HW119676   4.630   3.522   3.232
 6434SOL    HW219677   4.684   3.634   3.337
 6435SOL     OW19678   4.197   2.362   2.053
 6435SOL    HW119679   4.258   2.442   2.057
 6435SOL    HW219680   4.102   2.393   2.060
 6436SOL     OW19681   3.883   2.999   3.328
 6436SOL    HW119682   3.905   2.938   3.404
 6436SOL    HW219683   3.893   2.950   3.242
 6437SOL     OW19684   3.807   3.120   2.884
 6437SOL    HW119685   3.802   3.119   2.984
 6437SOL    HW219686   3.724   3.079   2.846
 6438SOL     OW19687   4.412   3.524   3.578
 6438SOL    HW119688   4.356   3.605   3.587
 6438SOL    HW219689   4.464   3.528   3.492
 6439SOL     OW19690   4.627   1.948   1.995
 6439SOL    HW119691   4.678   1.949   1.909
 6439SOL    HW219692   4.683   1.906   2.066
 6440SOL     OW19693   3.854   3.656   3.713
 6440SOL    HW119694   3.813   3.582   3.766
 6440SOL    HW219695   3.918   3.707   3.771
 6441SOL     OW19696   4.554   3.135   3.284
 6441SOL    HW119697   4.549   3.168   3.379
 6441SOL    HW219698   4.468   3.154   3.238
 6442SOL     OW19699   4.396   3.478   2.016
 6442SOL    HW119700   4.405   3.488   1.917
 6442SOL    HW219701   4.356   3.389   2.037
 6443SOL     OW19702   3.987   2.188   2.582
 6443SOL    HW119703   3.908   2.239   2.548
 6443SOL    HW219704   3.978   2.173   2.680
 6444SOL     OW19705   4.546   2.864   3.234
 6444SOL    HW119706   4.586   2.863   3.142
 6444SOL    HW219707   4.556   2.956   3.274
 6445SOL     OW19708   4.096   3.150   3.352
 6445SOL    HW119709   4.083   3.243   3.318
 6445SOL    HW219710   4.012   3.098   3.339
 6446SOL     OW19711   4.314   3.349   2.353
 6446SOL    HW119712   4.356   3.291   2.283
 6446SOL    HW219713   4.270   3.428   2.309
 6447SOL     OW19714   3.979   3.210   2.152
 6447SOL    HW119715   3.883   3.211   2.125
 6447SOL    HW219716   3.991   3.263   2.236
 6448SOL     OW19717   3.829   2.875   3.588
 6448SOL    HW119718   3.752   2.842   3.642
 6448SOL    HW219719   3.914   2.845   3.630
 6449SOL     OW19720   4.396   2.065   3.351
 6449SOL    HW119721   4.486   2.049   3.311
 6449SOL    HW219722   4.404   2.070   3.450
 6450SOL     OW19723   3.799   2.207   1.895
 6450SOL    HW119724   3.707   2.179   1.866
 6450SOL    HW219725   3.830   2.284   1.839
 6451SOL     OW19726   3.796   2.028   2.180
 6451SOL    HW119727   3.779   2.111   2.126
 6451SOL    HW219728   3.886   1.991   2.158
 6452SOL     OW19729   4.337   2.704   3.293
 6452SOL    HW119730   4.393   2.785   3.276
 6452SOL    HW219731   4.396   2.624   3.296
 6453SOL     OW19732   4.440   2.427   3.570
 6453SOL    HW119733   4.459   2.492   3.644
 6453SOL    HW219734   4.500   2.347   3.579
 6454SOL     OW19735   4.114   3.603   3.422
 6454SOL    HW119736   4.023   3.644   3.420
 6454SOL    HW219737   4.107   3.509   3.454
 6455SOL     OW19738   4.949   2.187   2.311
 6455SOL    HW119739   5.014   2.113   2.300
 6455SOL    HW219740   4.969   2.237   2.395
 6456SOL     OW19741   4.318   2.607   2.514
 6456SOL    HW119742   4.368   2.692   2.495
 6456SOL    HW219743   4.230   2.609   2.466
 6457SOL     OW19744   4.583   3.236   1.878
 6457SOL    HW119745   4.537   3.251   1.966
 6457SOL    HW219746   4.627   3.321   1.848
 6458SOL     OW19747   4.385   3.652   2.815
 6458SOL    HW119748   4.339   3.740   2.802
 6458SOL    HW219749   4.484   3.664   2.808
 6459SOL     OW19750   4.583   2.818   2.723
 6459SOL    HW119751   4.637   2.749   2.771
 6459SOL    HW219752   4.551   2.887   2.789
 6460SOL     OW19753   3.945   3.176   3.706
 6460SOL    HW119754   3.880   3.103   3.685
 6460SOL    HW219755   3.949   3.190   3.804
 6461SOL     OW19756   3.803   3.102   2.515
 6461SOL    HW119757   3.802   3.055   2.603
 6461SOL    HW219758   3.885   3.074   2.464
 6462SOL     OW19759   4.396   3.253   3.486
 6462SOL    HW119760   4.318   3.203   3.524
 6462SOL    HW219761   4.393   3.348   3.517
 6463SOL     OW19762   4.152   2.286   2.382
 6463SOL    HW119763   4.182   2.214   2.320
 6463SOL    HW219764   4.113   2.246   2.465
 6464SOL     OW19765   4.041   2.409   3.142
 6464SOL    HW119766   4.079   2.350   3.214
 6464SOL    HW219767   4.081   2.383   3.054
 6465SOL     OW19768   4.536   3.448   2.549
 6465SOL    HW119769   4.568   3.458   2.455
 6465SOL    HW219770   4.457   3.386   2.551
 6466SOL     OW19771   4.725   1.896   3.016
 6466SOL    HW119772   4.662   1.824   2.985
 6466SOL    HW219773   4.818   1.860   3.016
 6467SOL     OW19774   4.494   3.192   2.163
 6467SOL    HW119775   4.448   3.105   2.180
 6467SOL    HW219776   4.585   3.189   2.204
 6468SOL     OW19777   4.342   3.429   3.146
 6468SOL    HW119778   4.337   3.511   3.203
 6468SOL    HW219779   4.431   3.426   3.101
 6469SOL     OW19780   3.763   2.939   2.162
 6469SOL    HW119781   3.862   2.928   2.153
 6469SOL    HW219782   3.723   2.853   2.194
 6470SOL     OW19783   4.599   3.508   2.199
 6470SOL    HW119784   4.522   3.473   2.145
 6470SOL    HW219785   4.567   3.579   2.261
 6471SOL     OW19786   3.954   2.490   3.837
 6471SOL    HW119787   3.861   2.488   3.874
 6471SOL    HW219788   3.955   2.451   3.745
 6472SOL     OW19789   3.949   2.137   4.720
 6472SOL    HW119790   3.984   2.120   4.812
 6472SOL    HW219791   3.861   2.092   4.708
 6473SOL     OW19792   3.743   2.230   4.371
 6473SOL    HW119793   3.661   2.273   4.410
 6473SOL    HW219794   3.715   2.157   4.308
 6474SOL     OW19795   4.293   3.137   4.889
 6474SOL    HW119796   4.200   3.130   4.852
 6474SOL    HW219797   4.304   3.226   4.933
 6475SOL     OW19798   4.492   3.006   4.747
 6475SOL    HW119799   4.414   3.023   4.807
 6475SOL    HW219800   4.526   3.093   4.711
 6476SOL     OW19801   4.574   2.660   5.547
 6476SOL    HW119802   4.570   2.736   5.612
 6476SOL    HW219803   4.596   2.696   5.456
 6477SOL     OW19804   4.409   2.874   4.389
 6477SOL    HW119805   4.478   2.858   4.459
 6477SOL    HW219806   4.336   2.931   4.427
 6478SOL     OW19807   4.410   3.023   5.527
 6478SOL    HW119808   4.470   3.102   5.541
 6478SOL    HW219809   4.324   3.054   5.486
 6479SOL     OW19810   4.059   3.297   4.785
 6479SOL    HW119811   3.981   3.266   4.732
 6479SOL    HW219812   4.117   3.355   4.728
 6480SOL     OW19813   4.162   2.254   5.223
 6480SOL    HW119814   4.244   2.198   5.232
 6480SOL    HW219815   4.081   2.196   5.227
 6481SOL     OW19816   3.955   3.575   4.207
 6481SOL    HW119817   3.989   3.652   4.261
 6481SOL    HW219818   3.999   3.575   4.117
 6482SOL     OW19819   3.954   3.296   4.262
 6482SOL    HW119820   3.928   3.392   4.262
 6482SOL    HW219821   3.883   3.242   4.307
 6483SOL     OW19822   3.964   2.953   4.610
 6483SOL    HW119823   3.978   2.869   4.662
 6483SOL    HW219824   3.909   3.017   4.665
 6484SOL     OW19825   4.344   3.648   5.163
 6484SOL    HW119826   4.252   3.631   5.198
 6484SOL    HW219827   4.372   3.740   5.189
 6485SOL     OW19828   4.330   2.826   3.847
 6485SOL    HW119829   4.337   2.910   3.793
 6485SOL    HW219830   4.376   2.839   3.935
 6486SOL     OW19831   3.846   2.505   4.287
 6486SOL    HW119832   3.801   2.417   4.304
 6486SOL    HW219833   3.845   2.559   4.371
 6487SOL     OW19834   3.751   3.458   3.841
 6487SOL    HW119835   3.732   3.362   3.862
 6487SOL    HW219836   3.718   3.516   3.916
 6488SOL     OW19837   3.837   2.599   5.321
 6488SOL    HW119838   3.925   2.586   5.366
 6488SOL    HW219839   3.824   2.696   5.299
 6489SOL     OW19840   4.337   3.227   4.450
 6489SOL    HW119841   4.288   3.140   4.459
 6489SOL    HW219842   4.314   3.270   4.363
 6490SOL     OW19843   4.533   1.866   4.226
 6490SOL    HW119844   4.573   1.957   4.217
 6490SOL    HW219845   4.433   1.874   4.232
 6491SOL     OW19846   3.921   2.838   4.988
 6491SOL    HW119847   4.010   2.793   4.974
 6491SOL    HW219848   3.848   2.773   4.969
 6492SOL     OW19849   4.041   2.113   5.525
 6492SOL    HW119850   4.112   2.184   5.531
 6492SOL    HW219851   3.953   2.152   5.553
 6493SOL     OW19852   4.322   2.591   3.994
 6493SOL    HW119853   4.346   2.660   3.926
 6493SOL    HW219854   4.244   2.624   4.048
 6494SOL     OW19855   4.531   2.467   5.189
 6494SOL    HW119856   4.484   2.464   5.278
 6494SOL    HW219857   4.480   2.412   5.123
 6495SOL     OW19858   4.715   2.272   4.966
 6495SOL    HW119859   4.638   2.306   5.020
 6495SOL    HW219860   4.681   2.221   4.887
 6496SOL     OW19861   3.800   2.673   4.513
 6496SOL    HW119862   3.899   2.661   4.522
 6496SOL    HW219863   3.776   2.768   4.534
 6497SOL     OW19864   3.854   3.683   5.295
 6497SOL    HW119865   3.844   3.668   5.394
 6497SOL    HW219866   3.768   3.719   5.259
 6498SOL     OW19867   4.589   2.210   3.919
 6498SOL    HW119868   4.648   2.273   3.870
 6498SOL    HW219869   4.608   2.116   3.890
 6499SOL     OW19870   4.274   2.058   4.609
 6499SOL    HW119871   4.269   2.053   4.709
 6499SOL    HW219872   4.276   2.154   4.580
 6500SOL     OW19873   4.732   3.318   4.201
 6500SOL    HW119874   4.686   3.390   4.149
 6500SOL    HW219875   4.728   3.338   4.299
 6501SOL     OW19876   4.075   3.663   4.577
 6501SOL    HW119877   4.125   3.577   4.583
 6501SOL    HW219878   4.140   3.740   4.574
 6502SOL     OW19879   4.045   2.805   3.966
 6502SOL    HW119880   4.127   2.844   3.924
 6502SOL    HW219881   4.018   2.723   3.917
 6503SOL     OW19882   4.185   3.128   5.451
 6503SOL    HW119883   4.135   3.129   5.365
 6503SOL    HW219884   4.122   3.110   5.527
 6504SOL     OW19885   3.926   2.147   5.222
 6504SOL    HW119886   3.846   2.207   5.209
 6504SOL    HW219887   3.916   2.098   5.308
 6505SOL     OW19888   4.188   3.605   4.047
 6505SOL    HW119889   4.221   3.644   4.133
 6505SOL    HW219890   4.264   3.598   3.982
 6506SOL     OW19891   3.973   3.647   4.965
 6506SOL    HW119892   4.030   3.582   5.015
 6506SOL    HW219893   3.957   3.614   4.872
 6507SOL     OW19894   4.106   2.562   4.204
 6507SOL    HW119895   4.151   2.472   4.201
 6507SOL    HW219896   4.012   2.551   4.237
 6508SOL     OW19897   4.338   1.984   3.841
 6508SOL    HW119898   4.436   1.962   3.848
 6508SOL    HW219899   4.307   1.967   3.748
 6509SOL     OW19900   4.505   2.126   5.473
 6509SOL    HW119901   4.572   2.065   5.516
 6509SOL    HW219902   4.432   2.145   5.538
 6510SOL     OW19903   4.612   3.376   4.919
 6510SOL    HW119904   4.589   3.351   4.825
 6510SOL    HW219905   4.673   3.307   4.958
 6511SOL     OW19906   4.527   3.264   4.648
 6511SOL    HW119907   4.617   3.278   4.606
 6511SOL    HW219908   4.456   3.266   4.577
 6512SOL     OW19909   4.646   2.365   4.623
 6512SOL    HW119910   4.621   2.356   4.527
 6512SOL    HW219911   4.694   2.283   4.654
 6513SOL     OW19912   4.263   1.926   4.236
 6513SOL    HW119913   4.182   1.927   4.294
 6513SOL    HW219914   4.266   2.009   4.181
 6514SOL     OW19915   4.021   1.897   3.895
 6514SOL    HW119916   4.070   1.981   3.874
 6514SOL    HW219917   4.083   1.832   3.940
 6515SOL     OW19918   4.951   3.432   4.517
 6515SOL    HW119919   4.972   3.506   4.452
 6515SOL    HW219920   5.019   3.432   4.590
 6516SOL     OW19921   4.183   3.014   4.465
 6516SOL    HW119922   4.112   2.987   4.530
 6516SOL    HW219923   4.157   2.986   4.372
 6517SOL     OW19924   3.802   2.418   5.110
 6517SOL    HW119925   3.894   2.417   5.069
 6517SOL    HW219926   3.796   2.492   5.177
 6518SOL     OW19927   4.285   2.084   4.871
 6518SOL    HW119928   4.323   2.000   4.908
 6518SOL    HW219929   4.197   2.103   4.915
 6519SOL     OW19930   4.741   1.901   4.477
 6519SOL    HW119931   4.669   1.906   4.408
 6519SOL    HW219932   4.717   1.832   4.546
 6520SOL     OW19933   4.212   3.247   3.898
 6520SOL    HW119934   4.125   3.232   3.945
 6520SOL    HW219935   4.195   3.273   3.803
 6521SOL     OW19936   4.251   2.118   4.052
 6521SOL    HW119937   4.278   2.059   3.977
 6521SOL    HW219938   4.251   2.213   4.021
 6522SOL     OW19939   4.639   1.951   5.126
 6522SOL    HW119940   4.664   1.931   5.031
 6522SOL    HW219941   4.711   2.007   5.168
 6523SOL     OW19942   4.429   2.912   4.092
 6523SOL    HW119943   4.415   2.919   4.191
 6523SOL    HW219944   4.513   2.861   4.074
 6524SOL     OW19945   4.134   2.675   4.975
 6524SOL    HW119946   4.220   2.687   5.025
 6524SOL    HW219947   4.092   2.588   5.002
 6525SOL     OW19948   3.788   3.426   5.055
 6525SOL    HW119949   3.742   3.508   5.021
 6525SOL    HW219950   3.886   3.445   5.064
 6526SOL     OW19951   4.091   2.962   4.225
 6526SOL    HW119952   4.084   3.045   4.169
 6526SOL    HW219953   4.095   2.882   4.165
 6527SOL     OW19954   4.290   2.399   4.589
 6527SOL    HW119955   4.302   2.465   4.515
 6527SOL    HW219956   4.336   2.433   4.672
 6528SOL     OW19957   4.078   3.372   5.053
 6528SOL    HW119958   4.057   3.328   4.966
 6528SOL    HW219959   4.175   3.398   5.056
 6529SOL     OW19960   4.126   2.613   5.322
 6529SOL    HW119961   4.194   2.668   5.275
 6529SOL    HW219962   4.166   2.525   5.349
 6530SOL     OW19963   4.228   1.912   5.464
 6530SOL    HW119964   4.186   1.855   5.394
 6530SOL    HW219965   4.162   1.981   5.496
 6531SOL     OW19966   4.297   2.732   4.753
 6531SOL    HW119967   4.341   2.821   4.744
 6531SOL    HW219968   4.234   2.732   4.830
 6532SOL     OW19969   4.933   2.387   3.999
 6532SOL    HW119970   4.946   2.303   4.053
 6532SOL    HW219971   4.904   2.461   4.059
 6533SOL     OW19972   4.031   2.075   4.955
 6533SOL    HW119973   4.008   2.112   5.045
 6533SOL    HW219974   4.001   1.980   4.949
 6534SOL     OW19975   3.761   3.172   5.006
 6534SOL    HW119976   3.814   3.123   5.074
 6534SOL    HW219977   3.783   3.270   5.011
 6535SOL     OW19978   4.456   2.496   4.788
 6535SOL    HW119979   4.515   2.470   4.712
 6535SOL    HW219980   4.428   2.592   4.777
 6536SOL     OW19981   4.031   1.925   4.342
 6536SOL    HW119982   4.020   2.019   4.375
 6536SOL    HW219983   4.026   1.862   4.419
 6537SOL     OW19984   4.747   2.628   4.690
 6537SOL    HW119985   4.762   2.649   4.786
 6537SOL    HW219986   4.717   2.533   4.681
 6538SOL     OW19987   4.704   3.435   5.424
 6538SOL    HW119988   4.684   3.479   5.336
 6538SOL    HW219989   4.743   3.344   5.408
 6539SOL     OW19990   4.074   2.760   5.528
 6539SOL    HW119991   4.150   2.804   5.576
 6539SOL    HW219992   4.109   2.713   5.446
 6540SOL     OW19993   4.043   2.672   4.673
 6540SOL    HW119994   4.136   2.708   4.678
 6540SOL    HW219995   4.037   2.587   4.725
 6541SOL     OW19996   4.063   2.371   4.730
 6541SOL    HW119997   4.011   2.288   4.713
 6541SOL    HW219998   4.140   2.376   4.666
 6542SOL     OW19999   3.732   3.188   3.924
 6542SOL    HW120000   3.639   3.209   3.893
 6542SOL    HW220001   3.742   3.089   3.937
 6543SOL     OW20002   3.812   3.663   4.651
 6543SOL    HW120003   3.770   3.577   4.624
 6543SOL    HW220004   3.906   3.666   4.617
 6544SOL     OW20005   4.228   3.430   4.634
 6544SOL    HW120006   4.294   3.504   4.643
 6544SOL    HW220007   4.272   3.351   4.592
 6545SOL     OW20008   4.726   2.658   4.962
 6545SOL    HW120009   4.767   2.626   5.048
 6545SOL    HW220010   4.630   2.631   4.959
 6546SOL     OW20011   3.764   2.406   4.838
 6546SOL    HW120012   3.849   2.373   4.797
 6546SOL    HW220013   3.777   2.421   4.936
 6547SOL     OW20014   3.913   2.382   5.446
 6547SOL    HW120015   3.972   2.342   5.376
 6547SOL    HW220016   3.855   2.453   5.405
 6548SOL     OW20017   4.539   2.434   4.049
 6548SOL    HW120018   4.546   2.345   4.003
 6548SOL    HW220019   4.445   2.468   4.041
 6549SOL     OW20020   3.976   3.426   5.468
 6549SOL    HW120021   3.946   3.483   5.544
 6549SOL    HW220022   3.969   3.329   5.494
 6550SOL     OW20023   4.395   2.326   4.993
 6550SOL    HW120024   4.361   2.237   4.963
 6550SOL    HW220025   4.421   2.380   4.913
 6551SOL     OW20026   4.654   3.540   5.189
 6551SOL    HW120027   4.630   3.522   5.094
 6551SOL    HW220028   4.684   3.634   5.199
 6552SOL     OW20029   4.197   2.362   3.915
 6552SOL    HW120030   4.258   2.442   3.919
 6552SOL    HW220031   4.102   2.393   3.922
 6553SOL     OW20032   3.883   2.999   5.190
 6553SOL    HW120033   3.905   2.938   5.266
 6553SOL    HW220034   3.893   2.950   5.104
 6554SOL     OW20035   3.807   3.120   4.746
 6554SOL    HW120036   3.802   3.119   4.846
 6554SOL    HW220037   3.724   3.079   4.708
 6555SOL     OW20038   4.412   3.524   5.440
 6555SOL    HW120039   4.356   3.605   5.449
 6555SOL    HW220040   4.464   3.528   5.354
 6556SOL     OW20041   4.627   1.948   3.857
 6556SOL    HW120042   4.678   1.949   3.771
 6556SOL    HW220043   4.683   1.906   3.928
 6557SOL     OW20044   3.854   3.656   5.575
 6557SOL    HW120045   3.813   3.582   5.628
 6557SOL    HW220046   3.918   3.707   5.633
 6558SOL     OW20047   4.554   3.135   5.146
 6558SOL    HW120048   4.549   3.168   5.241
 6558SOL    HW220049   4.468   3.154   5.100
 6559SOL     OW20050   4.396   3.478   3.878
 6559SOL    HW120051   4.405   3.488   3.779
 6559SOL    HW220052   4.356   3.389   3.899
 6560SOL     OW20053   3.987   2.188   4.444
 6560SOL    HW120054   3.908   2.239   4.410
 6560SOL    HW220055   3.978   2.173   4.542
 6561SOL     OW20056   4.546   2.864   5.096
 6561SOL    HW120057   4.586   2.863   5.004
 6561SOL    HW220058   4.556   2.956   5.136
 6562SOL     OW20059   4.096   3.150   5.214
 6562SOL    HW120060   4.083   3.243   5.180
 6562SOL    HW220061   4.012   3.098   5.201
 6563SOL     OW20062   4.314   3.349   4.215
 6563SOL    HW120063   4.356   3.291   4.145
 6563SOL    HW220064   4.270   3.428   4.171
 6564SOL     OW20065   3.979   3.210   4.014
 6564SOL    HW120066   3.883   3.211   3.987
 6564SOL    HW220067   3.991   3.263   4.098
 6565SOL     OW20068   3.829   2.875   5.450
 6565SOL    HW120069   3.752   2.842   5.504
 6565SOL    HW220070   3.914   2.845   5.492
 6566SOL     OW20071   4.396   2.065   5.213
 6566SOL    HW120072   4.486   2.049   5.173
 6566SOL    HW220073   4.404   2.070   5.312
 6567SOL     OW20074   3.799   2.207   3.757
 6567SOL    HW120075   3.707   2.179   3.728
 6567SOL    HW220076   3.830   2.284   3.701
 6568SOL     OW20077   3.796   2.028   4.042
 6568SOL    HW120078   3.779   2.111   3.988
 6568SOL    HW220079   3.886   1.991   4.020
 6569SOL     OW20080   4.337   2.704   5.155
 6569SOL    HW120081   4.393   2.785   5.138
 6569SOL    HW220082   4.396   2.624   5.158
 6570SOL     OW20083   4.440   2.427   5.432
 6570SOL    HW120084   4.459   2.492   5.506
 6570SOL    HW220085   4.500   2.347   5.441
 6571SOL     OW20086   4.114   3.603   5.284
 6571SOL    HW120087   4.023   3.644   5.282
 6571SOL    HW220088   4.107   3.509   5.316
 6572SOL     OW20089   4.949   2.187   4.173
 6572SOL    HW120090   5.014   2.113   4.162
 6572SOL    HW220091   4.969   2.237   4.257
 6573SOL     OW20092   4.318   2.607   4.376
 6573SOL    HW120093   4.368   2.692   4.357
 6573SOL    HW220094   4.230   2.609   4.328
 6574SOL     OW20095   4.583   3.236   3.740
 6574SOL    HW120096   4.537   3.251   3.828
 6574SOL    HW220097   4.627   3.321   3.710
 6575SOL     OW20098   4.385   3.652   4.677
 6575SOL    HW120099   4.339   3.740   4.664
 6575SOL    HW220100   4.484   3.664   4.670
 6576SOL     OW20101   4.583   2.818   4.585
 6576SOL    HW120102   4.637   2.749   4.633
 6576SOL    HW220103   4.551   2.887   4.651
 6577SOL     OW20104   3.945   3.176   5.568
 6577SOL    HW120105   3.880   3.103   5.547
 6577SOL    HW220106   3.949   3.190   5.666
 6578SOL     OW20107   3.803   3.102   4.377
 6578SOL    HW120108   3.802   3.055   4.465
 6578SOL    HW220109   3.885   3.074   4.326
 6579SOL     OW20110   4.396   3.253   5.348
 6579SOL    HW120111   4.318   3.203   5.386
 6579SOL    HW220112   4.393   3.348   5.379
 6580SOL     OW20113   4.152   2.286   4.244
 6580SOL    HW120114   4.182   2.214   4.182
 6580SOL    HW220115   4.113   2.246   4.327
 6581SOL     OW20116   4.041   2.409   5.004
 6581SOL    HW120117   4.079   2.350   5.076
 6581SOL    HW220118   4.081   2.383   4.916
 6582SOL     OW20119   4.536   3.448   4.411
 6582SOL    HW120120   4.568   3.458   4.317
 6582SOL    HW220121   4.457   3.386   4.413
 6583SOL     OW20122   4.725   1.896   4.878
 6583SOL    HW120123   4.662   1.824   4.847
 6583SOL    HW220124   4.818   1.860   4.878
 6584SOL     OW20125   4.494   3.192   4.025
 6584SOL    HW120126   4.448   3.105   4.042
 6584SOL    HW220127   4.585   3.189   4.066
 6585SOL     OW20128   4.342   3.429   5.008
 6585SOL    HW120129   4.337   3.511   5.065
 6585SOL    HW220130   4.431   3.426   4.963
 6586SOL     OW20131   3.763   2.939   4.024
 6586SOL    HW120132   3.862   2.928   4.015
 6586SOL    HW220133   3.723   2.853   4.056
 6587SOL     OW20134   4.599   3.508   4.061
 6587SOL    HW120135   4.522   3.473   4.007
 6587SOL    HW220136   4.567   3.579   4.123
 6588SOL     OW20137   3.954   2.490   5.699
 6588SOL    HW120138   3.861   2.488   5.736
 6588SOL    HW220139   3.955   2.451   5.607
 6589SOL     OW20140   3.949   2.137   6.582
 6589SOL    HW120141   3.984   2.120   6.674
 6589SOL    HW220142   3.861   2.092   6.570
 6590SOL     OW20143   3.743   2.230   6.233
 6590SOL    HW120144   3.661   2.273   6.272
 6590SOL    HW220145   3.715   2.157   6.170
 6591SOL     OW20146   4.293   3.137   6.751
 6591SOL    HW120147   4.200   3.130   6.714
 6591SOL    HW220148   4.304   3.226   6.795
 6592SOL     OW20149   4.492   3.006   6.609
 6592SOL    HW120150   4.414   3.023   6.669
 6592SOL    HW220151   4.526   3.093   6.573
 6593SOL     OW20152   4.574   2.660   7.409
 6593SOL    HW120153   4.570   2.736   7.474
 6593SOL    HW220154   4.596   2.696   7.318
 6594SOL     OW20155   4.409   2.874   6.251
 6594SOL    HW120156   4.478   2.858   6.321
 6594SOL    HW220157   4.336   2.931   6.289
 6595SOL     OW20158   4.410   3.023   7.389
 6595SOL    HW120159   4.470   3.102   7.403
 6595SOL    HW220160   4.324   3.054   7.348
 6596SOL     OW20161   4.059   3.297   6.647
 6596SOL    HW120162   3.981   3.266   6.594
 6596SOL    HW220163   4.117   3.355   6.590
 6597SOL     OW20164   4.162   2.254   7.085
 6597SOL    HW120165   4.244   2.198   7.094
 6597SOL    HW220166   4.081   2.196   7.089
 6598SOL     OW20167   3.955   3.575   6.069
 6598SOL    HW120168   3.989   3.652   6.123
 6598SOL    HW220169   3.999   3.575   5.979
 6599SOL     OW20170   3.954   3.296   6.124
 6599SOL    HW120171   3.928   3.392   6.124
 6599SOL    HW220172   3.883   3.242   6.169
 6600SOL     OW20173   3.964   2.953   6.472
 6600SOL    HW120174   3.978   2.869   6.524
 6600SOL    HW220175   3.909   3.017   6.527
 6601SOL     OW20176   4.344   3.648   7.025
 6601SOL    HW120177   4.252   3.631   7.060
 6601SOL    HW220178   4.372   3.740   7.051
 6602SOL     OW20179   4.330   2.826   5.709
 6602SOL    HW120180   4.337   2.910   5.655
 6602SOL    HW220181   4.376   2.839   5.797
 6603SOL     OW20182   3.846   2.505   6.149
 6603SOL    HW120183   3.801   2.417   6.166
 6603SOL    HW220184   3.845   2.559   6.233
 6604SOL     OW20185   3.751   3.458   5.703
 6604SOL    HW120186   3.732   3.362   5.724
 6604SOL    HW220187   3.718   3.516   5.778
 6605SOL     OW20188   3.837   2.599   7.183
 6605SOL    HW120189   3.925   2.586   7.228
 6605SOL    HW220190   3.824   2.696   7.161
 6606SOL     OW20191   4.337   3.227   6.312
 6606SOL    HW120192   4.288   3.140   6.321
 6606SOL    HW220193   4.314   3.270   6.225
 6607SOL     OW20194   4.533   1.866   6.088
 6607SOL    HW120195   4.573   1.957   6.079
 6607SOL    HW220196   4.433   1.874   6.094
 6608SOL     OW20197   3.921   2.838   6.850
 6608SOL    HW120198   4.010   2.793   6.836
 6608SOL    HW220199   3.848   2.773   6.831
 6609SOL     OW20200   4.041   2.113   7.387
 6609SOL    HW120201   4.112   2.184   7.393
 6609SOL    HW220202   3.953   2.152   7.415
 6610SOL     OW20203   4.322   2.591   5.856
 6610SOL    HW120204   4.346   2.660   5.788
 6610SOL    HW220205   4.244   2.624   5.910
 6611SOL     OW20206   4.531   2.467   7.051
 6611SOL    HW120207   4.484   2.464   7.140
 6611SOL    HW220208   4.480   2.412   6.985
 6612SOL     OW20209   4.715   2.272   6.828
 6612SOL    HW120210   4.638   2.306   6.882
 6612SOL    HW220211   4.681   2.221   6.749
 6613SOL     OW20212   3.800   2.673   6.375
 6613SOL    HW120213   3.899   2.661   6.384
 6613SOL    HW220214   3.776   2.768   6.396
 6614SOL     OW20215   3.854   3.683   7.157
 6614SOL    HW120216   3.844   3.668   7.256
 6614SOL    HW220217   3.768   3.719   7.121
 6615SOL     OW20218   4.589   2.210   5.781
 6615SOL    HW120219   4.648   2.273   5.732
 6615SOL    HW220220   4.608   2.116   5.752
 6616SOL     OW20221   4.274   2.058   6.471
 6616SOL    HW120222   4.269   2.053   6.571
 6616SOL    HW220223   4.276   2.154   6.442
 6617SOL     OW20224   4.732   3.318   6.063
 6617SOL    HW120225   4.686   3.390   6.011
 6617SOL    HW220226   4.728   3.338   6.161
 6618SOL     OW20227   4.075   3.663   6.439
 6618SOL    HW120228   4.125   3.577   6.445
 6618SOL    HW220229   4.140   3.740   6.436
 6619SOL     OW20230   4.045   2.805   5.828
 6619SOL    HW120231   4.127   2.844   5.786
 6619SOL    HW220232   4.018   2.723   5.779
 6620SOL     OW20233   4.185   3.128   7.313
 6620SOL    HW120234   4.135   3.129   7.227
 6620SOL    HW220235   4.122   3.110   7.389
 6621SOL     OW20236   3.926   2.147   7.084
 6621SOL    HW120237   3.846   2.207   7.071
 6621SOL    HW220238   3.916   2.098   7.170
 6622SOL     OW20239   4.188   3.605   5.909
 6622SOL    HW120240   4.221   3.644   5.995
 6622SOL    HW220241   4.264   3.598   5.844
 6623SOL     OW20242   3.973   3.647   6.827
 6623SOL    HW120243   4.030   3.582   6.877
 6623SOL    HW220244   3.957   3.614   6.734
 6624SOL     OW20245   4.106   2.562   6.066
 6624SOL    HW120246   4.151   2.472   6.063
 6624SOL    HW220247   4.012   2.551   6.099
 6625SOL     OW20248   4.338   1.984   5.703
 6625SOL    HW120249   4.436   1.962   5.710
 6625SOL    HW220250   4.307   1.967   5.610
 6626SOL     OW20251   4.505   2.126   7.335
 6626SOL    HW120252   4.572   2.065   7.378
 6626SOL    HW220253   4.432   2.145   7.400
 6627SOL     OW20254   4.612   3.376   6.781
 6627SOL    HW120255   4.589   3.351   6.687
 6627SOL    HW220256   4.673   3.307   6.820
 6628SOL     OW20257   4.527   3.264   6.510
 6628SOL    HW120258   4.617   3.278   6.468
 6628SOL    HW220259   4.456   3.266   6.439
 6629SOL     OW20260   4.646   2.365   6.485
 6629SOL    HW120261   4.621   2.356   6.389
 6629SOL    HW220262   4.694   2.283   6.516
 6630SOL     OW20263   4.263   1.926   6.098
 6630SOL    HW120264   4.182   1.927   6.156
 6630SOL    HW220265   4.266   2.009   6.043
 6631SOL     OW20266   4.021   1.897   5.757
 6631SOL    HW120267   4.070   1.981   5.736
 6631SOL    HW220268   4.083   1.832   5.802
 6632SOL     OW20269   4.951   3.432   6.379
 6632SOL    HW120270   4.972   3.506   6.314
 6632SOL    HW220271   5.019   3.432   6.452
 6633SOL     OW20272   4.183   3.014   6.327
 6633SOL    HW120273   4.112   2.987   6.392
 6633SOL    HW220274   4.157   2.986   6.234
 6634SOL     OW20275   3.802   2.418   6.972
 6634SOL    HW120276   3.894   2.417   6.931
 6634SOL    HW220277   3.796   2.492   7.039
 6635SOL     OW20278   4.285   2.084   6.733
 6635SOL    HW120279   4.323   2.000   6.770
 6635SOL    HW220280   4.197   2.103   6.777
 6636SOL     OW20281   4.741   1.901   6.339
 6636SOL    HW120282   4.669   1.906   6.270
 6636SOL    HW220283   4.717   1.832   6.408
 6637SOL     OW20284   4.212   3.247   5.760
 6637SOL    HW120285   4.125   3.232   5.807
 6637SOL    HW220286   4.195   3.273   5.665
 6638SOL     OW20287   4.251   2.118   5.914
 6638SOL    HW120288   4.278   2.059   5.839
 6638SOL    HW220289   4.251   2.213   5.883
 6639SOL     OW20290   4.639   1.951   6.988
 6639SOL    HW120291   4.664   1.931   6.893
 6639SOL    HW220292   4.711   2.007   7.030
 6640SOL     OW20293   4.429   2.912   5.954
 6640SOL    HW120294   4.415   2.919   6.053
 6640SOL    HW220295   4.513   2.861   5.936
 6641SOL     OW20296   4.134   2.675   6.837
 6641SOL    HW120297   4.220   2.687   6.887
 6641SOL    HW220298   4.092   2.588   6.864
 6642SOL     OW20299   3.788   3.426   6.917
 6642SOL    HW120300   3.742   3.508   6.883
 6642SOL    HW220301   3.886   3.445   6.926
 6643SOL     OW20302   4.091   2.962   6.087
 6643SOL    HW120303   4.084   3.045   6.031
 6643SOL    HW220304   4.095   2.882   6.027
 6644SOL     OW20305   4.290   2.399   6.451
 6644SOL    HW120306   4.302   2.465   6.377
 6644SOL    HW220307   4.336   2.433   6.534
 6645SOL     OW20308   4.078   3.372   6.915
 6645SOL    HW120309   4.057   3.328   6.828
 6645SOL    HW220310   4.175   3.398   6.918
 6646SOL     OW20311   4.126   2.613   7.184
 6646SOL    HW120312   4.194   2.668   7.137
 6646SOL    HW220313   4.166   2.525   7.211
 6647SOL     OW20314   4.228   1.912   7.326
 6647SOL    HW120315   4.186   1.855   7.256
 6647SOL    HW220316   4.162   1.981   7.358
 6648SOL     OW20317   4.297   2.732   6.615
 6648SOL    HW120318   4.341   2.821   6.606
 6648SOL    HW220319   4.234   2.732   6.692
 6649SOL     OW20320   4.933   2.387   5.861
 6649SOL    HW120321   4.946   2.303   5.915
 6649SOL    HW220322   4.904   2.461   5.921
 6650SOL     OW20323   4.031   2.075   6.817
 6650SOL    HW120324   4.008   2.112   6.907
 6650SOL    HW220325   4.001   1.980   6.811
 6651SOL     OW20326   3.761   3.172   6.868
 6651SOL    HW120327   3.814   3.123   6.936
 6651SOL    HW220328   3.783   3.270   6.873
 6652SOL     OW20329   4.456   2.496   6.650
 6652SOL    HW120330   4.515   2.470   6.574
 6652SOL    HW220331   4.428   2.592   6.639
 6653SOL     OW20332   4.031   1.925   6.204
 6653SOL    HW120333   4.020   2.019   6.237
 6653SOL    HW220334   4.026   1.862   6.281
 6654SOL     OW20335   4.747   2.628   6.552
 6654SOL    HW120336   4.762   2.649   6.648
 6654SOL    HW220337   4.717   2.533   6.543
 6655SOL     OW20338   4.704   3.435   7.286
 6655SOL    HW120339   4.684   3.479   7.198
 6655SOL    HW220340   4.743   3.344   7.270
 6656SOL     OW20341   4.074   2.760   7.390
 6656SOL    HW120342   4.150   2.804   7.438
 6656SOL    HW220343   4.109   2.713   7.308
 6657SOL     OW20344   4.043   2.672   6.535
 6657SOL    HW120345   4.136   2.708   6.540
 6657SOL    HW220346   4.037   2.587   6.587
 6658SOL     OW20347   4.063   2.371   6.592
 6658SOL    HW120348   4.011   2.288   6.575
 6658SOL    HW220349   4.140   2.376   6.528
 6659SOL     OW20350   3.732   3.188   5.786
 6659SOL    HW120351   3.639   3.209   5.755
 6659SOL    HW220352   3.742   3.089   5.799
 6660SOL     OW20353   3.812   3.663   6.513
 6660SOL    HW120354   3.770   3.577   6.486
 6660SOL    HW220355   3.906   3.666   6.479
 6661SOL     OW20356   4.228   3.430   6.496
 6661SOL    HW120357   4.294   3.504   6.505
 6661SOL    HW220358   4.272   3.351   6.454
 6662SOL     OW20359   4.726   2.658   6.824
 6662SOL    HW120360   4.767   2.626   6.910
 6662SOL    HW220361   4.630   2.631   6.821
 6663SOL     OW20362   3.764   2.406   6.700
 6663SOL    HW120363   3.849   2.373   6.659
 6663SOL    HW220364   3.777   2.421   6.798
 6664SOL     OW20365   3.913   2.382   7.308
 6664SOL    HW120366   3.972   2.342   7.238
 6664SOL    HW220367   3.855   2.453   7.267
 6665SOL     OW20368   4.539   2.434   5.911
 6665SOL    HW120369   4.546   2.345   5.865
 6665SOL    HW220370   4.445   2.468   5.903
 6666SOL     OW20371   3.976   3.426   7.330
 6666SOL    HW120372   3.946   3.483   7.406
 6666SOL    HW220373   3.969   3.329   7.356
 6667SOL     OW20374   4.395   2.326   6.855
 6667SOL    HW120375   4.361   2.237   6.825
 6667SOL    HW220376   4.421   2.380   6.775
 6668SOL     OW20377   4.654   3.540   7.051
 6668SOL    HW120378   4.630   3.522   6.956
 6668SOL    HW220379   4.684   3.634   7.061
 6669SOL     OW20380   4.197   2.362   5.777
 6669SOL    HW120381   4.258   2.442   5.781
 6669SOL    HW220382   4.102   2.393   5.784
 6670SOL     OW20383   3.883   2.999   7.052
 6670SOL    HW120384   3.905   2.938   7.128
 6670SOL    HW220385   3.893   2.950   6.966
 6671SOL     OW20386   3.807   3.120   6.608
 6671SOL    HW120387   3.802   3.119   6.708
 6671SOL    HW220388   3.724   3.079   6.570
 6672SOL     OW20389   4.412   3.524   7.302
 6672SOL    HW120390   4.356   3.605   7.311
 6672SOL    HW220391   4.464   3.528   7.216
 6673SOL     OW20392   4.627   1.948   5.719
 6673SOL    HW120393   4.678   1.949   5.633
 6673SOL    HW220394   4.683   1.906   5.790
 6674SOL     OW20395   3.854   3.656   7.437
 6674SOL    HW120396   3.813   3.582   7.490
 6674SOL    HW220397   3.918   3.707   7.495
 6675SOL     OW20398   4.554   3.135   7.008
 6675SOL    HW120399   4.549   3.168   7.103
 6675SOL    HW220400   4.468   3.154   6.962
 6676SOL     OW20401   4.396   3.478   5.740
 6676SOL    HW120402   4.405   3.488   5.641
 6676SOL    HW220403   4.356   3.389   5.761
 6677SOL     OW20404   3.987   2.188   6.306
 6677SOL    HW120405   3.908   2.239   6.272
 6677SOL    HW220406   3.978   2.173   6.404
 6678SOL     OW20407   4.546   2.864   6.958
 6678SOL    HW120408   4.586   2.863   6.866
 6678SOL    HW220409   4.556   2.956   6.998
 6679SOL     OW20410   4.096   3.150   7.076
 6679SOL    HW120411   4.083   3.243   7.042
 6679SOL    HW220412   4.012   3.098   7.063
 6680SOL     OW20413   4.314   3.349   6.077
 6680SOL    HW120414   4.356   3.291   6.007
 6680SOL    HW220415   4.270   3.428   6.033
 6681SOL     OW20416   3.979   3.210   5.876
 6681SOL    HW120417   3.883   3.211   5.849
 6681SOL    HW220418   3.991   3.263   5.960
 6682SOL     OW20419   3.829   2.875   7.312
 6682SOL    HW120420   3.752   2.842   7.366
 6682SOL    HW220421   3.914   2.845   7.354
 6683SOL     OW20422   4.396   2.065   7.075
 6683SOL    HW120423   4.486   2.049   7.035
 6683SOL    HW220424   4.404   2.070   7.174
 6684SOL     OW20425   3.799   2.207   5.619
 6684SOL    HW120426   3.707   2.179   5.590
 6684SOL    HW220427   3.830   2.284   5.563
 6685SOL     OW20428   3.796   2.028   5.904
 6685SOL    HW120429   3.779   2.111   5.850
 6685SOL    HW220430   3.886   1.991   5.882
 6686SOL     OW20431   4.337   2.704   7.017
 6686SOL    HW120432   4.393   2.785   7.000
 6686SOL    HW220433   4.396   2.624   7.020
 6687SOL     OW20434   4.440   2.427   7.294
 6687SOL    HW120435   4.459   2.492   7.368
 6687SOL    HW220436   4.500   2.347   7.303
 6688SOL     OW20437   4.114   3.603   7.146
 6688SOL    HW120438   4.023   3.644   7.144
 6688SOL    HW220439   4.107   3.509   7.178
 6689SOL     OW20440   4.949   2.187   6.035
 6689SOL    HW120441   5.014   2.113   6.024
 6689SOL    HW220442   4.969   2.237   6.119
 6690SOL     OW20443   4.318   2.607   6.238
 6690SOL    HW120444   4.368   2.692   6.219
 6690SOL    HW220445   4.230   2.609   6.190
 6691SOL     OW20446   4.583   3.236   5.602
 6691SOL    HW120447   4.537   3.251   5.690
 6691SOL    HW220448   4.627   3.321   5.572
 6692SOL     OW20449   4.385   3.652   6.539
 6692SOL    HW120450   4.339   3.740   6.526
 6692SOL    HW220451   4.484   3.664   6.532
 6693SOL     OW20452   4.583   2.818   6.447
 6693SOL    HW120453   4.637   2.749   6.495
 6693SOL    HW220454   4.551   2.887   6.513
 6694SOL     OW20455   3.945   3.176   7.430
 6694SOL    HW120456   3.880   3.103   7.409
 6694SOL    HW220457   3.949   3.190   7.528
 6695SOL     OW20458   3.803   3.102   6.239
 6695SOL    HW120459   3.802   3.055   6.327
 6695SOL    HW220460   3.885   3.074   6.188
 6696SOL     OW20461   4.396   3.253   7.210
 6696SOL    HW120462   4.318   3.203   7.248
 6696SOL    HW220463   4.393   3.348   7.241
 6697SOL     OW20464   4.152   2.286   6.106
 6697SOL    HW120465   4.182   2.214   6.044
 6697SOL    HW220466   4.113   2.246   6.189
 6698SOL     OW20467   4.041   2.409   6.866
 6698SOL    HW120468   4.079   2.350   6.938
 6698SOL    HW220469   4.081   2.383   6.778
 6699SOL     OW20470   4.536   3.448   6.273
 6699SOL    HW120471   4.568   3.458   6.179
 6699SOL    HW220472   4.457   3.386   6.275
 6700SOL     OW20473   4.725   1.896   6.740
 6700SOL    HW120474   4.662   1.824   6.709
 6700SOL    HW220475   4.818   1.860   6.740
 6701SOL     OW20476   4.494   3.192   5.887
 6701SOL    HW120477   4.448   3.105   5.904
 6701SOL    HW220478   4.585   3.189   5.928
 6702SOL     OW20479   4.342   3.429   6.870
 6702SOL    HW120480   4.337   3.511   6.927
 6702SOL    HW220481   4.431   3.426   6.825
 6703SOL     OW20482   3.763   2.939   5.886
 6703SOL    HW120483   3.862   2.928   5.877
 6703SOL    HW220484   3.723   2.853   5.918
 6704SOL     OW20485   4.599   3.508   5.923
 6704SOL    HW120486   4.522   3.473   5.869
 6704SOL    HW220487   4.567   3.579   5.985
 6705SOL     OW20488   3.954   2.490   7.561
 6705SOL    HW120489   3.861   2.488   7.598
 6705SOL    HW220490   3.955   2.451   7.469
 6706SOL     OW20491   3.949   2.137   8.444
 6706SOL    HW120492   3.984   2.120   8.536
 6706SOL    HW220493   3.861   2.092   8.432
 6707SOL     OW20494   3.743   2.230   8.095
 6707SOL    HW120495   3.661   2.273   8.134
 6707SOL    HW220496   3.715   2.157   8.032
 6708SOL     OW20497   4.293   3.137   8.613
 6708SOL    HW120498   4.200   3.130   8.576
 6708SOL    HW220499   4.304   3.226   8.657
 6709SOL     OW20500   4.492   3.006   8.471
 6709SOL    HW120501   4.414   3.023   8.531
 6709SOL    HW220502   4.526   3.093   8.435
 6710SOL     OW20503   4.574   2.660   9.271
 6710SOL    HW120504   4.570   2.736   9.336
 6710SOL    HW220505   4.596   2.696   9.180
 6711SOL     OW20506   4.409   2.874   8.113
 6711SOL    HW120507   4.478   2.858   8.183
 6711SOL    HW220508   4.336   2.931   8.151
 6712SOL     OW20509   4.410   3.023   9.251
 6712SOL    HW120510   4.470   3.102   9.265
 6712SOL    HW220511   4.324   3.054   9.210
 6713SOL     OW20512   4.059   3.297   8.509
 6713SOL    HW120513   3.981   3.266   8.456
 6713SOL    HW220514   4.117   3.355   8.452
 6714SOL     OW20515   4.162   2.254   8.947
 6714SOL    HW120516   4.244   2.198   8.956
 6714SOL    HW220517   4.081   2.196   8.951
 6715SOL     OW20518   3.955   3.575   7.931
 6715SOL    HW120519   3.989   3.652   7.985
 6715SOL    HW220520   3.999   3.575   7.841
 6716SOL     OW20521   3.954   3.296   7.986
 6716SOL    HW120522   3.928   3.392   7.986
 6716SOL    HW220523   3.883   3.242   8.031
 6717SOL     OW20524   3.964   2.953   8.334
 6717SOL    HW120525   3.978   2.869   8.386
 6717SOL    HW220526   3.909   3.017   8.389
 6718SOL     OW20527   4.344   3.648   8.887
 6718SOL    HW120528   4.252   3.631   8.922
 6718SOL    HW220529   4.372   3.740   8.913
 6719SOL     OW20530   4.330   2.826   7.571
 6719SOL    HW120531   4.337   2.910   7.517
 6719SOL    HW220532   4.376   2.839   7.659
 6720SOL     OW20533   3.846   2.505   8.011
 6720SOL    HW120534   3.801   2.417   8.028
 6720SOL    HW220535   3.845   2.559   8.095
 6721SOL     OW20536   3.751   3.458   7.565
 6721SOL    HW120537   3.732   3.362   7.586
 6721SOL    HW220538   3.718   3.516   7.640
 6722SOL     OW20539   3.837   2.599   9.045
 6722SOL    HW120540   3.925   2.586   9.090
 6722SOL    HW220541   3.824   2.696   9.023
 6723SOL     OW20542   4.337   3.227   8.174
 6723SOL    HW120543   4.288   3.140   8.183
 6723SOL    HW220544   4.314   3.270   8.087
 6724SOL     OW20545   4.533   1.866   7.950
 6724SOL    HW120546   4.573   1.957   7.941
 6724SOL    HW220547   4.433   1.874   7.956
 6725SOL     OW20548   3.921   2.838   8.712
 6725SOL    HW120549   4.010   2.793   8.698
 6725SOL    HW220550   3.848   2.773   8.693
 6726SOL     OW20551   4.041   2.113   9.249
 6726SOL    HW120552   4.112   2.184   9.255
 6726SOL    HW220553   3.953   2.152   9.277
 6727SOL     OW20554   4.322   2.591   7.718
 6727SOL    HW120555   4.346   2.660   7.650
 6727SOL    HW220556   4.244   2.624   7.772
 6728SOL     OW20557   4.531   2.467   8.913
 6728SOL    HW120558   4.484   2.464   9.002
 6728SOL    HW220559   4.480   2.412   8.847
 6729SOL     OW20560   4.715   2.272   8.690
 6729SOL    HW120561   4.638   2.306   8.744
 6729SOL    HW220562   4.681   2.221   8.611
 6730SOL     OW20563   3.800   2.673   8.237
 6730SOL    HW120564   3.899   2.661   8.246
 6730SOL    HW220565   3.776   2.768   8.258
 6731SOL     OW20566   3.854   3.683   9.019
 6731SOL    HW120567   3.844   3.668   9.118
 6731SOL    HW220568   3.768   3.719   8.983
 6732SOL     OW20569   4.589   2.210   7.643
 6732SOL    HW120570   4.648   2.273   7.594
 6732SOL    HW220571   4.608   2.116   7.614
 6733SOL     OW20572   4.274   2.058   8.333
 6733SOL    HW120573   4.269   2.053   8.433
 6733SOL    HW220574   4.276   2.154   8.304
 6734SOL     OW20575   4.732   3.318   7.925
 6734SOL    HW120576   4.686   3.390   7.873
 6734SOL    HW220577   4.728   3.338   8.023
 6735SOL     OW20578   4.075   3.663   8.301
 6735SOL    HW120579   4.125   3.577   8.307
 6735SOL    HW220580   4.140   3.740   8.298
 6736SOL     OW20581   4.045   2.805   7.690
 6736SOL    HW120582   4.127   2.844   7.648
 6736SOL    HW220583   4.018   2.723   7.641
 6737SOL     OW20584   4.185   3.128   9.175
 6737SOL    HW120585   4.135   3.129   9.089
 6737SOL    HW220586   4.122   3.110   9.251
 6738SOL     OW20587   3.926   2.147   8.946
 6738SOL    HW120588   3.846   2.207   8.933
 6738SOL    HW220589   3.916   2.098   9.032
 6739SOL     OW20590   4.188   3.605   7.771
 6739SOL    HW120591   4.221   3.644   7.857
 6739SOL    HW220592   4.264   3.598   7.706
 6740SOL     OW20593   3.973   3.647   8.689
 6740SOL    HW120594   4.030   3.582   8.739
 6740SOL    HW220595   3.957   3.614   8.596
 6741SOL     OW20596   4.106   2.562   7.928
 6741SOL    HW120597   4.151   2.472   7.925
 6741SOL    HW220598   4.012   2.551   7.961
 6742SOL     OW20599   4.338   1.984   7.565
 6742SOL    HW120600   4.436   1.962   7.572
 6742SOL    HW220601   4.307   1.967   7.472
 6743SOL     OW20602   4.505   2.126   9.197
 6743SOL    HW120603   4.572   2.065   9.240
 6743SOL    HW220604   4.432   2.145   9.262
 6744SOL     OW20605   4.612   3.376   8.643
 6744SOL    HW120606   4.589   3.351   8.549
 6744SOL    HW220607   4.673   3.307   8.682
 6745SOL     OW20608   4.527   3.264   8.372
 6745SOL    HW120609   4.617   3.278   8.330
 6745SOL    HW220610   4.456   3.266   8.301
 6746SOL     OW20611   4.646   2.365   8.347
 6746SOL    HW120612   4.621   2.356   8.251
 6746SOL    HW220613   4.694   2.283   8.378
 6747SOL     OW20614   4.263   1.926   7.960
 6747SOL    HW120615   4.182   1.927   8.018
 6747SOL    HW220616   4.266   2.009   7.905
 6748SOL     OW20617   4.021   1.897   7.619
 6748SOL    HW120618   4.070   1.981   7.598
 6748SOL    HW220619   4.083   1.832   7.664
 6749SOL     OW20620   4.951   3.432   8.241
 6749SOL    HW120621   4.972   3.506   8.176
 6749SOL    HW220622   5.019   3.432   8.314
 6750SOL     OW20623   4.183   3.014   8.189
 6750SOL    HW120624   4.112   2.987   8.254
 6750SOL    HW220625   4.157   2.986   8.096
 6751SOL     OW20626   3.802   2.418   8.834
 6751SOL    HW120627   3.894   2.417   8.793
 6751SOL    HW220628   3.796   2.492   8.901
 6752SOL     OW20629   4.285   2.084   8.595
 6752SOL    HW120630   4.323   2.000   8.632
 6752SOL    HW220631   4.197   2.103   8.639
 6753SOL     OW20632   4.741   1.901   8.201
 6753SOL    HW120633   4.669   1.906   8.132
 6753SOL    HW220634   4.717   1.832   8.270
 6754SOL     OW20635   4.212   3.247   7.622
 6754SOL    HW120636   4.125   3.232   7.669
 6754SOL    HW220637   4.195   3.273   7.527
 6755SOL     OW20638   4.251   2.118   7.776
 6755SOL    HW120639   4.278   2.059   7.701
 6755SOL    HW220640   4.251   2.213   7.745
 6756SOL     OW20641   4.639   1.951   8.850
 6756SOL    HW120642   4.664   1.931   8.755
 6756SOL    HW220643   4.711   2.007   8.892
 6757SOL     OW20644   4.429   2.912   7.816
 6757SOL    HW120645   4.415   2.919   7.915
 6757SOL    HW220646   4.513   2.861   7.798
 6758SOL     OW20647   4.134   2.675   8.699
 6758SOL    HW120648   4.220   2.687   8.749
 6758SOL    HW220649   4.092   2.588   8.726
 6759SOL     OW20650   3.788   3.426   8.779
 6759SOL    HW120651   3.742   3.508   8.745
 6759SOL    HW220652   3.886   3.445   8.788
 6760SOL     OW20653   4.091   2.962   7.949
 6760SOL    HW120654   4.084   3.045   7.893
 6760SOL    HW220655   4.095   2.882   7.889
 6761SOL     OW20656   4.290   2.399   8.313
 6761SOL    HW120657   4.302   2.465   8.239
 6761SOL    HW220658   4.336   2.433   8.396
 6762SOL     OW20659   4.078   3.372   8.777
 6762SOL    HW120660   4.057   3.328   8.690
 6762SOL    HW220661   4.175   3.398   8.780
 6763SOL     OW20662   4.126   2.613   9.046
 6763SOL    HW120663   4.194   2.668   8.999
 6763SOL    HW220664   4.166   2.525   9.073
 6764SOL     OW20665   4.228   1.912   9.188
 6764SOL    HW120666   4.186   1.855   9.118
 6764SOL    HW220667   4.162   1.981   9.220
 6765SOL     OW20668   4.297   2.732   8.477
 6765SOL    HW120669   4.341   2.821   8.468
 6765SOL    HW220670   4.234   2.732   8.554
 6766SOL     OW20671   4.933   2.387   7.723
 6766SOL    HW120672   4.946   2.303   7.777
 6766SOL    HW220673   4.904   2.461   7.783
 6767SOL     OW20674   4.031   2.075   8.679
 6767SOL    HW120675   4.008   2.112   8.769
 6767SOL    HW220676   4.001   1.980   8.673
 6768SOL     OW20677   3.761   3.172   8.730
 6768SOL    HW120678   3.814   3.123   8.798
 6768SOL    HW220679   3.783   3.270   8.735
 6769SOL     OW20680   4.456   2.496   8.512
 6769SOL    HW120681   4.515   2.470   8.436
 6769SOL    HW220682   4.428   2.592   8.501
 6770SOL     OW20683   4.031   1.925   8.066
 6770SOL    HW120684   4.020   2.019   8.099
 6770SOL    HW220685   4.026   1.862   8.143
 6771SOL     OW20686   4.747   2.628   8.414
 6771SOL    HW120687   4.762   2.649   8.510
 6771SOL    HW220688   4.717   2.533   8.405
 6772SOL     OW20689   4.704   3.435   9.148
 6772SOL    HW120690   4.684   3.479   9.060
 6772SOL    HW220691   4.743   3.344   9.132
 6773SOL     OW20692   4.074   2.760   9.252
 6773SOL    HW120693   4.150   2.804   9.300
 6773SOL    HW220694   4.109   2.713   9.170
 6774SOL     OW20695   4.043   2.672   8.397
 6774SOL    HW120696   4.136   2.708   8.402
 6774SOL    HW220697   4.037   2.587   8.449
 6775SOL     OW20698   4.063   2.371   8.454
 6775SOL    HW120699   4.011   2.288   8.437
 6775SOL    HW220700   4.140   2.376   8.390
 6776SOL     OW20701   3.732   3.188   7.648
 6776SOL    HW120702   3.639   3.209   7.617
 6776SOL    HW220703   3.742   3.089   7.661
 6777SOL     OW20704   3.812   3.663   8.375
 6777SOL    HW120705   3.770   3.577   8.348
 6777SOL    HW220706   3.906   3.666   8.341
 6778SOL     OW20707   4.228   3.430   8.358
 6778SOL    HW120708   4.294   3.504   8.367
 6778SOL    HW220709   4.272   3.351   8.316
 6779SOL     OW20710   4.726   2.658   8.686
 6779SOL    HW120711   4.767   2.626   8.772
 6779SOL    HW220712   4.630   2.631   8.683
 6780SOL     OW20713   3.764   2.406   8.562
 6780SOL    HW120714   3.849   2.373   8.521
 6780SOL    HW220715   3.777   2.421   8.660
 6781SOL     OW20716   3.913   2.382   9.170
 6781SOL    HW120717   3.972   2.342   9.100
 6781SOL    HW220718   3.855   2.453   9.129
 6782SOL     OW20719   4.539   2.434   7.773
 6782SOL    HW120720   4.546   2.345   7.727
 6782SOL    HW220721   4.445   2.468   7.765
 6783SOL     OW20722   3.976   3.426   9.192
 6783SOL    HW120723   3.946   3.483   9.268
 6783SOL    HW220724   3.969   3.329   9.218
 6784SOL     OW20725   4.395   2.326   8.717
 6784SOL    HW120726   4.361   2.237   8.687
 6784SOL    HW220727   4.421   2.380   8.637
 6785SOL     OW20728   4.654   3.540   8.913
 6785SOL    HW120729   4.630   3.522   8.818
 6785SOL    HW220730   4.684   3.634   8.923
 6786SOL     OW20731   4.197   2.362   7.639
 6786SOL    HW120732   4.258   2.442   7.643
 6786SOL    HW220733   4.102   2.393   7.646
 6787SOL     OW20734   3.883   2.999   8.914
 6787SOL    HW120735   3.905   2.938   8.990
 6787SOL    HW220736   3.893   2.950   8.828
 6788SOL     OW20737   3.807   3.120   8.470
 6788SOL    HW120738   3.802   3.119   8.570
 6788SOL    HW220739   3.724   3.079   8.432
 6789SOL     OW20740   4.412   3.524   9.164
 6789SOL    HW120741   4.356   3.605   9.173
 6789SOL    HW220742   4.464   3.528   9.078
 6790SOL     OW20743   4.627   1.948   7.581
 6790SOL    HW120744   4.678   1.949   7.495
 6790SOL    HW220745   4.683   1.906   7.652
 6791SOL     OW20746   3.854   3.656   9.299
 6791SOL    HW120747   3.813   3.582   9.352
 6791SOL    HW220748   3.918   3.707   9.357
 6792SOL     OW20749   4.554   3.135   8.870
 6792SOL    HW120750   4.549   3.168   8.965
 6792SOL    HW220751   4.468   3.154   8.824
 6793SOL     OW20752   4.396   3.478   7.602
 6793SOL    HW120753   4.405   3.488   7.503
 6793SOL    HW220754   4.356   3.389   7.623
 6794SOL     OW20755   3.987   2.188   8.168
 6794SOL    HW120756   3.908   2.239   8.134
 6794SOL    HW220757   3.978   2.173   8.266
 6795SOL     OW20758   4.546   2.864   8.820
 6795SOL    HW120759   4.586   2.863   8.728
 6795SOL    HW220760   4.556   2.956   8.860
 6796SOL     OW20761   4.096   3.150   8.938
 6796SOL    HW120762   4.083   3.243   8.904
 6796SOL    HW220763   4.012   3.098   8.925
 6797SOL     OW20764   4.314   3.349   7.939
 6797SOL    HW120765   4.356   3.291   7.869
 6797SOL    HW220766   4.270   3.428   7.895
 6798SOL     OW20767   3.979   3.210   7.738
 6798SOL    HW120768   3.883   3.211   7.711
 6798SOL    HW220769   3.991   3.263   7.822
 6799SOL     OW20770   3.829   2.875   9.174
 6799SOL    HW120771   3.752   2.842   9.228
 6799SOL    HW220772   3.914   2.845   9.216
 6800SOL     OW20773   4.396   2.065   8.937
 6800SOL    HW120774   4.486   2.049   8.897
 6800SOL    HW220775   4.404   2.070   9.036
 6801SOL     OW20776   3.799   2.207   7.481
 6801SOL    HW120777   3.707   2.179   7.452
 6801SOL    HW220778   3.830   2.284   7.425
 6802SOL     OW20779   3.796   2.028   7.766
 6802SOL    HW120780   3.779   2.111   7.712
 6802SOL    HW220781   3.886   1.991   7.744
 6803SOL     OW20782   4.337   2.704   8.879
 6803SOL    HW120783   4.393   2.785   8.862
 6803SOL    HW220784   4.396   2.624   8.882
 6804SOL     OW20785   4.440   2.427   9.156
 6804SOL    HW120786   4.459   2.492   9.230
 6804SOL    HW220787   4.500   2.347   9.165
 6805SOL     OW20788   4.114   3.603   9.008
 6805SOL    HW120789   4.023   3.644   9.006
 6805SOL    HW220790   4.107   3.509   9.040
 6806SOL     OW20791   4.949   2.187   7.897
 6806SOL    HW120792   5.014   2.113   7.886
 6806SOL    HW220793   4.969   2.237   7.981
 6807SOL     OW20794   4.318   2.607   8.100
 6807SOL    HW120795   4.368   2.692   8.081
 6807SOL    HW220796   4.230   2.609   8.052
 6808SOL     OW20797   4.583   3.236   7.464
 6808SOL    HW120798   4.537   3.251   7.552
 6808SOL    HW220799   4.627   3.321   7.434
 6809SOL     OW20800   4.385   3.652   8.401
 6809SOL    HW120801   4.339   3.740   8.388
 6809SOL    HW220802   4.484   3.664   8.394
 6810SOL     OW20803   4.583   2.818   8.309
 6810SOL    HW120804   4.637   2.749   8.357
 6810SOL    HW220805   4.551   2.887   8.375
 6811SOL     OW20806   3.945   3.176   9.292
 6811SOL    HW120807   3.880   3.103   9.271
 6811SOL    HW220808   3.949   3.190   9.390
 6812SOL     OW20809   3.803   3.102   8.101
 6812SOL    HW120810   3.802   3.055   8.189
 6812SOL    HW220811   3.885   3.074   8.050
 6813SOL     OW20812   4.396   3.253   9.072
 6813SOL    HW120813   4.318   3.203   9.110
 6813SOL    HW220814   4.393   3.348   9.103
 6814SOL     OW20815   4.152   2.286   7.968
 6814SOL    HW120816   4.182   2.214   7.906
 6814SOL    HW220817   4.113   2.246   8.051
 6815SOL     OW20818   4.041   2.409   8.728
 6815SOL    HW120819   4.079   2.350   8.800
 6815SOL    HW220820   4.081   2.383   8.640
 6816SOL     OW20821   4.536   3.448   8.135
 6816SOL    HW120822   4.568   3.458   8.041
 6816SOL    HW220823   4.457   3.386   8.137
 6817SOL     OW20824   4.725   1.896   8.602
 6817SOL    HW120825   4.662   1.824   8.571
 6817SOL    HW220826   4.818   1.860   8.602
 6818SOL     OW20827   4.494   3.192   7.749
 6818SOL    HW120828   4.448   3.105   7.766
 6818SOL    HW220829   4.585   3.189   7.790
 6819SOL     OW20830   4.342   3.429   8.732
 6819SOL    HW120831   4.337   3.511   8.789
 6819SOL    HW220832   4.431   3.426   8.687
 6820SOL     OW20833   3.763   2.939   7.748
 6820SOL    HW120834   3.862   2.928   7.739
 6820SOL    HW220835   3.723   2.853   7.780
 6821SOL     OW20836   4.599   3.508   7.785
 6821SOL    HW120837   4.522   3.473   7.731
 6821SOL    HW220838   4.567   3.579   7.847
 6822SOL     OW20839   3.954   2.490   9.423
 6822SOL    HW120840   3.861   2.488   9.460
 6822SOL    HW220841   3.955   2.451   9.331
 6823SOL     OW20842   3.955   3.575   9.793
 6823SOL    HW120843   3.989   3.652   9.847
 6823SOL    HW220844   3.999   3.575   9.703
 6824SOL     OW20845   3.954   3.296   9.848
 6824SOL    HW120846   3.928   3.392   9.848
 6824SOL    HW220847   3.883   3.242   9.893
 6825SOL     OW20848   4.330   2.826   9.433
 6825SOL    HW120849   4.337   2.910   9.379
 6825SOL    HW220850   4.376   2.839   9.521
 6826SOL     OW20851   3.846   2.505   9.873
 6826SOL    HW120852   3.801   2.417   9.890
 6826SOL    HW220853   3.845   2.559   9.957
 6827SOL     OW20854   3.751   3.458   9.427
 6827SOL    HW120855   3.732   3.362   9.448
 6827SOL    HW220856   3.718   3.516   9.502
 6828SOL     OW20857   4.337   3.227  10.036
 6828SOL    HW120858   4.288   3.140  10.045
 6828SOL    HW220859   4.314   3.270   9.949
 6829SOL     OW20860   4.533   1.866   9.812
 6829SOL    HW120861   4.573   1.957   9.803
 6829SOL    HW220862   4.433   1.874   9.818
 6830SOL     OW20863   4.322   2.591   9.580
 6830SOL    HW120864   4.346   2.660   9.512
 6830SOL    HW220865   4.244   2.624   9.634
 6831SOL     OW20866   3.800   2.673  10.099
 6831SOL    HW120867   3.899   2.661  10.108
 6831SOL    HW220868   3.776   2.768  10.120
 6832SOL     OW20869   4.589   2.210   9.505
 6832SOL    HW120870   4.648   2.273   9.456
 6832SOL    HW220871   4.608   2.116   9.476
 6833SOL     OW20872   4.732   3.318   9.787
 6833SOL    HW120873   4.686   3.390   9.735
 6833SOL    HW220874   4.728   3.338   9.885
 6834SOL     OW20875   4.075   3.663  10.163
 6834SOL    HW120876   4.125   3.577  10.169
 6834SOL    HW220877   4.140   3.740  10.160
 6835SOL     OW20878   4.045   2.805   9.552
 6835SOL    HW120879   4.127   2.844   9.510
 6835SOL    HW220880   4.018   2.723   9.503
 6836SOL     OW20881   4.188   3.605   9.633
 6836SOL    HW120882   4.221   3.644   9.719
 6836SOL    HW220883   4.264   3.598   9.568
 6837SOL     OW20884   4.106   2.562   9.790
 6837SOL    HW120885   4.151   2.472   9.787
 6837SOL    HW220886   4.012   2.551   9.823
 6838SOL     OW20887   4.338   1.984   9.427
 6838SOL    HW120888   4.436   1.962   9.434
 6838SOL    HW220889   4.307   1.967   9.334
 6839SOL     OW20890   4.263   1.926   9.822
 6839SOL    HW120891   4.182   1.927   9.880
 6839SOL    HW220892   4.266   2.009   9.767
 6840SOL     OW20893   4.021   1.897   9.481
 6840SOL    HW120894   4.070   1.981   9.460
 6840SOL    HW220895   4.083   1.832   9.526
 6841SOL     OW20896   4.659   2.098   9.790
 6841SOL    HW120897   4.611   2.139   9.712
 6841SOL    HW220898   4.758   2.096   9.771
 6842SOL     OW20899   4.183   3.014  10.051
 6842SOL    HW120900   4.112   2.987  10.116
 6842SOL    HW220901   4.157   2.986   9.958
 6843SOL     OW20902   4.590   2.316   9.952
 6843SOL    HW120903   4.558   2.388   9.890
 6843SOL    HW220904   4.614   2.235   9.899
 6844SOL     OW20905   4.212   3.247   9.484
 6844SOL    HW120906   4.125   3.232   9.531
 6844SOL    HW220907   4.195   3.273   9.389
 6845SOL     OW20908   4.251   2.118   9.638
 6845SOL    HW120909   4.278   2.059   9.563
 6845SOL    HW220910   4.251   2.213   9.607
 6846SOL     OW20911   4.429   2.912   9.678
 6846SOL    HW120912   4.415   2.919   9.777
 6846SOL    HW220913   4.513   2.861   9.660
 6847SOL     OW20914   4.091   2.962   9.811
 6847SOL    HW120915   4.084   3.045   9.755
 6847SOL    HW220916   4.095   2.882   9.751
 6848SOL     OW20917   4.933   2.387   9.585
 6848SOL    HW120918   4.946   2.303   9.639
 6848SOL    HW220919   4.904   2.461   9.645
 6849SOL     OW20920   4.031   1.925   9.928
 6849SOL    HW120921   4.020   2.019   9.961
 6849SOL    HW220922   4.026   1.862  10.005
 6850SOL     OW20923   3.732   3.188   9.510
 6850SOL    HW120924   3.639   3.209   9.479
 6850SOL    HW220925   3.742   3.089   9.523
 6851SOL     OW20926   4.539   2.434   9.635
 6851SOL    HW120927   4.546   2.345   9.589
 6851SOL    HW220928   4.445   2.468   9.627
 6852SOL     OW20929   4.197   2.362   9.501
 6852SOL    HW120930   4.258   2.442   9.505
 6852SOL    HW220931   4.102   2.393   9.508
 6853SOL     OW20932   4.627   1.948   9.443
 6853SOL    HW120933   4.678   1.949   9.357
 6853SOL    HW220934   4.683   1.906   9.514
 6854SOL     OW20935   4.396   3.478   9.464
 6854SOL    HW120936   4.405   3.488   9.365
 6854SOL    HW220937   4.356   3.389   9.485
 6855SOL     OW20938   4.314   3.349   9.801
 6855SOL    HW120939   4.356   3.291   9.731
 6855SOL    HW220940   4.270   3.428   9.757
 6856SOL     OW20941   3.979   3.210   9.600
 6856SOL    HW120942   3.883   3.211   9.573
 6856SOL    HW220943   3.991   3.263   9.684
 6857SOL     OW20944   3.799   2.207   9.343
 6857SOL    HW120945   3.707   2.179   9.314
 6857SOL    HW220946   3.830   2.284   9.287
 6858SOL     OW20947   3.796   2.028   9.628
 6858SOL    HW120948   3.779   2.111   9.574
 6858SOL    HW220949   3.886   1.991   9.606
 6859SOL     OW20950   4.949   2.187   9.759
 6859SOL    HW120951   5.014   2.113   9.748
 6859SOL    HW220952   4.969   2.237   9.843
 6860SOL     OW20953   4.318   2.607   9.962
 6860SOL    HW120954   4.368   2.692   9.943
 6860SOL    HW220955   4.230   2.609   9.914
 6861SOL     OW20956   4.583   3.236   9.326
 6861SOL    HW120957   4.537   3.251   9.414
 6861SOL    HW220958   4.627   3.321   9.296
 6862SOL     OW20959   3.803   3.102   9.963
 6862SOL    HW120960   3.802   3.055  10.051
 6862SOL    HW220961   3.885   3.074   9.912
 6863SOL     OW20962   4.152   2.286   9.830
 6863SOL    HW120963   4.182   2.214   9.768
 6863SOL    HW220964   4.113   2.246   9.913
 6864SOL     OW20965   4.494   3.192   9.611
 6864SOL    HW120966   4.448   3.105   9.628
 6864SOL    HW220967   4.585   3.189   9.652
 6865SOL     OW20968   3.763   2.939   9.610
 6865SOL    HW120969   3.862   2.928   9.601
 6865SOL    HW220970   3.723   2.853   9.642
 6866SOL     OW20971   4.599   3.508   9.647
 6866SOL    HW120972   4.522   3.473   9.593
 6866SOL    HW220973   4.567   3.579   9.709
 6867SOL     OW20974   3.954   4.352   0.113
 6867SOL    HW120975   3.861   4.350   0.150
 6867SOL    HW220976   3.955   4.313   0.021
 6868SOL     OW20977   3.949   3.999   0.996
 6868SOL    HW120978   3.984   3.982   1.088
 6868SOL    HW220979   3.861   3.954   0.984
 6869SOL     OW20980   3.743   4.092   0.647
 6869SOL    HW120981   3.661   4.135   0.686
 6869SOL    HW220982   3.715   4.019   0.584
 6870SOL     OW20983   4.574   4.522   1.823
 6870SOL    HW120984   4.570   4.598   1.888
 6870SOL    HW220985   4.596   4.558   1.732
 6871SOL     OW20986   4.409   4.736   0.665
 6871SOL    HW120987   4.478   4.720   0.735
 6871SOL    HW220988   4.336   4.793   0.703
 6872SOL     OW20989   4.162   4.116   1.499
 6872SOL    HW120990   4.244   4.060   1.508
 6872SOL    HW220991   4.081   4.058   1.503
 6873SOL     OW20992   3.846   4.367   0.563
 6873SOL    HW120993   3.801   4.279   0.580
 6873SOL    HW220994   3.845   4.421   0.647
 6874SOL     OW20995   3.837   4.461   1.597
 6874SOL    HW120996   3.925   4.448   1.642
 6874SOL    HW220997   3.824   4.558   1.575
 6875SOL     OW20998   4.533   3.728   0.502
 6875SOL    HW120999   4.573   3.819   0.493
 6875SOL    HW221000   4.433   3.736   0.508
 6876SOL     OW21001   3.921   4.700   1.264
 6876SOL    HW121002   4.010   4.655   1.250
 6876SOL    HW221003   3.848   4.635   1.245
 6877SOL     OW21004   4.041   3.975   1.801
 6877SOL    HW121005   4.112   4.046   1.807
 6877SOL    HW221006   3.953   4.014   1.829
 6878SOL     OW21007   4.322   4.453   0.270
 6878SOL    HW121008   4.346   4.522   0.202
 6878SOL    HW221009   4.244   4.486   0.324
 6879SOL     OW21010   4.531   4.329   1.465
 6879SOL    HW121011   4.484   4.326   1.554
 6879SOL    HW221012   4.480   4.274   1.399
 6880SOL     OW21013   4.715   4.134   1.242
 6880SOL    HW121014   4.638   4.168   1.296
 6880SOL    HW221015   4.681   4.083   1.163
 6881SOL     OW21016   3.800   4.535   0.789
 6881SOL    HW121017   3.899   4.523   0.798
 6881SOL    HW221018   3.776   4.630   0.810
 6882SOL     OW21019   4.589   4.072   0.195
 6882SOL    HW121020   4.648   4.135   0.146
 6882SOL    HW221021   4.608   3.978   0.166
 6883SOL     OW21022   4.274   3.920   0.885
 6883SOL    HW121023   4.269   3.915   0.985
 6883SOL    HW221024   4.276   4.016   0.856
 6884SOL     OW21025   3.926   4.009   1.498
 6884SOL    HW121026   3.846   4.069   1.485
 6884SOL    HW221027   3.916   3.960   1.584
 6885SOL     OW21028   4.106   4.424   0.480
 6885SOL    HW121029   4.151   4.334   0.477
 6885SOL    HW221030   4.012   4.413   0.513
 6886SOL     OW21031   4.338   3.846   0.117
 6886SOL    HW121032   4.436   3.824   0.124
 6886SOL    HW221033   4.307   3.829   0.024
 6887SOL     OW21034   4.505   3.988   1.749
 6887SOL    HW121035   4.572   3.927   1.792
 6887SOL    HW221036   4.432   4.007   1.814
 6888SOL     OW21037   4.646   4.227   0.899
 6888SOL    HW121038   4.621   4.218   0.803
 6888SOL    HW221039   4.694   4.145   0.930
 6889SOL     OW21040   4.263   3.788   0.512
 6889SOL    HW121041   4.182   3.789   0.570
 6889SOL    HW221042   4.266   3.871   0.457
 6890SOL     OW21043   3.802   4.280   1.386
 6890SOL    HW121044   3.894   4.279   1.345
 6890SOL    HW221045   3.796   4.354   1.453
 6891SOL     OW21046   4.285   3.946   1.147
 6891SOL    HW121047   4.323   3.862   1.184
 6891SOL    HW221048   4.197   3.965   1.191
 6892SOL     OW21049   4.741   3.763   0.753
 6892SOL    HW121050   4.669   3.768   0.684
 6892SOL    HW221051   4.717   3.694   0.822
 6893SOL     OW21052   4.251   3.980   0.328
 6893SOL    HW121053   4.278   3.921   0.253
 6893SOL    HW221054   4.251   4.075   0.297
 6894SOL     OW21055   4.639   3.813   1.402
 6894SOL    HW121056   4.664   3.793   1.307
 6894SOL    HW221057   4.711   3.869   1.444
 6895SOL     OW21058   4.134   4.537   1.251
 6895SOL    HW121059   4.220   4.549   1.301
 6895SOL    HW221060   4.092   4.450   1.278
 6896SOL     OW21061   4.290   4.261   0.865
 6896SOL    HW121062   4.302   4.327   0.791
 6896SOL    HW221063   4.336   4.295   0.948
 6897SOL     OW21064   4.126   4.475   1.598
 6897SOL    HW121065   4.194   4.530   1.551
 6897SOL    HW221066   4.166   4.387   1.625
 6898SOL     OW21067   4.228   3.774   1.740
 6898SOL    HW121068   4.186   3.717   1.670
 6898SOL    HW221069   4.162   3.843   1.772
 6899SOL     OW21070   4.297   4.594   1.029
 6899SOL    HW121071   4.341   4.683   1.020
 6899SOL    HW221072   4.234   4.594   1.106
 6900SOL     OW21073   4.933   4.249   0.275
 6900SOL    HW121074   4.946   4.165   0.329
 6900SOL    HW221075   4.904   4.323   0.335
 6901SOL     OW21076   4.031   3.937   1.231
 6901SOL    HW121077   4.008   3.974   1.321
 6901SOL    HW221078   4.001   3.842   1.225
 6902SOL     OW21079   4.456   4.358   1.064
 6902SOL    HW121080   4.515   4.332   0.988
 6902SOL    HW221081   4.428   4.454   1.053
 6903SOL     OW21082   4.031   3.787   0.618
 6903SOL    HW121083   4.020   3.881   0.651
 6903SOL    HW221084   4.026   3.724   0.695
 6904SOL     OW21085   4.747   4.490   0.966
 6904SOL    HW121086   4.762   4.511   1.062
 6904SOL    HW221087   4.717   4.395   0.957
 6905SOL     OW21088   4.074   4.622   1.804
 6905SOL    HW121089   4.150   4.666   1.852
 6905SOL    HW221090   4.109   4.575   1.722
 6906SOL     OW21091   4.792   5.057   0.849
 6906SOL    HW121092   4.799   4.973   0.794
 6906SOL    HW221093   4.854   5.126   0.813
 6907SOL     OW21094   4.043   4.534   0.949
 6907SOL    HW121095   4.136   4.570   0.954
 6907SOL    HW221096   4.037   4.449   1.001
 6908SOL     OW21097   4.063   4.233   1.006
 6908SOL    HW121098   4.011   4.150   0.989
 6908SOL    HW221099   4.140   4.238   0.942
 6909SOL     OW21100   4.726   4.520   1.238
 6909SOL    HW121101   4.767   4.488   1.324
 6909SOL    HW221102   4.630   4.493   1.235
 6910SOL     OW21103   3.764   4.268   1.114
 6910SOL    HW121104   3.849   4.235   1.073
 6910SOL    HW221105   3.777   4.283   1.212
 6911SOL     OW21106   3.913   4.244   1.722
 6911SOL    HW121107   3.972   4.204   1.652
 6911SOL    HW221108   3.855   4.315   1.681
 6912SOL     OW21109   4.539   4.296   0.325
 6912SOL    HW121110   4.546   4.207   0.279
 6912SOL    HW221111   4.445   4.330   0.317
 6913SOL     OW21112   4.395   4.188   1.269
 6913SOL    HW121113   4.361   4.099   1.239
 6913SOL    HW221114   4.421   4.242   1.189
 6914SOL     OW21115   4.197   4.224   0.191
 6914SOL    HW121116   4.258   4.304   0.195
 6914SOL    HW221117   4.102   4.255   0.198
 6915SOL     OW21118   4.627   3.810   0.133
 6915SOL    HW121119   4.678   3.811   0.047
 6915SOL    HW221120   4.683   3.768   0.204
 6916SOL     OW21121   3.987   4.050   0.720
 6916SOL    HW121122   3.908   4.101   0.686
 6916SOL    HW221123   3.978   4.035   0.818
 6917SOL     OW21124   4.763   4.822   0.696
 6917SOL    HW121125   4.693   4.775   0.750
 6917SOL    HW221126   4.822   4.754   0.653
 6918SOL     OW21127   3.829   4.737   1.726
 6918SOL    HW121128   3.752   4.704   1.780
 6918SOL    HW221129   3.914   4.707   1.768
 6919SOL     OW21130   4.396   3.927   1.489
 6919SOL    HW121131   4.486   3.911   1.449
 6919SOL    HW221132   4.404   3.932   1.588
 6920SOL     OW21133   3.799   4.069   0.033
 6920SOL    HW121134   3.707   4.041   0.004
 6920SOL    HW221135   3.830   4.146  -0.023
 6921SOL     OW21136   3.796   3.890   0.318
 6921SOL    HW121137   3.779   3.973   0.264
 6921SOL    HW221138   3.886   3.853   0.296
 6922SOL     OW21139   4.337   4.566   1.431
 6922SOL    HW121140   4.393   4.647   1.414
 6922SOL    HW221141   4.396   4.486   1.434
 6923SOL     OW21142   4.440   4.289   1.708
 6923SOL    HW121143   4.459   4.354   1.782
 6923SOL    HW221144   4.500   4.209   1.717
 6924SOL     OW21145   4.949   4.049   0.449
 6924SOL    HW121146   5.014   3.975   0.438
 6924SOL    HW221147   4.969   4.099   0.533
 6925SOL     OW21148   4.318   4.469   0.652
 6925SOL    HW121149   4.368   4.554   0.633
 6925SOL    HW221150   4.230   4.471   0.604
 6926SOL     OW21151   4.583   4.680   0.861
 6926SOL    HW121152   4.637   4.611   0.909
 6926SOL    HW221153   4.551   4.749   0.927
 6927SOL     OW21154   4.152   4.148   0.520
 6927SOL    HW121155   4.182   4.076   0.458
 6927SOL    HW221156   4.113   4.108   0.603
 6928SOL     OW21157   4.041   4.271   1.280
 6928SOL    HW121158   4.079   4.212   1.352
 6928SOL    HW221159   4.081   4.245   1.192
 6929SOL     OW21160   4.725   3.758   1.154
 6929SOL    HW121161   4.662   3.686   1.123
 6929SOL    HW221162   4.818   3.722   1.154
 6930SOL     OW21163   3.954   4.352   1.975
 6930SOL    HW121164   3.861   4.350   2.012
 6930SOL    HW221165   3.955   4.313   1.883
 6931SOL     OW21166   3.949   3.999   2.858
 6931SOL    HW121167   3.984   3.982   2.950
 6931SOL    HW221168   3.861   3.954   2.846
 6932SOL     OW21169   3.743   4.092   2.509
 6932SOL    HW121170   3.661   4.135   2.548
 6932SOL    HW221171   3.715   4.019   2.446
 6933SOL     OW21172   4.574   4.522   3.685
 6933SOL    HW121173   4.570   4.598   3.750
 6933SOL    HW221174   4.596   4.558   3.594
 6934SOL     OW21175   4.409   4.736   2.527
 6934SOL    HW121176   4.478   4.720   2.597
 6934SOL    HW221177   4.336   4.793   2.565
 6935SOL     OW21178   4.162   4.116   3.361
 6935SOL    HW121179   4.244   4.060   3.370
 6935SOL    HW221180   4.081   4.058   3.365
 6936SOL     OW21181   3.846   4.367   2.425
 6936SOL    HW121182   3.801   4.279   2.442
 6936SOL    HW221183   3.845   4.421   2.509
 6937SOL     OW21184   3.837   4.461   3.459
 6937SOL    HW121185   3.925   4.448   3.504
 6937SOL    HW221186   3.824   4.558   3.437
 6938SOL     OW21187   4.533   3.728   2.364
 6938SOL    HW121188   4.573   3.819   2.355
 6938SOL    HW221189   4.433   3.736   2.370
 6939SOL     OW21190   3.921   4.700   3.126
 6939SOL    HW121191   4.010   4.655   3.112
 6939SOL    HW221192   3.848   4.635   3.107
 6940SOL     OW21193   4.041   3.975   3.663
 6940SOL    HW121194   4.112   4.046   3.669
 6940SOL    HW221195   3.953   4.014   3.691
 6941SOL     OW21196   4.322   4.453   2.132
 6941SOL    HW121197   4.346   4.522   2.064
 6941SOL    HW221198   4.244   4.486   2.186
 6942SOL     OW21199   4.531   4.329   3.327
 6942SOL    HW121200   4.484   4.326   3.416
 6942SOL    HW221201   4.480   4.274   3.261
 6943SOL     OW21202   4.715   4.134   3.104
 6943SOL    HW121203   4.638   4.168   3.158
 6943SOL    HW221204   4.681   4.083   3.025
 6944SOL     OW21205   3.800   4.535   2.651
 6944SOL    HW121206   3.899   4.523   2.660
 6944SOL    HW221207   3.776   4.630   2.672
 6945SOL     OW21208   4.589   4.072   2.057
 6945SOL    HW121209   4.648   4.135   2.008
 6945SOL    HW221210   4.608   3.978   2.028
 6946SOL     OW21211   4.274   3.920   2.747
 6946SOL    HW121212   4.269   3.915   2.847
 6946SOL    HW221213   4.276   4.016   2.718
 6947SOL     OW21214   3.926   4.009   3.360
 6947SOL    HW121215   3.846   4.069   3.347
 6947SOL    HW221216   3.916   3.960   3.446
 6948SOL     OW21217   4.106   4.424   2.342
 6948SOL    HW121218   4.151   4.334   2.339
 6948SOL    HW221219   4.012   4.413   2.375
 6949SOL     OW21220   4.338   3.846   1.979
 6949SOL    HW121221   4.436   3.824   1.986
 6949SOL    HW221222   4.307   3.829   1.886
 6950SOL     OW21223   4.505   3.988   3.611
 6950SOL    HW121224   4.572   3.927   3.654
 6950SOL    HW221225   4.432   4.007   3.676
 6951SOL     OW21226   4.646   4.227   2.761
 6951SOL    HW121227   4.621   4.218   2.665
 6951SOL    HW221228   4.694   4.145   2.792
 6952SOL     OW21229   4.263   3.788   2.374
 6952SOL    HW121230   4.182   3.789   2.432
 6952SOL    HW221231   4.266   3.871   2.319
 6953SOL     OW21232   4.021   3.759   2.033
 6953SOL    HW121233   4.070   3.843   2.012
 6953SOL    HW221234   4.083   3.694   2.078
 6954SOL     OW21235   3.802   4.280   3.248
 6954SOL    HW121236   3.894   4.279   3.207
 6954SOL    HW221237   3.796   4.354   3.315
 6955SOL     OW21238   4.285   3.946   3.009
 6955SOL    HW121239   4.323   3.862   3.046
 6955SOL    HW221240   4.197   3.965   3.053
 6956SOL     OW21241   4.741   3.763   2.615
 6956SOL    HW121242   4.669   3.768   2.546
 6956SOL    HW221243   4.717   3.694   2.684
 6957SOL     OW21244   4.251   3.980   2.190
 6957SOL    HW121245   4.278   3.921   2.115
 6957SOL    HW221246   4.251   4.075   2.159
 6958SOL     OW21247   4.639   3.813   3.264
 6958SOL    HW121248   4.664   3.793   3.169
 6958SOL    HW221249   4.711   3.869   3.306
 6959SOL     OW21250   4.134   4.537   3.113
 6959SOL    HW121251   4.220   4.549   3.163
 6959SOL    HW221252   4.092   4.450   3.140
 6960SOL     OW21253   4.290   4.261   2.727
 6960SOL    HW121254   4.302   4.327   2.653
 6960SOL    HW221255   4.336   4.295   2.810
 6961SOL     OW21256   4.126   4.475   3.460
 6961SOL    HW121257   4.194   4.530   3.413
 6961SOL    HW221258   4.166   4.387   3.487
 6962SOL     OW21259   4.228   3.774   3.602
 6962SOL    HW121260   4.186   3.717   3.532
 6962SOL    HW221261   4.162   3.843   3.634
 6963SOL     OW21262   4.297   4.594   2.891
 6963SOL    HW121263   4.341   4.683   2.882
 6963SOL    HW221264   4.234   4.594   2.968
 6964SOL     OW21265   4.933   4.249   2.137
 6964SOL    HW121266   4.946   4.165   2.191
 6964SOL    HW221267   4.904   4.323   2.197
 6965SOL     OW21268   4.031   3.937   3.093
 6965SOL    HW121269   4.008   3.974   3.183
 6965SOL    HW221270   4.001   3.842   3.087
 6966SOL     OW21271   4.456   4.358   2.926
 6966SOL    HW121272   4.515   4.332   2.850
 6966SOL    HW221273   4.428   4.454   2.915
 6967SOL     OW21274   4.031   3.787   2.480
 6967SOL    HW121275   4.020   3.881   2.513
 6967SOL    HW221276   4.026   3.724   2.557
 6968SOL     OW21277   4.747   4.490   2.828
 6968SOL    HW121278   4.762   4.511   2.924
 6968SOL    HW221279   4.717   4.395   2.819
 6969SOL     OW21280   4.074   4.622   3.666
 6969SOL    HW121281   4.150   4.666   3.714
 6969SOL    HW221282   4.109   4.575   3.584
 6970SOL     OW21283   4.792   5.057   2.711
 6970SOL    HW121284   4.799   4.973   2.656
 6970SOL    HW221285   4.854   5.126   2.675
 6971SOL     OW21286   4.043   4.534   2.811
 6971SOL    HW121287   4.136   4.570   2.816
 6971SOL    HW221288   4.037   4.449   2.863
 6972SOL     OW21289   4.063   4.233   2.868
 6972SOL    HW121290   4.011   4.150   2.851
 6972SOL    HW221291   4.140   4.238   2.804
 6973SOL     OW21292   4.726   4.520   3.100
 6973SOL    HW121293   4.767   4.488   3.186
 6973SOL    HW221294   4.630   4.493   3.097
 6974SOL     OW21295   3.764   4.268   2.976
 6974SOL    HW121296   3.849   4.235   2.935
 6974SOL    HW221297   3.777   4.283   3.074
 6975SOL     OW21298   3.913   4.244   3.584
 6975SOL    HW121299   3.972   4.204   3.514
 6975SOL    HW221300   3.855   4.315   3.543
 6976SOL     OW21301   4.539   4.296   2.187
 6976SOL    HW121302   4.546   4.207   2.141
 6976SOL    HW221303   4.445   4.330   2.179
 6977SOL     OW21304   4.395   4.188   3.131
 6977SOL    HW121305   4.361   4.099   3.101
 6977SOL    HW221306   4.421   4.242   3.051
 6978SOL     OW21307   4.197   4.224   2.053
 6978SOL    HW121308   4.258   4.304   2.057
 6978SOL    HW221309   4.102   4.255   2.060
 6979SOL     OW21310   5.026   4.579   2.171
 6979SOL    HW121311   4.940   4.548   2.213
 6979SOL    HW221312   5.022   4.565   2.072
 6980SOL     OW21313   4.627   3.810   1.995
 6980SOL    HW121314   4.678   3.811   1.909
 6980SOL    HW221315   4.683   3.768   2.066
 6981SOL     OW21316   3.987   4.050   2.582
 6981SOL    HW121317   3.908   4.101   2.548
 6981SOL    HW221318   3.978   4.035   2.680
 6982SOL     OW21319   4.763   4.822   2.558
 6982SOL    HW121320   4.693   4.775   2.612
 6982SOL    HW221321   4.822   4.754   2.515
 6983SOL     OW21322   3.829   4.737   3.588
 6983SOL    HW121323   3.752   4.704   3.642
 6983SOL    HW221324   3.914   4.707   3.630
 6984SOL     OW21325   4.396   3.927   3.351
 6984SOL    HW121326   4.486   3.911   3.311
 6984SOL    HW221327   4.404   3.932   3.450
 6985SOL     OW21328   3.799   4.069   1.895
 6985SOL    HW121329   3.707   4.041   1.866
 6985SOL    HW221330   3.830   4.146   1.839
 6986SOL     OW21331   3.796   3.890   2.180
 6986SOL    HW121332   3.779   3.973   2.126
 6986SOL    HW221333   3.886   3.853   2.158
 6987SOL     OW21334   4.337   4.566   3.293
 6987SOL    HW121335   4.393   4.647   3.276
 6987SOL    HW221336   4.396   4.486   3.296
 6988SOL     OW21337   4.440   4.289   3.570
 6988SOL    HW121338   4.459   4.354   3.644
 6988SOL    HW221339   4.500   4.209   3.579
 6989SOL     OW21340   4.949   4.049   2.311
 6989SOL    HW121341   5.014   3.975   2.300
 6989SOL    HW221342   4.969   4.099   2.395
 6990SOL     OW21343   4.318   4.469   2.514
 6990SOL    HW121344   4.368   4.554   2.495
 6990SOL    HW221345   4.230   4.471   2.466
 6991SOL     OW21346   4.583   4.680   2.723
 6991SOL    HW121347   4.637   4.611   2.771
 6991SOL    HW221348   4.551   4.749   2.789
 6992SOL     OW21349   4.152   4.148   2.382
 6992SOL    HW121350   4.182   4.076   2.320
 6992SOL    HW221351   4.113   4.108   2.465
 6993SOL     OW21352   4.041   4.271   3.142
 6993SOL    HW121353   4.079   4.212   3.214
 6993SOL    HW221354   4.081   4.245   3.054
 6994SOL     OW21355   4.725   3.758   3.016
 6994SOL    HW121356   4.662   3.686   2.985
 6994SOL    HW221357   4.818   3.722   3.016
 6995SOL     OW21358   3.954   4.352   3.837
 6995SOL    HW121359   3.861   4.350   3.874
 6995SOL    HW221360   3.955   4.313   3.745
 6996SOL     OW21361   3.949   3.999   4.720
 6996SOL    HW121362   3.984   3.982   4.812
 6996SOL    HW221363   3.861   3.954   4.708
 6997SOL     OW21364   3.743   4.092   4.371
 6997SOL    HW121365   3.661   4.135   4.410
 6997SOL    HW221366   3.715   4.019   4.308
 6998SOL     OW21367   4.574   4.522   5.547
 6998SOL    HW121368   4.570   4.598   5.612
 6998SOL    HW221369   4.596   4.558   5.456
 6999SOL     OW21370   4.409   4.736   4.389
 6999SOL    HW121371   4.478   4.720   4.459
 6999SOL    HW221372   4.336   4.793   4.427
 7000SOL     OW21373   4.162   4.116   5.223
 7000SOL    HW121374   4.244   4.060   5.232
 7000SOL    HW221375   4.081   4.058   5.227
 7001SOL     OW21376   3.846   4.367   4.287
 7001SOL    HW121377   3.801   4.279   4.304
 7001SOL    HW221378   3.845   4.421   4.371
 7002SOL     OW21379   3.837   4.461   5.321
 7002SOL    HW121380   3.925   4.448   5.366
 7002SOL    HW221381   3.824   4.558   5.299
 7003SOL     OW21382   4.533   3.728   4.226
 7003SOL    HW121383   4.573   3.819   4.217
 7003SOL    HW221384   4.433   3.736   4.232
 7004SOL     OW21385   3.921   4.700   4.988
 7004SOL    HW121386   4.010   4.655   4.974
 7004SOL    HW221387   3.848   4.635   4.969
 7005SOL     OW21388   4.041   3.975   5.525
 7005SOL    HW121389   4.112   4.046   5.531
 7005SOL    HW221390   3.953   4.014   5.553
 7006SOL     OW21391   4.322   4.453   3.994
 7006SOL    HW121392   4.346   4.522   3.926
 7006SOL    HW221393   4.244   4.486   4.048
 7007SOL     OW21394   4.531   4.329   5.189
 7007SOL    HW121395   4.484   4.326   5.278
 7007SOL    HW221396   4.480   4.274   5.123
 7008SOL     OW21397   4.715   4.134   4.966
 7008SOL    HW121398   4.638   4.168   5.020
 7008SOL    HW221399   4.681   4.083   4.887
 7009SOL     OW21400   3.800   4.535   4.513
 7009SOL    HW121401   3.899   4.523   4.522
 7009SOL    HW221402   3.776   4.630   4.534
 7010SOL     OW21403   4.589   4.072   3.919
 7010SOL    HW121404   4.648   4.135   3.870
 7010SOL    HW221405   4.608   3.978   3.890
 7011SOL     OW21406   4.274   3.920   4.609
 7011SOL    HW121407   4.269   3.915   4.709
 7011SOL    HW221408   4.276   4.016   4.580
 7012SOL     OW21409   3.926   4.009   5.222
 7012SOL    HW121410   3.846   4.069   5.209
 7012SOL    HW221411   3.916   3.960   5.308
 7013SOL     OW21412   4.106   4.424   4.204
 7013SOL    HW121413   4.151   4.334   4.201
 7013SOL    HW221414   4.012   4.413   4.237
 7014SOL     OW21415   4.338   3.846   3.841
 7014SOL    HW121416   4.436   3.824   3.848
 7014SOL    HW221417   4.307   3.829   3.748
 7015SOL     OW21418   4.505   3.988   5.473
 7015SOL    HW121419   4.572   3.927   5.516
 7015SOL    HW221420   4.432   4.007   5.538
 7016SOL     OW21421   4.646   4.227   4.623
 7016SOL    HW121422   4.621   4.218   4.527
 7016SOL    HW221423   4.694   4.145   4.654
 7017SOL     OW21424   4.263   3.788   4.236
 7017SOL    HW121425   4.182   3.789   4.294
 7017SOL    HW221426   4.266   3.871   4.181
 7018SOL     OW21427   4.021   3.759   3.895
 7018SOL    HW121428   4.070   3.843   3.874
 7018SOL    HW221429   4.083   3.694   3.940
 7019SOL     OW21430   3.802   4.280   5.110
 7019SOL    HW121431   3.894   4.279   5.069
 7019SOL    HW221432   3.796   4.354   5.177
 7020SOL     OW21433   4.285   3.946   4.871
 7020SOL    HW121434   4.323   3.862   4.908
 7020SOL    HW221435   4.197   3.965   4.915
 7021SOL     OW21436   4.741   3.763   4.477
 7021SOL    HW121437   4.669   3.768   4.408
 7021SOL    HW221438   4.717   3.694   4.546
 7022SOL     OW21439   4.251   3.980   4.052
 7022SOL    HW121440   4.278   3.921   3.977
 7022SOL    HW221441   4.251   4.075   4.021
 7023SOL     OW21442   4.639   3.813   5.126
 7023SOL    HW121443   4.664   3.793   5.031
 7023SOL    HW221444   4.711   3.869   5.168
 7024SOL     OW21445   4.134   4.537   4.975
 7024SOL    HW121446   4.220   4.549   5.025
 7024SOL    HW221447   4.092   4.450   5.002
 7025SOL     OW21448   4.290   4.261   4.589
 7025SOL    HW121449   4.302   4.327   4.515
 7025SOL    HW221450   4.336   4.295   4.672
 7026SOL     OW21451   4.126   4.475   5.322
 7026SOL    HW121452   4.194   4.530   5.275
 7026SOL    HW221453   4.166   4.387   5.349
 7027SOL     OW21454   4.228   3.774   5.464
 7027SOL    HW121455   4.186   3.717   5.394
 7027SOL    HW221456   4.162   3.843   5.496
 7028SOL     OW21457   4.297   4.594   4.753
 7028SOL    HW121458   4.341   4.683   4.744
 7028SOL    HW221459   4.234   4.594   4.830
 7029SOL     OW21460   4.933   4.249   3.999
 7029SOL    HW121461   4.946   4.165   4.053
 7029SOL    HW221462   4.904   4.323   4.059
 7030SOL     OW21463   4.031   3.937   4.955
 7030SOL    HW121464   4.008   3.974   5.045
 7030SOL    HW221465   4.001   3.842   4.949
 7031SOL     OW21466   4.456   4.358   4.788
 7031SOL    HW121467   4.515   4.332   4.712
 7031SOL    HW221468   4.428   4.454   4.777
 7032SOL     OW21469   4.031   3.787   4.342
 7032SOL    HW121470   4.020   3.881   4.375
 7032SOL    HW221471   4.026   3.724   4.419
 7033SOL     OW21472   4.747   4.490   4.690
 7033SOL    HW121473   4.762   4.511   4.786
 7033SOL    HW221474   4.717   4.395   4.681
 7034SOL     OW21475   4.074   4.622   5.528
 7034SOL    HW121476   4.150   4.666   5.576
 7034SOL    HW221477   4.109   4.575   5.446
 7035SOL     OW21478   4.792   5.057   4.573
 7035SOL    HW121479   4.799   4.973   4.518
 7035SOL    HW221480   4.854   5.126   4.537
 7036SOL     OW21481   4.043   4.534   4.673
 7036SOL    HW121482   4.136   4.570   4.678
 7036SOL    HW221483   4.037   4.449   4.725
 7037SOL     OW21484   4.063   4.233   4.730
 7037SOL    HW121485   4.011   4.150   4.713
 7037SOL    HW221486   4.140   4.238   4.666
 7038SOL     OW21487   4.726   4.520   4.962
 7038SOL    HW121488   4.767   4.488   5.048
 7038SOL    HW221489   4.630   4.493   4.959
 7039SOL     OW21490   3.764   4.268   4.838
 7039SOL    HW121491   3.849   4.235   4.797
 7039SOL    HW221492   3.777   4.283   4.936
 7040SOL     OW21493   3.913   4.244   5.446
 7040SOL    HW121494   3.972   4.204   5.376
 7040SOL    HW221495   3.855   4.315   5.405
 7041SOL     OW21496   4.539   4.296   4.049
 7041SOL    HW121497   4.546   4.207   4.003
 7041SOL    HW221498   4.445   4.330   4.041
 7042SOL     OW21499   4.395   4.188   4.993
 7042SOL    HW121500   4.361   4.099   4.963
 7042SOL    HW221501   4.421   4.242   4.913
 7043SOL     OW21502   4.197   4.224   3.915
 7043SOL    HW121503   4.258   4.304   3.919
 7043SOL    HW221504   4.102   4.255   3.922
 7044SOL     OW21505   5.026   4.579   4.033
 7044SOL    HW121506   4.940   4.548   4.075
 7044SOL    HW221507   5.022   4.565   3.934
 7045SOL     OW21508   4.627   3.810   3.857
 7045SOL    HW121509   4.678   3.811   3.771
 7045SOL    HW221510   4.683   3.768   3.928
 7046SOL     OW21511   3.987   4.050   4.444
 7046SOL    HW121512   3.908   4.101   4.410
 7046SOL    HW221513   3.978   4.035   4.542
 7047SOL     OW21514   4.763   4.822   4.420
 7047SOL    HW121515   4.693   4.775   4.474
 7047SOL    HW221516   4.822   4.754   4.377
 7048SOL     OW21517   3.829   4.737   5.450
 7048SOL    HW121518   3.752   4.704   5.504
 7048SOL    HW221519   3.914   4.707   5.492
 7049SOL     OW21520   4.396   3.927   5.213
 7049SOL    HW121521   4.486   3.911   5.173
 7049SOL    HW221522   4.404   3.932   5.312
 7050SOL     OW21523   3.799   4.069   3.757
 7050SOL    HW121524   3.707   4.041   3.728
 7050SOL    HW221525   3.830   4.146   3.701
 7051SOL     OW21526   3.796   3.890   4.042
 7051SOL    HW121527   3.779   3.973   3.988
 7051SOL    HW221528   3.886   3.853   4.020
 7052SOL     OW21529   4.337   4.566   5.155
 7052SOL    HW121530   4.393   4.647   5.138
 7052SOL    HW221531   4.396   4.486   5.158
 7053SOL     OW21532   4.440   4.289   5.432
 7053SOL    HW121533   4.459   4.354   5.506
 7053SOL    HW221534   4.500   4.209   5.441
 7054SOL     OW21535   4.949   4.049   4.173
 7054SOL    HW121536   5.014   3.975   4.162
 7054SOL    HW221537   4.969   4.099   4.257
 7055SOL     OW21538   4.318   4.469   4.376
 7055SOL    HW121539   4.368   4.554   4.357
 7055SOL    HW221540   4.230   4.471   4.328
 7056SOL     OW21541   4.583   4.680   4.585
 7056SOL    HW121542   4.637   4.611   4.633
 7056SOL    HW221543   4.551   4.749   4.651
 7057SOL     OW21544   4.152   4.148   4.244
 7057SOL    HW121545   4.182   4.076   4.182
 7057SOL    HW221546   4.113   4.108   4.327
 7058SOL     OW21547   4.041   4.271   5.004
 7058SOL    HW121548   4.079   4.212   5.076
 7058SOL    HW221549   4.081   4.245   4.916
 7059SOL     OW21550   4.725   3.758   4.878
 7059SOL    HW121551   4.662   3.686   4.847
 7059SOL    HW221552   4.818   3.722   4.878
 7060SOL     OW21553   3.954   4.352   5.699
 7060SOL    HW121554   3.861   4.350   5.736
 7060SOL    HW221555   3.955   4.313   5.607
 7061SOL     OW21556   3.949   3.999   6.582
 7061SOL    HW121557   3.984   3.982   6.674
 7061SOL    HW221558   3.861   3.954   6.570
 7062SOL     OW21559   3.743   4.092   6.233
 7062SOL    HW121560   3.661   4.135   6.272
 7062SOL    HW221561   3.715   4.019   6.170
 7063SOL     OW21562   4.574   4.522   7.409
 7063SOL    HW121563   4.570   4.598   7.474
 7063SOL    HW221564   4.596   4.558   7.318
 7064SOL     OW21565   4.409   4.736   6.251
 7064SOL    HW121566   4.478   4.720   6.321
 7064SOL    HW221567   4.336   4.793   6.289
 7065SOL     OW21568   4.162   4.116   7.085
 7065SOL    HW121569   4.244   4.060   7.094
 7065SOL    HW221570   4.081   4.058   7.089
 7066SOL     OW21571   3.846   4.367   6.149
 7066SOL    HW121572   3.801   4.279   6.166
 7066SOL    HW221573   3.845   4.421   6.233
 7067SOL     OW21574   3.837   4.461   7.183
 7067SOL    HW121575   3.925   4.448   7.228
 7067SOL    HW221576   3.824   4.558   7.161
 7068SOL     OW21577   4.533   3.728   6.088
 7068SOL    HW121578   4.573   3.819   6.079
 7068SOL    HW221579   4.433   3.736   6.094
 7069SOL     OW21580   3.921   4.700   6.850
 7069SOL    HW121581   4.010   4.655   6.836
 7069SOL    HW221582   3.848   4.635   6.831
 7070SOL     OW21583   4.041   3.975   7.387
 7070SOL    HW121584   4.112   4.046   7.393
 7070SOL    HW221585   3.953   4.014   7.415
 7071SOL     OW21586   4.322   4.453   5.856
 7071SOL    HW121587   4.346   4.522   5.788
 7071SOL    HW221588   4.244   4.486   5.910
 7072SOL     OW21589   4.531   4.329   7.051
 7072SOL    HW121590   4.484   4.326   7.140
 7072SOL    HW221591   4.480   4.274   6.985
 7073SOL     OW21592   4.715   4.134   6.828
 7073SOL    HW121593   4.638   4.168   6.882
 7073SOL    HW221594   4.681   4.083   6.749
 7074SOL     OW21595   3.800   4.535   6.375
 7074SOL    HW121596   3.899   4.523   6.384
 7074SOL    HW221597   3.776   4.630   6.396
 7075SOL     OW21598   4.589   4.072   5.781
 7075SOL    HW121599   4.648   4.135   5.732
 7075SOL    HW221600   4.608   3.978   5.752
 7076SOL     OW21601   4.274   3.920   6.471
 7076SOL    HW121602   4.269   3.915   6.571
 7076SOL    HW221603   4.276   4.016   6.442
 7077SOL     OW21604   3.926   4.009   7.084
 7077SOL    HW121605   3.846   4.069   7.071
 7077SOL    HW221606   3.916   3.960   7.170
 7078SOL     OW21607   4.106   4.424   6.066
 7078SOL    HW121608   4.151   4.334   6.063
 7078SOL    HW221609   4.012   4.413   6.099
 7079SOL     OW21610   4.338   3.846   5.703
 7079SOL    HW121611   4.436   3.824   5.710
 7079SOL    HW221612   4.307   3.829   5.610
 7080SOL     OW21613   4.505   3.988   7.335
 7080SOL    HW121614   4.572   3.927   7.378
 7080SOL    HW221615   4.432   4.007   7.400
 7081SOL     OW21616   4.646   4.227   6.485
 7081SOL    HW121617   4.621   4.218   6.389
 7081SOL    HW221618   4.694   4.145   6.516
 7082SOL     OW21619   4.263   3.788   6.098
 7082SOL    HW121620   4.182   3.789   6.156
 7082SOL    HW221621   4.266   3.871   6.043
 7083SOL     OW21622   4.021   3.759   5.757
 7083SOL    HW121623   4.070   3.843   5.736
 7083SOL    HW221624   4.083   3.694   5.802
 7084SOL     OW21625   3.802   4.280   6.972
 7084SOL    HW121626   3.894   4.279   6.931
 7084SOL    HW221627   3.796   4.354   7.039
 7085SOL     OW21628   4.285   3.946   6.733
 7085SOL    HW121629   4.323   3.862   6.770
 7085SOL    HW221630   4.197   3.965   6.777
 7086SOL     OW21631   4.741   3.763   6.339
 7086SOL    HW121632   4.669   3.768   6.270
 7086SOL    HW221633   4.717   3.694   6.408
 7087SOL     OW21634   4.251   3.980   5.914
 7087SOL    HW121635   4.278   3.921   5.839
 7087SOL    HW221636   4.251   4.075   5.883
 7088SOL     OW21637   4.639   3.813   6.988
 7088SOL    HW121638   4.664   3.793   6.893
 7088SOL    HW221639   4.711   3.869   7.030
 7089SOL     OW21640   4.134   4.537   6.837
 7089SOL    HW121641   4.220   4.549   6.887
 7089SOL    HW221642   4.092   4.450   6.864
 7090SOL     OW21643   4.290   4.261   6.451
 7090SOL    HW121644   4.302   4.327   6.377
 7090SOL    HW221645   4.336   4.295   6.534
 7091SOL     OW21646   4.126   4.475   7.184
 7091SOL    HW121647   4.194   4.530   7.137
 7091SOL    HW221648   4.166   4.387   7.211
 7092SOL     OW21649   4.228   3.774   7.326
 7092SOL    HW121650   4.186   3.717   7.256
 7092SOL    HW221651   4.162   3.843   7.358
 7093SOL     OW21652   4.297   4.594   6.615
 7093SOL    HW121653   4.341   4.683   6.606
 7093SOL    HW221654   4.234   4.594   6.692
 7094SOL     OW21655   4.933   4.249   5.861
 7094SOL    HW121656   4.946   4.165   5.915
 7094SOL    HW221657   4.904   4.323   5.921
 7095SOL     OW21658   4.031   3.937   6.817
 7095SOL    HW121659   4.008   3.974   6.907
 7095SOL    HW221660   4.001   3.842   6.811
 7096SOL     OW21661   4.456   4.358   6.650
 7096SOL    HW121662   4.515   4.332   6.574
 7096SOL    HW221663   4.428   4.454   6.639
 7097SOL     OW21664   4.031   3.787   6.204
 7097SOL    HW121665   4.020   3.881   6.237
 7097SOL    HW221666   4.026   3.724   6.281
 7098SOL     OW21667   4.747   4.490   6.552
 7098SOL    HW121668   4.762   4.511   6.648
 7098SOL    HW221669   4.717   4.395   6.543
 7099SOL     OW21670   4.074   4.622   7.390
 7099SOL    HW121671   4.150   4.666   7.438
 7099SOL    HW221672   4.109   4.575   7.308
 7100SOL     OW21673   4.792   5.057   6.435
 7100SOL    HW121674   4.799   4.973   6.380
 7100SOL    HW221675   4.854   5.126   6.399
 7101SOL     OW21676   4.043   4.534   6.535
 7101SOL    HW121677   4.136   4.570   6.540
 7101SOL    HW221678   4.037   4.449   6.587
 7102SOL     OW21679   4.063   4.233   6.592
 7102SOL    HW121680   4.011   4.150   6.575
 7102SOL    HW221681   4.140   4.238   6.528
 7103SOL     OW21682   4.726   4.520   6.824
 7103SOL    HW121683   4.767   4.488   6.910
 7103SOL    HW221684   4.630   4.493   6.821
 7104SOL     OW21685   3.764   4.268   6.700
 7104SOL    HW121686   3.849   4.235   6.659
 7104SOL    HW221687   3.777   4.283   6.798
 7105SOL     OW21688   3.913   4.244   7.308
 7105SOL    HW121689   3.972   4.204   7.238
 7105SOL    HW221690   3.855   4.315   7.267
 7106SOL     OW21691   4.539   4.296   5.911
 7106SOL    HW121692   4.546   4.207   5.865
 7106SOL    HW221693   4.445   4.330   5.903
 7107SOL     OW21694   4.395   4.188   6.855
 7107SOL    HW121695   4.361   4.099   6.825
 7107SOL    HW221696   4.421   4.242   6.775
 7108SOL     OW21697   4.197   4.224   5.777
 7108SOL    HW121698   4.258   4.304   5.781
 7108SOL    HW221699   4.102   4.255   5.784
 7109SOL     OW21700   5.026   4.579   5.895
 7109SOL    HW121701   4.940   4.548   5.937
 7109SOL    HW221702   5.022   4.565   5.796
 7110SOL     OW21703   4.627   3.810   5.719
 7110SOL    HW121704   4.678   3.811   5.633
 7110SOL    HW221705   4.683   3.768   5.790
 7111SOL     OW21706   3.987   4.050   6.306
 7111SOL    HW121707   3.908   4.101   6.272
 7111SOL    HW221708   3.978   4.035   6.404
 7112SOL     OW21709   4.763   4.822   6.282
 7112SOL    HW121710   4.693   4.775   6.336
 7112SOL    HW221711   4.822   4.754   6.239
 7113SOL     OW21712   3.829   4.737   7.312
 7113SOL    HW121713   3.752   4.704   7.366
 7113SOL    HW221714   3.914   4.707   7.354
 7114SOL     OW21715   4.396   3.927   7.075
 7114SOL    HW121716   4.486   3.911   7.035
 7114SOL    HW221717   4.404   3.932   7.174
 7115SOL     OW21718   3.799   4.069   5.619
 7115SOL    HW121719   3.707   4.041   5.590
 7115SOL    HW221720   3.830   4.146   5.563
 7116SOL     OW21721   3.796   3.890   5.904
 7116SOL    HW121722   3.779   3.973   5.850
 7116SOL    HW221723   3.886   3.853   5.882
 7117SOL     OW21724   4.337   4.566   7.017
 7117SOL    HW121725   4.393   4.647   7.000
 7117SOL    HW221726   4.396   4.486   7.020
 7118SOL     OW21727   4.440   4.289   7.294
 7118SOL    HW121728   4.459   4.354   7.368
 7118SOL    HW221729   4.500   4.209   7.303
 7119SOL     OW21730   4.949   4.049   6.035
 7119SOL    HW121731   5.014   3.975   6.024
 7119SOL    HW221732   4.969   4.099   6.119
 7120SOL     OW21733   4.318   4.469   6.238
 7120SOL    HW121734   4.368   4.554   6.219
 7120SOL    HW221735   4.230   4.471   6.190
 7121SOL     OW21736   4.583   4.680   6.447
 7121SOL    HW121737   4.637   4.611   6.495
 7121SOL    HW221738   4.551   4.749   6.513
 7122SOL     OW21739   4.152   4.148   6.106
 7122SOL    HW121740   4.182   4.076   6.044
 7122SOL    HW221741   4.113   4.108   6.189
 7123SOL     OW21742   4.041   4.271   6.866
 7123SOL    HW121743   4.079   4.212   6.938
 7123SOL    HW221744   4.081   4.245   6.778
 7124SOL     OW21745   4.725   3.758   6.740
 7124SOL    HW121746   4.662   3.686   6.709
 7124SOL    HW221747   4.818   3.722   6.740
 7125SOL     OW21748   3.954   4.352   7.561
 7125SOL    HW121749   3.861   4.350   7.598
 7125SOL    HW221750   3.955   4.313   7.469
 7126SOL     OW21751   3.949   3.999   8.444
 7126SOL    HW121752   3.984   3.982   8.536
 7126SOL    HW221753   3.861   3.954   8.432
 7127SOL     OW21754   3.743   4.092   8.095
 7127SOL    HW121755   3.661   4.135   8.134
 7127SOL    HW221756   3.715   4.019   8.032
 7128SOL     OW21757   4.574   4.522   9.271
 7128SOL    HW121758   4.570   4.598   9.336
 7128SOL    HW221759   4.596   4.558   9.180
 7129SOL     OW21760   4.409   4.736   8.113
 7129SOL    HW121761   4.478   4.720   8.183
 7129SOL    HW221762   4.336   4.793   8.151
 7130SOL     OW21763   4.162   4.116   8.947
 7130SOL    HW121764   4.244   4.060   8.956
 7130SOL    HW221765   4.081   4.058   8.951
 7131SOL     OW21766   3.846   4.367   8.011
 7131SOL    HW121767   3.801   4.279   8.028
 7131SOL    HW221768   3.845   4.421   8.095
 7132SOL     OW21769   3.837   4.461   9.045
 7132SOL    HW121770   3.925   4.448   9.090
 7132SOL    HW221771   3.824   4.558   9.023
 7133SOL     OW21772   4.533   3.728   7.950
 7133SOL    HW121773   4.573   3.819   7.941
 7133SOL    HW221774   4.433   3.736   7.956
 7134SOL     OW21775   3.921   4.700   8.712
 7134SOL    HW121776   4.010   4.655   8.698
 7134SOL    HW221777   3.848   4.635   8.693
 7135SOL     OW21778   4.041   3.975   9.249
 7135SOL    HW121779   4.112   4.046   9.255
 7135SOL    HW221780   3.953   4.014   9.277
 7136SOL     OW21781   4.322   4.453   7.718
 7136SOL    HW121782   4.346   4.522   7.650
 7136SOL    HW221783   4.244   4.486   7.772
 7137SOL     OW21784   4.531   4.329   8.913
 7137SOL    HW121785   4.484   4.326   9.002
 7137SOL    HW221786   4.480   4.274   8.847
 7138SOL     OW21787   4.715   4.134   8.690
 7138SOL    HW121788   4.638   4.168   8.744
 7138SOL    HW221789   4.681   4.083   8.611
 7139SOL     OW21790   3.800   4.535   8.237
 7139SOL    HW121791   3.899   4.523   8.246
 7139SOL    HW221792   3.776   4.630   8.258
 7140SOL     OW21793   4.589   4.072   7.643
 7140SOL    HW121794   4.648   4.135   7.594
 7140SOL    HW221795   4.608   3.978   7.614
 7141SOL     OW21796   4.274   3.920   8.333
 7141SOL    HW121797   4.269   3.915   8.433
 7141SOL    HW221798   4.276   4.016   8.304
 7142SOL     OW21799   3.926   4.009   8.946
 7142SOL    HW121800   3.846   4.069   8.933
 7142SOL    HW221801   3.916   3.960   9.032
 7143SOL     OW21802   4.106   4.424   7.928
 7143SOL    HW121803   4.151   4.334   7.925
 7143SOL    HW221804   4.012   4.413   7.961
 7144SOL     OW21805   4.338   3.846   7.565
 7144SOL    HW121806   4.436   3.824   7.572
 7144SOL    HW221807   4.307   3.829   7.472
 7145SOL     OW21808   4.505   3.988   9.197
 7145SOL    HW121809   4.572   3.927   9.240
 7145SOL    HW221810   4.432   4.007   9.262
 7146SOL     OW21811   4.646   4.227   8.347
 7146SOL    HW121812   4.621   4.218   8.251
 7146SOL    HW221813   4.694   4.145   8.378
 7147SOL     OW21814   4.263   3.788   7.960
 7147SOL    HW121815   4.182   3.789   8.018
 7147SOL    HW221816   4.266   3.871   7.905
 7148SOL     OW21817   4.021   3.759   7.619
 7148SOL    HW121818   4.070   3.843   7.598
 7148SOL    HW221819   4.083   3.694   7.664
 7149SOL     OW21820   3.802   4.280   8.834
 7149SOL    HW121821   3.894   4.279   8.793
 7149SOL    HW221822   3.796   4.354   8.901
 7150SOL     OW21823   4.285   3.946   8.595
 7150SOL    HW121824   4.323   3.862   8.632
 7150SOL    HW221825   4.197   3.965   8.639
 7151SOL     OW21826   4.741   3.763   8.201
 7151SOL    HW121827   4.669   3.768   8.132
 7151SOL    HW221828   4.717   3.694   8.270
 7152SOL     OW21829   4.251   3.980   7.776
 7152SOL    HW121830   4.278   3.921   7.701
 7152SOL    HW221831   4.251   4.075   7.745
 7153SOL     OW21832   4.639   3.813   8.850
 7153SOL    HW121833   4.664   3.793   8.755
 7153SOL    HW221834   4.711   3.869   8.892
 7154SOL     OW21835   4.134   4.537   8.699
 7154SOL    HW121836   4.220   4.549   8.749
 7154SOL    HW221837   4.092   4.450   8.726
 7155SOL     OW21838   4.290   4.261   8.313
 7155SOL    HW121839   4.302   4.327   8.239
 7155SOL    HW221840   4.336   4.295   8.396
 7156SOL     OW21841   4.126   4.475   9.046
 7156SOL    HW121842   4.194   4.530   8.999
 7156SOL    HW221843   4.166   4.387   9.073
 7157SOL     OW21844   4.228   3.774   9.188
 7157SOL    HW121845   4.186   3.717   9.118
 7157SOL    HW221846   4.162   3.843   9.220
 7158SOL     OW21847   4.297   4.594   8.477
 7158SOL    HW121848   4.341   4.683   8.468
 7158SOL    HW221849   4.234   4.594   8.554
 7159SOL     OW21850   4.933   4.249   7.723
 7159SOL    HW121851   4.946   4.165   7.777
 7159SOL    HW221852   4.904   4.323   7.783
 7160SOL     OW21853   4.031   3.937   8.679
 7160SOL    HW121854   4.008   3.974   8.769
 7160SOL    HW221855   4.001   3.842   8.673
 7161SOL     OW21856   4.456   4.358   8.512
 7161SOL    HW121857   4.515   4.332   8.436
 7161SOL    HW221858   4.428   4.454   8.501
 7162SOL     OW21859   4.031   3.787   8.066
 7162SOL    HW121860   4.020   3.881   8.099
 7162SOL    HW221861   4.026   3.724   8.143
 7163SOL     OW21862   4.747   4.490   8.414
 7163SOL    HW121863   4.762   4.511   8.510
 7163SOL    HW221864   4.717   4.395   8.405
 7164SOL     OW21865   4.074   4.622   9.252
 7164SOL    HW121866   4.150   4.666   9.300
 7164SOL    HW221867   4.109   4.575   9.170
 7165SOL     OW21868   4.792   5.057   8.297
 7165SOL    HW121869   4.799   4.973   8.242
 7165SOL    HW221870   4.854   5.126   8.261
 7166SOL     OW21871   4.043   4.534   8.397
 7166SOL    HW121872   4.136   4.570   8.402
 7166SOL    HW221873   4.037   4.449   8.449
 7167SOL     OW21874   4.063   4.233   8.454
 7167SOL    HW121875   4.011   4.150   8.437
 7167SOL    HW221876   4.140   4.238   8.390
 7168SOL     OW21877   4.726   4.520   8.686
 7168SOL    HW121878   4.767   4.488   8.772
 7168SOL    HW221879   4.630   4.493   8.683
 7169SOL     OW21880   3.764   4.268   8.562
 7169SOL    HW121881   3.849   4.235   8.521
 7169SOL    HW221882   3.777   4.283   8.660
 7170SOL     OW21883   3.913   4.244   9.170
 7170SOL    HW121884   3.972   4.204   9.100
 7170SOL    HW221885   3.855   4.315   9.129
 7171SOL     OW21886   4.539   4.296   7.773
 7171SOL    HW121887   4.546   4.207   7.727
 7171SOL    HW221888   4.445   4.330   7.765
 7172SOL     OW21889   4.395   4.188   8.717
 7172SOL    HW121890   4.361   4.099   8.687
 7172SOL    HW221891   4.421   4.242   8.637
 7173SOL     OW21892   4.197   4.224   7.639
 7173SOL    HW121893   4.258   4.304   7.643
 7173SOL    HW221894   4.102   4.255   7.646
 7174SOL     OW21895   5.026   4.579   7.757
 7174SOL    HW121896   4.940   4.548   7.799
 7174SOL    HW221897   5.022   4.565   7.658
 7175SOL     OW21898   4.627   3.810   7.581
 7175SOL    HW121899   4.678   3.811   7.495
 7175SOL    HW221900   4.683   3.768   7.652
 7176SOL     OW21901   3.987   4.050   8.168
 7176SOL    HW121902   3.908   4.101   8.134
 7176SOL    HW221903   3.978   4.035   8.266
 7177SOL     OW21904   4.763   4.822   8.144
 7177SOL    HW121905   4.693   4.775   8.198
 7177SOL    HW221906   4.822   4.754   8.101
 7178SOL     OW21907   3.829   4.737   9.174
 7178SOL    HW121908   3.752   4.704   9.228
 7178SOL    HW221909   3.914   4.707   9.216
 7179SOL     OW21910   4.396   3.927   8.937
 7179SOL    HW121911   4.486   3.911   8.897
 7179SOL    HW221912   4.404   3.932   9.036
 7180SOL     OW21913   3.799   4.069   7.481
 7180SOL    HW121914   3.707   4.041   7.452
 7180SOL    HW221915   3.830   4.146   7.425
 7181SOL     OW21916   3.796   3.890   7.766
 7181SOL    HW121917   3.779   3.973   7.712
 7181SOL    HW221918   3.886   3.853   7.744
 7182SOL     OW21919   4.337   4.566   8.879
 7182SOL    HW121920   4.393   4.647   8.862
 7182SOL    HW221921   4.396   4.486   8.882
 7183SOL     OW21922   4.440   4.289   9.156
 7183SOL    HW121923   4.459   4.354   9.230
 7183SOL    HW221924   4.500   4.209   9.165
 7184SOL     OW21925   4.949   4.049   7.897
 7184SOL    HW121926   5.014   3.975   7.886
 7184SOL    HW221927   4.969   4.099   7.981
 7185SOL     OW21928   4.318   4.469   8.100
 7185SOL    HW121929   4.368   4.554   8.081
 7185SOL    HW221930   4.230   4.471   8.052
 7186SOL     OW21931   4.583   4.680   8.309
 7186SOL    HW121932   4.637   4.611   8.357
 7186SOL    HW221933   4.551   4.749   8.375
 7187SOL     OW21934   4.152   4.148   7.968
 7187SOL    HW121935   4.182   4.076   7.906
 7187SOL    HW221936   4.113   4.108   8.051
 7188SOL     OW21937   4.041   4.271   8.728
 7188SOL    HW121938   4.079   4.212   8.800
 7188SOL    HW221939   4.081   4.245   8.640
 7189SOL     OW21940   4.725   3.758   8.602
 7189SOL    HW121941   4.662   3.686   8.571
 7189SOL    HW221942   4.818   3.722   8.602
 7190SOL     OW21943   3.954   4.352   9.423
 7190SOL    HW121944   3.861   4.350   9.460
 7190SOL    HW221945   3.955   4.313   9.331
 7191SOL     OW21946   3.846   4.367   9.873
 7191SOL    HW121947   3.801   4.279   9.890
 7191SOL    HW221948   3.845   4.421   9.957
 7192SOL     OW21949   4.533   3.728   9.812
 7192SOL    HW121950   4.573   3.819   9.803
 7192SOL    HW221951   4.433   3.736   9.818
 7193SOL     OW21952   4.322   4.453   9.580
 7193SOL    HW121953   4.346   4.522   9.512
 7193SOL    HW221954   4.244   4.486   9.634
 7194SOL     OW21955   3.800   4.535  10.099
 7194SOL    HW121956   3.899   4.523  10.108
 7194SOL    HW221957   3.776   4.630  10.120
 7195SOL     OW21958   4.589   4.072   9.505
 7195SOL    HW121959   4.648   4.135   9.456
 7195SOL    HW221960   4.608   3.978   9.476
 7196SOL     OW21961   4.106   4.424   9.790
 7196SOL    HW121962   4.151   4.334   9.787
 7196SOL    HW221963   4.012   4.413   9.823
 7197SOL     OW21964   4.338   3.846   9.427
 7197SOL    HW121965   4.436   3.824   9.434
 7197SOL    HW221966   4.307   3.829   9.334
 7198SOL     OW21967   4.263   3.788   9.822
 7198SOL    HW121968   4.182   3.789   9.880
 7198SOL    HW221969   4.266   3.871   9.767
 7199SOL     OW21970   4.021   3.759   9.481
 7199SOL    HW121971   4.070   3.843   9.460
 7199SOL    HW221972   4.083   3.694   9.526
 7200SOL     OW21973   4.659   3.960   9.790
 7200SOL    HW121974   4.611   4.001   9.712
 7200SOL    HW221975   4.758   3.958   9.771
 7201SOL     OW21976   4.590   4.178   9.952
 7201SOL    HW121977   4.558   4.250   9.890
 7201SOL    HW221978   4.614   4.097   9.899
 7202SOL     OW21979   4.251   3.980   9.638
 7202SOL    HW121980   4.278   3.921   9.563
 7202SOL    HW221981   4.251   4.075   9.607
 7203SOL     OW21982   4.933   4.249   9.585
 7203SOL    HW121983   4.946   4.165   9.639
 7203SOL    HW221984   4.904   4.323   9.645
 7204SOL     OW21985   4.031   3.787   9.928
 7204SOL    HW121986   4.020   3.881   9.961
 7204SOL    HW221987   4.026   3.724  10.005
 7205SOL     OW21988   4.043   4.534  10.259
 7205SOL    HW121989   4.136   4.570  10.264
 7205SOL    HW221990   4.037   4.449  10.311
 7206SOL     OW21991   4.539   4.296   9.635
 7206SOL    HW121992   4.546   4.207   9.589
 7206SOL    HW221993   4.445   4.330   9.627
 7207SOL     OW21994   4.197   4.224   9.501
 7207SOL    HW121995   4.258   4.304   9.505
 7207SOL    HW221996   4.102   4.255   9.508
 7208SOL     OW21997   5.026   4.579   9.619
 7208SOL    HW121998   4.940   4.548   9.661
 7208SOL    HW221999   5.022   4.565   9.520
 7209SOL     OW22000   4.627   3.810   9.443
 7209SOL    HW122001   4.678   3.811   9.357
 7209SOL    HW222002   4.683   3.768   9.514
 7210SOL     OW22003   3.799   4.069   9.343
 7210SOL    HW122004   3.707   4.041   9.314
 7210SOL    HW222005   3.830   4.146   9.287
 7211SOL     OW22006   3.796   3.890   9.628
 7211SOL    HW122007   3.779   3.973   9.574
 7211SOL    HW222008   3.886   3.853   9.606
 7212SOL     OW22009   4.949   4.049   9.759
 7212SOL    HW122010   5.014   3.975   9.748
 7212SOL    HW222011   4.969   4.099   9.843
 7213SOL     OW22012   4.318   4.469   9.962
 7213SOL    HW122013   4.368   4.554   9.943
 7213SOL    HW222014   4.230   4.471   9.914
 7214SOL     OW22015   4.152   4.148   9.830
 7214SOL    HW122016   4.182   4.076   9.768
 7214SOL    HW222017   4.113   4.108   9.913
   4.74000   4.74000  10.00000
